FOO
138240
    1MOL0     O    1  10.606   5.268   5.863  0.3389 -0.0027 -0.2303
    1MOL0     C    2  10.649   5.163   5.820 -0.3956  0.9438 -0.5548
    1MOL0     O    3  10.589   5.080   5.723 -0.2493 -0.6735  0.7389
    1MOL0     C    4  10.453   5.102   5.692  0.3476  0.0904 -0.1345
    1MOL0     C    5  10.414   5.165   5.577 -0.0765 -0.1237  0.1815
    1MOL0     C    6  10.281   5.192   5.535  0.4354 -0.0354  0.8749
    1MOL0     C    7  10.182   5.153   5.625 -0.1847  0.4462  0.5612
    1MOL0     O    8  10.049   5.184   5.616 -0.8195  0.0559  0.4340
    1MOL0     C    9   9.990   5.155   5.489 -0.0386 -0.2558  0.6068
    1MOL0     C   10   9.868   5.244   5.455 -0.2584  0.8551 -0.1316
    1MOL0     C   11   9.766   5.257   5.575  0.5071  0.3052 -0.7272
    1MOL0     C   12   9.668   5.378   5.538 -1.0625  0.0044  0.8174
    1MOL0     C   13   9.540   5.360   5.609 -0.1042  0.3225  0.1818
    1MOL0     C   14   9.430   5.452   5.549 -0.2568 -0.9512  0.3809
    1MOL0     C   15   9.313   5.476   5.644  0.1645 -0.2853  0.2971
    1MOL0     C   16   9.250   5.611   5.613 -0.6084  0.7397  0.0377
    1MOL0     N   17   9.169   5.610   5.491 -0.6324 -0.0509  0.2965
    1MOL0     C   18   9.039   5.564   5.484  0.6013 -0.2474  0.8877
    1MOL0     C   19   9.004   5.593   5.350 -0.4021 -0.8192 -0.6141
    1MOL0     C   20   8.877   5.572   5.282 -0.9660 -0.5787 -0.4821
    1MOL0     C   21   8.828   5.710   5.222  0.0250  0.4778 -0.5388
    1MOL0     C   22   8.679   5.692   5.173  0.8163 -0.0631 -0.0403
    1MOL0     C   23   8.629   5.807   5.087  0.3317 -0.2974  0.0682
    1MOL0     O   24   8.489   5.795   5.046  0.0675 -0.1878  0.2002
    1MOL0     C   25   8.391   5.831   5.133  0.4954  0.2516 -0.7658
    1MOL0     C   26   8.423   5.869   5.266  0.3031  0.7118  0.9923
    1MOL0     C   27   8.324   5.901   5.353  0.3999 -0.5998 -0.1506
    1MOL0     C   28   8.365   5.939   5.493 -0.2520 -0.7112  0.5372
    1MOL0     C   29   8.190   5.914   5.307 -0.4321  0.2445 -0.7528
    1MOL0     C   30   8.083   5.981   5.377 -0.5691  0.3021 -0.2341
    1MOL0     O   31   7.961   5.948   5.340 -0.5294 -0.0479  0.0311
    1MOL0     C   32   7.862   6.002   5.413 -0.5285 -0.2998  0.3214
    1MOL0     C   33   7.842   6.144   5.419  0.5874 -0.2509  1.0576
    1MOL0     C   34   7.724   6.189   5.483 -0.3937  0.0495  0.4916
    1MOL0     C   35   7.636   6.101   5.546  0.4365 -0.0220 -0.3772
    1MOL0     O   36   7.534   6.128   5.635 -0.5909 -0.1377  0.6103
    1MOL0     C   37   7.495   6.265   5.662 -0.3750  0.1127  0.3610
    1MOL0     C   38   7.395   6.309   5.555 -0.2156 -0.8295 -0.5845
    1MOL0     C   39   7.251   6.244   5.578 -0.3176  0.5202 -0.3762
    1MOL0     C   40   7.155   6.309   5.479  0.5115 -0.0328  0.8642
    1MOL0     C   41   7.020   6.253   5.500  0.8677  0.1699 -0.4205
    1MOL0     C   42   6.918   6.291   5.390  0.0578  0.2972 -0.4315
    1MOL0     C   43   6.785   6.210   5.417 -0.2029  0.2204 -0.6717
    1MOL0     C   44   6.659   6.300   5.389  0.2648  0.2924 -0.3759
    1MOL0    Cl   45   6.518   6.189   5.358 -0.1553 -0.0990 -0.5440
    1MOL0     C   46   7.655   5.961   5.523  0.3308  0.0525  0.0840
    1MOL0     C   47   7.759   5.910   5.448  0.6103 -0.1530 -0.5185
    1MOL0     O   48   8.109   6.059   5.466  0.2341 -0.3800 -0.6484
    1MOL0     C   49   8.159   5.862   5.177  0.4430 -0.3691  0.1578
    1MOL0     C   50   8.262   5.820   5.092 -0.0985  0.5353 -0.1757
    1MOL0     N   51   9.118   5.642   5.287  0.3054 -0.4395  0.1327
    1MOL0     N   52   9.211   5.655   5.368  0.2585 -0.0465  0.3754
    1MOL0     C   53  10.216   5.102   5.747 -0.4361 -0.4170 -0.0250
    1MOL0     C   54  10.350   5.071   5.788  0.0338 -1.0083  0.3038
    1MOL0     C   55  10.788   5.118   5.864  0.7440 -0.1739 -0.6541
    1MOL0     C   56  10.848   5.019   5.784 -0.1803 -0.6371  0.1493
    1MOL0     C   57  10.981   4.982   5.826 -0.4924 -0.4132 -0.1223
    1MOL0     C   58  11.045   5.046   5.928 -0.1584  0.3283  0.6964
    1MOL0     O   59  11.178   5.019   5.952  0.4020  0.6811  0.7956
    1MOL0     C   60  11.244   5.059   6.072  0.0294  0.5053  0.3154
    1MOL0     C   61  11.380   4.985   6.089 -0.2848  0.1851 -0.3291
    1MOL0     C   62  11.483   5.008   5.977  0.3859 -0.3244 -1.3050
    1MOL0     C   63  11.559   5.138   6.017  0.2332  1.3988 -0.3500
    1MOL0     C   64  11.663   5.167   5.918  0.2776 -0.1174 -0.6123
    1MOL0     C   65  11.745   5.190   5.841 -0.3673 -0.6838  0.1374
    1MOL0     C   66  10.978   5.138   6.007  0.7948 -0.2103  0.6340
    1MOL0     C   67  10.853   5.181   5.970 -0.0310  0.6814 -0.9516
    1MOL0     H   68  10.495   5.203   5.517 -0.4795 -0.5811 -0.6628
    1MOL0     H   69  10.275   5.240   5.438 -0.5674  1.2816  1.5627
    1MOL0     H   70  10.058   5.169   5.405 -1.4633  1.7122 -0.3082
    1MOL0     H   71   9.961   5.050   5.500 -2.6879  0.2536 -0.5049
    1MOL0     H   72   9.922   5.338   5.440  3.7939 -0.4631  3.9407
    1MOL0     H   73   9.828   5.210   5.359  1.1535  1.1408 -0.8418
    1MOL0     H   74   9.709   5.165   5.590  2.2232 -0.8283 -0.9490
    1MOL0     H   75   9.829   5.276   5.663  3.7705 -1.5581 -2.4548
    1MOL0     H   76   9.722   5.471   5.556  0.3010 -0.4676 -0.6500
    1MOL0     H   77   9.640   5.379   5.432 -2.0404  1.4190  1.0632
    1MOL0     H   78   9.488   5.264   5.603 -1.2283  0.9146 -0.0756
    1MOL0     H   79   9.560   5.369   5.716  1.5603  0.5077 -0.1265
    1MOL0     H   80   9.476   5.544   5.511  0.1744 -0.4121  2.1227
    1MOL0     H   81   9.383   5.404   5.463  0.3696  0.5346 -0.8351
    1MOL0     H   82   9.233   5.401   5.650  0.2447 -0.4840 -0.8622
    1MOL0     H   83   9.351   5.503   5.743  0.5786  3.0581 -0.6695
    1MOL0     H   84   9.330   5.682   5.591  0.1033  0.1967  0.8230
    1MOL0     H   85   9.183   5.636   5.696  1.6609 -0.5731  2.4435
    1MOL0     H   86   8.982   5.520   5.566 -0.8990  3.0914  1.8310
    1MOL0     H   87   8.891   5.506   5.195 -0.6512 -0.3502 -0.6066
    1MOL0     H   88   8.799   5.529   5.345 -1.8406 -0.4781 -1.4639
    1MOL0     H   89   8.893   5.743   5.141  0.1278 -1.9148 -1.5173
    1MOL0     H   90   8.827   5.788   5.299 -1.1533  0.6135 -0.6733
    1MOL0     H   91   8.612   5.676   5.258  1.6611 -0.0719  0.6365
    1MOL0     H   92   8.680   5.602   5.112  2.9596  0.4182 -0.7767
    1MOL0     H   93   8.696   5.814   5.001 -3.6841  1.7731 -3.2835
    1MOL0     H   94   8.638   5.895   5.151 -1.5703 -1.0953  1.5560
    1MOL0     H   95   8.525   5.849   5.297  0.2148 -1.7858 -0.1365
    1MOL0     H   96   8.461   5.893   5.517  1.0269  0.7163 -1.5180
    1MOL0     H   97   8.372   6.048   5.493 -2.0409 -0.5534  1.7536
    1MOL0     H   98   8.286   5.909   5.562  0.5402  0.0367  1.8252
    1MOL0     H   99   7.893   6.225   5.367 -2.3780 -0.2072 -2.0776
    1MOL0     H  100   7.694   6.293   5.481 -0.9904  0.0255  3.2011
    1MOL0     H  101   7.450   6.259   5.761 -0.4653 -2.3577  0.2330
    1MOL0     H  102   7.580   6.333   5.661  1.7754 -2.3593  1.8832
    1MOL0     H  103   7.386   6.417   5.563 -1.1112 -1.0161  2.0315
    1MOL0     H  104   7.426   6.282   5.454 -0.0672  0.5391 -0.9108
    1MOL0     H  105   7.208   6.260   5.678 -1.2770 -2.2196 -0.2517
    1MOL0     H  106   7.268   6.137   5.565 -0.5933  0.4329 -0.0516
    1MOL0     H  107   7.152   6.418   5.489 -0.3379 -0.0617  0.9846
    1MOL0     H  108   7.192   6.286   5.378  1.4919 -1.3637  1.5055
    1MOL0     H  109   6.981   6.292   5.594 -1.7313 -0.6194 -1.0851
    1MOL0     H  110   7.024   6.144   5.493  1.1467  0.2156 -1.1195
    1MOL0     H  111   6.903   6.399   5.399 -4.9290 -0.1651 -0.4383
    1MOL0     H  112   6.939   6.268   5.285 -2.7153  3.6013 -1.9085
    1MOL0     H  113   6.782   6.180   5.523  0.8412 -1.3455 -1.0575
    1MOL0     H  114   6.792   6.122   5.353 -2.6861  0.8163 -1.8938
    1MOL0     H  115   6.682   6.363   5.302  4.2085 -0.9168 -0.4009
    1MOL0     H  116   6.636   6.370   5.469 -0.1042  1.3118 -1.3429
    1MOL0     H  117   7.575   5.898   5.562  1.4786 -2.6657 -1.7072
    1MOL0     H  118   7.762   5.803   5.429 -1.0484  0.0561 -2.2837
    1MOL0     H  119   8.055   5.856   5.148  0.7264  0.4156 -1.1221
    1MOL0     H  120   8.241   5.799   4.988  0.9189 -0.2786 -0.2386
    1MOL0     H  121  10.131   5.076   5.809  0.2049 -2.7879 -0.0519
    1MOL0     H  122  10.369   5.013   5.877  0.4365 -0.5854  0.4966
    1MOL0     H  123  10.791   4.967   5.708  0.2969 -0.6294 -0.2132
    1MOL0     H  124  11.037   4.901   5.780 -2.0625 -0.4576 -2.0829
    1MOL0     H  125  11.268   5.166   6.073  2.1649  0.0813  2.4552
    1MOL0     H  126  11.185   5.032   6.160  0.5716 -0.2525  0.4546
    1MOL0     H  127  11.365   4.877   6.089  0.0065  0.1261  1.0808
    1MOL0     H  128  11.418   5.015   6.187 -0.0329  1.4685 -0.7882
    1MOL0     H  129  11.432   5.014   5.880  0.7702 -0.7106 -1.5396
    1MOL0     H  130  11.562   4.933   5.961  0.4705 -1.3399  2.8321
    1MOL0     H  131  11.588   5.136   6.122 -1.1056 -0.6750  0.0426
    1MOL0     H  132  11.501   5.231   6.016  0.9254  1.9085  1.7620
    1MOL0     H  133  11.833   5.213   5.785  0.3877 -0.5207  1.3390
    1MOL0     H  134  11.030   5.182   6.093  1.6583  0.9185 -0.4147
    1MOL0     H  135  10.798   5.249   6.035 -4.0303 -1.8737 -1.2773
    2MOL0     O  136   3.845   6.499   5.764  0.0832 -0.0339 -0.4928
    2MOL0     C  137   3.765   6.573   5.708  0.2621  0.3671  1.2508
    2MOL0     O  138   3.770   6.701   5.712  0.3394 -1.1391  0.3060
    2MOL0     C  139   3.851   6.749   5.804 -0.8941 -0.2291 -0.2160
    2MOL0     C  140   3.984   6.789   5.760  0.8153  0.5070 -0.2698
    2MOL0     C  141   4.071   6.835   5.859 -0.0058  0.1824  0.3834
    2MOL0     C  142   4.032   6.832   5.990 -0.9297  0.3017 -0.7729
    2MOL0     O  143   4.135   6.873   6.072  0.7059  0.0192  0.3018
    2MOL0     C  144   4.127   6.865   6.213  0.3010  0.0040  0.0434
    2MOL0     C  145   4.268   6.873   6.275  0.0254 -0.6037 -0.1483
    2MOL0     C  146   4.356   6.747   6.271  0.1857 -0.1912 -0.2525
    2MOL0     C  147   4.471   6.756   6.367  0.6541 -0.5754 -1.4766
    2MOL0     C  148   4.542   6.618   6.373 -0.0564  0.0342 -0.1269
    2MOL0     C  149   4.667   6.617   6.467 -0.1878  0.4732 -0.1360
    2MOL0     C  150   4.795   6.544   6.403  0.4960 -1.4755  0.5106
    2MOL0     C  151   4.803   6.406   6.464 -0.5540 -0.4389  0.2002
    2MOL0     N  152   4.691   6.315   6.428  0.6346 -0.0980 -0.4938
    2MOL0     C  153   4.644   6.302   6.302  0.5654  0.5556 -0.7883
    2MOL0     C  154   4.511   6.256   6.321 -0.1990 -0.2434  0.1562
    2MOL0     C  155   4.418   6.258   6.215  1.2029  0.9045 -0.0230
    2MOL0     C  156   4.340   6.386   6.187 -0.3541 -0.7033  0.6777
    2MOL0     C  157   4.230   6.375   6.088 -0.3211  0.0415  0.0809
    2MOL0     C  158   4.293   6.304   5.958 -0.1893 -0.2498 -0.5083
    2MOL0     O  159   4.229   6.345   5.845 -0.1827  0.8230 -0.0874
    2MOL0     C  160   4.129   6.255   5.802 -0.3316 -0.3569  0.7444
    2MOL0     C  161   4.121   6.247   5.663 -0.3629 -1.0138 -0.2659
    2MOL0     C  162   4.045   6.149   5.593  0.0056  0.0260 -0.4497
    2MOL0     C  163   4.066   6.126   5.445  0.1044 -0.6992  0.1534
    2MOL0     C  164   3.953   6.068   5.665 -0.6189 -0.5659  0.1312
    2MOL0     C  165   3.861   5.986   5.601 -0.0778 -0.3311  1.2258
    2MOL0     O  166   3.869   5.863   5.637  0.0645 -0.0445 -0.3049
    2MOL0     C  167   3.814   5.763   5.562  0.0073 -0.5844 -0.1708
    2MOL0     C  168   3.684   5.724   5.591 -0.0042 -0.6848  0.4382
    2MOL0     C  169   3.607   5.640   5.515 -1.1921 -0.1131 -0.6424
    2MOL0     C  170   3.670   5.570   5.414 -0.0834  0.0566 -0.8057
    2MOL0     O  171   3.603   5.483   5.332 -0.3455 -0.7276  0.0534
    2MOL0     C  172   3.469   5.448   5.361 -0.5389 -0.1731  0.7243
    2MOL0     C  173   3.414   5.350   5.253 -0.3467 -0.1880 -0.1313
    2MOL0     C  174   3.478   5.216   5.289  0.3919  0.6665 -0.4048
    2MOL0     C  175   3.486   5.120   5.174 -0.5568 -0.6103 -1.4472
    2MOL0     C  176   3.528   4.974   5.206  0.3003 -0.4507  0.6258
    2MOL0     C  177   3.668   4.965   5.266 -0.9978 -0.1089  0.9225
    2MOL0     C  178   3.728   4.826   5.290  1.0202 -0.0593  0.4252
    2MOL0     C  179   3.880   4.832   5.316  0.1622  0.0208  0.6019
    2MOL0    Cl  180   3.937   4.662   5.319 -0.3082  0.3216 -0.1148
    2MOL0     C  181   3.802   5.603   5.387  0.2601  0.7802 -0.1520
    2MOL0     C  182   3.873   5.693   5.460  0.4935  0.4697 -0.3559
    2MOL0     O  183   3.779   6.032   5.521  0.0878 -0.1628  0.5846
    2MOL0     C  184   3.952   6.077   5.807  0.4107  0.0788 -0.2567
    2MOL0     C  185   4.045   6.164   5.870 -0.4081 -0.8984  0.7281
    2MOL0     N  186   4.485   6.236   6.458  0.3684 -0.1991  0.0890
    2MOL0     N  187   4.599   6.272   6.515  0.3493 -0.3742  0.3734
    2MOL0     C  188   3.907   6.785   6.037 -0.1915 -0.0467  0.7129
    2MOL0     C  189   3.813   6.743   5.943 -0.0420 -0.3888 -0.2851
    2MOL0     C  190   3.670   6.524   5.602 -0.1546  0.3161 -0.2922
    2MOL0     C  191   3.565   6.606   5.558 -0.5474 -0.2515 -0.7524
    2MOL0     C  192   3.482   6.556   5.461 -0.2204 -0.7985  1.0453
    2MOL0     C  193   3.482   6.428   5.430  0.1033 -0.3177  0.3470
    2MOL0     O  194   3.384   6.414   5.337  0.6567 -0.2247 -0.3879
    2MOL0     C  195   3.348   6.279   5.315 -0.1112  0.0753 -0.2586
    2MOL0     C  196   3.224   6.260   5.232 -0.3523 -0.0543 -0.5168
    2MOL0     C  197   3.108   6.333   5.309  0.3014  0.3523  1.1029
    2MOL0     C  198   2.972   6.300   5.241 -0.0195  0.6273 -0.3306
    2MOL0     C  199   2.956   6.364   5.108  0.1126 -0.3159  0.2258
    2MOL0     C  200   2.957   6.415   4.999  0.2370 -0.1757 -0.6668
    2MOL0     C  201   3.578   6.334   5.479 -1.1232 -0.5828  0.1584
    2MOL0     C  202   3.681   6.389   5.562 -0.1358 -0.5107 -0.4294
    2MOL0     H  203   4.001   6.814   5.656 -0.5380  2.5241 -0.0769
    2MOL0     H  204   4.171   6.871   5.839  0.2213 -1.1175 -1.0338
    2MOL0     H  205   4.068   6.954   6.239  3.1194  3.2193 -3.3260
    2MOL0     H  206   4.068   6.777   6.241 -2.9754  1.7637 -0.7922
    2MOL0     H  207   4.317   6.955   6.221  0.9885  1.5299  3.6205
    2MOL0     H  208   4.258   6.910   6.377  1.7096 -1.2566  0.2903
    2MOL0     H  209   4.296   6.661   6.302 -0.4210  0.1570 -0.4452
    2MOL0     H  210   4.394   6.728   6.171  0.3365 -3.4495  0.3092
    2MOL0     H  211   4.549   6.829   6.345 -1.0950  1.7547 -0.2980
    2MOL0     H  212   4.427   6.774   6.465  0.9575  0.8689 -1.5926
    2MOL0     H  213   4.468   6.548   6.412 -0.2799  0.4390  0.1935
    2MOL0     H  214   4.575   6.593   6.272 -2.1420 -1.0844 -0.5893
    2MOL0     H  215   4.712   6.714   6.490  0.6293  0.6124 -2.1155
    2MOL0     H  216   4.641   6.565   6.560  2.5002  1.8159  1.4904
    2MOL0     H  217   4.797   6.550   6.294 -1.7186  1.9600  0.5050
    2MOL0     H  218   4.892   6.590   6.427 -0.3856  0.0623  1.2879
    2MOL0     H  219   4.814   6.405   6.573  2.3833 -0.8919 -0.0033
    2MOL0     H  220   4.896   6.362   6.425  0.8166  2.2964  0.1641
    2MOL0     H  221   4.692   6.321   6.207 -2.1517  1.2153 -2.1169
    2MOL0     H  222   4.465   6.223   6.123  0.7267  3.0209 -1.1420
    2MOL0     H  223   4.343   6.184   6.246  0.8975  1.3234  0.2568
    2MOL0     H  224   4.408   6.462   6.145 -2.3471  1.8945  1.8732
    2MOL0     H  225   4.297   6.425   6.279  0.4664  2.1633 -0.0512
    2MOL0     H  226   4.202   6.480   6.074  0.2253 -0.0379 -1.9471
    2MOL0     H  227   4.153   6.311   6.134  1.5366 -2.1804  0.3126
    2MOL0     H  228   4.299   6.195   5.967 -0.0232 -0.1642  0.5139
    2MOL0     H  229   4.397   6.338   5.954 -0.0352 -0.7866 -1.2386
    2MOL0     H  230   4.188   6.313   5.609 -1.1872  1.1326  1.2099
    2MOL0     H  231   4.134   6.041   5.454  0.1055 -0.5913  1.4218
    2MOL0     H  232   3.976   6.094   5.391 -1.9491 -0.3352  3.0880
    2MOL0     H  233   4.116   6.216   5.410 -4.1304  1.3274 -1.3377
    2MOL0     H  234   3.624   5.766   5.672 -2.1471 -2.1630 -0.3058
    2MOL0     H  235   3.504   5.625   5.548 -0.3949 -0.6420  1.7924
    2MOL0     H  236   3.465   5.402   5.461 -0.1094  0.8023  1.2030
    2MOL0     H  237   3.396   5.529   5.359 -2.9721 -2.2864 -0.9632
    2MOL0     H  238   3.307   5.331   5.257 -0.2792 -1.6515 -2.9008
    2MOL0     H  239   3.438   5.389   5.154 -0.5933  1.7290  0.5078
    2MOL0     H  240   3.416   5.165   5.363 -0.0897  4.6354  2.2402
    2MOL0     H  241   3.581   5.224   5.325 -0.3904 -2.0556  2.9550
    2MOL0     H  242   3.384   5.116   5.134 -1.8950  1.2730  1.4626
    2MOL0     H  243   3.537   5.174   5.093  3.1474 -0.3112  0.8208
    2MOL0     H  244   3.519   4.926   5.108 -3.2153  2.6998 -0.8603
    2MOL0     H  245   3.468   4.926   5.284  0.4827  0.9235  1.6683
    2MOL0     H  246   3.721   5.024   5.192 -1.6861 -1.2697 -0.5377
    2MOL0     H  247   3.677   5.018   5.362 -0.5472 -1.7617  1.8316
    2MOL0     H  248   3.713   4.769   5.198 -0.2485  0.8967  0.0118
    2MOL0     H  249   3.674   4.789   5.377  1.1156  1.3955  1.1432
    2MOL0     H  250   3.889   4.882   5.413  0.0522  0.6407  0.2981
    2MOL0     H  251   3.923   4.894   5.236 -3.5201  3.1478  0.7598
    2MOL0     H  252   3.856   5.562   5.302  3.2488  2.7234  0.6295
    2MOL0     H  253   3.972   5.726   5.431 -0.0784  1.6215 -1.0756
    2MOL0     H  254   3.896   6.004   5.864  1.8778 -0.9111 -0.0113
    2MOL0     H  255   4.028   6.167   5.977  1.3579  0.2328  1.0126
    2MOL0     H  256   3.880   6.774   6.142  1.1473 -2.6310  0.8663
    2MOL0     H  257   3.723   6.702   5.986 -0.0878 -0.4310 -0.4213
    2MOL0     H  258   3.549   6.705   5.599  1.2081  0.2349 -1.2069
    2MOL0     H  259   3.396   6.618   5.434  0.4932  0.5634  1.7795
    2MOL0     H  260   3.427   6.242   5.250  0.8450 -0.1523  0.9804
    2MOL0     H  261   3.336   6.215   5.403 -2.5165  1.1386  0.2858
    2MOL0     H  262   3.196   6.156   5.213 -1.1271 -0.0814  0.6700
    2MOL0     H  263   3.251   6.301   5.134  0.5056 -1.8803 -1.0933
    2MOL0     H  264   3.121   6.441   5.317 -2.1591  0.8318 -0.4683
    2MOL0     H  265   3.110   6.288   5.409  2.4305 -2.0896  0.0876
    2MOL0     H  266   2.894   6.356   5.295 -0.8565  1.2958 -2.1593
    2MOL0     H  267   2.953   6.193   5.248  4.3208 -0.2700  0.3723
    2MOL0     H  268   2.952   6.471   4.908  1.3294 -0.6967 -1.0610
    2MOL0     H  269   3.573   6.229   5.453  2.7335 -1.3937  1.9874
    2MOL0     H  270   3.759   6.332   5.611  2.7060  4.0840  1.0605
    3MOL0     O  271   1.519   9.872   1.905 -0.2948 -0.3715  0.6316
    3MOL0     C  272   1.556   9.770   1.839 -0.5505  0.0491 -0.2484
    3MOL0     O  273   1.473   9.692   1.756 -0.9498 -0.5178 -0.2685
    3MOL0     C  274   1.331   9.704   1.753 -0.4991  0.1363  0.0637
    3MOL0     C  275   1.266   9.674   1.635 -0.7332  0.3838 -0.1766
    3MOL0     C  276   1.129   9.668   1.622  0.1587  0.6320 -0.9045
    3MOL0     C  277   1.058   9.711   1.739 -0.2384  0.6650  0.3896
    3MOL0     O  278   0.925   9.686   1.720 -0.5724  0.8102 -0.5633
    3MOL0     C  279   0.834   9.778   1.774 -1.2160 -0.9429 -0.6573
    3MOL0     C  280   0.695   9.719   1.748 -0.1932 -0.3822 -0.5691
    3MOL0     C  281   0.578   9.802   1.813 -0.2664 -0.3012  0.5082
    3MOL0     C  282   0.555   9.947   1.758 -0.6917  0.5230  0.3543
    3MOL0     C  283   0.486  10.026   1.871 -0.4532  0.3632  0.5979
    3MOL0     C  284   0.340   9.970   1.891 -0.2360  0.0433 -0.5552
    3MOL0     C  285   0.263  10.046   2.003 -0.3642  0.0111  0.6311
    3MOL0     C  286   0.114  10.053   1.994  0.7869  0.3276  0.3110
    3MOL0     N  287   0.065   9.908   1.982 -0.5167 -0.3354  0.6716
    3MOL0     C  288   0.044   9.840   1.863  0.0748 -0.4548 -0.7516
    3MOL0     C  289  -0.030   9.739   1.900  0.4951 -0.3253 -0.8084
    3MOL0     C  290  -0.052   9.626   1.812 -0.4054 -0.3853 -0.7322
    3MOL0     C  291   0.054   9.514   1.837  0.4450  0.0705  0.4158
    3MOL0     C  292   0.194   9.557   1.795 -0.0733 -0.0765 -0.0286
    3MOL0     C  293   0.302   9.448   1.831  0.8236 -0.5286 -0.0626
    3MOL0     O  294   0.425   9.462   1.758  0.3593 -0.4458  0.1479
    3MOL0     C  295   0.519   9.368   1.770  0.7374  0.0543 -0.0057
    3MOL0     C  296   0.513   9.256   1.855  0.1431 -0.0853  0.2655
    3MOL0     C  297   0.619   9.160   1.856 -0.0351  0.0663 -0.0091
    3MOL0     C  298   0.596   9.036   1.943 -0.4229  0.7355 -1.1140
    3MOL0     C  299   0.734   9.183   1.785  0.4246 -0.7901 -0.1482
    3MOL0     C  300   0.848   9.094   1.802 -0.0677 -0.1215 -0.2236
    3MOL0     O  301   0.878   9.059   1.931  0.2628 -0.1347  0.2083
    3MOL0     C  302   1.001   8.993   1.940  0.2572 -1.0947 -0.2700
    3MOL0     C  303   1.006   8.859   1.904 -0.5581  0.4270 -0.4617
    3MOL0     C  304   1.127   8.784   1.919 -0.8469 -0.2784 -1.1845
    3MOL0     C  305   1.239   8.845   1.971  0.0354 -0.7388 -0.9331
    3MOL0     O  306   1.332   8.756   2.015  0.0165  0.2052 -0.0952
    3MOL0     C  307   1.466   8.807   2.019 -0.1312 -0.2275 -0.3815
    3MOL0     C  308   1.577   8.694   2.038  0.1235  0.5875 -0.3627
    3MOL0     C  309   1.708   8.753   2.061  0.1217 -0.5026  0.2578
    3MOL0     C  310   1.826   8.665   2.018 -0.5572  0.2920  0.0969
    3MOL0     C  311   1.966   8.729   2.046 -0.1582 -0.7263  1.0090
    3MOL0     C  312   2.086   8.643   1.984 -0.4338 -0.4526 -0.3033
    3MOL0     C  313   2.215   8.687   2.063 -0.7830  0.6193 -0.5839
    3MOL0     C  314   2.339   8.679   1.979 -0.2861 -0.4579  0.3315
    3MOL0    Cl  315   2.489   8.691   2.081  0.5581  0.4107  0.2577
    3MOL0     C  316   1.237   8.978   2.015 -0.4645 -0.6341  0.1933
    3MOL0     C  317   1.115   9.047   2.004 -0.5292 -0.2495  0.0994
    3MOL0     O  318   0.893   9.058   1.701 -0.1773 -0.1838 -0.4285
    3MOL0     C  319   0.739   9.290   1.695  0.4663 -0.1051 -1.1251
    3MOL0     C  320   0.635   9.385   1.693 -0.3096 -0.0398 -0.1252
    3MOL0     N  321  -0.061   9.745   2.032  0.4004  0.1342  0.8371
    3MOL0     N  322   0.010   9.836   2.081 -0.4561 -0.5318 -0.2032
    3MOL0     C  323   1.118   9.736   1.864 -0.1534 -0.4963 -0.5016
    3MOL0     C  324   1.255   9.733   1.873  0.0609 -0.3319 -0.5709
    3MOL0     C  325   1.682   9.709   1.886 -0.3740 -0.7889  0.2851
    3MOL0     C  326   1.772   9.788   1.954 -0.2488  0.2848  0.0103
    3MOL0     C  327   1.894   9.723   1.999  1.0125 -0.0356 -0.0122
    3MOL0     C  328   1.933   9.600   1.968 -0.3842  0.4829 -0.3304
    3MOL0     O  329   2.059   9.560   2.017  0.5403  0.2929  0.3582
    3MOL0     C  330   2.082   9.418   2.022  0.3248 -0.2932 -0.7639
    3MOL0     C  331   2.139   9.355   1.893  0.2021 -0.3033 -1.0649
    3MOL0     C  332   2.289   9.382   1.889  1.0212 -0.0792  0.5376
    3MOL0     C  333   2.347   9.377   1.751  0.1957 -0.0215  0.2675
    3MOL0     C  334   2.494   9.391   1.744  0.3089  0.2689 -0.1721
    3MOL0     C  335   2.613   9.387   1.726  0.2430 -0.4385 -0.0912
    3MOL0     C  336   1.840   9.524   1.903  0.5344  0.8440  0.7002
    3MOL0     C  337   1.717   9.580   1.863  0.2051  0.7587  0.0728
    3MOL0     H  338   1.326   9.648   1.548  0.1299 -0.8461  0.7429
    3MOL0     H  339   1.075   9.634   1.534 -1.4199  1.0407 -0.1292
    3MOL0     H  340   0.851   9.795   1.881  2.3221  0.1375 -1.2872
    3MOL0     H  341   0.858   9.879   1.742  1.5620 -0.0103  3.6038
    3MOL0     H  342   0.689   9.708   1.640  2.6271  0.6263 -0.9272
    3MOL0     H  343   0.694   9.619   1.793  3.4531 -0.9870 -1.4983
    3MOL0     H  344   0.486   9.744   1.797 -1.0900  1.0937  0.0444
    3MOL0     H  345   0.603   9.808   1.919  0.5177 -2.1723  0.4688
    3MOL0     H  346   0.652   9.991   1.734  1.1395 -1.8673  2.8027
    3MOL0     H  347   0.500   9.940   1.664 -0.3582  0.2352  0.1765
    3MOL0     H  348   0.540  10.013   1.965  0.9409  1.6552  0.0256
    3MOL0     H  349   0.490  10.133   1.849  1.6569  0.4010  0.9726
    3MOL0     H  350   0.287   9.989   1.797 -2.3432 -0.9290  0.3906
    3MOL0     H  351   0.323   9.865   1.914 -0.1251  0.1836  0.1771
    3MOL0     H  352   0.284  10.004   2.102 -0.0320  2.7145  1.8221
    3MOL0     H  353   0.295  10.151   1.992  0.5198 -0.5306 -3.0352
    3MOL0     H  354   0.077  10.119   1.916  1.0462  1.2265  0.9362
    3MOL0     H  355   0.081  10.092   2.091  0.0618 -1.1461  0.6929
    3MOL0     H  356   0.080   9.863   1.763 -0.8480 -1.2361 -1.2694
    3MOL0     H  357  -0.154   9.594   1.835  1.2488 -3.1568  4.4336
    3MOL0     H  358  -0.031   9.677   1.718  0.3261  2.2580  0.7802
    3MOL0     H  359   0.033   9.425   1.776 -0.2413 -1.0084  2.1716
    3MOL0     H  360   0.040   9.475   1.938 -0.9223  1.1803  0.6907
    3MOL0     H  361   0.231   9.649   1.842  0.5714 -0.4699  0.2411
    3MOL0     H  362   0.193   9.572   1.686  0.9606 -2.4575 -0.4222
    3MOL0     H  363   0.259   9.353   1.799 -0.9472 -0.1904  1.2170
    3MOL0     H  364   0.319   9.455   1.939 -0.6091  3.5593  0.0656
    3MOL0     H  365   0.425   9.259   1.919 -0.4221  1.1978 -0.5337
    3MOL0     H  366   0.620   8.939   1.899 -1.2095 -0.3918  0.8052
    3MOL0     H  367   0.659   9.030   2.033  2.6432 -2.2379 -3.2198
    3MOL0     H  368   0.492   9.019   1.972 -0.9796  2.1539 -2.1091
    3MOL0     H  369   0.912   8.815   1.873  0.0956 -0.5727 -1.0780
    3MOL0     H  370   1.123   8.677   1.907  0.2514 -0.2691 -1.7141
    3MOL0     H  371   1.485   8.853   1.921 -0.4599  0.3554 -0.1771
    3MOL0     H  372   1.478   8.877   2.102  2.6851 -3.5867  2.3727
    3MOL0     H  373   1.552   8.635   2.126 -0.2000 -0.5474 -1.1945
    3MOL0     H  374   1.589   8.629   1.950  0.9211  0.9446 -0.5313
    3MOL0     H  375   1.721   8.789   2.163  0.4957 -0.9793  0.3794
    3MOL0     H  376   1.716   8.837   1.991  0.0184 -0.2500  0.5462
    3MOL0     H  377   1.814   8.569   2.070  1.7489 -0.2941 -0.3534
    3MOL0     H  378   1.806   8.646   1.912 -4.2593  1.3107  0.4568
    3MOL0     H  379   1.973   8.730   2.155 -0.6820  2.0925  1.0798
    3MOL0     H  380   1.966   8.833   2.013 -0.9068 -0.9269  0.3482
    3MOL0     H  381   2.076   8.538   2.013 -2.2354 -0.2695 -0.1224
    3MOL0     H  382   2.093   8.653   1.875  1.0141  1.8978 -0.0677
    3MOL0     H  383   2.223   8.621   2.149  0.9840  1.1895 -0.2876
    3MOL0     H  384   2.207   8.789   2.103  2.7989  1.0268 -0.5873
    3MOL0     H  385   2.358   8.763   1.911  3.6997  0.1851  1.9172
    3MOL0     H  386   2.342   8.589   1.918 -0.7565 -0.8483  0.8840
    3MOL0     H  387   1.310   9.017   2.086 -0.4725  1.0056 -0.6615
    3MOL0     H  388   1.109   9.146   2.047 -0.9229 -0.3077  0.1877
    3MOL0     H  389   0.830   9.305   1.638  2.0868 -1.2861  1.0325
    3MOL0     H  390   0.645   9.473   1.629  0.4530  2.0374  2.6749
    3MOL0     H  391   1.063   9.750   1.956 -0.4769  0.3643 -0.8207
    3MOL0     H  392   1.299   9.744   1.971 -0.2026  3.1678 -0.7311
    3MOL0     H  393   1.756   9.890   1.987  0.2595  0.9827 -1.7374
    3MOL0     H  394   1.961   9.789   2.054  0.8626 -1.3182  1.7796
    3MOL0     H  395   2.157   9.399   2.099 -0.6201 -0.5863  0.0999
    3MOL0     H  396   1.995   9.360   2.051  0.9484 -0.8071  0.1351
    3MOL0     H  397   2.086   9.398   1.808 -1.3405  0.9657  0.4458
    3MOL0     H  398   2.143   9.246   1.896  1.5342 -0.3417  3.2229
    3MOL0     H  399   2.344   9.315   1.957  0.2159 -0.0955  1.1931
    3MOL0     H  400   2.303   9.486   1.921  1.1022  0.6202 -1.6299
    3MOL0     H  401   2.310   9.462   1.693  0.0770  1.2534  2.1435
    3MOL0     H  402   2.323   9.286   1.694 -0.4419 -1.0331  2.0668
    3MOL0     H  403   2.719   9.403   1.720  0.2820 -1.1149 -1.5793
    3MOL0     H  404   1.859   9.420   1.877 -0.0982  0.5337  1.4317
    3MOL0     H  405   1.654   9.520   1.798  2.0788  0.7737 -1.8701
    4MOL0     O  406   0.526   2.368   0.573  0.2904  0.3502 -0.5712
    4MOL0     C  407   0.577   2.355   0.461 -0.0850 -0.4600  0.5824
    4MOL0     O  408   0.656   2.453   0.400 -0.2491 -0.2557 -0.5193
    4MOL0     C  409   0.625   2.583   0.421 -0.0886 -0.1679 -0.4276
    4MOL0     C  410   0.733   2.677   0.416 -0.5883 -0.4476 -0.6049
    4MOL0     C  411   0.715   2.821   0.415  1.3664 -0.2131 -0.3803
    4MOL0     C  412   0.582   2.865   0.444 -0.7355 -0.2145  0.5792
    4MOL0     O  413   0.580   3.007   0.451 -0.2813 -0.0536  0.3142
    4MOL0     C  414   0.456   3.069   0.468 -0.2220 -0.0457 -0.0267
    4MOL0     C  415   0.380   3.101   0.341 -0.1289 -0.0967  0.9482
    4MOL0     C  416   0.248   3.166   0.367 -0.3468 -0.1987  0.4261
    4MOL0     C  417   0.153   3.160   0.243 -1.5639 -0.3830 -0.0567
    4MOL0     C  418   0.011   3.162   0.296  0.4935 -0.0745  0.3222
    4MOL0     C  419  -0.086   3.181   0.181 -0.1567 -0.1295  0.1859
    4MOL0     C  420  -0.225   3.173   0.229 -0.5162 -0.4734 -0.4612
    4MOL0     C  421  -0.324   3.176   0.112  0.2284  0.2831  0.4328
    4MOL0     N  422  -0.462   3.161   0.154  0.0783  0.6755  0.0465
    4MOL0     C  423  -0.531   3.235   0.246  0.1599 -0.3405 -0.6370
    4MOL0     C  424  -0.650   3.181   0.276  0.4224  0.3037  0.4403
    4MOL0     C  425  -0.750   3.233   0.374  0.2923  0.5085 -0.0823
    4MOL0     C  426  -0.893   3.201   0.315 -0.0418 -0.2530 -0.0703
    4MOL0     C  427  -0.997   3.252   0.407  0.5323 -0.1034 -1.1990
    4MOL0     C  428  -1.140   3.261   0.354  0.3379  0.0491 -0.2415
    4MOL0     O  429  -1.217   3.339   0.440  0.2336 -0.9699 -0.4482
    4MOL0     C  430  -1.353   3.338   0.423  0.0662  0.6614 -0.1190
    4MOL0     C  431  -1.427   3.282   0.314  0.7707  0.3069  0.0945
    4MOL0     C  432  -1.566   3.260   0.319  0.3740 -0.1207  0.2595
    4MOL0     C  433  -1.623   3.189   0.194  0.3984  0.2419  0.6022
    4MOL0     C  434  -1.640   3.315   0.426  0.5746  0.4494 -0.6951
    4MOL0     C  435  -1.789   3.304   0.444  0.8933  0.4060  0.6736
    4MOL0     O  436  -1.848   3.354   0.556  0.3042  0.5063 -0.0806
    4MOL0     C  437  -1.987   3.368   0.560 -0.3269 -0.0403  0.2434
    4MOL0     C  438  -2.034   3.495   0.558  0.2391 -0.0637  0.8355
    4MOL0     C  439  -2.169   3.512   0.553 -0.1546  0.1584  0.5327
    4MOL0     C  440  -2.260   3.408   0.554  0.1581 -0.2503  0.3824
    4MOL0     O  441  -2.389   3.442   0.550  0.5376 -0.1043 -0.3986
    4MOL0     C  442  -2.485   3.331   0.549 -0.2041  0.0224  0.3393
    4MOL0     C  443  -2.630   3.372   0.579 -0.0145 -1.3534 -0.0996
    4MOL0     C  444  -2.726   3.254   0.608  0.5068  0.6082  0.1570
    4MOL0     C  445  -2.866   3.300   0.620  0.0303 -0.0254 -0.5687
    4MOL0     C  446  -2.975   3.188   0.653  0.2653 -0.0393 -0.0767
    4MOL0     C  447  -2.965   3.140   0.809 -0.0246  0.3223  0.1191
    4MOL0     C  448  -3.052   3.015   0.842  0.1603 -0.0341 -0.5524
    4MOL0     C  449  -3.066   2.986   0.996  0.1151  0.6114 -0.6766
    4MOL0    Cl  450  -3.159   3.116   1.077  0.0752 -0.1082  0.3256
    4MOL0     C  451  -2.210   3.281   0.554 -0.3054 -0.1769  0.6466
    4MOL0     C  452  -2.073   3.257   0.559  0.1464 -0.6964 -0.4161
    4MOL0     O  453  -1.858   3.262   0.345 -0.6066  0.2527  0.7633
    4MOL0     C  454  -1.564   3.365   0.531  0.5526 -0.2951  0.4697
    4MOL0     C  455  -1.430   3.379   0.526  0.0726 -0.5289  0.4525
    4MOL0     N  456  -0.645   3.061   0.206  0.3356 -0.1398 -0.1719
    4MOL0     N  457  -0.540   3.054   0.133  0.0952 -0.1380 -0.0883
    4MOL0     C  458   0.482   2.773   0.461  0.4815 -0.2071 -0.5067
    4MOL0     C  459   0.498   2.635   0.452  0.6530 -0.3013  1.1255
    4MOL0     C  460   0.573   2.234   0.384  0.1408  1.1050 -0.2927
    4MOL0     C  461   0.478   2.131   0.424 -0.4101 -0.7057 -0.0681
    4MOL0     C  462   0.477   2.008   0.357  0.0090 -0.4548 -0.1269
    4MOL0     C  463   0.563   1.977   0.247  0.4524 -0.3613 -1.0401
    4MOL0     O  464   0.532   1.863   0.184 -0.5700 -0.4608  0.0777
    4MOL0     C  465   0.564   1.750   0.270  0.3774  0.9299  0.9149
    4MOL0     C  466   0.626   1.644   0.180 -0.4811  0.7254 -0.3118
    4MOL0     C  467   0.707   1.542   0.275  0.2921 -0.4088  0.9460
    4MOL0     C  468   0.721   1.406   0.212  0.6810  0.4534 -0.3863
    4MOL0     C  469   0.828   1.388   0.111 -0.2927  0.2229  0.6101
    4MOL0     C  470   0.921   1.385   0.028 -0.0301  0.0057 -0.3015
    4MOL0     C  471   0.651   2.076   0.206  0.2041 -1.5670  0.4699
    4MOL0     C  472   0.653   2.205   0.273  0.3330  0.0164 -0.1486
    4MOL0     H  473   0.836   2.643   0.416  0.2247  1.8220  1.0401
    4MOL0     H  474   0.797   2.890   0.400  1.0256  0.1101 -0.7643
    4MOL0     H  475   0.397   2.999   0.527  2.3461 -4.4685 -2.2015
    4MOL0     H  476   0.462   3.160   0.528 -0.3968 -0.4330  0.5870
    4MOL0     H  477   0.450   3.157   0.278 -0.0573 -3.6107 -2.4708
    4MOL0     H  478   0.365   3.004   0.293  2.3693  0.0474 -0.2956
    4MOL0     H  479   0.194   3.105   0.440 -1.9013 -2.4106 -2.3799
    4MOL0     H  480   0.255   3.271   0.398 -5.6939  1.0720 -1.4657
    4MOL0     H  481   0.176   3.235   0.167  0.4454 -0.2301  0.6303
    4MOL0     H  482   0.168   3.060   0.201 -1.6075 -1.3733  2.1255
    4MOL0     H  483  -0.012   3.078   0.362 -1.0221  0.3290  0.3380
    4MOL0     H  484   0.011   3.257   0.350  2.3408  0.7799 -1.0514
    4MOL0     H  485  -0.068   3.270   0.120  0.2454 -0.3595 -0.0351
    4MOL0     H  486  -0.069   3.097   0.112  1.1332  1.5596 -1.6792
    4MOL0     H  487  -0.235   3.084   0.291  1.4636  1.0072  2.2161
    4MOL0     H  488  -0.245   3.255   0.300  1.1566 -1.5402  1.3369
    4MOL0     H  489  -0.302   3.091   0.047 -0.0644  1.0020 -0.6325
    4MOL0     H  490  -0.324   3.266   0.050  1.3121  0.1400  0.1999
    4MOL0     H  491  -0.478   3.322   0.285  2.4095 -1.6282 -0.6624
    4MOL0     H  492  -0.736   3.172   0.464 -0.0834 -1.3643 -1.2410
    4MOL0     H  493  -0.730   3.337   0.401  2.1838 -0.4231  2.4843
    4MOL0     H  494  -0.912   3.094   0.305 -0.0150 -0.2532 -0.1227
    4MOL0     H  495  -0.903   3.261   0.224 -0.7776  1.4602  1.0887
    4MOL0     H  496  -0.974   3.356   0.435  0.0920 -0.0189 -1.1335
    4MOL0     H  497  -0.996   3.202   0.505 -0.0763  3.2841  0.7071
    4MOL0     H  498  -1.178   3.159   0.342 -1.9356  0.8229  0.0753
    4MOL0     H  499  -1.132   3.309   0.256 -3.6610  0.6166 -0.4602
    4MOL0     H  500  -1.366   3.247   0.231  0.6791 -0.4014  0.3170
    4MOL0     H  501  -1.696   3.255   0.146 -2.6025 -1.8683  1.9093
    4MOL0     H  502  -1.550   3.186   0.113 -1.8625  0.8772 -1.5789
    4MOL0     H  503  -1.666   3.092   0.222 -1.1454  0.5114 -0.7064
    4MOL0     H  504  -1.963   3.577   0.554 -1.7567  1.7668 -3.1651
    4MOL0     H  505  -2.219   3.608   0.549 -0.6605 -0.1452 -1.9131
    4MOL0     H  506  -2.479   3.287   0.449  5.3784  0.0216  0.3408
    4MOL0     H  507  -2.463   3.253   0.622 -3.3257  0.6763  2.1445
    4MOL0     H  508  -2.625   3.440   0.664  0.5116  0.4628 -1.5147
    4MOL0     H  509  -2.654   3.430   0.489  2.4631  0.9505  0.6307
    4MOL0     H  510  -2.680   3.208   0.696  2.6207 -0.2066 -1.3073
    4MOL0     H  511  -2.728   3.184   0.524 -0.3374  0.8709 -0.0532
    4MOL0     H  512  -2.879   3.378   0.695 -0.9506 -0.8318  0.1163
    4MOL0     H  513  -2.895   3.342   0.523 -0.3385  1.9558  0.3378
    4MOL0     H  514  -2.951   3.098   0.596 -0.0821 -2.6542  3.5731
    4MOL0     H  515  -3.080   3.218   0.647 -0.0348  0.5671  4.7427
    4MOL0     H  516  -2.864   3.109   0.836 -0.3847 -1.0860 -0.1058
    4MOL0     H  517  -2.998   3.233   0.856  2.3477  2.1111 -1.5152
    4MOL0     H  518  -3.010   2.928   0.791  0.1710  1.5134 -3.4300
    4MOL0     H  519  -3.153   3.031   0.804  0.1176 -1.5061 -1.1007
    4MOL0     H  520  -2.969   2.966   1.044 -0.6511 -0.8254  0.3654
    4MOL0     H  521  -3.126   2.897   1.017  1.5521 -0.7015 -1.8886
    4MOL0     H  522  -2.279   3.197   0.551 -2.6537  1.6109  1.2006
    4MOL0     H  523  -2.028   3.159   0.569  4.1004  1.1347  3.0192
    4MOL0     H  524  -1.609   3.403   0.622 -0.2050 -0.0032 -0.0108
    4MOL0     H  525  -1.379   3.426   0.609 -1.6404  1.3130  0.5217
    4MOL0     H  526   0.382   2.802   0.489  0.6361 -1.0904  1.0595
    4MOL0     H  527   0.413   2.568   0.464  0.4440 -0.3163 -0.2500
    4MOL0     H  528   0.413   2.154   0.508 -3.2914 -2.2815 -1.7225
    4MOL0     H  529   0.403   1.938   0.394 -0.5121  0.0614 -0.1806
    4MOL0     H  530   0.634   1.770   0.352 -0.0924  0.1430  1.5144
    4MOL0     H  531   0.465   1.719   0.304 -0.7115  1.2603 -1.7543
    4MOL0     H  532   0.699   1.689   0.113  1.6592 -2.0779 -0.0215
    4MOL0     H  533   0.552   1.591   0.120  1.5044 -2.8765  0.1660
    4MOL0     H  534   0.651   1.548   0.369 -0.2352  0.3264  0.5972
    4MOL0     H  535   0.806   1.573   0.310 -0.1350  0.9372  1.0203
    4MOL0     H  536   0.624   1.373   0.173  0.5277  0.0752  0.3016
    4MOL0     H  537   0.743   1.333   0.291 -3.5597 -0.2208  0.4008
    4MOL0     H  538   0.988   1.381  -0.055  0.8227  1.5939  0.2528
    4MOL0     H  539   0.710   2.063   0.116 -0.4977 -0.8763 -0.1043
    4MOL0     H  540   0.712   2.283   0.225  2.7451 -0.4427  1.8447
    5MOL0     O  541   8.507   7.537   5.174  0.5993  0.0873  0.1680
    5MOL0     C  542   8.539   7.575   5.288 -0.2125  0.4473 -0.2134
    5MOL0     O  543   8.455   7.600   5.393  0.5504  1.2048  0.4542
    5MOL0     C  544   8.320   7.572   5.388 -0.3372  0.7923  1.2345
    5MOL0     C  545   8.257   7.477   5.301  0.2396 -0.0981  1.2806
    5MOL0     C  546   8.112   7.473   5.299  0.3848 -0.8840 -0.7704
    5MOL0     C  547   8.033   7.554   5.389 -0.1882 -0.0114  0.6783
    5MOL0     O  548   7.900   7.540   5.376  0.3191  0.7347  0.6321
    5MOL0     C  549   7.837   7.672   5.387 -0.3360  0.5370 -0.2985
    5MOL0     C  550   7.686   7.642   5.362  0.3309  0.4272 -0.5025
    5MOL0     C  551   7.596   7.764   5.334  0.0274  0.2052 -0.0121
    5MOL0     C  552   7.447   7.724   5.323  1.2418 -0.6580  0.5171
    5MOL0     C  553   7.370   7.833   5.235 -0.5188  0.1433  0.2037
    5MOL0     C  554   7.226   7.779   5.222 -0.0659 -0.1563  0.5160
    5MOL0     C  555   7.152   7.877   5.135 -0.3303  0.7063 -0.1504
    5MOL0     C  556   7.003   7.830   5.123  0.0451  0.1867  0.0251
    5MOL0     N  557   6.916   7.851   5.237  0.0904 -0.0355 -0.5890
    5MOL0     C  558   6.845   7.969   5.275  0.0068 -0.6188  0.4600
    5MOL0     C  559   6.784   7.937   5.390 -0.9455  0.0633 -0.2703
    5MOL0     C  560   6.716   8.042   5.468 -0.1991  0.0960  0.0474
    5MOL0     C  561   6.795   8.096   5.585 -0.6390 -0.0469  0.0656
    5MOL0     C  562   6.768   8.015   5.712 -0.3019 -0.1621 -0.3964
    5MOL0     C  563   6.654   8.073   5.793  0.0233 -0.4625  1.1701
    5MOL0     O  564   6.535   8.070   5.715 -0.2055  0.6286  0.3140
    5MOL0     C  565   6.420   8.017   5.774  0.3108  0.0413 -0.2651
    5MOL0     C  566   6.408   7.876   5.784  0.4929 -0.3186 -0.2249
    5MOL0     C  567   6.284   7.826   5.831  0.1137  0.1941  0.5027
    5MOL0     C  568   6.280   7.671   5.856  0.4415 -0.0072 -0.2530
    5MOL0     C  569   6.172   7.916   5.860  0.5343 -0.1922  0.0241
    5MOL0     C  570   6.044   7.857   5.904  0.6806  0.0168 -0.0442
    5MOL0     O  571   6.018   7.727   5.883 -0.7567  0.2972  0.5725
    5MOL0     C  572   5.912   7.666   5.939  1.0757 -0.4548 -0.2627
    5MOL0     C  573   5.940   7.541   5.984  0.4150  0.2142 -0.3999
    5MOL0     C  574   5.848   7.452   6.036  0.0816 -0.2054  0.2511
    5MOL0     C  575   5.713   7.496   6.060  0.3717  0.4858  0.3192
    5MOL0     O  576   5.620   7.401   6.101 -0.0872  0.6744 -0.3697
    5MOL0     C  577   5.491   7.452   6.149 -0.2624 -0.4778 -0.6612
    5MOL0     C  578   5.497   7.515   6.284  0.3723  0.3445  0.0650
    5MOL0     C  579   5.357   7.580   6.335 -0.1562 -0.1095  0.4869
    5MOL0     C  580   5.376   7.621   6.485 -0.4013  0.0930  0.0966
    5MOL0     C  581   5.254   7.671   6.560 -0.5715  0.7737  0.8846
    5MOL0     C  582   5.182   7.541   6.612 -1.3415 -0.3910  0.6262
    5MOL0     C  583   5.040   7.576   6.661 -0.0427  0.5398  0.5972
    5MOL0     C  584   4.952   7.612   6.544  0.5556  0.3510 -0.3359
    5MOL0    Cl  585   4.787   7.574   6.594  0.0384 -0.2382  1.0227
    5MOL0     C  586   5.685   7.626   6.025  0.4490 -0.1479 -0.1623
    5MOL0     C  587   5.779   7.710   5.959 -0.0049  0.9782  0.0411
    5MOL0     O  588   5.976   7.928   5.972 -0.0956 -0.9083 -0.4042
    5MOL0     C  589   6.200   8.052   5.843 -0.4800 -0.5584 -0.0549
    5MOL0     C  590   6.326   8.107   5.804  0.3725 -0.1706 -1.0682
    5MOL0     N  591   6.825   7.808   5.425 -0.3392 -0.1963 -0.1939
    5MOL0     N  592   6.903   7.761   5.337 -0.0270 -1.2407  0.5412
    5MOL0     C  593   8.101   7.644   5.483  0.0638  1.2302  0.1700
    5MOL0     C  594   8.240   7.648   5.472 -0.7708 -0.2961 -0.2798
    5MOL0     C  595   8.678   7.607   5.302  0.8441 -0.1321  0.1779
    5MOL0     C  596   8.771   7.591   5.193 -0.0796 -0.0570  0.5330
    5MOL0     C  597   8.897   7.655   5.198  0.1289  1.1657  0.5152
    5MOL0     C  598   8.927   7.738   5.293  0.6611  0.4722  0.4422
    5MOL0     O  599   9.046   7.810   5.281 -0.2436  0.1571 -0.6819
    5MOL0     C  600   9.072   7.916   5.376  0.1824  0.0277  0.1994
    5MOL0     C  601   9.159   7.879   5.497 -0.1540  0.7632 -0.4242
    5MOL0     C  602   9.177   7.980   5.610 -1.0349 -0.6248 -0.0494
    5MOL0     C  603   9.044   8.006   5.687 -0.5790 -0.1629  0.5895
    5MOL0     C  604   8.971   7.887   5.735  0.0958 -0.5528 -0.0121
    5MOL0     C  605   8.903   7.793   5.776 -1.0949 -0.3697  0.4195
    5MOL0     C  606   8.842   7.753   5.402  0.0930 -0.4462  0.6633
    5MOL0     C  607   8.723   7.681   5.413 -0.0498 -0.3484 -0.5055
    5MOL0     H  608   8.318   7.411   5.239 -1.5094  1.2309 -2.0960
    5MOL0     H  609   8.067   7.403   5.229  0.4026 -2.4989  0.7444
    5MOL0     H  610   7.855   7.716   5.486  0.3311  0.7726 -0.5171
    5MOL0     H  611   7.863   7.742   5.307 -0.6705 -0.8764 -1.6882
    5MOL0     H  612   7.678   7.581   5.271  1.5324 -0.5276  0.0029
    5MOL0     H  613   7.640   7.582   5.442 -0.9306 -0.6249 -1.9510
    5MOL0     H  614   7.619   7.834   5.414  0.6141  0.1153 -0.0901
    5MOL0     H  615   7.635   7.817   5.246 -0.0044  0.6358  0.2303
    5MOL0     H  616   7.447   7.633   5.262  0.8663  0.9633 -2.0619
    5MOL0     H  617   7.405   7.711   5.423  0.2742  0.7239  0.3140
    5MOL0     H  618   7.381   7.930   5.285  0.7617  0.8580 -1.3686
    5MOL0     H  619   7.423   7.844   5.140  3.4957  0.6247  2.2905
    5MOL0     H  620   7.227   7.674   5.192 -2.3350 -0.5597  1.6322
    5MOL0     H  621   7.179   7.774   5.321  0.0425 -0.4715  0.5521
    5MOL0     H  622   7.161   7.972   5.187  1.3890  0.9553 -0.8443
    5MOL0     H  623   7.210   7.880   5.043  1.1230  0.7355  0.7342
    5MOL0     H  624   7.011   7.721   5.109  1.4371  0.0874  1.3988
    5MOL0     H  625   6.956   7.875   5.035 -1.6534 -0.1515  0.7195
    5MOL0     H  626   6.843   8.066   5.226 -0.1997 -0.2654  1.1578
    5MOL0     H  627   6.678   8.125   5.407 -2.3188 -0.8057  0.0555
    5MOL0     H  628   6.624   7.993   5.502  0.8379 -2.9175 -1.1372
    5MOL0     H  629   6.777   8.202   5.602  1.6335  0.2089  1.2974
    5MOL0     H  630   6.901   8.083   5.564 -0.6558  1.6904 -1.2258
    5MOL0     H  631   6.850   8.006   5.784  2.1763 -3.1347 -3.2000
    5MOL0     H  632   6.749   7.910   5.686  0.9787 -0.3911 -0.4780
    5MOL0     H  633   6.679   8.174   5.827  0.2907 -0.2123  0.2545
    5MOL0     H  634   6.638   8.015   5.885 -2.3989 -0.1504  1.0170
    5MOL0     H  635   6.492   7.818   5.747 -0.5244  0.0168 -3.3325
    5MOL0     H  636   6.225   7.631   5.942 -1.2389 -0.8047 -1.6316
    5MOL0     H  637   6.220   7.631   5.774 -1.8241  4.5427 -1.0879
    5MOL0     H  638   6.382   7.630   5.861  0.2054 -0.6819 -0.8545
    5MOL0     H  639   6.040   7.504   5.965  0.9481  0.6264  1.3649
    5MOL0     H  640   5.862   7.346   6.054 -3.5827 -0.7984  0.3723
    5MOL0     H  641   5.445   7.521   6.078  1.6199  2.1458  0.4808
    5MOL0     H  642   5.424   7.366   6.151  0.1857 -1.0516 -4.0720
    5MOL0     H  643   5.518   7.437   6.358 -1.4538  0.7473  1.0847
    5MOL0     H  644   5.575   7.591   6.275 -0.4677  1.1912 -0.2460
    5MOL0     H  645   5.276   7.507   6.328 -1.1414  1.0018 -0.0545
    5MOL0     H  646   5.322   7.662   6.272 -0.1245  0.0438  0.6683
    5MOL0     H  647   5.420   7.529   6.524  0.9903  0.4490 -0.5557
    5MOL0     H  648   5.458   7.694   6.491  1.1571 -0.9256 -4.2755
    5MOL0     H  649   5.201   7.735   6.489  0.5657  1.5063  0.6706
    5MOL0     H  650   5.278   7.731   6.648 -0.7461  1.1686  0.6653
    5MOL0     H  651   5.186   7.454   6.545 -1.4757 -0.2363  0.4134
    5MOL0     H  652   5.239   7.504   6.698 -0.5507  0.6038  0.5438
    5MOL0     H  653   5.044   7.655   6.736  2.5531 -0.8052  2.0341
    5MOL0     H  654   5.004   7.484   6.708 -0.8433  0.5855  0.0893
    5MOL0     H  655   4.981   7.558   6.453  3.2562 -0.3775  0.8612
    5MOL0     H  656   4.960   7.719   6.522 -3.2015  0.6031 -1.1504
    5MOL0     H  657   5.589   7.674   6.039 -0.1645 -1.2675 -0.4226
    5MOL0     H  658   5.761   7.815   5.935 -0.3474  1.3719  1.8802
    5MOL0     H  659   6.116   8.118   5.859 -1.8232 -2.1110 -0.3222
    5MOL0     H  660   6.341   8.212   5.781 -0.6034  0.7577  1.9962
    5MOL0     H  661   8.054   7.697   5.566 -1.6490 -0.0288  0.0750
    5MOL0     H  662   8.290   7.714   5.543  0.7117 -0.4788 -1.1169
    5MOL0     H  663   8.752   7.551   5.094  0.4807  1.0158 -0.0285
    5MOL0     H  664   8.969   7.657   5.116 -1.3377  0.7105 -0.8309
    5MOL0     H  665   9.110   8.006   5.327 -1.2374  1.5196  1.7234
    5MOL0     H  666   8.985   7.971   5.413 -0.5033  1.4118 -3.1315
    5MOL0     H  667   9.258   7.868   5.452  0.3165  1.0049  0.5182
    5MOL0     H  668   9.135   7.779   5.536  2.1699 -0.9059 -2.9201
    5MOL0     H  669   9.226   8.071   5.574  1.1028 -1.4102  0.6990
    5MOL0     H  670   9.252   7.950   5.684  1.1060  0.6478 -1.5932
    5MOL0     H  671   8.983   8.066   5.618 -1.3100 -0.1448  1.2405
    5MOL0     H  672   9.059   8.067   5.777  0.8880  0.0928  0.2023
    5MOL0     H  673   8.858   7.707   5.820 -1.5122 -0.7042 -0.6392
    5MOL0     H  674   8.868   7.810   5.491 -2.2704  1.2811  0.3385
    5MOL0     H  675   8.659   7.699   5.500  1.9143  2.0805  0.5452
    6MOL0     O  676   4.300   2.701   2.442 -0.4715 -0.3910 -0.3002
    6MOL0     C  677   4.310   2.663   2.323  0.0004  0.4534 -0.4285
    6MOL0     O  678   4.220   2.581   2.257 -0.0419  0.0022  0.0005
    6MOL0     C  679   4.100   2.540   2.311  0.2908 -0.0711  0.3340
    6MOL0     C  680   4.023   2.610   2.402  0.0784 -0.3501  0.3886
    6MOL0     C  681   3.895   2.559   2.443  0.5850  0.4311 -0.1315
    6MOL0     C  682   3.851   2.434   2.404  0.1048 -0.2260  0.7128
    6MOL0     O  683   3.730   2.404   2.449 -0.4091  0.9872 -0.8314
    6MOL0     C  684   3.674   2.280   2.404  0.5822 -0.5258 -0.0626
    6MOL0     C  685   3.574   2.237   2.509  1.2232  0.3882 -0.9788
    6MOL0     C  686   3.518   2.089   2.487 -0.4553 -0.7069 -0.4247
    6MOL0     C  687   3.418   2.042   2.582 -0.2416 -0.3211 -0.4843
    6MOL0     C  688   3.399   1.895   2.562 -0.7576 -0.8568  0.2328
    6MOL0     C  689   3.292   1.848   2.661 -0.3807 -1.1614 -0.1616
    6MOL0     C  690   3.242   1.711   2.624 -0.4929 -0.5989 -0.4591
    6MOL0     C  691   3.148   1.651   2.726 -0.0895 -0.6211 -0.0952
    6MOL0     N  692   3.028   1.730   2.742  0.7296 -0.3000  0.3785
    6MOL0     C  693   2.911   1.703   2.694  0.6367 -0.2120  0.1115
    6MOL0     C  694   2.824   1.800   2.731  1.2833  0.0120  0.4254
    6MOL0     C  695   2.674   1.819   2.706 -0.7612  0.4092 -0.7331
    6MOL0     C  696   2.590   1.691   2.731 -0.5454  0.5792  0.7798
    6MOL0     C  697   2.595   1.598   2.604 -0.3972  0.2682 -0.0522
    6MOL0     C  698   2.545   1.456   2.638  0.5434 -0.0117  0.0326
    6MOL0     O  699   2.402   1.454   2.651 -0.2830 -0.6771 -0.4099
    6MOL0     C  700   2.318   1.354   2.604 -0.1996 -0.0372  0.4142
    6MOL0     C  701   2.184   1.366   2.643 -0.1836  0.3964 -0.7227
    6MOL0     C  702   2.087   1.265   2.623 -0.4052 -0.1492  0.2132
    6MOL0     C  703   1.961   1.298   2.681 -1.1336 -0.6646 -0.7419
    6MOL0     C  704   2.120   1.144   2.567 -0.1094 -0.0633  0.4857
    6MOL0     C  705   2.022   1.031   2.549 -0.0937  0.9197  1.0540
    6MOL0     O  706   1.890   1.072   2.531  0.3997  0.9130 -0.5068
    6MOL0     C  707   1.779   1.000   2.518  0.8267  0.4567  0.4656
    6MOL0     C  708   1.769   0.861   2.513  0.0997  0.0177  0.9172
    6MOL0     C  709   1.646   0.803   2.516  0.8486  0.3403  0.7225
    6MOL0     C  710   1.526   0.874   2.520  0.7439 -0.3019 -1.8591
    6MOL0     O  711   1.400   0.826   2.548 -0.1363  1.2977  0.9055
    6MOL0     C  712   1.387   0.684   2.524 -0.2692 -0.1774 -0.8658
    6MOL0     C  713   1.238   0.652   2.496 -0.2853  0.2677 -0.4750
    6MOL0     C  714   1.157   0.677   2.612 -0.0749  0.3619  0.1785
    6MOL0     C  715   1.006   0.632   2.590 -0.0500  0.7451  0.2568
    6MOL0     C  716   0.923   0.672   2.710 -0.1526  0.1995 -0.1611
    6MOL0     C  717   0.777   0.712   2.669 -0.7912 -0.2071 -0.6912
    6MOL0     C  718   0.696   0.601   2.594  0.1774  0.0391 -0.5613
    6MOL0     C  719   0.556   0.590   2.656 -0.7530 -0.7147  0.0744
    6MOL0    Cl  720   0.466   0.485   2.550  0.3046 -0.0805 -0.0248
    6MOL0     C  721   1.537   1.011   2.508  0.4100  0.3510 -0.2286
    6MOL0     C  722   1.660   1.083   2.510  0.3408  0.2441 -0.1637
    6MOL0     O  723   2.064   0.917   2.518 -0.0277 -0.7930  1.0975
    6MOL0     C  724   2.253   1.142   2.520  0.5000 -0.6925  0.0310
    6MOL0     C  725   2.349   1.241   2.529  0.3505 -0.5634  0.2103
    6MOL0     N  726   2.896   1.881   2.817 -0.2450 -0.6592 -0.0100
    6MOL0     N  727   3.017   1.832   2.832  0.6871  0.7182  0.3782
    6MOL0     C  728   3.938   2.359   2.324  0.4164  0.5057  0.5777
    6MOL0     C  729   4.049   2.421   2.262 -0.7608 -0.3096 -0.7343
    6MOL0     C  730   4.421   2.728   2.244  0.2483 -0.3900 -0.2298
    6MOL0     C  731   4.526   2.781   2.302 -0.3360  0.1067 -0.3815
    6MOL0     C  732   4.633   2.837   2.230  0.7801  0.3917 -0.1525
    6MOL0     C  733   4.644   2.807   2.093  1.0271 -0.5034 -0.0824
    6MOL0     O  734   4.746   2.830   2.010 -0.0297  0.1160 -0.5057
    6MOL0     C  735   4.863   2.887   2.063 -0.0450  0.3691 -0.5058
    6MOL0     C  736   4.955   2.924   1.952 -0.6418  0.0447  0.3773
    6MOL0     C  737   4.897   3.016   1.845 -0.1911  0.2876 -0.2825
    6MOL0     C  738   4.992   3.092   1.758 -0.3349  0.8652 -0.1406
    6MOL0     C  739   4.923   3.167   1.653 -0.2561 -0.7798  0.3744
    6MOL0     C  740   4.845   3.220   1.572  0.6108 -0.7012 -1.1375
    6MOL0     C  741   4.533   2.746   2.026  0.0970 -0.2955  0.1928
    6MOL0     C  742   4.427   2.705   2.107  0.5534 -0.2303 -0.1845
    6MOL0     H  743   4.071   2.700   2.440  2.4014 -1.9561  1.4729
    6MOL0     H  744   3.836   2.607   2.521 -3.4727 -1.9554 -1.4746
    6MOL0     H  745   3.625   2.279   2.306  1.0242 -4.7403 -0.4068
    6MOL0     H  746   3.748   2.201   2.396  0.3425 -0.8246  0.6321
    6MOL0     H  747   3.635   2.233   2.599  2.7445  1.1313 -1.9415
    6MOL0     H  748   3.492   2.309   2.521 -0.1895 -1.0677 -1.4852
    6MOL0     H  749   3.479   2.092   2.385  1.0525  1.6677 -1.0270
    6MOL0     H  750   3.602   2.019   2.481 -0.7559 -1.1687  0.5470
    6MOL0     H  751   3.448   2.076   2.682 -0.3446  1.9518 -1.1531
    6MOL0     H  752   3.315   2.078   2.571 -0.0864 -0.3218 -2.1346
    6MOL0     H  753   3.371   1.871   2.459  0.8717 -2.3145  0.0833
    6MOL0     H  754   3.495   1.853   2.593  1.1711  2.8816 -0.1779
    6MOL0     H  755   3.334   1.854   2.762 -0.0944 -1.5762 -0.2537
    6MOL0     H  756   3.209   1.919   2.652 -0.8119 -1.7324 -0.6840
    6MOL0     H  757   3.200   1.710   2.523 -1.6339  2.6763 -0.1405
    6MOL0     H  758   3.331   1.648   2.633  0.9484  1.6373  3.0713
    6MOL0     H  759   3.190   1.620   2.822 -1.6671 -3.7689 -0.2782
    6MOL0     H  760   3.113   1.557   2.682  1.4789 -0.4248 -1.9334
    6MOL0     H  761   2.877   1.636   2.615 -0.7463  0.9811 -0.3449
    6MOL0     H  762   2.625   1.895   2.768 -0.0908 -0.7586  1.3300
    6MOL0     H  763   2.651   1.857   2.606  0.2160  1.9091 -0.4183
    6MOL0     H  764   2.486   1.725   2.731 -0.4395  0.9425 -0.1360
    6MOL0     H  765   2.605   1.643   2.828 -1.5744 -0.6197  0.3777
    6MOL0     H  766   2.697   1.598   2.564  0.1801  2.2432  1.2584
    6MOL0     H  767   2.536   1.634   2.519  1.2842 -0.7514 -1.7514
    6MOL0     H  768   2.588   1.431   2.736  0.0062 -1.8134 -0.1440
    6MOL0     H  769   2.586   1.384   2.567 -0.5313 -1.7586  1.0879
    6MOL0     H  770   2.169   1.456   2.703  2.8383  0.1191  0.5978
    6MOL0     H  771   1.866   1.285   2.628 -2.0344 -1.1538  0.9022
    6MOL0     H  772   1.955   1.236   2.772  0.1936 -1.0370 -0.8863
    6MOL0     H  773   1.968   1.405   2.704  0.1341 -0.6850 -0.9624
    6MOL0     H  774   1.851   0.791   2.502 -0.7892 -0.7503 -1.6243
    6MOL0     H  775   1.642   0.695   2.516  2.1313  0.1344 -3.5416
    6MOL0     H  776   1.444   0.652   2.436  0.9010  2.6662 -1.2672
    6MOL0     H  777   1.427   0.628   2.609  4.4684 -0.5589 -3.0477
    6MOL0     H  778   1.212   0.722   2.416 -2.3551  0.5843  0.4067
    6MOL0     H  779   1.231   0.546   2.468 -0.6029 -0.2116  1.2642
    6MOL0     H  780   1.142   0.785   2.612 -0.5392  0.2989  0.9303
    6MOL0     H  781   1.203   0.637   2.702 -0.6516 -0.3829  0.1529
    6MOL0     H  782   0.961   0.683   2.504 -4.8701  1.7638  2.9968
    6MOL0     H  783   0.994   0.524   2.579 -5.3959  0.5946  3.7529
    6MOL0     H  784   0.975   0.759   2.752  3.0188 -0.4758 -2.3041
    6MOL0     H  785   0.911   0.596   2.787  0.3431 -0.9326 -1.1703
    6MOL0     H  786   0.729   0.752   2.759  0.6700 -0.9486  0.4662
    6MOL0     H  787   0.780   0.800   2.604 -2.7539  2.3327  2.3546
    6MOL0     H  788   0.745   0.504   2.606 -2.7638 -1.4644  0.3774
    6MOL0     H  789   0.676   0.620   2.488 -1.0792  2.2665  0.0248
    6MOL0     H  790   0.503   0.682   2.678  0.5144 -0.3609  1.8840
    6MOL0     H  791   0.559   0.544   2.756  1.7052 -1.2509 -0.1737
    6MOL0     H  792   1.442   1.063   2.497 -0.4975 -1.4250 -1.3611
    6MOL0     H  793   1.664   1.188   2.483  0.6443  0.1763 -0.3924
    6MOL0     H  794   2.283   1.051   2.469  0.0960  0.5663 -2.6105
    6MOL0     H  795   2.447   1.229   2.484  0.1306  0.3336 -0.5522
    6MOL0     H  796   3.920   2.254   2.304  2.7695  0.3014 -0.6977
    6MOL0     H  797   4.104   2.368   2.185 -0.8322  0.8468 -1.6087
    6MOL0     H  798   4.535   2.787   2.410 -0.6921  0.1508 -0.3514
    6MOL0     H  799   4.721   2.869   2.285  1.6222 -1.2606 -0.4565
    6MOL0     H  800   4.835   2.981   2.111  2.6464  0.9788  0.0049
    6MOL0     H  801   4.904   2.816   2.135 -1.3990 -1.2864 -1.3069
    6MOL0     H  802   4.982   2.830   1.903  0.5334  0.7258 -0.3223
    6MOL0     H  803   5.049   2.966   1.988  0.3794  0.9171 -3.0123
    6MOL0     H  804   4.839   3.091   1.899  0.3434 -0.3654  1.2586
    6MOL0     H  805   4.824   2.953   1.793 -0.4278 -0.0823  0.4847
    6MOL0     H  806   5.067   3.029   1.711 -1.6796 -0.9114 -0.0017
    6MOL0     H  807   5.041   3.167   1.822 -2.6326  1.6813  0.7867
    6MOL0     H  808   4.772   3.277   1.519 -0.1675  0.8872  1.4679
    6MOL0     H  809   4.528   2.719   1.921 -3.4720 -1.1858  0.4597
    6MOL0     H  810   4.344   2.650   2.064 -1.0864 -0.0022  2.4599
    7MOL0     O  811   6.408   7.493   2.713 -0.2981 -0.2433  0.4834
    7MOL0     C  812   6.423   7.615   2.703  0.3551  0.2819 -0.2390
    7MOL0     O  813   6.538   7.673   2.685 -1.2457 -0.8918 -0.7650
    7MOL0     C  814   6.649   7.593   2.701  0.0377 -0.3218  0.5839
    7MOL0     C  815   6.673   7.518   2.820 -0.1724  0.2758  0.2767
    7MOL0     C  816   6.792   7.447   2.837 -0.2621 -0.4247 -0.9819
    7MOL0     C  817   6.891   7.459   2.742 -0.2043  0.9357 -0.1587
    7MOL0     O  818   7.011   7.398   2.770 -0.0637 -0.2052 -0.5022
    7MOL0     C  819   7.109   7.371   2.670 -0.1666  0.2678 -0.1652
    7MOL0     C  820   7.216   7.269   2.714 -0.6419  0.2882  0.1890
    7MOL0     C  821   7.289   7.228   2.594 -1.3270  0.0494 -0.0663
    7MOL0     C  822   7.415   7.136   2.624 -0.3218 -0.3000  0.2017
    7MOL0     C  823   7.454   7.050   2.508 -0.2127 -0.6526  0.7620
    7MOL0     C  824   7.593   6.991   2.532 -0.4207 -0.0421  0.3163
    7MOL0     C  825   7.631   6.904   2.407  0.2417 -1.0495  0.0032
    7MOL0     C  826   7.665   6.996   2.290  0.5041  0.3600 -0.0248
    7MOL0     N  827   7.796   7.057   2.307 -0.6988 -0.1416 -0.2252
    7MOL0     C  828   7.910   7.000   2.350  0.0857  1.0735  0.2603
    7MOL0     C  829   7.999   7.104   2.337  0.5862  0.0072  1.0878
    7MOL0     C  830   8.142   7.096   2.386 -0.2559  0.5386 -0.8697
    7MOL0     C  831   8.149   7.126   2.529 -0.6238  0.0292  0.5161
    7MOL0     C  832   8.293   7.160   2.573  0.2115  0.4175  0.0620
    7MOL0     C  833   8.313   7.173   2.718  0.5626 -0.0499 -0.4258
    7MOL0     O  834   8.270   7.047   2.782  0.7292 -0.7700 -0.6641
    7MOL0     C  835   8.142   7.054   2.849 -0.4590 -0.1457 -0.5102
    7MOL0     C  836   8.101   7.158   2.943 -0.3797  0.8082  0.9069
    7MOL0     C  837   7.984   7.169   3.005  0.6264  0.3455 -0.9606
    7MOL0     C  838   7.951   7.281   3.090 -0.4858 -0.0454  0.0336
    7MOL0     C  839   7.888   7.062   2.984 -0.7826 -0.2280  0.4601
    7MOL0     C  840   7.747   7.075   3.033 -0.1526 -0.3856  0.7038
    7MOL0     O  841   7.658   7.028   2.937 -0.0234 -0.0518  0.2808
    7MOL0     C  842   7.531   7.041   2.979  0.2279 -0.1401 -0.1260
    7MOL0     C  843   7.460   7.158   2.957  0.4089  0.3893  0.3487
    7MOL0     C  844   7.329   7.174   3.013 -0.0727  0.4889  0.1120
    7MOL0     C  845   7.259   7.063   3.053 -0.3760 -0.4164 -0.1466
    7MOL0     O  846   7.126   7.055   3.077  0.4132  0.7383  0.1222
    7MOL0     C  847   7.054   7.173   3.070  0.8693 -0.8564  0.5118
    7MOL0     C  848   6.907   7.152   3.076 -0.2471  0.4958 -0.0176
    7MOL0     C  849   6.853   7.076   2.948 -0.5308 -0.5243  0.8458
    7MOL0     C  850   6.701   7.069   2.956  0.0923 -0.2121 -0.4164
    7MOL0     C  851   6.635   6.987   2.844 -0.0124 -0.3692  0.9361
    7MOL0     C  852   6.561   7.079   2.745  0.2774  0.1051 -0.0635
    7MOL0     C  853   6.649   7.173   2.661 -0.5664 -0.6145  0.3131
    7MOL0     C  854   6.695   7.105   2.523  0.4341 -0.3259  0.7478
    7MOL0    Cl  855   6.811   6.971   2.568  0.2497  0.4038 -0.1850
    7MOL0     C  856   7.321   6.936   3.042 -0.8547 -0.2843 -0.0072
    7MOL0     C  857   7.461   6.933   3.023 -0.3431  0.8302  0.0682
    7MOL0     O  858   7.724   7.115   3.147  0.4696 -0.3443 -0.6452
    7MOL0     C  859   7.926   6.954   2.890  1.1381  0.5966  0.8340
    7MOL0     C  860   8.053   6.950   2.826  0.3332  0.5494  0.1195
    7MOL0     N  861   7.934   7.217   2.280 -0.5082  0.3669  0.1092
    7MOL0     N  862   7.812   7.190   2.268  0.0745 -0.2986  1.1127
    7MOL0     C  863   6.860   7.518   2.626 -1.0732 -1.2112  0.2363
    7MOL0     C  864   6.746   7.588   2.597 -0.2037 -0.1571  1.0227
    7MOL0     C  865   6.296   7.701   2.698  0.3677 -0.4181  0.3390
    7MOL0     C  866   6.296   7.843   2.687 -0.3558  0.9538  0.5504
    7MOL0     C  867   6.171   7.907   2.662  0.3354 -0.4234 -0.3157
    7MOL0     C  868   6.047   7.839   2.673  1.3732  0.6212  0.0063
    7MOL0     O  869   5.933   7.918   2.671 -0.3034  0.0794  0.2138
    7MOL0     C  870   5.808   7.855   2.705 -0.1937  0.1209  0.3513
    7MOL0     C  871   5.688   7.919   2.628  0.6940  0.5471 -1.3437
    7MOL0     C  872   5.675   7.872   2.484 -0.0872 -0.2959 -0.8238
    7MOL0     C  873   5.561   7.947   2.411  0.2429 -0.2331 -0.7581
    7MOL0     C  874   5.575   8.093   2.391  1.0022 -0.0355 -0.1416
    7MOL0     C  875   5.597   8.212   2.382  0.1201  0.1738  0.3826
    7MOL0     C  876   6.051   7.705   2.699 -0.0096  0.0551  0.4611
    7MOL0     C  877   6.172   7.633   2.685 -0.0156 -0.1515  0.6241
    7MOL0     H  878   6.610   7.515   2.908 -1.2968 -2.2364 -0.5346
    7MOL0     H  879   6.819   7.378   2.916 -0.0278 -0.6142 -1.2222
    7MOL0     H  880   7.060   7.333   2.580 -0.9335 -0.3994  0.5104
    7MOL0     H  881   7.150   7.462   2.626  2.2295 -1.4112 -1.7031
    7MOL0     H  882   7.292   7.320   2.774  1.6278 -3.7767  1.1527
    7MOL0     H  883   7.177   7.179   2.764  1.7846 -0.6595  0.5450
    7MOL0     H  884   7.219   7.185   2.522 -3.4690  2.4770  0.4045
    7MOL0     H  885   7.323   7.322   2.548 -0.2302 -0.6314 -0.6782
    7MOL0     H  886   7.492   7.205   2.661  1.2987 -1.5390 -0.7535
    7MOL0     H  887   7.400   7.071   2.710  1.4849  0.6662  1.3115
    7MOL0     H  888   7.382   6.969   2.495  1.4242 -1.6665 -3.8977
    7MOL0     H  889   7.457   7.117   2.420 -6.0895 -0.9162 -0.1067
    7MOL0     H  890   7.665   7.069   2.555 -0.6102  0.4020 -0.5714
    7MOL0     H  891   7.578   6.919   2.613  0.0909 -0.5028  0.0052
    7MOL0     H  892   7.721   6.850   2.435 -0.2854 -1.6814  0.5107
    7MOL0     H  893   7.545   6.843   2.377  0.3878 -1.3143  0.1271
    7MOL0     H  894   7.594   7.077   2.273  2.0234  1.8374  0.3509
    7MOL0     H  895   7.666   6.942   2.196  1.5616 -1.4275  0.9499
    7MOL0     H  896   7.933   6.901   2.389  0.2593  2.3420  3.7506
    7MOL0     H  897   8.192   7.006   2.349  0.4240  1.0765 -1.2805
    7MOL0     H  898   8.193   7.176   2.331 -3.7254  0.6546 -4.3341
    7MOL0     H  899   8.110   7.037   2.578 -2.4536  1.2583  1.3917
    7MOL0     H  900   8.081   7.206   2.559 -0.6739  0.6893 -1.2663
    7MOL0     H  901   8.297   7.265   2.542  1.4976  0.6209  0.8466
    7MOL0     H  902   8.373   7.091   2.544 -0.4543 -1.2811  2.0221
    7MOL0     H  903   8.260   7.253   2.770  0.2934 -1.2749  1.2506
    7MOL0     H  904   8.422   7.184   2.727  0.8374 -3.4426  2.6239
    7MOL0     H  905   8.172   7.239   2.954  1.4562 -0.6155 -0.0082
    7MOL0     H  906   7.871   7.346   3.053 -0.1677 -0.2463 -1.0545
    7MOL0     H  907   7.937   7.256   3.196  0.0183  0.1490  0.1477
    7MOL0     H  908   8.040   7.345   3.092 -0.4863  0.0157 -1.0480
    7MOL0     H  909   7.514   7.246   2.922  1.2630  0.0811  0.8787
    7MOL0     H  910   7.278   7.269   3.011 -0.8987  0.0504 -0.3220
    7MOL0     H  911   7.083   7.242   3.151 -0.3189  0.1559  0.1168
    7MOL0     H  912   7.071   7.224   2.975 -2.2282 -1.6012 -0.5796
    7MOL0     H  913   6.894   7.083   3.160 -0.9920 -0.5881 -0.9997
    7MOL0     H  914   6.848   7.241   3.101 -1.3403 -1.2114  4.3929
    7MOL0     H  915   6.912   6.984   2.943  0.7324  0.2587  0.8554
    7MOL0     H  916   6.882   7.136   2.861 -1.1336  1.6721  2.0801
    7MOL0     H  917   6.679   7.008   3.045 -0.8414 -2.3899 -2.0381
    7MOL0     H  918   6.648   7.165   2.965 -0.6874 -0.1494 -4.0540
    7MOL0     H  919   6.563   6.919   2.889 -0.6540 -0.2322  0.1336
    7MOL0     H  920   6.705   6.929   2.783 -1.8363 -0.2613 -1.3913
    7MOL0     H  921   6.495   7.016   2.685 -1.6131  0.1244  1.9016
    7MOL0     H  922   6.499   7.149   2.801 -1.9864 -0.2276 -1.9996
    7MOL0     H  923   6.737   7.204   2.719 -1.6936 -1.3368  2.4886
    7MOL0     H  924   6.581   7.255   2.635 -3.5665 -2.7791  0.8618
    7MOL0     H  925   6.742   7.172   2.451  0.3131  0.2265  1.1724
    7MOL0     H  926   6.602   7.069   2.478  2.6337 -2.0047 -2.8643
    7MOL0     H  927   7.262   6.846   3.056  0.0482 -0.8108  0.5582
    7MOL0     H  928   7.520   6.843   3.038  0.2050  0.9284 -1.3126
    7MOL0     H  929   7.857   6.873   2.869  1.9553  0.3274 -1.0219
    7MOL0     H  930   8.094   6.858   2.784  0.0800  0.4510  0.0910
    7MOL0     H  931   6.928   7.518   2.542  0.0767 -0.8179  1.1308
    7MOL0     H  932   6.723   7.630   2.500 -0.3660 -2.0663  0.1889
    7MOL0     H  933   6.386   7.900   2.671  0.3010 -0.6149 -1.8576
    7MOL0     H  934   6.166   8.012   2.633  2.4841  0.3820  1.8612
    7MOL0     H  935   5.795   7.747   2.692 -2.3342  0.3593  0.1827
    7MOL0     H  936   5.783   7.866   2.811 -0.1295 -0.1284  0.3945
    7MOL0     H  937   5.712   8.025   2.642  1.9598 -0.0787  2.7044
    7MOL0     H  938   5.593   7.902   2.679  1.4014  2.2438  0.7076
    7MOL0     H  939   5.654   7.766   2.497 -1.4405  0.2294  2.4041
    7MOL0     H  940   5.768   7.897   2.432 -0.6321  0.0392 -1.6723
    7MOL0     H  941   5.478   7.925   2.479  0.7429  0.6742  0.1728
    7MOL0     H  942   5.536   7.888   2.323  0.6177 -0.8691 -0.4489
    7MOL0     H  943   5.615   8.317   2.380 -1.0031  0.4090 -2.8066
    7MOL0     H  944   5.972   7.631   2.708  2.3272 -2.3884  2.5575
    7MOL0     H  945   6.175   7.525   2.679 -1.2206 -0.2338  1.2995
    8MOL0     O  946   4.352  10.881   9.296 -1.0002 -0.0068  0.1930
    8MOL0     C  947   4.402  10.863   9.407  0.0491 -0.3449 -0.6556
    8MOL0     O  948   4.334  10.880   9.523  0.4637  0.2651 -0.1833
    8MOL0     C  949   4.203  10.918   9.520 -0.9313  0.6798 -0.0894
    8MOL0     C  950   4.115  10.841   9.588 -0.3386 -0.3190 -1.1422
    8MOL0     C  951   3.975  10.862   9.576 -0.0182 -0.1780 -0.2463
    8MOL0     C  952   3.924  10.975   9.508 -1.4772  0.0210 -0.3596
    8MOL0     O  953   3.789  10.981   9.512  0.1819 -0.1323  0.4377
    8MOL0     C  954   3.738  11.090   9.433 -0.8942 -0.1689 -0.4363
    8MOL0     C  955   3.584  11.082   9.423  0.0159 -0.0368 -0.1719
    8MOL0     C  956   3.526  10.950   9.372 -0.6373  0.1281 -0.4364
    8MOL0     C  957   3.394  10.966   9.296  0.3290 -0.2133  0.4880
    8MOL0     C  958   3.274  10.994   9.388 -0.2049 -0.0428  0.4115
    8MOL0     C  959   3.155  11.025   9.300 -0.5367  0.0151 -0.4839
    8MOL0     C  960   3.035  11.042   9.386 -0.0294  0.9850 -0.3308
    8MOL0     C  961   2.912  11.074   9.301 -0.3112  0.3310 -0.3778
    8MOL0     N  962   2.787  11.066   9.380  0.2888  0.8086  0.1949
    8MOL0     C  963   2.715  11.169   9.445  1.3290 -0.9195  0.0288
    8MOL0     C  964   2.607  11.109   9.496  0.2591  0.7059  0.3207
    8MOL0     C  965   2.488  11.169   9.570 -0.3416  0.8128 -0.1268
    8MOL0     C  966   2.373  11.217   9.479 -0.6385 -0.0141  0.5492
    8MOL0     C  967   2.245  11.240   9.575 -0.9041 -0.2446 -0.3557
    8MOL0     C  968   2.123  11.290   9.502 -0.6915  0.9158  0.4833
    8MOL0     O  969   2.004  11.273   9.577  0.3113  0.2817  0.0027
    8MOL0     C  970   1.884  11.321   9.519  0.2379 -0.3811 -0.1452
    8MOL0     C  971   1.860  11.373   9.390  1.0656  0.6657 -0.2830
    8MOL0     C  972   1.736  11.430   9.351 -0.0444 -0.2252  0.3581
    8MOL0     C  973   1.733  11.481   9.212 -0.4386 -0.8658  1.1745
    8MOL0     C  974   1.628  11.438   9.440 -1.0833  0.8858  0.4965
    8MOL0     C  975   1.490  11.502   9.408  0.5760  0.0202 -0.5674
    8MOL0     O  976   1.405  11.524   9.511 -0.9797 -0.0559 -0.0776
    8MOL0     C  977   1.283  11.566   9.472 -0.4619 -0.4218 -0.7875
    8MOL0     C  978   1.236  11.685   9.526  0.2738  1.1552 -0.8621
    8MOL0     C  979   1.099  11.723   9.509 -1.2069 -0.2607  0.2707
    8MOL0     C  980   1.010  11.640   9.440 -0.1936  0.1403  0.5665
    8MOL0     O  981   0.881  11.692   9.411 -0.7967 -0.5142 -0.4720
    8MOL0     C  982   0.773  11.601   9.388 -1.0110  1.1259  0.3908
    8MOL0     C  983   0.632  11.673   9.389  0.0925 -0.6197 -0.0174
    8MOL0     C  984   0.509  11.578   9.380  0.1530  0.3054  0.1629
    8MOL0     C  985   0.375  11.650   9.346  0.1208  1.0969  0.1731
    8MOL0     C  986   0.258  11.560   9.383  0.3070  0.8846 -0.1923
    8MOL0     C  987   0.127  11.594   9.314 -0.4872  0.6839 -0.3061
    8MOL0     C  988   0.018  11.481   9.323  0.5404  0.1405 -0.0206
    8MOL0     C  989  -0.032  11.455   9.465  0.4775  0.4017  0.4310
    8MOL0    Cl  990  -0.135  11.306   9.484  0.2068  0.0822  0.6040
    8MOL0     C  991   1.056  11.521   9.392 -0.2673  0.3316  0.6758
    8MOL0     C  992   1.192  11.484   9.399  0.1909 -0.0818 -0.0336
    8MOL0     O  993   1.469  11.547   9.292  1.2668 -0.3220  0.0773
    8MOL0     C  994   1.653  11.381   9.571  0.0223  0.0096  0.5675
    8MOL0     C  995   1.778  11.325   9.608 -0.1247  0.6116  0.0605
    8MOL0     N  996   2.613  10.973   9.449  0.6888 -1.0484  0.4891
    8MOL0     N  997   2.715  10.944   9.380  0.0127 -0.5686  0.6917
    8MOL0     C  998   4.017  11.062   9.449  0.2474 -0.3805  0.5235
    8MOL0     C  999   4.154  11.027   9.448 -0.3153 -0.0721  0.2182
    8MOL0     C 1000   4.545  10.833   9.419  0.1744  0.9186  0.3100
    8MOL0     C 1001   4.630  10.822   9.306  0.7885  0.9702  0.6683
    8MOL0     C 1002   4.759  10.775   9.329  0.5731 -0.6688  0.2299
    8MOL0     C 1003   4.808  10.739   9.452  0.4838 -0.4434 -1.1289
    8MOL0     O 1004   4.928  10.678   9.454  0.2638  0.2738 -0.2568
    8MOL0     C 1005   5.004  10.656   9.575 -0.1959 -0.6880  0.8333
    8MOL0     C 1006   5.123  10.548   9.566  0.4658  0.0531 -0.7865
    8MOL0     C 1007   5.213  10.579   9.684  0.5282 -0.5516  0.2038
    8MOL0     C 1008   5.349  10.517   9.658  0.2355 -0.1109 -0.1961
    8MOL0     C 1009   5.339  10.373   9.671 -0.8303 -0.9433 -1.5955
    8MOL0     C 1010   5.327  10.254   9.693 -0.9210 -0.7191 -0.5214
    8MOL0     C 1011   4.721  10.757   9.564  0.2454  0.3215  0.3470
    8MOL0     C 1012   4.591  10.806   9.550 -0.0940 -1.1106  0.2290
    8MOL0     H 1013   4.155  10.750   9.633 -0.6638 -1.6164 -3.3035
    8MOL0     H 1014   3.889  10.808   9.614  1.6993 -0.5678  3.5691
    8MOL0     H 1015   3.769  11.188   9.472  1.4575 -0.6485 -0.9456
    8MOL0     H 1016   3.781  11.072   9.334 -0.7822 -0.5013 -0.3285
    8MOL0     H 1017   3.535  11.100   9.520 -0.9714 -0.7207 -0.5285
    8MOL0     H 1018   3.550  11.166   9.363  2.8822  0.0478 -1.8258
    8MOL0     H 1019   3.596  10.908   9.299  2.8783  2.3466  1.3389
    8MOL0     H 1020   3.524  10.872   9.448  4.1501  0.0327 -0.0623
    8MOL0     H 1021   3.398  11.050   9.227 -2.6649 -0.2372  0.1589
    8MOL0     H 1022   3.381  10.865   9.255  2.7447 -2.4475  4.4919
    8MOL0     H 1023   3.250  10.907   9.450 -2.0492  0.7917  0.9410
    8MOL0     H 1024   3.295  11.079   9.454 -2.3838  0.7029  0.2395
    8MOL0     H 1025   3.163  11.109   9.232  0.0729  0.4731  0.1382
    8MOL0     H 1026   3.144  10.936   9.237 -0.1062 -2.1881  2.3257
    8MOL0     H 1027   3.011  10.941   9.422  2.9071  0.6261  0.9577
    8MOL0     H 1028   3.054  11.107   9.472  0.9359  0.7138 -0.3181
    8MOL0     H 1029   2.913  11.001   9.220  1.2613 -2.8780  2.2810
    8MOL0     H 1030   2.929  11.176   9.265  2.7330  0.8844  2.1739
    8MOL0     H 1031   2.731  11.276   9.455 -2.1236 -0.0865 -1.7810
    8MOL0     H 1032   2.455  11.099   9.647 -0.7302  2.0254  0.8408
    8MOL0     H 1033   2.530  11.250   9.630  1.4302 -0.5809  0.6095
    8MOL0     H 1034   2.343  11.144   9.403 -0.6576  0.1550  0.3938
    8MOL0     H 1035   2.397  11.313   9.431 -1.8460  0.6413  1.2084
    8MOL0     H 1036   2.278  11.312   9.651  2.1989 -1.4871 -0.3847
    8MOL0     H 1037   2.228  11.150   9.634 -0.7639 -0.0171  0.0397
    8MOL0     H 1038   2.131  11.241   9.404 -1.7757  1.7450 -0.0504
    8MOL0     H 1039   2.136  11.398   9.495  2.3362  0.5900 -0.2020
    8MOL0     H 1040   1.934  11.361   9.311  1.1764 -1.6900  0.1114
    8MOL0     H 1041   1.833  11.478   9.167 -0.4652  0.2702  1.0167
    8MOL0     H 1042   1.654  11.438   9.150  1.4314  0.6462 -2.5997
    8MOL0     H 1043   1.727  11.589   9.227  3.3878 -0.0581 -1.5581
    8MOL0     H 1044   1.283  11.751   9.599 -0.1673  2.1799 -1.4824
    8MOL0     H 1045   1.064  11.814   9.556 -1.2554  0.3472 -0.9022
    8MOL0     H 1046   0.775  11.548   9.293  1.1620 -1.2128  1.6076
    8MOL0     H 1047   0.772  11.531   9.473 -0.1561  1.4948  0.7117
    8MOL0     H 1048   0.617  11.744   9.471 -1.2720  0.4772 -1.1555
    8MOL0     H 1049   0.640  11.736   9.300  1.4380 -2.0015 -0.9280
    8MOL0     H 1050   0.506  11.535   9.481 -1.7339 -0.9803 -0.3666
    8MOL0     H 1051   0.519  11.502   9.302 -1.5943 -0.5618  0.7207
    8MOL0     H 1052   0.373  11.741   9.407  0.7343  2.3953 -1.6570
    8MOL0     H 1053   0.385  11.676   9.241  2.7057  1.2383  0.3934
    8MOL0     H 1054   0.238  11.565   9.490  1.1787  0.2675  0.0070
    8MOL0     H 1055   0.293  11.459   9.360  0.0561  0.7539 -0.0086
    8MOL0     H 1056   0.090  11.689   9.352 -0.2329  0.6685 -0.0173
    8MOL0     H 1057   0.157  11.604   9.209  0.4184 -0.6351 -0.1996
    8MOL0     H 1058   0.057  11.388   9.279 -0.0395  0.0874 -0.4238
    8MOL0     H 1059  -0.061  11.516   9.256 -2.0835 -0.4911  2.5596
    8MOL0     H 1060  -0.093  11.540   9.497  0.7183  0.6192  0.3071
    8MOL0     H 1061   0.052  11.453   9.535  2.3005 -0.6611 -1.6686
    8MOL0     H 1062   0.999  11.446   9.338 -1.7566  2.1382 -0.3929
    8MOL0     H 1063   1.232  11.393   9.354 -3.6764 -1.5424 -0.8760
    8MOL0     H 1064   1.562  11.380   9.631  0.4902  2.7404  1.4334
    8MOL0     H 1065   1.789  11.282   9.707  4.3769  1.3537  0.0655
    8MOL0     H 1066   3.996  11.159   9.406 -0.1871 -0.0544  1.4317
    8MOL0     H 1067   4.225  11.095   9.402  0.2627 -0.3023  0.7413
    8MOL0     H 1068   4.608  10.835   9.201  0.3890  1.6962  0.8350
    8MOL0     H 1069   4.817  10.746   9.242  0.1978  0.8586 -0.5706
    8MOL0     H 1070   5.037  10.751   9.619  0.5139 -1.5344  2.2046
    8MOL0     H 1071   4.926  10.621   9.643 -1.2794  0.0559  0.0110
    8MOL0     H 1072   5.182  10.567   9.476  2.7839 -2.5859  0.0227
    8MOL0     H 1073   5.094  10.443   9.558  1.1353  0.0185 -3.9512
    8MOL0     H 1074   5.169  10.540   9.776 -2.3077  0.2871 -0.6846
    8MOL0     H 1075   5.218  10.688   9.684  1.0735 -0.5674 -0.8661
    8MOL0     H 1076   5.417  10.560   9.732 -1.5154  2.8207 -0.1133
    8MOL0     H 1077   5.380  10.542   9.555 -1.5568 -2.4442 -1.3872
    8MOL0     H 1078   5.300  10.151   9.699  0.7944 -1.1182  2.2272
    8MOL0     H 1079   4.753  10.719   9.661  0.5002 -0.6336 -0.0968
    8MOL0     H 1080   4.522  10.814   9.633  1.2913 -0.1059  1.3335
    9MOL0     O 1081   8.286   7.144   5.969  0.9712 -0.0585 -0.1880
    9MOL0     C 1082   8.308   7.193   5.851 -0.7894 -0.1692  0.0228
    9MOL0     O 1083   8.209   7.252   5.768 -0.5104 -0.3042  0.1579
    9MOL0     C 1084   8.080   7.290   5.801 -0.4399 -0.1259 -0.0024
    9MOL0     C 1085   7.997   7.339   5.697  0.3600  0.5325 -0.7753
    9MOL0     C 1086   7.870   7.375   5.725 -1.0665 -0.4018 -0.1978
    9MOL0     C 1087   7.820   7.373   5.858 -0.5018 -0.4567  0.4560
    9MOL0     O 1088   7.697   7.411   5.890 -0.8050 -0.5354 -0.2486
    9MOL0     C 1089   7.656   7.531   5.817  0.2857  0.6665 -0.1754
    9MOL0     C 1090   7.503   7.507   5.789  0.6744  0.2189 -0.6628
    9MOL0     C 1091   7.422   7.626   5.766 -0.2263 -1.0084  1.3848
    9MOL0     C 1092   7.273   7.597   5.743  0.4130  0.7427  0.2136
    9MOL0     C 1093   7.186   7.730   5.741 -0.2277  0.1060  0.0559
    9MOL0     C 1094   7.220   7.827   5.632  0.3914 -0.1086 -0.4401
    9MOL0     C 1095   7.132   7.950   5.624  0.1910 -0.0717 -0.6782
    9MOL0     C 1096   7.130   8.044   5.753  0.3159  0.5380 -0.1085
    9MOL0     N 1097   7.268   8.092   5.795  0.2902 -0.3997 -0.3340
    9MOL0     C 1098   7.383   8.116   5.716 -0.3015 -1.3513  0.9238
    9MOL0     C 1099   7.482   8.117   5.804 -0.4793  0.0970 -0.0038
    9MOL0     C 1100   7.635   8.144   5.784  0.4181  0.3800  0.0585
    9MOL0     C 1101   7.710   8.019   5.829 -0.4120  0.0467  0.0420
    9MOL0     C 1102   7.854   8.048   5.865  0.8573 -0.2401  0.0835
    9MOL0     C 1103   7.940   8.079   5.748 -0.7614  0.0553 -0.4729
    9MOL0     O 1104   7.989   7.965   5.676  0.2073 -0.7132 -0.3503
    9MOL0     C 1105   8.108   7.910   5.712 -0.3065  0.4047 -0.2010
    9MOL0     C 1106   8.230   7.969   5.668  1.3604  0.4881  0.3788
    9MOL0     C 1107   8.355   7.917   5.708  0.0338  1.1305 -0.7920
    9MOL0     C 1108   8.482   7.979   5.669  1.3624  0.0322 -0.0393
    9MOL0     C 1109   8.352   7.801   5.790 -0.3349  0.6457 -0.7169
    9MOL0     C 1110   8.475   7.711   5.815  0.0553  0.8459 -0.0738
    9MOL0     O 1111   8.476   7.665   5.951  0.2200  0.3712 -0.6077
    9MOL0     C 1112   8.593   7.593   5.988 -0.9775 -0.3066 -0.5301
    9MOL0     C 1113   8.694   7.670   6.045  0.0429 -0.1500  0.4166
    9MOL0     C 1114   8.814   7.609   6.074 -0.7258  0.5163 -0.3837
    9MOL0     C 1115   8.840   7.472   6.047 -1.0233  0.7884  1.0079
    9MOL0     O 1116   8.964   7.425   6.083 -0.3945  0.0270  1.4223
    9MOL0     C 1117   9.044   7.365   5.982 -0.6316  0.5024  0.4366
    9MOL0     C 1118   9.095   7.463   5.880  0.1184 -0.1318  1.1794
    9MOL0     C 1119   9.199   7.560   5.931  0.0815  0.1381 -0.4462
    9MOL0     C 1120   9.344   7.506   5.942 -0.5930  0.0304  0.5333
    9MOL0     C 1121   9.431   7.619   6.016 -0.0715 -0.0334  0.1215
    9MOL0     C 1122   9.577   7.579   6.016  0.2897  0.5670  0.0525
    9MOL0     C 1123   9.672   7.652   6.120 -0.7404 -0.7033  0.3811
    9MOL0     C 1124   9.803   7.594   6.101 -0.4365 -0.0511  0.7747
    9MOL0    Cl 1125   9.819   7.436   6.181  0.0793 -0.3649 -0.3066
    9MOL0     C 1126   8.730   7.387   6.000  0.4408 -0.5192 -0.0398
    9MOL0     C 1127   8.607   7.453   5.978 -0.6146  1.0767  1.0831
    9MOL0     O 1128   8.549   7.675   5.727 -0.2570  0.2065  0.4577
    9MOL0     C 1129   8.232   7.750   5.837  0.2021  0.3822  0.1842
    9MOL0     C 1130   8.109   7.805   5.797 -0.8341 -0.5339  0.6762
    9MOL0     N 1131   7.424   8.098   5.933  0.0037  0.0647  0.8111
    9MOL0     N 1132   7.296   8.075   5.923 -0.0326 -0.0677  0.1066
    9MOL0     C 1133   7.905   7.338   5.966 -0.8804  0.1112  0.0722
    9MOL0     C 1134   8.037   7.297   5.941 -1.0080 -0.7779  0.3118
    9MOL0     C 1135   8.446   7.201   5.792 -0.5919  0.5052 -0.3221
    9MOL0     C 1136   8.465   7.262   5.671 -0.0845 -0.4478  0.4932
    9MOL0     C 1137   8.584   7.269   5.605 -0.4963  0.5856  0.5729
    9MOL0     C 1138   8.690   7.194   5.649  0.3377  0.3062  0.0231
    9MOL0     O 1139   8.801   7.195   5.573  0.5118  0.0217  0.1985
    9MOL0     C 1140   8.936   7.167   5.627  0.6079 -0.1684 -0.5562
    9MOL0     C 1141   9.046   7.210   5.525  0.3990  0.8477  1.0119
    9MOL0     C 1142   9.042   7.366   5.504 -0.5746  0.8945  0.2316
    9MOL0     C 1143   9.167   7.427   5.443 -0.5703 -0.2266  0.7002
    9MOL0     C 1144   9.184   7.358   5.310  1.2946  0.5905  0.4942
    9MOL0     C 1145   9.173   7.290   5.212  0.0781 -0.1958  0.3855
    9MOL0     C 1146   8.677   7.121   5.767 -0.0697 -0.0164 -0.0393
    9MOL0     C 1147   8.559   7.132   5.843 -0.5561  0.5092 -0.3675
    9MOL0     H 1148   8.036   7.325   5.597 -0.9315 -1.6734 -1.0400
    9MOL0     H 1149   7.815   7.400   5.634  2.1963  1.0464 -1.9345
    9MOL0     H 1150   7.660   7.618   5.883  0.6179  1.0178 -0.6509
    9MOL0     H 1151   7.711   7.558   5.726 -0.2267 -2.3870 -1.5121
    9MOL0     H 1152   7.493   7.437   5.705  0.4378 -0.8351  0.2172
    9MOL0     H 1153   7.465   7.442   5.868  4.2561 -3.1483 -1.3595
    9MOL0     H 1154   7.431   7.695   5.851  0.4987 -0.2565  0.7095
    9MOL0     H 1155   7.457   7.680   5.678 -0.2965 -2.8114  0.1960
    9MOL0     H 1156   7.242   7.544   5.653 -1.2150 -2.3175  2.4219
    9MOL0     H 1157   7.231   7.540   5.826  0.8201  1.4516  0.9198
    9MOL0     H 1158   7.082   7.705   5.720 -0.4459  0.4414  0.7133
    9MOL0     H 1159   7.201   7.780   5.837  1.5499 -2.3620  1.1517
    9MOL0     H 1160   7.319   7.870   5.648  0.3474  0.3005 -1.2193
    9MOL0     H 1161   7.218   7.785   5.531 -0.6927  0.3114 -0.6108
    9MOL0     H 1162   7.173   8.015   5.545 -0.3469  1.3669  0.1774
    9MOL0     H 1163   7.034   7.912   5.598  0.4019  0.2100 -1.9965
    9MOL0     H 1164   7.085   7.993   5.839  1.1867  0.3400  0.2465
    9MOL0     H 1165   7.057   8.119   5.724 -2.6966 -1.9450  0.5215
    9MOL0     H 1166   7.398   8.129   5.609  0.9096 -1.7374  1.0307
    9MOL0     H 1167   7.651   8.164   5.678  0.5630 -1.0395 -0.2160
    9MOL0     H 1168   7.665   8.236   5.834  0.7213  1.7879 -2.5536
    9MOL0     H 1169   7.705   7.939   5.755  0.6193  2.2006 -2.5032
    9MOL0     H 1170   7.666   7.991   5.926  0.9100  2.2655  1.3563
    9MOL0     H 1171   7.896   7.960   5.914  0.3132  1.3103  3.6424
    9MOL0     H 1172   7.851   8.126   5.941  0.5814  1.1246 -1.2778
    9MOL0     H 1173   8.033   8.130   5.774 -0.6426  0.6149 -1.9227
    9MOL0     H 1174   7.884   8.142   5.678 -0.1381 -0.3036 -1.3005
    9MOL0     H 1175   8.223   8.057   5.605  0.8513 -0.7130 -1.3292
    9MOL0     H 1176   8.548   7.910   5.617  1.0059 -0.3095 -0.0412
    9MOL0     H 1177   8.456   8.071   5.616 -0.2976  0.7968  1.9724
    9MOL0     H 1178   8.550   7.999   5.752 -0.8679  0.6029  1.7523
    9MOL0     H 1179   8.687   7.776   6.065 -0.0429 -0.0041 -0.3330
    9MOL0     H 1180   8.890   7.670   6.122 -1.1605  0.5817  0.2353
    9MOL0     H 1181   9.127   7.321   6.038  0.1206  2.3625  0.8660
    9MOL0     H 1182   9.004   7.276   5.933  1.5049 -0.2917  0.0227
    9MOL0     H 1183   9.149   7.408   5.802  0.9585  1.6447  0.4549
    9MOL0     H 1184   9.009   7.507   5.829  0.3131 -1.7095 -0.6282
    9MOL0     H 1185   9.165   7.614   6.020  2.8482 -0.1017  0.8432
    9MOL0     H 1186   9.202   7.643   5.860 -2.1558  1.4265  0.8545
    9MOL0     H 1187   9.337   7.415   6.001 -1.8202 -1.0239 -1.1309
    9MOL0     H 1188   9.391   7.481   5.846 -0.2453  2.1424  0.1061
    9MOL0     H 1189   9.391   7.632   6.117 -1.4347  0.5682 -0.4746
    9MOL0     H 1190   9.435   7.712   5.959 -0.1469 -0.4842 -0.6290
    9MOL0     H 1191   9.581   7.473   6.042 -3.8287  0.2111 -0.1055
    9MOL0     H 1192   9.620   7.590   5.916  3.6471 -0.0984  1.2571
    9MOL0     H 1193   9.638   7.647   6.224 -2.9649 -0.6244 -0.2804
    9MOL0     H 1194   9.674   7.756   6.088  2.7200 -0.4929  0.9228
    9MOL0     H 1195   9.864   7.664   6.160  0.2679 -0.5694  0.6715
    9MOL0     H 1196   9.838   7.593   5.997 -0.8570 -0.7370  0.6340
    9MOL0     H 1197   8.749   7.281   5.994  2.5764 -0.5286  3.5372
    9MOL0     H 1198   8.524   7.396   5.939 -0.6164  0.7404  1.5655
    9MOL0     H 1199   8.221   7.669   5.908  0.7592 -0.4677 -0.6639
    9MOL0     H 1200   8.022   7.751   5.830 -1.6771 -2.1582 -3.5322
    9MOL0     H 1201   7.878   7.329   6.070  0.2300 -0.8989  0.2992
    9MOL0     H 1202   8.103   7.273   6.024  0.5617  0.7729 -0.4360
    9MOL0     H 1203   8.384   7.305   5.613  1.6177  2.2966 -0.0729
    9MOL0     H 1204   8.600   7.320   5.511 -0.9018  0.7196  0.5775
    9MOL0     H 1205   8.946   7.211   5.726  1.3732 -3.2238  0.8666
    9MOL0     H 1206   8.941   7.058   5.633 -0.2844 -0.1777  0.1069
    9MOL0     H 1207   9.027   7.161   5.430 -2.1330  2.0295  0.8093
    9MOL0     H 1208   9.145   7.178   5.559  0.1072 -1.7044 -0.2905
    9MOL0     H 1209   9.027   7.416   5.601  1.5818 -0.3255  1.2889
    9MOL0     H 1210   8.954   7.380   5.441 -2.3898 -5.0339  0.8813
    9MOL0     H 1211   9.256   7.406   5.504 -1.0826 -2.5820  0.7140
    9MOL0     H 1212   9.159   7.534   5.421  1.1083  0.0820  1.4730
    9MOL0     H 1213   9.177   7.236   5.119  4.0084 -0.8884  0.8187
    9MOL0     H 1214   8.755   7.048   5.784 -0.3470  0.5254  5.0266
    9MOL0     H 1215   8.554   7.065   5.928  2.9515  0.3513 -0.1438
   10MOL0     O 1216   1.492   8.755   9.375  0.3769 -0.7121 -0.1939
   10MOL0     C 1217   1.474   8.719   9.259  0.8849 -0.0116  0.0614
   10MOL0     O 1218   1.576   8.686   9.169 -0.2044  0.0651 -0.0058
   10MOL0     C 1219   1.709   8.681   9.206  0.3750 -0.7555  0.1519
   10MOL0     C 1220   1.791   8.739   9.112 -1.2240  0.6761  0.0563
   10MOL0     C 1221   1.934   8.713   9.120  0.2981  0.0285  0.5906
   10MOL0     C 1222   1.983   8.651   9.232 -0.5489  0.2471 -0.7429
   10MOL0     O 1223   2.115   8.620   9.252  0.2437 -0.1492 -0.0050
   10MOL0     C 1224   2.202   8.729   9.258  0.2687 -0.1490 -0.5668
   10MOL0     C 1225   2.178   8.807   9.397  0.9617  0.5314  0.4845
   10MOL0     C 1226   2.292   8.891   9.437  0.0466 -0.2084  1.1417
   10MOL0     C 1227   2.313   9.018   9.350 -0.2411 -0.3449 -1.6281
   10MOL0     C 1228   2.453   9.071   9.394  0.1887  0.2735  0.4911
   10MOL0     C 1229   2.496   9.197   9.322 -0.0826  0.1160  0.5536
   10MOL0     C 1230   2.436   9.324   9.394 -0.6850 -0.0450 -0.5811
   10MOL0     C 1231   2.481   9.456   9.332 -0.2413  0.3925  0.3310
   10MOL0     N 1232   2.445   9.460   9.182  0.3251  0.8589 -0.6352
   10MOL0     C 1233   2.317   9.445   9.131 -0.7459  0.2776 -0.5810
   10MOL0     C 1234   2.329   9.434   8.998 -0.5876 -0.9190  0.7034
   10MOL0     C 1235   2.221   9.406   8.901  0.4591 -0.6389 -0.1806
   10MOL0     C 1236   2.176   9.543   8.842 -0.2820  0.1062 -0.1926
   10MOL0     C 1237   2.090   9.525   8.719  0.3801  0.1659  0.8776
   10MOL0     C 1238   2.018   9.658   8.687  0.7194 -0.2203  0.0603
   10MOL0     O 1239   1.925   9.619   8.582  0.2875 -0.4509 -0.1237
   10MOL0     C 1240   1.855   9.717   8.517 -0.4416 -0.8737 -0.2590
   10MOL0     C 1241   1.805   9.677   8.398  0.0563  0.8910  0.5727
   10MOL0     C 1242   1.735   9.760   8.313 -0.7197  0.4768 -0.1308
   10MOL0     C 1243   1.709   9.704   8.173 -0.8795 -0.3275 -0.3510
   10MOL0     C 1244   1.702   9.889   8.355 -0.6752 -0.1482 -0.6417
   10MOL0     C 1245   1.638   9.984   8.267 -0.6924 -0.5745 -0.6308
   10MOL0     O 1246   1.526   9.949   8.206 -0.2054  0.2930  0.6978
   10MOL0     C 1247   1.473  10.044   8.127  0.2645 -0.4397 -0.2171
   10MOL0     C 1248   1.375  10.131   8.180 -0.2510  0.2057  0.7798
   10MOL0     C 1249   1.289  10.219   8.105 -0.7698 -0.2141  0.1407
   10MOL0     C 1250   1.305  10.217   7.963  0.4554 -0.2785 -1.1223
   10MOL0     O 1251   1.223  10.304   7.881  0.2265  0.1471 -0.0206
   10MOL0     C 1252   1.082  10.313   7.902 -0.4183  0.5748  0.5319
   10MOL0     C 1253   1.037  10.426   7.811 -0.1424 -0.1790 -1.0027
   10MOL0     C 1254   0.894  10.466   7.844 -0.2530  0.3363 -0.8319
   10MOL0     C 1255   0.808  10.537   7.726  0.2876 -0.1773  0.1055
   10MOL0     C 1256   0.789  10.435   7.605 -0.2100 -0.0426 -0.8663
   10MOL0     C 1257   0.701  10.493   7.504  1.2591 -0.2267 -0.9354
   10MOL0     C 1258   0.667  10.394   7.394  0.3417 -1.0402  1.0260
   10MOL0     C 1259   0.597  10.459   7.269  0.1753  0.4208 -0.3576
   10MOL0    Cl 1260   0.427  10.488   7.306 -0.5200 -0.0575  0.0622
   10MOL0     C 1261   1.401  10.132   7.906  0.0605  0.7222  0.6311
   10MOL0     C 1262   1.489  10.051   7.983  0.6287  0.6799  0.6717
   10MOL0     O 1263   1.686  10.092   8.272  0.2750 -0.1643 -0.4311
   10MOL0     C 1264   1.740   9.928   8.490  0.4044  0.3184  1.3487
   10MOL0     C 1265   1.820   9.845   8.561  0.1525 -0.0073  0.1830
   10MOL0     N 1266   2.467   9.448   8.973 -0.4330 -0.0109  1.1508
   10MOL0     N 1267   2.532   9.457   9.085  0.1118 -0.5734  0.6492
   10MOL0     C 1268   1.895   8.600   9.334 -0.0275 -0.2589 -0.3815
   10MOL0     C 1269   1.759   8.617   9.318 -0.3848  0.1334 -0.4520
   10MOL0     C 1270   1.335   8.684   9.207  0.5316 -0.2271 -0.7100
   10MOL0     C 1271   1.322   8.612   9.082 -0.1425 -0.0068 -0.3869
   10MOL0     C 1272   1.200   8.562   9.043  0.4966 -0.6076 -0.0697
   10MOL0     C 1273   1.085   8.572   9.121 -0.1792 -0.2397  0.2414
   10MOL0     O 1274   0.969   8.518   9.069 -0.5741 -0.0096  0.1629
   10MOL0     C 1275   0.846   8.547   9.129  0.2421 -0.2656 -0.8961
   10MOL0     C 1276   0.742   8.549   9.019 -0.4956 -0.5215 -1.1504
   10MOL0     C 1277   0.713   8.395   8.984 -0.9282 -0.7838  0.3866
   10MOL0     C 1278   0.620   8.381   8.872  0.6889 -0.1922  0.0719
   10MOL0     C 1279   0.481   8.437   8.895 -0.5302  0.1315 -0.5972
   10MOL0     C 1280   0.370   8.461   8.929  0.0707 -0.0850 -0.0481
   10MOL0     C 1281   1.096   8.649   9.239 -0.0494 -0.3251  0.5300
   10MOL0     C 1282   1.219   8.705   9.280 -0.3987 -0.6011  0.0558
   10MOL0     H 1283   1.754   8.786   9.021  1.0997 -1.0949 -1.9151
   10MOL0     H 1284   1.999   8.745   9.040 -2.1230 -1.3662 -2.0935
   10MOL0     H 1285   2.307   8.700   9.245  0.8109  1.5548 -0.3290
   10MOL0     H 1286   2.182   8.792   9.171  0.7765  0.2661 -0.3927
   10MOL0     H 1287   2.083   8.860   9.387 -0.4663 -2.3439 -3.3966
   10MOL0     H 1288   2.153   8.729   9.469 -0.1301  0.4819  0.0654
   10MOL0     H 1289   2.282   8.924   9.541  1.2323  2.0300  0.5869
   10MOL0     H 1290   2.378   8.823   9.440 -1.0719 -1.7489  0.2704
   10MOL0     H 1291   2.314   8.987   9.246  1.2276 -2.8162 -0.9566
   10MOL0     H 1292   2.235   9.092   9.371  0.0876 -0.3981 -0.0771
   10MOL0     H 1293   2.457   9.087   9.503 -3.1929 -0.3064  0.7847
   10MOL0     H 1294   2.523   8.988   9.380 -1.1204 -0.9453  0.9284
   10MOL0     H 1295   2.605   9.205   9.328  0.0739 -1.3761  0.0921
   10MOL0     H 1296   2.470   9.192   9.216  0.5321 -1.5917  0.4482
   10MOL0     H 1297   2.327   9.319   9.385 -1.0291 -0.1700  2.5732
   10MOL0     H 1298   2.456   9.330   9.502 -0.2140  0.6623 -0.7071
   10MOL0     H 1299   2.589   9.451   9.343 -0.4242 -0.5957  2.0224
   10MOL0     H 1300   2.428   9.537   9.384 -1.0756 -1.6921  3.0113
   10MOL0     H 1301   2.227   9.429   9.188 -0.6388 -1.1087 -0.7659
   10MOL0     H 1302   2.251   9.335   8.824 -2.5803  0.8086 -2.9249
   10MOL0     H 1303   2.133   9.365   8.950  2.2553 -2.3656  1.8137
   10MOL0     H 1304   2.267   9.592   8.805 -0.7678  0.0857 -1.4452
   10MOL0     H 1305   2.126   9.605   8.918  2.0383  1.7613  0.1148
   10MOL0     H 1306   2.017   9.444   8.728 -0.5650  0.5292 -2.4522
   10MOL0     H 1307   2.158   9.519   8.634 -0.1647  0.1688  0.4337
   10MOL0     H 1308   2.080   9.746   8.666  4.9762 -1.5691  4.9276
   10MOL0     H 1309   1.947   9.684   8.766  0.2215  0.3012 -0.5429
   10MOL0     H 1310   1.827   9.572   8.380 -0.2176  1.2109 -1.9842
   10MOL0     H 1311   1.602   9.710   8.154 -0.8384 -0.2410 -0.5655
   10MOL0     H 1312   1.768   9.770   8.109  1.8270 -0.0618  2.2396
   10MOL0     H 1313   1.741   9.600   8.158 -2.2621 -1.2128  2.3110
   10MOL0     H 1314   1.360  10.126   8.288 -0.7101 -1.7964  0.6535
   10MOL0     H 1315   1.224  10.283   8.163 -2.5839 -1.3606 -0.5204
   10MOL0     H 1316   1.036  10.219   7.868 -0.9858 -1.0101  5.0231
   10MOL0     H 1317   1.053  10.338   8.004  2.8137  1.5262  1.3215
   10MOL0     H 1318   1.107  10.509   7.827  0.6505 -1.2550  1.8757
   10MOL0     H 1319   1.041  10.382   7.711 -1.7338  1.7605 -2.0038
   10MOL0     H 1320   0.906  10.533   7.930  0.7535 -1.8440  0.8351
   10MOL0     H 1321   0.838  10.378   7.876  0.4039 -0.3377 -1.4853
   10MOL0     H 1322   0.708  10.568   7.759 -1.3286 -1.5323 -3.1280
   10MOL0     H 1323   0.857  10.627   7.688  1.9922 -0.2925  1.8531
   10MOL0     H 1324   0.740  10.342   7.636 -0.1180  0.3294  0.4984
   10MOL0     H 1325   0.880  10.402   7.554 -1.4625 -2.6587 -1.6120
   10MOL0     H 1326   0.605  10.532   7.540  2.0338 -1.8565  3.5774
   10MOL0     H 1327   0.755  10.579   7.462  0.8932  0.8904  0.7505
   10MOL0     H 1328   0.606  10.311   7.432 -0.0357 -1.5002 -0.5190
   10MOL0     H 1329   0.766  10.357   7.366 -0.1257 -0.8416 -1.0258
   10MOL0     H 1330   0.602  10.390   7.185  1.0676 -0.6952  0.5844
   10MOL0     H 1331   0.641  10.557   7.247  0.5770  1.0531  2.7449
   10MOL0     H 1332   1.414  10.136   7.798 -0.9322  1.8731  0.5280
   10MOL0     H 1333   1.571  10.000   7.933 -1.2375 -1.4352 -0.4047
   10MOL0     H 1334   1.730  10.030   8.527  2.3655  0.9943  0.1723
   10MOL0     H 1335   1.848   9.893   8.654 -0.2958  0.2612  0.1842
   10MOL0     H 1336   1.931   8.537   9.415 -1.5758  0.2894  0.7931
   10MOL0     H 1337   1.678   8.588   9.384  0.6940  1.8630  1.7590
   10MOL0     H 1338   1.405   8.580   9.019  0.3818  2.7815 -1.2232
   10MOL0     H 1339   1.196   8.509   8.948  2.3245  0.1885 -0.6181
   10MOL0     H 1340   0.820   8.479   9.211  0.7527 -0.7134 -1.0958
   10MOL0     H 1341   0.847   8.648   9.171  1.7684  0.2898 -2.1703
   10MOL0     H 1342   0.779   8.610   8.935 -1.0298  1.0644 -0.2674
   10MOL0     H 1343   0.649   8.603   9.037 -0.5449 -0.9349 -0.1119
   10MOL0     H 1344   0.678   8.342   9.073 -0.1766 -2.3743 -0.2285
   10MOL0     H 1345   0.805   8.345   8.953  1.1826  3.7392 -1.5067
   10MOL0     H 1346   0.606   8.276   8.843 -0.1512 -0.2594  0.6989
   10MOL0     H 1347   0.654   8.436   8.784 -0.8152  0.1814 -0.2997
   10MOL0     H 1348   0.267   8.483   8.949  0.5377  1.8314  0.4731
   10MOL0     H 1349   1.010   8.654   9.305 -0.5095 -2.5668  0.1883
   10MOL0     H 1350   1.219   8.750   9.379 -1.3225  1.4317 -0.8105
   11MOL0     O 1351   8.744   3.361   2.390  0.2552 -0.2505  0.1336
   11MOL0     C 1352   8.790   3.461   2.335 -0.0319 -0.2240 -0.2990
   11MOL0     O 1353   8.718   3.566   2.303 -0.1021  0.1204  0.1274
   11MOL0     C 1354   8.585   3.569   2.328 -0.0229 -0.6573 -0.7736
   11MOL0     C 1355   8.520   3.640   2.436 -0.1024  0.6362  1.0948
   11MOL0     C 1356   8.384   3.638   2.459  0.1251  0.4778 -0.0845
   11MOL0     C 1357   8.308   3.546   2.389 -0.6624 -0.3293  0.6261
   11MOL0     O 1358   8.176   3.512   2.412  0.0185  0.6772  0.0260
   11MOL0     C 1359   8.096   3.580   2.516  0.0505 -0.3296 -0.6789
   11MOL0     C 1360   7.989   3.478   2.552 -0.3508 -0.4013  0.3280
   11MOL0     C 1361   8.044   3.346   2.605 -0.1024  0.2616 -0.1905
   11MOL0     C 1362   7.930   3.248   2.618  0.9624  0.1997  0.3439
   11MOL0     C 1363   7.968   3.130   2.702  0.5534 -0.9479 -0.8135
   11MOL0     C 1364   7.852   3.042   2.705 -0.7017  0.1065 -0.0147
   11MOL0     C 1365   7.882   2.916   2.781  0.2246 -0.0029 -0.2500
   11MOL0     C 1366   7.817   2.803   2.709 -0.0215 -0.4811  0.9783
   11MOL0     N 1367   7.758   2.714   2.807 -0.9978  1.0930 -0.0495
   11MOL0     C 1368   7.826   2.611   2.868  0.3515  0.6433  0.3745
   11MOL0     C 1369   7.741   2.551   2.955 -0.1928  0.1467  0.0929
   11MOL0     C 1370   7.757   2.438   3.051 -0.5688 -0.1784 -0.6084
   11MOL0     C 1371   7.804   2.310   2.981 -0.1810  1.0165 -1.1146
   11MOL0     C 1372   7.715   2.257   2.868  0.3561  0.1587 -0.3527
   11MOL0     C 1373   7.572   2.233   2.902 -0.3433  0.2486 -0.0155
   11MOL0     O 1374   7.520   2.118   2.839  0.3812  0.1652  0.6003
   11MOL0     C 1375   7.383   2.102   2.826 -0.2597 -0.0107  0.0587
   11MOL0     C 1376   7.353   1.998   2.746  0.9738  0.5096  1.3228
   11MOL0     C 1377   7.218   1.957   2.708  0.1680  0.6211 -0.6363
   11MOL0     C 1378   7.216   1.841   2.614 -0.8302  0.0504 -1.2858
   11MOL0     C 1379   7.110   2.024   2.779  0.8498  0.6649 -0.5868
   11MOL0     C 1380   6.977   1.975   2.767  0.5075  0.6029 -0.5729
   11MOL0     O 1381   6.903   2.018   2.877 -0.6949  0.0059  0.0905
   11MOL0     C 1382   6.772   1.978   2.879  0.1282  0.4108 -0.0127
   11MOL0     C 1383   6.676   2.038   2.795 -0.0807  0.7226  0.1952
   11MOL0     C 1384   6.538   2.009   2.793 -0.8777 -0.4689 -0.4732
   11MOL0     C 1385   6.492   1.908   2.874  0.5275  0.3039  0.3500
   11MOL0     O 1386   6.355   1.873   2.886  0.1674 -0.4957 -0.1505
   11MOL0     C 1387   6.256   1.967   2.830 -0.0127 -0.1863 -0.7019
   11MOL0     C 1388   6.116   1.897   2.849  0.7612  0.5389  0.4484
   11MOL0     C 1389   6.091   1.766   2.784  0.3110 -0.1726 -0.0747
   11MOL0     C 1390   6.088   1.768   2.630  0.1893 -0.8639 -0.0685
   11MOL0     C 1391   6.075   1.629   2.572 -0.0135  0.3890 -0.2488
   11MOL0     C 1392   6.046   1.641   2.427 -0.0187 -0.7398 -0.6017
   11MOL0     C 1393   6.028   1.507   2.362 -0.1066 -0.2821  0.9288
   11MOL0     C 1394   6.057   1.520   2.209 -0.2873 -0.4262  0.1927
   11MOL0    Cl 1395   5.981   1.399   2.109  0.1114  0.0370 -0.2505
   11MOL0     C 1396   6.587   1.840   2.952 -0.4095 -0.6343 -0.0968
   11MOL0     C 1397   6.722   1.874   2.956 -0.0975 -0.3176  0.0772
   11MOL0     O 1398   6.935   1.919   2.670  0.7833  0.7993  0.3643
   11MOL0     C 1399   7.147   2.135   2.855 -0.4533 -0.2513  0.2447
   11MOL0     C 1400   7.277   2.177   2.884 -0.3244 -0.3952  0.2001
   11MOL0     N 1401   7.623   2.625   2.944 -0.1572 -0.6161  0.1630
   11MOL0     N 1402   7.640   2.720   2.861  0.2884 -0.1313  0.8311
   11MOL0     C 1403   8.362   3.480   2.281 -0.6286  0.0062  0.6977
   11MOL0     C 1404   8.501   3.495   2.244 -0.7115 -0.0311 -0.0660
   11MOL0     C 1405   8.929   3.471   2.307 -0.3992  0.9258  1.0025
   11MOL0     C 1406   9.000   3.580   2.255 -0.3922 -0.1387  0.4725
   11MOL0     C 1407   9.135   3.579   2.219  0.2857 -0.1645 -0.0475
   11MOL0     C 1408   9.211   3.464   2.241 -1.1915 -0.6231  0.1986
   11MOL0     O 1409   9.337   3.435   2.197 -0.2982  0.4949 -0.4080
   11MOL0     C 1410   9.408   3.543   2.130  0.8581 -0.3807 -1.4046
   11MOL0     C 1411   9.552   3.483   2.108  0.3013 -1.2309  0.5283
   11MOL0     C 1412   9.563   3.347   2.028 -0.0082 -0.3377 -0.3791
   11MOL0     C 1413   9.523   3.226   2.108 -0.0897 -0.3298  0.2760
   11MOL0     C 1414   9.394   3.172   2.075 -0.2699 -0.7028 -0.2024
   11MOL0     C 1415   9.287   3.117   2.052 -0.0302  0.4792 -0.0691
   11MOL0     C 1416   9.150   3.354   2.303 -0.6486 -1.0461  0.4191
   11MOL0     C 1417   9.014   3.355   2.331 -0.3609 -0.2208 -0.4661
   11MOL0     H 1418   8.585   3.715   2.479  0.9527  1.0333 -1.0881
   11MOL0     H 1419   8.345   3.698   2.540  0.6372  1.6852 -0.6998
   11MOL0     H 1420   8.144   3.602   2.612 -0.3518  0.3598 -0.6239
   11MOL0     H 1421   8.043   3.669   2.480  1.8458  0.9156 -0.4083
   11MOL0     H 1422   7.928   3.527   2.629  0.8239 -2.6566  2.8751
   11MOL0     H 1423   7.930   3.463   2.462 -0.3934 -0.2560  0.3312
   11MOL0     H 1424   8.115   3.298   2.537 -1.5950  1.7927 -3.0418
   11MOL0     H 1425   8.097   3.365   2.699  2.3444 -1.0595 -1.2136
   11MOL0     H 1426   7.841   3.299   2.655  1.3410  0.8743  0.3266
   11MOL0     H 1427   7.908   3.215   2.516 -0.6000  0.9775  0.4063
   11MOL0     H 1428   8.062   3.100   2.654  1.0315 -0.3529 -0.2608
   11MOL0     H 1429   7.994   3.160   2.804  2.6467  0.3259 -1.6755
   11MOL0     H 1430   7.768   3.101   2.742  0.9779  1.9266  1.1264
   11MOL0     H 1431   7.846   3.021   2.598 -0.2873 -0.9709  0.1614
   11MOL0     H 1432   7.988   2.889   2.785  0.4018  0.7850  1.0160
   11MOL0     H 1433   7.845   2.931   2.883 -4.3019 -2.7189 -1.2302
   11MOL0     H 1434   7.887   2.748   2.645 -1.0104 -2.0838  1.1922
   11MOL0     H 1435   7.747   2.846   2.637  1.4671  1.2365  0.4952
   11MOL0     H 1436   7.918   2.565   2.834 -0.3135 -0.4744  0.0727
   11MOL0     H 1437   7.830   2.475   3.123 -1.5100 -1.3135  0.9973
   11MOL0     H 1438   7.658   2.432   3.098 -2.6554 -4.0255 -4.6940
   11MOL0     H 1439   7.796   2.230   3.055 -4.4556  2.0692 -0.2014
   11MOL0     H 1440   7.909   2.312   2.948  0.2731  1.7903  0.3040
   11MOL0     H 1441   7.753   2.158   2.841  0.2845  0.1124 -0.2825
   11MOL0     H 1442   7.728   2.324   2.783 -0.0529  1.4872  0.5916
   11MOL0     H 1443   7.504   2.314   2.875 -1.1953 -0.1175  0.9992
   11MOL0     H 1444   7.580   2.216   3.010  0.7900 -0.5831 -0.2065
   11MOL0     H 1445   7.434   1.938   2.706  0.6331  0.7323  0.2748
   11MOL0     H 1446   7.154   1.872   2.529 -0.9695  3.0316 -0.1946
   11MOL0     H 1447   7.316   1.834   2.569 -0.2843  1.6452 -0.4142
   11MOL0     H 1448   7.190   1.748   2.665 -0.6139  1.1935  1.0463
   11MOL0     H 1449   6.701   2.125   2.735  0.1234  0.0090 -0.7963
   11MOL0     H 1450   6.480   2.071   2.726  1.1445  0.4638 -1.4590
   11MOL0     H 1451   6.273   2.064   2.878 -1.5654  0.7431 -1.9181
   11MOL0     H 1452   6.274   1.986   2.723 -1.2376 -0.9214 -1.0585
   11MOL0     H 1453   6.080   1.906   2.952 -0.4973 -1.9306  0.3079
   11MOL0     H 1454   6.049   1.961   2.791 -1.6470 -3.7521 -1.9822
   11MOL0     H 1455   5.990   1.735   2.813 -0.5249  3.4181  1.3888
   11MOL0     H 1456   6.164   1.690   2.814 -0.4573 -1.3441 -1.0932
   11MOL0     H 1457   6.003   1.832   2.605 -0.1648 -2.2580 -2.7084
   11MOL0     H 1458   6.178   1.819   2.596 -1.4725  1.7610 -0.8572
   11MOL0     H 1459   5.988   1.583   2.620  0.1442  1.7034  1.4053
   11MOL0     H 1460   6.162   1.565   2.588 -2.4677 -3.1917  0.0430
   11MOL0     H 1461   5.959   1.704   2.408 -0.3832 -0.2384  2.2471
   11MOL0     H 1462   6.145   1.678   2.398  1.6725 -2.2381  2.6879
   11MOL0     H 1463   5.926   1.468   2.365  0.3434 -1.5924  0.2334
   11MOL0     H 1464   6.098   1.435   2.405  3.1512  3.0778  1.7454
   11MOL0     H 1465   6.166   1.522   2.195 -0.1145  2.0015  1.4121
   11MOL0     H 1466   6.012   1.610   2.166  0.0886 -0.9123 -1.2765
   11MOL0     H 1467   6.557   1.766   3.026 -1.0020 -0.5550 -0.2517
   11MOL0     H 1468   6.784   1.828   3.032 -2.5797  1.2598  3.2941
   11MOL0     H 1469   7.071   2.190   2.909 -0.1864  1.3805 -0.9585
   11MOL0     H 1470   7.294   2.266   2.943 -3.0189 -0.1353  0.6928
   11MOL0     H 1471   8.311   3.399   2.232 -0.2262 -1.5105  2.6401
   11MOL0     H 1472   8.542   3.433   2.164  2.3993  0.1809  1.2250
   11MOL0     H 1473   8.952   3.674   2.229 -1.5085 -1.4963 -2.9579
   11MOL0     H 1474   9.166   3.677   2.185 -0.2286  1.4393  3.6211
   11MOL0     H 1475   9.350   3.578   2.044  2.1253  2.0059 -1.3646
   11MOL0     H 1476   9.423   3.625   2.201  2.2239 -0.9602 -1.0004
   11MOL0     H 1477   9.584   3.476   2.212 -2.0696  0.7796  1.5035
   11MOL0     H 1478   9.609   3.556   2.049 -0.0280 -2.5341 -1.4904
   11MOL0     H 1479   9.669   3.332   2.005  0.1102  0.0187 -0.0538
   11MOL0     H 1480   9.516   3.354   1.930 -0.4021  1.9824 -0.0670
   11MOL0     H 1481   9.514   3.258   2.213 -3.6210 -1.2466  0.3608
   11MOL0     H 1482   9.596   3.148   2.086  0.3701  0.2177 -0.1645
   11MOL0     H 1483   9.203   3.058   2.024 -1.4980  1.4738  1.9440
   11MOL0     H 1484   9.206   3.262   2.313  3.5928  0.9650 -1.9478
   11MOL0     H 1485   8.957   3.270   2.366 -1.1093 -0.5648 -2.4412
   12MOL0     O 1486   3.371  10.204   1.554 -0.0716  0.2398  0.0707
   12MOL0     C 1487   3.443  10.129   1.482  0.2611 -0.3070  0.5691
   12MOL0     O 1488   3.405  10.005   1.439  0.0750 -0.7540 -0.7885
   12MOL0     C 1489   3.287   9.956   1.482 -0.1551  0.6831 -0.0209
   12MOL0     C 1490   3.283   9.885   1.604  0.0178 -0.5393 -0.2540
   12MOL0     C 1491   3.166   9.830   1.654 -0.2652 -0.0955  0.1094
   12MOL0     C 1492   3.046   9.846   1.582  0.4340 -0.3078  0.0144
   12MOL0     O 1493   2.922   9.811   1.633 -0.7260  0.2833 -0.2666
   12MOL0     C 1494   2.848   9.920   1.690  0.1179  0.2657  1.0042
   12MOL0     C 1495   2.706   9.864   1.665  0.3384  0.2488  0.1031
   12MOL0     C 1496   2.600   9.954   1.717 -0.5031 -0.1841  0.3388
   12MOL0     C 1497   2.473   9.892   1.709  0.7480 -0.2362 -0.6059
   12MOL0     C 1498   2.353   9.986   1.752 -0.5805 -0.0653  0.4778
   12MOL0     C 1499   2.228   9.918   1.804  0.4017 -0.0985 -0.1073
   12MOL0     C 1500   2.131  10.022   1.877 -0.4155  0.1368 -0.4574
   12MOL0     C 1501   2.060  10.117   1.774 -0.1505  0.8281 -1.3455
   12MOL0     N 1502   1.959  10.204   1.837  0.0637 -0.8016  0.7800
   12MOL0     C 1503   1.827  10.193   1.824 -1.2135  0.8184  0.0971
   12MOL0     C 1504   1.776  10.287   1.898 -0.8010 -0.3472  0.2700
   12MOL0     C 1505   1.633  10.320   1.907  1.1271 -0.1628 -0.2899
   12MOL0     C 1506   1.540  10.198   1.914  1.1962  0.7190  0.1028
   12MOL0     C 1507   1.395  10.224   1.885  0.3006  0.1851  0.1687
   12MOL0     C 1508   1.337  10.359   1.930  0.8387 -0.5889  0.1247
   12MOL0     O 1509   1.197  10.347   1.965 -0.1306  0.3121  0.2947
   12MOL0     C 1510   1.098  10.337   1.873  0.6892  0.0545 -0.8543
   12MOL0     C 1511   0.966  10.341   1.929 -0.6181  0.3746  0.5187
   12MOL0     C 1512   0.853  10.330   1.850  0.5904  0.2172  0.4690
   12MOL0     C 1513   0.723  10.335   1.927 -0.5125 -0.4250 -0.6823
   12MOL0     C 1514   0.859  10.336   1.709  0.3981  0.6367 -0.4102
   12MOL0     C 1515   0.746  10.323   1.610  0.7103 -0.0531  0.6985
   12MOL0     O 1516   0.774  10.363   1.478 -0.4195 -0.6112  0.8693
   12MOL0     C 1517   0.670  10.392   1.388 -0.8639 -0.2166 -0.4257
   12MOL0     C 1518   0.695  10.387   1.253  1.0382  0.0090 -0.0215
   12MOL0     C 1519   0.591  10.422   1.160  0.0420  1.1674  0.1369
   12MOL0     C 1520   0.463  10.476   1.208 -1.1166 -0.6981  0.5412
   12MOL0     O 1521   0.359  10.517   1.127  0.2113  0.3284  0.0447
   12MOL0     C 1522   0.373  10.498   0.981 -0.0082  0.7776 -0.4342
   12MOL0     C 1523   0.236  10.516   0.916  0.3245 -0.8193  0.5334
   12MOL0     C 1524   0.261  10.497   0.768  0.5461  0.2782 -0.2739
   12MOL0     C 1525   0.136  10.522   0.697 -0.1062 -0.1589 -0.2649
   12MOL0     C 1526   0.149  10.498   0.545  0.2387 -0.2491 -0.4657
   12MOL0     C 1527   0.139  10.351   0.513  0.1908  0.1147 -0.0312
   12MOL0     C 1528   0.148  10.320   0.362 -0.3247 -0.3419 -0.3675
   12MOL0     C 1529   0.275  10.359   0.293 -0.7534 -0.8606  0.7064
   12MOL0    Cl 1530   0.420  10.285   0.373 -0.0514  0.2078  0.1924
   12MOL0     C 1531   0.447  10.491   1.345  0.1343  0.9549  0.4827
   12MOL0     C 1532   0.550  10.458   1.433  0.2784  0.7585 -0.1200
   12MOL0     O 1533   0.638  10.280   1.646 -0.9975 -0.0130 -0.0267
   12MOL0     C 1534   0.995  10.339   1.656 -0.8760 -0.6786  0.0371
   12MOL0     C 1535   1.112  10.343   1.737 -0.3150 -0.3457 -0.2178
   12MOL0     N 1536   1.880  10.370   1.943 -0.6167 -0.9022  0.1085
   12MOL0     N 1537   1.991  10.309   1.914 -0.1412  0.6569 -0.3939
   12MOL0     C 1538   3.047   9.914   1.462 -0.1264  0.3940  0.3006
   12MOL0     C 1539   3.168   9.973   1.412 -0.0255  0.4463  0.4637
   12MOL0     C 1540   3.565  10.191   1.415  0.1643  1.1610 -0.2156
   12MOL0     C 1541   3.608  10.316   1.446  0.7651  0.0949 -0.0546
   12MOL0     C 1542   3.709  10.367   1.372 -0.8836  1.1580  0.0512
   12MOL0     C 1543   3.780  10.284   1.284 -0.7780 -0.1523 -0.3511
   12MOL0     O 1544   3.889  10.328   1.215 -0.4967  0.5896  0.0211
   12MOL0     C 1545   4.014  10.345   1.294 -0.1449 -0.9609 -0.3552
   12MOL0     C 1546   4.130  10.411   1.224  0.0327 -0.1669 -0.1263
   12MOL0     C 1547   4.182  10.326   1.099 -0.0789 -0.3774  0.8741
   12MOL0     C 1548   4.283  10.409   1.013  0.2573 -1.1529  1.0644
   12MOL0     C 1549   4.368  10.327   0.941 -0.6325  0.4936  0.3122
   12MOL0     C 1550   4.456  10.260   0.892  0.2335  0.0867 -0.2310
   12MOL0     C 1551   3.740  10.156   1.266  0.7484 -0.4213  0.5718
   12MOL0     C 1552   3.638  10.105   1.333 -0.1505  0.8221 -0.6575
   12MOL0     H 1553   3.379   9.881   1.655  0.5703  2.1025 -0.9257
   12MOL0     H 1554   3.162   9.774   1.746 -2.8875 -0.2369 -0.0105
   12MOL0     H 1555   2.875   9.935   1.795  2.1807  0.3068  0.5237
   12MOL0     H 1556   2.857  10.016   1.639 -0.2414 -0.3732 -0.3152
   12MOL0     H 1557   2.685   9.864   1.558 -0.8294  0.2657  0.3182
   12MOL0     H 1558   2.695   9.758   1.688 -1.4026  0.0368 -1.4305
   12MOL0     H 1559   2.624   9.983   1.820  1.0565 -0.0704 -0.0315
   12MOL0     H 1560   2.594  10.050   1.664  2.1614 -0.7981 -1.2712
   12MOL0     H 1561   2.445   9.853   1.610 -1.9635 -0.4037  0.1290
   12MOL0     H 1562   2.477   9.813   1.784 -0.2903 -1.7684 -2.0890
   12MOL0     H 1563   2.390  10.050   1.833  0.1378 -0.6342  0.6085
   12MOL0     H 1564   2.323  10.051   1.670 -1.8548  1.0446  1.7656
   12MOL0     H 1565   2.170   9.878   1.720  0.1726  1.3800 -0.6840
   12MOL0     H 1566   2.263   9.836   1.867 -0.5773  0.3978  1.0989
   12MOL0     H 1567   2.052   9.968   1.930  2.0607 -0.0547  3.4810
   12MOL0     H 1568   2.190  10.079   1.950 -3.8355 -0.5190  3.1932
   12MOL0     H 1569   2.022  10.049   1.697 -2.0532 -2.7271  2.3189
   12MOL0     H 1570   2.130  10.179   1.718 -0.4759  2.2409 -0.2615
   12MOL0     H 1571   1.775  10.120   1.764  1.5990 -1.8289  0.5992
   12MOL0     H 1572   1.613  10.396   1.982  1.2147 -1.4212  1.0656
   12MOL0     H 1573   1.616  10.355   1.805  0.6053 -4.2656 -1.8035
   12MOL0     H 1574   1.535  10.168   2.019 -0.7577  1.8553  0.3776
   12MOL0     H 1575   1.585  10.105   1.878 -2.3040 -1.9674  2.0486
   12MOL0     H 1576   1.331  10.150   1.933 -0.6978 -0.3443 -1.8570
   12MOL0     H 1577   1.374  10.223   1.778  2.2558  0.8868 -0.2580
   12MOL0     H 1578   1.358  10.431   1.850  0.2250 -0.8161 -0.2554
   12MOL0     H 1579   1.385  10.397   2.020 -1.5579  2.2550  0.3863
   12MOL0     H 1580   0.963  10.332   2.037 -2.1612 -2.6829  0.3382
   12MOL0     H 1581   0.641  10.388   1.878 -1.2665 -1.7854 -0.9388
   12MOL0     H 1582   0.700  10.228   1.934 -2.3902  0.0619  1.5170
   12MOL0     H 1583   0.743  10.379   2.025 -2.0409 -1.2816  0.0389
   12MOL0     H 1584   0.790  10.337   1.240  0.4281 -1.1669 -0.0938
   12MOL0     H 1585   0.615  10.420   1.054  0.0875  2.7848  0.0833
   12MOL0     H 1586   0.435  10.581   0.947  0.2948  1.8304  2.4794
   12MOL0     H 1587   0.419  10.403   0.953  1.4047  1.1149  0.6742
   12MOL0     H 1588   0.174  10.433   0.952  1.3588 -2.3452 -1.0598
   12MOL0     H 1589   0.196  10.616   0.933 -0.3695 -0.9367 -0.3843
   12MOL0     H 1590   0.291  10.394   0.744  0.1621  0.3162 -0.9380
   12MOL0     H 1591   0.344  10.560   0.737  0.2940  1.2054  0.8688
   12MOL0     H 1592   0.051  10.464   0.736  2.0141 -3.2647  0.0318
   12MOL0     H 1593   0.110  10.629   0.703 -4.2257 -0.6454 -4.1023
   12MOL0     H 1594   0.243  10.545   0.514 -0.8222  1.8602 -0.6579
   12MOL0     H 1595   0.059  10.539   0.498  1.0800 -0.2085 -2.1231
   12MOL0     H 1596   0.211  10.296   0.574  1.7104  3.1746  1.1477
   12MOL0     H 1597   0.038  10.319   0.542 -0.6808  0.1603 -2.7378
   12MOL0     H 1598   0.065  10.366   0.308 -0.3226 -1.0305 -0.9691
   12MOL0     H 1599   0.138  10.213   0.342 -0.1010 -0.0677 -2.0698
   12MOL0     H 1600   0.295  10.466   0.299 -0.6072 -0.9112  1.1688
   12MOL0     H 1601   0.261  10.330   0.189  3.0240  0.6022 -0.3796
   12MOL0     H 1602   0.358  10.538   1.386  0.2401  2.1048 -0.5607
   12MOL0     H 1603   0.540  10.461   1.541 -1.6548 -2.5502 -0.0527
   12MOL0     H 1604   1.002  10.337   1.548 -1.4908  0.8577 -0.0627
   12MOL0     H 1605   1.213  10.353   1.699  0.2866 -2.1299  0.7824
   12MOL0     H 1606   2.956   9.917   1.404 -0.2311 -2.8133  0.1149
   12MOL0     H 1607   3.174  10.035   1.322  1.8556  1.4177  1.1971
   12MOL0     H 1608   3.556  10.384   1.513  1.2372 -0.3315  0.7576
   12MOL0     H 1609   3.744  10.470   1.371 -0.4313  1.1731 -4.6263
   12MOL0     H 1610   3.988  10.417   1.372  1.4782 -1.4850  0.7353
   12MOL0     H 1611   4.048  10.254   1.345 -0.2946  0.1426  1.8557
   12MOL0     H 1612   4.212  10.439   1.290  0.1276 -1.1934  0.2051
   12MOL0     H 1613   4.084  10.504   1.189 -2.4910  0.7578  4.8223
   12MOL0     H 1614   4.103  10.274   1.044 -0.0581 -1.3506  1.7328
   12MOL0     H 1615   4.244  10.248   1.144 -2.5485 -2.4028  1.0150
   12MOL0     H 1616   4.341  10.480   1.073 -2.9103  0.3590  2.6252
   12MOL0     H 1617   4.236  10.487   0.951  0.8414  0.5403  2.6760
   12MOL0     H 1618   4.537  10.214   0.838 -1.1338 -3.7205  0.6486
   12MOL0     H 1619   3.797  10.102   1.191  4.0149  2.4424  0.7468
   12MOL0     H 1620   3.617  10.002   1.303  2.5060  0.1245 -0.4160
   13MOL0     O 1621  10.393   4.041   2.620  0.1864 -0.0869  0.3301
   13MOL0     C 1622  10.406   4.161   2.630 -0.8173 -0.0741 -0.3301
   13MOL0     O 1623  10.313   4.255   2.592 -0.1618  0.0260 -0.3915
   13MOL0     C 1624  10.192   4.204   2.549  0.0560 -0.4183 -0.6102
   13MOL0     C 1625  10.083   4.193   2.644  0.5697 -0.3686  0.3267
   13MOL0     C 1626   9.955   4.143   2.603 -0.3650 -1.2094 -0.1840
   13MOL0     C 1627   9.942   4.099   2.472 -0.2968  0.9473 -0.5840
   13MOL0     O 1628   9.815   4.057   2.449 -0.3490  0.0619  0.4993
   13MOL0     C 1629   9.776   3.998   2.326 -0.4794 -0.2036 -0.6824
   13MOL0     C 1630   9.645   3.912   2.357  0.4659 -0.3536 -0.2358
   13MOL0     C 1631   9.527   4.003   2.390  0.1534 -0.3187 -0.0735
   13MOL0     C 1632   9.411   3.916   2.446  0.3783  0.7387  0.8895
   13MOL0     C 1633   9.274   3.976   2.470  0.3932 -0.6621 -0.1143
   13MOL0     C 1634   9.164   3.872   2.481  0.1960 -0.7017  1.0411
   13MOL0     C 1635   9.031   3.954   2.471  0.6219  0.7944 -0.3579
   13MOL0     C 1636   8.995   4.006   2.614  0.3013 -0.2685 -0.2253
   13MOL0     N 1637   8.850   3.983   2.633 -0.5440 -0.7044  0.8048
   13MOL0     C 1638   8.816   3.892   2.730  0.6239  0.2223  0.2118
   13MOL0     C 1639   8.677   3.902   2.737  0.2930 -0.0532  0.6103
   13MOL0     C 1640   8.596   3.821   2.839 -0.0393  0.0996  0.9411
   13MOL0     C 1641   8.557   3.884   2.967  0.6349  0.4009 -0.5008
   13MOL0     C 1642   8.679   3.919   3.051  0.7204  0.0490  0.3311
   13MOL0     C 1643   8.655   3.941   3.201 -0.1595  0.3673  0.2761
   13MOL0     O 1644   8.583   3.841   3.268  0.4006  1.2769 -0.5213
   13MOL0     C 1645   8.446   3.856   3.274 -0.1193  0.0102  0.4406
   13MOL0     C 1646   8.382   3.747   3.317  0.0002  0.1637  0.8302
   13MOL0     C 1647   8.237   3.744   3.333 -0.5774  0.7548  0.1921
   13MOL0     C 1648   8.183   3.617   3.389  0.3845  0.8999 -0.1545
   13MOL0     C 1649   8.162   3.860   3.294 -0.0194  0.5789 -0.3865
   13MOL0     C 1650   8.015   3.867   3.285  0.0056 -0.6437 -0.5503
   13MOL0     O 1651   7.957   3.945   3.376 -0.0949 -0.3206 -0.4511
   13MOL0     C 1652   7.817   3.945   3.388 -0.0191 -0.2573  0.4771
   13MOL0     C 1653   7.769   3.858   3.483  0.3184 -0.3835  1.7022
   13MOL0     C 1654   7.633   3.855   3.509 -0.2857 -0.0695  0.7543
   13MOL0     C 1655   7.546   3.938   3.438  0.2571  0.8497  0.5751
   13MOL0     O 1656   7.415   3.933   3.482  0.2286  0.0649  0.1743
   13MOL0     C 1657   7.314   3.985   3.397 -0.1861  0.0203 -0.2081
   13MOL0     C 1658   7.181   3.934   3.441 -0.6144  0.0636 -0.0460
   13MOL0     C 1659   7.100   3.931   3.317  0.4543 -0.4722 -0.0024
   13MOL0     C 1660   6.943   3.934   3.354 -0.4492  0.0894 -0.2576
   13MOL0     C 1661   6.845   3.933   3.235  1.3327  0.3967 -1.1058
   13MOL0     C 1662   6.840   4.070   3.168  0.7164 -0.7011 -0.5048
   13MOL0     C 1663   6.738   4.076   3.051 -0.0584 -0.6905  0.3230
   13MOL0     C 1664   6.779   4.001   2.926 -0.6214 -0.2047  0.0436
   13MOL0    Cl 1665   6.921   4.068   2.846 -0.2462 -0.3014  0.0684
   13MOL0     C 1666   7.601   4.032   3.341 -0.2678 -0.0678 -0.1013
   13MOL0     C 1667   7.739   4.040   3.321 -0.1320  0.0202 -0.0069
   13MOL0     O 1668   7.958   3.806   3.195  0.4630  0.4826 -0.4722
   13MOL0     C 1669   8.227   3.975   3.256  0.2366  0.2107  0.5753
   13MOL0     C 1670   8.367   3.977   3.247  0.3216  1.1922  0.5231
   13MOL0     N 1671   8.643   4.006   2.642  0.6078 -0.1563  0.2522
   13MOL0     N 1672   8.745   4.057   2.582 -0.0220 -0.2388 -0.5127
   13MOL0     C 1673  10.043   4.116   2.379 -0.2567  0.5133 -0.1719
   13MOL0     C 1674  10.166   4.165   2.418 -0.6064 -0.5692 -0.2307
   13MOL0     C 1675  10.543   4.210   2.672  0.5938  0.3606 -0.7481
   13MOL0     C 1676  10.662   4.129   2.677  0.7103  0.1717  0.5608
   13MOL0     C 1677  10.780   4.178   2.716 -0.0214 -0.4196 -0.9042
   13MOL0     C 1678  10.792   4.313   2.752 -0.0725  0.6352 -0.2171
   13MOL0     O 1679  10.910   4.373   2.787  0.0358  0.6973 -0.0772
   13MOL0     C 1680  11.035   4.310   2.790  0.1409 -0.1795 -0.0564
   13MOL0     C 1681  11.104   4.277   2.650  0.7663  0.2962 -0.1857
   13MOL0     C 1682  11.237   4.195   2.648  0.8838 -0.0605  0.5640
   13MOL0     C 1683  11.355   4.250   2.712  0.0500 -0.1518 -0.4309
   13MOL0     C 1684  11.437   4.134   2.744 -0.7906  0.6192  0.7135
   13MOL0     C 1685  11.512   4.038   2.746  0.5046  0.2498 -0.3436
   13MOL0     C 1686  10.681   4.397   2.761 -0.2381  0.2191  0.8392
   13MOL0     C 1687  10.559   4.340   2.717  0.8241 -0.9687  0.1166
   13MOL0     H 1688  10.090   4.228   2.746 -0.0890 -0.2654  0.3392
   13MOL0     H 1689   9.865   4.127   2.661 -0.1924 -2.8979 -0.3145
   13MOL0     H 1690   9.760   4.070   2.245  1.8202 -1.1062 -2.0117
   13MOL0     H 1691   9.862   3.942   2.288 -0.4083  0.8915 -2.2681
   13MOL0     H 1692   9.627   3.843   2.274  1.6884 -0.1112 -0.7140
   13MOL0     H 1693   9.665   3.848   2.443 -0.6509 -1.9255 -1.0722
   13MOL0     H 1694   9.546   4.084   2.461 -1.4189 -1.9116  2.3005
   13MOL0     H 1695   9.486   4.046   2.298  2.2791 -2.0082 -1.9127
   13MOL0     H 1696   9.394   3.843   2.367 -2.8170  1.7523  0.5103
   13MOL0     H 1697   9.446   3.866   2.537 -0.0593  1.5891  1.5436
   13MOL0     H 1698   9.275   4.030   2.565  1.4907 -2.8522  1.1989
   13MOL0     H 1699   9.242   4.041   2.389  4.6404  0.2672 -1.2774
   13MOL0     H 1700   9.189   3.808   2.396  1.3242 -0.1611  0.9445
   13MOL0     H 1701   9.167   3.805   2.567 -1.6382 -2.6405 -0.2956
   13MOL0     H 1702   9.032   4.034   2.397 -1.4627 -1.0092 -2.4829
   13MOL0     H 1703   8.953   3.884   2.440  1.5005 -0.3088 -0.1611
   13MOL0     H 1704   9.012   4.114   2.605  0.2672 -0.1943  0.6001
   13MOL0     H 1705   9.053   3.961   2.694 -0.1205 -0.0861  0.1861
   13MOL0     H 1706   8.881   3.826   2.786 -1.1116 -2.1385 -0.3565
   13MOL0     H 1707   8.505   3.790   2.787  1.4343 -2.0003 -0.5676
   13MOL0     H 1708   8.652   3.730   2.863  1.0854  1.2340  2.8779
   13MOL0     H 1709   8.505   3.808   3.026  0.7222 -0.6842 -1.7674
   13MOL0     H 1710   8.493   3.968   2.941 -1.1146 -1.2603 -1.8928
   13MOL0     H 1711   8.719   4.013   3.011 -0.0479  0.7138  1.0792
   13MOL0     H 1712   8.760   3.846   3.041  0.1725 -0.7650  1.6275
   13MOL0     H 1713   8.610   4.039   3.220 -0.7195  0.3173 -0.7277
   13MOL0     H 1714   8.756   3.950   3.241  0.9345  0.9991 -2.3993
   13MOL0     H 1715   8.441   3.657   3.330 -0.6334 -0.3757  0.0420
   13MOL0     H 1716   8.172   3.526   3.328 -3.1981 -1.2945  3.2641
   13MOL0     H 1717   8.254   3.585   3.466  0.0600  2.7824  0.9829
   13MOL0     H 1718   8.085   3.638   3.433  0.5007 -1.1824  1.2598
   13MOL0     H 1719   7.838   3.788   3.529  2.2795 -0.1639 -0.6994
   13MOL0     H 1720   7.589   3.786   3.581  0.2511  1.1683  2.3069
   13MOL0     H 1721   7.317   4.093   3.412  1.9952 -0.0236  0.1315
   13MOL0     H 1722   7.326   3.974   3.289  1.1237 -2.7370  0.1215
   13MOL0     H 1723   7.172   3.835   3.486 -0.6827 -0.5317 -1.3321
   13MOL0     H 1724   7.141   4.007   3.512  0.6299 -0.1877  0.9479
   13MOL0     H 1725   7.124   3.844   3.256  0.3110 -1.5869  1.4610
   13MOL0     H 1726   7.124   4.013   3.249 -0.5938 -1.9932 -2.3379
   13MOL0     H 1727   6.916   3.847   3.414  0.3975 -0.4554 -0.6560
   13MOL0     H 1728   6.919   4.027   3.406  1.5249  0.6505 -0.2685
   13MOL0     H 1729   6.747   3.920   3.281  1.9893  0.8843  0.4994
   13MOL0     H 1730   6.861   3.844   3.174 -2.2114 -0.7665 -0.5450
   13MOL0     H 1731   6.817   4.145   3.243 -4.1940  1.0259 -3.2816
   13MOL0     H 1732   6.942   4.091   3.132  0.9341  1.9490  1.3355
   13MOL0     H 1733   6.716   4.180   3.028  0.6918 -0.5253  0.3303
   13MOL0     H 1734   6.650   4.030   3.098 -0.9444  1.6879  1.1321
   13MOL0     H 1735   6.691   3.999   2.861 -0.6353  1.4185 -0.0076
   13MOL0     H 1736   6.813   3.898   2.944  2.9110  0.5241 -1.6709
   13MOL0     H 1737   7.540   4.096   3.279  1.3597  0.2461 -1.4594
   13MOL0     H 1738   7.797   4.118   3.274  1.4786 -0.8040  0.5600
   13MOL0     H 1739   8.165   4.060   3.229 -1.2115 -0.5788  1.3096
   13MOL0     H 1740   8.414   4.070   3.218 -0.5021  2.3629  2.6760
   13MOL0     H 1741  10.029   4.098   2.273 -0.6841  1.9456 -0.3753
   13MOL0     H 1742  10.247   4.193   2.352 -0.5264  1.9019  0.8296
   13MOL0     H 1743  10.652   4.029   2.637  2.5510 -0.4444  1.4882
   13MOL0     H 1744  10.867   4.113   2.705 -0.0124 -0.7274  0.7364
   13MOL0     H 1745  11.102   4.377   2.845 -0.3676  0.9548 -0.7616
   13MOL0     H 1746  11.036   4.212   2.837 -0.2064 -0.6457 -0.9961
   13MOL0     H 1747  11.125   4.370   2.597  0.3498 -0.8171 -2.4261
   13MOL0     H 1748  11.030   4.218   2.595  0.8132 -0.0270  0.0947
   13MOL0     H 1749  11.264   4.172   2.545  0.1710 -3.1321  0.9805
   13MOL0     H 1750  11.211   4.093   2.678 -2.7075 -0.2344 -2.4552
   13MOL0     H 1751  11.320   4.300   2.803  1.4268 -2.2646  1.3686
   13MOL0     H 1752  11.419   4.325   2.664  0.8914  1.4753  2.8964
   13MOL0     H 1753  11.589   3.964   2.754  1.2654  1.0400 -0.2146
   13MOL0     H 1754  10.698   4.494   2.806  2.7199  0.0853  0.2372
   13MOL0     H 1755  10.466   4.396   2.725  0.5808 -1.1403 -1.2232
   14MOL0     O 1756   6.859   6.030   6.670  0.4424  0.5431  0.6009
   14MOL0     C 1757   6.906   6.046   6.786  0.3925  0.3744  0.7562
   14MOL0     O 1758   6.840   6.055   6.903 -0.1409 -0.4530 -0.1599
   14MOL0     C 1759   6.703   6.035   6.897  0.2194  0.2308 -0.2138
   14MOL0     C 1760   6.613   6.109   6.822  0.0957  0.3458 -0.7503
   14MOL0     C 1761   6.473   6.082   6.833 -0.3137 -0.3071 -0.9511
   14MOL0     C 1762   6.422   6.000   6.937  0.0075 -0.0743  0.8930
   14MOL0     O 1763   6.286   5.988   6.964  0.2021 -0.3104 -0.0654
   14MOL0     C 1764   6.231   5.868   7.013  0.8872 -0.0014  0.2721
   14MOL0     C 1765   6.082   5.875   6.988  1.0133  0.1859 -0.6073
   14MOL0     C 1766   6.027   6.011   7.046 -0.3164  1.3649 -0.4794
   14MOL0     C 1767   5.875   5.989   7.079  0.1626  0.1479 -0.1400
   14MOL0     C 1768   5.797   6.115   7.088  0.5740 -1.0908  0.2008
   14MOL0     C 1769   5.856   6.217   7.196  0.3218  0.0283  0.8935
   14MOL0     C 1770   5.773   6.339   7.213  0.5303  0.4748 -0.1099
   14MOL0     C 1771   5.818   6.427   7.326 -0.3689 -0.0500  0.0443
   14MOL0     N 1772   5.760   6.559   7.355 -0.1395  0.7003  0.7586
   14MOL0     C 1773   5.707   6.639   7.256  0.2789 -0.0398 -0.0144
   14MOL0     C 1774   5.629   6.728   7.318  0.2893 -0.0889  0.1872
   14MOL0     C 1775   5.540   6.833   7.245 -0.2670 -0.2051 -0.6915
   14MOL0     C 1776   5.402   6.776   7.203 -0.7338  0.4631  0.6047
   14MOL0     C 1777   5.307   6.739   7.312 -0.0650  0.3326 -0.3573
   14MOL0     C 1778   5.166   6.689   7.272  0.7596 -0.0339  0.0667
   14MOL0     O 1779   5.068   6.714   7.385 -0.5440  0.5566 -0.5107
   14MOL0     C 1780   4.939   6.665   7.365  0.1547 -0.2736  0.2309
   14MOL0     C 1781   4.837   6.738   7.419  0.5732 -0.6939  0.0910
   14MOL0     C 1782   4.709   6.695   7.419 -0.3546  0.1818 -0.4720
   14MOL0     C 1783   4.618   6.785   7.508 -0.6254 -0.5079  0.3556
   14MOL0     C 1784   4.666   6.594   7.331 -0.4450  0.2428  0.5882
   14MOL0     C 1785   4.521   6.548   7.311 -1.0528 -0.4494 -0.4620
   14MOL0     O 1786   4.495   6.460   7.217  0.6230  0.1344  0.4118
   14MOL0     C 1787   4.365   6.410   7.216 -0.1546  0.0135  0.3803
   14MOL0     C 1788   4.336   6.287   7.288 -0.1482  0.6042 -0.0898
   14MOL0     C 1789   4.203   6.241   7.294  0.2422 -0.0769 -0.2597
   14MOL0     C 1790   4.101   6.300   7.215  0.5649  0.5839  0.2832
   14MOL0     O 1791   3.967   6.264   7.218 -0.6045 -0.3265  0.2366
   14MOL0     C 1792   3.942   6.149   7.295  0.5143 -0.6318 -0.5280
   14MOL0     C 1793   3.782   6.108   7.306 -0.8088  0.3299 -0.2355
   14MOL0     C 1794   3.727   6.162   7.433  0.3628 -0.2168 -0.0526
   14MOL0     C 1795   3.709   6.316   7.437  0.0419  0.3765  0.2929
   14MOL0     C 1796   3.644   6.368   7.565  0.3248  0.2286  0.3593
   14MOL0     C 1797   3.644   6.524   7.547  0.3691  0.5912  0.0986
   14MOL0     C 1798   3.774   6.591   7.574  0.2213 -0.0124 -0.5800
   14MOL0     C 1799   3.764   6.746   7.569 -0.0364 -0.2270 -0.2896
   14MOL0    Cl 1800   3.728   6.806   7.412  0.0284 -0.0379 -0.1286
   14MOL0     C 1801   4.132   6.414   7.145 -0.2033 -0.0396 -0.6193
   14MOL0     C 1802   4.254   6.479   7.153 -0.6683  0.6930  0.2283
   14MOL0     O 1803   4.436   6.628   7.352  0.4475  0.0945  0.1779
   14MOL0     C 1804   4.770   6.524   7.267 -0.0282  0.2399  0.0839
   14MOL0     C 1805   4.907   6.562   7.284  0.0479 -0.8140 -0.2193
   14MOL0     N 1806   5.634   6.704   7.455 -0.6200 -0.0279 -0.0006
   14MOL0     N 1807   5.709   6.604   7.472 -0.1159  0.2462 -0.0244
   14MOL0     C 1808   6.518   5.934   7.019  1.4415 -0.1904  0.4160
   14MOL0     C 1809   6.650   5.954   6.995 -0.0844  1.0971  0.7285
   14MOL0     C 1810   7.054   6.057   6.793  0.4320  0.8770 -0.5219
   14MOL0     C 1811   7.115   6.032   6.917  0.1888  0.3977 -0.0598
   14MOL0     C 1812   7.253   6.031   6.927 -0.2905 -0.4887  0.4825
   14MOL0     C 1813   7.337   6.070   6.825 -0.4782 -0.5696  0.6283
   14MOL0     O 1814   7.474   6.078   6.859  0.0244  0.0405 -0.4950
   14MOL0     C 1815   7.556   6.117   6.753  0.5002 -0.7583  1.1356
   14MOL0     C 1816   7.704   6.106   6.797 -0.2742  0.2841 -0.5861
   14MOL0     C 1817   7.740   6.223   6.888 -0.1978  0.4322  0.3920
   14MOL0     C 1818   7.745   6.361   6.819  0.0556 -0.7934 -0.3993
   14MOL0     C 1819   7.858   6.384   6.719 -0.3079 -0.6856 -0.5633
   14MOL0     C 1820   7.954   6.403   6.655  0.2017  0.4774 -0.3288
   14MOL0     C 1821   7.276   6.106   6.700 -0.4477  0.6684  0.2409
   14MOL0     C 1822   7.134   6.084   6.679 -0.2257 -0.3969  0.3624
   14MOL0     H 1823   6.647   6.175   6.743  1.0085 -1.4895 -1.9322
   14MOL0     H 1824   6.406   6.132   6.764  0.6065  1.3950 -0.6694
   14MOL0     H 1825   6.276   5.793   6.949  2.0910 -0.1207  1.2164
   14MOL0     H 1826   6.240   5.853   7.121 -3.2974 -0.7048  0.6961
   14MOL0     H 1827   6.060   5.865   6.881 -3.3719  4.4304 -0.4794
   14MOL0     H 1828   6.026   5.796   7.038  0.1489  1.0073 -0.2526
   14MOL0     H 1829   6.077   6.037   7.140 -0.5170 -3.9992  1.4259
   14MOL0     H 1830   6.051   6.091   6.975 -1.4721  1.4722 -0.7764
   14MOL0     H 1831   5.839   5.920   7.003 -1.7815  1.8258 -0.8380
   14MOL0     H 1832   5.872   5.951   7.182  3.4656 -2.9665 -0.9745
   14MOL0     H 1833   5.794   6.173   6.996  0.6139  0.6812  1.2708
   14MOL0     H 1834   5.693   6.092   7.114 -0.3513  3.8136  1.9691
   14MOL0     H 1835   5.854   6.164   7.292  1.9661  0.0612  0.9730
   14MOL0     H 1836   5.950   6.266   7.171  0.0445  0.4256  0.6224
   14MOL0     H 1837   5.758   6.393   7.119  1.1283  2.4853  0.9077
   14MOL0     H 1838   5.673   6.297   7.225  0.2493  1.1939  0.1079
   14MOL0     H 1839   5.922   6.456   7.306 -0.3982 -1.2055 -2.0588
   14MOL0     H 1840   5.818   6.365   7.417  2.4795  1.7718  1.4377
   14MOL0     H 1841   5.731   6.626   7.151 -0.7203  0.8126 -0.3641
   14MOL0     H 1842   5.526   6.917   7.314  0.2507  0.9343 -1.9371
   14MOL0     H 1843   5.595   6.874   7.160 -1.7020 -1.7430 -2.4579
   14MOL0     H 1844   5.417   6.694   7.132 -1.3027 -0.8655  1.9520
   14MOL0     H 1845   5.337   6.838   7.142  0.1972 -0.3092 -1.2458
   14MOL0     H 1846   5.287   6.823   7.379 -1.8584 -1.4971  1.5453
   14MOL0     H 1847   5.355   6.664   7.375  1.8220  0.8232 -1.1443
   14MOL0     H 1848   5.176   6.583   7.248  2.4264  0.1872 -0.3418
   14MOL0     H 1849   5.134   6.740   7.182  0.9192  0.2967  0.1944
   14MOL0     H 1850   4.862   6.827   7.475 -0.2381 -0.0584 -0.5277
   14MOL0     H 1851   4.539   6.845   7.461  0.8680  2.3238  1.2177
   14MOL0     H 1852   4.573   6.725   7.588 -2.2916 -0.2886 -0.3733
   14MOL0     H 1853   4.670   6.866   7.559  0.2396 -1.6704  1.3842
   14MOL0     H 1854   4.413   6.224   7.328 -0.4547 -0.7496 -1.5307
   14MOL0     H 1855   4.181   6.157   7.359  2.6754  1.9538  3.5707
   14MOL0     H 1856   4.001   6.069   7.251 -0.9687 -1.8630 -0.3524
   14MOL0     H 1857   3.963   6.153   7.402 -0.3869  0.4910 -0.3723
   14MOL0     H 1858   3.724   6.128   7.216  1.0112  0.7585 -1.3621
   14MOL0     H 1859   3.773   6.001   7.325 -1.4934  0.0944 -1.7915
   14MOL0     H 1860   3.793   6.126   7.512  1.5734 -1.3578 -1.5287
   14MOL0     H 1861   3.628   6.116   7.439  0.4569 -0.2726  1.2344
   14MOL0     H 1862   3.808   6.361   7.424  0.1932  0.1861  0.7924
   14MOL0     H 1863   3.651   6.343   7.348  0.0573  0.0663  0.1860
   14MOL0     H 1864   3.691   6.338   7.658 -1.9220 -2.5650  0.7353
   14MOL0     H 1865   3.539   6.336   7.567  0.1147  0.2032 -3.1688
   14MOL0     H 1866   3.620   6.559   7.446 -2.3257  1.0006  0.7983
   14MOL0     H 1867   3.572   6.570   7.616  1.2452  2.2324 -0.0342
   14MOL0     H 1868   3.857   6.563   7.509  1.4858  2.3804 -0.1456
   14MOL0     H 1869   3.816   6.561   7.671  1.1848  1.6910 -0.4298
   14MOL0     H 1870   3.860   6.783   7.604  0.8235 -1.1011 -1.6583
   14MOL0     H 1871   3.687   6.773   7.642  1.3526 -0.0455  1.1358
   14MOL0     H 1872   4.051   6.465   7.093 -0.7515  0.4647  0.6968
   14MOL0     H 1873   4.275   6.580   7.119 -1.8423  0.5080 -1.1623
   14MOL0     H 1874   4.738   6.439   7.209 -1.3350 -0.7265  2.0863
   14MOL0     H 1875   4.971   6.495   7.227  3.5359  2.7246 -0.8681
   14MOL0     H 1876   6.490   5.866   7.099  0.3963 -0.2580  0.0052
   14MOL0     H 1877   6.726   5.908   7.057  0.1215  2.1026  1.2465
   14MOL0     H 1878   7.065   5.999   7.008  1.5870 -0.9715  0.2544
   14MOL0     H 1879   7.299   5.997   7.020  0.7763 -1.2438 -0.2965
   14MOL0     H 1880   7.543   6.053   6.665 -1.8827  5.1222 -3.4188
   14MOL0     H 1881   7.542   6.216   6.709  1.9089 -2.5217 -3.9706
   14MOL0     H 1882   7.772   6.088   6.712 -0.4283 -1.8949 -0.3087
   14MOL0     H 1883   7.710   6.010   6.849  0.3517 -1.2148 -3.2153
   14MOL0     H 1884   7.826   6.198   6.952 -0.8373 -1.2290  0.6436
   14MOL0     H 1885   7.664   6.230   6.966  2.2964  0.2924  3.0379
   14MOL0     H 1886   7.764   6.435   6.897 -1.2543 -0.7377 -0.1129
   14MOL0     H 1887   7.649   6.372   6.768  0.2034 -2.2651 -1.0444
   14MOL0     H 1888   8.042   6.436   6.604 -0.1337  1.5240 -0.2564
   14MOL0     H 1889   7.335   6.145   6.617  1.1438 -0.6586  0.6884
   14MOL0     H 1890   7.098   6.115   6.582  0.9946  1.4425  0.4583
   15MOL0     O 1891   3.577   4.386   2.087 -0.0608 -0.0711 -0.1793
   15MOL0     C 1892   3.643   4.283   2.093 -0.2857  0.0537  0.7910
   15MOL0     O 1893   3.778   4.273   2.114  0.3042 -0.1426  0.7550
   15MOL0     C 1894   3.860   4.384   2.113  0.2233  0.5361 -1.1643
   15MOL0     C 1895   3.841   4.510   2.057 -0.2859  0.2746  0.4980
   15MOL0     C 1896   3.944   4.602   2.057 -0.2355  0.5354 -0.6728
   15MOL0     C 1897   4.066   4.582   2.130  1.1967  0.6264  0.1733
   15MOL0     O 1898   4.156   4.684   2.125 -0.4682 -0.7180  0.0754
   15MOL0     C 1899   4.120   4.809   2.189 -0.1484 -0.6236  0.6274
   15MOL0     C 1900   4.237   4.916   2.194 -0.2423 -1.3572 -0.3047
   15MOL0     C 1901   4.374   4.876   2.251 -0.1248 -0.9916  0.0560
   15MOL0     C 1902   4.455   4.970   2.336 -0.3559  0.0514 -0.2689
   15MOL0     C 1903   4.590   4.905   2.361  0.1204 -0.5479  0.2103
   15MOL0     C 1904   4.669   4.967   2.481 -0.0254  0.2842 -1.1290
   15MOL0     C 1905   4.693   5.116   2.453 -0.1577  0.3114 -0.1203
   15MOL0     C 1906   4.783   5.186   2.560 -0.3011  0.2219  0.2168
   15MOL0     N 1907   4.917   5.120   2.583  0.0762 -0.2244 -0.5205
   15MOL0     C 1908   5.035   5.144   2.513 -0.0401  0.1474  0.0121
   15MOL0     C 1909   5.134   5.092   2.587 -1.1682 -0.4210  0.3575
   15MOL0     C 1910   5.285   5.110   2.548 -0.2213  0.6101  0.7369
   15MOL0     C 1911   5.326   5.005   2.448 -0.0433 -0.1686 -0.7972
   15MOL0     C 1912   5.278   5.021   2.303  0.4941 -0.4468 -0.0706
   15MOL0     C 1913   5.340   4.911   2.207 -0.0759 -0.1779 -0.5896
   15MOL0     O 1914   5.303   4.781   2.255  0.0025  0.3388 -0.8817
   15MOL0     C 1915   5.189   4.726   2.196  0.1988 -0.1085  0.1990
   15MOL0     C 1916   5.202   4.642   2.088 -0.2097  0.0273  0.4141
   15MOL0     C 1917   5.086   4.596   2.011 -0.2650 -0.2658 -0.9373
   15MOL0     C 1918   5.124   4.520   1.883  1.1304  0.0852 -0.9664
   15MOL0     C 1919   4.959   4.607   2.070 -0.0868 -0.8295 -0.8132
   15MOL0     C 1920   4.833   4.548   2.014 -0.1575 -0.9477 -0.4049
   15MOL0     O 1921   4.744   4.503   2.103 -0.1185 -0.1058  0.2496
   15MOL0     C 1922   4.631   4.438   2.052  0.2099 -0.9205 -0.1259
   15MOL0     C 1923   4.510   4.507   2.057 -0.1259  0.5075  0.9315
   15MOL0     C 1924   4.395   4.448   2.004 -0.6293  0.5356 -0.6649
   15MOL0     C 1925   4.400   4.314   1.954  0.2099 -1.1036  0.7509
   15MOL0     O 1926   4.277   4.267   1.920  0.8657  0.0838 -0.5208
   15MOL0     C 1927   4.260   4.141   1.848  0.1549 -0.4221 -0.0962
   15MOL0     C 1928   4.117   4.124   1.823  0.1080 -0.1859 -0.3647
   15MOL0     C 1929   4.081   4.022   1.718 -0.2002 -0.1933  0.3279
   15MOL0     C 1930   3.952   3.950   1.759  0.0220 -0.2486  0.1969
   15MOL0     C 1931   3.894   3.863   1.643 -0.5034 -1.1092 -0.1462
   15MOL0     C 1932   3.806   3.744   1.686  0.2336  0.5872 -0.3607
   15MOL0     C 1933   3.767   3.664   1.569  0.1692  0.7882  0.2135
   15MOL0     C 1934   3.700   3.527   1.616  1.0336 -0.3312  0.8711
   15MOL0    Cl 1935   3.828   3.406   1.641  0.1889 -0.2612 -0.1245
   15MOL0     C 1936   4.528   4.249   1.951 -0.4991  0.9416 -0.7155
   15MOL0     C 1937   4.645   4.309   2.003 -0.0576 -0.0508 -0.8186
   15MOL0     O 1938   4.822   4.548   1.893  0.6805  0.0278  0.2963
   15MOL0     C 1939   4.953   4.677   2.194  0.2242 -0.0576 -0.8080
   15MOL0     C 1940   5.059   4.744   2.252  0.1263  0.3264 -0.6792
   15MOL0     N 1941   5.078   5.025   2.696 -0.5810  0.7286  0.3484
   15MOL0     N 1942   4.950   5.043   2.697  0.0379 -0.3313  1.1522
   15MOL0     C 1943   4.075   4.464   2.199  0.0272  0.3568 -0.2372
   15MOL0     C 1944   3.979   4.363   2.177  0.0920 -0.2057  0.5426
   15MOL0     C 1945   3.578   4.154   2.065  0.6059 -0.4572 -0.4453
   15MOL0     C 1946   3.470   4.121   2.147 -0.8335 -0.5938  0.3474
   15MOL0     C 1947   3.382   4.014   2.123  0.6954 -0.4546  0.4266
   15MOL0     C 1948   3.397   3.936   2.009  0.3926 -0.2946 -0.8956
   15MOL0     O 1949   3.301   3.841   1.983  0.5861 -0.0779  0.0585
   15MOL0     C 1950   3.323   3.739   1.871 -0.4052 -0.1085 -0.2054
   15MOL0     C 1951   3.296   3.783   1.723 -0.8611  0.1646 -0.1727
   15MOL0     C 1952   3.306   3.670   1.617  0.0799 -0.4476  0.2332
   15MOL0     C 1953   3.388   3.727   1.500 -0.4624 -0.0158  0.5377
   15MOL0     C 1954   3.409   3.625   1.394  0.2351 -0.5628  0.0951
   15MOL0     C 1955   3.414   3.550   1.300  0.0367 -0.9057 -0.1655
   15MOL0     C 1956   3.513   3.952   1.940 -0.0571  0.0562 -0.0393
   15MOL0     C 1957   3.607   4.058   1.963 -0.6315  0.0883  0.4230
   15MOL0     H 1958   3.749   4.538   2.007 -1.1510 -0.2168  1.7693
   15MOL0     H 1959   3.927   4.691   1.996 -3.0863  1.9462  1.9236
   15MOL0     H 1960   4.033   4.850   2.137 -1.9463  0.5225  4.2569
   15MOL0     H 1961   4.088   4.792   2.292 -0.2374 -1.1455  0.5165
   15MOL0     H 1962   4.258   4.950   2.092  3.8096  4.4081  1.9006
   15MOL0     H 1963   4.202   5.010   2.238  0.4058 -0.6137 -1.3014
   15MOL0     H 1964   4.348   4.789   2.312 -1.3761 -0.7811 -0.1389
   15MOL0     H 1965   4.437   4.829   2.175  1.6545  0.7768  0.3501
   15MOL0     H 1966   4.467   5.063   2.280  0.2770 -0.7704 -1.5560
   15MOL0     H 1967   4.408   5.000   2.430 -0.1999  1.0213 -0.4892
   15MOL0     H 1968   4.575   4.799   2.381 -0.3427 -0.8153 -1.4358
   15MOL0     H 1969   4.647   4.918   2.269  0.6655  2.5310  0.8705
   15MOL0     H 1970   4.611   4.958   2.574 -0.2580 -0.3438 -1.3282
   15MOL0     H 1971   4.759   4.907   2.496  1.2470  2.6135  1.3910
   15MOL0     H 1972   4.734   5.134   2.353  0.7317 -1.0247 -0.0188
   15MOL0     H 1973   4.597   5.168   2.447  0.5019  1.5615 -0.1599
   15MOL0     H 1974   4.735   5.181   2.657  1.5636 -0.8468  1.1501
   15MOL0     H 1975   4.814   5.285   2.524 -1.1892  1.0381  1.6529
   15MOL0     H 1976   5.051   5.203   2.423  1.3599  3.1038  2.0225
   15MOL0     H 1977   5.299   5.210   2.506 -0.0539  1.3584  2.4561
   15MOL0     H 1978   5.355   5.113   2.632  0.2765  3.0881  0.3078
   15MOL0     H 1979   5.294   4.910   2.491 -0.5716  0.8778  1.2427
   15MOL0     H 1980   5.435   5.005   2.435  0.0110  0.3772 -0.3792
   15MOL0     H 1981   5.288   5.122   2.263  4.7574 -0.5977  0.1156
   15MOL0     H 1982   5.172   4.994   2.302  0.8397 -1.9045 -0.0223
   15MOL0     H 1983   5.449   4.911   2.196 -0.2372 -1.6711 -2.6960
   15MOL0     H 1984   5.298   4.924   2.107  0.8156 -0.8538 -1.0679
   15MOL0     H 1985   5.307   4.618   2.075  0.0522  0.0829  2.1802
   15MOL0     H 1986   5.085   4.419   1.869 -0.5288  0.9659 -3.4697
   15MOL0     H 1987   5.075   4.570   1.799  1.0449  0.5214 -0.6635
   15MOL0     H 1988   5.230   4.518   1.857  0.8537  0.2364 -2.1977
   15MOL0     H 1989   4.502   4.604   2.104 -2.5766  0.4448  0.7401
   15MOL0     H 1990   4.297   4.493   2.008 -0.3672  1.4294 -2.8366
   15MOL0     H 1991   4.316   4.159   1.756 -0.3087 -0.1746 -0.3332
   15MOL0     H 1992   4.309   4.056   1.898 -1.3688 -1.5199 -0.3860
   15MOL0     H 1993   4.073   4.088   1.916  1.7353  0.6053  0.7473
   15MOL0     H 1994   4.074   4.222   1.800 -1.2176 -0.4697  0.7565
   15MOL0     H 1995   4.160   3.946   1.715  0.7114  0.5598  2.7706
   15MOL0     H 1996   4.061   4.067   1.620  1.3889 -1.7356 -0.7572
   15MOL0     H 1997   3.966   3.884   1.845 -1.6838  1.2493  1.6974
   15MOL0     H 1998   3.883   4.027   1.794 -0.0626 -0.8562  1.3860
   15MOL0     H 1999   3.978   3.824   1.585 -0.3427 -2.6190  1.0279
   15MOL0     H 2000   3.849   3.933   1.572  0.9314  1.0107  0.9129
   15MOL0     H 2001   3.851   3.678   1.760 -1.5846  0.3094  0.5578
   15MOL0     H 2002   3.715   3.785   1.732 -0.8995 -0.4591 -1.5857
   15MOL0     H 2003   3.858   3.645   1.512 -0.1280 -0.4228  0.1255
   15MOL0     H 2004   3.697   3.719   1.505 -0.2225 -0.4568 -0.4562
   15MOL0     H 2005   3.630   3.498   1.537 -0.3338  2.1504  1.0721
   15MOL0     H 2006   3.630   3.538   1.699  3.4472 -2.6503  3.4015
   15MOL0     H 2007   4.551   4.147   1.922  5.7729  1.3840  1.2022
   15MOL0     H 2008   4.734   4.248   2.011 -0.5456 -0.6735  0.0659
   15MOL0     H 2009   4.865   4.686   2.257  0.1912 -1.3867 -0.6235
   15MOL0     H 2010   5.055   4.795   2.347  0.1449 -0.6639 -0.1330
   15MOL0     H 2011   4.154   4.442   2.270 -2.4866  1.7473  3.3310
   15MOL0     H 2012   4.005   4.263   2.211  2.9980 -0.9382 -3.2114
   15MOL0     H 2013   3.441   4.173   2.238  1.1820  0.2155  0.5857
   15MOL0     H 2014   3.297   3.990   2.186  0.1406 -1.5225 -0.6887
   15MOL0     H 2015   3.423   3.696   1.879  0.2622  1.3129 -0.4849
   15MOL0     H 2016   3.259   3.652   1.888 -0.6158  0.1825  0.4921
   15MOL0     H 2017   3.371   3.862   1.712 -1.0980  0.6026  1.0948
   15MOL0     H 2018   3.198   3.833   1.717 -1.9436 -1.9477 -1.0929
   15MOL0     H 2019   3.216   3.622   1.575  1.9720 -2.5759 -1.7344
   15MOL0     H 2020   3.366   3.587   1.657  0.8942 -0.5753 -1.1761
   15MOL0     H 2021   3.491   3.761   1.512 -0.3200  0.5881 -1.9010
   15MOL0     H 2022   3.340   3.815   1.457 -0.7697 -0.0923  0.7171
   15MOL0     H 2023   3.425   3.503   1.204 -1.1969  0.3698 -0.9757
   15MOL0     H 2024   3.545   3.881   1.865  1.6325  1.6056 -0.8705
   15MOL0     H 2025   3.703   4.074   1.914 -1.5555  0.8137 -1.2106
   16MOL0     O 2026   8.325   0.179   2.567  0.2218 -0.2085 -0.4102
   16MOL0     C 2027   8.328   0.074   2.630 -0.5933 -0.1408  0.0628
   16MOL0     O 2028   8.241   0.044   2.727  0.1575 -0.1280  0.4435
   16MOL0     C 2029   8.147   0.131   2.771  0.6301  0.5203 -0.1483
   16MOL0     C 2030   8.053   0.181   2.687  0.3537 -0.1762  0.2374
   16MOL0     C 2031   7.958   0.265   2.740  0.3252  0.1795  0.0899
   16MOL0     C 2032   7.950   0.293   2.882  0.1247 -0.4895 -0.3393
   16MOL0     O 2033   7.861   0.393   2.912  1.0816  0.1802  0.3648
   16MOL0     C 2034   7.841   0.435   3.042 -0.6721 -0.0767  0.1108
   16MOL0     C 2035   7.706   0.509   3.052 -0.5482  0.1758 -0.4734
   16MOL0     C 2036   7.588   0.424   2.995  0.5498 -0.3318  0.5678
   16MOL0     C 2037   7.460   0.503   3.042 -0.8743 -0.0373 -0.3233
   16MOL0     C 2038   7.411   0.602   2.942  0.3514 -0.0429 -0.1660
   16MOL0     C 2039   7.262   0.643   2.955  0.7282  0.1107  0.1104
   16MOL0     C 2040   7.252   0.759   3.055 -0.7034 -0.1414 -0.5899
   16MOL0     C 2041   7.107   0.794   3.082  0.9488  0.1222  0.6321
   16MOL0     N 2042   7.096   0.888   3.181 -0.1800  0.3772 -0.0807
   16MOL0     C 2043   7.094   1.019   3.162  0.0908  0.0793  0.0213
   16MOL0     C 2044   7.072   1.074   3.286 -0.5570 -0.2476  1.1374
   16MOL0     C 2045   7.075   1.220   3.325  0.4206  0.4846  0.2172
   16MOL0     C 2046   6.944   1.293   3.291 -0.6679 -0.8994  0.6527
   16MOL0     C 2047   6.956   1.435   3.350 -0.0061  0.2251  0.3169
   16MOL0     C 2048   6.822   1.491   3.400 -0.8621 -0.0935 -1.2980
   16MOL0     O 2049   6.723   1.496   3.302 -0.3372  0.2507  0.1612
   16MOL0     C 2050   6.612   1.567   3.339 -0.5862  0.0214 -0.2553
   16MOL0     C 2051   6.522   1.576   3.237  0.5550  0.2561 -0.4194
   16MOL0     C 2052   6.398   1.638   3.268 -0.4680 -1.0081  0.1490
   16MOL0     C 2053   6.295   1.654   3.150  0.2374 -0.1149 -0.0183
   16MOL0     C 2054   6.373   1.703   3.392 -0.0582 -0.6078  0.1566
   16MOL0     C 2055   6.247   1.784   3.422 -0.4360  1.2968 -0.3235
   16MOL0     O 2056   6.272   1.880   3.515  0.9276 -0.2480 -0.0687
   16MOL0     C 2057   6.163   1.962   3.553  0.5675 -0.0399 -0.0362
   16MOL0     C 2058   6.174   2.100   3.544  0.4748 -0.4255  0.2656
   16MOL0     C 2059   6.067   2.183   3.579 -0.9285 -0.2733 -0.1914
   16MOL0     C 2060   5.956   2.120   3.633 -0.4218 -0.5508  0.3437
   16MOL0     O 2061   5.843   2.184   3.672 -0.0201  0.0125 -0.0931
   16MOL0     C 2062   5.801   2.292   3.584  0.8160 -0.4945 -0.3026
   16MOL0     C 2063   5.642   2.291   3.575  0.1126  0.0984  0.1706
   16MOL0     C 2064   5.588   2.194   3.465  0.6428 -0.1709  0.4626
   16MOL0     C 2065   5.433   2.181   3.488 -0.1591  0.5282  0.4138
   16MOL0     C 2066   5.379   2.071   3.388 -0.2070  0.5792  1.0271
   16MOL0     C 2067   5.230   2.067   3.374  0.3527 -0.1903 -0.5159
   16MOL0     C 2068   5.183   1.972   3.260  0.0304  0.7556  0.1091
   16MOL0     C 2069   5.227   1.823   3.271  0.3572 -0.6836 -0.5935
   16MOL0    Cl 2070   5.375   1.800   3.170 -0.1760 -0.1374 -0.0185
   16MOL0     C 2071   5.952   1.982   3.672  0.8412  0.0439  0.0421
   16MOL0     C 2072   6.057   1.907   3.628 -0.1243  0.0405  0.1881
   16MOL0     O 2073   6.143   1.752   3.373 -0.1817  0.6988 -0.0090
   16MOL0     C 2074   6.465   1.690   3.492 -0.3388 -1.0215  0.4520
   16MOL0     C 2075   6.582   1.614   3.471 -0.4247 -1.2600  0.6419
   16MOL0     N 2076   7.047   0.968   3.370 -0.5113  0.4299 -0.7123
   16MOL0     N 2077   7.068   0.859   3.307 -0.0121 -0.5418 -0.0685
   16MOL0     C 2078   8.048   0.244   2.973 -0.4553 -0.1409  0.6475
   16MOL0     C 2079   8.142   0.166   2.910 -0.4905  0.9716  0.0168
   16MOL0     C 2080   8.431  -0.029   2.602 -0.2651  0.3628 -0.6371
   16MOL0     C 2081   8.423  -0.160   2.648 -0.1448 -0.2721  0.0724
   16MOL0     C 2082   8.526  -0.253   2.636 -0.6629 -0.8740 -0.0830
   16MOL0     C 2083   8.643  -0.223   2.565  0.1062  1.0569  0.3865
   16MOL0     O 2084   8.739  -0.322   2.541 -0.0539  0.2960  0.4838
   16MOL0     C 2085   8.812  -0.361   2.652  1.1078  0.7885 -0.1672
   16MOL0     C 2086   8.913  -0.250   2.693  1.1816 -0.6655  0.0643
   16MOL0     C 2087   9.015  -0.219   2.577  0.2412 -0.0074  0.3295
   16MOL0     C 2088   9.129  -0.319   2.556 -0.4280 -0.0036 -0.0740
   16MOL0     C 2089   9.233  -0.267   2.465 -0.1040 -0.3199 -0.0668
   16MOL0     C 2090   9.329  -0.239   2.396  0.2853  0.3778  0.5817
   16MOL0     C 2091   8.654  -0.101   2.508 -0.8504  0.1204 -0.3731
   16MOL0     C 2092   8.551  -0.006   2.527 -0.4931 -0.3800 -0.6904
   16MOL0     H 2093   8.059   0.152   2.582 -2.2775  0.7650 -0.2340
   16MOL0     H 2094   7.882   0.311   2.678 -0.9141 -1.0988  0.5964
   16MOL0     H 2095   7.844   0.346   3.106  1.2885 -0.8666 -1.0040
   16MOL0     H 2096   7.921   0.500   3.078  0.2857 -0.3404 -1.4642
   16MOL0     H 2097   7.689   0.528   3.158 -2.3621  1.3411 -0.9235
   16MOL0     H 2098   7.715   0.606   3.001  2.3548  0.3374  0.1863
   16MOL0     H 2099   7.601   0.423   2.886  2.2874  2.4588  0.6437
   16MOL0     H 2100   7.600   0.322   3.031  0.5573 -2.8817 -5.5197
   16MOL0     H 2101   7.385   0.425   3.055  0.3890 -1.1795  0.2670
   16MOL0     H 2102   7.472   0.550   3.140  1.6914 -0.1655 -0.4970
   16MOL0     H 2103   7.486   0.680   2.954  2.3007 -1.5653 -1.6439
   16MOL0     H 2104   7.427   0.558   2.843  1.0836  0.1003 -0.1149
   16MOL0     H 2105   7.223   0.660   2.855  1.1464 -1.4014 -0.3302
   16MOL0     H 2106   7.211   0.562   3.007  2.7056 -1.0472  0.3437
   16MOL0     H 2107   7.305   0.747   3.150 -3.6328 -2.2659  0.9515
   16MOL0     H 2108   7.298   0.849   3.011 -1.0371  1.5076  2.2002
   16MOL0     H 2109   7.045   0.710   3.115 -0.3791  1.6601  2.2564
   16MOL0     H 2110   7.069   0.849   2.995  1.3247  2.2465  1.7474
   16MOL0     H 2111   7.107   1.086   3.078 -0.5289 -0.8483 -0.8395
   16MOL0     H 2112   7.087   1.220   3.433  0.4098 -1.2475  0.2412
   16MOL0     H 2113   7.162   1.275   3.285  1.0495  1.5073  2.8175
   16MOL0     H 2114   6.858   1.241   3.333  0.3425 -3.6692 -0.4953
   16MOL0     H 2115   6.934   1.303   3.183  2.3713 -2.2434  0.1473
   16MOL0     H 2116   6.983   1.504   3.270 -0.9921 -0.0088 -0.2366
   16MOL0     H 2117   7.036   1.431   3.424  1.5591 -4.6450 -1.2434
   16MOL0     H 2118   6.835   1.589   3.447  1.3426 -0.9300 -0.0155
   16MOL0     H 2119   6.778   1.417   3.468  2.7980 -0.8943  0.4453
   16MOL0     H 2120   6.552   1.528   3.145  1.1981  1.2332 -0.7427
   16MOL0     H 2121   6.334   1.617   3.055  0.6559 -0.8900  0.4384
   16MOL0     H 2122   6.205   1.595   3.168  1.2323 -1.0616  2.3427
   16MOL0     H 2123   6.280   1.761   3.135  2.5197  0.3084  0.2466
   16MOL0     H 2124   6.261   2.148   3.501 -0.3984 -0.8937 -2.2022
   16MOL0     H 2125   6.064   2.288   3.550 -1.6749 -0.1758  0.2197
   16MOL0     H 2126   5.826   2.391   3.623 -4.3148  0.7722  0.4997
   16MOL0     H 2127   5.840   2.272   3.484  1.0195 -0.2726 -0.2665
   16MOL0     H 2128   5.600   2.267   3.673  0.2183  0.9344  0.4346
   16MOL0     H 2129   5.607   2.393   3.554 -1.2588 -0.3696  0.0853
   16MOL0     H 2130   5.633   2.101   3.502 -0.3687  0.7246  4.4546
   16MOL0     H 2131   5.614   2.218   3.362 -1.2100 -2.0425 -0.4951
   16MOL0     H 2132   5.404   2.149   3.588 -2.0799 -0.6867 -0.4842
   16MOL0     H 2133   5.379   2.274   3.471 -2.2167 -0.4200  1.4571
   16MOL0     H 2134   5.417   1.975   3.424 -2.4586 -1.5530 -1.7854
   16MOL0     H 2135   5.421   2.080   3.287 -2.0012 -2.7570 -0.1579
   16MOL0     H 2136   5.186   2.026   3.466 -2.5769 -0.3902 -1.8877
   16MOL0     H 2137   5.200   2.171   3.357  0.9269  0.1714  0.5616
   16MOL0     H 2138   5.227   1.998   3.163 -0.9121 -0.2941 -0.6148
   16MOL0     H 2139   5.076   1.975   3.239  0.0147  1.2515  0.2493
   16MOL0     H 2140   5.143   1.774   3.222 -1.2133 -0.8938  2.1151
   16MOL0     H 2141   5.238   1.775   3.368 -1.2093 -0.7398 -0.4157
   16MOL0     H 2142   5.872   1.935   3.728  0.7652 -0.3474 -0.3842
   16MOL0     H 2143   6.065   1.800   3.647 -1.6001 -0.0447  0.4429
   16MOL0     H 2144   6.451   1.731   3.592  2.1855 -1.3116  0.9919
   16MOL0     H 2145   6.637   1.588   3.561  2.4132 -2.1438 -1.1993
   16MOL0     H 2146   8.048   0.262   3.080 -0.6577 -0.1246  0.6445
   16MOL0     H 2147   8.231   0.140   2.967 -2.2140 -1.1698  1.9598
   16MOL0     H 2148   8.320  -0.173   2.680 -0.6654  1.6123 -0.6968
   16MOL0     H 2149   8.506  -0.350   2.680 -0.6641 -0.6437  0.4289
   16MOL0     H 2150   8.752  -0.391   2.738 -1.1773  1.5828 -1.3922
   16MOL0     H 2151   8.871  -0.451   2.630  1.5186 -0.5085  4.9286
   16MOL0     H 2152   8.964  -0.286   2.783  0.3255 -1.1865  0.3562
   16MOL0     H 2153   8.848  -0.164   2.712 -2.3308 -3.1098  0.3035
   16MOL0     H 2154   9.061  -0.122   2.597 -1.3383  0.6658  0.7786
   16MOL0     H 2155   8.964  -0.191   2.485  0.1901  2.0516  0.9403
   16MOL0     H 2156   9.088  -0.411   2.514  1.6755 -0.8635 -0.3425
   16MOL0     H 2157   9.181  -0.351   2.647  3.3238  1.1980 -1.6018
   16MOL0     H 2158   9.415  -0.233   2.332  0.2279 -0.6148  0.3891
   16MOL0     H 2159   8.740  -0.080   2.444 -1.1819 -0.6552 -1.0974
   16MOL0     H 2160   8.563   0.091   2.481  0.5588  0.2779  0.8728
   17MOL0     O 2161  10.321  10.459   6.036  0.7261  0.2563 -0.1189
   17MOL0     C 2162  10.412  10.524   6.090  0.2534 -0.1633  0.2051
   17MOL0     O 2163  10.398  10.573   6.216  0.7795 -0.1412  0.9078
   17MOL0     C 2164  10.267  10.592   6.270 -0.0364  0.4819  0.4808
   17MOL0     C 2165  10.251  10.600   6.407 -0.2425 -0.0934  0.2274
   17MOL0     C 2166  10.132  10.646   6.470 -0.2034  0.2574  0.2473
   17MOL0     C 2167  10.021  10.670   6.393 -0.0448 -0.7302  0.2390
   17MOL0     O 2168   9.906  10.712   6.455 -0.6369  0.1279 -0.3685
   17MOL0     C 2169   9.825  10.808   6.380 -0.3370  0.2286  0.0922
   17MOL0     C 2170   9.739  10.866   6.489  0.0142  0.1082  0.1869
   17MOL0     C 2171   9.609  10.934   6.429 -0.5861 -0.2293  0.2131
   17MOL0     C 2172   9.496  10.844   6.451 -0.9105  0.8298  0.4374
   17MOL0     C 2173   9.363  10.905   6.416  0.0764 -0.2911 -0.5575
   17MOL0     C 2174   9.248  10.894   6.525 -0.6113 -0.5310  0.3155
   17MOL0     C 2175   9.127  10.987   6.504  0.0568 -0.6720 -0.4272
   17MOL0     C 2176   9.013  10.943   6.604 -0.5393  0.2671  0.3806
   17MOL0     N 2177   8.878  10.991   6.556  0.2910 -0.4700 -0.3729
   17MOL0     C 2178   8.832  11.112   6.507  0.6586  0.2498 -0.7586
   17MOL0     C 2179   8.703  11.100   6.470 -0.5682  0.3711 -0.0214
   17MOL0     C 2180   8.629  11.213   6.402 -0.4201 -0.0992 -0.3185
   17MOL0     C 2181   8.683  11.245   6.264  0.1617 -0.8521 -0.4020
   17MOL0     C 2182   8.595  11.355   6.201 -0.8510  0.2475 -0.7085
   17MOL0     C 2183   8.605  11.351   6.052  0.5531  0.0558  0.0716
   17MOL0     O 2184   8.556  11.226   5.999  0.5625  0.1222  0.3563
   17MOL0     C 2185   8.421  11.201   6.013  0.3658  0.9313  0.4450
   17MOL0     C 2186   8.384  11.079   6.081 -0.3267  0.3197 -0.1048
   17MOL0     C 2187   8.251  11.041   6.085  0.3038  0.0725 -0.6960
   17MOL0     C 2188   8.212  10.916   6.162 -0.2228 -0.1983  0.4898
   17MOL0     C 2189   8.151  11.125   6.024  0.0219 -0.1912 -1.7510
   17MOL0     C 2190   7.998  11.111   6.041 -0.4062 -0.3474  0.5615
   17MOL0     O 2191   7.920  11.215   6.003 -0.1402 -0.3616  0.1120
   17MOL0     C 2192   7.786  11.203   5.988 -0.4029  0.3417 -0.5897
   17MOL0     C 2193   7.695  11.121   6.061 -0.1265  0.1655 -1.0407
   17MOL0     C 2194   7.556  11.128   6.033  0.2689  0.4178  0.0788
   17MOL0     C 2195   7.509  11.207   5.926 -0.6942 -0.1761  0.3282
   17MOL0     O 2196   7.373  11.198   5.906 -0.1876  0.1365  0.3023
   17MOL0     C 2197   7.321  11.270   5.797  0.4025  0.1120 -0.1941
   17MOL0     C 2198   7.177  11.221   5.776  0.3889  0.3178  0.0517
   17MOL0     C 2199   7.105  11.224   5.915  0.7533  1.4689 -0.3250
   17MOL0     C 2200   6.960  11.200   5.894 -0.8697 -0.2642 -0.1559
   17MOL0     C 2201   6.881  11.227   6.027  0.9286  0.3608  0.0046
   17MOL0     C 2202   6.734  11.207   5.995 -0.3484 -0.5189  0.1726
   17MOL0     C 2203   6.648  11.261   6.110 -0.4133 -0.3214 -0.7401
   17MOL0     C 2204   6.509  11.310   6.073 -0.6775 -0.4314  0.0750
   17MOL0    Cl 2205   6.512  11.411   5.924  0.3197  0.2952 -0.3826
   17MOL0     C 2206   7.604  11.293   5.857 -0.4949  0.5723 -0.3116
   17MOL0     C 2207   7.740  11.283   5.885  1.1455  0.6243 -0.0859
   17MOL0     O 2208   7.952  11.003   6.082  0.0462 -0.1044 -0.8640
   17MOL0     C 2209   8.197  11.249   5.967 -0.6523 -0.0340  0.8773
   17MOL0     C 2210   8.333  11.288   5.954 -0.4891 -0.2930  0.8946
   17MOL0     N 2211   8.671  10.971   6.489 -0.1559  0.7174  0.0281
   17MOL0     N 2212   8.768  10.906   6.543 -0.0253 -0.1079  0.0961
   17MOL0     C 2213  10.036  10.671   6.251 -0.6424  0.1118  0.3181
   17MOL0     C 2214  10.160  10.630   6.190  0.5515 -0.5096 -0.0639
   17MOL0     C 2215  10.522  10.583   6.011 -0.2369 -0.4228  1.3017
   17MOL0     C 2216  10.518  10.575   5.868 -0.0174 -0.3073  0.4891
   17MOL0     C 2217  10.616  10.627   5.785 -0.0425 -0.5586  0.2421
   17MOL0     C 2218  10.723  10.698   5.833 -0.3349 -0.6518 -0.1391
   17MOL0     O 2219  10.808  10.756   5.743 -0.0839 -0.3692  0.9287
   17MOL0     C 2220  10.778  10.897   5.728  0.0295  0.4574  0.2961
   17MOL0     C 2221  10.856  10.966   5.614 -0.3231 -0.0114 -1.6686
   17MOL0     C 2222  10.803  11.118   5.612 -0.0547  0.1224  0.4888
   17MOL0     C 2223  10.812  11.179   5.463  0.3314 -0.4841 -0.1745
   17MOL0     C 2224  10.687  11.135   5.394 -0.9552 -1.3831 -1.1526
   17MOL0     C 2225  10.588  11.097   5.340 -0.2991 -0.4110 -0.0221
   17MOL0     C 2226  10.720  10.723   5.970 -0.2382 -0.1020 -0.5190
   17MOL0     C 2227  10.633  10.667   6.058 -0.1444  0.4465  0.3981
   17MOL0     H 2228  10.340  10.574   6.463 -0.6856 -0.4503  0.7721
   17MOL0     H 2229  10.124  10.652   6.578  2.8136 -0.8742  0.6073
   17MOL0     H 2230   9.878  10.888   6.329 -0.1635 -0.1179 -0.2776
   17MOL0     H 2231   9.765  10.750   6.308  2.5475 -3.7268  0.5559
   17MOL0     H 2232   9.707  10.788   6.558  0.3867 -1.0041 -0.8579
   17MOL0     H 2233   9.801  10.933   6.549  0.9644  0.0337 -0.6823
   17MOL0     H 2234   9.589  11.016   6.498 -0.9978 -0.2198  0.0829
   17MOL0     H 2235   9.632  10.973   6.330 -1.7427  1.9442  0.7551
   17MOL0     H 2236   9.505  10.750   6.396  2.0441  1.3460 -0.1176
   17MOL0     H 2237   9.490  10.824   6.559 -0.5331 -3.1811 -0.1497
   17MOL0     H 2238   9.381  11.010   6.390  1.3016  0.4016  2.7004
   17MOL0     H 2239   9.319  10.844   6.336  0.2907  1.2202 -1.8725
   17MOL0     H 2240   9.215  10.790   6.533  0.7139 -0.9096  1.2191
   17MOL0     H 2241   9.306  10.927   6.612  0.8734  1.1708 -1.2177
   17MOL0     H 2242   9.154  11.092   6.518 -3.6784  0.2587  0.9694
   17MOL0     H 2243   9.098  10.972   6.400  0.5595  2.0757 -1.0314
   17MOL0     H 2244   9.042  10.983   6.701  0.9164  0.5031 -0.1214
   17MOL0     H 2245   9.008  10.834   6.613  1.2343  0.2367  1.2920
   17MOL0     H 2246   8.892  11.201   6.504  0.7243  0.2601  0.3909
   17MOL0     H 2247   8.524  11.184   6.414 -0.1304 -0.6327  1.1287
   17MOL0     H 2248   8.647  11.295   6.472 -2.3816 -2.2847  3.0060
   17MOL0     H 2249   8.661  11.149   6.215 -1.1015 -0.9527  0.3141
   17MOL0     H 2250   8.788  11.276   6.263 -0.6026  2.0669  0.3109
   17MOL0     H 2251   8.636  11.448   6.240  0.9691 -0.2672 -1.2659
   17MOL0     H 2252   8.491  11.347   6.234 -0.3550 -2.1595  0.4883
   17MOL0     H 2253   8.711  11.368   6.031  0.2360 -0.4745 -2.2888
   17MOL0     H 2254   8.550  11.435   6.008 -1.4672 -0.9713  0.5022
   17MOL0     H 2255   8.459  11.016   6.128 -2.3865 -0.6903  2.0040
   17MOL0     H 2256   8.128  10.932   6.231  0.9162  0.6442  1.7391
   17MOL0     H 2257   8.179  10.838   6.093  3.9521 -0.4326 -1.5389
   17MOL0     H 2258   8.300  10.887   6.220  2.5707  2.2103 -2.1499
   17MOL0     H 2259   7.722  11.061   6.147 -2.7187  0.7513  0.2610
   17MOL0     H 2260   7.471  11.073   6.071  0.2692 -1.5577 -2.4846
   17MOL0     H 2261   7.313  11.379   5.809 -3.9742  0.3085 -2.7723
   17MOL0     H 2262   7.387  11.241   5.715  0.5024  1.9523 -0.8146
   17MOL0     H 2263   7.135  11.276   5.692  3.6648  1.3690 -1.0725
   17MOL0     H 2264   7.182  11.114   5.752  0.4891  0.5066 -0.8047
   17MOL0     H 2265   7.130  11.321   5.957 -1.1205  2.0999 -0.5784
   17MOL0     H 2266   7.147  11.148   5.982 -2.3039 -0.9362 -0.8900
   17MOL0     H 2267   6.937  11.277   5.820 -1.2735 -1.3931 -1.2242
   17MOL0     H 2268   6.949  11.100   5.852 -1.2728 -0.6085  0.7332
   17MOL0     H 2269   6.903  11.323   6.074  0.2155  0.3439  0.4022
   17MOL0     H 2270   6.908  11.159   6.109  0.4065 -1.1806 -1.0514
   17MOL0     H 2271   6.704  11.262   5.905  0.3249  1.5880  1.1630
   17MOL0     H 2272   6.713  11.101   5.979  2.4659 -1.0211 -0.8038
   17MOL0     H 2273   6.705  11.340   6.160  0.2439 -0.1933 -1.6670
   17MOL0     H 2274   6.649  11.180   6.184  3.6169  2.0501  2.2213
   17MOL0     H 2275   6.466  11.372   6.153 -0.8777 -1.2138  0.5811
   17MOL0     H 2276   6.449  11.219   6.068  0.3843 -1.1879  0.7751
   17MOL0     H 2277   7.576  11.360   5.776  0.5704  2.2780  0.6608
   17MOL0     H 2278   7.808  11.332   5.817  0.4323  0.0338 -1.2515
   17MOL0     H 2279   8.127  11.320   5.925 -0.9086 -0.0146  1.3309
   17MOL0     H 2280   8.359  11.386   5.914  1.3642 -0.9276  0.4367
   17MOL0     H 2281   9.950  10.700   6.191 -1.2920  0.4872  1.3954
   17MOL0     H 2282  10.152  10.630   6.081  0.1487 -1.7750 -0.0440
   17MOL0     H 2283  10.432  10.529   5.821 -0.5591  2.8885 -2.0096
   17MOL0     H 2284  10.611  10.600   5.680  1.7453 -2.1986  0.5261
   17MOL0     H 2285  10.669  10.912   5.728 -0.1820 -0.9242  0.5979
   17MOL0     H 2286  10.806  10.946   5.822  0.1078 -0.3040  0.6723
   17MOL0     H 2287  10.848  10.921   5.515  1.0905  1.2672 -2.3992
   17MOL0     H 2288  10.956  10.951   5.656 -1.8666 -1.3711  1.9339
   17MOL0     H 2289  10.862  11.183   5.679  0.0937 -0.0303  0.5080
   17MOL0     H 2290  10.704  11.135   5.655  1.1296  1.8284  2.8162
   17MOL0     H 2291  10.904  11.148   5.413  0.4175  0.3965 -0.5814
   17MOL0     H 2292  10.810  11.285   5.440 -2.7044 -0.9164 -2.4035
   17MOL0     H 2293  10.494  11.077   5.294 -1.9282  1.5167  2.1944
   17MOL0     H 2294  10.789  10.788   6.022  0.1456  0.0902 -1.2650
   17MOL0     H 2295  10.644  10.681   6.165  0.7958 -2.7364  0.8110
   18MOL0     O 2296   4.585   1.742   4.739 -0.0887  0.0799  0.3226
   18MOL0     C 2297   4.703   1.748   4.706 -0.4147 -0.4224  0.5883
   18MOL0     O 2298   4.778   1.641   4.655  0.0916 -0.1423  0.6155
   18MOL0     C 2299   4.716   1.535   4.603 -0.1044  0.6972  0.2248
   18MOL0     C 2300   4.791   1.412   4.611 -0.0202 -0.8955 -0.1408
   18MOL0     C 2301   4.758   1.300   4.536 -0.4399  0.1960 -1.5878
   18MOL0     C 2302   4.633   1.302   4.459  1.0805 -0.3598 -0.3261
   18MOL0     O 2303   4.573   1.203   4.383  0.0837  0.1803  0.7084
   18MOL0     C 2304   4.667   1.113   4.315 -0.0576 -0.6285  0.6242
   18MOL0     C 2305   4.622   1.094   4.161 -0.7663  0.4618  0.6183
   18MOL0     C 2306   4.501   1.002   4.145  0.4543 -0.3280  0.3415
   18MOL0     C 2307   4.405   1.035   4.028  0.5437 -0.0415  0.6238
   18MOL0     C 2308   4.334   1.179   4.032 -0.4651 -0.4140 -0.1036
   18MOL0     C 2309   4.267   1.214   4.161  0.0894 -0.3829 -0.7210
   18MOL0     C 2310   4.145   1.314   4.159  0.2741 -0.1208 -0.0616
   18MOL0     C 2311   4.024   1.237   4.109  0.3075 -0.1916 -0.2068
   18MOL0     N 2312   3.920   1.228   4.221  0.2719  0.0893  0.6783
   18MOL0     C 2313   3.800   1.297   4.233  0.5730  0.1253 -0.1600
   18MOL0     C 2314   3.748   1.245   4.347 -0.4279  0.6593 -0.1665
   18MOL0     C 2315   3.611   1.260   4.402 -0.1672 -0.4590 -0.4197
   18MOL0     C 2316   3.488   1.249   4.306  0.6207  0.4978 -0.6295
   18MOL0     C 2317   3.446   1.106   4.277  0.1742 -0.2682  0.3328
   18MOL0     C 2318   3.301   1.095   4.236 -0.4906 -0.3513  0.2119
   18MOL0     O 2319   3.302   0.979   4.152  0.7764 -0.3789  0.0873
   18MOL0     C 2320   3.205   0.888   4.186  0.8570 -0.9732  0.2416
   18MOL0     C 2321   3.225   0.802   4.293  0.2048 -0.0732  0.1697
   18MOL0     C 2322   3.128   0.709   4.339 -1.0850  0.1299 -0.8518
   18MOL0     C 2323   3.164   0.621   4.456 -0.5765 -0.7245  0.2610
   18MOL0     C 2324   3.000   0.716   4.281 -0.2848 -0.4006 -0.1403
   18MOL0     C 2325   2.877   0.648   4.320 -0.2111  0.4149 -0.7571
   18MOL0     O 2326   2.811   0.614   4.206  0.9437  0.8637  0.4139
   18MOL0     C 2327   2.681   0.575   4.219 -0.3420  0.6998  0.5695
   18MOL0     C 2328   2.661   0.441   4.274 -0.7138  0.0211  0.0152
   18MOL0     C 2329   2.527   0.398   4.282  0.4570 -0.1811 -0.7387
   18MOL0     C 2330   2.424   0.474   4.227  0.2930 -0.1011  0.0090
   18MOL0     O 2331   2.302   0.414   4.237 -0.2136  0.6677  0.4120
   18MOL0     C 2332   2.187   0.501   4.229  0.4710 -0.3416  0.6657
   18MOL0     C 2333   2.065   0.410   4.259 -0.2427  0.3527 -0.0019
   18MOL0     C 2334   1.927   0.482   4.251 -0.2743 -0.4576 -0.3479
   18MOL0     C 2335   1.876   0.530   4.112 -0.7585 -0.2752  0.7150
   18MOL0     C 2336   1.745   0.587   4.137  0.0233 -0.0506 -0.3938
   18MOL0     C 2337   1.692   0.651   4.004  0.0639  0.9339  0.3256
   18MOL0     C 2338   1.549   0.699   4.017  0.2806  0.0428  0.3622
   18MOL0     C 2339   1.541   0.804   4.120  0.0194 -0.2066  0.0220
   18MOL0    Cl 2340   1.636   0.959   4.072  0.0533  0.2394  0.0913
   18MOL0     C 2341   2.450   0.598   4.164  0.4874 -0.7306 -0.1610
   18MOL0     C 2342   2.578   0.652   4.170 -0.2811  0.4612  0.1253
   18MOL0     O 2343   2.859   0.605   4.431  0.3004 -0.9366  1.4281
   18MOL0     C 2344   2.981   0.812   4.168 -0.1678 -0.2713 -0.1870
   18MOL0     C 2345   3.084   0.891   4.124  1.5344 -0.7609  0.4448
   18MOL0     N 2346   3.839   1.140   4.396  0.0388  0.3875 -0.9387
   18MOL0     N 2347   3.946   1.150   4.327 -0.5580 -0.6841 -0.6598
   18MOL0     C 2348   4.557   1.424   4.451 -0.2358  0.2220  0.7536
   18MOL0     C 2349   4.602   1.536   4.512 -0.8561 -0.3088 -0.6262
   18MOL0     C 2350   4.761   1.886   4.707  0.7179  0.1634  0.5622
   18MOL0     C 2351   4.899   1.902   4.686  0.0100 -0.3871 -0.1662
   18MOL0     C 2352   4.948   2.033   4.672  0.2739  0.0750  0.4465
   18MOL0     C 2353   4.867   2.147   4.679 -0.3090 -0.2847  0.3812
   18MOL0     O 2354   4.906   2.275   4.649 -0.4853 -0.0271  0.1667
   18MOL0     C 2355   4.860   2.376   4.741  0.3874 -0.0205 -0.1110
   18MOL0     C 2356   4.969   2.474   4.794 -0.2252  0.0192 -0.4328
   18MOL0     C 2357   5.042   2.553   4.685 -0.4858  0.1615  0.3015
   18MOL0     C 2358   5.110   2.497   4.559 -0.1554 -0.0870 -0.2816
   18MOL0     C 2359   5.189   2.610   4.508  0.0419 -0.4458 -0.4382
   18MOL0     C 2360   5.259   2.698   4.462 -0.1995 -0.4123  0.0908
   18MOL0     C 2361   4.735   2.129   4.711 -0.3277  0.1430 -0.6459
   18MOL0     C 2362   4.682   2.004   4.733  1.2081 -0.8099  0.6235
   18MOL0     H 2363   4.893   1.400   4.648  0.8137  1.2621 -1.5348
   18MOL0     H 2364   4.818   1.211   4.551  1.5915  1.7137 -0.1750
   18MOL0     H 2365   4.766   1.159   4.327 -1.0590  1.4172  1.6869
   18MOL0     H 2366   4.686   1.017   4.363 -0.0399 -1.2442 -0.5616
   18MOL0     H 2367   4.602   1.193   4.121  1.4504 -0.1926 -2.4827
   18MOL0     H 2368   4.709   1.051   4.109  1.3682  4.2102  0.7441
   18MOL0     H 2369   4.538   0.899   4.132 -2.9136 -1.6107 -0.1525
   18MOL0     H 2370   4.439   1.010   4.234  1.1748  1.9333  0.7049
   18MOL0     H 2371   4.454   1.034   3.930  4.4328  1.2069  2.3614
   18MOL0     H 2372   4.336   0.951   4.020  0.5185 -0.0265  0.6838
   18MOL0     H 2373   4.410   1.252   4.003 -1.7327  0.6806 -0.7434
   18MOL0     H 2374   4.259   1.187   3.952 -1.0523  0.3093  0.5085
   18MOL0     H 2375   4.224   1.124   4.205 -1.8616  0.8106 -0.0688
   18MOL0     H 2376   4.351   1.239   4.227 -0.5636 -1.6991  0.6739
   18MOL0     H 2377   4.119   1.346   4.261  2.2550  1.3349  0.0400
   18MOL0     H 2378   4.160   1.402   4.096 -1.8286 -0.3594 -0.9777
   18MOL0     H 2379   4.052   1.133   4.092  1.0675 -0.4657  2.3343
   18MOL0     H 2380   3.975   1.281   4.022 -1.7912  1.1990  1.5713
   18MOL0     H 2381   3.753   1.362   4.160 -0.6532 -0.7729 -0.2035
   18MOL0     H 2382   3.594   1.197   4.490 -2.9034  1.3691  0.4955
   18MOL0     H 2383   3.604   1.367   4.422  0.7264 -0.4511 -0.0960
   18MOL0     H 2384   3.520   1.308   4.220 -0.2498  2.6207  0.4073
   18MOL0     H 2385   3.405   1.307   4.348  2.5805  2.1618  1.1847
   18MOL0     H 2386   3.460   1.042   4.365 -0.8532 -0.2077  0.5576
   18MOL0     H 2387   3.520   1.075   4.202 -0.5881  1.1928 -1.0792
   18MOL0     H 2388   3.264   1.182   4.181  1.3416  0.4991  0.2559
   18MOL0     H 2389   3.233   1.089   4.322  0.1808  0.7236  0.8481
   18MOL0     H 2390   3.326   0.799   4.335  0.8592 -0.4336 -1.3782
   18MOL0     H 2391   3.259   0.568   4.440 -0.8626 -1.8361  1.9761
   18MOL0     H 2392   3.170   0.691   4.540 -4.3976  1.2202 -0.8842
   18MOL0     H 2393   3.093   0.539   4.473 -4.3312  2.2173  0.1614
   18MOL0     H 2394   2.749   0.393   4.315 -0.8981  0.3805  0.8501
   18MOL0     H 2395   2.490   0.307   4.330  1.2921 -0.8699 -1.3711
   18MOL0     H 2396   2.199   0.576   4.307  0.9407 -1.5914  1.8266
   18MOL0     H 2397   2.183   0.550   4.131  0.0120  1.9108  1.7426
   18MOL0     H 2398   2.074   0.325   4.190  2.0642 -0.2137  0.9021
   18MOL0     H 2399   2.078   0.372   4.361  0.8847  1.7262  0.4069
   18MOL0     H 2400   1.924   0.571   4.315  1.9897  0.0911 -0.9143
   18MOL0     H 2401   1.844   0.418   4.283  0.1065 -0.4054  0.8135
   18MOL0     H 2402   1.945   0.609   4.081 -1.4541  1.8774  4.1653
   18MOL0     H 2403   1.861   0.451   4.037  0.5249  0.9111 -0.8785
   18MOL0     H 2404   1.757   0.663   4.214  1.7402 -1.1607  0.4928
   18MOL0     H 2405   1.676   0.512   4.177  0.4978 -1.0115 -1.3181
   18MOL0     H 2406   1.762   0.732   3.980  2.5086 -0.3524  2.5096
   18MOL0     H 2407   1.707   0.579   3.923 -3.0662  0.0715  0.4031
   18MOL0     H 2408   1.483   0.617   4.047 -2.3446  1.2798 -1.5939
   18MOL0     H 2409   1.513   0.749   3.926  1.9196 -0.1997 -0.4659
   18MOL0     H 2410   1.575   0.779   4.221 -1.0589 -0.9688  0.2109
   18MOL0     H 2411   1.435   0.830   4.122  0.1848  0.4688  2.2235
   18MOL0     H 2412   2.371   0.666   4.134  2.5250  1.6486 -0.4888
   18MOL0     H 2413   2.601   0.752   4.135 -1.2211  0.0921 -1.6634
   18MOL0     H 2414   2.884   0.835   4.125 -0.0856 -1.1744 -0.8781
   18MOL0     H 2415   3.073   0.962   4.043  0.3251  0.0091  1.2493
   18MOL0     H 2416   4.466   1.427   4.392 -0.4430 -0.9672  0.9924
   18MOL0     H 2417   4.543   1.623   4.489 -1.7828 -1.3094 -2.2336
   18MOL0     H 2418   4.970   1.821   4.694  2.0317  1.2106 -1.1957
   18MOL0     H 2419   5.056   2.044   4.659  0.4461 -2.3452 -0.7132
   18MOL0     H 2420   4.772   2.422   4.695 -1.6132 -2.3913  1.1265
   18MOL0     H 2421   4.820   2.337   4.835  1.3116 -0.5385  0.0797
   18MOL0     H 2422   5.042   2.417   4.853  0.0521 -1.1773 -1.8635
   18MOL0     H 2423   4.922   2.551   4.855 -0.5482 -2.5746  2.8461
   18MOL0     H 2424   5.122   2.598   4.745 -1.2655 -0.2964  1.7296
   18MOL0     H 2425   4.985   2.642   4.657 -0.6958  0.4640  1.6345
   18MOL0     H 2426   5.039   2.454   4.488 -1.3744 -0.0120  0.8342
   18MOL0     H 2427   5.178   2.416   4.587  1.9620  0.7359 -2.7277
   18MOL0     H 2428   5.319   2.779   4.425 -0.8652  0.4268  0.8087
   18MOL0     H 2429   4.662   2.210   4.712 -1.8635 -1.1103 -2.6484
   18MOL0     H 2430   4.576   1.990   4.751  0.6812 -1.5211 -2.4647
   19MOL0     O 2431   1.104   8.796   3.154 -0.4132 -0.6173 -0.3129
   19MOL0     C 2432   1.031   8.704   3.185  0.3779 -0.6777 -0.4582
   19MOL0     O 2433   1.070   8.584   3.234 -0.1561 -0.3016  0.0495
   19MOL0     C 2434   1.199   8.550   3.274  0.8415  0.3407  1.2217
   19MOL0     C 2435   1.320   8.616   3.247 -0.0742  0.2339  0.4117
   19MOL0     C 2436   1.438   8.556   3.276  0.3367  0.7684  0.7088
   19MOL0     C 2437   1.450   8.437   3.338 -0.4835 -0.1224  0.1967
   19MOL0     O 2438   1.576   8.385   3.361  0.5977 -0.2794 -0.4394
   19MOL0     C 2439   1.606   8.387   3.505  0.0905 -0.3571  0.3552
   19MOL0     C 2440   1.737   8.320   3.536 -1.1919  0.4879 -0.1797
   19MOL0     C 2441   1.775   8.177   3.480  0.4125 -0.7907  0.7995
   19MOL0     C 2442   1.920   8.140   3.515  0.4440 -0.4074 -0.5306
   19MOL0     C 2443   2.017   8.222   3.426 -0.5811  0.7507 -0.5222
   19MOL0     C 2444   2.166   8.176   3.416  0.4355 -0.1908  0.9264
   19MOL0     C 2445   2.184   8.105   3.286 -0.0447  0.2957 -0.4642
   19MOL0     C 2446   2.128   7.959   3.296 -0.0804 -0.9629  0.4479
   19MOL0     N 2447   2.137   7.887   3.164  0.1780 -0.5776 -0.1669
   19MOL0     C 2448   2.076   7.921   3.043  0.3629 -0.1202 -0.1343
   19MOL0     C 2449   2.067   7.809   2.970 -0.3122  0.5168  0.1670
   19MOL0     C 2450   2.006   7.784   2.836 -0.5405  0.3503 -0.5763
   19MOL0     C 2451   1.909   7.894   2.782 -0.1303  0.1361 -1.2007
   19MOL0     C 2452   1.778   7.881   2.861 -0.7903 -0.2961  0.6760
   19MOL0     C 2453   1.682   7.982   2.799 -0.3788 -0.2560 -0.6091
   19MOL0     O 2454   1.551   7.973   2.859  0.3203  0.2940  0.3414
   19MOL0     C 2455   1.440   8.015   2.792 -0.0462 -0.1662 -0.0695
   19MOL0     C 2456   1.319   7.945   2.808 -0.1413  0.3798  0.9495
   19MOL0     C 2457   1.199   7.989   2.745 -1.1559 -0.2760  0.3551
   19MOL0     C 2458   1.072   7.920   2.766  0.1732 -0.2291  0.5084
   19MOL0     C 2459   1.209   8.109   2.663  0.8195  1.5439  0.4465
   19MOL0     C 2460   1.094   8.181   2.597  0.4218  0.7784 -0.8470
   19MOL0     O 2461   0.992   8.113   2.547  0.5358  0.3761  1.1669
   19MOL0     C 2462   0.880   8.183   2.509  0.9044 -0.1727 -0.1703
   19MOL0     C 2463   0.800   8.253   2.609 -1.1888 -0.2989  0.2542
   19MOL0     C 2464   0.683   8.319   2.573 -0.0808  0.7356  0.3565
   19MOL0     C 2465   0.639   8.319   2.439  0.6716  0.1330  0.7960
   19MOL0     O 2466   0.530   8.398   2.409 -0.2325 -0.1542 -0.1206
   19MOL0     C 2467   0.472   8.409   2.284 -0.5150 -0.5663  0.4793
   19MOL0     C 2468   0.342   8.498   2.287 -0.5987  0.7519  0.4304
   19MOL0     C 2469   0.230   8.460   2.388  0.5317 -0.3775  0.3666
   19MOL0     C 2470   0.171   8.574   2.461  0.5933  0.0992 -0.2413
   19MOL0     C 2471   0.296   8.649   2.530  0.7022 -0.2038  0.5730
   19MOL0     C 2472   0.244   8.670   2.673  0.2065  0.0928  0.2953
   19MOL0     C 2473   0.347   8.742   2.763  0.8143 -0.2523  0.0968
   19MOL0     C 2474   0.294   8.884   2.802 -0.0433  0.3659 -0.3387
   19MOL0    Cl 2475   0.134   8.874   2.876  0.4618 -0.5685 -0.1204
   19MOL0     C 2476   0.719   8.257   2.340  0.0966 -0.5856  0.1404
   19MOL0     C 2477   0.840   8.187   2.371  0.1818 -0.2513 -0.5623
   19MOL0     O 2478   1.104   8.301   2.598  0.6154 -0.7210  0.1651
   19MOL0     C 2479   1.331   8.179   2.656 -0.6068  0.4869 -0.4614
   19MOL0     C 2480   1.449   8.131   2.724 -0.3839  0.3480 -0.0444
   19MOL0     N 2481   2.143   7.721   3.041 -0.2305 -0.9224 -0.6373
   19MOL0     N 2482   2.181   7.761   3.160 -0.1563 -0.3444 -0.2672
   19MOL0     C 2483   1.334   8.376   3.373  0.0128  0.8718 -0.4271
   19MOL0     C 2484   1.207   8.430   3.340 -0.4172 -0.2081 -0.3943
   19MOL0     C 2485   0.881   8.731   3.194 -1.1598  0.5950  0.3547
   19MOL0     C 2486   0.784   8.653   3.246  1.0988 -0.3382  0.5938
   19MOL0     C 2487   0.647   8.687   3.237 -0.0081  0.4332 -0.2409
   19MOL0     C 2488   0.607   8.796   3.165  0.2232 -0.8881  0.3423
   19MOL0     O 2489   0.476   8.842   3.150 -0.6883 -0.2781  0.6095
   19MOL0     C 2490   0.370   8.763   3.197  0.3527  0.2273 -0.6293
   19MOL0     C 2491   0.246   8.846   3.193 -0.3971 -0.2666 -0.3670
   19MOL0     C 2492   0.263   8.975   3.270 -0.1967  0.4353 -1.6030
   19MOL0     C 2493   0.136   9.062   3.283  0.2734  0.2032 -1.2980
   19MOL0     C 2494   0.060   9.010   3.398  0.2465 -0.1784 -0.6049
   19MOL0     C 2495   0.001   8.960   3.492  0.5420  0.0361  0.6481
   19MOL0     C 2496   0.704   8.884   3.119  0.2005 -0.1249  0.1686
   19MOL0     C 2497   0.843   8.853   3.128  0.1874  0.1639  0.3097
   19MOL0     H 2498   1.316   8.707   3.189  0.0114 -0.6429 -1.0330
   19MOL0     H 2499   1.532   8.589   3.233 -0.0412 -1.1595 -1.8222
   19MOL0     H 2500   1.609   8.491   3.537  0.8365 -0.0787 -0.5801
   19MOL0     H 2501   1.535   8.341   3.574 -0.6404  0.7226  0.3310
   19MOL0     H 2502   1.807   8.383   3.481 -0.3969  1.3610  1.7387
   19MOL0     H 2503   1.755   8.324   3.644  2.2533  4.4561 -0.6422
   19MOL0     H 2504   1.716   8.095   3.523  0.7595 -0.8252  1.2161
   19MOL0     H 2505   1.757   8.165   3.372 -1.1569 -0.3251  0.9906
   19MOL0     H 2506   1.935   8.156   3.622  1.1906  0.8453 -0.8075
   19MOL0     H 2507   1.947   8.036   3.495 -0.5865 -1.2744  2.0985
   19MOL0     H 2508   1.977   8.228   3.325  0.5460 -1.5530 -1.1867
   19MOL0     H 2509   2.018   8.327   3.457  3.1147  1.1761 -1.5614
   19MOL0     H 2510   2.224   8.268   3.405 -0.9201  0.7379  1.2809
   19MOL0     H 2511   2.193   8.119   3.506  0.5380  0.2579  1.1842
   19MOL0     H 2512   2.134   8.157   3.205 -3.2564 -0.3556  0.9430
   19MOL0     H 2513   2.292   8.100   3.267  0.4749  3.3079  1.0431
   19MOL0     H 2514   2.021   7.960   3.320 -0.3218  2.9480 -0.1681
   19MOL0     H 2515   2.188   7.911   3.374  3.8023  0.1673 -1.5763
   19MOL0     H 2516   2.035   8.018   3.016 -0.1264  0.0370  1.1133
   19MOL0     H 2517   2.077   7.753   2.759 -1.6046 -1.0909 -1.0343
   19MOL0     H 2518   1.941   7.696   2.843 -0.8809  0.4700 -1.9901
   19MOL0     H 2519   1.894   7.870   2.676  0.3969  0.6233 -1.3942
   19MOL0     H 2520   1.951   7.995   2.792 -1.3547  0.3886  3.0130
   19MOL0     H 2521   1.793   7.912   2.965  1.4351 -0.5282  0.4857
   19MOL0     H 2522   1.747   7.778   2.879 -0.1292 -0.0406  4.0998
   19MOL0     H 2523   1.678   7.970   2.690 -0.0407 -1.1056 -0.5400
   19MOL0     H 2524   1.723   8.081   2.817 -2.2148  0.1997  1.4725
   19MOL0     H 2525   1.303   7.863   2.877  0.1701 -1.0629 -0.6321
   19MOL0     H 2526   1.011   7.900   2.677  1.8081 -2.5663 -0.1813
   19MOL0     H 2527   1.094   7.823   2.811 -2.1310 -0.9253  0.2945
   19MOL0     H 2528   1.005   7.969   2.837  0.0354  1.1382 -0.5258
   19MOL0     H 2529   0.825   8.255   2.714 -2.5841  3.6178  0.6795
   19MOL0     H 2530   0.618   8.365   2.646 -1.5154 -0.1610 -0.3101
   19MOL0     H 2531   0.539   8.463   2.217 -1.4700  1.3016  0.9556
   19MOL0     H 2532   0.460   8.309   2.244  0.0308 -0.3830 -0.1660
   19MOL0     H 2533   0.381   8.599   2.301  0.5812  0.1399  1.7842
   19MOL0     H 2534   0.286   8.490   2.193 -1.4383  1.9516  0.8140
   19MOL0     H 2535   0.266   8.389   2.463 -1.2629 -0.0799  1.5668
   19MOL0     H 2536   0.144   8.423   2.332 -0.0531  3.4080 -1.5808
   19MOL0     H 2537   0.112   8.635   2.392  0.0297  1.2935  1.2546
   19MOL0     H 2538   0.098   8.536   2.532 -1.7587 -0.4116 -2.7662
   19MOL0     H 2539   0.320   8.739   2.472  5.3483  0.7580  3.4365
   19MOL0     H 2540   0.395   8.603   2.534  0.0793 -1.7330 -0.6963
   19MOL0     H 2541   0.150   8.726   2.673 -0.2510 -0.6574  0.2055
   19MOL0     H 2542   0.227   8.568   2.710 -0.9363 -0.8098 -2.3906
   19MOL0     H 2543   0.441   8.764   2.712 -0.1019  2.9836 -0.3710
   19MOL0     H 2544   0.373   8.682   2.851  2.1482 -1.3167 -0.9609
   19MOL0     H 2545   0.284   8.946   2.712  0.0137  0.1257 -0.5131
   19MOL0     H 2546   0.359   8.943   2.868 -1.1231  0.8104  0.3434
   19MOL0     H 2547   0.682   8.249   2.238 -3.5855 -2.6822  1.4698
   19MOL0     H 2548   0.895   8.147   2.286  3.2626 -0.9581  1.5756
   19MOL0     H 2549   1.340   8.273   2.601  3.5427  0.9746  0.6982
   19MOL0     H 2550   1.538   8.193   2.726 -1.5320  2.0784  2.3361
   19MOL0     H 2551   1.330   8.281   3.426 -1.0098 -0.2805 -2.4547
   19MOL0     H 2552   1.120   8.371   3.369  1.7669 -2.8965  1.2417
   19MOL0     H 2553   0.810   8.557   3.288 -0.3743 -1.3239 -0.6227
   19MOL0     H 2554   0.570   8.615   3.263 -0.2890  0.4930 -0.8810
   19MOL0     H 2555   0.354   8.669   3.145 -3.2034 -2.1628  3.9967
   19MOL0     H 2556   0.397   8.734   3.299 -3.0626 -0.9769  0.0555
   19MOL0     H 2557   0.163   8.789   3.235  1.3651 -1.8733  1.1006
   19MOL0     H 2558   0.210   8.869   3.092 -3.2471 -3.1673 -0.2027
   19MOL0     H 2559   0.350   9.034   3.240  0.0443  1.4475  0.8049
   19MOL0     H 2560   0.299   8.937   3.366 -0.8911  1.8952 -0.7348
   19MOL0     H 2561   0.079   9.056   3.190  1.2946  1.3177 -2.0184
   19MOL0     H 2562   0.147   9.170   3.297 -1.6113  0.7576 -3.5214
   19MOL0     H 2563  -0.049   8.920   3.578 -2.2664  2.1991  0.1844
   19MOL0     H 2564   0.659   8.971   3.071 -2.4381 -1.5231 -0.0643
   19MOL0     H 2565   0.922   8.911   3.082 -0.0909 -1.7283 -2.9129
   20MOL0     O 2566   3.582   4.941   5.762  0.6861 -0.1635 -0.6525
   20MOL0     C 2567   3.597   5.005   5.657 -0.8710  0.3654  1.0566
   20MOL0     O 2568   3.498   5.011   5.565  0.7258 -1.0423 -0.7306
   20MOL0     C 2569   3.382   4.943   5.581 -0.2305 -0.2196 -0.7538
   20MOL0     C 2570   3.383   4.809   5.547 -0.0903 -0.2435  0.4525
   20MOL0     C 2571   3.266   4.733   5.547 -0.0583 -0.3578 -0.0143
   20MOL0     C 2572   3.151   4.789   5.596  0.5167  0.0464 -0.3869
   20MOL0     O 2573   3.041   4.703   5.631 -0.2852  0.5236 -0.2714
   20MOL0     C 2574   2.914   4.747   5.599 -0.8627  1.0554 -0.1079
   20MOL0     C 2575   2.830   4.617   5.592 -0.7694  0.2120  0.1572
   20MOL0     C 2576   2.690   4.641   5.547 -0.0436  0.1845 -0.2035
   20MOL0     C 2577   2.588   4.687   5.650  0.6900 -0.1198 -0.2670
   20MOL0     C 2578   2.433   4.703   5.610  0.6632 -0.9145  0.6874
   20MOL0     C 2579   2.377   4.575   5.554 -1.0924  0.0386 -0.1172
   20MOL0     C 2580   2.382   4.574   5.401  0.0264  0.3650 -0.2619
   20MOL0     C 2581   2.357   4.448   5.336 -0.2574 -1.0663  0.7006
   20MOL0     N 2582   2.234   4.387   5.387 -0.4219 -0.5048 -0.9945
   20MOL0     C 2583   2.223   4.307   5.494 -1.0199  0.0717 -0.7330
   20MOL0     C 2584   2.097   4.262   5.494  1.4690  0.1260 -0.2903
   20MOL0     C 2585   2.046   4.156   5.581  0.5675  0.0549 -0.9693
   20MOL0     C 2586   1.910   4.174   5.654  0.5502 -0.4175 -0.3002
   20MOL0     C 2587   1.888   4.111   5.800  0.9963 -1.1625 -0.3852
   20MOL0     C 2588   1.727   4.114   5.831 -0.2765  0.1845  1.0008
   20MOL0     O 2589   1.676   4.252   5.833  0.3617  0.7415  0.2370
   20MOL0     C 2590   1.542   4.258   5.871 -0.0813  0.2449  0.1045
   20MOL0     C 2591   1.480   4.382   5.838 -0.2435  0.2755 -0.0821
   20MOL0     C 2592   1.338   4.397   5.852 -0.4902  0.7816  0.3398
   20MOL0     C 2593   1.292   4.530   5.825 -0.5239 -0.3202 -0.1810
   20MOL0     C 2594   1.260   4.295   5.915  0.8567 -0.0494 -0.7319
   20MOL0     C 2595   1.112   4.307   5.948 -0.1689 -0.5552 -0.3323
   20MOL0     O 2596   1.040   4.417   5.901  0.6935 -0.4751  0.1569
   20MOL0     C 2597   0.919   4.436   5.960 -0.3224  1.0740  0.8766
   20MOL0     C 2598   0.803   4.368   5.911  1.1663 -0.0240  0.4113
   20MOL0     C 2599   0.675   4.395   5.971 -0.6822  0.2540  0.5105
   20MOL0     C 2600   0.652   4.479   6.071  0.9509 -0.1395 -0.1824
   20MOL0     O 2601   0.518   4.496   6.115 -0.1441  1.0027 -0.1194
   20MOL0     C 2602   0.494   4.506   6.252 -0.1545 -0.3284 -0.5353
   20MOL0     C 2603   0.428   4.641   6.263  0.4218  0.4388 -0.3912
   20MOL0     C 2604   0.528   4.757   6.250 -0.7641  0.2716  0.0305
   20MOL0     C 2605   0.449   4.890   6.246 -0.1729 -0.2095 -0.1014
   20MOL0     C 2606   0.514   5.011   6.324  0.4020  0.1551  0.3168
   20MOL0     C 2607   0.638   5.075   6.245  0.1388 -0.1577  0.4573
   20MOL0     C 2608   0.600   5.155   6.123  0.1095 -0.0266  0.1949
   20MOL0     C 2609   0.704   5.233   6.041  0.2051  0.5425 -0.3205
   20MOL0    Cl 2610   0.730   5.391   6.124 -0.4272  0.2428  0.1494
   20MOL0     C 2611   0.764   4.551   6.116  0.0475  0.2380 -0.4180
   20MOL0     C 2612   0.898   4.531   6.061  0.1982 -0.4435 -0.4437
   20MOL0     O 2613   1.067   4.217   6.022  0.2970 -1.0425  0.4210
   20MOL0     C 2614   1.328   4.172   5.948 -0.1881 -0.0773  0.5501
   20MOL0     C 2615   1.462   4.150   5.914  0.0064  0.5740  0.4006
   20MOL0     N 2616   2.031   4.322   5.393  0.9375  0.4349 -0.1983
   20MOL0     N 2617   2.107   4.403   5.330 -0.1518 -0.0593  0.2965
   20MOL0     C 2618   3.151   4.928   5.631  1.2224 -0.8800  0.1654
   20MOL0     C 2619   3.270   5.003   5.638  0.0191  0.3155  0.1205
   20MOL0     C 2620   3.720   5.079   5.637 -0.2502  0.6186 -0.4787
   20MOL0     C 2621   3.855   5.040   5.685 -0.2236 -0.0550 -0.1937
   20MOL0     C 2622   3.967   5.119   5.660  0.8061  0.7002 -0.1513
   20MOL0     C 2623   3.956   5.244   5.607  0.0841 -0.4653 -0.1040
   20MOL0     O 2624   4.058   5.331   5.606  0.7673 -0.2800  0.6662
   20MOL0     C 2625   4.185   5.312   5.679  1.5383 -0.5536 -0.5494
   20MOL0     C 2626   4.264   5.439   5.700  0.3168  0.6249 -0.2623
   20MOL0     C 2627   4.183   5.553   5.771 -0.2780 -0.3950  0.2331
   20MOL0     C 2628   4.278   5.677   5.797 -0.4687  1.3277 -0.0937
   20MOL0     C 2629   4.411   5.642   5.854 -0.4486  0.4926 -0.9204
   20MOL0     C 2630   4.521   5.613   5.898 -0.5780  0.1867 -0.5058
   20MOL0     C 2631   3.826   5.283   5.571 -0.7761  0.8270 -0.5862
   20MOL0     C 2632   3.717   5.209   5.577  0.2893  1.0247 -0.6782
   20MOL0     H 2633   3.476   4.767   5.511  1.1102 -0.5167  3.5480
   20MOL0     H 2634   3.266   4.628   5.520  1.1641  0.3763 -3.4163
   20MOL0     H 2635   2.880   4.808   5.683  2.5326  1.2878  1.2595
   20MOL0     H 2636   2.918   4.804   5.506  0.8179  1.3802  0.1420
   20MOL0     H 2637   2.884   4.541   5.536  0.6417  1.5703 -0.4086
   20MOL0     H 2638   2.826   4.579   5.694 -3.1407 -1.8665 -0.6110
   20MOL0     H 2639   2.689   4.716   5.468  0.2926 -1.0451 -1.4187
   20MOL0     H 2640   2.657   4.548   5.499 -0.8875 -0.2036  1.0734
   20MOL0     H 2641   2.587   4.607   5.724 -1.4701 -1.7269 -1.8983
   20MOL0     H 2642   2.618   4.779   5.701  0.5523 -0.7603  1.0098
   20MOL0     H 2643   2.379   4.742   5.696 -0.6214  4.6377 -2.2092
   20MOL0     H 2644   2.420   4.782   5.536  1.3875 -2.4484 -1.1761
   20MOL0     H 2645   2.429   4.487   5.593 -0.8214 -0.5198 -1.6656
   20MOL0     H 2646   2.270   4.573   5.578 -1.4115 -1.2510 -1.4846
   20MOL0     H 2647   2.316   4.653   5.366 -0.1604  1.1616  1.7697
   20MOL0     H 2648   2.478   4.607   5.360  0.2919 -0.1804 -0.0886
   20MOL0     H 2649   2.439   4.377   5.352 -0.1563 -0.7415  1.6514
   20MOL0     H 2650   2.349   4.466   5.228 -0.8538 -1.5253  0.6592
   20MOL0     H 2651   2.300   4.282   5.567  0.2056  1.9435 -1.3147
   20MOL0     H 2652   2.039   4.064   5.523  0.0244  0.4199 -1.4869
   20MOL0     H 2653   2.120   4.130   5.658  0.2053  1.4399 -0.1108
   20MOL0     H 2654   1.829   4.141   5.587 -0.1846  2.0687 -0.7402
   20MOL0     H 2655   1.900   4.282   5.666 -1.3746 -0.3679 -1.6964
   20MOL0     H 2656   1.944   4.180   5.863  1.0503  1.7875 -3.3340
   20MOL0     H 2657   1.936   4.013   5.798  0.1977 -1.5543 -0.7738
   20MOL0     H 2658   1.717   4.076   5.933  0.0371  1.5027  1.5441
   20MOL0     H 2659   1.674   4.055   5.756  0.8671  0.1230  0.2171
   20MOL0     H 2660   1.537   4.470   5.812  1.4733 -0.5283  0.8009
   20MOL0     H 2661   1.260   4.574   5.920 -2.0818 -2.3114  0.2673
   20MOL0     H 2662   1.373   4.597   5.792  0.2157 -1.7164 -1.3077
   20MOL0     H 2663   1.209   4.531   5.754 -0.7018 -2.0524 -0.0183
   20MOL0     H 2664   0.831   4.305   5.828  0.5624  1.4106 -0.9304
   20MOL0     H 2665   0.598   4.321   5.951 -2.2340  1.4801  1.6416
   20MOL0     H 2666   0.429   4.425   6.288  0.6119 -2.5171 -3.6529
   20MOL0     H 2667   0.588   4.499   6.308  0.2586 -0.2384 -1.2119
   20MOL0     H 2668   0.348   4.643   6.188 -1.9931  1.9131  2.0461
   20MOL0     H 2669   0.373   4.644   6.357 -2.0963 -2.7009 -1.6169
   20MOL0     H 2670   0.586   4.751   6.158 -0.0542  0.1250  0.4794
   20MOL0     H 2671   0.606   4.760   6.327  1.3652  0.4298 -2.0319
   20MOL0     H 2672   0.423   4.924   6.146 -2.7821  2.0834  1.2203
   20MOL0     H 2673   0.354   4.864   6.293 -0.0161 -1.2726 -0.3402
   20MOL0     H 2674   0.545   4.970   6.420  0.4896 -0.2438  0.1221
   20MOL0     H 2675   0.441   5.089   6.348 -0.3702 -0.6787  0.7063
   20MOL0     H 2676   0.695   5.138   6.314  0.7987  0.9135 -1.0299
   20MOL0     H 2677   0.708   4.999   6.208  1.0767  1.1541 -0.5841
   20MOL0     H 2678   0.520   5.225   6.152  0.9328 -0.1764  3.2044
   20MOL0     H 2679   0.550   5.090   6.051 -0.5237  1.8160 -1.0978
   20MOL0     H 2680   0.663   5.261   5.944  1.3450  0.3966 -0.8604
   20MOL0     H 2681   0.797   5.176   6.044 -0.6426 -0.9221 -0.9765
   20MOL0     H 2682   0.751   4.611   6.205 -1.0655  0.7284 -0.8966
   20MOL0     H 2683   0.980   4.588   6.103  0.1556 -0.1340 -0.7700
   20MOL0     H 2684   1.271   4.088   5.987 -0.8119 -0.3638 -0.9171
   20MOL0     H 2685   1.493   4.046   5.910  3.0233  1.3786 -0.0722
   20MOL0     H 2686   3.062   4.974   5.672 -0.3847 -2.6357 -1.1522
   20MOL0     H 2687   3.271   5.102   5.683 -0.9712 -0.8297  2.8960
   20MOL0     H 2688   3.865   4.939   5.725  2.3012  0.1600 -0.1711
   20MOL0     H 2689   4.061   5.080   5.697  0.3988 -0.1017  0.0562
   20MOL0     H 2690   4.156   5.293   5.783 -0.6482 -0.4851 -1.0880
   20MOL0     H 2691   4.242   5.226   5.644  3.6208  0.2585  0.6512
   20MOL0     H 2692   4.293   5.489   5.607 -0.4425 -0.2034 -0.9670
   20MOL0     H 2693   4.356   5.409   5.751 -0.7911  1.6441  2.5354
   20MOL0     H 2694   4.135   5.530   5.866  0.6052 -1.4966  0.4223
   20MOL0     H 2695   4.111   5.580   5.693  1.4069  1.8216 -0.6705
   20MOL0     H 2696   4.232   5.743   5.870 -1.3350  2.2708 -1.4602
   20MOL0     H 2697   4.298   5.724   5.700  3.1599  0.0160 -0.1598
   20MOL0     H 2698   4.616   5.579   5.933  0.6892  1.6383 -2.3466
   20MOL0     H 2699   3.820   5.382   5.529 -0.5842  0.5295 -1.3252
   20MOL0     H 2700   3.625   5.253   5.541  0.3416  1.1849 -0.6181
   21MOL0     O 2701   3.903   4.075   5.783  0.6620  0.4360 -1.0565
   21MOL0     C 2702   3.952   3.979   5.725 -0.7529  0.4433  0.5049
   21MOL0     O 2703   3.941   3.958   5.587  0.0813 -0.7495  0.1580
   21MOL0     C 2704   3.852   4.042   5.519 -0.9002  0.3645  0.2223
   21MOL0     C 2705   3.735   3.995   5.459 -0.2315  0.1984 -0.4703
   21MOL0     C 2706   3.655   4.076   5.378  0.2058 -0.3037  0.5421
   21MOL0     C 2707   3.699   4.213   5.348 -0.5251  0.0548 -0.4036
   21MOL0     O 2708   3.623   4.302   5.278  0.7364 -0.0553 -0.4678
   21MOL0     C 2709   3.635   4.448   5.286 -0.3087  0.1213 -0.0501
   21MOL0     C 2710   3.535   4.510   5.185  0.4820  0.5721  0.5371
   21MOL0     C 2711   3.383   4.477   5.217  0.8055  0.1088 -0.5845
   21MOL0     C 2712   3.292   4.543   5.108 -0.2631 -0.2098  1.2601
   21MOL0     C 2713   3.225   4.662   5.168  0.0884 -0.7954 -0.5936
   21MOL0     C 2714   3.117   4.733   5.091  0.7856  0.2469  0.1834
   21MOL0     C 2715   3.082   4.882   5.112 -0.4299  0.6224  0.5326
   21MOL0     C 2716   3.045   4.913   5.253 -0.1838  1.2277 -0.4254
   21MOL0     N 2717   2.969   5.039   5.261  0.4028  0.0428  0.2099
   21MOL0     C 2718   3.011   5.169   5.279 -1.5034  0.0023 -1.0821
   21MOL0     C 2719   2.908   5.250   5.262 -0.6065 -0.1644 -0.5318
   21MOL0     C 2720   2.883   5.398   5.277  0.1367 -0.1360 -0.5257
   21MOL0     C 2721   2.916   5.469   5.153  0.3132  0.0641 -0.4544
   21MOL0     C 2722   3.064   5.481   5.110 -0.5236 -0.1448  0.0215
   21MOL0     C 2723   3.078   5.570   4.982  0.1253 -0.5745  0.2084
   21MOL0     O 2724   3.208   5.632   4.970  0.2409 -0.6221  0.1218
   21MOL0     C 2725   3.321   5.559   4.941 -0.0128 -0.1319 -0.1559
   21MOL0     C 2726   3.323   5.443   4.869  0.5202  0.8555 -0.4911
   21MOL0     C 2727   3.427   5.359   4.849 -0.5868  0.6131 -0.4492
   21MOL0     C 2728   3.405   5.229   4.783  0.4468 -0.4672 -0.0765
   21MOL0     C 2729   3.556   5.407   4.896  0.0447  0.6869 -0.2956
   21MOL0     C 2730   3.682   5.327   4.897 -0.1215  1.1124  0.1692
   21MOL0     O 2731   3.766   5.372   4.990  0.1431  0.4212  0.0255
   21MOL0     C 2732   3.867   5.294   5.046 -0.1958 -0.5393 -0.8623
   21MOL0     C 2733   3.952   5.224   4.957 -0.0777 -0.3302 -0.7376
   21MOL0     C 2734   4.052   5.134   5.011  0.1833 -0.7123 -0.5283
   21MOL0     C 2735   4.066   5.125   5.147 -0.6703  1.1080 -0.4736
   21MOL0     O 2736   4.158   5.030   5.197  0.0036 -0.6145 -0.1741
   21MOL0     C 2737   4.177   5.009   5.334 -0.3807  0.4714  0.4944
   21MOL0     C 2738   4.272   4.891   5.356 -0.2064 -0.8466  0.4455
   21MOL0     C 2739   4.263   4.868   5.513  0.3952  0.3511  0.0990
   21MOL0     C 2740   4.359   4.756   5.561  0.0476  0.2875 -0.3709
   21MOL0     C 2741   4.342   4.726   5.709  0.0324  0.1572  0.1736
   21MOL0     C 2742   4.197   4.679   5.752  0.3340 -0.2091 -0.7574
   21MOL0     C 2743   4.130   4.582   5.643 -0.6501  0.9814 -0.7384
   21MOL0     C 2744   3.992   4.541   5.688 -0.3080  0.6316 -0.7067
   21MOL0    Cl 2745   3.880   4.678   5.651  0.2208  0.0503 -0.0192
   21MOL0     C 2746   3.991   5.201   5.226  0.2694  0.2145  0.1300
   21MOL0     C 2747   3.883   5.275   5.185 -0.0827  0.3892 -0.5498
   21MOL0     O 2748   3.687   5.228   4.830 -0.7544  0.1223 -0.0374
   21MOL0     C 2749   3.562   5.540   4.952  0.8155 -0.8007 -0.1283
   21MOL0     C 2750   3.442   5.607   4.982  0.9625 -0.4724  0.1930
   21MOL0     N 2751   2.805   5.166   5.228  0.0429  0.3215 -0.0910
   21MOL0     N 2752   2.834   5.042   5.238  0.1098  0.0410  0.1328
   21MOL0     C 2753   3.814   4.258   5.419 -0.0743 -0.2514  0.1399
   21MOL0     C 2754   3.883   4.174   5.504 -0.5949 -1.1820  0.6219
   21MOL0     C 2755   4.037   3.896   5.808  0.2168  1.4002 -0.4857
   21MOL0     C 2756   4.042   3.894   5.952 -0.1358 -0.1013 -0.1020
   21MOL0     C 2757   4.127   3.801   6.017 -1.1832 -0.4034  0.0563
   21MOL0     C 2758   4.213   3.716   5.941 -0.0635  0.1061  0.0679
   21MOL0     O 2759   4.315   3.660   6.018 -0.4188  0.0068  0.7035
   21MOL0     C 2760   4.404   3.559   5.961 -0.1216  0.2826 -0.0459
   21MOL0     C 2761   4.509   3.608   5.863 -0.0168 -0.7793 -0.4804
   21MOL0     C 2762   4.569   3.748   5.896 -0.0309 -0.3650  0.5066
   21MOL0     C 2763   4.696   3.777   5.808  0.3781  0.7461 -0.3660
   21MOL0     C 2764   4.651   3.784   5.671 -0.0338 -0.5701 -0.3309
   21MOL0     C 2765   4.599   3.775   5.563  0.3807 -0.6220  0.3583
   21MOL0     C 2766   4.198   3.714   5.799  1.1589  1.4217  0.6782
   21MOL0     C 2767   4.110   3.804   5.734 -0.3619  1.3908  0.4351
   21MOL0     H 2768   3.720   3.888   5.462 -2.6984  0.4565 -0.8266
   21MOL0     H 2769   3.574   4.031   5.321 -0.4195 -0.7994  1.7827
   21MOL0     H 2770   3.620   4.477   5.390  1.2208 -0.9943  0.5346
   21MOL0     H 2771   3.727   4.495   5.250 -2.3704  2.2512 -3.0778
   21MOL0     H 2772   3.549   4.617   5.166  0.1331  0.2788 -1.6323
   21MOL0     H 2773   3.555   4.466   5.087  0.8020  1.2202  0.3042
   21MOL0     H 2774   3.358   4.370   5.211 -2.3656  0.7238 -0.3167
   21MOL0     H 2775   3.363   4.514   5.318  1.9752  0.8506 -0.6122
   21MOL0     H 2776   3.350   4.571   5.019 -3.1318  0.9052 -0.4233
   21MOL0     H 2777   3.214   4.479   5.066  0.3837 -0.5778  0.5941
   21MOL0     H 2778   3.171   4.632   5.258  0.5645  0.2518  0.0664
   21MOL0     H 2779   3.301   4.739   5.187  0.9493 -1.0719 -2.6128
   21MOL0     H 2780   3.144   4.743   4.985 -2.9213  1.7332 -0.7672
   21MOL0     H 2781   3.023   4.677   5.091 -0.1799  1.7819  1.5211
   21MOL0     H 2782   3.161   4.951   5.081  1.3662 -1.1290  1.0300
   21MOL0     H 2783   2.996   4.911   5.051 -0.7816  2.1278  1.6772
   21MOL0     H 2784   3.139   4.917   5.309  0.1891  0.2403 -0.9600
   21MOL0     H 2785   2.990   4.829   5.297  0.3363  1.5491  0.9102
   21MOL0     H 2786   3.112   5.202   5.302 -1.9251 -0.2861  1.4207
   21MOL0     H 2787   2.781   5.416   5.311  0.1099  0.7516 -1.0384
   21MOL0     H 2788   2.942   5.450   5.354 -1.6103 -0.1182  0.8498
   21MOL0     H 2789   2.888   5.573   5.174 -3.7101 -0.4859 -2.0519
   21MOL0     H 2790   2.863   5.432   5.065 -0.0576 -1.2947  0.3177
   21MOL0     H 2791   3.110   5.382   5.099 -0.7718 -0.7267  3.2538
   21MOL0     H 2792   3.129   5.530   5.183 -0.7478 -0.1507  0.2272
   21MOL0     H 2793   2.998   5.645   4.984 -0.0101 -0.5443 -2.5666
   21MOL0     H 2794   3.052   5.502   4.901  0.7624  0.6566 -1.0576
   21MOL0     H 2795   3.234   5.416   4.813 -1.4672  1.9888  1.9269
   21MOL0     H 2796   3.454   5.228   4.685 -0.7891  0.4072 -0.7351
   21MOL0     H 2797   3.435   5.149   4.851 -1.5822 -1.1814  0.0425
   21MOL0     H 2798   3.299   5.218   4.759  0.5284 -0.4356 -0.4633
   21MOL0     H 2799   3.953   5.232   4.848 -0.0646 -3.7619 -1.1056
   21MOL0     H 2800   4.113   5.078   4.940 -0.5988 -1.2441 -0.7936
   21MOL0     H 2801   4.228   5.090   5.387 -0.0838  0.0577  0.8580
   21MOL0     H 2802   4.077   4.990   5.374 -0.1894 -1.7030  0.0573
   21MOL0     H 2803   4.249   4.803   5.295  1.5050 -1.3886  0.5328
   21MOL0     H 2804   4.371   4.930   5.330 -0.9605  0.3898 -0.7354
   21MOL0     H 2805   4.166   4.832   5.546  1.1413 -2.6308 -0.6706
   21MOL0     H 2806   4.283   4.963   5.563 -0.3890  2.0567 -2.6059
   21MOL0     H 2807   4.343   4.665   5.503 -4.4490  0.2211  0.6410
   21MOL0     H 2808   4.463   4.783   5.538  0.2485  0.6382  0.9101
   21MOL0     H 2809   4.365   4.808   5.778 -1.1193  0.4288  0.2633
   21MOL0     H 2810   4.415   4.650   5.737  1.2173  1.3582  0.4651
   21MOL0     H 2811   4.202   4.620   5.844 -0.8726  0.0218 -0.5219
   21MOL0     H 2812   4.127   4.757   5.783 -1.1757 -0.9692 -2.0745
   21MOL0     H 2813   4.195   4.495   5.629 -2.0385 -0.2401  0.1453
   21MOL0     H 2814   4.114   4.631   5.547 -2.0050  0.0122 -1.0235
   21MOL0     H 2815   3.994   4.508   5.792  0.6064  0.1112 -0.8739
   21MOL0     H 2816   3.955   4.451   5.638 -1.6515  0.9768 -0.3761
   21MOL0     H 2817   4.010   5.184   5.332  1.9845 -0.7257 -0.3064
   21MOL0     H 2818   3.814   5.323   5.254 -0.2266 -2.3376  1.3622
   21MOL0     H 2819   3.651   5.591   4.985 -0.6029  1.1047  0.9797
   21MOL0     H 2820   3.448   5.692   5.050  0.7425 -0.1935 -0.1287
   21MOL0     H 2821   3.845   4.361   5.410  0.5662 -0.3228  1.3846
   21MOL0     H 2822   3.967   4.215   5.558 -1.1681 -0.2478  0.8244
   21MOL0     H 2823   3.968   3.957   5.999 -1.0409 -0.6866 -0.7076
   21MOL0     H 2824   4.142   3.786   6.123  0.9280 -1.2683 -0.3235
   21MOL0     H 2825   4.460   3.525   6.049 -2.8744  0.0426  1.7488
   21MOL0     H 2826   4.345   3.471   5.933  0.7022 -0.3154  0.0696
   21MOL0     H 2827   4.469   3.604   5.762 -0.7380  1.2448 -0.3239
   21MOL0     H 2828   4.589   3.535   5.879  1.0993  0.7126  1.2055
   21MOL0     H 2829   4.607   3.755   5.999  0.8225  1.1663  0.1153
   21MOL0     H 2830   4.501   3.831   5.877  0.9276  0.2656 -0.2715
   21MOL0     H 2831   4.780   3.707   5.818  1.6701  2.3576  0.6197
   21MOL0     H 2832   4.742   3.875   5.827  0.9619 -0.1284  3.6164
   21MOL0     H 2833   4.537   3.755   5.477  0.3724 -2.3865  0.7435
   21MOL0     H 2834   4.275   3.662   5.744 -0.4019  0.7490 -1.0039
   21MOL0     H 2835   4.111   3.805   5.626  0.9961  2.8046  0.4298
   22MOL0     O 2836   9.472   4.948   5.492  0.4104 -0.5126 -0.6550
   22MOL0     C 2837   9.465   4.840   5.554 -0.2300 -0.3887 -0.3611
   22MOL0     O 2838   9.571   4.759   5.587 -0.4723  0.1542  0.0384
   22MOL0     C 2839   9.687   4.765   5.523 -0.1665  0.1720 -0.5565
   22MOL0     C 2840   9.786   4.700   5.587 -0.2693 -0.8591 -0.0252
   22MOL0     C 2841   9.922   4.702   5.537  0.6895 -0.4061 -0.1050
   22MOL0     C 2842   9.952   4.749   5.410  0.1262 -0.0621 -0.4426
   22MOL0     O 2843  10.085   4.755   5.360 -0.9217 -0.2320  0.1064
   22MOL0     C 2844  10.189   4.828   5.424  0.0771  0.8033  0.7137
   22MOL0     C 2845  10.324   4.782   5.383  0.5499 -0.2114  0.0158
   22MOL0     C 2846  10.390   4.876   5.276 -0.5294  0.6602 -0.4989
   22MOL0     C 2847  10.332   4.870   5.132 -0.2178 -0.0786 -0.2147
   22MOL0     C 2848  10.351   4.745   5.054  0.6417  0.0653  0.4781
   22MOL0     C 2849  10.237   4.723   4.952  0.6388 -0.3436 -0.2745
   22MOL0     C 2850  10.096   4.676   5.007 -0.0879 -0.4336  0.3574
   22MOL0     C 2851   9.992   4.684   4.888  0.0091 -0.5232  0.4559
   22MOL0     N 2852   9.856   4.689   4.936  0.1367 -0.6009  0.3602
   22MOL0     C 2853   9.779   4.589   4.988 -0.4159 -0.3613 -0.1352
   22MOL0     C 2854   9.662   4.657   5.006 -0.1147 -0.3003 -0.2340
   22MOL0     C 2855   9.534   4.599   5.064 -0.1507 -1.4447 -0.4084
   22MOL0     C 2856   9.507   4.659   5.207 -0.3069 -0.1283  0.0112
   22MOL0     C 2857   9.368   4.616   5.254 -0.5779 -0.0591 -0.1002
   22MOL0     C 2858   9.258   4.713   5.204  0.3766 -0.9909 -0.8111
   22MOL0     O 2859   9.136   4.663   5.251  0.3002  0.7442  0.0070
   22MOL0     C 2860   9.018   4.729   5.212  0.0457  0.3671 -0.2254
   22MOL0     C 2861   9.007   4.835   5.124 -0.0772 -0.3475 -0.7067
   22MOL0     C 2862   8.886   4.901   5.108  0.9257  0.1521  0.0427
   22MOL0     C 2863   8.893   4.999   4.992  0.2685 -0.3186  0.1802
   22MOL0     C 2864   8.766   4.859   5.180 -0.5721 -0.2124 -0.2432
   22MOL0     C 2865   8.638   4.920   5.168  0.0994  0.0924  0.0636
   22MOL0     O 2866   8.529   4.842   5.193  0.4364 -0.1566  0.6345
   22MOL0     C 2867   8.401   4.889   5.194  0.3562 -0.6462 -1.0201
   22MOL0     C 2868   8.304   4.791   5.193 -1.1029 -0.6121  0.2381
   22MOL0     C 2869   8.175   4.809   5.217  0.7148 -1.0730 -0.3444
   22MOL0     C 2870   8.128   4.946   5.250 -0.7574  0.7227 -0.7286
   22MOL0     O 2871   7.989   4.966   5.267  0.2454  0.2780  0.4932
   22MOL0     C 2872   7.939   5.097   5.273  0.4319 -0.4983  0.1326
   22MOL0     C 2873   7.794   5.107   5.328  0.6211  0.1210  0.7049
   22MOL0     C 2874   7.757   5.249   5.372  0.0059 -0.5393 -1.2823
   22MOL0     C 2875   7.827   5.295   5.502 -0.0239  0.4109 -0.0670
   22MOL0     C 2876   7.809   5.212   5.625  0.3645  0.2536  0.7523
   22MOL0     C 2877   7.890   5.248   5.753 -1.1411  0.7485 -0.3745
   22MOL0     C 2878   7.858   5.160   5.870  0.2017  0.4836  0.1038
   22MOL0     C 2879   7.736   5.207   5.945  0.4409  0.8693  1.2408
   22MOL0    Cl 2880   7.725   5.132   6.107 -0.0100  0.0857  0.1834
   22MOL0     C 2881   8.223   5.047   5.232  0.2694  0.4778  0.0249
   22MOL0     C 2882   8.363   5.020   5.223  0.5304 -1.1304  0.6005
   22MOL0     O 2883   8.634   5.035   5.133  0.1984  0.2741  0.3793
   22MOL0     C 2884   8.778   4.733   5.251  1.1544  0.1336  0.9360
   22MOL0     C 2885   8.903   4.678   5.270 -0.2304 -0.9749 -0.2889
   22MOL0     N 2886   9.663   4.790   4.962  0.9639 -0.3927  0.0388
   22MOL0     N 2887   9.784   4.805   4.927 -0.3528  0.1906  0.1473
   22MOL0     C 2888   9.846   4.805   5.340 -0.6528  0.1052  1.1247
   22MOL0     C 2889   9.720   4.823   5.398  0.7187  0.0533 -0.6951
   22MOL0     C 2890   9.332   4.795   5.595 -0.8420 -0.4891 -0.1419
   22MOL0     C 2891   9.218   4.856   5.540 -0.4085  0.8017 -0.1208
   22MOL0     C 2892   9.095   4.813   5.591  0.6763 -0.3571  0.0805
   22MOL0     C 2893   9.081   4.707   5.680  0.3301 -0.1701  0.6564
   22MOL0     O 2894   8.967   4.639   5.728  0.0034 -0.0793  0.1660
   22MOL0     C 2895   8.838   4.663   5.670  0.0339 -0.1286  0.4955
   22MOL0     C 2896   8.775   4.779   5.745 -0.4132  0.0301  0.2400
   22MOL0     C 2897   8.629   4.821   5.692 -1.0625 -0.0636 -0.0842
   22MOL0     C 2898   8.645   4.891   5.554 -0.8027  0.3517 -1.3412
   22MOL0     C 2899   8.574   5.019   5.558 -0.1983  0.6466 -0.4973
   22MOL0     C 2900   8.505   5.119   5.549  0.9265 -0.1973  0.0549
   22MOL0     C 2901   9.192   4.654   5.732  0.3469  1.9774  0.3977
   22MOL0     C 2902   9.317   4.698   5.693 -0.2285 -0.4638 -0.4032
   22MOL0     H 2903   9.760   4.648   5.678 -2.5080  1.0637  0.5497
   22MOL0     H 2904  10.009   4.658   5.587 -0.3517 -0.7826  1.4339
   22MOL0     H 2905  10.195   4.937   5.416  4.0871  0.7026  0.2828
   22MOL0     H 2906  10.180   4.807   5.531 -2.2118  0.5885  0.5341
   22MOL0     H 2907  10.398   4.781   5.464  2.6936 -2.1684 -1.8239
   22MOL0     H 2908  10.323   4.678   5.349 -3.9319 -0.5170  0.4656
   22MOL0     H 2909  10.400   4.977   5.318  2.4741  0.2062  0.1072
   22MOL0     H 2910  10.492   4.840   5.259 -1.1444 -0.2926 -2.5355
   22MOL0     H 2911  10.223   4.884   5.134 -0.4823 -1.8789  0.2898
   22MOL0     H 2912  10.361   4.947   5.061 -2.4981  1.1719  0.1186
   22MOL0     H 2913  10.442   4.765   4.997 -1.0610 -1.5230 -3.1680
   22MOL0     H 2914  10.364   4.653   5.112 -1.1096 -2.4962 -2.7824
   22MOL0     H 2915  10.222   4.823   4.910  0.9746 -0.6181 -1.0793
   22MOL0     H 2916  10.269   4.656   4.871 -1.0503 -1.2089 -0.2498
   22MOL0     H 2917  10.101   4.568   5.023 -2.1292 -0.8473 -1.3602
   22MOL0     H 2918  10.046   4.733   5.086 -4.6360 -0.8964 -1.8852
   22MOL0     H 2919   9.995   4.590   4.831  1.0657 -1.3186  1.7382
   22MOL0     H 2920  10.011   4.768   4.821  1.1887  0.1944  1.6507
   22MOL0     H 2921   9.798   4.485   5.013 -1.0151 -0.4585 -0.0650
   22MOL0     H 2922   9.452   4.630   5.000  1.3719  0.0734 -1.7236
   22MOL0     H 2923   9.543   4.490   5.072  0.6962 -1.3575 -0.0386
   22MOL0     H 2924   9.506   4.769   5.200 -0.0991 -0.1643 -0.6719
   22MOL0     H 2925   9.583   4.631   5.280  0.7284  2.3580  0.0042
   22MOL0     H 2926   9.383   4.629   5.362  1.8949  0.8728 -0.4827
   22MOL0     H 2927   9.344   4.514   5.225  0.4096 -0.7719  1.4904
   22MOL0     H 2928   9.255   4.702   5.095 -3.0144 -2.9517 -0.6675
   22MOL0     H 2929   9.281   4.815   5.237  1.0780 -1.1720 -0.7310
   22MOL0     H 2930   9.092   4.864   5.063  0.3471  1.6303  0.7413
   22MOL0     H 2931   8.981   4.994   4.928 -0.6321  2.1307 -1.3829
   22MOL0     H 2932   8.812   4.965   4.928 -1.6038 -1.2988  2.8730
   22MOL0     H 2933   8.872   5.104   5.013  0.0617 -0.3583  0.1736
   22MOL0     H 2934   8.341   4.692   5.167 -0.6347 -0.0443 -1.3344
   22MOL0     H 2935   8.103   4.728   5.212 -1.0555  0.2125  2.1755
   22MOL0     H 2936   8.004   5.156   5.338 -0.2731  0.1143  0.2932
   22MOL0     H 2937   7.946   5.139   5.173 -0.2424  1.7024  0.9514
   22MOL0     H 2938   7.726   5.081   5.246  1.8946  4.2467 -1.9737
   22MOL0     H 2939   7.783   5.041   5.415 -2.2159  3.6652  3.3477
   22MOL0     H 2940   7.651   5.257   5.398  0.0146 -0.0898 -1.3700
   22MOL0     H 2941   7.765   5.336   5.305  2.0811  4.6547  4.6707
   22MOL0     H 2942   7.935   5.304   5.481 -0.3338 -1.6132 -3.3776
   22MOL0     H 2943   7.790   5.395   5.526  1.2491  1.0014 -0.4501
   22MOL0     H 2944   7.842   5.113   5.594  0.8145  1.0131 -1.3693
   22MOL0     H 2945   7.701   5.204   5.641  0.4117 -2.5534  0.1165
   22MOL0     H 2946   7.998   5.233   5.736 -1.5175 -2.3014 -0.5283
   22MOL0     H 2947   7.874   5.352   5.785 -3.2524  0.8264 -1.5039
   22MOL0     H 2948   7.936   5.148   5.947 -0.4749 -1.8890  0.5223
   22MOL0     H 2949   7.838   5.055   5.845 -0.5286  0.4489  0.7919
   22MOL0     H 2950   7.648   5.192   5.881  1.4892 -1.2497  0.1669
   22MOL0     H 2951   7.736   5.313   5.973 -0.0159  1.5195 -1.0624
   22MOL0     H 2952   8.192   5.151   5.234  1.2327  0.8525 -1.6754
   22MOL0     H 2953   8.429   5.105   5.229 -2.9873  1.8669  0.6312
   22MOL0     H 2954   8.688   4.674   5.262  1.5488 -0.7794 -0.4770
   22MOL0     H 2955   8.918   4.582   5.318  1.7352 -1.2111 -1.2448
   22MOL0     H 2956   9.850   4.862   5.248  0.9666 -1.8337 -0.0820
   22MOL0     H 2957   9.642   4.874   5.343 -1.5965 -1.2811  1.1542
   22MOL0     H 2958   9.221   4.927   5.458  1.0060  1.2486  0.2716
   22MOL0     H 2959   9.007   4.862   5.549  1.1007 -0.0324 -0.4489
   22MOL0     H 2960   8.842   4.675   5.561 -2.6676  2.1971  0.5231
   22MOL0     H 2961   8.772   4.579   5.695 -1.0400  0.8573  1.0856
   22MOL0     H 2962   8.846   4.862   5.744 -0.5342  0.1661 -1.9004
   22MOL0     H 2963   8.776   4.745   5.849 -1.5215  2.9893  1.3292
   22MOL0     H 2964   8.579   4.873   5.774 -0.2175  0.7454 -0.0540
   22MOL0     H 2965   8.579   4.726   5.674  0.8692 -1.7025  2.4000
   22MOL0     H 2966   8.592   4.829   5.482  1.5137 -1.0613 -1.9266
   22MOL0     H 2967   8.748   4.889   5.517 -0.6269 -2.8619 -0.9159
   22MOL0     H 2968   8.443   5.205   5.535  3.8015  1.8887 -0.7443
   22MOL0     H 2969   9.184   4.572   5.803  0.9332 -2.5939 -4.2696
   22MOL0     H 2970   9.404   4.642   5.724 -1.8402 -1.4442  2.7686
   23MOL0     O 2971   2.987   9.695   5.626 -0.6636  0.0828  0.4835
   23MOL0     C 2972   2.955   9.578   5.607  0.1189  0.0420 -0.0552
   23MOL0     O 2973   2.915   9.516   5.491  0.4190  0.4535 -0.3169
   23MOL0     C 2974   2.904   9.595   5.384  0.0503 -0.3906 -0.0358
   23MOL0     C 2975   2.827   9.708   5.387 -0.4955 -0.3170 -0.1494
   23MOL0     C 2976   2.803   9.773   5.264 -1.2307 -0.0267  0.1398
   23MOL0     C 2977   2.854   9.734   5.145 -0.7594 -0.2833  0.1156
   23MOL0     O 2978   2.827   9.819   5.042  0.5481 -0.1667  0.1105
   23MOL0     C 2979   2.886   9.795   4.918  0.2802 -0.4945 -0.6029
   23MOL0     C 2980   2.830   9.895   4.830  0.7072  0.8870  0.6894
   23MOL0     C 2981   2.683   9.897   4.815 -1.2798 -0.2070 -1.1369
   23MOL0     C 2982   2.626  10.039   4.831 -0.9818 -0.8030  0.1684
   23MOL0     C 2983   2.483  10.038   4.773  0.1465 -0.4517 -0.0118
   23MOL0     C 2984   2.415  10.171   4.743  0.4066 -0.5280 -0.1198
   23MOL0     C 2985   2.403  10.285   4.857 -1.0867  0.1470  0.2325
   23MOL0     C 2986   2.363  10.247   5.000  0.4185 -0.0208  0.8851
   23MOL0     N 2987   2.313  10.362   5.079  0.1928  0.6891 -0.3622
   23MOL0     C 2988   2.183  10.410   5.068  0.3517  0.6616  0.9625
   23MOL0     C 2989   2.178  10.505   5.167 -0.0940  0.1963  1.4859
   23MOL0     C 2990   2.065  10.605   5.182  0.5546  0.1767 -0.4697
   23MOL0     C 2991   1.932  10.530   5.192  0.5824 -0.4157  0.6639
   23MOL0     C 2992   1.825  10.636   5.201 -0.4089  0.9209 -0.1787
   23MOL0     C 2993   1.682  10.568   5.213  0.6285  0.0894 -0.0642
   23MOL0     O 2994   1.649  10.560   5.354  0.9874  0.0257 -0.1312
   23MOL0     C 2995   1.517  10.555   5.406  0.9354  1.0643  0.3205
   23MOL0     C 2996   1.513  10.527   5.549  1.0251 -1.3324  0.4876
   23MOL0     C 2997   1.390  10.525   5.615 -0.1635  0.0760  1.7019
   23MOL0     C 2998   1.394  10.514   5.766  0.4601 -1.2872  0.2246
   23MOL0     C 2999   1.273  10.543   5.541 -0.6182 -0.2701  0.5349
   23MOL0     C 3000   1.141  10.558   5.605  0.5902 -0.2813 -0.5078
   23MOL0     O 3001   1.034  10.562   5.522  0.3424 -0.3832 -0.1456
   23MOL0     C 3002   0.903  10.569   5.568 -0.8109 -0.3250 -0.6928
   23MOL0     C 3003   0.830  10.680   5.520  0.9240  0.0485 -0.7468
   23MOL0     C 3004   0.697  10.693   5.551 -0.3475 -0.4981  0.2031
   23MOL0     C 3005   0.634  10.608   5.639 -0.1126  0.5838  0.4458
   23MOL0     O 3006   0.509  10.640   5.690  0.6293  0.0595 -0.0203
   23MOL0     C 3007   0.417  10.735   5.635 -0.1585 -0.7260  0.1421
   23MOL0     C 3008   0.278  10.687   5.608  0.9724  0.5380  0.5592
   23MOL0     C 3009   0.199  10.616   5.719 -0.1388  0.7444  0.2642
   23MOL0     C 3010   0.122  10.722   5.805 -0.0998 -0.6022  0.1010
   23MOL0     C 3011   0.002  10.662   5.872 -0.0739 -0.3446 -0.7054
   23MOL0     C 3012  -0.075  10.766   5.948 -0.1891  0.4188 -0.8372
   23MOL0     C 3013  -0.194  10.721   6.024  0.1185  0.0368 -0.1346
   23MOL0     C 3014  -0.256  10.818   6.124  0.2320 -0.2493  1.0068
   23MOL0    Cl 3015  -0.342  10.941   6.017 -0.2040  0.3132  0.0025
   23MOL0     C 3016   0.712  10.499   5.689  1.0134 -0.6084  0.4672
   23MOL0     C 3017   0.841  10.475   5.657 -0.5877 -0.3246  0.1352
   23MOL0     O 3018   1.130  10.561   5.726 -0.1148  0.3455  0.6104
   23MOL0     C 3019   1.279  10.560   5.403  0.4295  0.0886  0.6662
   23MOL0     C 3020   1.398  10.580   5.332 -0.2878  1.3968 -0.3087
   23MOL0     N 3021   2.304  10.518   5.233 -0.3398  0.4288  0.3807
   23MOL0     N 3022   2.384  10.428   5.188 -0.2924 -0.0976 -0.0268
   23MOL0     C 3023   2.936   9.617   5.146 -0.3637 -0.1666 -0.4498
   23MOL0     C 3024   2.958   9.542   5.263 -0.5584  0.1875 -0.2344
   23MOL0     C 3025   2.965   9.486   5.716 -0.3272  0.5779  0.0310
   23MOL0     C 3026   3.019   9.536   5.836  0.0450  0.3592 -0.4590
   23MOL0     C 3027   3.025   9.454   5.949  0.1109 -0.1442  0.0539
   23MOL0     C 3028   2.976   9.324   5.945  0.7801 -0.4363 -0.0424
   23MOL0     O 3029   3.002   9.222   6.034  0.1168  0.2148 -0.6601
   23MOL0     C 3030   2.953   9.252   6.169  0.0449 -0.5824  0.7688
   23MOL0     C 3031   2.808   9.306   6.173  0.7444 -0.3045  0.2276
   23MOL0     C 3032   2.762   9.312   6.325  0.8279  0.5178 -0.0745
   23MOL0     C 3033   2.613   9.334   6.353  0.0569  0.2272  0.0294
   23MOL0     C 3034   2.531   9.230   6.289 -0.6846 -0.8781 -0.6966
   23MOL0     C 3035   2.470   9.138   6.246  0.3923 -0.2269  0.4060
   23MOL0     C 3036   2.919   9.280   5.822 -0.0340 -0.0450 -0.6510
   23MOL0     C 3037   2.907   9.358   5.708  0.2280 -0.0429 -0.8490
   23MOL0     H 3038   2.773   9.750   5.471 -3.7269 -2.8668 -0.7542
   23MOL0     H 3039   2.749   9.866   5.278  2.7245  2.4104  0.6933
   23MOL0     H 3040   2.995   9.807   4.922  0.1632  0.6622 -0.4572
   23MOL0     H 3041   2.862   9.695   4.882  0.7202 -0.2893 -1.4917
   23MOL0     H 3042   2.864   9.993   4.865  1.8636  0.6871  0.1974
   23MOL0     H 3043   2.872   9.872   4.732 -3.8224  4.2002 -2.4318
   23MOL0     H 3044   2.643   9.847   4.727 -0.1625  1.2264 -2.5331
   23MOL0     H 3045   2.646   9.836   4.898 -0.7584  0.6603 -0.2450
   23MOL0     H 3046   2.636  10.071   4.935 -0.9355  1.5774 -0.5179
   23MOL0     H 3047   2.682  10.111   4.772 -0.3423 -0.2177  1.4568
   23MOL0     H 3048   2.478   9.990   4.675 -0.4520 -1.3418  0.4380
   23MOL0     H 3049   2.416   9.979   4.836  0.2294 -1.3445 -0.7413
   23MOL0     H 3050   2.456  10.222   4.655 -0.5862  1.0988  0.3027
   23MOL0     H 3051   2.313  10.139   4.719  0.6220  0.1077 -2.1032
   23MOL0     H 3052   2.504  10.326   4.859 -0.1935 -1.9132 -0.3566
   23MOL0     H 3053   2.328  10.356   4.818 -0.0043  0.6272 -1.0437
   23MOL0     H 3054   2.454  10.207   5.047  2.2410  1.9481 -0.7498
   23MOL0     H 3055   2.287  10.169   5.007 -0.2331  0.3796 -1.1134
   23MOL0     H 3056   2.113  10.375   4.992  1.7981 -1.8113  0.6729
   23MOL0     H 3057   2.081  10.651   5.280 -0.8754  1.2902 -0.7315
   23MOL0     H 3058   2.059  10.676   5.099  0.4369  0.3415 -0.3211
   23MOL0     H 3059   1.924  10.469   5.283 -0.7228  0.2332  1.0034
   23MOL0     H 3060   1.904  10.480   5.099  1.6213  0.5105 -0.1608
   23MOL0     H 3061   1.843  10.696   5.111 -1.2683 -0.3428 -1.2448
   23MOL0     H 3062   1.844  10.702   5.286  0.2284 -0.2114  0.5905
   23MOL0     H 3063   1.668  10.469   5.169 -2.4784  0.0270  0.7851
   23MOL0     H 3064   1.609  10.628   5.157  0.0022  0.0733  0.7071
   23MOL0     H 3065   1.612  10.512   5.591  0.4968  0.4990  2.5800
   23MOL0     H 3066   1.341  10.601   5.805 -1.7214 -2.7617  0.7452
   23MOL0     H 3067   1.345  10.423   5.801  1.3624 -2.0588 -0.4648
   23MOL0     H 3068   1.500  10.510   5.792  0.8452 -1.2788 -1.2504
   23MOL0     H 3069   0.868  10.739   5.438  0.1360  1.1890 -0.3258
   23MOL0     H 3070   0.656  10.787   5.515  2.2361  1.3361  1.7457
   23MOL0     H 3071   0.417  10.829   5.691  1.1189 -1.7686  2.0023
   23MOL0     H 3072   0.459  10.761   5.537  1.2751  2.8313  1.5395
   23MOL0     H 3073   0.217  10.762   5.555  0.3811 -0.2494  0.1063
   23MOL0     H 3074   0.289  10.614   5.528  0.8581 -0.4730  1.4493
   23MOL0     H 3075   0.264  10.561   5.787  0.7581 -1.4706 -2.1885
   23MOL0     H 3076   0.138  10.538   5.671  0.6504  1.8558 -2.8266
   23MOL0     H 3077   0.199  10.759   5.873 -2.7127 -2.7984  4.7508
   23MOL0     H 3078   0.076  10.804   5.750 -0.4892 -1.1658 -0.4274
   23MOL0     H 3079   0.035  10.587   5.944 -0.4642 -1.6709 -1.8619
   23MOL0     H 3080  -0.049  10.609   5.791 -0.5838 -1.8210  0.5272
   23MOL0     H 3081  -0.011  10.819   6.019 -2.0918  0.2520  1.1098
   23MOL0     H 3082  -0.108  10.845   5.879 -1.3877  0.0315 -0.7415
   23MOL0     H 3083  -0.172  10.628   6.077 -1.2316 -0.7305 -0.8473
   23MOL0     H 3084  -0.269  10.686   5.952  0.2785 -2.5360  0.8388
   23MOL0     H 3085  -0.182  10.867   6.187  0.9909  0.7732 -0.5976
   23MOL0     H 3086  -0.327  10.765   6.188  0.5695 -3.0701 -0.7789
   23MOL0     H 3087   0.655  10.438   5.759  1.1618  0.5493  1.6346
   23MOL0     H 3088   0.898  10.388   5.686  1.8568  1.5534  1.4165
   23MOL0     H 3089   1.185  10.574   5.350  0.0178  2.8103  1.9261
   23MOL0     H 3090   1.393  10.614   5.229 -1.6473 -0.6381 -0.9750
   23MOL0     H 3091   2.990   9.593   5.055 -0.9360  1.5230 -1.2874
   23MOL0     H 3092   3.016   9.450   5.264  1.0556  1.1606 -0.0673
   23MOL0     H 3093   3.066   9.632   5.849  0.0639  0.1149  1.6536
   23MOL0     H 3094   3.087   9.488   6.031  0.5564  1.4386 -0.9008
   23MOL0     H 3095   2.969   9.162   6.230 -2.5291 -0.0746  2.3327
   23MOL0     H 3096   3.011   9.333   6.214 -1.6781 -0.5493  3.1410
   23MOL0     H 3097   2.745   9.238   6.113  1.2689 -0.9775  0.4302
   23MOL0     H 3098   2.807   9.408   6.134 -1.7634 -0.5066 -0.4572
   23MOL0     H 3099   2.824   9.384   6.378 -0.3100 -0.0593  2.1382
   23MOL0     H 3100   2.783   9.212   6.363 -1.3072 -1.2348 -3.0490
   23MOL0     H 3101   2.570   9.431   6.325  1.6918  0.8882 -0.3534
   23MOL0     H 3102   2.607   9.315   6.460  1.3769  0.9094  0.2564
   23MOL0     H 3103   2.424   9.046   6.216  1.3873 -0.1060 -1.6609
   23MOL0     H 3104   2.883   9.178   5.821  2.3681 -1.1884  3.3812
   23MOL0     H 3105   2.868   9.320   5.614  0.2290  1.2718 -1.3989
   24MOL0     O 3106   9.472   1.360   1.854 -0.1605 -0.1977  0.0379
   24MOL0     C 3107   9.501   1.269   1.927 -0.0015  0.0523  0.4247
   24MOL0     O 3108   9.408   1.196   1.998  0.7460  0.0869 -0.0267
   24MOL0     C 3109   9.274   1.190   1.983  0.0455  0.6294 -0.3931
   24MOL0     C 3110   9.186   1.135   2.084 -0.3779  1.0828 -0.8817
   24MOL0     C 3111   9.042   1.140   2.074  0.0423  0.6077  0.7764
   24MOL0     C 3112   8.985   1.188   1.955  0.1161  0.2849 -0.7884
   24MOL0     O 3113   8.845   1.188   1.954  0.9093  0.2223  0.1729
   24MOL0     C 3114   8.764   1.247   1.850  0.2082 -0.2345 -1.0714
   24MOL0     C 3115   8.617   1.243   1.903 -0.7196  0.1075  0.6730
   24MOL0     C 3116   8.517   1.323   1.808  0.0251  0.0068 -0.3974
   24MOL0     C 3117   8.464   1.237   1.697  0.5686  0.0629 -0.4553
   24MOL0     C 3118   8.358   1.308   1.604  0.0049  0.3140  1.1225
   24MOL0     C 3119   8.355   1.246   1.464 -0.2548 -0.6714 -0.1503
   24MOL0     C 3120   8.300   1.345   1.363 -0.0263 -0.3776  0.6434
   24MOL0     C 3121   8.157   1.397   1.395 -0.4566  1.1120  1.2274
   24MOL0     N 3122   8.137   1.509   1.303 -0.0761 -0.6737  0.7203
   24MOL0     C 3123   8.120   1.521   1.165  0.0335  0.4520  0.4281
   24MOL0     C 3124   8.092   1.646   1.135  0.2955  0.1834  0.1598
   24MOL0     C 3125   8.059   1.710   1.001 -0.9405  0.5833 -0.8666
   24MOL0     C 3126   8.179   1.781   0.938  0.8403  0.4281  0.3379
   24MOL0     C 3127   8.136   1.873   0.825  0.3041 -0.2944 -0.1197
   24MOL0     C 3128   8.247   1.961   0.775  0.1586  0.2100  0.1157
   24MOL0     O 3129   8.284   2.048   0.888  0.6838  0.1849 -0.0779
   24MOL0     C 3130   8.363   2.152   0.844 -0.0920  0.1108 -0.4334
   24MOL0     C 3131   8.473   2.136   0.761 -0.1522 -0.3888 -0.8520
   24MOL0     C 3132   8.542   2.238   0.693  0.8855 -0.1363  0.3729
   24MOL0     C 3133   8.665   2.201   0.612  1.0877  0.1879  0.3963
   24MOL0     C 3134   8.505   2.370   0.725 -0.7656  0.0938 -0.4229
   24MOL0     C 3135   8.559   2.483   0.651  0.1602  0.0055  0.4238
   24MOL0     O 3136   8.520   2.609   0.696  0.3189  0.3678  0.3967
   24MOL0     C 3137   8.555   2.709   0.617 -0.3211 -0.0094 -0.8459
   24MOL0     C 3138   8.668   2.788   0.651  0.1627 -0.0678 -0.0417
   24MOL0     C 3139   8.721   2.884   0.558 -0.1848  0.2304 -0.3601
   24MOL0     C 3140   8.659   2.911   0.434 -0.1685  0.1315  0.5619
   24MOL0     O 3141   8.711   3.017   0.357 -0.1054 -0.6398 -0.0596
   24MOL0     C 3142   8.663   3.041   0.224  0.3444 -0.0374 -0.4157
   24MOL0     C 3143   8.716   3.153   0.158  0.3534  0.0159 -0.1132
   24MOL0     C 3144   8.641   3.291   0.184  0.4119 -0.1665 -0.0361
   24MOL0     C 3145   8.534   3.323   0.071 -0.4062  0.5027  0.8246
   24MOL0     C 3146   8.468   3.463   0.093 -0.0306  0.2381 -1.5274
   24MOL0     C 3147   8.403   3.514  -0.033  0.5897 -0.6906  0.5115
   24MOL0     C 3148   8.253   3.527  -0.006  0.6128  0.1273 -0.4526
   24MOL0     C 3149   8.167   3.543  -0.135  0.5660 -1.0711 -0.1451
   24MOL0    Cl 3150   8.218   3.684  -0.225  0.1181  0.2791 -0.0898
   24MOL0     C 3151   8.539   2.836   0.410  0.7259 -0.5183  0.4240
   24MOL0     C 3152   8.487   2.745   0.494  0.3168 -0.1774 -0.7701
   24MOL0     O 3153   8.616   2.459   0.543 -0.1248 -0.1503 -0.3909
   24MOL0     C 3154   8.389   2.386   0.816 -0.0058 -0.0643  0.2699
   24MOL0     C 3155   8.317   2.278   0.871 -0.9640 -0.5359 -0.3836
   24MOL0     N 3156   8.060   1.713   1.252 -0.4165 -0.6910  0.0695
   24MOL0     N 3157   8.087   1.636   1.351  0.5701  1.1254  0.3956
   24MOL0     C 3158   9.067   1.232   1.849 -0.0712  0.2044 -0.1104
   24MOL0     C 3159   9.204   1.236   1.872 -0.3335 -0.0867  0.2112
   24MOL0     C 3160   9.643   1.249   1.955  0.7601 -0.4573  0.6129
   24MOL0     C 3161   9.729   1.364   1.953  0.4768  0.6646  0.9533
   24MOL0     C 3162   9.859   1.354   2.003 -0.0599  0.9807 -0.4627
   24MOL0     C 3163   9.907   1.234   2.051 -0.2773 -0.5569  0.3316
   24MOL0     O 3164  10.032   1.222   2.105  0.3278  0.3743 -0.4936
   24MOL0     C 3165  10.128   1.143   2.039 -0.5545 -0.5633  0.1463
   24MOL0     C 3166  10.174   1.205   1.904 -0.5056  0.7670  0.1318
   24MOL0     C 3167  10.253   1.336   1.912 -0.0119  0.1663 -1.0183
   24MOL0     C 3168  10.400   1.300   1.933  0.3789 -0.0640 -0.5646
   24MOL0     C 3169  10.479   1.424   1.919  0.5346  0.3582 -0.4526
   24MOL0     C 3170  10.537   1.523   1.899  1.1296 -1.2782 -0.2094
   24MOL0     C 3171   9.820   1.123   2.061  0.7173  0.5898 -0.0275
   24MOL0     C 3172   9.691   1.131   2.004 -0.6214 -0.5363 -0.1754
   24MOL0     H 3173   9.228   1.077   2.165 -1.2483 -3.5376 -3.3369
   24MOL0     H 3174   8.984   1.117   2.163  1.9109 -2.6410  1.3253
   24MOL0     H 3175   8.804   1.349   1.845  1.9695 -0.8273 -0.0005
   24MOL0     H 3176   8.773   1.204   1.750 -2.4116  1.1242 -1.9834
   24MOL0     H 3177   8.581   1.140   1.911  0.1873 -0.3291 -0.5284
   24MOL0     H 3178   8.608   1.299   1.996  0.9758  0.9660  0.3598
   24MOL0     H 3179   8.436   1.362   1.870 -0.6707 -2.2460  0.2314
   24MOL0     H 3180   8.576   1.404   1.765 -0.3753 -0.0886 -1.1485
   24MOL0     H 3181   8.543   1.194   1.634 -1.0945 -0.5384 -2.2369
   24MOL0     H 3182   8.427   1.150   1.751  2.7954  0.5980  2.1264
   24MOL0     H 3183   8.270   1.281   1.663  0.7956  1.8063  3.0942
   24MOL0     H 3184   8.373   1.416   1.599 -0.9125  0.4230 -2.9179
   24MOL0     H 3185   8.458   1.226   1.434  0.5836  3.0920 -0.3165
   24MOL0     H 3186   8.296   1.154   1.464  2.0522 -2.3529 -3.3893
   24MOL0     H 3187   8.366   1.432   1.358  0.6121 -0.8371  0.9205
   24MOL0     H 3188   8.300   1.296   1.265 -4.2102 -0.7614  0.6330
   24MOL0     H 3189   8.152   1.440   1.495 -1.1655  0.9242  1.2760
   24MOL0     H 3190   8.098   1.305   1.399  1.4744 -0.4776 -1.9601
   24MOL0     H 3191   8.128   1.438   1.096 -1.2852  0.6820 -0.0365
   24MOL0     H 3192   8.022   1.634   0.931 -0.2462 -0.2464 -0.3583
   24MOL0     H 3193   7.977   1.782   1.006  0.6188  2.5307 -2.0419
   24MOL0     H 3194   8.252   1.710   0.897 -1.2468 -2.2001  0.8874
   24MOL0     H 3195   8.233   1.840   1.012  0.7299  0.7682  0.1512
   24MOL0     H 3196   8.056   1.942   0.852  0.0656 -1.1726  1.5783
   24MOL0     H 3197   8.103   1.813   0.740  2.9328 -1.0772 -0.6845
   24MOL0     H 3198   8.210   2.016   0.688 -1.2186 -3.0468 -1.5298
   24MOL0     H 3199   8.332   1.900   0.742  0.8982  0.2061  1.8925
   24MOL0     H 3200   8.508   2.034   0.748 -1.5042 -1.2113  1.2942
   24MOL0     H 3201   8.697   2.099   0.632  3.6960  0.6408 -1.0109
   24MOL0     H 3202   8.643   2.200   0.505  2.2684 -0.4883  0.1493
   24MOL0     H 3203   8.751   2.266   0.630 -0.2688  1.9232  0.9502
   24MOL0     H 3204   8.719   2.779   0.746  2.2213  2.5521 -0.7785
   24MOL0     H 3205   8.803   2.947   0.590 -1.9136  0.8468  3.4499
   24MOL0     H 3206   8.684   2.949   0.168 -0.4416  0.1999 -1.1326
   24MOL0     H 3207   8.554   3.048   0.230  0.2986 -1.2416  0.4835
   24MOL0     H 3208   8.818   3.167   0.197 -0.9579  1.1921  3.2630
   24MOL0     H 3209   8.711   3.127   0.052 -1.1186  1.3231 -0.3973
   24MOL0     H 3210   8.710   3.375   0.176 -0.9726  1.0711  0.4665
   24MOL0     H 3211   8.602   3.296   0.286 -0.0762  2.0665 -0.2763
   24MOL0     H 3212   8.588   3.339  -0.023 -0.9751  1.6427  0.6794
   24MOL0     H 3213   8.456   3.246   0.063 -0.5575  0.7428 -0.0965
   24MOL0     H 3214   8.548   3.532   0.123 -0.2017  0.2071 -0.9981
   24MOL0     H 3215   8.396   3.462   0.175  0.7870 -3.9122 -0.6761
   24MOL0     H 3216   8.441   3.611  -0.066 -0.8186 -0.0117  0.7883
   24MOL0     H 3217   8.421   3.437  -0.109  0.5542 -1.1411  0.9500
   24MOL0     H 3218   8.235   3.617   0.053  1.6082  1.7324 -2.4556
   24MOL0     H 3219   8.210   3.442   0.048 -1.1953  1.0134 -0.4385
   24MOL0     H 3220   8.064   3.556  -0.098  1.2957  0.8288  1.4030
   24MOL0     H 3221   8.171   3.454  -0.198  1.8865 -2.1476  1.3714
   24MOL0     H 3222   8.489   2.842   0.314  2.7074  0.7881 -0.6106
   24MOL0     H 3223   8.402   2.683   0.469  1.0859 -1.9282  0.7559
   24MOL0     H 3224   8.343   2.483   0.838 -0.5593  0.2016 -1.8251
   24MOL0     H 3225   8.236   2.302   0.938  0.3546  1.0828  0.7106
   24MOL0     H 3226   9.036   1.264   1.749 -1.1347 -0.1786  0.0771
   24MOL0     H 3227   9.269   1.257   1.787  1.0950  0.9153  1.4976
   24MOL0     H 3228   9.699   1.462   1.918  1.8422  1.1134  0.9986
   24MOL0     H 3229   9.918   1.444   2.002 -0.4150  1.2416 -2.4337
   24MOL0     H 3230  10.211   1.118   2.105 -0.2787  0.6158  0.2747
   24MOL0     H 3231  10.083   1.048   2.009 -0.0831  0.2015 -3.5369
   24MOL0     H 3232  10.091   1.230   1.837  1.1007 -0.2785 -2.4285
   24MOL0     H 3233  10.235   1.130   1.853 -2.1233  0.3766 -1.3198
   24MOL0     H 3234  10.217   1.386   2.002  0.9409 -1.8633  0.5800
   24MOL0     H 3235  10.239   1.393   1.820 -1.5410  0.8727 -0.3786
   24MOL0     H 3236  10.443   1.231   1.860 -0.0865 -1.8021  0.7547
   24MOL0     H 3237  10.417   1.264   2.034  0.3425 -0.0729 -0.5616
   24MOL0     H 3238  10.591   1.615   1.887 -0.7893  0.3593  2.4670
   24MOL0     H 3239   9.870   1.029   2.082 -0.2135  0.2178  0.5461
   24MOL0     H 3240   9.640   1.036   1.998  0.3830 -1.0591 -0.8880
   25MOL0     O 3241   1.608   1.555   5.649 -0.2035  0.8992  0.5510
   25MOL0     C 3242   1.614   1.671   5.625 -0.3460  0.4539 -0.4964
   25MOL0     O 3243   1.529   1.738   5.544  0.6540 -0.1866  0.1049
   25MOL0     C 3244   1.449   1.676   5.453  0.6513 -0.4274  1.1311
   25MOL0     C 3245   1.474   1.547   5.399 -0.2555  0.4911 -1.0527
   25MOL0     C 3246   1.376   1.486   5.320  0.0068 -0.2283 -0.7086
   25MOL0     C 3247   1.270   1.562   5.275  0.2297  0.5335  0.2257
   25MOL0     O 3248   1.174   1.500   5.205  0.4324  0.0392  0.1263
   25MOL0     C 3249   1.215   1.464   5.068 -0.1333 -0.1013 -0.4762
   25MOL0     C 3250   1.097   1.486   4.974  0.0758  0.4198  1.0938
   25MOL0     C 3251   0.987   1.384   4.991  0.0366 -0.0911 -0.0315
   25MOL0     C 3252   0.862   1.431   4.918 -0.1794  0.0335  0.7822
   25MOL0     C 3253   0.744   1.324   4.920  0.1341  0.8524  0.1117
   25MOL0     C 3254   0.697   1.271   5.062 -0.4936 -0.3394  0.0033
   25MOL0     C 3255   0.628   1.373   5.155  0.1802 -0.1016  0.2177
   25MOL0     C 3256   0.476   1.381   5.134 -0.1140 -0.0511  0.1827
   25MOL0     N 3257   0.399   1.262   5.151  0.0418  0.8770 -0.2737
   25MOL0     C 3258   0.403   1.160   5.244 -0.8271  0.3103  0.0574
   25MOL0     C 3259   0.299   1.081   5.216 -0.0550  1.0914  0.6970
   25MOL0     C 3260   0.278   0.955   5.277 -0.3749  0.9424 -0.0881
   25MOL0     C 3261   0.131   0.913   5.298 -0.1900  0.4713 -0.2135
   25MOL0     C 3262   0.082   1.005   5.415  0.1208 -0.3198  0.4128
   25MOL0     C 3263  -0.067   1.009   5.408  0.0309  0.0729 -0.2511
   25MOL0     O 3264  -0.115   0.880   5.435 -0.2116 -0.3248 -0.2558
   25MOL0     C 3265  -0.249   0.866   5.456 -0.0110  0.9119 -0.1857
   25MOL0     C 3266  -0.346   0.966   5.431 -0.2325 -0.2678 -0.3186
   25MOL0     C 3267  -0.481   0.945   5.455 -0.0896  0.6251 -0.5965
   25MOL0     C 3268  -0.562   1.067   5.439 -1.2544 -0.3811  1.3962
   25MOL0     C 3269  -0.525   0.817   5.507  0.5602 -0.1215  0.5525
   25MOL0     C 3270  -0.671   0.788   5.534  0.4680  0.4780 -0.0017
   25MOL0     O 3271  -0.708   0.662   5.566  0.7636  0.2163 -0.3106
   25MOL0     C 3272  -0.844   0.628   5.606 -0.4559  0.7747 -0.1398
   25MOL0     C 3273  -0.959   0.716   5.598  0.3055  0.8759 -0.3145
   25MOL0     C 3274  -1.086   0.668   5.631  0.0977 -0.6263  0.1161
   25MOL0     C 3275  -1.105   0.541   5.671  0.2338  0.0357 -0.7388
   25MOL0     O 3276  -1.227   0.479   5.707 -0.0171 -0.5131 -0.0567
   25MOL0     C 3277  -1.347   0.558   5.712  0.0749  0.3824  0.3169
   25MOL0     C 3278  -1.456   0.449   5.733  0.2677 -0.7501 -0.2248
   25MOL0     C 3279  -1.598   0.515   5.717  0.3178 -0.9252  0.0949
   25MOL0     C 3280  -1.712   0.417   5.743 -0.7174 -0.3799  1.2048
   25MOL0     C 3281  -1.854   0.463   5.753 -1.1822 -0.6374  0.1788
   25MOL0     C 3282  -1.923   0.488   5.615 -0.3588 -1.0085  0.1732
   25MOL0     C 3283  -2.070   0.518   5.645  0.9186  0.6512 -0.2103
   25MOL0     C 3284  -2.082   0.636   5.738  0.3384  0.8804  0.3630
   25MOL0    Cl 3285  -1.998   0.787   5.690  0.0609  0.2701 -0.4489
   25MOL0     C 3286  -0.989   0.458   5.672  0.2623  0.7266 -0.4361
   25MOL0     C 3287  -0.862   0.497   5.632 -0.1179 -0.4915 -0.1988
   25MOL0     O 3288  -0.747   0.883   5.530  0.4385  0.7259 -0.4101
   25MOL0     C 3289  -0.429   0.713   5.512  0.6058 -0.4927 -0.7142
   25MOL0     C 3290  -0.296   0.735   5.486 -0.5730 -0.5424 -0.3310
   25MOL0     N 3291   0.242   1.115   5.096 -0.0886  0.2741  0.0657
   25MOL0     N 3292   0.305   1.226   5.060 -0.3418 -0.6087  0.3674
   25MOL0     C 3293   1.255   1.694   5.316 -0.0371  0.4629  0.1192
   25MOL0     C 3294   1.346   1.749   5.411  0.7540 -0.2004 -0.4613
   25MOL0     C 3295   1.716   1.757   5.686 -0.9426 -0.9626  0.4243
   25MOL0     C 3296   1.809   1.697   5.775 -0.2317  0.5647  0.1300
   25MOL0     C 3297   1.914   1.784   5.818  0.2434  0.6247  1.0647
   25MOL0     C 3298   1.915   1.919   5.793 -0.0382 -0.5624  0.7045
   25MOL0     O 3299   2.012   2.004   5.853 -0.6714 -0.1420  0.7901
   25MOL0     C 3300   2.072   1.965   5.978  0.1488 -0.5136  0.1194
   25MOL0     C 3301   2.140   2.086   6.027 -0.8005 -0.3587 -0.4110
   25MOL0     C 3302   2.204   2.060   6.165 -0.1955  0.2434 -0.3185
   25MOL0     C 3303   2.299   2.175   6.205  0.1667 -0.7445  1.2757
   25MOL0     C 3304   2.414   2.200   6.108  0.2291  0.9787 -0.4925
   25MOL0     C 3305   2.513   2.223   6.042 -0.0539 -0.1795  0.1341
   25MOL0     C 3306   1.815   1.974   5.716 -1.1883 -0.2375 -0.0687
   25MOL0     C 3307   1.723   1.897   5.654  0.4032  0.5676  0.1677
   25MOL0     H 3308   1.566   1.496   5.425 -0.4183  0.5367 -0.3461
   25MOL0     H 3309   1.378   1.378   5.311 -1.3726 -0.6684  2.5858
   25MOL0     H 3310   1.295   1.528   5.030 -0.7059  0.7608 -0.2620
   25MOL0     H 3311   1.267   1.370   5.088  1.5895  1.3066  2.2519
   25MOL0     H 3312   1.055   1.587   4.977 -0.4864  0.3130 -1.0815
   25MOL0     H 3313   1.135   1.477   4.872  1.2669 -0.0435  1.5567
   25MOL0     H 3314   1.005   1.280   4.961 -0.6983 -0.1656 -0.2230
   25MOL0     H 3315   0.968   1.382   5.099 -1.2193  0.4509 -0.2344
   25MOL0     H 3316   0.826   1.524   4.964 -1.0811  1.2820 -2.1663
   25MOL0     H 3317   0.887   1.441   4.812 -1.9135 -0.6027  0.2802
   25MOL0     H 3318   0.655   1.364   4.869 -0.4815 -0.2251  0.3078
   25MOL0     H 3319   0.776   1.232   4.871 -0.5968  0.1676  0.9012
   25MOL0     H 3320   0.638   1.180   5.051 -1.4589  0.5681 -4.4142
   25MOL0     H 3321   0.787   1.235   5.113 -0.2909 -1.3581 -1.0229
   25MOL0     H 3322   0.655   1.343   5.257  1.5075  0.1947 -0.0302
   25MOL0     H 3323   0.666   1.473   5.134 -2.3242  0.6914 -0.9380
   25MOL0     H 3324   0.454   1.432   5.040 -0.2848 -1.2964 -0.4739
   25MOL0     H 3325   0.443   1.439   5.221  0.1070 -1.1106  0.9925
   25MOL0     H 3326   0.477   1.151   5.323 -0.2529  0.7659 -0.4152
   25MOL0     H 3327   0.328   0.878   5.217  1.5478  1.1922  1.0878
   25MOL0     H 3328   0.338   0.959   5.369 -0.2570 -0.3138 -0.1033
   25MOL0     H 3329   0.134   0.808   5.326 -0.9383  0.1418 -1.3189
   25MOL0     H 3330   0.064   0.926   5.212 -0.2202 -0.8985 -0.4066
   25MOL0     H 3331   0.126   1.105   5.409 -2.3042  0.8085  0.3606
   25MOL0     H 3332   0.114   0.958   5.508  0.4229  1.5137  1.2873
   25MOL0     H 3333  -0.105   1.046   5.313 -0.6051  0.8096  0.2676
   25MOL0     H 3334  -0.099   1.080   5.486 -2.2201  1.7252 -2.4885
   25MOL0     H 3335  -0.311   1.057   5.384  1.9746 -1.7046 -1.6494
   25MOL0     H 3336  -0.516   1.147   5.380 -1.9347  0.6592  2.2380
   25MOL0     H 3337  -0.642   1.032   5.373  1.4866  0.1407 -2.5818
   25MOL0     H 3338  -0.597   1.110   5.533 -0.8397  0.6730  1.0804
   25MOL0     H 3339  -0.947   0.822   5.577  1.8331  1.5119  3.0792
   25MOL0     H 3340  -1.170   0.736   5.615  0.2013 -0.5085  0.0723
   25MOL0     H 3341  -1.349   0.630   5.795 -2.3159 -1.1272  1.6836
   25MOL0     H 3342  -1.351   0.598   5.610 -2.2583  0.0571  0.2284
   25MOL0     H 3343  -1.448   0.357   5.675  0.6535 -0.1490 -1.1537
   25MOL0     H 3344  -1.441   0.408   5.833  3.4257 -1.4970 -0.8893
   25MOL0     H 3345  -1.597   0.565   5.620  0.6612  1.0093  1.0491
   25MOL0     H 3346  -1.598   0.597   5.789  3.6166 -0.7922  0.1150
   25MOL0     H 3347  -1.697   0.349   5.659  0.8702  0.0487  1.0897
   25MOL0     H 3348  -1.677   0.369   5.834 -1.1845  1.2690  2.3086
   25MOL0     H 3349  -1.862   0.552   5.815 -0.6648  1.7944 -2.9819
   25MOL0     H 3350  -1.909   0.385   5.805  1.6029 -2.4384  0.6576
   25MOL0     H 3351  -1.870   0.567   5.561  3.8765 -2.8338  1.2142
   25MOL0     H 3352  -1.906   0.396   5.558  0.6348 -0.3062 -0.6896
   25MOL0     H 3353  -2.126   0.436   5.691 -0.9991  1.9127 -0.2116
   25MOL0     H 3354  -2.121   0.530   5.549 -1.7132 -2.8793  0.5496
   25MOL0     H 3355  -2.045   0.607   5.837  2.3050  1.8273 -0.0530
   25MOL0     H 3356  -2.188   0.662   5.750 -0.1035 -0.6881  0.0229
   25MOL0     H 3357  -1.004   0.353   5.696  0.4004  0.6681 -0.6070
   25MOL0     H 3358  -0.782   0.425   5.642 -0.9498 -1.4230 -0.0281
   25MOL0     H 3359  -0.456   0.619   5.559  2.3292 -0.2033  0.9980
   25MOL0     H 3360  -0.211   0.669   5.495  2.7076  3.3141 -0.1414
   25MOL0     H 3361   1.175   1.757   5.280  0.5441 -0.0106 -2.2045
   25MOL0     H 3362   1.335   1.843   5.464 -2.7124 -2.0890  2.6400
   25MOL0     H 3363   1.807   1.593   5.805  2.3240  0.3917 -0.0190
   25MOL0     H 3364   1.977   1.740   5.894 -0.9664  2.0206  2.9533
   25MOL0     H 3365   2.001   1.938   6.056  0.7387  1.5053  1.4463
   25MOL0     H 3366   2.141   1.881   5.965  2.1454  1.4069 -3.7920
   25MOL0     H 3367   2.066   2.165   6.042 -0.7253 -0.5609  1.1555
   25MOL0     H 3368   2.217   2.114   5.954  0.1589 -2.9612 -0.5028
   25MOL0     H 3369   2.256   1.964   6.160 -3.2059 -1.4427 -1.8147
   25MOL0     H 3370   2.123   2.054   6.239 -0.3951  1.6806 -0.3957
   25MOL0     H 3371   2.334   2.156   6.306 -0.1106  2.3510  2.0383
   25MOL0     H 3372   2.235   2.264   6.205 -0.7538 -1.2546 -2.2612
   25MOL0     H 3373   2.600   2.246   5.985  0.1962 -0.5919  0.3420
   25MOL0     H 3374   1.821   2.080   5.693  0.8961 -0.3154 -0.1012
   25MOL0     H 3375   1.645   1.939   5.590  1.8992  4.2978  0.5333
   26MOL0     O 3376   6.092   7.990  11.028  0.1963 -0.9389 -0.7302
   26MOL0     C 3377   6.142   8.099  11.056  0.1986  0.8308  0.3868
   26MOL0     O 3378   6.072   8.200  11.111  0.0550 -0.8771 -0.6670
   26MOL0     C 3379   5.943   8.185  11.158 -0.1665  0.2161  0.3889
   26MOL0     C 3380   5.909   8.266  11.267  0.3604 -0.0168 -0.3059
   26MOL0     C 3381   5.771   8.283  11.308 -0.1366  1.1617 -0.5492
   26MOL0     C 3382   5.672   8.206  11.243  0.1311  0.3018 -0.0366
   26MOL0     O 3383   5.543   8.193  11.292 -0.1892 -0.3035  0.6076
   26MOL0     C 3384   5.510   8.257  11.421 -0.8398 -0.0215  0.1753
   26MOL0     C 3385   5.368   8.208  11.467 -0.2253 -0.2456 -0.4402
   26MOL0     C 3386   5.292   8.306  11.555 -0.2869 -0.2723 -0.4746
   26MOL0     C 3387   5.155   8.249  11.588  1.5188  0.4869  1.0421
   26MOL0     C 3388   5.076   8.369  11.622 -0.0655 -0.6110 -0.1641
   26MOL0     C 3389   4.939   8.330  11.683  0.7092  0.2378  0.5407
   26MOL0     C 3390   4.828   8.333  11.585  0.2573  0.1941 -0.0677
   26MOL0     C 3391   4.718   8.251  11.646  0.5993  0.6029 -0.3851
   26MOL0     N 3392   4.596   8.239  11.563  0.1313  0.7072 -0.1798
   26MOL0     C 3393   4.551   8.125  11.497 -0.0616 -0.3261 -0.5592
   26MOL0     C 3394   4.411   8.147  11.486  0.6064  0.2214 -0.0391
   26MOL0     C 3395   4.326   8.056  11.406 -0.2660 -0.0420  0.1645
   26MOL0     C 3396   4.191   8.122  11.379 -0.3056 -0.2537  0.2175
   26MOL0     C 3397   4.097   8.110  11.502  0.3998 -0.4827 -0.7722
   26MOL0     C 3398   3.954   8.137  11.467 -0.2110  0.0050  0.5018
   26MOL0     O 3399   3.951   8.276  11.443 -0.3610 -0.3195 -0.9747
   26MOL0     C 3400   3.822   8.332  11.438 -0.6276 -0.1062  0.3568
   26MOL0     C 3401   3.792   8.418  11.340 -0.1243 -0.9295  0.1833
   26MOL0     C 3402   3.668   8.472  11.322 -0.1144  0.2997 -0.9032
   26MOL0     C 3403   3.645   8.551  11.195  0.0079  0.1327  0.6719
   26MOL0     C 3404   3.564   8.441  11.418  0.1001  0.3022  0.4471
   26MOL0     C 3405   3.436   8.506  11.421 -0.6155 -0.4958  0.9337
   26MOL0     O 3406   3.336   8.436  11.489 -0.5668  0.2628  0.1098
   26MOL0     C 3407   3.212   8.485  11.480 -0.0302 -0.1054  0.7003
   26MOL0     C 3408   3.142   8.507  11.596  0.6233 -0.0872 -0.3994
   26MOL0     C 3409   3.015   8.560  11.586 -0.2011  0.1558  0.4771
   26MOL0     C 3410   2.953   8.584  11.463 -0.3206 -0.1915  0.5407
   26MOL0     O 3411   2.829   8.640  11.446  0.0710  0.2203 -0.1387
   26MOL0     C 3412   2.751   8.700  11.554 -1.0329  0.0704  1.3533
   26MOL0     C 3413   2.608   8.663  11.557 -0.0853 -0.4452 -0.6862
   26MOL0     C 3414   2.594   8.544  11.655 -0.8014 -0.2037  0.3954
   26MOL0     C 3415   2.667   8.417  11.603 -0.6581 -0.6033  0.1578
   26MOL0     C 3416   2.614   8.376  11.464  0.2410  0.2227 -0.3511
   26MOL0     C 3417   2.698   8.262  11.407  0.7146  0.5830  0.0635
   26MOL0     C 3418   2.646   8.241  11.256 -0.1315 -0.8693 -0.6875
   26MOL0     C 3419   2.685   8.101  11.197  0.8730 -0.3863 -0.8860
   26MOL0    Cl 3420   2.600   7.978  11.292 -0.0226  0.0991  0.3399
   26MOL0     C 3421   3.024   8.561  11.343 -0.2491  0.4524 -0.0616
   26MOL0     C 3422   3.154   8.501  11.350  0.3390 -0.5774  0.1544
   26MOL0     O 3423   3.427   8.617  11.366  0.9080 -0.2319 -0.3001
   26MOL0     C 3424   3.597   8.353  11.518 -0.1992 -0.4686 -1.2383
   26MOL0     C 3425   3.729   8.308  11.534  0.0458  1.0063 -0.6563
   26MOL0     N 3426   4.384   8.270  11.537 -0.3405  0.1526 -0.9287
   26MOL0     N 3427   4.498   8.321  11.579 -1.3961 -0.5591 -0.1250
   26MOL0     C 3428   5.708   8.132  11.135 -0.3126 -0.5755 -0.1249
   26MOL0     C 3429   5.846   8.125  11.088 -0.0234  0.4337  0.4503
   26MOL0     C 3430   6.280   8.130  11.031 -0.0761 -0.8379  0.8935
   26MOL0     C 3431   6.357   8.060  10.935  0.1081 -0.8587  0.3230
   26MOL0     C 3432   6.491   8.080  10.931 -0.0549  0.5317 -0.0111
   26MOL0     C 3433   6.554   8.170  11.012  0.5949 -0.2406 -0.0391
   26MOL0     O 3434   6.692   8.171  10.996 -0.0827 -0.1196 -0.4241
   26MOL0     C 3435   6.773   8.260  11.080  0.2700  0.4426 -0.0279
   26MOL0     C 3436   6.919   8.231  11.060 -0.3564  0.4513 -0.2654
   26MOL0     C 3437   6.966   8.099  11.119  0.0279 -0.2175 -0.0515
   26MOL0     C 3438   7.115   8.096  11.136 -0.3622 -0.1667  0.6105
   26MOL0     C 3439   7.187   8.057  11.022  0.5167 -0.3283  0.3651
   26MOL0     C 3440   7.257   8.013  10.929  0.2623 -1.2229 -0.4972
   26MOL0     C 3441   6.478   8.254  11.095 -0.6604  0.4754  0.5121
   26MOL0     C 3442   6.342   8.240  11.102 -0.2386  0.0503  0.1603
   26MOL0     H 3443   5.986   8.323  11.318 -0.4913  1.3547 -0.4762
   26MOL0     H 3444   5.756   8.351  11.391  2.6674  0.9759  0.2043
   26MOL0     H 3445   5.586   8.215  11.488  1.3093  1.8781 -0.9164
   26MOL0     H 3446   5.508   8.366  11.429 -0.7628 -0.0821  1.1521
   26MOL0     H 3447   5.313   8.195  11.374 -0.7061  1.5003 -0.4364
   26MOL0     H 3448   5.386   8.114  11.520 -0.5698  0.2211  0.5276
   26MOL0     H 3449   5.351   8.320  11.646 -1.8923  1.4194  0.3704
   26MOL0     H 3450   5.283   8.393  11.490 -0.4767 -0.7346 -1.0744
   26MOL0     H 3451   5.105   8.205  11.502  1.0413 -1.7109  2.3705
   26MOL0     H 3452   5.146   8.180  11.672 -2.1551 -2.0207 -1.1422
   26MOL0     H 3453   5.133   8.430  11.691  2.6288 -1.9795 -1.0436
   26MOL0     H 3454   5.061   8.424  11.528  1.9096  1.5984  0.7382
   26MOL0     H 3455   4.934   8.234  11.736 -1.4843 -0.5989 -1.0197
   26MOL0     H 3456   4.908   8.409  11.751  0.0878  1.1370 -0.7409
   26MOL0     H 3457   4.788   8.431  11.558  1.0684  0.0633 -1.9067
   26MOL0     H 3458   4.866   8.294  11.490 -0.4809  2.7573 -1.5106
   26MOL0     H 3459   4.676   8.291  11.739  0.9164 -1.4324  0.6825
   26MOL0     H 3460   4.752   8.151  11.671  2.0244  0.9938 -0.6895
   26MOL0     H 3461   4.602   8.034  11.467 -0.4297 -1.5734  2.3177
   26MOL0     H 3462   4.374   8.044  11.309 -0.1040  1.1014  0.0912
   26MOL0     H 3463   4.314   7.968  11.470  0.1105 -0.8099 -0.7895
   26MOL0     H 3464   4.140   8.063  11.302 -0.4955 -1.6549  1.3795
   26MOL0     H 3465   4.196   8.222  11.335  1.1343 -0.8746 -1.1756
   26MOL0     H 3466   4.129   8.190  11.569 -2.2710  1.0041 -1.1557
   26MOL0     H 3467   4.104   8.009  11.544 -1.4648 -0.7072 -0.9102
   26MOL0     H 3468   3.889   8.113  11.551 -1.1313  1.1348  0.1405
   26MOL0     H 3469   3.922   8.079  11.380  0.7088 -2.1709  1.5437
   26MOL0     H 3470   3.864   8.442  11.262  0.4483  2.1661  1.5420
   26MOL0     H 3471   3.554   8.517  11.144  1.1890  0.7184 -1.9660
   26MOL0     H 3472   3.639   8.659  11.214  1.5196  0.0616  1.7269
   26MOL0     H 3473   3.731   8.551  11.128  0.3269  0.5923  1.0744
   26MOL0     H 3474   3.183   8.496  11.696 -0.0784  0.9771  0.0289
   26MOL0     H 3475   2.966   8.581  11.680 -0.5969 -1.4402  0.6470
   26MOL0     H 3476   2.804   8.699  11.649  0.7223  1.7058  0.4635
   26MOL0     H 3477   2.745   8.807  11.531 -0.0853 -0.1176  0.0818
   26MOL0     H 3478   2.550   8.746  11.599  0.8128 -0.6317  1.0104
   26MOL0     H 3479   2.562   8.655  11.459 -0.2584  0.0316 -0.6460
   26MOL0     H 3480   2.489   8.521  11.675 -1.9134  2.8220 -1.2261
   26MOL0     H 3481   2.634   8.578  11.751  0.0629 -1.2080  0.4083
   26MOL0     H 3482   2.777   8.417  11.606 -0.5953  1.2327 -0.7336
   26MOL0     H 3483   2.645   8.342  11.680 -1.4931  0.3696  0.8895
   26MOL0     H 3484   2.619   8.464  11.399  3.6439  1.8906  1.8785
   26MOL0     H 3485   2.508   8.348  11.472 -0.6704  2.8133 -2.0773
   26MOL0     H 3486   2.804   8.289  11.416  0.0328  2.9065  1.9617
   26MOL0     H 3487   2.667   8.171  11.458  1.2990 -0.6400 -1.6641
   26MOL0     H 3488   2.693   8.324  11.203 -1.0637 -1.2033 -2.1020
   26MOL0     H 3489   2.538   8.258  11.247  0.3736  2.7376 -1.2914
   26MOL0     H 3490   2.794   8.089  11.198  1.0143  0.5536  2.0410
   26MOL0     H 3491   2.647   8.102  11.094  0.9481  0.2952 -0.9118
   26MOL0     H 3492   2.972   8.585  11.251 -0.4797 -0.2560 -0.1228
   26MOL0     H 3493   3.214   8.481  11.261  1.6145 -0.4899  0.9635
   26MOL0     H 3494   3.529   8.307  11.589  2.0300 -4.6512 -1.5019
   26MOL0     H 3495   3.748   8.242  11.618  2.7666  0.4774 -1.5663
   26MOL0     H 3496   5.634   8.069  11.086  0.8955 -1.1407 -1.2772
   26MOL0     H 3497   5.856   8.070  10.995 -2.7048  0.0053  0.3456
   26MOL0     H 3498   6.322   7.981  10.870  1.0013 -1.8983  1.0827
   26MOL0     H 3499   6.539   8.003  10.872  0.1679  1.1149 -0.5983
   26MOL0     H 3500   6.751   8.360  11.042 -1.8390 -0.1191 -0.4120
   26MOL0     H 3501   6.736   8.234  11.180 -1.4483 -1.2845 -1.0552
   26MOL0     H 3502   6.983   8.308  11.103  0.4842 -1.1837  1.5434
   26MOL0     H 3503   6.932   8.233  10.951 -0.7741 -1.8435 -0.4241
   26MOL0     H 3504   6.934   8.012  11.059  0.8387 -1.5647  1.3860
   26MOL0     H 3505   6.911   8.085  11.213  0.2702  2.5030  0.5491
   26MOL0     H 3506   7.138   8.017  11.208 -2.2354 -2.2192 -0.8951
   26MOL0     H 3507   7.159   8.189  11.173  0.9241 -0.9958  1.2351
   26MOL0     H 3508   7.325   7.968  10.860  2.0566  0.2631  0.2136
   26MOL0     H 3509   6.511   8.346  11.144  3.2493 -0.5888  0.2234
   26MOL0     H 3510   6.291   8.308  11.170  1.5497  0.1720  1.4679
   27MOL0     O 3511   3.722  11.372   8.972 -0.1738  0.1112 -0.0745
   27MOL0     C 3512   3.753  11.261   9.016  0.6549 -0.3617 -0.1631
   27MOL0     O 3513   3.659  11.155   9.036 -0.5955  0.3157  0.6991
   27MOL0     C 3514   3.528  11.187   9.014  0.4628  0.2916  0.4123
   27MOL0     C 3515   3.458  11.088   8.946 -0.1135 -0.6639 -0.1402
   27MOL0     C 3516   3.325  11.108   8.913  0.1251 -0.6290 -0.3061
   27MOL0     C 3517   3.244  11.206   8.965  0.2343  0.1335 -0.3190
   27MOL0     O 3518   3.108  11.209   8.977  0.2051  0.3328 -0.6426
   27MOL0     C 3519   3.026  11.105   8.907 -0.6061 -0.3367 -1.3618
   27MOL0     C 3520   2.880  11.158   8.918  0.3681 -0.2622  0.3647
   27MOL0     C 3521   2.776  11.044   8.909  0.3276 -0.0817  0.8244
   27MOL0     C 3522   2.635  11.102   8.943 -0.4871 -0.0523 -0.4310
   27MOL0     C 3523   2.532  11.009   8.894  1.2192 -0.0709 -0.5777
   27MOL0     C 3524   2.393  11.046   8.951 -0.6798 -0.6751  0.0763
   27MOL0     C 3525   2.347  11.192   8.942 -0.4004 -0.6251  0.5499
   27MOL0     C 3526   2.206  11.225   8.984 -0.2270 -0.1405 -0.3418
   27MOL0     N 3527   2.126  11.118   9.054 -0.0354  0.0421  0.4208
   27MOL0     C 3528   2.032  11.035   8.998 -0.0717 -0.1899  0.5258
   27MOL0     C 3529   1.986  10.970   9.115  0.1619  0.5814 -0.2362
   27MOL0     C 3530   1.872  10.868   9.127 -0.5603  0.4473 -0.4925
   27MOL0     C 3531   1.779  10.872   9.246  0.0294 -0.3667  0.5266
   27MOL0     C 3532   1.710  11.015   9.229 -0.2389  0.7381 -0.1350
   27MOL0     C 3533   1.560  10.998   9.214  0.4563  0.6299  0.2257
   27MOL0     O 3534   1.496  11.125   9.195  0.2922  0.6765  0.1611
   27MOL0     C 3535   1.376  11.126   9.142  0.4157  0.3683  1.0496
   27MOL0     C 3536   1.342  11.241   9.075  0.5131 -0.1863 -0.5902
   27MOL0     C 3537   1.221  11.266   9.002 -0.5707 -0.1265 -0.1095
   27MOL0     C 3538   1.216  11.384   8.919  1.2409 -0.2382  0.0662
   27MOL0     C 3539   1.125  11.159   9.017 -0.4453 -0.2888 -0.1934
   27MOL0     C 3540   0.993  11.159   8.945  0.2459  0.5813  0.1662
   27MOL0     O 3541   0.887  11.154   9.033  0.3605  0.5784 -0.4478
   27MOL0     C 3542   0.779  11.215   8.989  0.8728 -0.0213 -0.4466
   27MOL0     C 3543   0.736  11.338   9.050 -0.9956  0.7944  0.1359
   27MOL0     C 3544   0.611  11.389   9.014  0.9075 -0.5527 -0.2753
   27MOL0     C 3545   0.533  11.331   8.914 -0.4885 -0.2467  1.1039
   27MOL0     O 3546   0.409  11.387   8.888 -0.7663  0.2243 -0.3577
   27MOL0     C 3547   0.315  11.325   8.799  0.0615  0.2027  0.2045
   27MOL0     C 3548   0.204  11.422   8.809  0.6574  0.3884  0.4140
   27MOL0     C 3549   0.088  11.367   8.722 -0.1266 -0.1342  0.1827
   27MOL0     C 3550  -0.037  11.456   8.743  0.0216 -0.9874 -0.6599
   27MOL0     C 3551  -0.154  11.398   8.825 -0.3600  1.3066  0.1473
   27MOL0     C 3552  -0.258  11.495   8.851  0.2843  0.1520 -0.7477
   27MOL0     C 3553  -0.364  11.466   8.967  0.1117  0.2091  1.0216
   27MOL0     C 3554  -0.412  11.317   8.977 -1.1137  0.0242 -0.4686
   27MOL0    Cl 3555  -0.538  11.326   9.106  0.0100 -0.1268  0.1357
   27MOL0     C 3556   0.570  11.203   8.862 -0.2528 -0.3379 -0.4277
   27MOL0     C 3557   0.693  11.150   8.898 -0.4197 -0.2523  0.2973
   27MOL0     O 3558   0.987  11.179   8.826 -0.3577  0.0082  0.0937
   27MOL0     C 3559   1.156  11.048   9.101  0.4300  0.6134 -0.0251
   27MOL0     C 3560   1.275  11.029   9.160 -1.2058 -0.2400 -0.4215
   27MOL0     N 3561   2.041  11.025   9.231 -0.2985  0.4575  0.0050
   27MOL0     N 3562   2.122  11.116   9.194 -0.6206  0.2869 -0.5154
   27MOL0     C 3563   3.314  11.295   9.040  0.4532  0.6081 -1.3556
   27MOL0     C 3564   3.452  11.291   9.061  0.4480  0.3189 -0.4841
   27MOL0     C 3565   3.896  11.223   9.039 -0.1108 -0.3967  0.1054
   27MOL0     C 3566   3.993  11.326   9.017 -0.0010 -0.4113  0.4564
   27MOL0     C 3567   4.124  11.294   9.041  0.7203 -0.5765 -0.3370
   27MOL0     C 3568   4.157  11.162   9.087 -0.7751 -0.2134  0.4503
   27MOL0     O 3569   4.283  11.135   9.116  0.1768 -0.3163  0.1527
   27MOL0     C 3570   4.375  11.248   9.138 -0.0360  0.3219 -0.1137
   27MOL0     C 3571   4.490  11.214   9.228 -0.2208  0.0018 -0.4852
   27MOL0     C 3572   4.593  11.332   9.239 -0.0744  0.7050  0.1906
   27MOL0     C 3573   4.743  11.296   9.227 -0.7984 -0.0400  0.1054
   27MOL0     C 3574   4.785  11.193   9.318  0.1776 -0.7625 -0.5088
   27MOL0     C 3575   4.824  11.102   9.389 -0.1118  0.0164 -0.5291
   27MOL0     C 3576   4.060  11.057   9.090  0.0942  0.5293 -0.3223
   27MOL0     C 3577   3.933  11.087   9.069  0.1165  0.4395 -0.7922
   27MOL0     H 3578   3.509  11.004   8.899  1.3378  0.1119 -0.0325
   27MOL0     H 3579   3.275  11.038   8.848  1.1622 -0.7868 -0.9646
   27MOL0     H 3580   3.064  11.107   8.805  2.2442 -1.5145 -0.4152
   27MOL0     H 3581   3.034  11.008   8.957  1.9396  0.5117  0.0962
   27MOL0     H 3582   2.873  11.216   9.010 -0.4674  1.2397 -0.6022
   27MOL0     H 3583   2.873  11.231   8.837  0.2611 -0.3816  0.2641
   27MOL0     H 3584   2.794  11.010   8.806  1.6354 -1.0008  1.3210
   27MOL0     H 3585   2.791  10.967   8.985 -0.7010 -0.9579  0.1679
   27MOL0     H 3586   2.631  11.125   9.050 -0.7506  1.1897 -0.6925
   27MOL0     H 3587   2.604  11.192   8.888  1.9128  1.5379  0.6511
   27MOL0     H 3588   2.542  11.022   8.786 -1.1540 -1.6703 -1.0823
   27MOL0     H 3589   2.553  10.909   8.932  3.6227  0.3855 -0.5572
   27MOL0     H 3590   2.320  10.975   8.910 -0.3812 -1.9177  1.6062
   27MOL0     H 3591   2.390  11.029   9.059  4.2419 -3.2059  0.0798
   27MOL0     H 3592   2.420  11.256   8.993 -0.6296  1.4761 -1.5702
   27MOL0     H 3593   2.356  11.222   8.837  0.9544 -1.0878  0.5057
   27MOL0     H 3594   2.134  11.250   8.905 -3.2313  1.7232  2.6669
   27MOL0     H 3595   2.215  11.307   9.056  1.6321 -1.4610  0.9922
   27MOL0     H 3596   1.996  11.018   8.896  0.9589 -0.2418  0.1603
   27MOL0     H 3597   1.816  10.865   9.033  1.3638 -0.1448 -1.6606
   27MOL0     H 3598   1.922  10.772   9.140 -0.4917  0.2371 -2.0839
   27MOL0     H 3599   1.850  10.874   9.330  2.3317  1.5379 -1.3025
   27MOL0     H 3600   1.710  10.788   9.242 -0.7057  0.2879 -0.8828
   27MOL0     H 3601   1.749  11.073   9.144  0.5395  1.9102  0.9784
   27MOL0     H 3602   1.725  11.070   9.323 -1.2518 -0.9373  1.0564
   27MOL0     H 3603   1.526  10.958   9.311 -0.9962  2.4115  0.5008
   27MOL0     H 3604   1.542  10.925   9.135  0.6983 -1.1802  1.7551
   27MOL0     H 3605   1.420  11.316   9.069  0.5117  0.1606  2.4014
   27MOL0     H 3606   1.288  11.453   8.965 -1.6695  1.2243  2.7960
   27MOL0     H 3607   1.234  11.365   8.813 -0.4623 -2.2497  0.0660
   27MOL0     H 3608   1.120  11.435   8.914 -0.4446 -2.9204  2.2560
   27MOL0     H 3609   0.797  11.380   9.129  1.7779 -0.2649 -1.2983
   27MOL0     H 3610   0.577  11.462   9.086  0.3147 -3.2875  2.4010
   27MOL0     H 3611   0.354  11.324   8.697 -0.4802  0.6255 -0.0158
   27MOL0     H 3612   0.300  11.222   8.831  2.7220 -0.1491  0.5329
   27MOL0     H 3613   0.163  11.432   8.910  0.2097 -2.0895  0.5553
   27MOL0     H 3614   0.239  11.516   8.767  0.0825  0.5888  0.3699
   27MOL0     H 3615   0.071  11.264   8.756  1.0663 -1.1108 -1.9336
   27MOL0     H 3616   0.118  11.354   8.618  2.3785 -2.0265  1.0347
   27MOL0     H 3617  -0.013  11.555   8.783 -0.5714  0.5792 -3.8870
   27MOL0     H 3618  -0.071  11.478   8.642  1.9413  3.8586 -0.4736
   27MOL0     H 3619  -0.117  11.346   8.914  3.0697  1.3548 -1.1122
   27MOL0     H 3620  -0.199  11.314   8.772 -0.9369 -0.0886  2.6555
   27MOL0     H 3621  -0.209  11.592   8.863  2.0622 -0.8722  0.7828
   27MOL0     H 3622  -0.310  11.504   8.755  0.8029 -0.7507 -1.1307
   27MOL0     H 3623  -0.448  11.529   8.936 -0.0524  0.1743  1.3875
   27MOL0     H 3624  -0.327  11.494   9.067  0.6163 -1.6244  1.3753
   27MOL0     H 3625  -0.341  11.245   9.018  0.3426  0.6515 -1.7592
   27MOL0     H 3626  -0.448  11.281   8.880 -0.0159 -0.4324 -0.7223
   27MOL0     H 3627   0.510  11.158   8.784  1.1575  0.2699 -1.9152
   27MOL0     H 3628   0.714  11.051   8.857 -0.3571  0.0663 -0.4481
   27MOL0     H 3629   1.089  10.963   9.108 -1.4061  2.0714  1.5102
   27MOL0     H 3630   1.295  10.942   9.222 -0.5199  0.1432 -0.0956
   27MOL0     H 3631   3.258  11.373   9.090 -2.3924 -1.9362 -0.2481
   27MOL0     H 3632   3.493  11.378   9.110 -3.1081  1.4565  0.7905
   27MOL0     H 3633   3.963  11.420   8.972 -5.6340 -0.9796  2.2607
   27MOL0     H 3634   4.200  11.368   9.017  0.5763  0.7598  2.7891
   27MOL0     H 3635   4.413  11.284   9.041  1.4600  0.5543  0.5289
   27MOL0     H 3636   4.326  11.331   9.190 -1.6212  1.0416 -2.5823
   27MOL0     H 3637   4.541  11.122   9.198 -0.1039 -0.2621  0.4835
   27MOL0     H 3638   4.453  11.196   9.329  1.6643  2.6198  0.7966
   27MOL0     H 3639   4.561  11.392   9.324 -0.8206 -0.5039  0.8051
   27MOL0     H 3640   4.586  11.385   9.144  0.9098  1.5167  0.5683
   27MOL0     H 3641   4.800  11.384   9.260 -0.8897  0.6193 -1.4087
   27MOL0     H 3642   4.766  11.266   9.125 -0.3175  0.3020  0.1104
   27MOL0     H 3643   4.849  11.020   9.453  2.7757  0.1022 -1.4458
   27MOL0     H 3644   4.084  10.955   9.120 -0.9358 -0.3048 -2.1914
   27MOL0     H 3645   3.851  11.017   9.074 -1.0534  1.6548 -1.9961
   28MOL0     O 3646   3.144   0.012   1.257  0.7907  0.6534  0.3664
   28MOL0     C 3647   3.218   0.089   1.202  0.0691  0.8276  0.8245
   28MOL0     O 3648   3.202   0.230   1.187  0.3327  0.5265  0.0116
   28MOL0     C 3649   3.086   0.292   1.219  0.4784 -0.7694 -0.8679
   28MOL0     C 3650   2.981   0.242   1.301  0.7817  0.0825  0.0826
   28MOL0     C 3651   2.868   0.323   1.320 -0.2379  0.5748 -0.7809
   28MOL0     C 3652   2.862   0.452   1.262  0.1207 -0.6770  0.5645
   28MOL0     O 3653   2.752   0.520   1.295  0.4680 -0.6534 -0.3323
   28MOL0     C 3654   2.698   0.640   1.237  0.4192 -0.8022 -0.3133
   28MOL0     C 3655   2.603   0.629   1.114  0.4346 -0.2536 -0.4626
   28MOL0     C 3656   2.476   0.531   1.127  0.6191  0.1023 -0.0829
   28MOL0     C 3657   2.362   0.552   1.042  1.1991  0.2949  0.8988
   28MOL0     C 3658   2.235   0.465   1.068  0.5198  0.7817  0.6372
   28MOL0     C 3659   2.102   0.552   1.055  0.4262 -0.9645  0.1163
   28MOL0     C 3660   1.991   0.452   1.049 -0.1024 -0.2545  0.5608
   28MOL0     C 3661   1.849   0.509   1.016  0.1035 -0.8903 -0.3603
   28MOL0     N 3662   1.749   0.406   1.018  0.2020 -1.0112  0.0639
   28MOL0     C 3663   1.674   0.373   1.130 -0.5550  0.3420 -0.1598
   28MOL0     C 3664   1.607   0.264   1.086  0.4462  0.2738  0.0713
   28MOL0     C 3665   1.502   0.183   1.155  1.3130  0.7781  0.3399
   28MOL0     C 3666   1.364   0.250   1.153  0.1548 -0.2823 -0.2694
   28MOL0     C 3667   1.259   0.177   1.246 -0.3877 -0.6069 -0.1074
   28MOL0     C 3668   1.133   0.259   1.249 -0.1779 -0.9157 -0.5082
   28MOL0     O 3669   1.018   0.202   1.322 -0.3297 -0.0090  0.4344
   28MOL0     C 3670   0.920   0.291   1.341 -0.2193  0.6777 -0.2607
   28MOL0     C 3671   0.831   0.244   1.439 -0.2477 -0.2375 -0.1632
   28MOL0     C 3672   0.714   0.315   1.465 -0.4893  1.1394 -0.3558
   28MOL0     C 3673   0.628   0.268   1.577 -1.0110  0.5465  0.1704
   28MOL0     C 3674   0.681   0.423   1.384  0.3705  0.3174 -0.4478
   28MOL0     C 3675   0.565   0.511   1.409  0.3118 -0.4927 -0.2206
   28MOL0     O 3676   0.581   0.616   1.494 -0.0656  0.2365 -0.3863
   28MOL0     C 3677   0.467   0.687   1.525 -0.7047 -0.2975 -0.3340
   28MOL0     C 3678   0.474   0.831   1.513 -0.1419  0.2232 -0.4763
   28MOL0     C 3679   0.371   0.913   1.572  0.4267 -0.0412 -0.5081
   28MOL0     C 3680   0.258   0.850   1.630 -0.5337  0.6867 -0.4674
   28MOL0     O 3681   0.173   0.931   1.695 -0.2690 -0.3083  0.2941
   28MOL0     C 3682   0.062   0.980   1.613  0.7565 -0.5825  0.1497
   28MOL0     C 3683  -0.051   1.025   1.705 -0.0580  0.0941 -0.5956
   28MOL0     C 3684  -0.171   1.063   1.617  0.1144 -0.4524 -0.4941
   28MOL0     C 3685  -0.288   1.093   1.704 -1.1485 -0.9150 -0.4592
   28MOL0     C 3686  -0.403   1.165   1.629 -0.2445  0.5962 -0.9921
   28MOL0     C 3687  -0.514   1.196   1.741 -0.0992 -0.2259  0.7222
   28MOL0     C 3688  -0.584   1.324   1.697  0.2000  0.7616 -0.6245
   28MOL0     C 3689  -0.657   1.314   1.557 -0.7596  0.7097 -0.8125
   28MOL0    Cl 3690  -0.783   1.440   1.542  0.2008  0.1175 -0.1239
   28MOL0     C 3691   0.251   0.711   1.630  0.0583 -0.2273 -0.6107
   28MOL0     C 3692   0.352   0.625   1.585  0.8018  0.4318  0.0284
   28MOL0     O 3693   0.458   0.487   1.344  0.2509 -0.1441  0.0030
   28MOL0     C 3694   0.770   0.468   1.288 -0.0126 -0.1565 -0.2391
   28MOL0     C 3695   0.897   0.409   1.268 -0.0998  0.8923 -1.0097
   28MOL0     N 3696   1.630   0.239   0.949  0.1134 -0.4262 -0.2313
   28MOL0     N 3697   1.722   0.318   0.916 -0.0538 -0.8537  0.1497
   28MOL0     C 3698   2.955   0.496   1.174 -0.3370 -0.1920 -0.0775
   28MOL0     C 3699   3.068   0.418   1.155  0.0332 -0.6482 -0.8463
   28MOL0     C 3700   3.351   0.044   1.167  0.5541  0.4934  1.0688
   28MOL0     C 3701   3.452   0.140   1.131  0.0750  1.0496 -0.4782
   28MOL0     C 3702   3.585   0.106   1.113 -0.7408 -0.3021 -0.9881
   28MOL0     C 3703   3.623  -0.025   1.128  0.1492  0.8864 -0.5063
   28MOL0     O 3704   3.751  -0.070   1.112 -0.3428 -0.1586  0.4632
   28MOL0     C 3705   3.856   0.028   1.101  0.0245 -0.8285  0.7538
   28MOL0     C 3706   3.999  -0.034   1.097  0.0785 -0.4444  0.4304
   28MOL0     C 3707   4.037  -0.073   1.238 -0.1898  0.7520 -0.9748
   28MOL0     C 3708   4.189  -0.072   1.263 -0.5468 -0.0008  0.0260
   28MOL0     C 3709   4.265  -0.184   1.208  0.9651  0.3367 -0.2246
   28MOL0     C 3710   4.341  -0.278   1.174  0.7794  0.4304 -0.5030
   28MOL0     C 3711   3.523  -0.117   1.155 -0.3840  0.8786  0.2621
   28MOL0     C 3712   3.393  -0.084   1.189 -0.1210 -0.3716  0.7236
   28MOL0     H 3713   2.989   0.152   1.360  1.3745  1.6762  2.6047
   28MOL0     H 3714   2.781   0.295   1.379  1.7275 -3.4590  0.5522
   28MOL0     H 3715   2.631   0.682   1.313 -0.3008  0.9831 -1.8450
   28MOL0     H 3716   2.775   0.718   1.230  0.4938 -0.2622  3.9096
   28MOL0     H 3717   2.572   0.731   1.092 -1.5465 -0.5063  0.8961
   28MOL0     H 3718   2.658   0.582   1.032 -2.8959 -2.8609 -1.4173
   28MOL0     H 3719   2.519   0.436   1.095 -0.9965 -0.8380  0.4206
   28MOL0     H 3720   2.449   0.521   1.233 -1.6378 -1.0930 -0.7208
   28MOL0     H 3721   2.336   0.658   1.033  3.0796  0.8838  1.9813
   28MOL0     H 3722   2.394   0.532   0.939 -0.4382  2.8988 -0.2428
   28MOL0     H 3723   2.231   0.387   0.991 -0.0131 -1.3826  2.7563
   28MOL0     H 3724   2.244   0.418   1.166  0.6630  1.7839  1.1183
   28MOL0     H 3725   2.094   0.623   1.138 -0.6375 -2.4464  1.3215
   28MOL0     H 3726   2.111   0.605   0.960  0.8898  0.8431  1.1213
   28MOL0     H 3727   2.008   0.367   0.982  1.0868  0.6178 -0.2857
   28MOL0     H 3728   1.977   0.397   1.143  0.6824 -0.7888  0.3785
   28MOL0     H 3729   1.855   0.557   0.918  0.5698 -0.5846 -0.1795
   28MOL0     H 3730   1.814   0.578   1.093  2.7941  0.0818  0.0624
   28MOL0     H 3731   1.670   0.417   1.229  0.1439  0.4433 -0.1712
   28MOL0     H 3732   1.504   0.081   1.117  1.4203  0.5049  1.0565
   28MOL0     H 3733   1.536   0.164   1.257  1.0044 -1.0401  0.1356
   28MOL0     H 3734   1.333   0.235   1.049  1.5684 -0.9390 -0.6123
   28MOL0     H 3735   1.360   0.356   1.178  0.0211 -0.1393 -0.8892
   28MOL0     H 3736   1.302   0.170   1.346 -1.8036 -0.0664  0.5637
   28MOL0     H 3737   1.236   0.079   1.202 -0.0101 -1.2423  1.0531
   28MOL0     H 3738   1.104   0.292   1.149 -2.7360 -1.6148 -0.0613
   28MOL0     H 3739   1.160   0.342   1.315 -0.1169  0.3135 -2.0291
   28MOL0     H 3740   0.845   0.147   1.486 -1.3637 -0.9783 -1.3175
   28MOL0     H 3741   0.638   0.161   1.598 -1.5809  0.5872  0.6821
   28MOL0     H 3742   0.662   0.316   1.669 -0.9006 -0.6038  0.7376
   28MOL0     H 3743   0.520   0.283   1.565 -0.7721  1.2925 -1.2576
   28MOL0     H 3744   0.566   0.863   1.466  2.0952  1.7020  4.2312
   28MOL0     H 3745   0.360   1.021   1.573 -0.9897 -0.1636 -0.3108
   28MOL0     H 3746   0.079   1.070   1.553  0.0696 -0.4960  0.0743
   28MOL0     H 3747   0.022   0.907   1.542  5.2336  0.2383 -3.7611
   28MOL0     H 3748  -0.076   0.940   1.768  2.0145  0.2411  0.5286
   28MOL0     H 3749  -0.016   1.108   1.768  1.1129 -0.8589  0.0314
   28MOL0     H 3750  -0.200   0.982   1.550 -4.3648 -0.0358  0.6098
   28MOL0     H 3751  -0.138   1.147   1.555  1.4741 -1.1309 -0.7097
   28MOL0     H 3752  -0.319   0.994   1.739  0.6228 -0.7869  1.6258
   28MOL0     H 3753  -0.260   1.154   1.790  0.9516  2.2124 -3.1099
   28MOL0     H 3754  -0.449   1.096   1.558  0.4811 -0.3572 -0.5555
   28MOL0     H 3755  -0.375   1.258   1.579 -2.1350  0.7167 -1.9338
   28MOL0     H 3756  -0.577   1.111   1.770  0.6030 -0.9587  0.1092
   28MOL0     H 3757  -0.467   1.232   1.833  0.1474  2.3389 -0.3124
   28MOL0     H 3758  -0.518   1.411   1.699 -1.2074  1.9198 -2.1914
   28MOL0     H 3759  -0.662   1.344   1.770  0.5647 -1.4509  0.4593
   28MOL0     H 3760  -0.701   1.214   1.555  2.7186 -1.0629  1.3974
   28MOL0     H 3761  -0.592   1.313   1.469 -2.1077  4.1219 -2.0257
   28MOL0     H 3762   0.165   0.679   1.688 -0.0243  3.1345  1.3420
   28MOL0     H 3763   0.336   0.519   1.604 -2.8508  0.6166 -1.2381
   28MOL0     H 3764   0.758   0.563   1.236  1.4978  0.3244  0.2659
   28MOL0     H 3765   0.962   0.439   1.186  0.5510  0.6607 -0.5868
   28MOL0     H 3766   2.956   0.581   1.107  3.4026 -2.7904 -3.8846
   28MOL0     H 3767   3.133   0.444   1.072  0.4930 -2.4271 -1.0845
   28MOL0     H 3768   3.437   0.246   1.149 -0.8883  0.6523  1.3279
   28MOL0     H 3769   3.649   0.190   1.086 -1.7426  1.1021  0.7990
   28MOL0     H 3770   3.851   0.086   1.008  3.3333 -1.2092  0.1977
   28MOL0     H 3771   3.848   0.100   1.182 -0.7573 -1.7763  1.5486
   28MOL0     H 3772   4.063   0.049   1.066  0.0691  0.0957  1.7715
   28MOL0     H 3773   4.020  -0.111   1.022 -3.3578 -1.0859 -0.0219
   28MOL0     H 3774   3.996  -0.168   1.272  0.5711  0.7722  0.0469
   28MOL0     H 3775   3.989  -0.008   1.312  1.9258  0.1587  1.0845
   28MOL0     H 3776   4.211  -0.075   1.370  2.0356 -1.6196 -0.4605
   28MOL0     H 3777   4.232   0.024   1.232 -0.9970  0.1567 -0.1247
   28MOL0     H 3778   4.410  -0.355   1.146 -0.9158 -0.9913 -0.9313
   28MOL0     H 3779   3.561  -0.215   1.182 -1.2345  0.9120  1.6563
   28MOL0     H 3780   3.320  -0.156   1.225 -1.8861  1.0281  0.0697
   29MOL0     O 3781   6.445   4.153   7.164 -0.5144  0.3681 -0.0413
   29MOL0     C 3782   6.549   4.191   7.215 -0.6222 -1.3592 -0.0778
   29MOL0     O 3783   6.560   4.250   7.336  0.2495  0.5160 -0.1573
   29MOL0     C 3784   6.451   4.241   7.417  0.3462  0.6389 -0.0535
   29MOL0     C 3785   6.427   4.123   7.487 -0.6075 -0.3312  1.0845
   29MOL0     C 3786   6.306   4.104   7.552  0.3550  0.5789 -0.9135
   29MOL0     C 3787   6.213   4.204   7.563 -0.1457  0.2852 -0.5006
   29MOL0     O 3788   6.095   4.210   7.641  0.5744 -0.5162  0.5027
   29MOL0     C 3789   6.028   4.091   7.670  0.1268 -0.1835  0.0876
   29MOL0     C 3790   5.905   4.133   7.747 -0.6264  0.3377 -0.4727
   29MOL0     C 3791   5.921   4.238   7.856  0.0255 -0.1392 -0.1012
   29MOL0     C 3792   5.782   4.280   7.913 -0.2081  0.1931 -0.3547
   29MOL0     C 3793   5.814   4.366   8.036  0.3587 -0.6760  0.0105
   29MOL0     C 3794   5.675   4.402   8.098 -0.0828 -0.6837 -0.3049
   29MOL0     C 3795   5.582   4.290   8.149 -0.4857 -0.1252 -0.6524
   29MOL0     C 3796   5.441   4.337   8.203  0.5122  0.5452  0.6152
   29MOL0     N 3797   5.379   4.447   8.122 -0.2117 -0.0384 -0.3726
   29MOL0     C 3798   5.326   4.563   8.179 -0.3192 -0.1855 -0.3958
   29MOL0     C 3799   5.294   4.640   8.074  0.1970  1.0098  0.5438
   29MOL0     C 3800   5.232   4.781   8.086  0.1332  1.0209  0.4135
   29MOL0     C 3801   5.085   4.789   8.059 -0.1445  0.1266  0.0229
   29MOL0     C 3802   5.016   4.717   8.181  0.0996  0.4986 -0.0234
   29MOL0     C 3803   4.872   4.692   8.159  0.8151 -0.1423  0.6265
   29MOL0     O 3804   4.817   4.624   8.277 -1.0134  0.0988 -0.1052
   29MOL0     C 3805   4.681   4.617   8.299 -0.2760 -0.4638  0.0785
   29MOL0     C 3806   4.583   4.699   8.240  0.1261  0.3897 -0.0689
   29MOL0     C 3807   4.448   4.691   8.281 -0.7582 -1.6332 -0.6059
   29MOL0     C 3808   4.350   4.782   8.204 -0.2834 -0.6138  0.6177
   29MOL0     C 3809   4.398   4.609   8.385 -0.1466 -0.3069  0.8901
   29MOL0     C 3810   4.251   4.580   8.417 -0.2022 -0.3772 -1.0300
   29MOL0     O 3811   4.235   4.453   8.479 -0.1526 -0.8051  0.4402
   29MOL0     C 3812   4.115   4.423   8.530  0.8082 -0.4981  0.1092
   29MOL0     C 3813   4.032   4.501   8.608  0.1414  0.4253  0.9181
   29MOL0     C 3814   3.909   4.464   8.648  0.3381  1.3907  0.4914
   29MOL0     C 3815   3.865   4.337   8.624  0.0851 -0.2221  0.3698
   29MOL0     O 3816   3.732   4.309   8.646 -0.0792 -0.0658  0.2072
   29MOL0     C 3817   3.671   4.189   8.598  1.2786 -0.8393 -0.2530
   29MOL0     C 3818   3.525   4.204   8.615  0.2315  0.4302  0.2872
   29MOL0     C 3819   3.441   4.094   8.559  0.0879 -0.3589  0.0142
   29MOL0     C 3820   3.425   3.968   8.654  0.3145  0.5112 -0.2941
   29MOL0     C 3821   3.307   3.970   8.744  0.1961  0.1370 -1.1903
   29MOL0     C 3822   3.179   3.933   8.666  0.5944  1.3022 -0.5136
   29MOL0     C 3823   3.060   3.924   8.763 -0.4318  0.4319  0.4889
   29MOL0     C 3824   3.012   4.069   8.810 -0.1200 -0.0641 -0.1078
   29MOL0    Cl 3825   2.954   4.171   8.676 -0.0810  0.0471  0.4876
   29MOL0     C 3826   3.948   4.248   8.551  0.6025  0.4107 -0.0698
   29MOL0     C 3827   4.070   4.296   8.502 -0.1398  0.4747  0.7847
   29MOL0     O 3828   4.164   4.661   8.385  0.3073  0.7376  0.7068
   29MOL0     C 3829   4.498   4.540   8.447  0.2971  0.2566 -1.2107
   29MOL0     C 3830   4.635   4.544   8.404  0.4730 -0.0667  0.3928
   29MOL0     N 3831   5.332   4.575   7.959  0.4164  0.8632 -0.4026
   29MOL0     N 3832   5.376   4.456   7.991  0.9891 -0.2032 -0.1135
   29MOL0     C 3833   6.234   4.321   7.488  0.0944 -0.5753  0.2293
   29MOL0     C 3834   6.354   4.344   7.419  0.9532 -0.3227 -1.0017
   29MOL0     C 3835   6.676   4.192   7.139  0.0134  0.2562 -0.0380
   29MOL0     C 3836   6.675   4.156   7.000  0.3104 -0.4599  0.0244
   29MOL0     C 3837   6.795   4.140   6.930 -0.1401  0.0780 -0.1378
   29MOL0     C 3838   6.918   4.169   6.985  0.1192  0.2253 -0.4479
   29MOL0     O 3839   7.046   4.155   6.933 -0.2322 -0.3130 -0.5882
   29MOL0     C 3840   7.052   4.130   6.795  0.7349 -1.0698  0.5346
   29MOL0     C 3841   7.197   4.152   6.754  0.5140 -0.2507  0.5593
   29MOL0     C 3842   7.291   4.042   6.802 -0.3403 -0.4131  0.1427
   29MOL0     C 3843   7.440   4.079   6.795  0.2397 -0.2348  0.3675
   29MOL0     C 3844   7.512   3.949   6.779  0.5577  0.0907  0.3017
   29MOL0     C 3845   7.593   3.866   6.756 -0.2943  0.0150 -0.4420
   29MOL0     C 3846   6.913   4.220   7.117 -0.1008  0.5817 -0.2872
   29MOL0     C 3847   6.796   4.230   7.190 -0.3581 -0.3084 -0.5187
   29MOL0     H 3848   6.502   4.044   7.478  1.2005  1.5348 -3.0364
   29MOL0     H 3849   6.287   4.012   7.607  1.1917  1.2672  0.6173
   29MOL0     H 3850   6.016   4.035   7.577  1.5731 -1.5530  0.6771
   29MOL0     H 3851   6.097   4.022   7.719 -1.3200 -2.0604 -0.3942
   29MOL0     H 3852   5.847   4.178   7.666  0.3814 -1.3612 -2.2484
   29MOL0     H 3853   5.851   4.048   7.789 -3.6190  1.1207 -2.4305
   29MOL0     H 3854   5.975   4.190   7.939  1.4659 -0.1969 -1.0444
   29MOL0     H 3855   5.971   4.328   7.820 -0.7292 -0.1002 -1.0924
   29MOL0     H 3856   5.724   4.331   7.836  0.2048 -1.8030 -2.0652
   29MOL0     H 3857   5.737   4.186   7.947  1.8532 -0.9625 -0.6342
   29MOL0     H 3858   5.879   4.324   8.114  1.6699 -0.1863 -0.8001
   29MOL0     H 3859   5.860   4.458   8.001  0.7980  0.0754  2.3570
   29MOL0     H 3860   5.682   4.459   8.191 -4.4623  0.2988 -0.3768
   29MOL0     H 3861   5.628   4.480   8.037  0.2920 -0.2966 -0.1079
   29MOL0     H 3862   5.562   4.222   8.066  2.7367  0.4332 -2.0202
   29MOL0     H 3863   5.637   4.240   8.230  0.6325  0.9144 -0.7438
   29MOL0     H 3864   5.439   4.369   8.307 -2.4868 -1.1503  1.1987
   29MOL0     H 3865   5.373   4.251   8.205 -0.4810  1.3120  0.3463
   29MOL0     H 3866   5.308   4.604   8.278 -1.6241  0.6315 -0.9490
   29MOL0     H 3867   5.255   4.819   8.186  2.1797  1.6717 -0.2367
   29MOL0     H 3868   5.286   4.844   8.014  2.4704  0.6963  1.7849
   29MOL0     H 3869   5.066   4.719   7.977  2.0172  2.5783 -2.7483
   29MOL0     H 3870   5.036   4.886   8.046 -0.6687  0.1510  1.8614
   29MOL0     H 3871   5.040   4.784   8.264 -3.0092  3.2763 -1.1767
   29MOL0     H 3872   5.067   4.621   8.194 -0.8687 -0.0315 -0.0586
   29MOL0     H 3873   4.872   4.624   8.073 -3.7077  1.0936 -0.6487
   29MOL0     H 3874   4.817   4.784   8.136  2.2638  1.0909  1.8923
   29MOL0     H 3875   4.614   4.767   8.161  1.6664 -0.9790 -0.7021
   29MOL0     H 3876   4.403   4.855   8.142 -0.3066  1.0440  2.4522
   29MOL0     H 3877   4.289   4.723   8.135  1.8026 -2.6723  0.4446
   29MOL0     H 3878   4.282   4.836   8.271 -0.0379 -0.4989  0.7746
   29MOL0     H 3879   4.057   4.603   8.637  0.1969  0.0593  2.2234
   29MOL0     H 3880   3.854   4.541   8.701  0.1550  1.5454  0.0791
   29MOL0     H 3881   3.704   4.177   8.494 -2.2042 -3.4429 -1.2755
   29MOL0     H 3882   3.699   4.102   8.658  2.2140 -1.1969 -1.1709
   29MOL0     H 3883   3.506   4.212   8.722 -1.0719 -1.8938  0.2990
   29MOL0     H 3884   3.513   4.300   8.565  3.2576  0.0057 -1.5332
   29MOL0     H 3885   3.495   4.055   8.473  0.8611  0.6207  0.0418
   29MOL0     H 3886   3.340   4.132   8.540  0.3422  1.9668  2.6068
   29MOL0     H 3887   3.432   3.878   8.591 -2.8849  0.3816 -0.5938
   29MOL0     H 3888   3.510   3.953   8.721 -1.4549  2.1945  2.5367
   29MOL0     H 3889   3.303   4.072   8.783  0.9003 -0.3180  0.1353
   29MOL0     H 3890   3.316   3.904   8.831 -1.0530 -0.7528 -1.7157
   29MOL0     H 3891   3.165   4.004   8.584 -0.5149 -1.8156 -3.2478
   29MOL0     H 3892   3.180   3.836   8.616 -0.9132  0.5891  0.7702
   29MOL0     H 3893   3.080   3.865   8.852  0.6819  0.2114  0.1037
   29MOL0     H 3894   2.984   3.881   8.697 -1.4927  4.4945 -1.2486
   29MOL0     H 3895   3.086   4.127   8.867 -2.3257  1.2919  1.5380
   29MOL0     H 3896   2.923   4.053   8.871  0.4252 -1.1388  0.4357
   29MOL0     H 3897   3.932   4.145   8.522  2.6046 -0.1981  0.7778
   29MOL0     H 3898   4.128   4.234   8.434 -0.6105  0.3261  0.5124
   29MOL0     H 3899   4.482   4.468   8.526  1.5584  0.0687 -1.1046
   29MOL0     H 3900   4.701   4.483   8.464 -0.1738 -0.1787  0.9997
   29MOL0     H 3901   6.167   4.405   7.500 -0.1514 -0.8700  0.9752
   29MOL0     H 3902   6.381   4.436   7.369 -0.6925  0.5801 -0.2814
   29MOL0     H 3903   6.584   4.114   6.958  0.9287  0.1137 -2.0011
   29MOL0     H 3904   6.790   4.109   6.826 -0.8659  1.5120 -0.5592
   29MOL0     H 3905   7.023   4.030   6.763  0.2507 -0.1957 -2.0253
   29MOL0     H 3906   6.997   4.203   6.735 -0.2132 -1.6436  0.6955
   29MOL0     H 3907   7.219   4.250   6.799 -1.4140  0.8169 -0.6869
   29MOL0     H 3908   7.216   4.167   6.648 -0.2464 -0.4228  0.3929
   29MOL0     H 3909   7.265   3.949   6.751 -0.3266  0.4021 -1.3827
   29MOL0     H 3910   7.266   4.026   6.908  1.8245 -3.1235  0.3787
   29MOL0     H 3911   7.472   4.134   6.885 -2.3007  1.4935  0.2907
   29MOL0     H 3912   7.458   4.142   6.708 -0.4533  0.3723  0.6538
   29MOL0     H 3913   7.669   3.797   6.726 -1.6588 -1.7841  0.0128
   29MOL0     H 3914   7.001   4.259   7.169 -0.1859  0.5897 -0.1497
   29MOL0     H 3915   6.795   4.268   7.291 -0.4422  2.4426 -1.4729
   30MOL0     O 3916  10.501   1.113   7.411 -0.3129  0.2682 -0.4266
   30MOL0     C 3917  10.582   1.192   7.374 -0.4002  0.2488  0.1691
   30MOL0     O 3918  10.557   1.326   7.339  0.8872  0.3835 -0.0766
   30MOL0     C 3919  10.424   1.371   7.319  0.3512  0.6366 -0.0981
   30MOL0     C 3920  10.336   1.313   7.227  0.6637  0.6013  0.1746
   30MOL0     C 3921  10.194   1.348   7.221 -0.3568  0.5303  0.6791
   30MOL0     C 3922  10.144   1.451   7.301  1.5220  0.4173 -0.9376
   30MOL0     O 3923  10.015   1.484   7.292 -0.3852  0.4685 -0.5647
   30MOL0     C 3924   9.966   1.580   7.383 -0.4372  0.2698  0.3502
   30MOL0     C 3925   9.828   1.628   7.358 -0.6377  0.6510 -0.4616
   30MOL0     C 3926   9.727   1.515   7.371  0.2849  0.0122 -0.4545
   30MOL0     C 3927   9.591   1.570   7.321 -0.4657  0.0164 -0.1086
   30MOL0     C 3928   9.469   1.509   7.380 -0.3714 -0.1965 -0.2218
   30MOL0     C 3929   9.340   1.561   7.315  0.5967 -0.1417  0.3391
   30MOL0     C 3930   9.216   1.498   7.374  0.6507 -0.7104  0.0449
   30MOL0     C 3931   9.082   1.557   7.330  0.7543  0.2008 -0.2872
   30MOL0     N 3932   8.965   1.476   7.373 -0.6252 -0.1769 -0.6355
   30MOL0     C 3933   8.895   1.484   7.494 -0.0384  0.2135  0.2540
   30MOL0     C 3934   8.795   1.390   7.486 -0.3285  0.0154  0.6336
   30MOL0     C 3935   8.691   1.346   7.581 -0.1473 -0.0297 -0.3951
   30MOL0     C 3936   8.573   1.440   7.572 -0.4712 -0.0209  0.2183
   30MOL0     C 3937   8.461   1.409   7.661  0.7248  0.3994 -0.8923
   30MOL0     C 3938   8.407   1.262   7.654 -0.5834  0.4801 -0.1338
   30MOL0     O 3939   8.388   1.233   7.516  0.6140  0.0351  0.0349
   30MOL0     C 3940   8.252   1.230   7.477 -0.5715 -0.3515  0.5469
   30MOL0     C 3941   8.216   1.114   7.415  0.0957 -0.6830  0.4793
   30MOL0     C 3942   8.097   1.098   7.355  0.1384 -0.2242 -0.1669
   30MOL0     C 3943   8.080   0.974   7.285 -0.3357  0.6313 -0.6575
   30MOL0     C 3944   7.993   1.191   7.375 -0.0760 -0.1252 -0.5033
   30MOL0     C 3945   7.847   1.174   7.339 -0.5390  0.5751 -0.3287
   30MOL0     O 3946   7.756   1.272   7.383 -0.0143  0.2865  0.2116
   30MOL0     C 3947   7.623   1.253   7.348 -0.8070  0.1660  0.3654
   30MOL0     C 3948   7.526   1.253   7.447 -0.0795 -0.8203  0.5698
   30MOL0     C 3949   7.388   1.252   7.424 -0.1132 -0.3605  0.3882
   30MOL0     C 3950   7.344   1.245   7.296  0.2230  0.3431  0.4783
   30MOL0     O 3951   7.209   1.251   7.271  0.1615  0.1414  0.7128
   30MOL0     C 3952   7.156   1.245   7.134  1.3232 -0.8434 -0.1931
   30MOL0     C 3953   7.001   1.256   7.120  0.3381  0.0003  0.3576
   30MOL0     C 3954   6.913   1.176   7.221 -1.0253  0.4418 -0.7800
   30MOL0     C 3955   6.771   1.217   7.194  0.7314 -0.7430 -0.0207
   30MOL0     C 3956   6.673   1.153   7.295 -0.4158  0.2350 -0.2075
   30MOL0     C 3957   6.525   1.212   7.296  0.5956  0.9395 -0.5150
   30MOL0     C 3958   6.426   1.192   7.423  0.2738  0.1546 -0.1961
   30MOL0     C 3959   6.374   1.045   7.456  0.1726  0.1137  0.2049
   30MOL0    Cl 3960   6.253   1.003   7.352 -0.3221  0.2665 -0.2264
   30MOL0     C 3961   7.440   1.245   7.191  0.1350 -0.5356 -0.1202
   30MOL0     C 3962   7.578   1.254   7.214  0.7696  0.4984 -0.8087
   30MOL0     O 3963   7.821   1.083   7.265  0.2020  0.1182  0.7857
   30MOL0     C 3964   8.031   1.314   7.444 -0.4313  0.0007 -0.2693
   30MOL0     C 3965   8.165   1.333   7.484 -0.2688 -0.2782 -0.3426
   30MOL0     N 3966   8.799   1.341   7.358 -0.3837 -0.2589  0.5527
   30MOL0     N 3967   8.896   1.401   7.291  0.2643  0.0122 -0.3579
   30MOL0     C 3968  10.241   1.518   7.385  0.5717  0.9337  0.5420
   30MOL0     C 3969  10.370   1.473   7.398 -0.0787  0.0200 -0.7103
   30MOL0     C 3970  10.727   1.153   7.350  0.6918  0.0104  0.2208
   30MOL0     C 3971  10.761   1.016   7.332 -0.3155  0.5325  0.1114
   30MOL0     C 3972  10.883   0.976   7.291 -0.3988 -1.2650 -0.2305
   30MOL0     C 3973  10.981   1.074   7.265  0.3368  0.0268 -0.5253
   30MOL0     O 3974  11.102   1.025   7.227 -0.1951  0.9064  0.3718
   30MOL0     C 3975  11.207   1.113   7.188  0.9548  0.7435 -0.2094
   30MOL0     C 3976  11.180   1.190   7.066 -0.4838  0.2217 -0.6649
   30MOL0     C 3977  11.172   1.099   6.942 -0.0145 -0.0826  0.2229
   30MOL0     C 3978  11.293   1.019   6.919 -0.2479 -0.4087  0.3282
   30MOL0     C 3979  11.293   0.951   6.792  0.0092  1.3304  0.6731
   30MOL0     C 3980  11.308   0.897   6.684 -0.0068 -0.1831  1.1056
   30MOL0     C 3981  10.952   1.205   7.296  0.3818 -0.0524  0.6190
   30MOL0     C 3982  10.824   1.246   7.310  0.3326  0.0061 -1.3115
   30MOL0     H 3983  10.365   1.228   7.167  0.5119 -0.6702  1.8393
   30MOL0     H 3984  10.126   1.299   7.153 -0.1305 -1.3869  1.7841
   30MOL0     H 3985   9.979   1.550   7.487  0.0730 -0.3784  0.1037
   30MOL0     H 3986  10.035   1.661   7.357  0.6352 -0.3161  1.2766
   30MOL0     H 3987   9.797   1.704   7.430  0.7735  2.0856 -1.2764
   30MOL0     H 3988   9.836   1.681   7.263 -2.1784 -1.0289 -1.5988
   30MOL0     H 3989   9.762   1.424   7.321 -0.4708 -0.9516  0.7315
   30MOL0     H 3990   9.720   1.489   7.477  4.4581  1.1781  0.2904
   30MOL0     H 3991   9.584   1.672   7.360 -0.4714  0.4121 -1.1138
   30MOL0     H 3992   9.597   1.580   7.212 -2.2720 -1.4748 -0.3845
   30MOL0     H 3993   9.477   1.405   7.348  2.0149  0.4929 -2.1786
   30MOL0     H 3994   9.461   1.525   7.488 -0.7112 -2.6560  0.1719
   30MOL0     H 3995   9.341   1.667   7.338  1.5178 -0.3631  1.3456
   30MOL0     H 3996   9.334   1.550   7.206 -1.1056  0.7664  0.3064
   30MOL0     H 3997   9.222   1.393   7.343  0.4263 -0.3285 -1.3722
   30MOL0     H 3998   9.229   1.514   7.481  0.5757  3.6588 -0.3980
   30MOL0     H 3999   9.085   1.563   7.220  2.3590  0.5513 -0.2478
   30MOL0     H 4000   9.079   1.662   7.359  4.3824 -0.4863  3.5242
   30MOL0     H 4001   8.934   1.530   7.584  3.1107 -5.3317  2.2615
   30MOL0     H 4002   8.677   1.243   7.547  1.0465  0.7593 -3.6318
   30MOL0     H 4003   8.730   1.349   7.683 -0.0028  1.0427 -0.4615
   30MOL0     H 4004   8.533   1.449   7.471  0.2597  1.9696  0.0669
   30MOL0     H 4005   8.606   1.542   7.594 -1.4645  0.5623 -0.8943
   30MOL0     H 4006   8.379   1.473   7.625  0.4631 -0.9288 -2.8072
   30MOL0     H 4007   8.487   1.424   7.766  0.3547  1.1997 -0.9085
   30MOL0     H 4008   8.321   1.244   7.718 -0.2224 -0.5040  0.0891
   30MOL0     H 4009   8.485   1.191   7.683 -0.7624 -0.7711 -2.5316
   30MOL0     H 4010   8.295   1.039   7.414  0.5596 -0.2533  1.9876
   30MOL0     H 4011   8.079   0.993   7.178 -0.0779  1.0979 -0.5744
   30MOL0     H 4012   8.160   0.903   7.307  2.4524  3.6329 -0.4553
   30MOL0     H 4013   7.987   0.928   7.320  0.4563  0.0067  0.7258
   30MOL0     H 4014   7.565   1.261   7.548 -0.9478  0.3164  0.8285
   30MOL0     H 4015   7.333   1.241   7.517 -0.2090 -1.4985  0.2021
   30MOL0     H 4016   7.184   1.337   7.083 -1.3835 -0.8532 -1.9221
   30MOL0     H 4017   7.198   1.154   7.090  2.4591  0.1168 -1.1486
   30MOL0     H 4018   6.967   1.359   7.134 -0.8634 -0.2485 -0.5370
   30MOL0     H 4019   6.975   1.236   7.015  1.1603  0.5981  0.0359
   30MOL0     H 4020   6.930   1.215   7.321  0.4942 -0.9699 -0.4449
   30MOL0     H 4021   6.929   1.068   7.208  0.9962  0.6122 -0.0528
   30MOL0     H 4022   6.780   1.325   7.209  0.3161 -0.6514 -0.3978
   30MOL0     H 4023   6.738   1.192   7.093 -2.6723 -1.7285  1.1780
   30MOL0     H 4024   6.711   1.146   7.397  0.1642 -1.6498 -0.5226
   30MOL0     H 4025   6.676   1.047   7.270  0.8963  0.0983  0.4906
   30MOL0     H 4026   6.549   1.317   7.313  1.4237  0.5439  0.9596
   30MOL0     H 4027   6.473   1.183   7.203 -2.3023  2.8030  0.3908
   30MOL0     H 4028   6.336   1.254   7.422  0.1340 -0.0063  0.7075
   30MOL0     H 4029   6.485   1.219   7.511  2.0053 -0.4334 -1.1280
   30MOL0     H 4030   6.342   1.044   7.561  0.8544 -2.3955  0.4633
   30MOL0     H 4031   6.464   0.985   7.442 -0.8652 -1.5624  0.4895
   30MOL0     H 4032   7.406   1.225   7.090  2.2399 -2.3470 -0.5563
   30MOL0     H 4033   7.646   1.251   7.130 -0.0278  0.0759 -1.4511
   30MOL0     H 4034   7.959   1.394   7.452 -1.1161 -0.6425  0.0750
   30MOL0     H 4035   8.193   1.431   7.523 -0.5802  0.7651 -2.5564
   30MOL0     H 4036  10.205   1.586   7.461 -2.2147  1.7137 -1.3280
   30MOL0     H 4037  10.423   1.534   7.470 -1.1361 -1.7585  1.7136
   30MOL0     H 4038  10.690   0.936   7.348  2.5485 -2.0132  1.2014
   30MOL0     H 4039  10.901   0.871   7.271  0.9972 -1.2304  0.7480
   30MOL0     H 4040  11.231   1.174   7.276  3.8316 -1.2417  0.5285
   30MOL0     H 4041  11.297   1.052   7.173  2.0614  2.4493 -0.6871
   30MOL0     H 4042  11.251   1.272   7.053  1.5169 -0.8279  2.4626
   30MOL0     H 4043  11.083   1.239   7.081 -1.4991 -1.9841  0.5550
   30MOL0     H 4044  11.160   1.165   6.855  1.3262 -1.1757 -0.8485
   30MOL0     H 4045  11.090   1.027   6.947  0.2427 -0.3732  0.2823
   30MOL0     H 4046  11.298   0.939   6.993  0.1360  0.5017  1.3035
   30MOL0     H 4047  11.382   1.083   6.921  1.0442 -1.7922 -3.3737
   30MOL0     H 4048  11.318   0.853   6.587 -0.7010 -1.1700  1.4639
   30MOL0     H 4049  11.027   1.282   7.278  1.4861 -1.4014 -0.9263
   30MOL0     H 4050  10.805   1.353   7.314 -0.1036 -0.0355 -2.0711
   31MOL0     O 4051   6.078   6.599  10.318  1.0083 -0.5591 -0.1362
   31MOL0     C 4052   6.099   6.685  10.406 -1.0421  0.9856 -0.2940
   31MOL0     O 4053   6.017   6.725  10.502  0.2674 -0.1980 -0.1101
   31MOL0     C 4054   5.883   6.692  10.494  0.6038  0.0493 -0.7040
   31MOL0     C 4055   5.851   6.556  10.493  0.3054 -0.1061  0.0265
   31MOL0     C 4056   5.716   6.519  10.508  0.0798  0.1280 -1.3704
   31MOL0     C 4057   5.605   6.615  10.511 -0.7734  0.9786  0.2193
   31MOL0     O 4058   5.479   6.573  10.518 -0.0077 -0.2063  0.8596
   31MOL0     C 4059   5.443   6.432  10.510 -0.6435  0.3415 -0.0177
   31MOL0     C 4060   5.291   6.436  10.513 -0.3169  0.2873 -0.4525
   31MOL0     C 4061   5.245   6.290  10.484 -0.2765  0.4640 -0.9639
   31MOL0     C 4062   5.270   6.246  10.338 -0.2998 -0.5971  0.2811
   31MOL0     C 4063   5.187   6.113  10.306 -0.0091  0.4246  0.4883
   31MOL0     C 4064   5.219   6.072  10.165  0.4267  0.9228 -0.0644
   31MOL0     C 4065   5.360   6.019  10.147  0.1490 -0.0129  0.3458
   31MOL0     C 4066   5.373   5.946  10.016  1.0864  0.0820  0.0732
   31MOL0     N 4067   5.365   6.019   9.892 -0.3273  0.7339 -0.1982
   31MOL0     C 4068   5.458   6.119   9.855  0.0067  0.1993 -0.0137
   31MOL0     C 4069   5.392   6.171   9.746 -0.8642 -0.4167  0.6341
   31MOL0     C 4070   5.452   6.278   9.669 -0.0127  0.1374  0.4704
   31MOL0     C 4071   5.392   6.315   9.530  1.0786 -0.7251  0.1911
   31MOL0     C 4072   5.256   6.388   9.563  0.0533  0.5562  0.4903
   31MOL0     C 4073   5.154   6.364   9.446  0.1329 -0.2020 -0.4594
   31MOL0     O 4074   5.028   6.423   9.473 -0.4822  0.0754  0.0103
   31MOL0     C 4075   4.933   6.376   9.556  0.4556  0.1785 -0.4142
   31MOL0     C 4076   4.945   6.261   9.640 -0.1553 -0.8630 -0.0392
   31MOL0     C 4077   4.843   6.218   9.730  0.0287 -0.0610 -1.0489
   31MOL0     C 4078   4.875   6.094   9.808 -0.7680  0.1765 -0.7672
   31MOL0     C 4079   4.722   6.289   9.729 -0.0471 -0.7699  0.9902
   31MOL0     C 4080   4.596   6.245   9.805  0.5448 -0.0119 -0.0928
   31MOL0     O 4081   4.499   6.335   9.811  0.0298  0.1527 -0.5779
   31MOL0     C 4082   4.367   6.311   9.831 -0.6299  0.7441 -0.3914
   31MOL0     C 4083   4.295   6.420   9.881  0.2431  0.1880  0.2337
   31MOL0     C 4084   4.161   6.404   9.926 -0.6697  0.7326  0.2156
   31MOL0     C 4085   4.099   6.287   9.907  1.1646  0.3031  0.5891
   31MOL0     O 4086   3.971   6.258   9.958 -0.0564  0.1121  0.5922
   31MOL0     C 4087   3.899   6.347  10.046 -0.4803  0.4737 -0.4933
   31MOL0     C 4088   3.785   6.253  10.093  0.3971  0.9234  0.5588
   31MOL0     C 4089   3.698   6.314  10.202  0.5176  0.3052  0.0708
   31MOL0     C 4090   3.624   6.436  10.144  0.3082 -0.5564 -0.0519
   31MOL0     C 4091   3.510   6.478  10.247  0.1905 -0.3244 -0.5594
   31MOL0     C 4092   3.403   6.374  10.245  0.1139  0.2561  0.2805
   31MOL0     C 4093   3.307   6.400  10.360 -0.0839 -0.0115 -0.4415
   31MOL0     C 4094   3.213   6.283  10.370 -0.0710 -0.6102 -0.0856
   31MOL0    Cl 4095   3.090   6.345  10.480 -0.0312  0.1889 -0.0297
   31MOL0     C 4096   4.167   6.178   9.847 -0.6169  0.8726  0.5014
   31MOL0     C 4097   4.300   6.187   9.810 -0.2220 -0.0118 -0.0964
   31MOL0     O 4098   4.593   6.138   9.870 -0.1728 -0.6574 -0.0034
   31MOL0     C 4099   4.708   6.395   9.639 -0.2737  0.6265  0.3842
   31MOL0     C 4100   4.808   6.447   9.555 -1.0044 -0.4889  0.7183
   31MOL0     N 4101   5.275   6.099   9.722  0.6803 -0.0474 -0.3598
   31MOL0     N 4102   5.255   6.002   9.812 -0.0185  0.0193 -0.1915
   31MOL0     C 4103   5.638   6.744  10.510 -0.7063 -0.4778 -0.1687
   31MOL0     C 4104   5.777   6.781  10.510 -0.6923 -0.5045  0.5773
   31MOL0     C 4105   6.235   6.732  10.421  0.2903  0.6317  1.0525
   31MOL0     C 4106   6.343   6.647  10.384  0.6938  0.3929  0.0473
   31MOL0     C 4107   6.472   6.682  10.406 -0.6661 -0.2173 -0.0692
   31MOL0     C 4108   6.503   6.810  10.451  0.3820  0.2666 -0.1620
   31MOL0     O 4109   6.632   6.851  10.469  0.1358  0.2909  0.1605
   31MOL0     C 4110   6.652   6.991  10.458 -0.1113  0.2245  0.7704
   31MOL0     C 4111   6.802   7.012  10.441  0.4520  0.3517 -0.7308
   31MOL0     C 4112   6.880   6.964  10.566 -0.5119  0.1139 -0.4706
   31MOL0     C 4113   7.023   7.017  10.574 -0.2390 -0.0573  0.3490
   31MOL0     C 4114   7.019   7.163  10.578 -0.7315  0.0369  0.7220
   31MOL0     C 4115   7.000   7.282  10.585 -0.1068 -0.1366 -0.2529
   31MOL0     C 4116   6.394   6.893  10.497  0.0328  0.2913  0.1147
   31MOL0     C 4117   6.264   6.854  10.480  0.1102  0.4793 -0.1731
   31MOL0     H 4118   5.935   6.487  10.497 -0.0112 -0.4293  2.0376
   31MOL0     H 4119   5.690   6.415  10.521 -0.6464  0.3900 -0.5934
   31MOL0     H 4120   5.485   6.384  10.422 -1.2124 -0.2299  0.0140
   31MOL0     H 4121   5.467   6.388  10.607 -4.6959 -0.4118  0.8388
   31MOL0     H 4122   5.264   6.475  10.611  2.4585 -3.0250  1.8217
   31MOL0     H 4123   5.251   6.497  10.431 -1.2957  0.9055  0.4609
   31MOL0     H 4124   5.299   6.230  10.557  1.4351  1.9650 -0.9474
   31MOL0     H 4125   5.136   6.295  10.496  0.0028  0.3360  2.5686
   31MOL0     H 4126   5.245   6.327  10.269  1.6165 -2.1394 -2.4406
   31MOL0     H 4127   5.378   6.227  10.340 -0.0343  0.2762  4.4055
   31MOL0     H 4128   5.213   6.037  10.380  2.5596  0.2176 -0.5187
   31MOL0     H 4129   5.078   6.120  10.302 -0.1829 -2.0270 -2.5845
   31MOL0     H 4130   5.154   5.991  10.130 -1.4324  1.8779  1.0138
   31MOL0     H 4131   5.192   6.159  10.104 -3.0223  0.9045  1.2478
   31MOL0     H 4132   5.419   6.111  10.141 -0.3037  0.1942 -1.1643
   31MOL0     H 4133   5.393   5.962  10.234  1.6104  2.0191  1.2163
   31MOL0     H 4134   5.292   5.873  10.004 -0.5492  1.7425  0.6043
   31MOL0     H 4135   5.461   5.883  10.029 -0.2504 -1.4592  2.2756
   31MOL0     H 4136   5.543   6.158   9.909 -1.8723  0.2948  3.1160
   31MOL0     H 4137   5.445   6.371   9.726 -0.4644 -0.9069  2.1519
   31MOL0     H 4138   5.558   6.256   9.649 -0.4033 -1.5539  0.0840
   31MOL0     H 4139   5.382   6.212   9.493 -1.3180 -1.6538  2.9897
   31MOL0     H 4140   5.466   6.367   9.469  0.1020  2.3124  1.4291
   31MOL0     H 4141   5.278   6.494   9.580  1.7980 -0.0682  2.5168
   31MOL0     H 4142   5.206   6.339   9.647  0.4002 -1.6309 -0.5008
   31MOL0     H 4143   5.152   6.256   9.429 -1.6864 -0.0933 -1.1551
   31MOL0     H 4144   5.191   6.407   9.352 -0.9909 -0.4269 -1.0290
   31MOL0     H 4145   5.041   6.216   9.617  0.0746 -0.2808 -0.2279
   31MOL0     H 4146   4.975   6.057   9.784 -1.2200 -3.5037  2.1395
   31MOL0     H 4147   4.873   6.120   9.914 -2.1873 -1.0039 -0.4698
   31MOL0     H 4148   4.795   6.022   9.793 -1.5745  0.2325  2.4930
   31MOL0     H 4149   4.333   6.520   9.892 -0.8469  0.6011  0.4193
   31MOL0     H 4150   4.097   6.484   9.961  1.4841  1.8653  1.7588
   31MOL0     H 4151   3.959   6.375  10.133 -1.5375  0.3514  0.2976
   31MOL0     H 4152   3.870   6.436   9.988 -1.6615 -1.4603 -3.0400
   31MOL0     H 4153   3.713   6.214  10.020 -1.7906  0.2819  2.8978
   31MOL0     H 4154   3.826   6.160  10.133 -0.3254  0.5764  0.5191
   31MOL0     H 4155   3.766   6.346  10.282  1.5249 -0.5652 -0.4087
   31MOL0     H 4156   3.633   6.231  10.229  0.7629 -1.3228 -3.7350
   31MOL0     H 4157   3.701   6.509  10.117 -0.6705  0.9737  1.1202
   31MOL0     H 4158   3.586   6.424  10.042  2.0366 -0.3686 -0.7454
   31MOL0     H 4159   3.469   6.573  10.213  0.1399 -0.0197  0.3193
   31MOL0     H 4160   3.558   6.493  10.345  2.4401  0.8401 -1.7388
   31MOL0     H 4161   3.354   6.387  10.147  0.0194 -1.2580  0.1024
   31MOL0     H 4162   3.437   6.273  10.266 -0.0763  0.4838  1.7886
   31MOL0     H 4163   3.246   6.489  10.343 -1.1263 -0.0580  2.5128
   31MOL0     H 4164   3.366   6.408  10.452  1.3472 -1.2582 -1.2138
   31MOL0     H 4165   3.266   6.195  10.407 -0.2865  0.1433  2.1502
   31MOL0     H 4166   3.173   6.273  10.269  0.4994  0.2473 -0.4020
   31MOL0     H 4167   4.127   6.077   9.840  2.3242 -0.3067 -0.6488
   31MOL0     H 4168   4.347   6.101   9.764 -0.3628  0.7331 -1.7023
   31MOL0     H 4169   4.615   6.451   9.637 -1.3822 -1.1478 -0.8694
   31MOL0     H 4170   4.800   6.536   9.493  2.4580 -0.3624  0.2987
   31MOL0     H 4171   5.569   6.824  10.536  0.6611  0.6716  0.0228
   31MOL0     H 4172   5.805   6.886  10.514 -0.4816 -0.4219 -1.7728
   31MOL0     H 4173   6.313   6.551  10.345 -0.8785  1.2058 -0.8316
   31MOL0     H 4174   6.551   6.611  10.388 -0.9534 -0.6099  0.2152
   31MOL0     H 4175   6.601   7.046  10.377  2.3686  0.2936 -0.8546
   31MOL0     H 4176   6.624   7.037  10.553  0.2285  2.6325 -0.2212
   31MOL0     H 4177   6.821   7.118  10.422 -4.7405  2.0322  1.5496
   31MOL0     H 4178   6.829   6.947  10.358 -1.7158 -2.2069  0.4277
   31MOL0     H 4179   6.882   6.855  10.554  3.2958 -0.2699  2.0425
   31MOL0     H 4180   6.818   6.993  10.652  3.3697  1.0651  2.2563
   31MOL0     H 4181   7.087   6.981  10.492 -0.6995 -1.4766  0.5858
   31MOL0     H 4182   7.067   6.979  10.666  0.5354 -2.4462 -0.9113
   31MOL0     H 4183   6.974   7.386  10.577 -3.1361 -0.9061 -2.1406
   31MOL0     H 4184   6.404   6.996  10.529 -0.1875 -0.5099  3.0245
   31MOL0     H 4185   6.178   6.913  10.510 -0.2856 -0.8662  1.4504
   32MOL0     O 4186   5.574   8.220   9.986 -0.3082 -0.6574 -0.0481
   32MOL0     C 4187   5.537   8.335   9.977  0.2111 -0.3078 -0.4056
   32MOL0     O 4188   5.613   8.450  10.020 -0.1213 -0.6558  0.5938
   32MOL0     C 4189   5.722   8.428  10.100  0.7869  0.1032 -0.4156
   32MOL0     C 4190   5.717   8.352  10.219 -0.8450  1.5552  0.2428
   32MOL0     C 4191   5.837   8.321  10.288 -0.3811 -0.3156 -0.9052
   32MOL0     C 4192   5.959   8.376  10.260  0.3151 -0.5875  1.3145
   32MOL0     O 4193   6.058   8.340  10.344  0.4585 -0.6972  0.1931
   32MOL0     C 4194   6.194   8.367  10.307  0.1585 -0.4763  0.0409
   32MOL0     C 4195   6.233   8.262  10.205  0.5834  0.2439 -0.2731
   32MOL0     C 4196   6.368   8.293  10.147 -0.2629  0.0223  0.8324
   32MOL0     C 4197   6.487   8.242  10.225 -0.6993  0.4607 -0.7556
   32MOL0     C 4198   6.626   8.261  10.150  0.5021 -0.1151  0.3650
   32MOL0     C 4199   6.747   8.205  10.232  0.4257 -0.1366  0.2101
   32MOL0     C 4200   6.865   8.208  10.139  0.2259  0.5422  0.2106
   32MOL0     C 4201   6.975   8.109  10.193 -0.1011  0.4464  0.2843
   32MOL0     N 4202   7.104   8.113  10.134 -0.4424  0.2408  0.0537
   32MOL0     C 4203   7.144   8.088  10.006  0.3569  0.1604 -0.0929
   32MOL0     C 4204   7.277   8.102  10.018 -0.4922 -0.0063 -0.0635
   32MOL0     C 4205   7.372   8.096   9.905 -0.5324  0.4382 -0.5834
   32MOL0     C 4206   7.353   8.220   9.819 -1.0162 -1.0651  0.1940
   32MOL0     C 4207   7.485   8.260   9.762 -0.2499 -0.5723  0.4994
   32MOL0     C 4208   7.470   8.380   9.671  0.1549  0.5173 -0.6601
   32MOL0     O 4209   7.363   8.368   9.568 -0.1572 -0.7803 -0.0406
   32MOL0     C 4210   7.386   8.343   9.434  0.0200 -0.2388  0.8696
   32MOL0     C 4211   7.282   8.380   9.352 -0.7383  0.1138 -0.1161
   32MOL0     C 4212   7.289   8.374   9.217  0.8699 -0.2479  0.3593
   32MOL0     C 4213   7.153   8.390   9.142 -0.3592  0.5278  0.3412
   32MOL0     C 4214   7.417   8.352   9.155  0.3682  0.2738  0.2269
   32MOL0     C 4215   7.447   8.353   9.009  0.1052  0.3791  0.1863
   32MOL0     O 4216   7.579   8.372   8.969  0.0389 -0.3712 -0.1152
   32MOL0     C 4217   7.614   8.403   8.841 -0.5774  0.0154  0.3117
   32MOL0     C 4218   7.536   8.410   8.718 -0.3452 -0.5236  0.0613
   32MOL0     C 4219   7.599   8.447   8.598 -0.1188  0.3047  0.1756
   32MOL0     C 4220   7.739   8.474   8.598 -0.0399 -0.1843 -0.5825
   32MOL0     O 4221   7.801   8.497   8.476  0.1607  0.0741 -0.1315
   32MOL0     C 4222   7.735   8.591   8.394 -0.1210  0.1037  0.0582
   32MOL0     C 4223   7.833   8.645   8.286  0.6219  0.3351 -0.1555
   32MOL0     C 4224   7.904   8.534   8.199  0.9692  0.8051 -0.4438
   32MOL0     C 4225   7.970   8.588   8.072  0.5866  0.3191  1.0493
   32MOL0     C 4226   8.006   8.475   7.970  0.7631 -0.0320 -0.2448
   32MOL0     C 4227   8.079   8.541   7.845 -0.2051  0.0997  0.0066
   32MOL0     C 4228   8.131   8.433   7.746 -0.9532 -0.3196 -0.5667
   32MOL0     C 4229   8.271   8.383   7.795 -0.1466  0.6612 -0.4108
   32MOL0    Cl 4230   8.326   8.243   7.686  0.6411 -0.2556 -0.5292
   32MOL0     C 4231   7.810   8.457   8.707  0.2450  0.9603 -0.4330
   32MOL0     C 4232   7.754   8.441   8.829  0.9016 -0.0045  0.1158
   32MOL0     O 4233   7.354   8.338   8.928 -0.2741 -0.3449 -0.2383
   32MOL0     C 4234   7.521   8.307   9.237 -0.1615  0.3617 -0.2600
   32MOL0     C 4235   7.499   8.306   9.373  0.2164 -0.6745  0.3046
   32MOL0     N 4236   7.322   8.130  10.143  0.3857 -0.3631 -0.8841
   32MOL0     N 4237   7.214   8.130  10.218  0.7427  1.0179 -0.1177
   32MOL0     C 4238   5.963   8.457  10.140 -0.6989  0.1204 -0.2525
   32MOL0     C 4239   5.849   8.478  10.063  0.9750 -0.7714 -0.1582
   32MOL0     C 4240   5.415   8.367   9.890 -1.3925  0.5867  0.2781
   32MOL0     C 4241   5.340   8.256   9.835 -0.1186 -0.1736  0.2281
   32MOL0     C 4242   5.250   8.284   9.735  0.0449 -0.4679  0.1273
   32MOL0     C 4243   5.229   8.415   9.673  0.0914 -1.0877 -0.5589
   32MOL0     O 4244   5.142   8.423   9.569  0.4393 -0.1239 -0.3139
   32MOL0     C 4245   5.056   8.540   9.560 -0.3316 -0.3013 -0.1482
   32MOL0     C 4246   4.946   8.547   9.670  0.5656 -0.1814 -0.3751
   32MOL0     C 4247   4.864   8.420   9.674  0.2600 -0.2276  0.2212
   32MOL0     C 4248   4.734   8.432   9.751 -0.2216  0.5518  0.2072
   32MOL0     C 4249   4.766   8.439   9.893  0.2605 -0.0393 -0.2340
   32MOL0     C 4250   4.802   8.455  10.015 -0.5553  0.7768 -0.3942
   32MOL0     C 4251   5.304   8.524   9.724  0.3857 -0.3565 -0.1794
   32MOL0     C 4252   5.391   8.496   9.830  0.0993  0.3031 -0.6340
   32MOL0     H 4253   5.625   8.299  10.240 -0.2440  0.1049 -0.5379
   32MOL0     H 4254   5.823   8.253  10.372  0.3617  4.7450  3.8803
   32MOL0     H 4255   6.209   8.465  10.261  0.8578 -0.7657 -0.3736
   32MOL0     H 4256   6.255   8.371  10.398 -0.8488 -4.2296  1.0580
   32MOL0     H 4257   6.242   8.171  10.264  4.3368  1.0966  0.7959
   32MOL0     H 4258   6.151   8.267  10.133 -0.4663  5.2001  0.8449
   32MOL0     H 4259   6.377   8.231  10.058 -0.4991 -0.0949  0.8865
   32MOL0     H 4260   6.390   8.394  10.113 -2.0647 -0.5424 -2.4165
   32MOL0     H 4261   6.497   8.302  10.316 -3.3590  3.8282 -2.4625
   32MOL0     H 4262   6.467   8.136  10.240 -0.5645  0.2929 -1.6681
   32MOL0     H 4263   6.623   8.204  10.056 -1.0678 -0.4945  0.6158
   32MOL0     H 4264   6.625   8.362  10.105  0.5181 -0.8514 -1.3812
   32MOL0     H 4265   6.766   8.258  10.326 -3.6034  0.9109  0.6150
   32MOL0     H 4266   6.721   8.103  10.260 -2.3705  0.8746  1.7070
   32MOL0     H 4267   6.840   8.171  10.039  1.8917  0.7751 -0.3167
   32MOL0     H 4268   6.905   8.310  10.136  1.3139  0.2489  2.5640
   32MOL0     H 4269   6.919   8.015  10.193 -2.0848  1.4681  2.8636
   32MOL0     H 4270   6.984   8.129  10.301  0.7103 -1.3003  0.5839
   32MOL0     H 4271   7.090   8.065   9.914 -0.2151 -1.4286  0.6111
   32MOL0     H 4272   7.472   8.088   9.949 -0.9970  3.0063  1.2139
   32MOL0     H 4273   7.353   8.001   9.855 -1.2147 -0.1133  0.6569
   32MOL0     H 4274   7.314   8.308   9.872  0.0021 -1.0547  0.9548
   32MOL0     H 4275   7.291   8.187   9.736 -1.7736 -0.9161  0.6819
   32MOL0     H 4276   7.540   8.181   9.709 -0.7540 -1.3001  1.0354
   32MOL0     H 4277   7.542   8.283   9.852  0.6810 -2.3409  0.4177
   32MOL0     H 4278   7.571   8.404   9.635  2.0401 -0.7389  3.2602
   32MOL0     H 4279   7.446   8.471   9.726 -1.1582 -1.7179  2.7752
   32MOL0     H 4280   7.187   8.400   9.401 -0.0719  1.2275  0.7805
   32MOL0     H 4281   7.145   8.294   9.091 -0.6319  0.6348  0.1800
   32MOL0     H 4282   7.065   8.396   9.207  1.7036 -0.5308  3.4947
   32MOL0     H 4283   7.162   8.481   9.081  0.0005  0.5027  0.3578
   32MOL0     H 4284   7.432   8.380   8.721 -0.0655 -1.5184  0.1454
   32MOL0     H 4285   7.550   8.436   8.502 -1.0057  0.6164  0.5784
   32MOL0     H 4286   7.651   8.552   8.335  0.6920  0.7495 -1.5851
   32MOL0     H 4287   7.698   8.675   8.453 -2.2381 -2.2972  2.4413
   32MOL0     H 4288   7.781   8.709   8.213 -0.5458  0.7687  1.0187
   32MOL0     H 4289   7.908   8.704   8.339 -0.4339  1.1057  0.5318
   32MOL0     H 4290   7.834   8.453   8.175  0.4942  1.0921 -0.0514
   32MOL0     H 4291   7.982   8.483   8.257  0.8927  0.7525 -0.3868
   32MOL0     H 4292   7.902   8.658   8.022  0.0325 -2.1554 -1.9717
   32MOL0     H 4293   8.058   8.650   8.095  0.7168  1.6117 -2.2363
   32MOL0     H 4294   7.915   8.425   7.936  1.1476  0.6828 -2.4632
   32MOL0     H 4295   8.063   8.402   8.028  1.8306  1.2978  0.4477
   32MOL0     H 4296   8.023   8.620   7.792 -0.0181  2.0528  2.5265
   32MOL0     H 4297   8.160   8.595   7.895  0.8509 -0.6784 -0.8177
   32MOL0     H 4298   8.144   8.471   7.644 -0.9743  0.0408 -0.4340
   32MOL0     H 4299   8.063   8.349   7.731  1.6083 -2.2983 -2.1828
   32MOL0     H 4300   8.262   8.351   7.900 -1.2297 -2.3700 -1.2980
   32MOL0     H 4301   8.344   8.464   7.790  1.1335 -0.5461 -2.3904
   32MOL0     H 4302   7.918   8.465   8.706  0.4576 -1.3882 -0.7871
   32MOL0     H 4303   7.815   8.441   8.919 -1.4718 -0.7303  1.8289
   32MOL0     H 4304   7.621   8.294   9.197  0.2960  1.9923  0.2560
   32MOL0     H 4305   7.577   8.269   9.439 -1.1380 -1.3649  1.5770
   32MOL0     H 4306   6.056   8.508  10.120  1.8810 -4.2718 -0.5927
   32MOL0     H 4307   5.873   8.536   9.975  2.8494  1.2963  1.5969
   32MOL0     H 4308   5.339   8.153   9.868 -2.9180  0.6606  3.2886
   32MOL0     H 4309   5.180   8.209   9.701 -0.9496  0.7013 -0.4962
   32MOL0     H 4310   5.116   8.632   9.562 -0.0437 -0.3653 -2.8136
   32MOL0     H 4311   5.009   8.534   9.462 -0.5180 -0.7881 -0.0296
   32MOL0     H 4312   4.884   8.635   9.655  1.6833  0.8416  0.8124
   32MOL0     H 4313   4.996   8.568   9.765 -1.1007 -0.9709  0.7231
   32MOL0     H 4314   4.918   8.335   9.716 -3.3905 -2.6191  0.5694
   32MOL0     H 4315   4.837   8.394   9.571  0.8825 -0.4318  0.1040
   32MOL0     H 4316   4.669   8.347   9.726  2.3031 -1.6856  0.7034
   32MOL0     H 4317   4.682   8.523   9.721 -2.3884  0.2796  2.7594
   32MOL0     H 4318   4.838   8.453  10.116 -2.0298 -1.2073  0.1616
   32MOL0     H 4319   5.300   8.628   9.694  3.0375  0.0643  0.6995
   32MOL0     H 4320   5.451   8.578   9.867 -1.0896  0.9246 -0.0178
   33MOL0     O 4321   7.423   0.396  10.373  0.5147 -1.1327 -0.6259
   33MOL0     C 4322   7.418   0.499  10.306  0.1613 -0.3577  1.0465
   33MOL0     O 4323   7.308   0.543  10.229  0.3833 -0.0989 -0.0137
   33MOL0     C 4324   7.193   0.555  10.299 -0.3308 -0.3655 -0.2632
   33MOL0     C 4325   7.194   0.597  10.432 -0.2722  0.3054 -0.5851
   33MOL0     C 4326   7.068   0.597  10.507 -0.4133  0.5454  0.0182
   33MOL0     C 4327   6.947   0.535  10.449 -0.0595  0.1766  0.3607
   33MOL0     O 4328   6.819   0.522  10.503 -0.6826  0.5175 -0.0747
   33MOL0     C 4329   6.802   0.540  10.648  0.2378 -0.3881 -0.5141
   33MOL0     C 4330   6.789   0.398  10.703  0.7791 -0.5141  0.5854
   33MOL0     C 4331   6.930   0.342  10.703 -0.1943 -0.1692 -0.5965
   33MOL0     C 4332   6.927   0.215  10.782 -0.9565 -0.5818 -0.4104
   33MOL0     C 4333   7.058   0.144  10.789 -0.5123  0.5057  0.3238
   33MOL0     C 4334   7.068   0.051  10.668  0.3096 -0.0015  0.4119
   33MOL0     C 4335   7.198  -0.014  10.665  0.5497 -0.5281 -0.3086
   33MOL0     C 4336   7.308   0.063  10.590 -0.1114 -0.6059 -0.1726
   33MOL0     N 4337   7.409  -0.033  10.541 -0.0079  0.0179  0.1563
   33MOL0     C 4338   7.522  -0.073  10.607 -0.2022  0.7642 -0.4932
   33MOL0     C 4339   7.571  -0.177  10.530  0.3852 -0.6722 -0.4528
   33MOL0     C 4340   7.701  -0.244  10.554  0.1199  0.5004  0.5316
   33MOL0     C 4341   7.690  -0.390  10.504  0.5846  0.6635 -0.5817
   33MOL0     C 4342   7.634  -0.490  10.609 -0.6452 -0.6229  0.2868
   33MOL0     C 4343   7.491  -0.464  10.629  0.6183  0.1031 -1.0346
   33MOL0     O 4344   7.447  -0.538  10.740  0.1215 -0.3284 -0.0454
   33MOL0     C 4345   7.331  -0.507  10.791 -0.0694  1.0891 -0.8405
   33MOL0     C 4346   7.281  -0.616  10.865  0.0797 -0.0155 -0.1194
   33MOL0     C 4347   7.160  -0.608  10.936  0.7702 -0.0876 -0.9273
   33MOL0     C 4348   7.131  -0.738  11.020 -0.5175 -1.0907  0.1923
   33MOL0     C 4349   7.072  -0.497  10.918 -0.3819  0.1181 -0.2079
   33MOL0     C 4350   6.942  -0.480  10.979 -0.4366  0.5798  0.1050
   33MOL0     O 4351   6.857  -0.385  10.922  0.0899  0.1526  0.3249
   33MOL0     C 4352   6.741  -0.339  10.982  0.3321 -0.3502 -0.3344
   33MOL0     C 4353   6.739  -0.202  10.997 -0.7218  0.2015  0.2306
   33MOL0     C 4354   6.645  -0.135  11.060  0.7479  0.2557  0.7673
   33MOL0     C 4355   6.539  -0.205  11.124 -0.0399 -0.0143 -0.3857
   33MOL0     O 4356   6.455  -0.136  11.204  0.9994 -0.1829 -0.1692
   33MOL0     C 4357   6.360  -0.204  11.283  0.0025 -0.6598 -0.4057
   33MOL0     C 4358   6.229  -0.248  11.216  0.2512  0.6173  0.0301
   33MOL0     C 4359   6.138  -0.132  11.195 -0.9408  0.2492  0.3283
   33MOL0     C 4360   6.018  -0.165  11.104 -0.6287  0.4229  0.5999
   33MOL0     C 4361   5.908  -0.260  11.166 -0.1642  0.4612 -0.0367
   33MOL0     C 4362   5.817  -0.179  11.269  0.3053 -0.7273  1.6375
   33MOL0     C 4363   5.685  -0.246  11.305  0.0026  0.2641 -0.3420
   33MOL0     C 4364   5.603  -0.147  11.395  0.3835 -0.5736  0.3498
   33MOL0    Cl 4365   5.696  -0.084  11.535  0.2177 -0.2388  0.0196
   33MOL0     C 4366   6.539  -0.348  11.109 -0.3974 -0.1694  0.2426
   33MOL0     C 4367   6.639  -0.417  11.039  0.0938 -0.0438  0.4453
   33MOL0     O 4368   6.912  -0.538  11.088 -1.0190 -0.0862  0.5492
   33MOL0     C 4369   7.131  -0.382  10.848  0.2632  0.1557 -0.4879
   33MOL0     C 4370   7.254  -0.390  10.788  0.0496 -0.0351 -0.6702
   33MOL0     N 4371   7.470  -0.203  10.432 -0.2397 -0.5089  0.3176
   33MOL0     N 4372   7.376  -0.117  10.438 -1.0766 -0.0492  0.0293
   33MOL0     C 4373   6.962   0.487  10.316  0.5576  0.1298  0.5390
   33MOL0     C 4374   7.084   0.492  10.247  0.6945  0.6882 -0.1916
   33MOL0     C 4375   7.544   0.578  10.285  0.3875  0.1722 -0.1121
   33MOL0     C 4376   7.550   0.681  10.189 -0.4147  0.1705 -0.3620
   33MOL0     C 4377   7.668   0.751  10.162 -0.5222  0.0499  0.3182
   33MOL0     C 4378   7.793   0.718  10.229  0.6027 -0.4177  1.2171
   33MOL0     O 4379   7.909   0.787  10.188  0.9271  0.5108 -0.2145
   33MOL0     C 4380   8.032   0.747  10.254  0.0620 -0.2180 -0.4861
   33MOL0     C 4381   8.158   0.788  10.193 -0.2192 -1.2212  0.5524
   33MOL0     C 4382   8.204   0.925  10.249 -0.0164 -0.3488 -1.0199
   33MOL0     C 4383   8.323   0.979  10.167  0.5036 -0.2278 -0.8703
   33MOL0     C 4384   8.356   1.106  10.223 -1.0750 -0.4441 -0.1754
   33MOL0     C 4385   8.386   1.218  10.259  1.0410 -0.4960 -0.2330
   33MOL0     C 4386   7.787   0.617  10.327 -0.8074 -0.2629 -0.2983
   33MOL0     C 4387   7.660   0.552  10.352 -0.6559 -0.1989  0.0680
   33MOL0     H 4388   7.285   0.641  10.473 -0.7063  1.3720 -0.7416
   33MOL0     H 4389   7.064   0.634  10.609 -2.3722 -1.0589  0.5932
   33MOL0     H 4390   6.880   0.600  10.695 -0.9774 -1.6380  3.5155
   33MOL0     H 4391   6.706   0.591  10.658  0.0256 -0.4439 -2.0370
   33MOL0     H 4392   6.737   0.393  10.799  0.4828 -2.2563  0.3538
   33MOL0     H 4393   6.722   0.346  10.634 -0.8200  1.9092  0.1728
   33MOL0     H 4394   6.954   0.318  10.599  0.4875 -3.5390  0.2132
   33MOL0     H 4395   6.998   0.414  10.751 -0.8865 -0.8602  1.5311
   33MOL0     H 4396   6.904   0.243  10.885 -0.5317 -0.7149 -0.2772
   33MOL0     H 4397   6.846   0.150  10.748 -1.1077 -0.8809  0.5150
   33MOL0     H 4398   7.141   0.215  10.789  0.7886 -0.8821  2.5205
   33MOL0     H 4399   7.058   0.086  10.882 -0.7769 -0.3166 -0.1721
   33MOL0     H 4400   6.986  -0.022  10.673 -1.5677  1.9648  0.0455
   33MOL0     H 4401   7.064   0.105  10.573 -1.5391 -0.4603  0.1906
   33MOL0     H 4402   7.237  -0.037  10.765  2.0580  2.6092 -0.0617
   33MOL0     H 4403   7.178  -0.111  10.617 -0.5439 -1.4377  1.8731
   33MOL0     H 4404   7.359   0.140  10.647 -1.0452  3.3726 -4.1221
   33MOL0     H 4405   7.272   0.109  10.497  0.5112 -0.9959 -0.6131
   33MOL0     H 4406   7.568  -0.039  10.700 -1.5046  1.0720  0.0644
   33MOL0     H 4407   7.778  -0.192  10.496  2.2512 -2.1653  0.7317
   33MOL0     H 4408   7.729  -0.231  10.659  1.4657  2.3728 -0.0045
   33MOL0     H 4409   7.793  -0.422  10.483  0.1528 -1.4655  0.2992
   33MOL0     H 4410   7.636  -0.407  10.411 -1.7480 -1.2408  0.9942
   33MOL0     H 4411   7.688  -0.485  10.704 -1.7086  1.3657  0.8613
   33MOL0     H 4412   7.647  -0.594  10.580  0.3150 -1.2415  2.6605
   33MOL0     H 4413   7.425  -0.475  10.542 -0.0183 -4.1172 -0.2293
   33MOL0     H 4414   7.490  -0.361  10.666  3.5484  0.1556 -0.8586
   33MOL0     H 4415   7.334  -0.711  10.868 -1.0548 -0.6588  1.0926
   33MOL0     H 4416   7.029  -0.767  10.993 -0.9952 -1.4322  2.2334
   33MOL0     H 4417   7.193  -0.823  10.991 -1.3807 -0.9861 -2.1681
   33MOL0     H 4418   7.132  -0.714  11.127 -2.6845 -1.2312  0.2845
   33MOL0     H 4419   6.830  -0.158  10.958  0.8866 -1.7966  1.4994
   33MOL0     H 4420   6.642  -0.027  11.048 -3.7009  0.0338 -2.0595
   33MOL0     H 4421   6.415  -0.289  11.326  0.5645 -0.5968 -0.9827
   33MOL0     H 4422   6.336  -0.138  11.367 -1.0915 -1.0452 -0.3889
   33MOL0     H 4423   6.261  -0.297  11.123 -2.2130 -2.6116  0.7283
   33MOL0     H 4424   6.178  -0.326  11.273  1.4204  1.0857  1.7995
   33MOL0     H 4425   6.186  -0.043  11.154  2.2061 -1.3514  0.2759
   33MOL0     H 4426   6.098  -0.100  11.292  1.3284 -1.6171  2.0079
   33MOL0     H 4427   5.972  -0.072  11.070 -2.2210 -1.7274 -3.9370
   33MOL0     H 4428   6.068  -0.211  11.018  1.5937 -0.5458  2.2820
   33MOL0     H 4429   5.953  -0.351  11.207 -0.1784  0.1760 -0.6424
   33MOL0     H 4430   5.837  -0.302  11.094 -2.6813  2.5152  1.0903
   33MOL0     H 4431   5.882  -0.164  11.355  3.2446 -4.8259  0.4588
   33MOL0     H 4432   5.794  -0.082  11.223  0.3072 -0.8587  1.3540
   33MOL0     H 4433   5.695  -0.343  11.355 -1.6653 -0.2271 -0.8844
   33MOL0     H 4434   5.636  -0.258  11.208 -1.6745  1.7555  0.2592
   33MOL0     H 4435   5.515  -0.192  11.443 -0.4788  2.0866  1.4532
   33MOL0     H 4436   5.558  -0.071  11.331 -1.1506  0.2370  2.2948
   33MOL0     H 4437   6.455  -0.409  11.141  0.7479 -0.4843  2.9718
   33MOL0     H 4438   6.628  -0.523  11.018  0.9175  0.1426 -1.1249
   33MOL0     H 4439   7.080  -0.286  10.848  1.5615  0.9120  1.9521
   33MOL0     H 4440   7.294  -0.298  10.746  3.4596 -0.0478  2.0811
   33MOL0     H 4441   6.872   0.443  10.274 -0.0579  0.6444  1.2704
   33MOL0     H 4442   7.086   0.443  10.151  0.7039  1.5474 -0.6420
   33MOL0     H 4443   7.471   0.714  10.122 -0.6150 -1.3774 -0.9206
   33MOL0     H 4444   7.683   0.831  10.090 -0.0767 -0.4101 -0.1040
   33MOL0     H 4445   8.025   0.775  10.359 -2.1667 -2.4738  0.0779
   33MOL0     H 4446   8.052   0.639  10.247  0.8302 -0.0867 -0.4523
   33MOL0     H 4447   8.143   0.798  10.085  2.1215  1.4937  0.3587
   33MOL0     H 4448   8.240   0.720  10.219  0.2167 -1.8027 -2.0851
   33MOL0     H 4449   8.229   0.916  10.355 -0.1950 -2.0055 -1.0950
   33MOL0     H 4450   8.120   0.991  10.226  0.3774 -0.4178 -2.8538
   33MOL0     H 4451   8.316   0.982  10.058  1.7132  2.2283 -0.9560
   33MOL0     H 4452   8.407   0.910  10.179  1.5347  1.1298  0.0733
   33MOL0     H 4453   8.411   1.319  10.286 -1.8261  0.0002  0.8892
   33MOL0     H 4454   7.870   0.592  10.392 -0.6680  2.4118  0.6482
   33MOL0     H 4455   7.659   0.474  10.427  1.0129  1.8616  2.3890
   34MOL0     O 4456   9.998   3.745   0.145  0.1995  0.0959  0.7994
   34MOL0     C 4457  10.027   3.646   0.072  0.1459 -0.3862  0.2037
   34MOL0     O 4458   9.943   3.567   0.008  0.1111 -0.4708 -0.3715
   34MOL0     C 4459   9.803   3.570   0.019 -0.3830  1.2909 -0.2776
   34MOL0     C 4460   9.714   3.557  -0.089 -0.4644  0.9986  0.1045
   34MOL0     C 4461   9.576   3.561  -0.068 -0.5119 -0.2062 -0.1058
   34MOL0     C 4462   9.525   3.550   0.064 -0.1502  0.5773  0.0759
   34MOL0     O 4463   9.387   3.534   0.074 -0.1850 -0.6338 -0.3657
   34MOL0     C 4464   9.336   3.470   0.195  1.3729 -0.2052 -0.4781
   34MOL0     C 4465   9.191   3.477   0.180  0.9925 -0.5631  0.6650
   34MOL0     C 4466   9.134   3.356   0.115 -0.1154 -0.0764  0.2871
   34MOL0     C 4467   9.109   3.242   0.217  0.2038  1.0311  0.6554
   34MOL0     C 4468   9.093   3.099   0.157  0.3040  0.2690  0.9985
   34MOL0     C 4469   9.047   3.002   0.266  0.2681  0.0756 -0.0552
   34MOL0     C 4470   9.002   2.874   0.207  0.3235 -0.0162 -0.9062
   34MOL0     C 4471   9.033   2.759   0.302 -0.5144  0.3340 -0.5270
   34MOL0     N 4472   8.961   2.650   0.239  0.2816  0.4413 -0.2565
   34MOL0     C 4473   8.861   2.577   0.299 -0.6249  0.0739 -0.9446
   34MOL0     C 4474   8.843   2.468   0.221  0.7122 -0.1198  1.2728
   34MOL0     C 4475   8.746   2.360   0.247  0.2971  0.2301  0.1622
   34MOL0     C 4476   8.614   2.389   0.156  0.1060 -0.1067  0.5371
   34MOL0     C 4477   8.541   2.519   0.191  0.6604 -0.1752  0.1153
   34MOL0     C 4478   8.416   2.547   0.109 -0.4313  0.0728 -0.3713
   34MOL0     O 4479   8.374   2.682   0.134 -0.1630 -0.4278  0.2470
   34MOL0     C 4480   8.284   2.750   0.049 -0.5636  0.0455  0.7262
   34MOL0     C 4481   8.207   2.689  -0.053 -0.4861 -0.6910  0.6318
   34MOL0     C 4482   8.123   2.762  -0.143  0.1358  1.1924 -0.2636
   34MOL0     C 4483   8.055   2.686  -0.249  0.2217  0.0796  0.6776
   34MOL0     C 4484   8.124   2.904  -0.124 -0.5442 -0.2526 -0.5046
   34MOL0     C 4485   8.027   2.991  -0.196 -0.1786 -0.7695 -0.5337
   34MOL0     O 4486   8.039   3.121  -0.172 -0.8783  0.4242  0.3877
   34MOL0     C 4487   7.993   3.210  -0.265 -0.4497  0.4673  0.5878
   34MOL0     C 4488   8.073   3.262  -0.369  0.1996 -0.8783 -0.0892
   34MOL0     C 4489   8.026   3.356  -0.463 -0.1019  0.7518 -0.2868
   34MOL0     C 4490   7.893   3.409  -0.455  0.4329  0.1019 -0.0619
   34MOL0     O 4491   7.830   3.494  -0.545 -0.0774  0.3139  0.0923
   34MOL0     C 4492   7.914   3.581  -0.619 -0.1778  0.1500 -0.3142
   34MOL0     C 4493   7.839   3.703  -0.685 -0.0345  0.3578  0.0600
   34MOL0     C 4494   7.849   3.694  -0.835 -0.3889  0.5444 -0.0153
   34MOL0     C 4495   7.834   3.833  -0.904  0.2000  0.2210  0.2244
   34MOL0     C 4496   7.788   3.807  -1.051  0.3440  0.5515 -0.2797
   34MOL0     C 4497   7.873   3.860  -1.162 -0.0943  0.2877  0.1797
   34MOL0     C 4498   7.794   3.887  -1.287  0.3233 -0.7473 -1.0125
   34MOL0     C 4499   7.766   3.769  -1.365 -0.1713 -0.0828  0.9846
   34MOL0    Cl 4500   7.667   3.829  -1.501  0.0623 -0.0473  0.1388
   34MOL0     C 4501   7.816   3.351  -0.357  0.2755 -0.8944 -0.1376
   34MOL0     C 4502   7.861   3.257  -0.260 -0.8402  0.6477 -0.8926
   34MOL0     O 4503   7.952   2.941  -0.280 -0.0643  0.5178 -0.1900
   34MOL0     C 4504   8.197   2.967  -0.017 -0.0347 -0.0697  0.2934
   34MOL0     C 4505   8.282   2.897   0.059  0.8078  0.7212 -0.1094
   34MOL0     N 4506   8.911   2.479   0.109 -0.9889 -0.0085  0.2562
   34MOL0     N 4507   8.990   2.579   0.129 -0.3354  0.1787  0.4332
   34MOL0     C 4508   9.613   3.564   0.165  0.2021 -0.2733  1.0392
   34MOL0     C 4509   9.749   3.578   0.144  0.2152  0.1434 -0.8208
   34MOL0     C 4510  10.167   3.607   0.068 -0.8051 -1.0900 -0.5300
   34MOL0     C 4511  10.202   3.479   0.023 -0.6020 -0.5614 -0.3939
   34MOL0     C 4512  10.338   3.440   0.015 -0.0634 -0.5561  0.0093
   34MOL0     C 4513  10.445   3.513   0.054 -0.0771 -0.4241 -0.7490
   34MOL0     O 4514  10.573   3.464   0.059  0.8781 -0.0782  0.0031
   34MOL0     C 4515  10.681   3.539   0.116  1.0600  0.4829  0.1630
   34MOL0     C 4516  10.746   3.646   0.022  0.2445  0.0913  0.0734
   34MOL0     C 4517  10.858   3.727   0.090 -0.0781  0.2114 -0.7512
   34MOL0     C 4518  10.971   3.789   0.004  0.3370  0.9606  0.0551
   34MOL0     C 4519  10.936   3.913  -0.060  0.3074 -0.0293 -0.2143
   34MOL0     C 4520  10.902   4.023  -0.100  0.7083 -0.1623 -0.1553
   34MOL0     C 4521  10.406   3.641   0.101  0.4706  0.4191  0.3842
   34MOL0     C 4522  10.280   3.691   0.115 -0.2510 -0.3759 -1.0847
   34MOL0     H 4523   9.745   3.564  -0.193  0.1944 -1.0912  0.1094
   34MOL0     H 4524   9.509   3.559  -0.153 -0.2907 -0.7798 -0.2719
   34MOL0     H 4525   9.363   3.364   0.195  0.0145 -0.5841  0.5091
   34MOL0     H 4526   9.370   3.518   0.288 -0.4519  0.5386 -0.1497
   34MOL0     H 4527   9.136   3.494   0.273  0.4605 -1.0000  0.4413
   34MOL0     H 4528   9.161   3.556   0.110 -3.3038 -0.2006  2.5995
   34MOL0     H 4529   9.047   3.385   0.055  0.1303  0.1011  0.0188
   34MOL0     H 4530   9.208   3.321   0.043 -0.1397 -2.5067  1.3371
   34MOL0     H 4531   9.195   3.245   0.285  0.4366  0.6821  0.3815
   34MOL0     H 4532   9.019   3.272   0.271  2.4082  0.7286  4.9315
   34MOL0     H 4533   9.027   3.098   0.069  1.0517  0.9413  0.4184
   34MOL0     H 4534   9.186   3.061   0.114 -1.0008  0.4065 -2.2517
   34MOL0     H 4535   9.135   2.979   0.327  0.5216 -0.1437 -0.4996
   34MOL0     H 4536   8.963   3.022   0.333 -0.0551 -4.0088  1.0291
   34MOL0     H 4537   8.896   2.875   0.182  0.6171 -0.5311 -2.2933
   34MOL0     H 4538   9.060   2.855   0.116  2.9445 -0.7290  0.8062
   34MOL0     H 4539   9.006   2.762   0.408 -3.7559 -1.2517 -1.1563
   34MOL0     H 4540   9.138   2.733   0.293 -0.5223 -2.4171  4.1113
   34MOL0     H 4541   8.822   2.587   0.400  2.5050  0.1601  0.3833
   34MOL0     H 4542   8.790   2.262   0.224 -1.6590  0.0994 -3.8973
   34MOL0     H 4543   8.698   2.367   0.345 -0.8794  1.2855 -0.4646
   34MOL0     H 4544   8.539   2.312   0.177  0.9914 -0.8281  1.1834
   34MOL0     H 4545   8.653   2.391   0.054  1.1474 -0.6826  0.9010
   34MOL0     H 4546   8.605   2.606   0.172 -0.2938  0.4804 -0.1866
   34MOL0     H 4547   8.520   2.530   0.298  3.3470 -0.4928  0.7452
   34MOL0     H 4548   8.344   2.470   0.137  0.3486 -0.6687 -0.3877
   34MOL0     H 4549   8.444   2.530   0.004  0.4848  0.6436 -0.2234
   34MOL0     H 4550   8.231   2.584  -0.070  0.1999 -0.2984 -1.0105
   34MOL0     H 4551   8.066   2.578  -0.247 -2.4887 -0.2405  1.8058
   34MOL0     H 4552   7.947   2.694  -0.232 -0.0962 -2.3102  0.0132
   34MOL0     H 4553   8.084   2.716  -0.350  1.6883  0.3153  1.1316
   34MOL0     H 4554   8.174   3.225  -0.381  0.7978  1.2780 -2.3563
   34MOL0     H 4555   8.089   3.400  -0.540  2.7526 -2.5340 -0.0627
   34MOL0     H 4556   7.993   3.620  -0.554  0.3758 -0.1596 -0.7914
   34MOL0     H 4557   7.965   3.521  -0.695 -1.8356 -3.0344  0.8880
   34MOL0     H 4558   7.734   3.688  -0.658 -0.3351  2.7011  0.3275
   34MOL0     H 4559   7.886   3.794  -0.647  1.5187 -0.1667 -0.5076
   34MOL0     H 4560   7.765   3.631  -0.868  1.0956 -1.3242 -0.4311
   34MOL0     H 4561   7.941   3.645  -0.868 -1.3316 -2.1601  1.0746
   34MOL0     H 4562   7.764   3.891  -0.843  1.6053  0.9526  1.2141
   34MOL0     H 4563   7.932   3.883  -0.909 -0.1944  1.1043  0.9113
   34MOL0     H 4564   7.691   3.858  -1.051 -0.9504 -1.6850 -2.1426
   34MOL0     H 4565   7.762   3.704  -1.075  2.9822 -0.3109  0.2785
   34MOL0     H 4566   7.917   3.955  -1.130  0.5976 -0.5078  1.7118
   34MOL0     H 4567   7.960   3.794  -1.170 -0.0483  0.3273  0.3542
   34MOL0     H 4568   7.854   3.956  -1.347  1.4735  1.0998  2.0191
   34MOL0     H 4569   7.700   3.931  -1.250 -0.6147 -2.2493 -1.5327
   34MOL0     H 4570   7.716   3.689  -1.310 -0.7159  0.5285  1.3799
   34MOL0     H 4571   7.858   3.733  -1.413 -1.0430  2.2544 -2.9200
   34MOL0     H 4572   7.713   3.384  -0.344  0.0766 -1.3433 -0.5602
   34MOL0     H 4573   7.799   3.228  -0.176 -0.5452 -1.1776 -1.2708
   34MOL0     H 4574   8.188   3.073   0.004 -0.7633 -0.4904  2.3524
   34MOL0     H 4575   8.345   2.947   0.131  1.7132 -0.1401 -0.2868
   34MOL0     H 4576   9.581   3.557   0.269 -1.9795 -2.2622  0.3173
   34MOL0     H 4577   9.807   3.580   0.235 -0.4841 -3.4965 -0.1420
   34MOL0     H 4578  10.131   3.406  -0.014  0.3553 -1.5307 -0.3564
   34MOL0     H 4579  10.365   3.338  -0.011 -1.4385 -0.6798 -0.9869
   34MOL0     H 4580  10.646   3.586   0.208 -0.7637  0.4750 -0.4850
   34MOL0     H 4581  10.759   3.473   0.155  0.3482  0.1625  1.0692
   34MOL0     H 4582  10.675   3.713  -0.028  1.0793  1.5100  0.7065
   34MOL0     H 4583  10.786   3.573  -0.048 -0.5879  0.7846 -1.1498
   34MOL0     H 4584  10.906   3.652   0.154  1.8235  0.1530 -2.1520
   34MOL0     H 4585  10.810   3.804   0.151 -1.3225  0.6372 -2.2194
   34MOL0     H 4586  10.996   3.718  -0.076 -0.9803 -1.1576  1.4409
   34MOL0     H 4587  11.058   3.801   0.069 -0.6974  0.3317  1.5968
   34MOL0     H 4588  10.870   4.118  -0.136 -0.2867 -0.0456  0.9987
   34MOL0     H 4589  10.489   3.707   0.124  0.6870 -0.1166  1.1647
   34MOL0     H 4590  10.264   3.791   0.152 -0.0199 -0.5442 -0.5235
   35MOL0     O 4591  11.124  11.097   7.708  0.2902  0.4847  0.8331
   35MOL0     C 4592  11.163  11.022   7.620  0.2607  0.5554  0.3213
   35MOL0     O 4593  11.290  11.014   7.567  0.3496  0.4090 -0.0912
   35MOL0     C 4594  11.398  11.073   7.625  0.0069  0.8801  0.5131
   35MOL0     C 4595  11.486  11.134   7.539  0.0362 -0.3546  0.6624
   35MOL0     C 4596  11.615  11.176   7.581  0.4372  0.3057 -0.0882
   35MOL0     C 4597  11.651  11.172   7.722  0.0020 -0.1885  0.5276
   35MOL0     O 4598  11.777  11.199   7.765  0.5186 -0.7413  0.2312
   35MOL0     C 4599  11.866  11.259   7.667 -0.3687 -0.3965 -0.6413
   35MOL0     C 4600  11.989  11.311   7.748  0.2175 -0.9176  0.0294
   35MOL0     C 4601  12.106  11.345   7.656 -0.7487 -0.2109  0.0137
   35MOL0     C 4602  12.207  11.439   7.725 -0.6368 -0.1266  0.7037
   35MOL0     C 4603  12.345  11.451   7.660 -0.6428 -0.4059 -0.0498
   35MOL0     C 4604  12.332  11.481   7.509 -0.1975  0.1742  0.4581
   35MOL0     C 4605  12.467  11.531   7.461  1.2703  0.5381 -0.5551
   35MOL0     C 4606  12.499  11.530   7.310 -0.4385  0.2655 -0.2270
   35MOL0     N 4607  12.628  11.598   7.283  0.4483  0.1413  0.4199
   35MOL0     C 4608  12.750  11.627   7.348 -0.0709  0.4248  0.3125
   35MOL0     C 4609  12.826  11.697   7.259 -0.0138  0.2699 -0.7177
   35MOL0     C 4610  12.970  11.748   7.267  0.5494  0.0485  0.3844
   35MOL0     C 4611  13.074  11.636   7.269 -0.6402  0.8341 -0.2726
   35MOL0     C 4612  13.212  11.694   7.292  0.5954 -0.9081 -0.5746
   35MOL0     C 4613  13.327  11.594   7.259 -0.0602 -0.1712 -0.2519
   35MOL0     O 4614  13.297  11.466   7.320  0.2511 -0.2813  0.0075
   35MOL0     C 4615  13.271  11.360   7.239  0.0946  0.4345  0.2227
   35MOL0     C 4616  13.235  11.244   7.307  0.2606 -0.5871  0.2456
   35MOL0     C 4617  13.202  11.126   7.248 -0.2691 -0.2045 -0.5999
   35MOL0     C 4618  13.151  11.019   7.324 -0.2307  0.0151 -1.0269
   35MOL0     C 4619  13.225  11.109   7.111 -0.5527 -0.6390  0.3137
   35MOL0     C 4620  13.218  10.980   7.041 -0.4613 -0.6200 -0.3030
   35MOL0     O 4621  13.274  10.977   6.911  0.3337  0.1217  0.1787
   35MOL0     C 4622  13.265  10.858   6.841  0.3653  0.5865  0.0838
   35MOL0     C 4623  13.149  10.810   6.792  0.3370  0.3294 -0.1313
   35MOL0     C 4624  13.132  10.696   6.718 -0.1593  0.0071  0.1614
   35MOL0     C 4625  13.247  10.638   6.661 -0.7603 -0.4449 -0.3871
   35MOL0     O 4626  13.236  10.543   6.569 -0.3944 -0.4418 -0.7046
   35MOL0     C 4627  13.112  10.476   6.561  0.6135 -1.3164 -0.7854
   35MOL0     C 4628  13.112  10.348   6.480 -1.2196 -0.4144  0.0591
   35MOL0     C 4629  13.191  10.242   6.560 -1.0507  0.1270 -0.8691
   35MOL0     C 4630  13.117  10.205   6.686 -0.1117 -0.0245  0.5038
   35MOL0     C 4631  12.987  10.136   6.659 -1.0779  0.2907 -0.6646
   35MOL0     C 4632  12.942  10.064   6.791 -0.1598  0.2214  0.0834
   35MOL0     C 4633  12.816   9.960   6.765  0.1122 -0.4138  0.7053
   35MOL0     C 4634  12.780   9.868   6.880  0.7342  1.0313  0.9544
   35MOL0    Cl 4635  12.702   9.716   6.837 -0.3932  0.1187 -0.3304
   35MOL0     C 4636  13.372  10.688   6.697  0.0392 -0.0283 -0.1816
   35MOL0     C 4637  13.379  10.792   6.789  0.4664 -0.0759 -0.3320
   35MOL0     O 4638  13.154  10.885   7.089  0.4063 -0.2461  0.0398
   35MOL0     C 4639  13.252  11.223   7.034  0.3028 -0.0333 -0.2105
   35MOL0     C 4640  13.273  11.353   7.096  1.2508 -0.0276 -0.2079
   35MOL0     N 4641  12.755  11.717   7.146 -0.1534  0.4041 -0.4501
   35MOL0     N 4642  12.640  11.656   7.160 -0.9045  0.2425 -0.1457
   35MOL0     C 4643  11.558  11.129   7.816 -0.4005  0.2994  0.3866
   35MOL0     C 4644  11.434  11.070   7.768  0.0182  0.2858 -0.0132
   35MOL0     C 4645  11.059  10.953   7.547  0.2047  1.0923 -0.1288
   35MOL0     C 4646  11.095  10.900   7.419  0.1107 -0.2682 -0.8491
   35MOL0     C 4647  10.996  10.835   7.345 -0.5009 -0.5317 -0.4883
   35MOL0     C 4648  10.859  10.831   7.388  0.3208  0.0020  0.5789
   35MOL0     O 4649  10.775  10.772   7.294  0.0763 -0.0128 -0.2788
   35MOL0     C 4650  10.632  10.766   7.334  0.3822 -0.2536  0.1000
   35MOL0     C 4651  10.552  10.698   7.219 -1.0980  0.3030 -0.5948
   35MOL0     C 4652  10.432  10.619   7.272 -0.5484 -0.0244  0.0657
   35MOL0     C 4653  10.335  10.709   7.351  0.2919 -0.1999  1.2943
   35MOL0     C 4654  10.213  10.722   7.273 -0.1344  0.0891  0.7976
   35MOL0     C 4655  10.124  10.725   7.190 -0.9110 -0.8573  0.2173
   35MOL0     C 4656  10.831  10.891   7.513  0.3944 -0.5068  0.7977
   35MOL0     C 4657  10.928  10.956   7.593  0.1534  0.3870 -0.3922
   35MOL0     H 4658  11.456  11.144   7.435  0.4788  2.5183  0.7157
   35MOL0     H 4659  11.685  11.211   7.507  0.6707  2.4007  1.0555
   35MOL0     H 4660  11.908  11.185   7.598 -3.0397 -2.3804 -0.3227
   35MOL0     H 4661  11.815  11.336   7.608  1.5505 -0.6769 -2.8210
   35MOL0     H 4662  11.962  11.402   7.802  0.7731  0.4040 -1.8107
   35MOL0     H 4663  12.016  11.232   7.820  0.3631  0.8438  2.0080
   35MOL0     H 4664  12.151  11.251   7.623 -0.3833 -0.7233  1.8707
   35MOL0     H 4665  12.074  11.400   7.567  0.1288 -0.7606 -0.6488
   35MOL0     H 4666  12.166  11.540   7.738  0.5937  0.3276  1.2200
   35MOL0     H 4667  12.231  11.386   7.817 -0.0269 -3.0663 -1.0251
   35MOL0     H 4668  12.400  11.525   7.719 -2.5503  1.7296 -0.7886
   35MOL0     H 4669  12.399  11.356   7.658 -0.3550 -0.2614  0.5130
   35MOL0     H 4670  12.313  11.386   7.458 -0.0629 -0.2315  1.1421
   35MOL0     H 4671  12.247  11.544   7.479 -0.0923 -1.0939 -2.9670
   35MOL0     H 4672  12.474  11.634   7.495 -1.6716  0.1614  1.6010
   35MOL0     H 4673  12.542  11.477   7.519 -1.1180  0.2444  2.5492
   35MOL0     H 4674  12.418  11.577   7.254 -1.5072 -1.4167 -0.1693
   35MOL0     H 4675  12.511  11.425   7.282  1.4867  1.2356 -3.4501
   35MOL0     H 4676  12.777  11.594   7.447  1.5286 -0.3940 -0.3580
   35MOL0     H 4677  12.993  11.806   7.177  1.0000 -0.7735 -0.0406
   35MOL0     H 4678  12.969  11.806   7.359 -0.2240 -0.5156  0.7400
   35MOL0     H 4679  13.089  11.589   7.171  1.5698 -2.5962  1.4959
   35MOL0     H 4680  13.047  11.558   7.340 -0.4115  0.7066 -0.3231
   35MOL0     H 4681  13.233  11.716   7.397  1.6710 -1.8448 -0.5784
   35MOL0     H 4682  13.225  11.796   7.254  0.0707 -1.4810 -2.3976
   35MOL0     H 4683  13.412  11.641   7.309  1.4046 -0.8530 -1.9836
   35MOL0     H 4684  13.361  11.608   7.156  1.9908  1.9953  0.6346
   35MOL0     H 4685  13.241  11.246   7.415  3.1345 -0.3807  0.1703
   35MOL0     H 4686  13.150  11.057   7.427  1.7123  0.4814 -1.1453
   35MOL0     H 4687  13.050  10.994   7.289  0.1025  2.0725 -3.8045
   35MOL0     H 4688  13.217  10.932   7.330  0.4803  0.5753 -0.5588
   35MOL0     H 4689  13.064  10.855   6.843 -0.2727  0.1429 -0.9732
   35MOL0     H 4690  13.029  10.664   6.707  0.2221 -2.0050  1.8041
   35MOL0     H 4691  13.068  10.453   6.659  0.1991 -1.2216 -0.9485
   35MOL0     H 4692  13.045  10.551   6.518  0.4194 -0.5871  0.7147
   35MOL0     H 4693  13.010  10.323   6.450 -0.4502 -6.2559  1.0013
   35MOL0     H 4694  13.164  10.371   6.386 -0.1981 -1.0822  0.4373
   35MOL0     H 4695  13.295  10.274   6.573 -0.9492 -0.5357  0.0188
   35MOL0     H 4696  13.196  10.150   6.502 -1.9755 -0.9414  0.6595
   35MOL0     H 4697  13.179  10.125   6.729 -1.1460 -1.7628 -1.0767
   35MOL0     H 4698  13.115  10.287   6.758  1.0640  0.9694 -0.5590
   35MOL0     H 4699  13.006  10.060   6.582  3.3235 -1.8862  2.1540
   35MOL0     H 4700  12.920  10.219   6.637 -0.9217  0.7156  0.3866
   35MOL0     H 4701  13.026  10.012   6.838  0.3112  1.3389  0.4975
   35MOL0     H 4702  12.905  10.144   6.856 -0.5145 -0.0291  0.1952
   35MOL0     H 4703  12.842   9.897   6.679  0.0156 -0.9621  1.0741
   35MOL0     H 4704  12.731  10.023   6.740 -0.4885 -0.7502  1.8660
   35MOL0     H 4705  12.711   9.923   6.945  1.3144  1.0043  1.6049
   35MOL0     H 4706  12.876   9.853   6.931  2.7734  2.8416 -2.0388
   35MOL0     H 4707  13.467  10.642   6.672  0.4422  0.1995  0.8973
   35MOL0     H 4708  13.467  10.844   6.825 -0.1955  0.3540  0.7148
   35MOL0     H 4709  13.261  11.204   6.928 -1.8792 -1.4805 -0.2009
   35MOL0     H 4710  13.284  11.440   7.032  1.5059 -0.8784 -1.3510
   35MOL0     H 4711  11.584  11.125   7.921  1.9378  1.9498 -0.0591
   35MOL0     H 4712  11.379  11.006   7.837  1.2649  2.7015  3.4819
   35MOL0     H 4713  11.196  10.914   7.382  1.2402  2.0602  2.5468
   35MOL0     H 4714  11.018  10.798   7.245 -0.4754 -1.2063 -0.2354
   35MOL0     H 4715  10.619  10.704   7.423  1.6549  0.0429  0.5029
   35MOL0     H 4716  10.586  10.864   7.352  2.6119  1.1882 -1.4948
   35MOL0     H 4717  10.619  10.631   7.165 -1.6058  0.6884 -1.7339
   35MOL0     H 4718  10.509  10.778   7.158 -3.4329 -0.0363  0.4639
   35MOL0     H 4719  10.470  10.539   7.336  0.4884  1.0714  0.8439
   35MOL0     H 4720  10.386  10.577   7.182  1.7542 -1.2156 -0.6472
   35MOL0     H 4721  10.355  10.815   7.368 -0.7032  0.4844 -1.2791
   35MOL0     H 4722  10.308  10.665   7.447 -1.3338 -0.4308  0.7617
   35MOL0     H 4723  10.049  10.736   7.114  0.7483  0.4411 -1.3278
   35MOL0     H 4724  10.726  10.887   7.539  0.3007  0.7704  0.6468
   35MOL0     H 4725  10.916  11.002   7.691 -0.9283 -1.5391  0.4205
   36MOL0     O 4726   1.098   8.534  10.968 -0.4351 -0.3083  0.3039
   36MOL0     C 4727   1.074   8.608  10.871 -0.7139  0.7061 -0.0514
   36MOL0     O 4728   0.962   8.678  10.854  1.0900 -0.1758 -0.2025
   36MOL0     C 4729   0.844   8.641  10.912  0.8608  0.1605 -0.1013
   36MOL0     C 4730   0.735   8.728  10.886 -0.0520 -0.1395 -0.6059
   36MOL0     C 4731   0.607   8.698  10.948  0.4230  0.4828 -0.3977
   36MOL0     C 4732   0.584   8.591  11.038  0.4582  0.1370  0.3883
   36MOL0     O 4733   0.464   8.588  11.107 -1.1441 -0.3797 -0.0973
   36MOL0     C 4734   0.423   8.462  11.155 -0.1131  0.1823  0.2436
   36MOL0     C 4735   0.285   8.481  11.205  0.7386  0.1537 -0.0299
   36MOL0     C 4736   0.168   8.537  11.121  0.0602  0.9729 -0.3810
   36MOL0     C 4737   0.039   8.533  11.203  0.1262 -0.4561  0.3700
   36MOL0     C 4738  -0.083   8.606  11.145 -0.9148  0.1080  0.9710
   36MOL0     C 4739  -0.133   8.547  11.020 -0.4120 -0.2362  0.4288
   36MOL0     C 4740  -0.171   8.400  11.035 -0.1895 -0.2418 -0.7330
   36MOL0     C 4741  -0.244   8.328  10.925 -0.4849 -0.9069  0.3730
   36MOL0     N 4742  -0.380   8.384  10.923 -1.0251  0.5792 -0.1446
   36MOL0     C 4743  -0.413   8.493  10.847  0.1654  0.4463  0.7850
   36MOL0     C 4744  -0.547   8.506  10.854  0.0094  0.0321  0.0179
   36MOL0     C 4745  -0.641   8.612  10.805  0.3370 -0.5194  0.5350
   36MOL0     C 4746  -0.676   8.718  10.914 -0.6920  0.1892  1.2580
   36MOL0     C 4747  -0.779   8.664  11.020  0.5417 -0.4131 -0.4174
   36MOL0     C 4748  -0.917   8.600  10.970 -0.5790 -0.6447 -0.3487
   36MOL0     O 4749  -1.001   8.584  11.089 -0.3001  0.2492 -0.1336
   36MOL0     C 4750  -1.119   8.521  11.072  0.4536 -0.7495  0.4339
   36MOL0     C 4751  -1.215   8.572  10.983  0.0715  0.3355 -1.0099
   36MOL0     C 4752  -1.346   8.520  10.973  0.2486  0.2907 -0.5521
   36MOL0     C 4753  -1.444   8.567  10.862  0.5075 -0.0871 -0.9634
   36MOL0     C 4754  -1.378   8.411  11.062 -0.6728 -0.7584 -1.1742
   36MOL0     C 4755  -1.503   8.344  11.071 -0.1937 -0.0352 -0.3464
   36MOL0     O 4756  -1.546   8.312  11.195  0.4988 -0.1515  0.5785
   36MOL0     C 4757  -1.676   8.293  11.226 -1.1791  0.9720 -0.2026
   36MOL0     C 4758  -1.688   8.255  11.357 -1.5501 -0.3301  0.1479
   36MOL0     C 4759  -1.808   8.238  11.411  0.7467 -0.5776  0.1113
   36MOL0     C 4760  -1.932   8.263  11.338  0.0556 -0.0614 -0.5558
   36MOL0     O 4761  -2.047   8.228  11.414  0.5503  0.0912  0.8912
   36MOL0     C 4762  -2.169   8.248  11.351  0.1312  0.3294 -0.1302
   36MOL0     C 4763  -2.218   8.136  11.261 -1.3592  0.5161  0.0165
   36MOL0     C 4764  -2.196   7.999  11.334  0.0279 -0.2211 -0.2231
   36MOL0     C 4765  -2.252   7.879  11.255  0.2443 -0.5435 -0.3424
   36MOL0     C 4766  -2.253   7.747  11.329  0.0717 -0.8904 -0.8746
   36MOL0     C 4767  -2.263   7.636  11.219 -0.4283  0.1868 -1.2697
   36MOL0     C 4768  -2.288   7.500  11.290  0.1024  1.0353  0.8252
   36MOL0     C 4769  -2.258   7.366  11.220 -0.4012  0.6887  0.9721
   36MOL0    Cl 4770  -2.084   7.347  11.184  0.0277  0.0975 -0.1580
   36MOL0     C 4771  -1.918   8.309  11.200  0.2596 -0.8033  0.1746
   36MOL0     C 4772  -1.789   8.316  11.146 -0.7927 -0.1313  0.2042
   36MOL0     O 4773  -1.570   8.326  10.970 -0.1378 -0.2152  0.3975
   36MOL0     C 4774  -1.283   8.375  11.162 -0.6010 -0.3378 -0.1935
   36MOL0     C 4775  -1.155   8.430  11.165 -0.1900  0.5114 -0.0262
   36MOL0     N 4776  -0.596   8.396  10.918 -1.4771  0.3575 -0.1329
   36MOL0     N 4777  -0.499   8.316  10.957 -0.0510  0.1738  0.2959
   36MOL0     C 4778   0.692   8.509  11.050  0.1224  0.6586 -0.2610
   36MOL0     C 4779   0.815   8.530  11.001  0.0197  0.9150 -0.1863
   36MOL0     C 4780   1.182   8.620  10.777  0.4124  0.5754  0.1634
   36MOL0     C 4781   1.214   8.748  10.723 -0.3497  0.2788  0.4475
   36MOL0     C 4782   1.331   8.757  10.642 -0.3324 -0.2916 -0.8320
   36MOL0     C 4783   1.421   8.645  10.624  0.1399 -1.3868 -0.3588
   36MOL0     O 4784   1.528   8.660  10.538 -0.0880  0.2268  0.0280
   36MOL0     C 4785   1.644   8.708  10.604 -0.1151 -0.6591 -0.1720
   36MOL0     C 4786   1.718   8.599  10.688  0.4545 -0.4424 -0.3983
   36MOL0     C 4787   1.855   8.655  10.730  0.0117  0.1341 -0.0445
   36MOL0     C 4788   1.938   8.560  10.817 -0.7009  0.1365 -0.0876
   36MOL0     C 4789   2.061   8.635  10.860  0.3316 -0.1593  0.9237
   36MOL0     C 4790   2.156   8.697  10.901 -0.7390  0.0085  0.6574
   36MOL0     C 4791   1.382   8.519  10.674 -0.2106  0.0127 -0.2283
   36MOL0     C 4792   1.262   8.502  10.742 -0.4063  0.1257  0.4828
   36MOL0     H 4793   0.754   8.820  10.832 -1.3505  0.6766  0.2846
   36MOL0     H 4794   0.526   8.763  10.917 -0.6068 -0.4577  0.2758
   36MOL0     H 4795   0.430   8.391  11.072 -1.2861 -1.7635  1.7146
   36MOL0     H 4796   0.489   8.432  11.237 -1.7208 -2.3076  0.7625
   36MOL0     H 4797   0.249   8.379  11.221  3.1872 -1.2282 -2.4581
   36MOL0     H 4798   0.286   8.535  11.301  3.4537 -1.0803  0.7192
   36MOL0     H 4799   0.182   8.638  11.081  2.4398  1.4984  1.5439
   36MOL0     H 4800   0.153   8.468  11.037 -0.0899 -0.4945  0.8097
   36MOL0     H 4801   0.016   8.429  11.231 -1.2978 -1.0041 -2.4202
   36MOL0     H 4802   0.068   8.589  11.292 -0.7480 -0.4600  0.6668
   36MOL0     H 4803  -0.161   8.613  11.222  0.3448 -0.9775  2.3965
   36MOL0     H 4804  -0.057   8.711  11.127  0.2416 -0.4749 -1.2012
   36MOL0     H 4805  -0.217   8.603  10.978  0.5939  0.3607 -0.8556
   36MOL0     H 4806  -0.057   8.557  10.942  1.5692  0.8516  2.3990
   36MOL0     H 4807  -0.076   8.348  11.049 -0.6451 -1.3177 -1.5199
   36MOL0     H 4808  -0.228   8.389  11.127  0.7062  2.6796  0.2913
   36MOL0     H 4809  -0.248   8.219  10.924 -0.0055 -0.9245 -0.5561
   36MOL0     H 4810  -0.195   8.358  10.832  2.3393 -2.2966  1.3188
   36MOL0     H 4811  -0.356   8.568  10.792  0.7179 -0.0701  0.6412
   36MOL0     H 4812  -0.595   8.668  10.723  2.1253 -3.3100 -0.4916
   36MOL0     H 4813  -0.735   8.568  10.772  0.9017 -0.1759 -1.6734
   36MOL0     H 4814  -0.708   8.813  10.871  2.0320  0.5675 -0.1778
   36MOL0     H 4815  -0.577   8.724  10.961  0.2419 -0.1163 -0.5726
   36MOL0     H 4816  -0.786   8.750  11.086 -2.0663 -0.0630 -1.0774
   36MOL0     H 4817  -0.725   8.589  11.078  0.4306  1.9078  2.9649
   36MOL0     H 4818  -0.905   8.500  10.927 -3.1815 -1.1580 -0.0441
   36MOL0     H 4819  -0.971   8.656  10.893  0.5898  1.6604  0.4350
   36MOL0     H 4820  -1.181   8.663  10.934  1.2925  0.7285  0.4703
   36MOL0     H 4821  -1.540   8.576  10.914  0.1387 -1.9280 -1.2615
   36MOL0     H 4822  -1.417   8.662  10.814  0.5930  0.3693 -0.0557
   36MOL0     H 4823  -1.462   8.492  10.785  0.0895  1.3287 -2.2969
   36MOL0     H 4824  -1.599   8.240  11.418 -0.4761  0.2566 -1.2176
   36MOL0     H 4825  -1.796   8.201  11.512  1.9602  1.2896  0.7086
   36MOL0     H 4826  -2.242   8.249  11.432  2.0953 -1.5773  1.7740
   36MOL0     H 4827  -2.178   8.343  11.296  4.1908 -0.0299 -1.7587
   36MOL0     H 4828  -2.327   8.140  11.253 -1.2648  0.1836 -2.5547
   36MOL0     H 4829  -2.161   8.138  11.167 -0.0084 -2.7127  0.6367
   36MOL0     H 4830  -2.238   8.004  11.434  0.3416 -2.3476  0.0687
   36MOL0     H 4831  -2.093   7.970  11.357 -0.2081 -0.0384  1.1151
   36MOL0     H 4832  -2.354   7.896  11.219 -0.5136  0.3553  2.0422
   36MOL0     H 4833  -2.189   7.861  11.167  2.2618  0.6350  0.8108
   36MOL0     H 4834  -2.344   7.740  11.389  0.0788 -0.1690 -0.7768
   36MOL0     H 4835  -2.163   7.727  11.387 -0.9208 -1.7074  0.4448
   36MOL0     H 4836  -2.349   7.648  11.153 -0.4233  0.0863 -1.2943
   36MOL0     H 4837  -2.172   7.631  11.159 -0.4620 -2.7178 -1.2101
   36MOL0     H 4838  -2.393   7.493  11.319 -1.2438  2.6901 -3.0288
   36MOL0     H 4839  -2.234   7.498  11.385 -1.1353 -2.8869  1.6488
   36MOL0     H 4840  -2.321   7.366  11.130 -2.7633  0.2405  2.5190
   36MOL0     H 4841  -2.282   7.285  11.289 -1.5354 -0.0950 -0.2982
   36MOL0     H 4842  -2.003   8.343  11.141  2.4644  1.8132 -1.7618
   36MOL0     H 4843  -1.780   8.358  11.046  2.5001 -0.7411  0.1383
   36MOL0     H 4844  -1.311   8.299  11.235 -3.7826  0.4101 -0.4808
   36MOL0     H 4845  -1.076   8.390  11.228  1.4873  5.5314  1.5340
   36MOL0     H 4846   0.669   8.415  11.100  2.2856 -0.0176 -0.4341
   36MOL0     H 4847   0.891   8.453  11.013  0.6822  1.4467 -0.7865
   36MOL0     H 4848   1.164   8.843  10.738 -0.0521  0.2540  1.7548
   36MOL0     H 4849   1.372   8.851  10.606 -1.0448  0.4055  0.1376
   36MOL0     H 4850   1.717   8.758  10.540 -2.7545  1.1481 -1.9937
   36MOL0     H 4851   1.613   8.792  10.668  1.4993  2.1249 -2.8288
   36MOL0     H 4852   1.726   8.505  10.633  0.5073 -1.6118  1.5327
   36MOL0     H 4853   1.656   8.588  10.777  1.9117  0.1907  0.7212
   36MOL0     H 4854   1.840   8.750  10.782 -1.9183  0.9722 -1.9756
   36MOL0     H 4855   1.914   8.670  10.639 -1.3378 -1.5774 -1.2746
   36MOL0     H 4856   1.971   8.485  10.745 -1.6871  0.0412 -0.4551
   36MOL0     H 4857   1.884   8.510  10.898 -2.8459 -0.2384 -1.6604
   36MOL0     H 4858   2.249   8.750  10.914 -0.9348  0.6211 -0.3677
   36MOL0     H 4859   1.444   8.430  10.680  1.5367  1.2453  0.6729
   36MOL0     H 4860   1.227   8.413  10.792  0.1396  0.2716  1.1257
   37MOL0     O 4861   1.740   9.060   8.761 -0.2929 -0.7805  0.0040
   37MOL0     C 4862   1.783   9.072   8.879  1.0040 -0.3365  0.5151
   37MOL0     O 4863   1.695   9.070   8.989  0.1002 -0.2611 -0.6216
   37MOL0     C 4864   1.565   9.106   8.981 -0.2262 -0.0393  0.7957
   37MOL0     C 4865   1.523   9.223   8.908 -0.0018  0.1025 -0.6691
   37MOL0     C 4866   1.389   9.250   8.889  0.2166  0.4221 -0.9977
   37MOL0     C 4867   1.289   9.168   8.944  0.5932 -0.3023  0.8785
   37MOL0     O 4868   1.160   9.190   8.905 -0.0050  0.9705 -0.2749
   37MOL0     C 4869   1.093   9.099   8.817  0.4035 -0.3190  0.0929
   37MOL0     C 4870   1.016   9.001   8.906  0.1596  0.7697  0.5858
   37MOL0     C 4871   0.959   9.065   9.029  0.6734 -0.3355 -0.8554
   37MOL0     C 4872   0.868   8.967   9.109  0.0831  0.6213 -0.1501
   37MOL0     C 4873   0.833   9.014   9.247  0.0902 -0.9446 -1.2796
   37MOL0     C 4874   0.790   8.902   9.344  0.2021  0.2742 -0.7363
   37MOL0     C 4875   0.663   8.832   9.300  0.8760 -0.3121 -0.3569
   37MOL0     C 4876   0.618   8.725   9.413 -0.7180  0.2430 -0.6269
   37MOL0     N 4877   0.486   8.662   9.382 -0.5106 -0.8257 -0.3148
   37MOL0     C 4878   0.356   8.714   9.388  0.7534  0.3508  0.5063
   37MOL0     C 4879   0.274   8.625   9.315  0.7688  0.2230 -0.3329
   37MOL0     C 4880   0.124   8.632   9.309  0.1302  0.0614 -0.4520
   37MOL0     C 4881   0.063   8.695   9.190 -0.3045  0.0226 -0.2123
   37MOL0     C 4882   0.053   8.847   9.204 -0.3866  0.2844  0.6059
   37MOL0     C 4883  -0.060   8.880   9.311 -0.9070  0.5109 -0.6334
   37MOL0     O 4884  -0.120   9.010   9.264 -0.3418  0.6582  0.0964
   37MOL0     C 4885  -0.232   9.061   9.323  0.1164 -0.5675  1.0020
   37MOL0     C 4886  -0.290   9.171   9.260 -0.1159  0.1555 -0.4476
   37MOL0     C 4887  -0.423   9.219   9.295  0.0532 -0.1877 -0.4429
   37MOL0     C 4888  -0.471   9.330   9.212  0.1424 -0.2564  0.1506
   37MOL0     C 4889  -0.492   9.158   9.410  0.6188  0.4882  0.1524
   37MOL0     C 4890  -0.626   9.200   9.467 -0.2796 -0.4320 -0.0253
   37MOL0     O 4891  -0.658   9.335   9.454 -0.4294  0.1727 -0.0235
   37MOL0     C 4892  -0.794   9.360   9.477 -0.2213 -0.7649  0.0393
   37MOL0     C 4893  -0.842   9.376   9.603 -0.1123 -0.4122  0.0355
   37MOL0     C 4894  -0.981   9.414   9.623  0.1564  0.1940  0.0152
   37MOL0     C 4895  -1.060   9.436   9.507 -0.6280  0.1551 -0.7678
   37MOL0     O 4896  -1.189   9.483   9.510  0.6722  0.1957 -0.2312
   37MOL0     C 4897  -1.260   9.479   9.635  0.0701 -0.4131  0.0752
   37MOL0     C 4898  -1.394   9.545   9.629  0.4366  0.0476 -0.1728
   37MOL0     C 4899  -1.469   9.562   9.766  0.1879 -0.2555  0.0927
   37MOL0     C 4900  -1.621   9.590   9.759 -0.0920  0.4254  0.3443
   37MOL0     C 4901  -1.676   9.636   9.894  0.4704 -0.5789 -0.2361
   37MOL0     C 4902  -1.828   9.624   9.896  0.4107 -0.0643  0.0278
   37MOL0     C 4903  -1.881   9.738   9.986 -0.1223  0.1312  0.5202
   37MOL0     C 4904  -2.040   9.743   9.980  0.0013 -0.3190  0.2399
   37MOL0    Cl 4905  -2.102   9.909  10.019  0.0334  0.4484 -0.1315
   37MOL0     C 4906  -1.006   9.437   9.381  0.0329 -0.5820  0.2767
   37MOL0     C 4907  -0.874   9.397   9.368  0.3711 -1.0443 -0.3177
   37MOL0     O 4908  -0.697   9.113   9.522 -0.3864  0.6292  0.2417
   37MOL0     C 4909  -0.433   9.054   9.470 -1.0075  1.3518 -1.1424
   37MOL0     C 4910  -0.307   9.009   9.430 -0.2895 -0.1759  0.0408
   37MOL0     N 4911   0.359   8.523   9.271  0.4747  0.0019 -0.9229
   37MOL0     N 4912   0.476   8.545   9.312 -0.0925  0.4019  0.0747
   37MOL0     C 4913   1.324   9.055   9.030 -0.7140  0.1923 -1.6578
   37MOL0     C 4914   1.461   9.021   9.036  1.0123 -0.4312 -0.3005
   37MOL0     C 4915   1.928   9.058   8.910  0.3319 -0.2257 -0.5698
   37MOL0     C 4916   2.029   9.050   8.812 -0.5540  0.0684  0.9188
   37MOL0     C 4917   2.166   9.056   8.842 -0.6420  0.8758  0.2007
   37MOL0     C 4918   2.207   9.083   8.974  0.9026  0.1162 -0.6631
   37MOL0     O 4919   2.342   9.107   9.020 -0.3456  0.3623  0.4316
   37MOL0     C 4920   2.448   9.098   8.925 -0.5766 -0.7280  0.3895
   37MOL0     C 4921   2.587   9.086   8.981  0.8425  0.0345 -0.2796
   37MOL0     C 4922   2.598   8.967   9.066  0.1295 -0.6248 -0.6262
   37MOL0     C 4923   2.596   8.832   8.992  0.1655  0.2012  0.5916
   37MOL0     C 4924   2.701   8.808   8.886 -0.5960  0.0802 -0.1676
   37MOL0     C 4925   2.776   8.777   8.793 -0.3660 -0.5792 -0.0115
   37MOL0     C 4926   2.110   9.091   9.069 -0.0992 -0.3856  0.5852
   37MOL0     C 4927   1.971   9.078   9.039 -0.7576 -1.2660  0.7963
   37MOL0     H 4928   1.592   9.286   8.853  2.1924 -2.4742 -1.0810
   37MOL0     H 4929   1.353   9.336   8.833 -0.4624 -1.1715 -3.1904
   37MOL0     H 4930   1.015   9.150   8.760 -0.1293 -1.9500 -0.7075
   37MOL0     H 4931   1.166   9.049   8.752  1.3757  1.7723 -0.5245
   37MOL0     H 4932   0.932   8.954   8.855  0.2525  3.8064 -2.6897
   37MOL0     H 4933   1.085   8.926   8.946 -0.8447  0.6365  2.1849
   37MOL0     H 4934   1.030   9.109   9.099 -2.0703  0.4095  1.7097
   37MOL0     H 4935   0.896   9.147   8.994 -2.5611 -1.1558  2.4060
   37MOL0     H 4936   0.774   8.951   9.055 -0.0709  2.3729 -0.4428
   37MOL0     H 4937   0.929   8.877   9.117  0.8444  1.1899  0.6821
   37MOL0     H 4938   0.925   9.061   9.283 -0.6688 -1.0310  0.9654
   37MOL0     H 4939   0.752   9.088   9.246  2.6613  2.7817  5.1871
   37MOL0     H 4940   0.870   8.829   9.357  0.2639  0.1872 -1.5323
   37MOL0     H 4941   0.764   8.944   9.442  2.2327  2.0795 -0.8956
   37MOL0     H 4942   0.575   8.897   9.292 -0.4429 -2.0074 -0.3998
   37MOL0     H 4943   0.674   8.785   9.202 -1.8998  0.7535 -1.2899
   37MOL0     H 4944   0.608   8.764   9.514  1.5706 -3.0544  1.0252
   37MOL0     H 4945   0.697   8.651   9.425 -0.7445  0.5342  1.7021
   37MOL0     H 4946   0.317   8.804   9.433 -1.7956 -0.0327 -0.7747
   37MOL0     H 4947   0.077   8.536   9.331 -0.7243  0.7544  0.8452
   37MOL0     H 4948   0.101   8.697   9.394  0.5582  0.4452 -0.6282
   37MOL0     H 4949  -0.035   8.649   9.172 -0.5003 -0.5484  2.0816
   37MOL0     H 4950   0.124   8.677   9.101  0.5269  1.8046 -0.0610
   37MOL0     H 4951   0.035   8.908   9.115 -0.6877  0.6888  0.9388
   37MOL0     H 4952   0.151   8.886   9.232  0.5070 -1.8233  0.5549
   37MOL0     H 4953  -0.014   8.885   9.409  0.2396  0.0510 -1.1361
   37MOL0     H 4954  -0.132   8.798   9.314  0.9511 -1.3458 -2.9702
   37MOL0     H 4955  -0.254   9.210   9.165  0.2847 -0.0216 -0.3677
   37MOL0     H 4956  -0.420   9.331   9.115 -1.5563  2.9911 -0.8528
   37MOL0     H 4957  -0.576   9.328   9.185 -0.0290 -0.5640  0.8172
   37MOL0     H 4958  -0.454   9.419   9.273 -0.0884  0.9286 -1.4466
   37MOL0     H 4959  -0.792   9.348   9.695 -0.3246 -1.5971 -0.1906
   37MOL0     H 4960  -1.033   9.392   9.716  0.1786  2.8616  0.7361
   37MOL0     H 4961  -1.273   9.378   9.675  0.8605 -0.7150 -0.4118
   37MOL0     H 4962  -1.206   9.538   9.709 -2.0698  1.3433  0.3450
   37MOL0     H 4963  -1.384   9.645   9.585  0.6595 -0.6099 -1.6961
   37MOL0     H 4964  -1.462   9.502   9.554  0.8613  1.5143 -1.4379
   37MOL0     H 4965  -1.403   9.633   9.816  0.5531 -0.3781 -0.2169
   37MOL0     H 4966  -1.455   9.473   9.827  1.5012 -0.0089  0.1884
   37MOL0     H 4967  -1.640   9.679   9.698 -4.5806  1.5524  2.9553
   37MOL0     H 4968  -1.669   9.503   9.714 -0.7867  0.6281  0.6832
   37MOL0     H 4969  -1.637   9.737   9.909 -1.0227 -0.3225  2.7361
   37MOL0     H 4970  -1.648   9.571   9.978  1.4175  0.7315  0.4986
   37MOL0     H 4971  -1.870   9.644   9.797 -2.2427 -4.6533 -0.0268
   37MOL0     H 4972  -1.861   9.526   9.931  1.7493  0.1568  2.0890
   37MOL0     H 4973  -1.843   9.838   9.963 -0.3361  0.2579  0.7102
   37MOL0     H 4974  -1.839   9.704  10.081 -0.6539 -0.8275  0.4269
   37MOL0     H 4975  -2.078   9.671  10.052  2.2641  0.9950  2.9418
   37MOL0     H 4976  -2.074   9.734   9.876 -3.0783  2.8182  0.7920
   37MOL0     H 4977  -1.062   9.462   9.291  0.6906 -0.3688 -0.0785
   37MOL0     H 4978  -0.832   9.401   9.268 -2.7402 -0.7991 -1.7108
   37MOL0     H 4979  -0.484   8.998   9.548 -0.9555  0.9287 -1.4050
   37MOL0     H 4980  -0.260   8.923   9.478  0.6793 -1.2970 -2.7084
   37MOL0     H 4981   1.250   8.992   9.081  0.4057 -1.1590 -1.6385
   37MOL0     H 4982   1.490   8.936   9.097 -2.4313 -0.1687  1.9897
   37MOL0     H 4983   2.004   9.016   8.712 -1.0172 -3.9353  2.2127
   37MOL0     H 4984   2.235   9.021   8.766 -0.6575 -4.3434  2.2024
   37MOL0     H 4985   2.423   9.022   8.851 -0.3878  3.0249 -4.0105
   37MOL0     H 4986   2.433   9.190   8.867  0.1175  1.6165  3.5928
   37MOL0     H 4987   2.618   9.170   9.045  1.2632  0.3856 -0.9236
   37MOL0     H 4988   2.657   9.083   8.896  0.0132  3.4289 -1.2596
   37MOL0     H 4989   2.517   8.965   9.139  0.5889  0.3966 -0.0570
   37MOL0     H 4990   2.685   8.966   9.132 -0.0167  1.2760 -0.3507
   37MOL0     H 4991   2.500   8.818   8.941 -0.6672 -3.6978  2.8264
   37MOL0     H 4992   2.606   8.748   9.062  2.1462 -0.4815 -0.4385
   37MOL0     H 4993   2.845   8.755   8.713 -1.0681 -0.1939 -0.7407
   37MOL0     H 4994   2.134   9.108   9.174 -0.4874 -1.4826  0.8637
   37MOL0     H 4995   1.896   9.076   9.118  0.1917 -2.1352  1.7183
   38MOL0     O 4996   3.009   7.707   9.651  0.0951 -0.4307  0.2341
   38MOL0     C 4997   3.011   7.667   9.534 -0.3220 -0.3894 -0.5940
   38MOL0     O 4998   2.898   7.643   9.455  0.2490  0.6821  0.2853
   38MOL0     C 4999   2.773   7.614   9.504 -0.2329  0.2078 -0.1259
   38MOL0     C 5000   2.725   7.629   9.633 -0.1886  0.0989  0.7038
   38MOL0     C 5001   2.583   7.599   9.665 -0.0103  0.0685  0.0471
   38MOL0     C 5002   2.497   7.555   9.563 -0.5355  0.0712 -0.0072
   38MOL0     O 5003   2.361   7.540   9.575 -1.0083  0.0283 -0.1490
   38MOL0     C 5004   2.312   7.498   9.696  0.5134  0.5939 -1.3094
   38MOL0     C 5005   2.165   7.462   9.663 -0.1525  0.3666 -0.0347
   38MOL0     C 5006   2.083   7.416   9.783 -0.7778  0.0756 -0.6084
   38MOL0     C 5007   1.937   7.449   9.767  0.7813  0.2057  0.6048
   38MOL0     C 5008   1.857   7.397   9.893 -0.2691 -1.0605  0.4130
   38MOL0     C 5009   1.713   7.431   9.863 -0.2728  0.3449 -0.2131
   38MOL0     C 5010   1.632   7.386   9.987 -0.5032 -1.4221 -0.2965
   38MOL0     C 5011   1.489   7.450   9.977  0.7208  0.0823  0.4066
   38MOL0     N 5012   1.488   7.593  10.012  0.4107  0.4259  0.1618
   38MOL0     C 5013   1.466   7.633  10.145 -0.4663 -0.4793 -0.2014
   38MOL0     C 5014   1.433   7.766  10.135  0.1177  0.1435  0.6816
   38MOL0     C 5015   1.392   7.853  10.262 -0.1502  0.9751  0.4128
   38MOL0     C 5016   1.505   7.852  10.376 -0.3925 -0.9507 -0.7924
   38MOL0     C 5017   1.537   8.002  10.408  0.2044 -0.3605  0.8685
   38MOL0     C 5018   1.431   8.073  10.484  0.3089  0.6339  0.1875
   38MOL0     O 5019   1.444   8.043  10.625  0.4453 -0.0520 -0.5127
   38MOL0     C 5020   1.335   8.067  10.703 -0.4314  0.2243 -0.2108
   38MOL0     C 5021   1.218   8.133  10.662 -0.9898  0.2148  0.0663
   38MOL0     C 5022   1.113   8.160  10.754 -0.6358 -0.4330 -0.5483
   38MOL0     C 5023   0.994   8.232  10.689  1.1327  1.1126  0.2849
   38MOL0     C 5024   1.114   8.097  10.883  0.1748  0.1034  0.0750
   38MOL0     C 5025   0.993   8.101  10.972  0.8918  0.3013  0.2240
   38MOL0     O 5026   0.988   8.008  11.073  0.5465 -0.1887  0.4125
   38MOL0     C 5027   0.876   7.994  11.155 -0.7714  0.9405  0.5390
   38MOL0     C 5028   0.745   7.984  11.093  0.3914 -0.9001 -0.4442
   38MOL0     C 5029   0.635   7.974  11.185  0.3892  0.7595  0.5195
   38MOL0     C 5030   0.641   7.959  11.321 -1.1367 -0.3232  0.0097
   38MOL0     O 5031   0.541   7.910  11.401 -0.1035  0.2121 -0.1172
   38MOL0     C 5032   0.422   7.987  11.392 -0.1056 -0.3732 -0.6160
   38MOL0     C 5033   0.307   7.885  11.388  0.4833 -0.5802  0.1597
   38MOL0     C 5034   0.323   7.813  11.259 -0.9586  0.5758  0.1978
   38MOL0     C 5035   0.247   7.681  11.263  0.1348  0.1002  0.2684
   38MOL0     C 5036   0.096   7.702  11.310 -0.2389  0.1295 -0.2910
   38MOL0     C 5037   0.012   7.578  11.287 -0.2331 -0.3800 -0.0997
   38MOL0     C 5038   0.028   7.471  11.392  0.0746 -0.8425 -0.0108
   38MOL0     C 5039  -0.029   7.340  11.333  1.8636 -0.2217  0.2850
   38MOL0    Cl 5040  -0.200   7.338  11.255 -0.4748  0.0064  0.3880
   38MOL0     C 5041   0.770   7.961  11.380 -0.6000  0.3206 -0.4388
   38MOL0     C 5042   0.884   7.976  11.298 -0.5355 -0.0921  0.1728
   38MOL0     O 5043   0.911   8.188  10.954 -0.0056  0.3528 -0.6037
   38MOL0     C 5044   1.230   8.022  10.926  0.2492 -1.0570 -0.3848
   38MOL0     C 5045   1.340   8.012  10.840 -0.3097  0.3980 -0.7316
   38MOL0     N 5046   1.433   7.806   9.999  0.1319 -0.1237  0.4296
   38MOL0     N 5047   1.461   7.699   9.932  0.5051 -0.0554 -0.3794
   38MOL0     C 5048   2.554   7.528   9.439 -0.7623 -0.3196 -0.2845
   38MOL0     C 5049   2.691   7.559   9.409  0.9540  0.4285 -0.0424
   38MOL0     C 5050   3.148   7.677   9.458 -0.8682  0.0286 -0.5051
   38MOL0     C 5051   3.164   7.636   9.324  1.0645 -0.0601  0.0808
   38MOL0     C 5052   3.292   7.635   9.266  0.5493  0.5144  0.3066
   38MOL0     C 5053   3.403   7.686   9.332 -0.7431  0.0578 -0.7122
   38MOL0     O 5054   3.539   7.678   9.298 -0.3256 -1.0307  0.4217
   38MOL0     C 5055   3.573   7.601   9.177  0.8730 -1.2380  0.8218
   38MOL0     C 5056   3.698   7.524   9.203 -0.4406  0.3298 -0.0633
   38MOL0     C 5057   3.689   7.411   9.304  0.0874  0.5051  0.4010
   38MOL0     C 5058   3.725   7.454   9.444 -0.0149 -0.0103  0.3101
   38MOL0     C 5059   3.729   7.336   9.539  0.2695 -0.2892  0.3350
   38MOL0     C 5060   3.730   7.250   9.617 -0.4099 -0.5453 -0.2332
   38MOL0     C 5061   3.379   7.751   9.455  0.4958  0.8338  0.0060
   38MOL0     C 5062   3.257   7.747   9.525  0.8474  0.6067  0.2623
   38MOL0     H 5063   2.791   7.673   9.708  3.5407 -3.3787 -0.1912
   38MOL0     H 5064   2.552   7.616   9.768  0.9459 -1.3809  0.6045
   38MOL0     H 5065   2.366   7.409   9.729 -1.3631  0.5107  1.9584
   38MOL0     H 5066   2.308   7.581   9.768 -0.8465  1.2867 -2.1445
   38MOL0     H 5067   2.124   7.558   9.628 -3.9706 -0.1909  2.2852
   38MOL0     H 5068   2.152   7.392   9.581 -3.0366  0.2774  0.3765
   38MOL0     H 5069   2.100   7.312   9.810  3.0375  0.6454 -0.2347
   38MOL0     H 5070   2.114   7.471   9.872 -3.9035  0.1783  0.5239
   38MOL0     H 5071   1.925   7.557   9.754 -2.3263 -0.2650 -1.5424
   38MOL0     H 5072   1.907   7.404   9.671  0.9782  0.3774  0.4634
   38MOL0     H 5073   1.865   7.290   9.911 -0.2447 -1.0156  0.6635
   38MOL0     H 5074   1.888   7.446   9.985 -2.4190  0.3792  0.4673
   38MOL0     H 5075   1.696   7.539   9.860 -0.2574  0.3703  0.3501
   38MOL0     H 5076   1.676   7.390   9.769 -1.8442 -2.7369  1.5804
   38MOL0     H 5077   1.644   7.277   9.989  2.5463 -1.2012 -0.8770
   38MOL0     H 5078   1.666   7.419  10.086  0.8473 -1.3939 -0.7419
   38MOL0     H 5079   1.417   7.390  10.035 -1.5809  1.5455 -0.7689
   38MOL0     H 5080   1.445   7.437   9.877 -1.6892  0.6480  1.3286
   38MOL0     H 5081   1.461   7.576  10.237  1.0321 -0.0143  0.1929
   38MOL0     H 5082   1.378   7.954  10.225  2.1341  1.5608  1.0011
   38MOL0     H 5083   1.299   7.810  10.301 -0.7672  1.1164 -0.8666
   38MOL0     H 5084   1.591   7.799  10.333 -0.4827  0.2622 -2.5918
   38MOL0     H 5085   1.468   7.809  10.469  1.2825  1.5801  1.1955
   38MOL0     H 5086   1.558   8.047  10.311  0.1812 -0.1051  0.9817
   38MOL0     H 5087   1.632   8.011  10.461  0.1022  1.8933  0.7657
   38MOL0     H 5088   1.340   8.028  10.444  0.7918  0.4330 -0.7125
   38MOL0     H 5089   1.443   8.181  10.466  0.7454  0.2992 -1.7733
   38MOL0     H 5090   1.212   8.176  10.562  1.2634 -2.5712 -1.4048
   38MOL0     H 5091   0.956   8.320  10.742 -3.2897 -0.7477  0.6045
   38MOL0     H 5092   1.004   8.255  10.583  3.1180  0.8197  0.3659
   38MOL0     H 5093   0.903   8.171  10.690  1.2503  0.9329 -0.0086
   38MOL0     H 5094   0.728   7.984  10.986 -0.1275 -0.5616 -0.3612
   38MOL0     H 5095   0.535   7.987  11.144  0.7007  1.8703  0.0716
   38MOL0     H 5096   0.422   8.050  11.481 -2.6930 -1.3409  0.1739
   38MOL0     H 5097   0.414   8.049  11.303 -1.5587 -0.2887 -0.4627
   38MOL0     H 5098   0.312   7.819  11.475 -2.8124 -1.8193 -0.4637
   38MOL0     H 5099   0.222   7.953  11.397  0.5022 -0.5067 -0.1827
   38MOL0     H 5100   0.430   7.803  11.236 -0.5624 -3.5554  2.7601
   38MOL0     H 5101   0.277   7.874  11.180 -1.6406  1.2806  1.1215
   38MOL0     H 5102   0.252   7.646  11.159  0.9183  0.9406  0.0195
   38MOL0     H 5103   0.294   7.600  11.319 -0.1000 -1.6961 -1.9818
   38MOL0     H 5104   0.062   7.787  11.250  1.2978  1.9785  1.3112
   38MOL0     H 5105   0.094   7.726  11.417  0.0032 -1.2013  0.0317
   38MOL0     H 5106  -0.094   7.606  11.284  0.1263  1.2823  1.0242
   38MOL0     H 5107   0.026   7.542  11.185 -1.9609  0.0051 -0.5100
   38MOL0     H 5108  -0.012   7.503  11.488 -0.8157 -1.5978 -0.1017
   38MOL0     H 5109   0.132   7.438  11.399  0.4833 -0.4395 -2.9554
   38MOL0     H 5110  -0.029   7.250  11.396  2.7445  0.1900  0.9029
   38MOL0     H 5111   0.028   7.317  11.243 -0.1498 -0.5341 -0.9902
   38MOL0     H 5112   0.782   7.949  11.487  0.4370 -4.0048 -0.8574
   38MOL0     H 5113   0.982   7.972  11.346  0.5486  1.0053 -1.8246
   38MOL0     H 5114   1.234   7.986  11.028  0.9935  2.2146  0.8672
   38MOL0     H 5115   1.435   7.967  10.866 -0.4841  0.8370  0.7759
   38MOL0     H 5116   2.488   7.484   9.365 -3.1068 -1.3630  2.2702
   38MOL0     H 5117   2.735   7.531   9.313  1.1343 -1.2289  0.4892
   38MOL0     H 5118   3.080   7.599   9.265 -1.1524  0.6917  2.5356
   38MOL0     H 5119   3.310   7.603   9.164 -0.7617  0.0706  0.1948
   38MOL0     H 5120   3.503   7.519   9.160  1.6856 -2.3053  2.4122
   38MOL0     H 5121   3.568   7.651   9.080  0.7007 -3.6859 -0.5068
   38MOL0     H 5122   3.775   7.595   9.237 -1.6866  0.9339  1.5934
   38MOL0     H 5123   3.736   7.465   9.118  1.6896 -0.0352  1.0632
   38MOL0     H 5124   3.752   7.329   9.268  0.3211  0.4590  0.9142
   38MOL0     H 5125   3.586   7.376   9.295 -0.2840  1.1080  1.9652
   38MOL0     H 5126   3.652   7.524   9.486 -0.7057  0.3940 -1.4929
   38MOL0     H 5127   3.823   7.502   9.442  0.8156 -1.5386  1.8546
   38MOL0     H 5128   3.733   7.164   9.680 -1.1673 -2.3137 -2.4554
   38MOL0     H 5129   3.462   7.794   9.512 -0.3087  1.5533  0.6533
   38MOL0     H 5130   3.241   7.790   9.623 -1.7958 -2.8028  1.5257
   39MOL0     O 5131   6.541   8.050   0.887 -0.0272  0.1161  0.4135
   39MOL0     C 5132   6.648   8.110   0.877 -0.6499 -0.6293  0.3505
   39MOL0     O 5133   6.669   8.247   0.849  0.4339 -0.6934  0.2896
   39MOL0     C 5134   6.567   8.336   0.819 -0.7587  0.2574  0.6115
   39MOL0     C 5135   6.447   8.349   0.885  0.1658  0.7518  0.9721
   39MOL0     C 5136   6.356   8.465   0.861  0.3305 -0.2229 -0.8862
   39MOL0     C 5137   6.378   8.549   0.755 -0.4483 -0.1788  0.3031
   39MOL0     O 5138   6.289   8.646   0.706  0.4370  0.5825  0.3536
   39MOL0     C 5139   6.167   8.661   0.784 -0.1361  0.2048  0.2513
   39MOL0     C 5140   6.083   8.779   0.722  0.1366  0.8543  0.3411
   39MOL0     C 5141   5.934   8.774   0.761  0.4580  1.2757 -0.3487
   39MOL0     C 5142   5.835   8.817   0.638 -0.3514 -0.7478  0.4943
   39MOL0     C 5143   5.732   8.919   0.704 -0.3519 -0.6527 -0.0916
   39MOL0     C 5144   5.610   8.955   0.622  0.8478 -1.1491 -0.5129
   39MOL0     C 5145   5.531   8.827   0.579 -0.3095 -0.1005  0.5623
   39MOL0     C 5146   5.392   8.847   0.508 -0.4933 -0.8258 -0.0146
   39MOL0     N 5147   5.292   8.935   0.575 -0.4138  0.3560 -0.5777
   39MOL0     C 5148   5.213   8.920   0.685 -0.3367 -0.0420 -0.2523
   39MOL0     C 5149   5.136   9.032   0.696 -0.5593 -1.3732  0.4141
   39MOL0     C 5150   5.036   9.052   0.804 -0.0530 -0.2334  0.3909
   39MOL0     C 5151   4.952   9.182   0.774 -0.2784 -0.0340  0.3359
   39MOL0     C 5152   4.817   9.168   0.839  0.1724  1.1012 -0.6125
   39MOL0     C 5153   4.832   9.195   0.985  0.0078 -0.1136  0.2997
   39MOL0     O 5154   4.902   9.323   1.014 -0.8954  1.4102 -0.3216
   39MOL0     C 5155   4.837   9.440   1.028 -0.4743  0.4149 -0.1993
   39MOL0     C 5156   4.694   9.459   1.015 -0.6919 -1.0037 -0.3787
   39MOL0     C 5157   4.638   9.587   1.037 -0.0913 -0.0659  0.5602
   39MOL0     C 5158   4.485   9.600   1.027 -0.3638  0.4010 -0.7202
   39MOL0     C 5159   4.724   9.701   1.061 -0.0676  0.0312 -0.0274
   39MOL0     C 5160   4.685   9.849   1.077 -1.5039  0.9721  0.0977
   39MOL0     O 5161   4.781   9.937   1.105  0.1478  0.0285  0.4969
   39MOL0     C 5162   4.759  10.068   1.131  0.8775 -0.5410  0.7825
   39MOL0     C 5163   4.845  10.162   1.075 -0.9964 -0.1707  0.5301
   39MOL0     C 5164   4.833  10.301   1.091  0.5296 -0.6254 -0.5307
   39MOL0     C 5165   4.729  10.347   1.173 -0.6360 -0.0343  0.2209
   39MOL0     O 5166   4.724  10.485   1.201 -0.1059  0.3444  0.0612
   39MOL0     C 5167   4.616  10.539   1.274  0.1669 -0.0805  0.4166
   39MOL0     C 5168   4.624  10.692   1.294  0.2867  0.0106 -0.7121
   39MOL0     C 5169   4.657  10.763   1.152  0.5776  0.8119  0.3604
   39MOL0     C 5170   4.673  10.914   1.163  0.3326 -0.0973 -0.8178
   39MOL0     C 5171   4.676  10.972   1.020 -0.8721  0.5785 -0.3433
   39MOL0     C 5172   4.811  11.034   1.004 -0.0640 -0.5028  0.1668
   39MOL0     C 5173   4.819  11.123   0.873 -0.0951  0.2743  0.5726
   39MOL0     C 5174   4.938  11.206   0.879 -0.0915 -0.6941  0.0002
   39MOL0    Cl 5175   4.921  11.345   0.984 -0.1005  0.0115  0.8169
   39MOL0     C 5176   4.636  10.256   1.219  0.1660  0.0132  0.6947
   39MOL0     C 5177   4.644  10.119   1.194 -0.9069 -1.0688 -0.1351
   39MOL0     O 5178   4.565   9.878   1.061  0.2542  0.0040  0.2198
   39MOL0     C 5179   4.867   9.679   1.049  0.0864  0.4457 -0.1709
   39MOL0     C 5180   4.922   9.549   1.040  0.1992 -0.1442 -0.1806
   39MOL0     N 5181   5.168   9.121   0.591  0.8414  0.4204 -0.1886
   39MOL0     N 5182   5.257   9.057   0.524 -0.1926  0.2757 -0.1010
   39MOL0     C 5183   6.502   8.531   0.685  0.4989 -0.2127 -0.3965
   39MOL0     C 5184   6.586   8.420   0.709 -0.4635 -0.0497  0.3952
   39MOL0     C 5185   6.775   8.034   0.898 -0.2134  0.1638 -0.6066
   39MOL0     C 5186   6.769   7.892   0.916 -0.0425 -0.2913 -0.5954
   39MOL0     C 5187   6.885   7.825   0.940 -0.2848 -0.0865 -0.3166
   39MOL0     C 5188   7.008   7.893   0.927 -0.5058  0.1454  0.6194
   39MOL0     O 5189   7.118   7.815   0.946 -0.1691  0.1331  0.4921
   39MOL0     C 5190   7.236   7.878   0.994  0.1514 -0.7165 -0.1754
   39MOL0     C 5191   7.327   7.761   1.025 -0.4686 -0.4133  0.8293
   39MOL0     C 5192   7.465   7.816   1.058  0.0639  0.0330  0.0812
   39MOL0     C 5193   7.551   7.700   1.105 -0.4922 -0.0556 -0.3743
   39MOL0     C 5194   7.690   7.735   1.127 -0.2620  0.4264  0.6309
   39MOL0     C 5195   7.811   7.761   1.143  0.7151  0.0814 -0.5490
   39MOL0     C 5196   7.010   8.036   0.906  1.0244  0.1773  1.2959
   39MOL0     C 5197   6.895   8.110   0.891  1.0826  0.5271  0.0246
   39MOL0     H 5198   6.411   8.280   0.961 -1.8061  2.4641  1.6861
   39MOL0     H 5199   6.273   8.470   0.931 -1.6038  0.2486 -3.1053
   39MOL0     H 5200   6.105   8.571   0.785  0.4993 -0.2878 -1.5268
   39MOL0     H 5201   6.197   8.700   0.882  3.2859 -3.2433  0.8313
   39MOL0     H 5202   6.117   8.876   0.761  1.6117  0.1095  1.0012
   39MOL0     H 5203   6.096   8.764   0.615 -3.0049 -1.0264  0.1072
   39MOL0     H 5204   5.894   8.682   0.805 -0.7369  1.6386 -0.6242
   39MOL0     H 5205   5.921   8.851   0.838 -0.4538  1.2292 -0.4404
   39MOL0     H 5206   5.882   8.872   0.556  2.0118 -1.6773  1.1437
   39MOL0     H 5207   5.783   8.730   0.597 -1.6867  2.5045 -6.1762
   39MOL0     H 5208   5.703   8.881   0.802 -0.8676  1.6121  0.7087
   39MOL0     H 5209   5.775   9.013   0.741  0.4532 -1.4790  1.1394
   39MOL0     H 5210   5.543   9.024   0.674  0.7625  0.3673 -2.5372
   39MOL0     H 5211   5.638   9.017   0.536  0.7394  0.6354  0.6793
   39MOL0     H 5212   5.588   8.766   0.509 -0.9679 -3.1509  2.4904
   39MOL0     H 5213   5.518   8.766   0.670 -0.5456 -1.9469 -0.6466
   39MOL0     H 5214   5.349   8.747   0.501 -1.2926 -0.5742  1.0956
   39MOL0     H 5215   5.418   8.884   0.408 -3.0084  0.8001 -0.1545
   39MOL0     H 5216   5.204   8.839   0.757 -0.7871  0.9067  0.8044
   39MOL0     H 5217   4.962   8.972   0.817 -1.1147  1.0794  3.7243
   39MOL0     H 5218   5.085   9.065   0.901 -2.5373  1.2989  1.5620
   39MOL0     H 5219   4.922   9.190   0.669 -0.8396 -1.0568  0.4096
   39MOL0     H 5220   5.005   9.273   0.804 -1.0093 -0.7661  4.3712
   39MOL0     H 5221   4.771   9.072   0.813  0.9156  1.0498 -1.8385
   39MOL0     H 5222   4.758   9.257   0.815  0.1660  1.5351  0.9439
   39MOL0     H 5223   4.887   9.111   1.027  1.3820  1.1267  1.1024
   39MOL0     H 5224   4.736   9.205   1.036  0.6829 -0.9307  1.7817
   39MOL0     H 5225   4.616   9.388   0.987 -4.3492  3.1855 -2.1477
   39MOL0     H 5226   4.444   9.680   0.965 -2.7575  0.6654  1.0567
   39MOL0     H 5227   4.446   9.505   0.991  1.4238 -0.3128 -0.8816
   39MOL0     H 5228   4.450   9.617   1.130  2.2539 -2.0951  0.7279
   39MOL0     H 5229   4.937  10.135   1.024 -0.9862  0.5635  0.1490
   39MOL0     H 5230   4.888  10.373   1.032  2.8406 -0.8011  1.2597
   39MOL0     H 5231   4.519  10.518   1.228  1.9441 -4.1080 -2.0415
   39MOL0     H 5232   4.603  10.498   1.375 -0.4230 -1.2627 -0.1188
   39MOL0     H 5233   4.534  10.719   1.348  0.5297 -2.8076  1.3371
   39MOL0     H 5234   4.696  10.727   1.369  2.3991 -2.7708 -1.2791
   39MOL0     H 5235   4.575  10.738   1.083  2.1567  0.0690 -1.3273
   39MOL0     H 5236   4.752  10.735   1.106  0.9345  3.0530 -0.4025
   39MOL0     H 5237   4.585  10.963   1.207 -0.3458 -0.6490 -1.5337
   39MOL0     H 5238   4.765  10.937   1.218  1.9900 -2.0251 -2.6121
   39MOL0     H 5239   4.585  11.030   1.004 -0.6747  1.2056  0.7199
   39MOL0     H 5240   4.672  10.896   0.942 -0.1712 -0.1811  0.3345
   39MOL0     H 5241   4.812  11.097   1.093 -0.2703 -1.4085  0.8293
   39MOL0     H 5242   4.897  10.967   0.997  2.0721  2.0747  0.3350
   39MOL0     H 5243   4.728  11.176   0.845  1.7247  1.6986 -3.2708
   39MOL0     H 5244   4.846  11.052   0.795  4.4254  0.3197  1.7952
   39MOL0     H 5245   4.956  11.247   0.780 -0.4906 -1.8878 -0.5836
   39MOL0     H 5246   5.025  11.142   0.897 -1.6709 -2.6997  0.8386
   39MOL0     H 5247   4.548  10.290   1.272 -1.8309 -2.7035 -0.6400
   39MOL0     H 5248   4.568  10.048   1.226 -0.4021 -1.3376  0.4828
   39MOL0     H 5249   4.936   9.762   1.057  1.3466 -0.5982 -0.0490
   39MOL0     H 5250   5.030   9.543   1.051  0.1170 -1.2360  0.1003
   39MOL0     H 5251   6.530   8.571   0.588  0.8236  0.2022 -0.1310
   39MOL0     H 5252   6.678   8.417   0.651 -0.6647 -0.4761  0.0880
   39MOL0     H 5253   6.676   7.836   0.925  0.1071 -0.6357 -1.1260
   39MOL0     H 5254   6.886   7.720   0.966  2.7844  0.0483  0.4195
   39MOL0     H 5255   7.287   7.935   0.916  0.8926 -1.0262  0.0696
   39MOL0     H 5256   7.208   7.956   1.065 -2.1717 -0.0044 -1.7542
   39MOL0     H 5257   7.340   7.703   0.934 -0.4087  2.6990 -1.2983
   39MOL0     H 5258   7.283   7.703   1.107 -0.9713 -1.2575 -0.0297
   39MOL0     H 5259   7.448   7.897   1.130  0.4481  0.2954 -0.1166
   39MOL0     H 5260   7.513   7.863   0.971 -1.8011  1.8117 -0.0641
   39MOL0     H 5261   7.550   7.615   1.036  0.6016 -0.3421 -0.0472
   39MOL0     H 5262   7.511   7.672   1.203 -0.3026 -1.4624 -0.6862
   39MOL0     H 5263   7.913   7.791   1.158  0.0018  3.6088 -1.6656
   39MOL0     H 5264   7.108   8.078   0.888  1.2516 -0.1092  1.8147
   39MOL0     H 5265   6.919   8.215   0.878  2.9458  0.3224  1.3351
   40MOL0     O 5266   8.631   8.314   3.973  0.6756  0.4686  0.5843
   40MOL0     C 5267   8.683   8.263   4.075  0.7993  1.0339 -0.3711
   40MOL0     O 5268   8.607   8.192   4.179 -0.3409 -0.1920  0.3536
   40MOL0     C 5269   8.473   8.182   4.182  0.4135 -0.3795  0.1160
   40MOL0     C 5270   8.407   8.230   4.305  0.3581  0.4839  0.0143
   40MOL0     C 5271   8.268   8.237   4.306  0.4186  0.0795 -0.6790
   40MOL0     C 5272   8.190   8.191   4.194 -0.2460 -0.1178 -0.2559
   40MOL0     O 5273   8.049   8.204   4.183  0.4351  0.6087  0.7110
   40MOL0     C 5274   7.986   8.267   4.296 -0.6924  0.6504 -0.1743
   40MOL0     C 5275   7.838   8.272   4.281  0.5114  0.3076  0.3992
   40MOL0     C 5276   7.788   8.391   4.202 -0.4053 -1.0898  1.1510
   40MOL0     C 5277   7.636   8.418   4.190  0.1387 -0.6712 -0.5180
   40MOL0     C 5278   7.569   8.410   4.329  0.1066  0.5588 -0.3547
   40MOL0     C 5279   7.417   8.433   4.314  0.1016  0.5770  0.1239
   40MOL0     C 5280   7.379   8.577   4.345  0.3947 -0.1405  0.2686
   40MOL0     C 5281   7.222   8.588   4.340  0.0252 -0.3977  0.1719
   40MOL0     N 5282   7.159   8.712   4.381 -0.2828 -0.5242 -0.6949
   40MOL0     C 5283   7.042   8.755   4.324 -0.3824 -0.0370 -0.8267
   40MOL0     C 5284   7.048   8.884   4.351  0.7381  0.0747 -0.5433
   40MOL0     C 5285   6.945   8.976   4.306 -0.1183 -0.4949  0.0751
   40MOL0     C 5286   6.856   9.026   4.424  0.0812  0.7059 -0.3398
   40MOL0     C 5287   6.757   9.127   4.373  0.5334  1.0835 -0.2354
   40MOL0     C 5288   6.644   9.172   4.467 -0.1086  0.0757 -0.5963
   40MOL0     O 5289   6.582   9.047   4.514 -0.4247 -0.1757  0.4100
   40MOL0     C 5290   6.459   9.051   4.569 -0.4783  0.5669 -1.3411
   40MOL0     C 5291   6.420   9.164   4.647  0.4535 -0.4169  1.0795
   40MOL0     C 5292   6.288   9.185   4.706  0.6895  0.4453 -0.0555
   40MOL0     C 5293   6.263   9.325   4.758  0.7140 -0.3230 -0.1196
   40MOL0     C 5294   6.193   9.073   4.701  0.8506 -0.4497 -0.2208
   40MOL0     C 5295   6.057   9.079   4.774  0.9352 -0.3880 -0.6013
   40MOL0     O 5296   5.965   8.981   4.745 -0.5060  0.5597 -0.1794
   40MOL0     C 5297   5.831   8.992   4.794  0.1014  0.4860 -0.5990
   40MOL0     C 5298   5.770   8.886   4.871  1.3438  0.3987 -0.3121
   40MOL0     C 5299   5.628   8.900   4.897 -0.1486 -0.6340 -0.6052
   40MOL0     C 5300   5.555   9.017   4.862  0.2715 -0.1052 -0.0762
   40MOL0     O 5301   5.418   9.034   4.883  0.3878  0.0117 -0.4838
   40MOL0     C 5302   5.335   8.919   4.899  0.8054  0.4151 -0.1372
   40MOL0     C 5303   5.184   8.959   4.897 -0.0360 -0.8874 -0.1327
   40MOL0     C 5304   5.092   8.841   4.938  0.0769 -0.2797 -0.6518
   40MOL0     C 5305   4.940   8.871   4.919 -0.7888 -0.9158  0.7908
   40MOL0     C 5306   4.849   8.777   5.003 -0.3489  0.0277 -0.1632
   40MOL0     C 5307   4.706   8.787   4.955 -0.0887  0.1102  0.5991
   40MOL0     C 5308   4.602   8.727   5.036  0.5518  0.9033 -0.6003
   40MOL0     C 5309   4.479   8.675   4.961 -0.7333  0.0413  1.1017
   40MOL0    Cl 5310   4.402   8.804   4.854  0.2824 -0.1727  0.4146
   40MOL0     C 5311   5.623   9.112   4.779  0.5836 -0.2509  0.9935
   40MOL0     C 5312   5.757   9.097   4.751 -0.5097 -0.3036  0.4433
   40MOL0     O 5313   6.035   9.163   4.864 -0.6286 -0.3155  1.1682
   40MOL0     C 5314   6.238   8.958   4.633 -0.3876  0.3756  0.3124
   40MOL0     C 5315   6.365   8.942   4.570 -0.5057 -1.1351 -0.9554
   40MOL0     N 5316   7.159   8.909   4.429  0.4725 -0.1041 -0.7390
   40MOL0     N 5317   7.227   8.815   4.446  0.4784  0.0144  1.5739
   40MOL0     C 5318   8.260   8.148   4.081  0.0125  0.8322 -0.8897
   40MOL0     C 5319   8.397   8.132   4.074  0.2911 -0.1266  0.1890
   40MOL0     C 5320   8.825   8.282   4.093  0.3745 -0.6039  0.4535
   40MOL0     C 5321   8.906   8.348   3.999 -0.3453  0.4196 -0.6339
   40MOL0     C 5322   9.040   8.359   4.025  0.0062 -0.0979 -0.0996
   40MOL0     C 5323   9.100   8.317   4.146 -0.2535 -0.7629  0.6296
   40MOL0     O 5324   9.233   8.338   4.155  0.4356  0.1572  0.0384
   40MOL0     C 5325   9.292   8.305   4.279  0.1645  0.4110 -0.4640
   40MOL0     C 5326   9.435   8.359   4.302 -0.5713  0.4506  0.4443
   40MOL0     C 5327   9.501   8.327   4.437 -0.3023 -0.0918  0.3278
   40MOL0     C 5328   9.481   8.185   4.485  0.1284 -0.1246  0.0414
   40MOL0     C 5329   9.536   8.078   4.391  0.6731 -0.5922 -0.0862
   40MOL0     C 5330   9.575   7.993   4.311  0.0394 -0.6673  0.3386
   40MOL0     C 5331   9.020   8.256   4.242  0.3537  0.3736  0.2823
   40MOL0     C 5332   8.889   8.229   4.207  0.6266  1.3313 -0.3644
   40MOL0     H 5333   8.480   8.257   4.380  0.5860  0.6114 -0.2514
   40MOL0     H 5334   8.210   8.285   4.384 -0.0372 -0.9961 -0.3387
   40MOL0     H 5335   8.012   8.212   4.387 -0.9337  2.8092  1.2625
   40MOL0     H 5336   8.019   8.371   4.306  0.3377  0.3273 -0.0910
   40MOL0     H 5337   7.806   8.178   4.235  0.0668 -0.8136  2.8326
   40MOL0     H 5338   7.788   8.270   4.378 -0.2836 -0.9841 -0.0129
   40MOL0     H 5339   7.829   8.478   4.254  1.3441  1.0852 -3.3817
   40MOL0     H 5340   7.837   8.391   4.104 -2.7474 -0.7944 -0.0904
   40MOL0     H 5341   7.631   8.522   4.154 -1.5369 -1.6679 -3.5243
   40MOL0     H 5342   7.584   8.358   4.115 -0.3698  1.4298 -1.9693
   40MOL0     H 5343   7.579   8.312   4.377  1.1942  0.7803 -0.1120
   40MOL0     H 5344   7.609   8.483   4.400  2.6676 -3.2294  2.5449
   40MOL0     H 5345   7.377   8.408   4.214  1.4231 -1.6197  0.0705
   40MOL0     H 5346   7.360   8.371   4.384 -0.2371  1.6190  0.7914
   40MOL0     H 5347   7.407   8.592   4.450  0.5603  0.4570  0.1413
   40MOL0     H 5348   7.433   8.636   4.271  1.2529 -1.0499  0.1463
   40MOL0     H 5349   7.165   8.516   4.400 -2.5813 -0.1301 -1.8416
   40MOL0     H 5350   7.203   8.563   4.236 -1.2254  0.7203  0.1093
   40MOL0     H 5351   6.982   8.682   4.271 -0.1181 -0.5931 -0.3686
   40MOL0     H 5352   6.990   9.062   4.255 -1.0525 -0.7090 -1.1273
   40MOL0     H 5353   6.867   8.928   4.248  1.1755 -1.5353 -0.8702
   40MOL0     H 5354   6.926   9.066   4.498 -3.2897  1.3696  2.8063
   40MOL0     H 5355   6.806   8.938   4.465 -2.1989  1.9964 -0.1837
   40MOL0     H 5356   6.715   9.080   4.284  1.2386 -0.3460  0.1604
   40MOL0     H 5357   6.815   9.218   4.352  0.7307  1.0576  0.1872
   40MOL0     H 5358   6.568   9.228   4.412 -0.8700  1.6200  1.8315
   40MOL0     H 5359   6.688   9.231   4.548  1.4997  0.9654 -2.0700
   40MOL0     H 5360   6.481   9.254   4.653 -0.5449  0.2589  1.3641
   40MOL0     H 5361   6.158   9.331   4.730  0.7592 -0.6855 -0.3691
   40MOL0     H 5362   6.268   9.332   4.867  0.5070 -2.4384  0.0698
   40MOL0     H 5363   6.331   9.400   4.716  2.8611 -0.9592  2.0083
   40MOL0     H 5364   5.828   8.796   4.884 -2.7962 -2.3580  1.2670
   40MOL0     H 5365   5.575   8.807   4.915 -1.4487 -0.2123 -2.0108
   40MOL0     H 5366   5.360   8.846   4.822 -1.7810 -1.1525  0.3906
   40MOL0     H 5367   5.353   8.887   5.002 -0.9851  1.4769  0.5649
   40MOL0     H 5368   5.163   9.048   4.956 -0.9824  0.8386 -2.8893
   40MOL0     H 5369   5.164   8.980   4.791 -0.7236  0.3266  0.2222
   40MOL0     H 5370   5.110   8.828   5.045 -2.4895  0.2952 -0.0659
   40MOL0     H 5371   5.112   8.750   4.881 -3.0545 -0.5434 -1.5183
   40MOL0     H 5372   4.922   8.974   4.951 -0.2259 -0.6995  0.4380
   40MOL0     H 5373   4.912   8.860   4.814  2.2643  0.3538 -0.2541
   40MOL0     H 5374   4.865   8.809   5.107  0.3323 -0.6531 -0.0471
   40MOL0     H 5375   4.878   8.672   4.992 -0.8447  0.1123 -3.0256
   40MOL0     H 5376   4.689   8.895   4.943  0.4719  0.2186  0.7442
   40MOL0     H 5377   4.707   8.734   4.859 -1.0836  0.2562  0.5037
   40MOL0     H 5378   4.567   8.812   5.097  0.4574  0.2603  0.2639
   40MOL0     H 5379   4.646   8.648   5.097 -1.3794  0.2522  0.0538
   40MOL0     H 5380   4.409   8.640   5.037 -1.8877  0.0190  0.0509
   40MOL0     H 5381   4.516   8.594   4.898 -0.6330 -0.2133  1.4857
   40MOL0     H 5382   5.574   9.200   4.738 -4.6260 -2.9902  0.4855
   40MOL0     H 5383   5.813   9.167   4.691  2.4034 -4.4778 -2.2713
   40MOL0     H 5384   6.172   8.872   4.632 -0.5202  0.4444  1.5329
   40MOL0     H 5385   6.386   8.850   4.515 -4.0811 -1.0626 -2.7511
   40MOL0     H 5386   8.201   8.118   3.995 -0.2480 -0.4544 -0.2817
   40MOL0     H 5387   8.445   8.097   3.983  2.2837  0.1503  1.0663
   40MOL0     H 5388   8.858   8.389   3.911 -4.9152 -0.6940  1.0500
   40MOL0     H 5389   9.098   8.398   3.942 -2.5987  3.3309 -0.5371
   40MOL0     H 5390   9.242   8.362   4.358  0.0034  0.0263 -0.2854
   40MOL0     H 5391   9.291   8.197   4.298  2.1274  0.3860 -0.3257
   40MOL0     H 5392   9.437   8.466   4.282  1.5855 -0.0366 -2.6909
   40MOL0     H 5393   9.502   8.320   4.225  2.7645  0.9359  2.8740
   40MOL0     H 5394   9.455   8.386   4.516 -3.0365 -0.9004 -0.5412
   40MOL0     H 5395   9.608   8.348   4.435 -0.4744  0.7632 -0.3603
   40MOL0     H 5396   9.374   8.174   4.503  0.2268  1.1757  1.6871
   40MOL0     H 5397   9.529   8.175   4.583  3.1138  2.2418 -1.0220
   40MOL0     H 5398   9.614   7.922   4.241  2.4661 -0.0111  0.9304
   40MOL0     H 5399   9.062   8.237   4.340  0.7829  2.6715  0.5939
   40MOL0     H 5400   8.829   8.169   4.274 -0.2388 -0.6086 -2.7351
   41MOL0     O 5401   0.953   6.852   8.920  0.6009 -0.2094  0.0230
   41MOL0     C 5402   1.004   6.848   8.806 -0.3330  0.3680 -0.4848
   41MOL0     O 5403   0.935   6.872   8.688  0.4025  0.9922 -0.8137
   41MOL0     C 5404   0.799   6.856   8.672  0.0578  0.5545  0.3608
   41MOL0     C 5405   0.758   6.899   8.551  0.1857 -0.3150  0.3698
   41MOL0     C 5406   0.621   6.899   8.519  0.7797  0.0928  0.3231
   41MOL0     C 5407   0.526   6.838   8.599  0.2023 -0.4261 -0.2012
   41MOL0     O 5408   0.393   6.842   8.548  0.0502  0.1949 -0.6136
   41MOL0     C 5409   0.297   6.866   8.649  0.1217 -0.0708  0.3620
   41MOL0     C 5410   0.191   6.949   8.587  0.9976 -0.2346  1.5214
   41MOL0     C 5411   0.089   6.979   8.697  0.2159  0.1438 -0.0683
   41MOL0     C 5412   0.025   7.113   8.683  0.8656 -0.1507  0.0521
   41MOL0     C 5413  -0.119   7.124   8.742 -0.7913  0.1084  1.0657
   41MOL0     C 5414  -0.179   7.264   8.714 -0.6783  0.6830  0.5895
   41MOL0     C 5415  -0.285   7.297   8.811  0.8913  0.9054  0.4970
   41MOL0     C 5416  -0.417   7.227   8.767 -0.2563 -0.1818  0.9069
   41MOL0     N 5417  -0.546   7.280   8.826  0.3465  1.2014 -0.5980
   41MOL0     C 5418  -0.565   7.328   8.956 -0.7620  0.6350  0.6562
   41MOL0     C 5419  -0.696   7.361   8.950 -0.0337  0.8173 -0.4211
   41MOL0     C 5420  -0.767   7.430   9.064  0.3360  0.0149 -0.2357
   41MOL0     C 5421  -0.901   7.360   9.103  0.7222  0.2779 -0.1713
   41MOL0     C 5422  -0.983   7.450   9.197  0.0435 -0.1735 -0.3125
   41MOL0     C 5423  -1.112   7.396   9.242  0.0967  0.2680 -0.1804
   41MOL0     O 5424  -1.214   7.425   9.145  0.6846  1.9120 -0.4469
   41MOL0     C 5425  -1.352   7.428   9.169 -0.4694 -0.1081 -0.2616
   41MOL0     C 5426  -1.405   7.381   9.288 -0.1271 -0.4276 -0.7683
   41MOL0     C 5427  -1.543   7.379   9.321  0.1244  0.5760  0.1355
   41MOL0     C 5428  -1.586   7.305   9.449 -1.2242  0.4232 -0.2457
   41MOL0     C 5429  -1.629   7.421   9.220  0.3224  0.9758 -0.1104
   41MOL0     C 5430  -1.776   7.427   9.237 -0.0196 -0.6893  0.0015
   41MOL0     O 5431  -1.824   7.552   9.200  0.5495  0.8778 -0.1553
   41MOL0     C 5432  -1.951   7.602   9.220 -0.0251 -0.4958 -0.1619
   41MOL0     C 5433  -1.963   7.744   9.247  0.3885  1.1861  0.9085
   41MOL0     C 5434  -2.102   7.793   9.248 -0.2539  0.4387  0.4610
   41MOL0     C 5435  -2.208   7.709   9.228  0.5060  0.0834 -0.1243
   41MOL0     O 5436  -2.338   7.746   9.262  0.1635  1.1854 -0.7395
   41MOL0     C 5437  -2.377   7.876   9.239  0.0719 -1.3296 -0.0020
   41MOL0     C 5438  -2.368   7.957   9.381 -0.0220  0.8388  0.7115
   41MOL0     C 5439  -2.476   7.910   9.479  0.5561 -0.3495  0.4572
   41MOL0     C 5440  -2.441   7.927   9.635  0.7313 -0.0928  0.0800
   41MOL0     C 5441  -2.352   7.813   9.678 -0.0197  0.3979 -0.0086
   41MOL0     C 5442  -2.253   7.854   9.792  0.1712 -0.1578  0.1859
   41MOL0     C 5443  -2.167   7.747   9.828 -0.0211  0.3886 -0.9869
   41MOL0     C 5444  -2.053   7.808   9.920  0.0662  0.5211  0.1608
   41MOL0    Cl 5445  -2.123   7.896  10.066 -0.5889  0.4476  0.1147
   41MOL0     C 5446  -2.189   7.572   9.214  0.4975 -0.8590 -0.5406
   41MOL0     C 5447  -2.064   7.517   9.198 -0.2811 -0.2840 -0.4969
   41MOL0     O 5448  -1.846   7.330   9.263 -0.8308 -0.3660  0.3910
   41MOL0     C 5449  -1.576   7.471   9.107 -0.4390  0.5250  0.4554
   41MOL0     C 5450  -1.444   7.475   9.076 -0.1507 -0.0353  0.5746
   41MOL0     N 5451  -0.754   7.326   8.827 -0.4130 -0.2138  0.1330
   41MOL0     N 5452  -0.658   7.289   8.747 -0.3054  0.4699 -0.2390
   41MOL0     C 5453   0.562   6.792   8.724 -0.3552  0.9876  0.1726
   41MOL0     C 5454   0.701   6.805   8.759  0.4102  1.1138  0.2734
   41MOL0     C 5455   1.147   6.821   8.814  0.4990 -0.1692  0.7137
   41MOL0     C 5456   1.211   6.784   8.690 -0.2609 -1.0868  0.2600
   41MOL0     C 5457   1.339   6.737   8.684 -1.3482 -0.1282 -0.6646
   41MOL0     C 5458   1.417   6.707   8.798 -0.5363 -0.8721  0.3282
   41MOL0     O 5459   1.545   6.674   8.782  0.3756  0.6242  0.1898
   41MOL0     C 5460   1.635   6.666   8.896  0.5852 -0.3297 -0.7701
   41MOL0     C 5461   1.775   6.720   8.870  0.4701  0.3695 -0.3652
   41MOL0     C 5462   1.836   6.631   8.760 -0.0158 -0.5307  0.6892
   41MOL0     C 5463   1.937   6.717   8.685 -0.0604  0.5169 -0.1349
   41MOL0     C 5464   1.977   6.630   8.572  0.7814  0.4308 -1.1098
   41MOL0     C 5465   2.024   6.573   8.471 -0.9751  0.6220 -0.2101
   41MOL0     C 5466   1.351   6.743   8.921  0.1735  0.8089 -0.1738
   41MOL0     C 5467   1.228   6.804   8.924  0.4307 -1.1128 -0.5968
   41MOL0     H 5468   0.837   6.902   8.477  1.1113 -1.3712  1.2744
   41MOL0     H 5469   0.597   6.932   8.418 -3.8583 -2.1175  0.4444
   41MOL0     H 5470   0.251   6.772   8.679 -0.9924 -0.1216 -1.3844
   41MOL0     H 5471   0.336   6.925   8.733 -0.6938 -0.8398  1.3032
   41MOL0     H 5472   0.240   7.041   8.553  0.5416 -1.1235 -1.9406
   41MOL0     H 5473   0.145   6.900   8.501  0.6820 -0.0494  1.5800
   41MOL0     H 5474   0.012   6.902   8.691  0.8618 -0.4274 -1.6901
   41MOL0     H 5475   0.137   6.978   8.796  0.5432 -1.7232 -0.2023
   41MOL0     H 5476   0.083   7.191   8.734  1.9633  0.1709 -1.6228
   41MOL0     H 5477   0.025   7.141   8.577  2.8264 -0.7389 -0.1415
   41MOL0     H 5478  -0.182   7.047   8.697 -0.0475 -1.4451  2.5741
   41MOL0     H 5479  -0.102   7.106   8.848  2.3847 -0.0784  0.6317
   41MOL0     H 5480  -0.106   7.345   8.725 -0.7796  0.4970  3.2195
   41MOL0     H 5481  -0.224   7.280   8.615 -0.4172  1.2654  0.5631
   41MOL0     H 5482  -0.266   7.262   8.913 -0.8944 -1.0897  0.2135
   41MOL0     H 5483  -0.300   7.405   8.812 -2.7825  0.5210  1.5259
   41MOL0     H 5484  -0.411   7.125   8.806 -2.4455 -0.0406  1.7797
   41MOL0     H 5485  -0.434   7.240   8.660  0.1102 -3.2427  0.3732
   41MOL0     H 5486  -0.492   7.346   9.034 -0.6849 -1.8138  1.2078
   41MOL0     H 5487  -0.706   7.438   9.154  2.1394 -1.7141 -1.2182
   41MOL0     H 5488  -0.789   7.534   9.036 -1.0100 -0.0342  0.5839
   41MOL0     H 5489  -0.871   7.265   9.147 -1.7271 -0.8382 -0.7643
   41MOL0     H 5490  -0.962   7.336   9.015 -0.9779 -1.1536  1.3338
   41MOL0     H 5491  -1.004   7.544   9.147 -1.6297 -0.1059  0.4537
   41MOL0     H 5492  -0.923   7.465   9.288 -1.1582  0.1024  0.4571
   41MOL0     H 5493  -1.134   7.439   9.340  1.8380  3.7521 -1.1250
   41MOL0     H 5494  -1.106   7.288   9.256 -2.1328  0.1587  0.4187
   41MOL0     H 5495  -1.337   7.343   9.364  2.6984  3.8057 -0.8449
   41MOL0     H 5496  -1.658   7.226   9.425 -2.8342  2.2301 -1.7024
   41MOL0     H 5497  -1.495   7.265   9.494 -0.8735  1.9895  0.5268
   41MOL0     H 5498  -1.628   7.375   9.522  1.4491 -0.2901  2.1539
   41MOL0     H 5499  -1.883   7.817   9.246 -0.4122  2.1687  2.5489
   41MOL0     H 5500  -2.106   7.900   9.261  3.9306  0.9079 -0.8348
   41MOL0     H 5501  -2.317   7.932   9.167 -1.3560  0.1818 -0.0933
   41MOL0     H 5502  -2.481   7.877   9.204  0.1914  0.1287 -0.3876
   41MOL0     H 5503  -2.273   7.933   9.429  0.3498 -1.9530 -1.2131
   41MOL0     H 5504  -2.376   8.063   9.354 -0.8096  1.2343  2.3674
   41MOL0     H 5505  -2.509   7.807   9.461 -0.7350  0.3092 -1.2997
   41MOL0     H 5506  -2.566   7.969   9.460  1.0652  0.5745  0.8275
   41MOL0     H 5507  -2.384   8.020   9.642 -0.4658  0.8578 -1.6673
   41MOL0     H 5508  -2.532   7.936   9.695  1.0165  1.1599  0.3577
   41MOL0     H 5509  -2.288   7.772   9.600 -0.7480 -2.7407  0.8946
   41MOL0     H 5510  -2.406   7.722   9.703  1.6919 -1.1040 -1.5432
   41MOL0     H 5511  -2.197   7.941   9.757 -0.5304  0.1461 -0.1892
   41MOL0     H 5512  -2.307   7.889   9.880 -1.4610 -1.1343 -0.3940
   41MOL0     H 5513  -2.120   7.717   9.734  0.5219  1.9252 -1.2235
   41MOL0     H 5514  -2.227   7.665   9.870  1.5960 -0.3304 -0.0035
   41MOL0     H 5515  -1.993   7.884   9.870  0.8799  1.1457  2.0067
   41MOL0     H 5516  -1.988   7.727   9.956  0.2302 -0.1986 -1.6493
   41MOL0     H 5517  -2.267   7.499   9.193  1.7356 -2.8909  1.4497
   41MOL0     H 5518  -2.036   7.419   9.164  0.0280 -0.1480 -0.6353
   41MOL0     H 5519  -1.637   7.484   9.018  0.1691 -1.4035 -0.3007
   41MOL0     H 5520  -1.425   7.500   8.973 -1.9602 -0.1004  0.1951
   41MOL0     H 5521   0.490   6.750   8.794 -1.9472  1.8216 -0.8928
   41MOL0     H 5522   0.721   6.767   8.859 -0.0446 -1.4882 -0.5404
   41MOL0     H 5523   1.152   6.795   8.599  1.3852  0.0777 -0.7287
   41MOL0     H 5524   1.389   6.716   8.590  5.2484 -0.7379  2.4485
   41MOL0     H 5525   1.591   6.722   8.979  1.6131  0.1588 -0.5343
   41MOL0     H 5526   1.640   6.561   8.929 -2.2977  0.1007  1.4749
   41MOL0     H 5527   1.833   6.705   8.962  0.5661  0.5696 -0.3933
   41MOL0     H 5528   1.775   6.829   8.870  1.9329  0.4017  1.1203
   41MOL0     H 5529   1.758   6.607   8.687  1.3059 -0.7567 -0.7010
   41MOL0     H 5530   1.873   6.535   8.797  0.4635 -0.4949  0.3164
   41MOL0     H 5531   2.016   6.754   8.751  0.2630 -3.2166  1.8535
   41MOL0     H 5532   1.890   6.802   8.634 -1.3712 -0.6956 -1.0380
   41MOL0     H 5533   2.068   6.525   8.386  0.1358 -0.0063  0.6811
   41MOL0     H 5534   1.404   6.720   9.013 -0.9511  0.4378  0.3982
   41MOL0     H 5535   1.192   6.838   9.021 -1.8359  3.8424 -2.7947
   42MOL0     O 5536   5.276   4.586   5.835  0.0268  0.4102 -0.6105
   42MOL0     C 5537   5.302   4.481   5.775  0.4017  0.3593 -0.3765
   42MOL0     O 5538   5.235   4.364   5.796 -0.8367 -0.6220 -0.8142
   42MOL0     C 5539   5.127   4.358   5.884  0.6578  0.1481  0.5510
   42MOL0     C 5540   5.143   4.374   6.027 -0.2255 -0.0274 -0.3661
   42MOL0     C 5541   5.035   4.341   6.114  0.2702 -0.6486 -0.6222
   42MOL0     C 5542   4.917   4.298   6.052 -0.0228  0.1711 -0.2222
   42MOL0     O 5543   4.805   4.253   6.123  1.1424  0.6693  0.3536
   42MOL0     C 5544   4.702   4.343   6.127  0.8626 -0.5319 -0.0507
   42MOL0     C 5545   4.577   4.295   6.200 -0.5988 -0.7788  0.5388
   42MOL0     C 5546   4.592   4.254   6.351  0.1732 -0.6521  0.7502
   42MOL0     C 5547   4.469   4.194   6.424 -0.3213  0.1847 -0.1931
   42MOL0     C 5548   4.493   4.175   6.573 -0.0849 -0.2833 -0.4044
   42MOL0     C 5549   4.388   4.106   6.660 -0.5566 -0.8374 -0.4443
   42MOL0     C 5550   4.257   4.193   6.668 -0.7893  0.6748  0.0979
   42MOL0     C 5551   4.164   4.146   6.778 -0.3722  0.1120  0.3069
   42MOL0     N 5552   4.207   4.166   6.915 -0.2005 -0.1544  0.5156
   42MOL0     C 5553   4.192   4.087   7.025 -0.2678  0.6746  0.0112
   42MOL0     C 5554   4.223   4.172   7.130 -0.4053  0.5940 -0.3742
   42MOL0     C 5555   4.201   4.133   7.275 -0.0390 -0.7579  0.5687
   42MOL0     C 5556   4.054   4.093   7.310  0.4303  0.1606  0.2730
   42MOL0     C 5557   3.949   4.181   7.231 -0.4723  0.2685 -0.5887
   42MOL0     C 5558   3.808   4.182   7.302 -0.8106 -0.8783 -0.3137
   42MOL0     O 5559   3.743   4.065   7.258  0.1389 -0.2287  1.1990
   42MOL0     C 5560   3.612   4.059   7.226 -0.5365 -0.1764  0.1816
   42MOL0     C 5561   3.514   4.142   7.278 -0.6530 -0.2599 -0.0706
   42MOL0     C 5562   3.379   4.133   7.244  0.6544 -0.3288  0.2666
   42MOL0     C 5563   3.283   4.227   7.318 -0.5943 -0.2883 -0.0488
   42MOL0     C 5564   3.345   4.039   7.147 -0.3019 -0.2964 -0.1495
   42MOL0     C 5565   3.207   4.025   7.112 -0.6557  0.5956  0.1100
   42MOL0     O 5566   3.178   3.890   7.084  0.2892  0.0788  0.5286
   42MOL0     C 5567   3.039   3.855   7.070  0.1754  0.3451 -0.2632
   42MOL0     C 5568   2.946   3.881   7.168 -0.0327  0.0499  0.4268
   42MOL0     C 5569   2.814   3.857   7.150  0.6731  0.1516 -0.7887
   42MOL0     C 5570   2.771   3.782   7.039 -0.3203 -0.4763  0.7619
   42MOL0     O 5571   2.633   3.766   7.028 -0.0275  0.7611  0.1962
   42MOL0     C 5572   2.578   3.715   6.906 -0.3174 -0.2161 -0.7495
   42MOL0     C 5573   2.424   3.728   6.905  0.0841 -0.2231 -0.2155
   42MOL0     C 5574   2.388   3.870   6.871 -0.9540 -0.4319 -0.3803
   42MOL0     C 5575   2.238   3.880   6.865  0.7419 -0.1464 -0.2369
   42MOL0     C 5576   2.184   4.038   6.866 -0.8589  0.3392  0.1613
   42MOL0     C 5577   2.053   4.046   6.795 -0.1642 -0.0113  0.4174
   42MOL0     C 5578   2.026   4.191   6.755 -0.6098  0.5430 -0.1180
   42MOL0     C 5579   1.900   4.204   6.667  0.0243  0.2560 -0.2948
   42MOL0    Cl 5580   1.748   4.156   6.743 -0.1021  0.1107  0.5119
   42MOL0     C 5581   2.869   3.742   6.947  0.0599  0.4553  0.7424
   42MOL0     C 5582   2.998   3.767   6.963  0.6309  0.1545 -0.7659
   42MOL0     O 5583   3.147   4.132   7.081  0.1741  0.4912 -0.0428
   42MOL0     C 5584   3.448   3.963   7.083 -0.3340 -0.8383  0.6104
   42MOL0     C 5585   3.579   3.971   7.128  0.2542 -0.9587  0.4358
   42MOL0     N 5586   4.255   4.297   7.082  0.1898  0.3712 -0.2503
   42MOL0     N 5587   4.231   4.294   6.951 -0.4439  0.2493 -0.3525
   42MOL0     C 5588   4.899   4.285   5.915 -0.3966  0.1212 -0.0682
   42MOL0     C 5589   5.004   4.316   5.827 -0.1990  0.1140 -0.2853
   42MOL0     C 5590   5.408   4.485   5.671 -0.6646 -0.3555 -0.5733
   42MOL0     C 5591   5.489   4.371   5.642  0.7374  0.0702  0.3605
   42MOL0     C 5592   5.593   4.396   5.557  0.0222 -0.4519  0.8594
   42MOL0     C 5593   5.621   4.516   5.484 -0.6750 -1.0806 -0.3486
   42MOL0     O 5594   5.727   4.524   5.397 -0.5772 -0.2601 -0.1429
   42MOL0     C 5595   5.721   4.625   5.300  0.0196 -0.6754  0.0834
   42MOL0     C 5596   5.831   4.594   5.196  0.0874  0.8435  0.1260
   42MOL0     C 5597   5.970   4.642   5.234  0.9082 -0.5939 -0.0485
   42MOL0     C 5598   6.072   4.617   5.123 -0.4950 -0.4355 -0.4280
   42MOL0     C 5599   6.201   4.690   5.150  0.6930  0.4457  0.4889
   42MOL0     C 5600   6.314   4.733   5.165 -0.5231 -0.2420  0.5423
   42MOL0     C 5601   5.549   4.635   5.528  0.3016  0.8638  0.7929
   42MOL0     C 5602   5.439   4.614   5.615  0.2551 -0.6916  0.4367
   42MOL0     H 5603   5.246   4.397   6.055 -0.1668  1.5950 -1.7795
   42MOL0     H 5604   5.054   4.342   6.221  4.1358  0.2981 -1.1483
   42MOL0     H 5605   4.730   4.428   6.190  1.3421 -0.3562 -0.4857
   42MOL0     H 5606   4.670   4.376   6.028 -0.5395 -0.7701  0.3113
   42MOL0     H 5607   4.508   4.379   6.189  0.7189  0.1498 -1.2555
   42MOL0     H 5608   4.539   4.210   6.143 -2.5287  0.5618 -0.2828
   42MOL0     H 5609   4.684   4.195   6.354  0.2928 -0.8381 -2.7939
   42MOL0     H 5610   4.622   4.343   6.408  1.0089  0.1686 -0.8803
   42MOL0     H 5611   4.376   4.249   6.406 -0.6880 -0.8389 -1.6581
   42MOL0     H 5612   4.442   4.095   6.385  1.0081 -2.2624  4.4378
   42MOL0     H 5613   4.578   4.106   6.585 -1.7819 -2.4688 -0.4000
   42MOL0     H 5614   4.510   4.268   6.628  0.5997 -1.2414  1.0922
   42MOL0     H 5615   4.370   4.009   6.613 -0.3262 -2.0725  1.9177
   42MOL0     H 5616   4.428   4.081   6.758 -0.7651 -2.7208 -0.8017
   42MOL0     H 5617   4.280   4.300   6.675 -0.6151  0.6821 -0.5479
   42MOL0     H 5618   4.213   4.180   6.569  3.1440  1.4565 -1.9690
   42MOL0     H 5619   4.160   4.038   6.765 -0.8017 -0.5642  4.6042
   42MOL0     H 5620   4.066   4.192   6.766 -0.8521 -0.9959 -0.1104
   42MOL0     H 5621   4.166   3.982   7.023  3.2894 -0.3445 -1.9606
   42MOL0     H 5622   4.277   4.055   7.282  2.8082  1.6582 -0.9698
   42MOL0     H 5623   4.237   4.221   7.329 -0.4211  2.2024 -3.4998
   42MOL0     H 5624   4.040   4.102   7.418 -1.2523 -1.9121  0.2890
   42MOL0     H 5625   4.041   3.988   7.281 -0.3691  0.2979  0.0957
   42MOL0     H 5626   3.923   4.143   7.132 -3.3957 -0.9786  0.5149
   42MOL0     H 5627   3.984   4.283   7.218 -2.3184  1.0132 -0.1107
   42MOL0     H 5628   3.759   4.269   7.258 -0.0867 -1.3873 -2.2420
   42MOL0     H 5629   3.794   4.190   7.410  0.6767  0.4707 -0.1827
   42MOL0     H 5630   3.547   4.199   7.364  0.0429 -0.3434 -0.2804
   42MOL0     H 5631   3.269   4.321   7.263  2.2805 -0.3736 -1.1327
   42MOL0     H 5632   3.187   4.179   7.339 -0.0006 -0.5822  2.1811
   42MOL0     H 5633   3.327   4.238   7.417 -1.2321  0.7074  0.1401
   42MOL0     H 5634   2.971   3.944   7.252 -2.2788  3.4726 -1.2307
   42MOL0     H 5635   2.735   3.881   7.221  0.6238 -0.3421 -0.6726
   42MOL0     H 5636   2.633   3.764   6.825  2.5670  1.1351  1.7995
   42MOL0     H 5637   2.609   3.610   6.898 -0.4380 -0.2840 -0.3649
   42MOL0     H 5638   2.380   3.651   6.840 -2.6176 -0.7647  2.0755
   42MOL0     H 5639   2.381   3.709   7.003  0.9711  1.0811  0.4435
   42MOL0     H 5640   2.430   3.897   6.774 -3.7486  1.0874 -1.2870
   42MOL0     H 5641   2.429   3.934   6.949 -2.4622 -0.7375  0.7124
   42MOL0     H 5642   2.204   3.838   6.770 -1.0830  0.3507  0.1696
   42MOL0     H 5643   2.177   3.835   6.943 -2.4733  0.2211 -2.3266
   42MOL0     H 5644   2.263   4.099   6.821  0.8616  1.0861  3.8051
   42MOL0     H 5645   2.174   4.068   6.971 -0.2179  2.7664 -0.4239
   42MOL0     H 5646   2.045   3.984   6.706 -0.5780 -0.8904  1.0562
   42MOL0     H 5647   1.979   4.028   6.874 -1.9704  0.0372 -1.1750
   42MOL0     H 5648   2.116   4.217   6.698  0.5093 -2.2705  0.2077
   42MOL0     H 5649   2.020   4.248   6.849  1.1390 -2.1667  1.7923
   42MOL0     H 5650   1.911   4.139   6.580  1.9540  0.3971 -0.2062
   42MOL0     H 5651   1.889   4.307   6.631 -0.0592  0.8679  1.3583
   42MOL0     H 5652   2.849   3.683   6.858 -0.3337  1.3011  0.2529
   42MOL0     H 5653   3.063   3.722   6.888 -0.9890  0.7832 -2.6282
   42MOL0     H 5654   3.413   3.897   7.004 -1.1806 -1.3850  1.4165
   42MOL0     H 5655   3.661   3.917   7.083 -1.1805 -1.3934 -1.8238
   42MOL0     H 5656   4.808   4.263   5.859 -0.5678  1.2763 -0.2741
   42MOL0     H 5657   4.981   4.315   5.721 -0.0609  0.5645 -0.3219
   42MOL0     H 5658   5.470   4.268   5.670 -0.7090  0.4167  0.7148
   42MOL0     H 5659   5.663   4.316   5.535 -0.2654  0.0639 -2.4971
   42MOL0     H 5660   5.627   4.611   5.247  0.6675  0.1891 -1.3256
   42MOL0     H 5661   5.726   4.730   5.327 -0.7028  0.7601 -4.5193
   42MOL0     H 5662   5.792   4.629   5.100  1.7217  0.9748 -0.5113
   42MOL0     H 5663   5.836   4.484   5.190  2.0094  0.8703  0.5618
   42MOL0     H 5664   6.010   4.576   5.312  3.0752  1.3118  0.5450
   42MOL0     H 5665   5.967   4.745   5.272 -3.6726 -0.0883 -1.1748
   42MOL0     H 5666   6.033   4.654   5.027 -3.3344 -1.5975  0.2049
   42MOL0     H 5667   6.086   4.509   5.111 -1.0112 -0.2636 -3.4192
   42MOL0     H 5668   6.416   4.762   5.177 -0.4664 -0.5494  0.8293
   42MOL0     H 5669   5.568   4.731   5.483 -1.0045  0.8936  0.2632
   42MOL0     H 5670   5.382   4.703   5.636  1.4778  0.3018 -0.3295
   43MOL0     O 5671   0.588   3.857   0.552 -0.1029  0.5690 -0.3937
   43MOL0     C 5672   0.615   3.978   0.553  1.0312  0.3438  0.4715
   43MOL0     O 5673   0.579   4.071   0.459  1.0007  0.4909 -0.0567
   43MOL0     C 5674   0.546   4.031   0.331 -0.2277 -0.3349  1.0589
   43MOL0     C 5675   0.469   4.120   0.253  0.7142  0.5185  0.3294
   43MOL0     C 5676   0.444   4.098   0.119  0.6335 -0.2148 -0.7261
   43MOL0     C 5677   0.503   3.981   0.059 -0.0462  0.1492  0.0365
   43MOL0     O 5678   0.492   3.950  -0.075 -0.4465 -0.7535  0.5428
   43MOL0     C 5679   0.369   3.990  -0.142 -0.0549 -0.7091 -0.2006
   43MOL0     C 5680   0.346   3.899  -0.261  0.6462 -0.2956  0.5093
   43MOL0     C 5681   0.245   3.975  -0.361 -0.3651  0.8397 -0.2393
   43MOL0     C 5682   0.220   3.871  -0.467 -0.4806  0.8784  0.6271
   43MOL0     C 5683   0.140   3.942  -0.573 -0.5031  0.1328 -0.0504
   43MOL0     C 5684   0.102   3.850  -0.686  1.0379 -0.0214  0.2122
   43MOL0     C 5685   0.034   3.926  -0.799  0.7187  0.2233 -0.2409
   43MOL0     C 5686  -0.102   3.883  -0.832 -0.4859  0.0268 -0.0195
   43MOL0     N 5687  -0.206   3.944  -0.752 -0.5636 -0.5164  0.5725
   43MOL0     C 5688  -0.273   3.887  -0.651  0.2645 -0.3822 -0.1053
   43MOL0     C 5689  -0.345   3.990  -0.594 -0.4489  0.6582 -0.5094
   43MOL0     C 5690  -0.406   3.989  -0.459 -0.4763  0.5066  0.4242
   43MOL0     C 5691  -0.546   3.946  -0.471  0.2483  0.7668  1.0729
   43MOL0     C 5692  -0.614   4.018  -0.580  0.3115  0.2045  0.4753
   43MOL0     C 5693  -0.765   3.982  -0.571  0.1945 -0.4795  0.5965
   43MOL0     O 5694  -0.835   4.102  -0.528 -0.9090  0.5842  0.2632
   43MOL0     C 5695  -0.966   4.102  -0.511 -0.5639  0.6219 -0.2714
   43MOL0     C 5696  -1.031   4.211  -0.466  0.3018 -0.5485 -0.2676
   43MOL0     C 5697  -1.165   4.224  -0.456 -0.5780 -0.9120 -0.7628
   43MOL0     C 5698  -1.213   4.354  -0.389  0.0518 -0.1505  0.5552
   43MOL0     C 5699  -1.250   4.123  -0.498 -0.2978  0.0052 -0.7936
   43MOL0     C 5700  -1.408   4.122  -0.487 -0.9544 -0.2550  0.2131
   43MOL0     O 5701  -1.486   4.016  -0.514 -0.5471  0.5454 -0.1360
   43MOL0     C 5702  -1.608   3.989  -0.477 -0.8679  1.1689 -0.2281
   43MOL0     C 5703  -1.621   3.868  -0.403 -0.3861  0.0673  0.8693
   43MOL0     C 5704  -1.742   3.832  -0.346  0.1053  0.1145 -0.6372
   43MOL0     C 5705  -1.853   3.925  -0.347 -0.8890  0.4829 -0.2011
   43MOL0     O 5706  -1.971   3.899  -0.284 -0.1164 -0.6027 -0.9211
   43MOL0     C 5707  -1.956   3.899  -0.138 -0.0848 -0.3179 -0.3951
   43MOL0     C 5708  -2.101   3.874  -0.088  0.9394  0.5005  0.3607
   43MOL0     C 5709  -2.198   3.980  -0.156 -0.4386 -0.4317  0.3570
   43MOL0     C 5710  -2.339   3.969  -0.099  0.0288 -0.3545  0.0203
   43MOL0     C 5711  -2.402   4.099  -0.146  1.0110  0.3719  0.0162
   43MOL0     C 5712  -2.558   4.078  -0.127 -0.0362  0.4257  0.1850
   43MOL0     C 5713  -2.644   4.193  -0.162 -0.4780 -0.4417  0.1627
   43MOL0     C 5714  -2.625   4.246  -0.307  0.4012 -1.6609  0.3256
   43MOL0    Cl 5715  -2.728   4.395  -0.355 -0.0263  0.3953 -0.0754
   43MOL0     C 5716  -1.844   4.035  -0.429 -0.2484  0.0728  0.9884
   43MOL0     C 5717  -1.716   4.066  -0.490  0.2895  0.4323  1.2924
   43MOL0     O 5718  -1.452   4.218  -0.420  0.0681 -0.1680  0.1150
   43MOL0     C 5719  -1.185   4.001  -0.537  0.0573 -0.3290 -0.5375
   43MOL0     C 5720  -1.051   3.994  -0.547 -0.2403 -0.2373  0.6894
   43MOL0     N 5721  -0.319   4.107  -0.664  0.3850  0.0033  0.3823
   43MOL0     N 5722  -0.238   4.075  -0.756 -0.4349  0.4055  0.1417
   43MOL0     C 5723   0.575   3.892   0.133 -0.1377 -0.3970 -0.3339
   43MOL0     C 5724   0.597   3.915   0.267 -0.3197  0.7500  0.3603
   43MOL0     C 5725   0.703   4.033   0.656 -0.1150 -0.2769  0.5721
   43MOL0     C 5726   0.748   3.957   0.768 -0.0014  0.5630  0.4472
   43MOL0     C 5727   0.833   4.006   0.867  0.0420  0.4173  0.1136
   43MOL0     C 5728   0.882   4.133   0.855 -0.1783  0.1601  1.0748
   43MOL0     O 5729   0.961   4.191   0.947  0.4464  0.3073 -0.0598
   43MOL0     C 5730   0.992   4.115   1.065 -0.3363 -0.9987 -0.4206
   43MOL0     C 5731   1.086   4.203   1.154  0.3610  0.3252  0.0884
   43MOL0     C 5732   1.023   4.334   1.211  0.5675  1.0830  0.0399
   43MOL0     C 5733   1.124   4.438   1.273  0.1268  0.3677 -0.5580
   43MOL0     C 5734   1.153   4.421   1.418  0.0152  0.0734 -0.2028
   43MOL0     C 5735   1.162   4.419   1.538  0.1494  0.2312 -0.7366
   43MOL0     C 5736   0.851   4.207   0.735  1.1176 -0.3463  0.0340
   43MOL0     C 5737   0.768   4.160   0.642 -0.0909  1.4384 -0.0828
   43MOL0     H 5738   0.425   4.205   0.304  1.9643 -0.8095  3.9699
   43MOL0     H 5739   0.390   4.179   0.070  0.7737  1.8582  2.3086
   43MOL0     H 5740   0.278   3.985  -0.082 -0.4771  0.0499 -0.7607
   43MOL0     H 5741   0.385   4.095  -0.166 -0.6929 -0.2853  1.1400
   43MOL0     H 5742   0.445   3.886  -0.306  0.3892 -3.1891  0.5916
   43MOL0     H 5743   0.307   3.799  -0.241 -0.3984  0.4205  2.2439
   43MOL0     H 5744   0.147   3.990  -0.315  1.2662  2.6668  3.0309
   43MOL0     H 5745   0.280   4.071  -0.399  0.3151  0.3653 -0.8567
   43MOL0     H 5746   0.312   3.840  -0.517 -1.5899  1.0633 -1.6482
   43MOL0     H 5747   0.173   3.780  -0.428 -0.0736  0.3571 -0.0816
   43MOL0     H 5748   0.052   3.989  -0.529 -1.8996 -1.0814 -1.4362
   43MOL0     H 5749   0.211   4.004  -0.628  1.7309 -3.3565 -1.4960
   43MOL0     H 5750   0.186   3.792  -0.727 -1.3717 -1.5870 -3.0073
   43MOL0     H 5751   0.040   3.771  -0.643  0.4472  0.3740  0.1044
   43MOL0     H 5752   0.035   4.032  -0.773  2.4023  0.3379 -0.6812
   43MOL0     H 5753   0.095   3.906  -0.887 -0.8542  1.1764 -1.5972
   43MOL0     H 5754  -0.117   3.775  -0.819  3.2071 -0.3274  3.0329
   43MOL0     H 5755  -0.109   3.921  -0.934  4.2522 -0.9897 -0.9669
   43MOL0     H 5756  -0.263   3.790  -0.603 -1.0030  0.5655  2.2354
   43MOL0     H 5757  -0.356   3.914  -0.397 -0.0682  1.3011  1.0645
   43MOL0     H 5758  -0.398   4.088  -0.414 -0.6215  0.6922  0.0504
   43MOL0     H 5759  -0.603   3.977  -0.383  2.0821  2.1853  1.8308
   43MOL0     H 5760  -0.539   3.836  -0.476  2.3175  0.9132 -0.2966
   43MOL0     H 5761  -0.579   3.985  -0.678 -2.0682 -1.5711  0.1511
   43MOL0     H 5762  -0.604   4.127  -0.578  2.8922  0.0321  0.2283
   43MOL0     H 5763  -0.804   3.893  -0.521 -2.5471 -1.3287 -2.6729
   43MOL0     H 5764  -0.782   3.958  -0.676  1.9711 -2.6465  0.7224
   43MOL0     H 5765  -0.966   4.288  -0.426  0.0704  0.3206 -1.5152
   43MOL0     H 5766  -1.251   4.329  -0.290 -0.8903  0.6495  0.4111
   43MOL0     H 5767  -1.126   4.421  -0.380  1.3984 -1.9430  1.4133
   43MOL0     H 5768  -1.282   4.417  -0.445 -1.1623 -0.1496  2.0041
   43MOL0     H 5769  -1.528   3.810  -0.406 -0.6087 -0.2697 -1.4347
   43MOL0     H 5770  -1.755   3.742  -0.287  2.0149  0.3472  0.1900
   43MOL0     H 5771  -1.884   3.821  -0.110  0.4791  0.7385  1.2620
   43MOL0     H 5772  -1.919   3.994  -0.099  2.1653 -0.8900 -1.0124
   43MOL0     H 5773  -2.143   3.778  -0.118 -1.1397  1.6143 -0.4830
   43MOL0     H 5774  -2.103   3.884   0.021  2.2652 -3.4258  0.8890
   43MOL0     H 5775  -2.202   3.960  -0.263 -0.8309  1.7994 -0.0961
   43MOL0     H 5776  -2.168   4.085  -0.147 -0.6795 -0.4073  0.9300
   43MOL0     H 5777  -2.379   3.873  -0.135  0.9791 -1.1660  1.0637
   43MOL0     H 5778  -2.342   3.958   0.009  0.0671  2.2991  0.3449
   43MOL0     H 5779  -2.372   4.127  -0.248  2.3988  0.6055  0.4747
   43MOL0     H 5780  -2.373   4.175  -0.074  2.6590  1.3019 -1.5543
   43MOL0     H 5781  -2.592   3.992  -0.185 -0.5662  3.1412 -3.9683
   43MOL0     H 5782  -2.574   4.053  -0.022  1.6181  0.1684  0.4016
   43MOL0     H 5783  -2.641   4.280  -0.096  0.9987 -0.1938 -0.2020
   43MOL0     H 5784  -2.747   4.158  -0.150 -0.5395 -0.5508 -0.6352
   43MOL0     H 5785  -2.636   4.171  -0.385 -3.0765  0.3137 -1.3136
   43MOL0     H 5786  -2.523   4.280  -0.325  0.4043 -0.8058  1.8036
   43MOL0     H 5787  -1.935   4.090  -0.451  1.0070  1.1606 -1.9484
   43MOL0     H 5788  -1.707   4.149  -0.560  0.3279 -1.1735 -0.6927
   43MOL0     H 5789  -1.237   3.911  -0.569  1.0552 -0.9779 -0.3950
   43MOL0     H 5790  -1.011   3.894  -0.566 -2.5340 -1.3859  1.5110
   43MOL0     H 5791   0.609   3.801   0.085 -3.3525 -1.4730 -0.8635
   43MOL0     H 5792   0.651   3.838   0.320  0.1284 -0.0173 -1.1547
   43MOL0     H 5793   0.715   3.854   0.780 -5.1472  1.5993 -2.2575
   43MOL0     H 5794   0.861   3.937   0.947 -0.3732  1.0817  0.8471
   43MOL0     H 5795   0.903   4.095   1.125 -0.6528  1.5222  0.0481
   43MOL0     H 5796   1.052   4.026   1.045  0.8922 -0.0164 -1.2912
   43MOL0     H 5797   1.170   4.239   1.094  0.8458 -0.5595  0.2228
   43MOL0     H 5798   1.114   4.128   1.228 -1.1136  1.1222  1.5352
   43MOL0     H 5799   0.942   4.299   1.276  0.7523  1.3853  0.4367
   43MOL0     H 5800   0.969   4.389   1.133  1.2068 -4.0155 -4.6384
   43MOL0     H 5801   1.082   4.538   1.278 -0.1552  0.1931  1.5952
   43MOL0     H 5802   1.213   4.441   1.210  2.9176  0.9723  3.0248
   43MOL0     H 5803   1.171   4.423   1.644 -0.5369  3.3114 -0.6834
   43MOL0     H 5804   0.891   4.307   0.724  0.9249  0.0401  2.3413
   43MOL0     H 5805   0.732   4.229   0.567 -5.1272 -1.6237 -0.9346
   44MOL0     O 5806   3.937  11.041  10.361 -0.4903 -0.3921  0.4381
   44MOL0     C 5807   3.971  11.158  10.333 -0.8462  0.6101 -0.1582
   44MOL0     O 5808   3.884  11.254  10.310  0.1546 -0.4399  0.2879
   44MOL0     C 5809   3.753  11.220  10.335 -1.2483  0.9188 -0.5289
   44MOL0     C 5810   3.678  11.287  10.434  1.0961  0.1070 -0.1505
   44MOL0     C 5811   3.535  11.258  10.450 -0.3397  0.0333 -0.6243
   44MOL0     C 5812   3.471  11.169  10.371 -0.1538  0.0217  0.1745
   44MOL0     O 5813   3.344  11.163  10.388  0.9563 -0.5604  0.4333
   44MOL0     C 5814   3.288  11.030  10.378 -0.4899  0.2438 -0.1700
   44MOL0     C 5815   3.140  11.039  10.398 -0.2612 -0.9042  0.0586
   44MOL0     C 5816   3.092  11.115  10.522  0.3562 -1.6742  0.7434
   44MOL0     C 5817   2.948  11.086  10.532  0.4606 -0.5263 -0.6860
   44MOL0     C 5818   2.886  11.099  10.672 -0.2104  0.5536 -0.5520
   44MOL0     C 5819   2.728  11.065  10.653 -0.3435 -0.5060  0.1274
   44MOL0     C 5820   2.648  11.106  10.773  0.4895 -0.0571  0.4409
   44MOL0     C 5821   2.556  10.998  10.822  0.4679  0.4433 -0.4109
   44MOL0     N 5822   2.438  10.968  10.740 -0.2102  0.0332  0.5597
   44MOL0     C 5823   2.378  11.063  10.663 -0.3961  0.5219 -0.0492
   44MOL0     C 5824   2.259  11.012  10.622 -0.9783  0.8735 -0.2086
   44MOL0     C 5825   2.162  11.066  10.518 -0.1138 -1.4213 -0.0395
   44MOL0     C 5826   2.117  11.200  10.552 -0.2511 -0.2093 -0.1484
   44MOL0     C 5827   2.012  11.262  10.454 -0.1077 -0.2714  0.3593
   44MOL0     C 5828   1.899  11.166  10.420  0.4019 -0.1440  0.2601
   44MOL0     O 5829   1.824  11.141  10.543  0.4285  0.2599 -0.7450
   44MOL0     C 5830   1.700  11.087  10.534  0.1460  0.0160  0.4326
   44MOL0     C 5831   1.626  11.059  10.415  0.0682  0.4887  0.3037
   44MOL0     C 5832   1.497  11.005  10.414  0.3029 -0.1966  0.5761
   44MOL0     C 5833   1.440  10.991  10.271 -0.8867 -0.1222  1.1550
   44MOL0     C 5834   1.423  10.987  10.536  0.5688 -0.0325  0.3670
   44MOL0     C 5835   1.282  10.938  10.547  0.5374  0.5729 -0.7038
   44MOL0     O 5836   1.191  10.988  10.457  0.6479  0.1125  0.8727
   44MOL0     C 5837   1.057  10.943  10.458 -0.1610 -0.4792  0.2717
   44MOL0     C 5838   1.008  10.858  10.358 -0.1251  1.1525 -0.3372
   44MOL0     C 5839   0.878  10.823  10.355 -0.4360  0.7609 -0.3735
   44MOL0     C 5840   0.783  10.874  10.450 -0.3368  0.2759  0.3413
   44MOL0     O 5841   0.659  10.811  10.441  0.2699  0.1277 -0.1659
   44MOL0     C 5842   0.568  10.846  10.546  0.7157  0.0414 -0.1363
   44MOL0     C 5843   0.426  10.784  10.526  0.5819 -0.7922  0.5264
   44MOL0     C 5844   0.364  10.840  10.391 -0.3401 -0.0396  0.1679
   44MOL0     C 5845   0.306  10.977  10.394  0.3399  0.5376 -0.2147
   44MOL0     C 5846   0.204  11.009  10.504 -1.1082 -0.9967  0.6843
   44MOL0     C 5847   0.066  10.955  10.486 -0.2673 -1.0550  0.1935
   44MOL0     C 5848  -0.019  10.990  10.611 -0.2485  0.3485 -0.4357
   44MOL0     C 5849  -0.143  10.906  10.607 -1.0004  0.0562 -0.7654
   44MOL0    Cl 5850  -0.111  10.729  10.614 -0.2335  0.3261  0.2192
   44MOL0     C 5851   0.825  10.952  10.554 -0.0873 -0.2789 -0.2416
   44MOL0     C 5852   0.960  10.983  10.558 -0.1968  0.4186 -0.2359
   44MOL0     O 5853   1.250  10.878  10.656  0.2011 -0.1049  0.2360
   44MOL0     C 5854   1.490  11.035  10.652  0.3269  0.8590 -0.3015
   44MOL0     C 5855   1.623  11.077  10.645  0.1628 -0.0333  0.1044
   44MOL0     N 5856   2.254  10.885  10.676 -0.1737  0.5554 -0.3520
   44MOL0     N 5857   2.353  10.863  10.751  0.3962 -0.5995 -0.2768
   44MOL0     C 5858   3.552  11.101  10.278  0.7831  0.0747  1.0465
   44MOL0     C 5859   3.686  11.132  10.246 -0.0408 -0.1590 -0.8571
   44MOL0     C 5860   4.120  11.187  10.310  0.1533 -0.1552 -0.0072
   44MOL0     C 5861   4.171  11.298  10.250 -0.2946 -0.7823 -0.7932
   44MOL0     C 5862   4.301  11.311  10.207 -0.2048 -0.0399  0.3582
   44MOL0     C 5863   4.398  11.215  10.235  0.1814 -0.2987 -0.4321
   44MOL0     O 5864   4.533  11.218  10.201 -0.6243 -0.2636 -0.4897
   44MOL0     C 5865   4.570  11.334  10.129  0.3431 -0.8227 -0.1407
   44MOL0     C 5866   4.729  11.329  10.124  0.3337 -0.0185 -0.6166
   44MOL0     C 5867   4.777  11.209  10.038 -0.7140 -0.7364  0.2021
   44MOL0     C 5868   4.928  11.208  10.028 -0.0233 -0.2209  0.0129
   44MOL0     C 5869   4.960  11.320   9.938 -0.3741 -0.3209  0.3199
   44MOL0     C 5870   4.964  11.401   9.845 -0.4964 -0.4749  0.1300
   44MOL0     C 5871   4.355  11.111  10.313  0.1669  1.4553  0.0339
   44MOL0     C 5872   4.222  11.101  10.351  0.3314 -0.1617  0.0945
   44MOL0     H 5873   3.736  11.353  10.497  4.9285 -0.9520 -2.2428
   44MOL0     H 5874   3.476  11.309  10.526  1.7011  0.2558  0.9169
   44MOL0     H 5875   3.309  10.976  10.285 -0.3646 -0.0476  0.0288
   44MOL0     H 5876   3.318  10.965  10.460 -0.1584 -1.0914 -1.3047
   44MOL0     H 5877   3.105  11.087  10.306  1.9351  0.3140 -0.1924
   44MOL0     H 5878   3.103  10.936  10.394  1.2540 -1.4483 -2.3403
   44MOL0     H 5879   3.146  11.082  10.612  2.1412 -0.7310  0.0731
   44MOL0     H 5880   3.109  11.223  10.516 -1.8442 -1.2942  0.6305
   44MOL0     H 5881   2.897  11.155  10.463 -3.9088 -3.9624 -1.3917
   44MOL0     H 5882   2.925  10.989  10.487  0.3898 -0.6347 -0.4168
   44MOL0     H 5883   2.925  11.013  10.728 -1.6041  0.9724  1.1421
   44MOL0     H 5884   2.905  11.195  10.721  0.6279  0.0925  0.0536
   44MOL0     H 5885   2.687  11.116  10.566 -1.0921  3.3816  2.5090
   44MOL0     H 5886   2.732  10.958  10.631 -1.0118 -0.5346  0.1272
   44MOL0     H 5887   2.721  11.142  10.846  2.3896  2.4072 -2.4014
   44MOL0     H 5888   2.602  11.203  10.752  0.2300 -0.7700 -2.7659
   44MOL0     H 5889   2.512  11.040  10.913  2.5168  1.7655  0.0194
   44MOL0     H 5890   2.609  10.907  10.848 -1.5290 -0.9112 -0.8411
   44MOL0     H 5891   2.412  11.163  10.642 -1.3060  0.5687 -1.4079
   44MOL0     H 5892   2.220  11.089  10.428  0.6811 -1.6301  0.4105
   44MOL0     H 5893   2.083  10.997  10.489 -2.1961  0.8175 -0.0684
   44MOL0     H 5894   2.196  11.275  10.561 -2.2905  2.0639 -0.1618
   44MOL0     H 5895   2.057  11.201  10.644 -1.2975 -3.2456 -0.6800
   44MOL0     H 5896   2.060  11.295  10.361 -1.2458 -0.3149 -0.2655
   44MOL0     H 5897   1.963  11.349  10.500 -2.2915 -1.1123 -0.2198
   44MOL0     H 5898   1.940  11.075  10.375 -1.2717 -0.8794  0.1569
   44MOL0     H 5899   1.848  11.215  10.338  1.1538  0.8569  0.3634
   44MOL0     H 5900   1.672  11.074  10.318 -0.1835  2.7041  0.4738
   44MOL0     H 5901   1.376  11.078  10.253  1.2350  0.7975 -3.4726
   44MOL0     H 5902   1.519  10.986  10.195 -0.8979 -3.3430  1.2139
   44MOL0     H 5903   1.382  10.901  10.250 -0.4416  0.0854 -1.3287
   44MOL0     H 5904   1.066  10.818  10.275 -1.0047 -0.7208 -0.1138
   44MOL0     H 5905   0.843  10.758  10.276 -0.5723  0.6103 -0.1894
   44MOL0     H 5906   0.600  10.815  10.646  1.0825 -1.2950 -0.6446
   44MOL0     H 5907   0.554  10.954  10.556 -3.0958 -0.4809  1.8670
   44MOL0     H 5908   0.436  10.675  10.516  0.0320 -0.6772 -1.7652
   44MOL0     H 5909   0.367  10.795  10.618 -3.6051  2.0880 -2.1466
   44MOL0     H 5910   0.285  10.767  10.369  1.4177 -1.4995 -1.7293
   44MOL0     H 5911   0.434  10.833  10.307 -1.1067 -0.2338 -0.4798
   44MOL0     H 5912   0.371  11.060  10.422  0.6079  0.2768 -0.0627
   44MOL0     H 5913   0.269  10.991  10.292  1.4110  1.7148 -0.4669
   44MOL0     H 5914   0.178  11.115  10.518 -2.2511 -1.0718 -0.6767
   44MOL0     H 5915   0.245  10.977  10.600 -0.0243  0.8914  0.9022
   44MOL0     H 5916   0.018  11.012  10.405 -0.0115  1.4999  1.7348
   44MOL0     H 5917   0.064  10.848  10.465  0.1474 -0.8545 -0.9359
   44MOL0     H 5918  -0.044  11.096  10.601  0.4566  0.5274 -0.3198
   44MOL0     H 5919   0.027  10.975  10.709  0.6183  0.0956 -0.8703
   44MOL0     H 5920  -0.200  10.946  10.522 -2.7466  1.2373  0.8848
   44MOL0     H 5921  -0.204  10.921  10.696  0.0115 -0.1563 -0.0251
   44MOL0     H 5922   0.766  10.979  10.641 -1.2384  0.5481 -1.2361
   44MOL0     H 5923   1.005  11.026  10.647 -0.7100 -1.3364  0.9318
   44MOL0     H 5924   1.441  11.040  10.749  2.1652  0.1333  0.7097
   44MOL0     H 5925   1.669  11.104  10.739  0.3244 -2.1872  0.6851
   44MOL0     H 5926   3.496  11.034  10.213 -0.1151  2.0107 -0.2801
   44MOL0     H 5927   3.734  11.080  10.164  1.2132 -1.6092  0.7387
   44MOL0     H 5928   4.103  11.380  10.226 -1.0327 -0.9769  0.5404
   44MOL0     H 5929   4.328  11.410  10.172 -1.7780 -0.4060 -2.1313
   44MOL0     H 5930   4.529  11.324  10.028 -2.4070  2.3377  0.5014
   44MOL0     H 5931   4.529  11.417  10.187  0.4501 -0.1061 -1.0708
   44MOL0     H 5932   4.770  11.315  10.225  1.6358 -3.0896 -1.4618
   44MOL0     H 5933   4.763  11.428  10.094  3.8117 -0.1535  2.1493
   44MOL0     H 5934   4.729  11.209   9.939 -1.7963 -1.4465  0.7030
   44MOL0     H 5935   4.757  11.113  10.086  2.8707 -2.2906 -1.0328
   44MOL0     H 5936   4.975  11.118   9.988  0.8014 -0.0884  0.6374
   44MOL0     H 5937   4.970  11.234  10.126 -2.2649  4.1891  0.0762
   44MOL0     H 5938   4.978  11.464   9.759  0.1200 -2.0774 -1.0053
   44MOL0     H 5939   4.430  11.053  10.366  0.8012  0.3240 -1.9929
   44MOL0     H 5940   4.190  11.019  10.414  1.6485 -0.0287  0.9794
   45MOL0     O 5941   5.384   2.818   8.819  0.5404  0.1985 -0.1338
   45MOL0     C 5942   5.438   2.729   8.884 -0.0028  0.2481 -0.2624
   45MOL0     O 5943   5.375   2.656   8.978 -0.5447  0.1736  0.6812
   45MOL0     C 5944   5.241   2.671   8.999 -0.2274 -0.1418 -0.1270
   45MOL0     C 5945   5.198   2.755   9.102 -0.0513  0.2273 -0.5243
   45MOL0     C 5946   5.063   2.777   9.124 -0.2486 -0.1781 -0.4438
   45MOL0     C 5947   4.967   2.724   9.044  0.9475  0.3824 -0.6993
   45MOL0     O 5948   4.838   2.742   9.078  0.3334  0.2618  0.0917
   45MOL0     C 5949   4.799   2.659   9.191  0.3087  1.0283 -0.3174
   45MOL0     C 5950   4.649   2.633   9.209  0.1065  0.0930  0.1381
   45MOL0     C 5951   4.579   2.549   9.104  1.0000  0.3091 -0.3465
   45MOL0     C 5952   4.438   2.512   9.161 -0.3809 -0.5113 -0.1362
   45MOL0     C 5953   4.380   2.388   9.089 -0.0621 -0.2098 -0.0093
   45MOL0     C 5954   4.258   2.346   9.167  0.5681 -0.6120 -0.1044
   45MOL0     C 5955   4.187   2.229   9.090 -1.3769 -0.6332 -0.0669
   45MOL0     C 5956   4.060   2.189   9.155  0.2177  0.5404  0.2928
   45MOL0     N 5957   3.994   2.075   9.094 -0.3748  0.6926 -0.2463
   45MOL0     C 5958   3.924   2.080   8.969 -0.4169  0.4031  0.2540
   45MOL0     C 5959   3.892   1.958   8.939  0.2525  0.1454 -0.5953
   45MOL0     C 5960   3.818   1.914   8.820  0.7342  0.5858 -0.4211
   45MOL0     C 5961   3.676   1.958   8.809 -0.3632  0.2113 -1.1685
   45MOL0     C 5962   3.629   1.977   8.663  0.2010 -0.0218  0.1102
   45MOL0     C 5963   3.659   1.863   8.556  0.3784 -0.2078 -0.0403
   45MOL0     O 5964   3.805   1.858   8.520 -0.0430 -0.4837  0.2925
   45MOL0     C 5965   3.839   1.776   8.416  0.1885 -0.5445  0.2453
   45MOL0     C 5966   3.747   1.704   8.340  0.3700 -0.1216  0.2340
   45MOL0     C 5967   3.790   1.627   8.231  0.8669  0.0046  0.6126
   45MOL0     C 5968   3.687   1.560   8.150  0.0459  0.1869 -1.2941
   45MOL0     C 5969   3.925   1.619   8.195 -0.1136  0.0638  1.0278
   45MOL0     C 5970   3.985   1.531   8.087  0.3708  0.4943  0.2519
   45MOL0     O 5971   4.083   1.586   8.009 -0.3323 -0.0725  0.1206
   45MOL0     C 5972   4.119   1.516   7.894 -0.0445 -0.5059  0.1564
   45MOL0     C 5973   4.052   1.499   7.766  0.2767  0.3423 -0.1069
   45MOL0     C 5974   4.108   1.427   7.664  0.0135  0.2326  0.4603
   45MOL0     C 5975   4.237   1.383   7.672 -0.3962 -0.4024 -0.2305
   45MOL0     O 5976   4.283   1.315   7.556  0.2331 -0.8660  0.8556
   45MOL0     C 5977   4.404   1.250   7.572  0.4098 -0.0428  0.8220
   45MOL0     C 5978   4.443   1.160   7.457 -0.5371  0.4838  0.6462
   45MOL0     C 5979   4.591   1.117   7.466 -0.4143  0.2671  0.1817
   45MOL0     C 5980   4.644   1.046   7.344  0.2702 -0.3499 -0.3946
   45MOL0     C 5981   4.771   0.981   7.380  0.1976 -0.8784  0.6428
   45MOL0     C 5982   4.830   0.918   7.247  0.1068  0.7644 -0.3028
   45MOL0     C 5983   4.953   0.841   7.292  0.2833 -0.5157 -0.0448
   45MOL0     C 5984   5.013   0.782   7.164  0.7017  0.0301 -0.2053
   45MOL0    Cl 5985   5.107   0.916   7.090  0.1126 -0.4668 -0.3416
   45MOL0     C 5986   4.315   1.394   7.797 -0.0757 -0.3386  0.7356
   45MOL0     C 5987   4.247   1.460   7.905 -0.5045 -0.2071 -0.1453
   45MOL0     O 5988   3.942   1.413   8.073  0.6973 -0.6922  0.9074
   45MOL0     C 5989   4.020   1.689   8.271  0.6126 -0.1136 -0.7106
   45MOL0     C 5990   3.974   1.763   8.388  0.4527 -0.0331  0.5574
   45MOL0     N 5991   3.927   1.872   9.049  0.1231 -0.1603 -0.1429
   45MOL0     N 5992   3.985   1.939   9.140 -0.2060 -0.2971 -0.1847
   45MOL0     C 5993   5.006   2.644   8.933  0.2069 -0.6453 -0.1551
   45MOL0     C 5994   5.144   2.624   8.913  0.0298  1.3187  0.4063
   45MOL0     C 5995   5.576   2.693   8.843 -0.3768  0.3880 -0.4938
   45MOL0     C 5996   5.661   2.632   8.945  0.3519  0.5479 -0.6099
   45MOL0     C 5997   5.791   2.603   8.909  0.5128 -0.1685  0.8059
   45MOL0     C 5998   5.837   2.640   8.777 -0.3875  0.2392  0.4537
   45MOL0     O 5999   5.963   2.618   8.732 -0.1870 -0.2039  0.3188
   45MOL0     C 6000   6.066   2.566   8.814  0.2611  0.0639 -0.5142
   45MOL0     C 6001   6.205   2.549   8.742 -0.0843  0.1791 -0.6750
   45MOL0     C 6002   6.289   2.436   8.818 -0.2263 -0.5287 -0.0731
   45MOL0     C 6003   6.422   2.411   8.749 -0.3758  0.5449 -0.2990
   45MOL0     C 6004   6.507   2.313   8.827 -0.4620 -0.6937 -0.0872
   45MOL0     C 6005   6.574   2.231   8.886  0.4026 -1.0234 -0.0722
   45MOL0     C 6006   5.750   2.692   8.682 -0.7530  0.0580  0.2530
   45MOL0     C 6007   5.620   2.708   8.710  0.2102  0.3797  0.7629
   45MOL0     H 6008   5.280   2.805   9.153  0.7219 -1.1242 -0.3959
   45MOL0     H 6009   5.022   2.837   9.206 -2.3884 -0.3286 -1.3279
   45MOL0     H 6010   4.852   2.563   9.191 -0.4926  0.4224 -4.3310
   45MOL0     H 6011   4.830   2.710   9.283 -1.2594  2.1563 -0.3741
   45MOL0     H 6012   4.621   2.588   9.304 -0.0295  0.6596  0.3683
   45MOL0     H 6013   4.592   2.725   9.192  0.9704  0.3684 -1.4911
   45MOL0     H 6014   4.568   2.590   9.003 -2.0975  4.0865  1.2849
   45MOL0     H 6015   4.641   2.458   9.109  0.1007 -0.2696  0.5316
   45MOL0     H 6016   4.442   2.489   9.267 -1.9602 -1.0035 -0.1502
   45MOL0     H 6017   4.378   2.603   9.154 -0.1243 -0.1753  1.5981
   45MOL0     H 6018   4.350   2.421   8.989  0.1758 -0.8858 -0.3107
   45MOL0     H 6019   4.448   2.302   9.087  3.9300  2.5839  2.1564
   45MOL0     H 6020   4.284   2.304   9.264  2.3542  0.0448 -0.2568
   45MOL0     H 6021   4.191   2.430   9.183  0.6961 -0.8357  1.7516
   45MOL0     H 6022   4.181   2.258   8.985  1.3419 -1.4701 -0.5069
   45MOL0     H 6023   4.256   2.144   9.096 -0.4200  0.1874  0.6477
   45MOL0     H 6024   3.987   2.270   9.143 -0.8150 -0.6072 -1.7059
   45MOL0     H 6025   4.084   2.169   9.260  1.9126 -0.3512 -0.2382
   45MOL0     H 6026   3.911   2.160   8.897 -3.1559  0.7313  1.0257
   45MOL0     H 6027   3.864   1.960   8.732 -0.7814  0.3168 -1.3921
   45MOL0     H 6028   3.840   1.807   8.814  1.0604  0.6141  0.2041
   45MOL0     H 6029   3.667   2.045   8.875  1.7977 -0.4996  0.1514
   45MOL0     H 6030   3.616   1.881   8.858  0.0374  0.7369  0.1814
   45MOL0     H 6031   3.678   2.068   8.628  0.2419 -0.3113 -0.6149
   45MOL0     H 6032   3.524   2.006   8.669  0.3711  0.9730 -1.1609
   45MOL0     H 6033   3.595   1.882   8.470  2.0531 -0.8807 -1.4963
   45MOL0     H 6034   3.639   1.766   8.603 -1.2136  0.0519 -0.1082
   45MOL0     H 6035   3.640   1.698   8.359  0.0956 -0.2550 -1.2369
   45MOL0     H 6036   3.601   1.625   8.137  0.3233  0.4290 -1.9281
   45MOL0     H 6037   3.709   1.543   8.044 -2.5666  1.4312 -2.1189
   45MOL0     H 6038   3.657   1.477   8.215 -1.1804  2.5377  1.3241
   45MOL0     H 6039   3.950   1.527   7.746  0.6130  0.4862 -1.7680
   45MOL0     H 6040   4.041   1.425   7.578 -0.3863 -0.3354  0.7739
   45MOL0     H 6041   4.482   1.327   7.578 -1.0164  1.3319  4.0413
   45MOL0     H 6042   4.422   1.182   7.656  4.2565 -1.9808 -1.2622
   45MOL0     H 6043   4.379   1.072   7.446  1.0494 -1.1958  3.4643
   45MOL0     H 6044   4.426   1.228   7.373 -1.7232  1.6873  1.8039
   45MOL0     H 6045   4.603   1.049   7.551  3.6153  2.9291  2.0514
   45MOL0     H 6046   4.663   1.193   7.496  1.4491 -0.9324 -1.0641
   45MOL0     H 6047   4.569   0.970   7.319  1.8581 -2.7928  1.7306
   45MOL0     H 6048   4.642   1.108   7.255  0.2044 -1.2541 -1.0396
   45MOL0     H 6049   4.759   0.905   7.458  0.8958 -0.8654  0.7681
   45MOL0     H 6050   4.837   1.057   7.424  0.1178 -2.0691  2.9969
   45MOL0     H 6051   4.749   0.853   7.212  0.0742  0.2090  0.7874
   45MOL0     H 6052   4.864   0.993   7.175  2.9727 -0.5686 -0.4484
   45MOL0     H 6053   4.929   0.753   7.352  0.4127  0.1486  0.9950
   45MOL0     H 6054   5.021   0.899   7.356 -1.1919 -1.5798  2.6482
   45MOL0     H 6055   4.929   0.746   7.103  0.8731  0.2706 -0.5888
   45MOL0     H 6056   5.070   0.696   7.198 -0.7143 -0.4473  1.0870
   45MOL0     H 6057   4.418   1.363   7.809  0.6859  0.8791 -2.0580
   45MOL0     H 6058   4.301   1.479   7.998 -0.1865 -1.9446  0.0512
   45MOL0     H 6059   4.126   1.673   8.255  0.4942 -0.4599 -1.1675
   45MOL0     H 6060   4.055   1.811   8.442 -0.6472  4.5023 -1.3699
   45MOL0     H 6061   4.931   2.600   8.868  0.9387 -3.0583  0.5017
   45MOL0     H 6062   5.171   2.555   8.834 -1.7650  0.4459  0.5079
   45MOL0     H 6063   5.620   2.610   9.043 -2.2783  0.5029 -1.6137
   45MOL0     H 6064   5.853   2.552   8.982 -0.1808 -0.9917  0.8271
   45MOL0     H 6065   6.068   2.634   8.900  5.1625 -1.8545  1.2807
   45MOL0     H 6066   6.031   2.468   8.848  2.8852 -0.4948  0.8319
   45MOL0     H 6067   6.259   2.644   8.749 -0.7287  0.4776  0.4505
   45MOL0     H 6068   6.190   2.516   8.638  3.7543 -0.6985 -1.1075
   45MOL0     H 6069   6.234   2.341   8.817 -1.2780  0.0552 -1.0945
   45MOL0     H 6070   6.304   2.470   8.920 -0.4030  1.1327 -0.5715
   45MOL0     H 6071   6.481   2.502   8.732 -1.6016  1.2886 -0.6784
   45MOL0     H 6072   6.395   2.357   8.657 -0.8973  1.5681 -0.7637
   45MOL0     H 6073   6.623   2.152   8.939  0.1093 -2.9530 -2.4885
   45MOL0     H 6074   5.791   2.730   8.589 -0.8222  0.2745  0.3099
   45MOL0     H 6075   5.555   2.743   8.631 -0.5142  1.1813  1.6835
   46MOL0     O 6076   0.958   5.693   2.690  0.0181 -0.4390  0.1653
   46MOL0     C 6077   0.974   5.660   2.811 -0.9278  0.4484 -0.1178
   46MOL0     O 6078   1.076   5.587   2.867  0.8240  0.1835  0.1299
   46MOL0     C 6079   1.201   5.589   2.806  0.8221  0.2118  0.6077
   46MOL0     C 6080   1.261   5.686   2.724 -0.0895 -0.1546  0.7877
   46MOL0     C 6081   1.387   5.675   2.667  0.8975 -0.1985  0.1892
   46MOL0     C 6082   1.456   5.552   2.681 -0.8936 -0.6732 -0.2809
   46MOL0     O 6083   1.578   5.558   2.625  0.3464  0.0964 -0.0426
   46MOL0     C 6084   1.687   5.481   2.671  0.3360  0.3939 -0.1043
   46MOL0     C 6085   1.813   5.541   2.609  0.2961  0.7423 -0.4182
   46MOL0     C 6086   1.835   5.687   2.611 -0.1179  0.9099 -0.4504
   46MOL0     C 6087   1.829   5.725   2.757 -0.2288  0.3956  0.1056
   46MOL0     C 6088   1.846   5.883   2.767 -0.1806 -0.0731  0.2300
   46MOL0     C 6089   1.737   5.968   2.694 -0.1024  0.4643 -0.0092
   46MOL0     C 6090   1.732   6.123   2.741  0.2712  1.3113  0.1114
   46MOL0     C 6091   1.867   6.186   2.717  0.0140 -0.3790  0.3621
   46MOL0     N 6092   1.872   6.188   2.574  0.5051 -0.5536  0.0501
   46MOL0     C 6093   1.960   6.117   2.500 -0.5006  0.4776  0.3373
   46MOL0     C 6094   1.962   6.179   2.381  0.0272  0.1537 -0.4748
   46MOL0     C 6095   2.051   6.141   2.261  1.6694 -0.8804 -1.1442
   46MOL0     C 6096   2.018   6.009   2.198 -0.1174  0.0012 -0.3214
   46MOL0     C 6097   1.867   5.979   2.173 -0.3515  0.0535 -0.1842
   46MOL0     C 6098   1.802   6.085   2.083  0.9195  0.6942  0.5646
   46MOL0     O 6099   1.681   6.036   2.021  0.2100  0.0737  0.0150
   46MOL0     C 6100   1.565   6.010   2.092 -0.0820  0.0425 -0.2239
   46MOL0     C 6101   1.542   6.045   2.227 -1.0147  0.0879  0.1599
   46MOL0     C 6102   1.409   6.033   2.281  0.3089 -0.0147  0.6397
   46MOL0     C 6103   1.401   6.062   2.433  0.0374  0.7391  0.7074
   46MOL0     C 6104   1.300   5.970   2.206  0.4048  0.6246 -0.1101
   46MOL0     C 6105   1.159   5.960   2.260  0.1878 -0.3435  0.2348
   46MOL0     O 6106   1.075   5.878   2.198 -0.2050  0.3579  0.1814
   46MOL0     C 6107   0.947   5.849   2.242 -0.9606 -0.5385  0.7759
   46MOL0     C 6108   0.921   5.812   2.375  0.2105 -0.3744  0.4221
   46MOL0     C 6109   0.787   5.779   2.411 -0.1039 -0.0868  0.1287
   46MOL0     C 6110   0.692   5.796   2.310  1.4562  0.2581 -0.2343
   46MOL0     O 6111   0.557   5.781   2.352  0.5805  0.1243  1.0302
   46MOL0     C 6112   0.445   5.745   2.265  0.3308  0.1231  0.1217
   46MOL0     C 6113   0.467   5.602   2.209  0.9747  0.1868  0.0239
   46MOL0     C 6114   0.331   5.565   2.128  0.3913 -0.0148 -0.8146
   46MOL0     C 6115   0.363   5.451   2.030  0.2569  0.5030  1.3375
   46MOL0     C 6116   0.250   5.408   1.943 -0.0833 -0.2356  0.0455
   46MOL0     C 6117   0.100   5.405   2.006 -0.0482 -0.3619  0.8677
   46MOL0     C 6118   0.002   5.398   1.889  0.0933 -0.9481  0.5647
   46MOL0     C 6119  -0.137   5.404   1.939  0.5290  0.3594 -0.0942
   46MOL0    Cl 6120  -0.254   5.342   1.810 -0.5760  0.2790 -0.1204
   46MOL0     C 6121   0.720   5.824   2.174 -0.2565  0.5316  0.4900
   46MOL0     C 6122   0.851   5.853   2.140 -0.6725  0.2313  0.0681
   46MOL0     O 6123   1.123   6.028   2.359 -0.3034  0.7312  0.8711
   46MOL0     C 6124   1.327   5.927   2.076 -0.4043  0.6151  0.2449
   46MOL0     C 6125   1.456   5.952   2.018 -0.9239 -0.2771 -0.6684
   46MOL0     N 6126   1.889   6.296   2.382 -0.4100 -0.8311 -0.1328
   46MOL0     N 6127   1.827   6.296   2.497 -0.8459  0.2772 -0.8975
   46MOL0     C 6128   1.410   5.455   2.771  0.2359  0.0979  0.1780
   46MOL0     C 6129   1.282   5.474   2.817 -1.0581  0.4643 -0.3321
   46MOL0     C 6130   0.872   5.704   2.900  0.4776 -0.5976  0.7144
   46MOL0     C 6131   0.906   5.728   3.035 -0.1045 -0.0384  0.0020
   46MOL0     C 6132   0.804   5.753   3.122  0.4146  0.3490  0.2622
   46MOL0     C 6133   0.671   5.772   3.086  0.6423 -0.3659  0.1548
   46MOL0     O 6134   0.563   5.808   3.169 -0.4698 -0.5638 -0.1739
   46MOL0     C 6135   0.587   5.826   3.309 -0.2039  0.9727 -0.5774
   46MOL0     C 6136   0.609   5.691   3.385  0.8607 -0.1422 -0.9549
   46MOL0     C 6137   0.642   5.729   3.542  0.0247 -0.2542  0.9582
   46MOL0     C 6138   0.718   5.619   3.611 -0.8416  0.4681 -0.0021
   46MOL0     C 6139   0.859   5.604   3.569 -0.2172 -0.6903  0.6788
   46MOL0     C 6140   0.974   5.593   3.528 -0.0584  0.6752 -0.3166
   46MOL0     C 6141   0.635   5.749   2.954 -0.7320 -0.0700  0.2622
   46MOL0     C 6142   0.735   5.718   2.858 -1.4487  0.0277  0.0039
   46MOL0     H 6143   1.203   5.777   2.707 -1.5515 -1.2667 -0.5616
   46MOL0     H 6144   1.429   5.753   2.605  4.5118 -0.5864  1.8767
   46MOL0     H 6145   1.697   5.489   2.780 -0.6849 -0.8416  0.1081
   46MOL0     H 6146   1.669   5.376   2.649 -1.3261  0.1139  2.1880
   46MOL0     H 6147   1.903   5.490   2.647  0.3587  2.6439  2.2813
   46MOL0     H 6148   1.805   5.519   2.502  1.5433  1.6817 -0.7166
   46MOL0     H 6149   1.932   5.712   2.567  0.3304 -0.2594 -0.1467
   46MOL0     H 6150   1.756   5.739   2.555 -1.3674 -0.9780 -0.5348
   46MOL0     H 6151   1.733   5.701   2.803 -0.4997  0.3829 -0.4588
   46MOL0     H 6152   1.908   5.686   2.822 -0.1358 -1.3757 -1.0223
   46MOL0     H 6153   1.828   5.916   2.870 -2.9929  0.9647 -0.5126
   46MOL0     H 6154   1.947   5.905   2.733 -0.6201  0.1845 -0.9377
   46MOL0     H 6155   1.757   5.963   2.587 -1.1523  4.4965 -0.5826
   46MOL0     H 6156   1.640   5.924   2.714  0.9733 -1.1901  1.9694
   46MOL0     H 6157   1.662   6.176   2.676  1.3393  1.5712 -0.8531
   46MOL0     H 6158   1.700   6.107   2.845  1.0618 -2.9447 -0.1198
   46MOL0     H 6159   1.944   6.117   2.753  0.8976 -0.2625 -1.2172
   46MOL0     H 6160   1.876   6.290   2.749 -2.0365  0.9662 -2.8901
   46MOL0     H 6161   2.027   6.039   2.534 -2.1280 -0.3054  1.9301
   46MOL0     H 6162   2.033   6.218   2.185 -1.3972  0.0602  0.3364
   46MOL0     H 6163   2.154   6.139   2.298  2.3039  0.9549 -2.6081
   46MOL0     H 6164   2.061   5.938   2.268  2.6350  1.7631 -0.0458
   46MOL0     H 6165   2.079   5.987   2.110 -1.1363 -1.6601 -0.6494
   46MOL0     H 6166   1.803   5.954   2.258 -1.7131  0.5459 -1.0264
   46MOL0     H 6167   1.859   5.887   2.115 -4.6197 -0.2999  0.6646
   46MOL0     H 6168   1.877   6.116   2.011  0.2272  1.1194  0.0109
   46MOL0     H 6169   1.772   6.178   2.133  1.8540  1.0838  0.4256
   46MOL0     H 6170   1.627   6.082   2.283 -1.5636  0.4350  0.7899
   46MOL0     H 6171   1.393   5.973   2.497  1.2194  0.2173  0.1659
   46MOL0     H 6172   1.495   6.114   2.457  1.8888 -0.3722 -3.2108
   46MOL0     H 6173   1.316   6.125   2.458 -0.3976 -0.5587  2.7722
   46MOL0     H 6174   1.001   5.803   2.449 -0.4271 -1.0763  1.0401
   46MOL0     H 6175   0.764   5.747   2.512 -1.4829  0.7112  0.0914
   46MOL0     H 6176   0.356   5.732   2.326 -0.8411  1.3833 -1.2235
   46MOL0     H 6177   0.424   5.809   2.178 -0.0352 -0.6297 -0.3560
   46MOL0     H 6178   0.544   5.598   2.131 -1.3028 -3.3060 -2.3094
   46MOL0     H 6179   0.489   5.529   2.287 -2.0016 -1.1191 -0.2195
   46MOL0     H 6180   0.293   5.656   2.081 -0.1863  0.0850 -0.1698
   46MOL0     H 6181   0.253   5.533   2.199  0.0359 -1.3421 -1.7515
   46MOL0     H 6182   0.444   5.492   1.969 -1.7287  2.7749  0.0369
   46MOL0     H 6183   0.383   5.368   2.098 -3.0680  0.7938  2.8603
   46MOL0     H 6184   0.266   5.307   1.903 -0.9230  0.4196 -2.0635
   46MOL0     H 6185   0.242   5.469   1.853 -0.1318 -2.2357 -1.3846
   46MOL0     H 6186   0.092   5.314   2.067  1.0397 -2.4831 -1.9508
   46MOL0     H 6187   0.072   5.492   2.065 -1.2792 -0.3548  0.2947
   46MOL0     H 6188   0.025   5.303   1.839 -2.0524 -2.1258  1.7102
   46MOL0     H 6189   0.026   5.480   1.821 -1.7100  0.4259  1.5211
   46MOL0     H 6190  -0.165   5.507   1.962 -2.3791 -0.9818  3.1266
   46MOL0     H 6191  -0.154   5.340   2.026 -1.2306  0.2682 -0.4675
   46MOL0     H 6192   0.637   5.823   2.104  0.3176  0.2652 -0.2020
   46MOL0     H 6193   0.874   5.879   2.038 -3.2656  0.0038 -0.6546
   46MOL0     H 6194   1.249   5.877   2.020 -1.2988  2.1130  0.0945
   46MOL0     H 6195   1.467   5.934   1.911  0.3598 -0.9987 -0.4392
   46MOL0     H 6196   1.476   5.370   2.784  0.7160  0.2439 -1.1070
   46MOL0     H 6197   1.239   5.393   2.874  2.6014 -1.2364  0.2808
   46MOL0     H 6198   1.008   5.715   3.069  0.3236 -0.9240 -1.5343
   46MOL0     H 6199   0.843   5.774   3.221  0.5607 -0.7397  0.4472
   46MOL0     H 6200   0.683   5.878   3.312  1.5648 -1.9238 -2.4806
   46MOL0     H 6201   0.509   5.888   3.354 -0.2225 -0.6828  1.8915
   46MOL0     H 6202   0.679   5.624   3.336 -0.9471 -3.4412  0.6335
   46MOL0     H 6203   0.509   5.647   3.395  1.3289 -0.7068  2.4722
   46MOL0     H 6204   0.553   5.770   3.591 -1.0083 -2.0866  0.7129
   46MOL0     H 6205   0.720   5.805   3.542  0.3182 -0.4967 -1.2147
   46MOL0     H 6206   0.658   5.528   3.599  0.1455 -0.8145  3.5345
   46MOL0     H 6207   0.710   5.635   3.719  0.1673  0.4074  0.0946
   46MOL0     H 6208   1.080   5.592   3.515 -0.1221  0.0096 -0.8430
   46MOL0     H 6209   0.531   5.749   2.922 -1.0571  1.4742  1.2686
   46MOL0     H 6210   0.711   5.698   2.754 -1.0599  3.2138 -0.8062
   47MOL0     O 6211  10.287   3.243   2.526 -0.7595 -0.4219 -0.0883
   47MOL0     C 6212  10.303   3.203   2.645 -0.7887  0.7400  0.1061
   47MOL0     O 6213  10.223   3.110   2.716  0.1760 -0.6138 -0.3810
   47MOL0     C 6214  10.108   3.071   2.658 -0.0619  0.1753 -0.4791
   47MOL0     C 6215  10.079   2.936   2.625 -0.3059  0.5586 -0.2847
   47MOL0     C 6216   9.961   2.897   2.569 -0.5056  0.3897 -0.0519
   47MOL0     C 6217   9.858   2.981   2.555 -0.3245  0.1125  0.8291
   47MOL0     O 6218   9.734   2.951   2.501 -0.0695 -0.1129 -0.1652
   47MOL0     C 6219   9.684   2.815   2.524  0.0012  0.5943  0.9500
   47MOL0     C 6220   9.538   2.805   2.534  0.2415  0.1174 -0.3537
   47MOL0     C 6221   9.457   2.839   2.405 -0.3211 -1.0518 -0.6237
   47MOL0     C 6222   9.303   2.846   2.447 -0.0055 -0.8811 -0.5875
   47MOL0     C 6223   9.208   2.863   2.324  0.0627  0.0510 -0.7885
   47MOL0     C 6224   9.070   2.904   2.368  0.4320  0.0429 -0.3771
   47MOL0     C 6225   8.980   2.909   2.252  0.4653  0.8140  0.9910
   47MOL0     C 6226   8.827   2.921   2.288  0.0033  0.3274 -0.0877
   47MOL0     N 6227   8.734   2.847   2.200  0.1232  0.2540 -1.1310
   47MOL0     C 6228   8.711   2.713   2.196 -0.2743 -0.2015 -1.5593
   47MOL0     C 6229   8.589   2.693   2.154 -0.0228 -0.8826  0.6368
   47MOL0     C 6230   8.547   2.556   2.143  0.2446  0.0906 -0.2941
   47MOL0     C 6231   8.415   2.529   2.223  0.0632 -0.5716  0.5017
   47MOL0     C 6232   8.352   2.400   2.190 -0.0799 -0.2976 -0.4923
   47MOL0     C 6233   8.221   2.361   2.261 -0.7107 -0.2563 -0.4212
   47MOL0     O 6234   8.156   2.252   2.197  0.1071 -0.2715 -0.5054
   47MOL0     C 6235   8.079   2.158   2.264  0.2076  0.3458  0.4018
   47MOL0     C 6236   8.009   2.183   2.377  0.1278 -0.6760  0.4557
   47MOL0     C 6237   7.929   2.090   2.440 -0.3079  0.1885 -0.7552
   47MOL0     C 6238   7.859   2.138   2.572 -0.0946  0.0051 -0.8306
   47MOL0     C 6239   7.909   1.966   2.383 -0.0478 -0.5940 -0.1650
   47MOL0     C 6240   7.821   1.861   2.427  0.5192 -1.5097 -0.1485
   47MOL0     O 6241   7.747   1.872   2.547 -0.6912 -0.0766  0.0684
   47MOL0     C 6242   7.636   1.782   2.572 -0.9591 -0.3086 -0.6707
   47MOL0     C 6243   7.558   1.737   2.466 -0.4957 -0.3432  0.2358
   47MOL0     C 6244   7.476   1.630   2.481 -0.6762 -0.6749  0.1686
   47MOL0     C 6245   7.460   1.572   2.607 -0.4579 -0.5887 -0.3389
   47MOL0     O 6246   7.371   1.466   2.631 -0.7320 -0.1126 -0.1886
   47MOL0     C 6247   7.342   1.384   2.516  0.6858  0.1113 -0.3643
   47MOL0     C 6248   7.200   1.374   2.479  0.4626 -0.2874  0.4586
   47MOL0     C 6249   7.152   1.499   2.403  0.3490  0.5491  0.0846
   47MOL0     C 6250   7.008   1.483   2.353 -0.6901 -0.1765  0.3829
   47MOL0     C 6251   6.937   1.614   2.300 -0.5578  0.0122  0.5772
   47MOL0     C 6252   7.022   1.724   2.237 -0.6551 -0.5414 -0.9263
   47MOL0     C 6253   6.927   1.832   2.190  0.0135  0.4018  0.2163
   47MOL0     C 6254   6.995   1.924   2.089  0.0247 -1.2833  0.0432
   47MOL0    Cl 6255   7.145   2.001   2.172 -0.0302  0.3999  0.2515
   47MOL0     C 6256   7.535   1.615   2.715 -0.5177 -0.2623 -0.1043
   47MOL0     C 6257   7.618   1.725   2.702 -1.2792 -0.0073 -0.4401
   47MOL0     O 6258   7.820   1.756   2.371 -0.1920 -0.0039 -0.1134
   47MOL0     C 6259   7.976   1.937   2.261 -1.2328 -0.7236 -0.0860
   47MOL0     C 6260   8.068   2.028   2.209  0.1052  0.2085  0.3249
   47MOL0     N 6261   8.532   2.811   2.107 -0.3678  0.4970 -0.1189
   47MOL0     N 6262   8.625   2.896   2.150 -0.5245 -0.6392  0.8619
   47MOL0     C 6263   9.883   3.114   2.590  0.5984  0.4035  0.2532
   47MOL0     C 6264  10.005   3.156   2.635 -1.4252 -1.4545  0.3870
   47MOL0     C 6265  10.423   3.241   2.715 -0.8271  0.1641  0.3478
   47MOL0     C 6266  10.459   3.181   2.836  0.1098 -0.2372  0.0570
   47MOL0     C 6267  10.575   3.228   2.908  0.3927 -0.5420 -0.2611
   47MOL0     C 6268  10.658   3.324   2.848  0.1843  0.8144  0.7809
   47MOL0     O 6269  10.768   3.355   2.923  0.0321 -0.7592 -0.5148
   47MOL0     C 6270  10.875   3.439   2.885  0.2265 -0.7329 -0.5142
   47MOL0     C 6271  10.841   3.585   2.926 -0.1447  0.4276 -0.1657
   47MOL0     C 6272  10.957   3.677   2.874  0.6444  0.7006  0.2832
   47MOL0     C 6273  10.944   3.815   2.929 -0.2667 -0.3309 -0.6092
   47MOL0     C 6274  11.066   3.900   2.915 -0.7051  0.0007  0.2965
   47MOL0     C 6275  11.175   3.951   2.925 -0.6033  0.1191  0.1638
   47MOL0     C 6276  10.617   3.383   2.733 -0.3088 -0.0014 -0.0019
   47MOL0     C 6277  10.504   3.349   2.672 -0.5157  0.8983  0.6001
   47MOL0     H 6278  10.161   2.866   2.635  1.7791  2.9285  0.1047
   47MOL0     H 6279   9.946   2.792   2.543 -1.0879  0.5758 -0.4893
   47MOL0     H 6280   9.722   2.752   2.443 -3.3710  1.0686 -1.1790
   47MOL0     H 6281   9.729   2.783   2.618 -1.3043 -0.6699  1.1697
   47MOL0     H 6282   9.515   2.701   2.558 -3.0111  0.3714 -1.9410
   47MOL0     H 6283   9.509   2.878   2.611 -0.3934  0.4213 -0.8715
   47MOL0     H 6284   9.501   2.931   2.367 -0.5670 -1.2899 -1.4921
   47MOL0     H 6285   9.480   2.761   2.332  0.5180 -0.4890 -0.9744
   47MOL0     H 6286   9.270   2.766   2.515 -3.1891  0.8034  0.0796
   47MOL0     H 6287   9.297   2.936   2.509  2.1061 -1.2647  0.2416
   47MOL0     H 6288   9.255   2.936   2.258 -0.2800 -1.0294 -2.2776
   47MOL0     H 6289   9.198   2.770   2.267 -5.0545 -0.2340  0.1090
   47MOL0     H 6290   9.044   2.832   2.446  0.3802 -0.1767 -0.5937
   47MOL0     H 6291   9.065   3.006   2.408 -2.5135  0.4846 -1.5456
   47MOL0     H 6292   9.008   2.988   2.182  0.0751  0.7276  0.7318
   47MOL0     H 6293   8.989   2.821   2.188  1.8076  2.0030 -0.5264
   47MOL0     H 6294   8.797   3.026   2.288  0.1624  0.3731 -0.2069
   47MOL0     H 6295   8.794   2.873   2.381 -0.3090  2.7246  1.1272
   47MOL0     H 6296   8.785   2.644   2.234 -1.3384 -0.1782  0.6894
   47MOL0     H 6297   8.515   2.533   2.041 -2.4704 -2.3588  0.9544
   47MOL0     H 6298   8.624   2.486   2.177 -0.8399  0.3116  3.0596
   47MOL0     H 6299   8.358   2.610   2.177  0.7575  0.2253  1.0086
   47MOL0     H 6300   8.433   2.552   2.329  0.8563  1.4251 -0.0247
   47MOL0     H 6301   8.427   2.323   2.205 -0.2904 -0.2136  1.2157
   47MOL0     H 6302   8.326   2.410   2.084  0.3540 -1.1827 -0.6907
   47MOL0     H 6303   8.156   2.447   2.278 -0.1760  0.2924 -1.0741
   47MOL0     H 6304   8.250   2.331   2.362  2.4849  0.9816 -0.8435
   47MOL0     H 6305   8.017   2.284   2.416  0.1934  0.4385 -2.2195
   47MOL0     H 6306   7.753   2.114   2.556 -0.2004  1.4548 -2.6725
   47MOL0     H 6307   7.902   2.084   2.657 -4.0380 -3.3722 -0.6583
   47MOL0     H 6308   7.860   2.246   2.589 -0.4685  0.1598 -1.7210
   47MOL0     H 6309   7.569   1.785   2.369  2.1743  0.3080  0.7831
   47MOL0     H 6310   7.416   1.604   2.394 -1.3456 -1.4514  0.8472
   47MOL0     H 6311   7.395   1.412   2.424 -0.5851  2.9266 -0.3517
   47MOL0     H 6312   7.376   1.284   2.544 -1.9815 -0.5559  0.7471
   47MOL0     H 6313   7.160   1.285   2.429 -0.9482 -0.1202  1.2169
   47MOL0     H 6314   7.134   1.367   2.566  2.5006 -0.8742  2.0266
   47MOL0     H 6315   7.203   1.498   2.306  3.0328  1.7681  1.3570
   47MOL0     H 6316   7.171   1.590   2.460  2.8015  2.0699 -2.8569
   47MOL0     H 6317   7.000   1.405   2.277 -1.5519  1.0185 -0.8016
   47MOL0     H 6318   6.942   1.451   2.434 -3.0711 -0.5311 -1.5721
   47MOL0     H 6319   6.883   1.660   2.384 -1.9524  2.2493 -1.4199
   47MOL0     H 6320   6.861   1.575   2.233  0.5848 -2.4256  0.5762
   47MOL0     H 6321   7.086   1.759   2.319  0.8705  0.6857 -2.5618
   47MOL0     H 6322   7.084   1.686   2.155 -2.1111 -3.1706 -0.9376
   47MOL0     H 6323   6.904   1.900   2.273 -0.5685  1.0182 -0.4373
   47MOL0     H 6324   6.835   1.790   2.148 -0.5119 -0.0007  1.6885
   47MOL0     H 6325   6.916   1.993   2.061 -0.9652 -2.1081  0.7275
   47MOL0     H 6326   7.017   1.871   1.995 -1.4849  2.3759 -2.5960
   47MOL0     H 6327   7.525   1.559   2.807  0.3389 -0.6067 -0.2122
   47MOL0     H 6328   7.664   1.772   2.788 -1.0796 -0.7283 -0.1505
   47MOL0     H 6329   7.973   1.836   2.221 -1.0748 -0.8233  0.1492
   47MOL0     H 6330   8.118   1.987   2.122 -0.1775  1.3824 -0.4085
   47MOL0     H 6331   9.807   3.187   2.565 -0.4099 -1.1991 -1.5486
   47MOL0     H 6332  10.029   3.255   2.674  2.1482 -2.6665  1.7628
   47MOL0     H 6333  10.404   3.098   2.878  2.1092 -0.9624  1.3566
   47MOL0     H 6334  10.605   3.180   3.000 -0.5345  3.9484  2.6888
   47MOL0     H 6335  10.965   3.406   2.938 -0.9742 -2.4393  0.5763
   47MOL0     H 6336  10.889   3.429   2.777  4.4665  0.0721 -0.2345
   47MOL0     H 6337  10.835   3.602   3.034 -0.6726 -0.1421 -0.0986
   47MOL0     H 6338  10.744   3.615   2.886 -0.8013  0.4736  1.3905
   47MOL0     H 6339  10.953   3.682   2.765  1.9489  4.3821  0.2806
   47MOL0     H 6340  11.051   3.629   2.903  1.0889  0.6810 -1.1297
   47MOL0     H 6341  10.914   3.823   3.034 -0.2389  1.9560 -0.7233
   47MOL0     H 6342  10.864   3.876   2.884  2.5081  4.2381 -0.0119
   47MOL0     H 6343  11.265   4.007   2.939  0.0475 -0.7161 -0.5716
   47MOL0     H 6344  10.672   3.466   2.692 -1.1075  0.9312  0.7680
   47MOL0     H 6345  10.482   3.408   2.584 -1.5436  2.3144  1.7660
   48MOL0     O 6346   5.792   3.170   9.950 -0.1878 -0.2289 -0.5383
   48MOL0     C 6347   5.706   3.225   9.879 -0.0028  0.2243  0.4582
   48MOL0     O 6348   5.727   3.328   9.791 -0.3228  0.1510 -0.2464
   48MOL0     C 6349   5.840   3.400   9.768 -0.2876  0.2972  0.1686
   48MOL0     C 6350   5.823   3.497   9.673 -0.7696  0.6433  0.5588
   48MOL0     C 6351   5.934   3.574   9.626  0.2089 -0.3590 -0.6404
   48MOL0     C 6352   6.060   3.570   9.693  0.5898 -0.7390 -0.2979
   48MOL0     O 6353   6.165   3.654   9.667 -0.3107  0.0846 -0.5198
   48MOL0     C 6354   6.147   3.791   9.710  0.0326  0.0174  0.3320
   48MOL0     C 6355   6.188   3.888   9.601  0.2339 -0.6776  0.2843
   48MOL0     C 6356   6.133   4.031   9.613 -0.2684 -0.4992 -0.2160
   48MOL0     C 6357   6.171   4.099   9.744 -0.1233  0.6341  0.2156
   48MOL0     C 6358   6.149   4.254   9.742  0.1253  0.5923  0.3865
   48MOL0     C 6359   6.016   4.319   9.713  0.1138 -0.3007 -0.2207
   48MOL0     C 6360   5.904   4.244   9.802 -1.1244  0.1382  0.2573
   48MOL0     C 6361   5.775   4.326   9.790 -0.6177 -0.0690 -0.3855
   48MOL0     N 6362   5.673   4.259   9.867  0.3487  0.1345  0.0135
   48MOL0     C 6363   5.658   4.259  10.003 -0.2887 -0.2984 -1.0006
   48MOL0     C 6364   5.561   4.176  10.032  0.6966  0.5963  0.0086
   48MOL0     C 6365   5.497   4.142  10.166  0.3024 -0.7017 -0.0965
   48MOL0     C 6366   5.605   4.112  10.269 -0.4492 -0.3473 -0.4433
   48MOL0     C 6367   5.704   4.004  10.216  0.5013 -0.6385 -0.4176
   48MOL0     C 6368   5.830   4.011  10.309 -0.0531  0.0156  0.1392
   48MOL0     O 6369   5.923   3.917  10.253 -0.0936  0.7652 -0.2132
   48MOL0     C 6370   6.045   3.955  10.192 -0.4105  0.7121  0.1472
   48MOL0     C 6371   6.112   3.839  10.143  0.4935  0.3325 -0.0382
   48MOL0     C 6372   6.247   3.857  10.097  0.4050 -0.6422  0.7939
   48MOL0     C 6373   6.315   3.729  10.060 -0.6771 -0.8333  0.0197
   48MOL0     C 6374   6.306   3.983  10.090 -0.6708 -0.1093 -0.3985
   48MOL0     C 6375   6.442   4.009  10.050 -0.0883 -0.0170  0.3470
   48MOL0     O 6376   6.515   4.102  10.113  0.2724 -0.4848 -0.6672
   48MOL0     C 6377   6.649   4.117  10.087  0.5418 -0.0288 -0.6641
   48MOL0     C 6378   6.694   4.233  10.148 -0.6440 -0.8107  0.6488
   48MOL0     C 6379   6.834   4.264  10.152  0.1208  0.2094  0.2279
   48MOL0     C 6380   6.924   4.192  10.068  0.9063 -0.0939 -0.4881
   48MOL0     O 6381   7.050   4.239  10.046  0.0019 -0.1570  0.7764
   48MOL0     C 6382   7.064   4.369   9.985  0.5447  0.1560 -0.0804
   48MOL0     C 6383   7.147   4.447  10.081  0.3374 -0.2514  0.2461
   48MOL0     C 6384   7.203   4.584  10.039 -0.3532  0.4813 -1.2298
   48MOL0     C 6385   7.242   4.600   9.888 -0.0560 -0.0866 -0.3273
   48MOL0     C 6386   7.284   4.743   9.859 -0.1887 -0.2937 -0.1884
   48MOL0     C 6387   7.403   4.798   9.941  0.1794 -0.4437  0.2248
   48MOL0     C 6388   7.547   4.742   9.931 -0.0086  1.1392  0.1211
   48MOL0     C 6389   7.641   4.827  10.021  0.2443  0.5630 -0.1197
   48MOL0    Cl 6390   7.589   4.808  10.196  0.2555  0.1988  0.3635
   48MOL0     C 6391   6.867   4.089  10.001  0.1348  0.0733  0.4321
   48MOL0     C 6392   6.734   4.049  10.006  0.8102 -0.1049  0.2481
   48MOL0     O 6393   6.477   3.954   9.946 -0.1329 -0.8803 -0.2689
   48MOL0     C 6394   6.226   4.095  10.126 -0.2499  0.1490 -0.6023
   48MOL0     C 6395   6.098   4.079  10.175 -0.1523  0.5321 -1.3587
   48MOL0     N 6396   5.520   4.111   9.920 -0.3767 -0.1806 -0.6803
   48MOL0     N 6397   5.596   4.150   9.816 -0.4181 -0.7909 -1.0216
   48MOL0     C 6398   6.074   3.473   9.786 -0.1453  0.2470  0.9663
   48MOL0     C 6399   5.969   3.389   9.826  0.2112  0.5934  0.0963
   48MOL0     C 6400   5.568   3.186   9.882  0.0584 -0.0220  0.2064
   48MOL0     C 6401   5.535   3.056   9.921 -0.6960 -0.6033 -0.3524
   48MOL0     C 6402   5.408   3.004   9.911  0.9528  0.1864  0.1418
   48MOL0     C 6403   5.298   3.082   9.864 -0.1875 -0.4364 -0.8818
   48MOL0     O 6404   5.178   3.035   9.841 -0.4166  1.0669 -0.0023
   48MOL0     C 6405   5.092   3.073   9.950  0.4862  0.3333  0.7358
   48MOL0     C 6406   4.977   2.977   9.949  0.0310 -0.8118 -1.3488
   48MOL0     C 6407   5.023   2.842   9.999  0.4349 -0.4460  0.9878
   48MOL0     C 6408   5.009   2.838  10.151 -0.6759  0.3748  0.0901
   48MOL0     C 6409   5.054   2.709  10.186 -0.3027 -0.4883  0.6312
   48MOL0     C 6410   5.075   2.595  10.235 -0.3710 -0.0062  0.9364
   48MOL0     C 6411   5.323   3.217   9.822 -0.0852  0.4257 -0.3308
   48MOL0     C 6412   5.458   3.261   9.827 -0.1730  0.2573 -0.2468
   48MOL0     H 6413   5.729   3.526   9.628  0.1071  2.7131 -0.0359
   48MOL0     H 6414   5.921   3.656   9.556  1.5488 -0.1355 -0.6609
   48MOL0     H 6415   6.042   3.803   9.739  0.6110  2.9239  1.5891
   48MOL0     H 6416   6.215   3.810   9.794  2.4958 -0.6394 -1.3875
   48MOL0     H 6417   6.297   3.897   9.598  0.1081  0.7893 -0.3569
   48MOL0     H 6418   6.148   3.848   9.507 -3.8104 -0.5726  1.7596
   48MOL0     H 6419   6.172   4.090   9.530  0.2404 -0.8694 -0.2417
   48MOL0     H 6420   6.025   4.035   9.599  0.0861  0.3082 -3.5454
   48MOL0     H 6421   6.112   4.051   9.822  0.8031 -0.5719  0.1964
   48MOL0     H 6422   6.277   4.080   9.762 -0.1315  0.9433  0.6024
   48MOL0     H 6423   6.191   4.293   9.836  0.5107  0.7109  0.1692
   48MOL0     H 6424   6.223   4.297   9.674  0.3659  1.5243  1.2026
   48MOL0     H 6425   6.017   4.427   9.732 -1.1727 -0.5295  1.4411
   48MOL0     H 6426   5.997   4.299   9.607 -2.4483 -3.4988  0.6608
   48MOL0     H 6427   5.890   4.144   9.758  1.1154  0.9421 -2.6624
   48MOL0     H 6428   5.940   4.252   9.905 -4.1335 -2.4598  1.6850
   48MOL0     H 6429   5.737   4.324   9.687 -0.1761 -1.1253 -0.5432
   48MOL0     H 6430   5.802   4.423   9.833  0.7209 -0.6834  0.2270
   48MOL0     H 6431   5.733   4.307  10.065 -1.8288  0.3544  0.4310
   48MOL0     H 6432   5.439   4.229  10.199  1.4115  0.1420 -0.3119
   48MOL0     H 6433   5.435   4.053  10.150  0.3657 -0.6376 -0.7466
   48MOL0     H 6434   5.556   4.074  10.358 -0.6784  1.1430  0.0993
   48MOL0     H 6435   5.651   4.210  10.286 -0.5218  0.4554 -4.0482
   48MOL0     H 6436   5.739   4.027  10.115  0.4877  0.2693 -0.2257
   48MOL0     H 6437   5.652   3.908  10.216  1.2145 -1.0465 -1.2173
   48MOL0     H 6438   5.811   3.979  10.411  1.4619  1.0339  0.7794
   48MOL0     H 6439   5.873   4.112  10.315 -5.3553  2.6172  0.4927
   48MOL0     H 6440   6.066   3.741  10.138 -1.1070  1.1321 -2.1986
   48MOL0     H 6441   6.342   3.716   9.955 -1.1131 -1.7468  0.0168
   48MOL0     H 6442   6.414   3.723  10.107  0.7805  0.3257 -2.6572
   48MOL0     H 6443   6.259   3.642  10.095 -1.2081 -0.0474  1.1880
   48MOL0     H 6444   6.626   4.287  10.213 -1.6367 -1.9358  0.5669
   48MOL0     H 6445   6.881   4.346  10.205  1.5928  0.4102 -1.3093
   48MOL0     H 6446   7.125   4.369   9.895 -1.8576 -3.0821 -1.9254
   48MOL0     H 6447   6.973   4.424   9.959  2.4457  2.8832 -1.4425
   48MOL0     H 6448   7.076   4.466  10.161  1.5970 -1.5252  1.7373
   48MOL0     H 6449   7.231   4.383  10.110 -0.8298 -1.0390  2.0818
   48MOL0     H 6450   7.285   4.603  10.108  0.1140 -4.2549 -0.1287
   48MOL0     H 6451   7.122   4.655  10.051 -0.3574  1.0213 -3.8356
   48MOL0     H 6452   7.324   4.531   9.868  1.0561  0.7183  1.2597
   48MOL0     H 6453   7.154   4.574   9.827 -1.0030 -0.9080  1.3081
   48MOL0     H 6454   7.206   4.814   9.888 -1.9175 -2.6411  1.3250
   48MOL0     H 6455   7.300   4.752   9.752  0.0557  0.3643 -0.1005
   48MOL0     H 6456   7.416   4.904   9.919 -1.2936 -0.2035  0.4262
   48MOL0     H 6457   7.373   4.785  10.045  0.1085  0.8645  0.3772
   48MOL0     H 6458   7.579   4.740   9.826  2.1119  1.6390  0.7249
   48MOL0     H 6459   7.554   4.639   9.968 -0.2376  0.7834 -0.7919
   48MOL0     H 6460   7.642   4.928   9.981 -1.4301  0.8993  0.6221
   48MOL0     H 6461   7.743   4.786  10.019  0.2616  0.6014 -0.0555
   48MOL0     H 6462   6.945   4.044   9.941  0.0624 -1.8628  1.6938
   48MOL0     H 6463   6.712   3.959   9.949  0.3308  0.2892 -0.1979
   48MOL0     H 6464   6.264   4.196  10.114 -2.3362  1.0982  0.3077
   48MOL0     H 6465   6.041   4.169  10.196  0.5696  1.1202 -1.9167
   48MOL0     H 6466   6.167   3.460   9.839  0.5645  1.2098  0.0008
   48MOL0     H 6467   5.962   3.311   9.901 -2.7603 -0.0181 -0.6680
   48MOL0     H 6468   5.607   2.997   9.977 -4.1864 -2.8980  2.1155
   48MOL0     H 6469   5.398   2.906   9.955 -0.1537 -0.1841 -0.8909
   48MOL0     H 6470   5.141   3.068  10.048 -0.1949 -0.2645  1.0558
   48MOL0     H 6471   5.057   3.176   9.935  1.1409  0.3672 -0.7204
   48MOL0     H 6472   4.942   2.984   9.846 -0.0929 -0.1956 -1.2715
   48MOL0     H 6473   4.900   3.020  10.014  0.6829  0.3521 -1.3235
   48MOL0     H 6474   5.127   2.830   9.967  1.3102  0.9830  3.0668
   48MOL0     H 6475   4.968   2.762   9.950  0.5212  1.4558 -2.5649
   48MOL0     H 6476   4.902   2.851  10.167 -0.9560 -1.8579  0.3284
   48MOL0     H 6477   5.063   2.917  10.204  0.8902 -0.0826 -0.7517
   48MOL0     H 6478   5.098   2.495  10.267 -1.9789 -1.2300 -1.4480
   48MOL0     H 6479   5.241   3.269   9.774  0.0534 -0.7487 -1.8998
   48MOL0     H 6480   5.476   3.350   9.767  0.3970 -0.4172 -1.1067
   49MOL0     O 6481  10.595  11.338   2.487  0.0125  0.2011  0.3317
   49MOL0     C 6482  10.684  11.342   2.574  0.4658 -0.0164 -0.0440
   49MOL0     O 6483  10.694  11.437   2.669 -0.2143 -0.1190 -0.1917
   49MOL0     C 6484  10.599  11.535   2.688 -0.0022 -0.5369  0.7224
   49MOL0     C 6485  10.467  11.508   2.732  0.3311 -0.8904  1.3425
   49MOL0     C 6486  10.377  11.615   2.740 -0.5986  1.0460  0.5970
   49MOL0     C 6487  10.414  11.741   2.717  1.3467 -0.1375  0.1099
   49MOL0     O 6488  10.317  11.842   2.735 -0.9558 -0.2957 -0.1804
   49MOL0     C 6489  10.368  11.950   2.805 -0.5361  0.2625 -0.6001
   49MOL0     C 6490  10.257  12.055   2.805  0.7515 -0.3914  0.1817
   49MOL0     C 6491  10.113  12.015   2.850  0.1245 -0.1874 -0.2936
   49MOL0     C 6492  10.039  12.136   2.897  0.4274  0.3509 -0.7339
   49MOL0     C 6493   9.901  12.085   2.950  0.8567 -0.6142  0.1466
   49MOL0     C 6494   9.803  12.210   2.957  0.0955  0.8246  1.0068
   49MOL0     C 6495   9.669  12.161   3.006  1.4268 -0.4912  0.2390
   49MOL0     C 6496   9.585  12.298   3.021  0.7096  0.8306  0.4532
   49MOL0     N 6497   9.466  12.268   3.096  0.3579 -0.2151 -0.4085
   49MOL0     C 6498   9.346  12.318   3.053 -0.1593  0.5946  0.4287
   49MOL0     C 6499   9.266  12.296   3.163 -0.9466  0.8316 -0.2436
   49MOL0     C 6500   9.129  12.343   3.153  0.5318  0.9597 -1.5199
   49MOL0     C 6501   9.034  12.221   3.160  0.5836 -0.1366 -0.1309
   49MOL0     C 6502   8.897  12.271   3.151 -0.1025 -0.6410 -0.2409
   49MOL0     C 6503   8.793  12.163   3.168 -0.3797  0.9983 -0.3795
   49MOL0     O 6504   8.785  12.147   3.319 -0.2601  0.3180  0.2478
   49MOL0     C 6505   8.680  12.207   3.376 -0.3426  0.2455 -0.1547
   49MOL0     C 6506   8.653  12.159   3.502 -0.5373  0.5237 -0.3270
   49MOL0     C 6507   8.550  12.205   3.588 -0.3624  0.1071  0.2674
   49MOL0     C 6508   8.548  12.185   3.734 -0.1876 -0.1780 -0.2775
   49MOL0     C 6509   8.467  12.302   3.537 -0.4616 -0.4491 -1.1934
   49MOL0     C 6510   8.362  12.380   3.600 -0.0160 -0.5039 -0.5123
   49MOL0     O 6511   8.270  12.314   3.663  0.9006 -0.2988 -0.3126
   49MOL0     C 6512   8.178  12.375   3.753 -0.1736  0.0112  0.4751
   49MOL0     C 6513   8.189  12.503   3.810  0.7935 -0.1252  0.6096
   49MOL0     C 6514   8.084  12.551   3.889 -0.4058 -0.6125 -0.2122
   49MOL0     C 6515   7.962  12.474   3.914 -0.1551  0.5883 -0.4295
   49MOL0     O 6516   7.866  12.512   4.004  0.8590  0.0804 -0.5775
   49MOL0     C 6517   7.853  12.658   4.029  1.0828  2.0053  0.9509
   49MOL0     C 6518   7.730  12.684   4.119  0.2552 -0.2760 -1.4300
   49MOL0     C 6519   7.603  12.634   4.052  0.5757  0.0022  0.3466
   49MOL0     C 6520   7.481  12.656   4.142 -0.2259  0.2815 -0.4967
   49MOL0     C 6521   7.345  12.688   4.074 -0.3771 -0.7086 -0.0338
   49MOL0     C 6522   7.245  12.714   4.175 -0.1870  0.3096 -0.3318
   49MOL0     C 6523   7.116  12.757   4.104 -0.9471 -0.4922 -0.2459
   49MOL0     C 6524   7.005  12.764   4.212  0.5199 -0.7242 -0.2047
   49MOL0    Cl 6525   6.901  12.898   4.146  0.1372 -0.3555 -0.2382
   49MOL0     C 6526   7.955  12.358   3.854 -0.4986  0.6290  0.1026
   49MOL0     C 6527   8.056  12.307   3.779  0.3295  0.0798  0.7194
   49MOL0     O 6528   8.355  12.500   3.575  0.3989  0.1632 -0.2721
   49MOL0     C 6529   8.486  12.344   3.399 -0.0676 -0.6008 -0.0523
   49MOL0     C 6530   8.588  12.297   3.317  0.0645  0.9914  0.2590
   49MOL0     N 6531   9.337  12.255   3.272 -0.6372 -0.2103  0.9450
   49MOL0     N 6532   9.459  12.225   3.228  0.6820 -0.0331 -0.8045
   49MOL0     C 6533  10.542  11.771   2.681 -0.1301  0.0608  0.5760
   49MOL0     C 6534  10.633  11.671   2.657 -0.0241 -0.2844 -0.8918
   49MOL0     C 6535  10.778  11.229   2.599  0.2803  0.6580  0.5996
   49MOL0     C 6536  10.750  11.096   2.558 -0.0793  0.3150 -0.6609
   49MOL0     C 6537  10.841  10.997   2.566 -0.4511 -0.1573  0.4891
   49MOL0     C 6538  10.963  11.016   2.626  0.5690 -0.8514 -0.2039
   49MOL0     O 6539  11.058  10.916   2.651  0.1549  0.3018  0.4669
   49MOL0     C 6540  11.076  10.829   2.534  0.9035 -0.5109  0.6606
   49MOL0     C 6541  11.213  10.772   2.545 -0.2878 -0.7720  0.4918
   49MOL0     C 6542  11.323  10.877   2.511  0.5400  0.4459 -0.2187
   49MOL0     C 6543  11.454  10.806   2.519 -0.2355  0.1826  0.0148
   49MOL0     C 6544  11.572  10.899   2.534 -0.2497  0.9268  0.4879
   49MOL0     C 6545  11.656  10.988   2.524  0.2655  0.6023  0.2837
   49MOL0     C 6546  11.002  11.151   2.656 -0.4044 -0.1714 -0.1169
   49MOL0     C 6547  10.906  11.254   2.649 -0.1027 -0.3077 -0.4731
   49MOL0     H 6548  10.423  11.411   2.751 -1.3470 -0.5740 -0.5514
   49MOL0     H 6549  10.277  11.589   2.773  0.5842 -2.4247  1.9536
   49MOL0     H 6550  10.393  11.927   2.909  0.6204  0.7230 -0.7661
   49MOL0     H 6551  10.451  11.998   2.753 -0.5927 -0.3621 -1.2848
   49MOL0     H 6552  10.283  12.133   2.877 -1.5296  1.7660 -1.1861
   49MOL0     H 6553  10.256  12.110   2.711  0.0140  2.3733  1.7168
   49MOL0     H 6554  10.052  11.975   2.768 -3.3475  0.6609  1.7057
   49MOL0     H 6555  10.114  11.940   2.930  1.0854 -0.3430 -0.4344
   49MOL0     H 6556  10.093  12.182   2.980  3.1047  0.0382 -2.1813
   49MOL0     H 6557  10.034  12.201   2.810  1.3604  0.9116 -0.3859
   49MOL0     H 6558   9.852  12.031   2.868 -1.9031  1.9281 -0.0726
   49MOL0     H 6559   9.904  12.036   3.048  0.9060  1.2112  1.0956
   49MOL0     H 6560   9.849  12.284   3.023 -0.5218 -0.1915  2.6567
   49MOL0     H 6561   9.796  12.251   2.856 -1.0561  0.5135  0.9409
   49MOL0     H 6562   9.615  12.094   2.938 -0.8194 -0.3062  1.7263
   49MOL0     H 6563   9.667  12.108   3.102 -1.5317  0.6190  0.9015
   49MOL0     H 6564   9.576  12.351   2.926 -4.5440  2.3438  1.4868
   49MOL0     H 6565   9.649  12.358   3.087  1.6721  0.2283  0.1006
   49MOL0     H 6566   9.325  12.339   2.948  1.5988  0.1197 -0.0442
   49MOL0     H 6567   9.111  12.417   3.231  0.4992 -0.7730  0.1960
   49MOL0     H 6568   9.109  12.401   3.062 -1.6611  4.6965  1.0660
   49MOL0     H 6569   9.055  12.178   3.258  3.4546  3.3481  1.0095
   49MOL0     H 6570   9.049  12.146   3.081  0.0696  0.6488 -1.0070
   49MOL0     H 6571   8.875  12.322   3.057 -0.5142  3.5670  1.9023
   49MOL0     H 6572   8.887  12.348   3.228  1.3846  0.8078 -1.4341
   49MOL0     H 6573   8.829  12.070   3.123 -0.4565  1.3108 -1.1058
   49MOL0     H 6574   8.698  12.181   3.117 -0.8280 -1.3416 -0.4661
   49MOL0     H 6575   8.725  12.095   3.552 -1.6590  0.6076  1.4783
   49MOL0     H 6576   8.454  12.138   3.766 -0.2545 -0.8862 -1.4713
   49MOL0     H 6577   8.635  12.133   3.774  0.7161  0.3108 -1.5690
   49MOL0     H 6578   8.552  12.283   3.783  0.0321 -1.1792  1.8251
   49MOL0     H 6579   8.279  12.562   3.795  0.1817  1.1415  1.6663
   49MOL0     H 6580   8.104  12.637   3.951 -0.5211  1.9591 -3.5113
   49MOL0     H 6581   7.945  12.695   4.074 -0.3319  2.8842  3.2894
   49MOL0     H 6582   7.844  12.702   3.929 -2.3025  1.9509  1.1143
   49MOL0     H 6583   7.750  12.635   4.215  3.4551 -0.4857 -2.0974
   49MOL0     H 6584   7.718  12.789   4.149 -4.0000 -0.9562 -0.1308
   49MOL0     H 6585   7.605  12.529   4.024  0.0200  0.1317 -0.1948
   49MOL0     H 6586   7.595  12.682   3.955 -0.7515 -2.6061 -0.9314
   49MOL0     H 6587   7.467  12.569   4.206  3.9481  0.2794  0.7584
   49MOL0     H 6588   7.506  12.737   4.211  0.6712  0.1836 -0.6867
   49MOL0     H 6589   7.317  12.604   4.009 -1.7567  1.3185 -2.2407
   49MOL0     H 6590   7.351  12.781   4.017 -2.1000  1.1962  2.6742
   49MOL0     H 6591   7.216  12.628   4.236 -0.4074  0.2309 -0.5465
   49MOL0     H 6592   7.282  12.794   4.240  1.1141 -0.5421  0.0132
   49MOL0     H 6593   7.085  12.688   4.025 -2.5276 -1.3798  1.1029
   49MOL0     H 6594   7.144  12.853   4.058 -0.0401 -0.0278  1.2179
   49MOL0     H 6595   7.029  12.795   4.314 -1.3418  0.6089 -0.1118
   49MOL0     H 6596   6.947  12.671   4.221 -1.0633  0.0369 -1.9188
   49MOL0     H 6597   7.869  12.295   3.872 -1.2337  0.2856 -3.7502
   49MOL0     H 6598   8.042  12.207   3.739  3.5006  0.3294 -1.3618
   49MOL0     H 6599   8.427  12.424   3.357 -1.8006 -0.6819  2.0532
   49MOL0     H 6600   8.592  12.344   3.219 -1.5292  2.7899  1.0005
   49MOL0     H 6601  10.579  11.864   2.640  2.3565 -0.6807  0.9789
   49MOL0     H 6602  10.737  11.682   2.627  0.9315 -4.6035  0.1609
   49MOL0     H 6603  10.651  11.087   2.515 -0.5411  2.1512 -0.0858
   49MOL0     H 6604  10.821  10.898   2.528 -1.6468  0.3237 -0.2124
   49MOL0     H 6605  11.002  10.749   2.526  0.4646  0.0212 -1.0562
   49MOL0     H 6606  11.069  10.888   2.442  0.6161 -2.5478 -0.7008
   49MOL0     H 6607  11.216  10.685   2.478 -0.1126  0.2928 -0.9241
   49MOL0     H 6608  11.230  10.740   2.649  0.2472  1.1816  1.0401
   49MOL0     H 6609  11.323  10.952   2.591 -3.0224 -1.2107  1.5420
   49MOL0     H 6610  11.306  10.927   2.416  0.6280 -0.3079 -0.6384
   49MOL0     H 6611  11.465  10.738   2.434  0.4997  0.2284  0.0658
   49MOL0     H 6612  11.451  10.746   2.611 -0.2012 -4.0160 -2.5066
   49MOL0     H 6613  11.744  11.048   2.510  0.0920  0.7547 -0.1643
   49MOL0     H 6614  11.100  11.173   2.698 -0.6425 -0.6573  0.7106
   49MOL0     H 6615  10.944  11.353   2.674  3.1408 -1.3111 -1.0062
   50MOL0     O 6616  10.971   8.384   4.318  0.5392 -0.0107 -0.2512
   50MOL0     C 6617  10.958   8.274   4.260  0.3446 -0.7850 -0.5849
   50MOL0     O 6618  10.840   8.224   4.199 -1.1319 -0.1371 -0.1872
   50MOL0     C 6619  10.732   8.314   4.201  0.6476 -0.8644 -0.8983
   50MOL0     C 6620  10.696   8.405   4.105  0.3510 -0.9014 -0.6624
   50MOL0     C 6621  10.583   8.485   4.112 -1.3687 -0.5702  0.5737
   50MOL0     C 6622  10.487   8.466   4.208  0.7562 -0.3916  0.9794
   50MOL0     O 6623  10.365   8.532   4.200 -0.6864  0.2633 -0.9972
   50MOL0     C 6624  10.352   8.639   4.108  0.1847  0.0513 -0.2669
   50MOL0     C 6625  10.232   8.734   4.147 -0.7347  0.0617 -0.1135
   50MOL0     C 6626  10.239   8.864   4.060  0.5349  0.2835  0.7001
   50MOL0     C 6627  10.108   8.944   4.073  0.0631 -0.0932  0.2240
   50MOL0     C 6628  10.111   9.073   3.995  0.2759  0.1829  0.1204
   50MOL0     C 6629   9.988   9.165   4.021  0.6855 -0.3725  0.3907
   50MOL0     C 6630   9.988   9.305   3.953 -0.5572 -0.0147 -0.2490
   50MOL0     C 6631  10.061   9.403   4.044 -0.5207  1.2297 -0.2882
   50MOL0     N 6632  10.043   9.542   3.990  0.3489  0.5556 -0.1287
   50MOL0     C 6633   9.932   9.624   3.995 -0.0667 -0.0720  0.2602
   50MOL0     C 6634   9.971   9.749   3.969 -0.1798 -0.2164  0.4834
   50MOL0     C 6635   9.896   9.874   3.947  1.1117 -0.4770  0.4853
   50MOL0     C 6636   9.737   9.847   3.950 -0.5476  0.1505  0.0213
   50MOL0     C 6637   9.687   9.781   3.821  0.6347 -0.7647  0.1469
   50MOL0     C 6638   9.533   9.763   3.811 -0.6126  0.4601 -0.2141
   50MOL0     O 6639   9.511   9.659   3.908  0.0811  0.1737  0.0099
   50MOL0     C 6640   9.375   9.661   3.954 -0.1752  0.4397 -0.0555
   50MOL0     C 6641   9.273   9.735   3.901 -0.2433 -0.6951 -0.7821
   50MOL0     C 6642   9.135   9.727   3.934 -0.6306  0.1724 -0.1678
   50MOL0     C 6643   9.047   9.834   3.869  0.7011 -0.0070  0.4290
   50MOL0     C 6644   9.106   9.628   4.040 -0.1562 -0.1676 -0.2804
   50MOL0     C 6645   8.981   9.621   4.109  0.4385 -0.8529 -0.4173
   50MOL0     O 6646   8.944   9.495   4.162  0.5093  1.0391 -0.3053
   50MOL0     C 6647   8.820   9.463   4.216 -0.6929 -0.0718  0.3937
   50MOL0     C 6648   8.816   9.332   4.269 -0.2927 -0.8279 -0.1693
   50MOL0     C 6649   8.701   9.290   4.334 -0.4249 -0.1322  0.2061
   50MOL0     C 6650   8.599   9.376   4.346  0.1725  0.2241  0.2671
   50MOL0     O 6651   8.486   9.358   4.420  0.3893  0.0159  0.5306
   50MOL0     C 6652   8.454   9.238   4.478 -0.0472  1.1423  0.2273
   50MOL0     C 6653   8.303   9.235   4.479  0.0496 -0.1371  0.3449
   50MOL0     C 6654   8.249   9.135   4.575 -0.7095 -0.0367  0.0261
   50MOL0     C 6655   8.303   8.991   4.552  0.5579 -0.1621  0.0751
   50MOL0     C 6656   8.238   8.884   4.635 -0.2638 -0.9221 -0.9065
   50MOL0     C 6657   8.112   8.845   4.569  0.5000 -0.3386  0.7511
   50MOL0     C 6658   8.039   8.745   4.647 -0.6178 -0.1910 -0.2078
   50MOL0     C 6659   7.908   8.712   4.577 -0.2682  0.2531  0.6610
   50MOL0    Cl 6660   7.929   8.593   4.447  0.1139  0.0881 -0.0233
   50MOL0     C 6661   8.601   9.505   4.293  0.0630  0.6212 -0.2970
   50MOL0     C 6662   8.709   9.544   4.219  0.1936  0.0985  0.7167
   50MOL0     O 6663   8.913   9.719   4.114  0.0627 -0.0903  0.4478
   50MOL0     C 6664   9.207   9.542   4.087 -0.2241 -1.5237  0.8990
   50MOL0     C 6665   9.341   9.556   4.045 -0.6437  0.0593  0.1769
   50MOL0     N 6666  10.099   9.740   3.935 -0.0408 -0.2985  0.7068
   50MOL0     N 6667  10.144   9.615   3.953 -0.0786  0.1095  0.1837
   50MOL0     C 6668  10.510   8.367   4.303 -0.2519  0.8493 -0.0396
   50MOL0     C 6669  10.628   8.297   4.300  1.6331  0.6915 -0.2145
   50MOL0     C 6670  11.061   8.169   4.277  0.2025 -0.3649 -0.2233
   50MOL0     C 6671  11.072   8.072   4.185  0.2987  1.0199  0.0610
   50MOL0     C 6672  11.174   7.980   4.202  0.0849 -0.4675  0.4020
   50MOL0     C 6673  11.275   7.991   4.299  0.1579 -0.0048 -0.1390
   50MOL0     O 6674  11.390   7.914   4.306 -0.4147 -0.2817 -0.3241
   50MOL0     C 6675  11.465   7.934   4.178 -1.1195  0.3620  0.2189
   50MOL0     C 6676  11.516   7.796   4.135 -0.2027 -0.0825  0.2407
   50MOL0     C 6677  11.632   7.811   4.027  0.4369 -0.2081 -0.3009
   50MOL0     C 6678  11.673   7.682   3.952  0.0868  0.9997 -0.3808
   50MOL0     C 6679  11.803   7.714   3.878  0.0362  0.3043  0.5936
   50MOL0     C 6680  11.902   7.757   3.819  0.0707 -0.0191  0.0566
   50MOL0     C 6681  11.253   8.084   4.401 -0.1425  0.5215 -0.1414
   50MOL0     C 6682  11.148   8.178   4.384 -0.7487 -0.2314  0.2528
   50MOL0     H 6683  10.773   8.429   4.032  3.3789  0.6212  2.6852
   50MOL0     H 6684  10.569   8.554   4.030  1.7644  0.5164  0.8207
   50MOL0     H 6685  10.444   8.698   4.113  1.0140 -1.3130  3.0717
   50MOL0     H 6686  10.330   8.612   4.004 -1.6418  0.3941 -0.0188
   50MOL0     H 6687  10.131   8.694   4.149 -0.5445 -0.4050  0.3610
   50MOL0     H 6688  10.262   8.762   4.248  1.5444 -1.7816 -0.1894
   50MOL0     H 6689  10.330   8.918   4.087  0.4857  0.5036  0.4303
   50MOL0     H 6690  10.244   8.840   3.954  0.3788  2.1956  0.2291
   50MOL0     H 6691  10.028   8.884   4.029 -0.2713 -0.3226  1.1080
   50MOL0     H 6692  10.071   8.954   4.176 -0.1305 -1.2022  0.2838
   50MOL0     H 6693  10.206   9.121   4.022 -0.9075  2.8067 -0.0486
   50MOL0     H 6694  10.115   9.055   3.887  0.1128  1.5088 -0.1170
   50MOL0     H 6695   9.907   9.103   3.983  1.3942 -1.3219  0.4087
   50MOL0     H 6696   9.982   9.172   4.130  1.9034  1.8943  0.3808
   50MOL0     H 6697  10.031   9.307   3.852 -0.0638  1.3634 -0.0347
   50MOL0     H 6698   9.884   9.336   3.956  0.0113  1.9851  0.6680
   50MOL0     H 6699  10.168   9.379   4.045 -0.8883 -0.6964 -1.3971
   50MOL0     H 6700  10.030   9.380   4.147  4.1237 -0.1125  1.0389
   50MOL0     H 6701   9.830   9.599   4.020  0.8918 -3.6271  1.3190
   50MOL0     H 6702   9.926   9.947   4.023 -1.4575  2.0675 -0.7339
   50MOL0     H 6703   9.928   9.930   3.859  2.1835  0.3685  1.3749
   50MOL0     H 6704   9.696   9.947   3.968  1.2822  0.9571 -0.0444
   50MOL0     H 6705   9.705   9.783   4.032 -0.0291  1.2234  1.0898
   50MOL0     H 6706   9.739   9.685   3.821 -0.4916 -1.4154  1.6691
   50MOL0     H 6707   9.708   9.847   3.737 -2.0315 -0.2677 -0.2089
   50MOL0     H 6708   9.513   9.738   3.706 -1.2221 -2.4928  0.5113
   50MOL0     H 6709   9.494   9.861   3.837  0.4988  1.0457 -0.6893
   50MOL0     H 6710   9.306   9.824   3.848 -1.4666  1.7316  2.1789
   50MOL0     H 6711   9.089   9.898   3.791 -0.0530  1.5937  1.2760
   50MOL0     H 6712   8.952   9.795   3.830  0.6160  1.4437 -0.9194
   50MOL0     H 6713   9.040   9.907   3.950 -1.1739 -0.4295  0.7113
   50MOL0     H 6714   8.902   9.267   4.279  0.3137  0.0088  0.1757
   50MOL0     H 6715   8.708   9.193   4.384  1.2169  0.7348  1.7676
   50MOL0     H 6716   8.493   9.154   4.419  2.5052  1.2285  1.6356
   50MOL0     H 6717   8.502   9.245   4.576  0.6593  0.7696 -0.0820
   50MOL0     H 6718   8.260   9.334   4.495 -0.3541  0.0228 -1.5421
   50MOL0     H 6719   8.265   9.210   4.380 -0.1716  0.1888  0.3471
   50MOL0     H 6720   8.140   9.134   4.570 -0.9740  2.3778  2.7338
   50MOL0     H 6721   8.273   9.174   4.674  2.1919  0.5578 -0.8041
   50MOL0     H 6722   8.287   8.981   4.445 -3.2724 -1.4767  0.6207
   50MOL0     H 6723   8.412   8.990   4.563  0.6263 -1.8017 -0.4968
   50MOL0     H 6724   8.205   8.929   4.730 -1.5771 -1.2514 -1.1760
   50MOL0     H 6725   8.299   8.793   4.644  0.4442 -0.2902  1.2779
   50MOL0     H 6726   8.051   8.934   4.552 -1.3734 -1.3265  1.9306
   50MOL0     H 6727   8.148   8.808   4.473  2.9300  0.5155  1.2747
   50MOL0     H 6728   8.015   8.785   4.746 -4.2542 -4.2665  0.8875
   50MOL0     H 6729   8.109   8.663   4.660  0.0217 -0.1127 -2.7008
   50MOL0     H 6730   7.854   8.801   4.543  0.2243  0.1802 -0.3252
   50MOL0     H 6731   7.846   8.665   4.654  0.2673 -0.3091  0.7624
   50MOL0     H 6732   8.515   9.570   4.309 -1.9219 -1.8900 -0.0437
   50MOL0     H 6733   8.712   9.633   4.156  2.8689  1.0959  2.1003
   50MOL0     H 6734   9.190   9.478   4.173  1.0111 -0.2761  2.1212
   50MOL0     H 6735   9.421   9.490   4.079  0.7985  2.0077  0.7637
   50MOL0     H 6736  10.430   8.346   4.374  3.4409 -1.4177  3.9192
   50MOL0     H 6737  10.635   8.216   4.372 -0.7702 -1.1307 -1.8716
   50MOL0     H 6738  11.007   8.069   4.099 -0.0331  0.2918  0.3264
   50MOL0     H 6739  11.193   7.900   4.131  2.4559  0.8499 -0.5524
   50MOL0     H 6740  11.403   7.975   4.098 -1.3079 -1.0204 -0.3864
   50MOL0     H 6741  11.551   8.000   4.186  0.4667 -1.7046  1.0602
   50MOL0     H 6742  11.432   7.742   4.089  1.5248 -0.2392 -3.0350
   50MOL0     H 6743  11.545   7.737   4.222 -0.9216 -1.0426 -0.1434
   50MOL0     H 6744  11.716   7.852   4.085  0.0026  0.1414  0.0846
   50MOL0     H 6745  11.610   7.881   3.946  1.2772  0.6857  0.2108
   50MOL0     H 6746  11.590   7.651   3.887 -0.4133  0.7022  0.3844
   50MOL0     H 6747  11.680   7.601   4.025 -0.0610  0.5832 -0.8208
   50MOL0     H 6748  11.983   7.793   3.759 -1.4172 -0.2689 -2.2277
   50MOL0     H 6749  11.324   8.091   4.482 -1.5663  0.3627  1.1761
   50MOL0     H 6750  11.137   8.257   4.459  1.2682  0.6521 -0.3289
   51MOL0     O 6751   9.737   4.804   5.923  0.2197 -0.8141 -0.1471
   51MOL0     C 6752   9.769   4.899   5.995  0.1474 -0.1157 -0.8931
   51MOL0     O 6753   9.686   5.000   6.038 -0.0959  0.1194 -0.3435
   51MOL0     C 6754   9.549   4.995   6.024 -0.6317  0.3122 -0.2889
   51MOL0     C 6755   9.474   4.939   6.122 -0.9192 -0.4166 -0.2153
   51MOL0     C 6756   9.346   4.911   6.112 -0.3708  0.2539  0.6290
   51MOL0     C 6757   9.271   4.954   5.998  0.2272  0.3929 -0.5253
   51MOL0     O 6758   9.145   4.917   5.970 -0.0461 -0.3964 -0.1567
   51MOL0     C 6759   9.051   4.994   6.052 -0.2778  0.0416 -0.3817
   51MOL0     C 6760   8.921   4.923   6.068  0.6531  0.6012 -0.1454
   51MOL0     C 6761   8.915   4.806   6.165  0.0086 -0.5129 -0.4760
   51MOL0     C 6762   8.894   4.848   6.315  0.2522 -0.1394 -0.6052
   51MOL0     C 6763   8.748   4.880   6.346 -0.6465 -0.1851  0.3029
   51MOL0     C 6764   8.718   4.873   6.493  0.2027  1.3322  0.3204
   51MOL0     C 6765   8.570   4.903   6.515 -0.8394  0.6611  0.0952
   51MOL0     C 6766   8.478   4.773   6.507  0.5559  0.5519 -0.4207
   51MOL0     N 6767   8.346   4.810   6.447  0.2096  0.3298 -0.6956
   51MOL0     C 6768   8.310   4.829   6.320 -0.2177 -0.4569 -0.1360
   51MOL0     C 6769   8.185   4.885   6.325  0.8158 -0.6083 -0.1066
   51MOL0     C 6770   8.109   4.914   6.197  0.6964  0.1432 -0.2547
   51MOL0     C 6771   8.178   4.992   6.092 -0.4897  0.2773  0.4192
   51MOL0     C 6772   8.199   5.144   6.109 -0.3902  0.0193  0.3901
   51MOL0     C 6773   8.314   5.167   6.202 -0.1179 -0.0866  0.3525
   51MOL0     O 6774   8.436   5.106   6.154  0.4173 -0.8490 -0.0449
   51MOL0     C 6775   8.497   5.158   6.044 -0.2016  1.0106  0.3599
   51MOL0     C 6776   8.491   5.288   5.999 -0.4392  0.9481  1.1327
   51MOL0     C 6777   8.559   5.336   5.890 -0.2182 -0.6729 -0.0887
   51MOL0     C 6778   8.537   5.482   5.851 -0.1738  0.3612  0.1459
   51MOL0     C 6779   8.651   5.254   5.826  0.2412 -0.7092 -0.5235
   51MOL0     C 6780   8.744   5.296   5.716  0.6069  0.1977  0.2412
   51MOL0     O 6781   8.853   5.211   5.701 -0.8172 -0.4926 -0.0421
   51MOL0     C 6782   8.923   5.221   5.575  0.0903  0.1202 -0.4268
   51MOL0     C 6783   9.066   5.210   5.582 -0.2966 -0.4039  0.3490
   51MOL0     C 6784   9.143   5.206   5.470  0.5632 -0.4244 -1.2550
   51MOL0     C 6785   9.082   5.209   5.346  0.3481  0.6094  0.2373
   51MOL0     O 6786   9.151   5.195   5.231 -0.2520  0.0755  0.6655
   51MOL0     C 6787   9.287   5.160   5.238 -0.9156 -0.0467 -0.1087
   51MOL0     C 6788   9.345   5.138   5.089  0.3917 -0.3123 -0.1476
   51MOL0     C 6789   9.484   5.075   5.076  0.5896  0.3348 -0.7577
   51MOL0     C 6790   9.587   5.183   5.054  0.0011  0.6557 -0.0632
   51MOL0     C 6791   9.735   5.143   5.023  0.0347 -1.0537 -1.0648
   51MOL0     C 6792   9.796   5.263   4.953  0.8868 -0.2531 -0.1574
   51MOL0     C 6793   9.953   5.255   4.937  1.2336  0.2313 -0.2803
   51MOL0     C 6794  10.005   5.145   4.847 -0.4244 -0.3149 -0.4457
   51MOL0    Cl 6795  10.179   5.128   4.882  0.1159 -0.0149 -0.0238
   51MOL0     C 6796   8.946   5.209   5.338  0.0558  0.4082  0.1072
   51MOL0     C 6797   8.866   5.223   5.452  0.1935  0.1800 -0.9407
   51MOL0     O 6798   8.730   5.401   5.650  0.2237 -0.9784 -0.0503
   51MOL0     C 6799   8.669   5.131   5.883 -0.6227  0.7934  0.6719
   51MOL0     C 6800   8.592   5.073   5.986  0.0486 -0.8822  0.4079
   51MOL0     N 6801   8.145   4.874   6.459  0.0598  0.4878  0.4704
   51MOL0     N 6802   8.237   4.837   6.528 -0.5181 -0.8570 -0.1094
   51MOL0     C 6803   9.337   5.016   5.898  0.3256 -0.2456 -0.0647
   51MOL0     C 6804   9.479   5.036   5.907  0.0437  0.1275 -0.4192
   51MOL0     C 6805   9.910   4.913   6.031  0.1327  0.1381 -0.2618
   51MOL0     C 6806   9.958   4.978   6.147  0.3518 -0.0307  0.4395
   51MOL0     C 6807  10.094   4.981   6.188  0.2452 -0.8690 -0.5449
   51MOL0     C 6808  10.183   4.921   6.099 -0.2346 -0.6968  0.4443
   51MOL0     O 6809  10.318   4.932   6.112 -0.0653  0.2784 -0.6596
   51MOL0     C 6810  10.375   4.965   6.239  0.3051 -0.0791 -0.7928
   51MOL0     C 6811  10.413   5.111   6.254 -0.2558  0.5368 -0.8293
   51MOL0     C 6812  10.504   5.134   6.379 -0.0347 -0.4429 -0.5380
   51MOL0     C 6813  10.528   5.283   6.409 -0.0312  0.2678  0.0665
   51MOL0     C 6814  10.625   5.348   6.315  0.6527  0.1098 -0.2699
   51MOL0     C 6815  10.679   5.415   6.231  0.0879  0.2207  0.7688
   51MOL0     C 6816  10.142   4.848   5.986 -0.2769  0.9257 -0.0912
   51MOL0     C 6817  10.007   4.852   5.950 -0.6183 -0.7340 -0.2010
   51MOL0     H 6818   9.539   4.894   6.197 -0.4674 -1.6114 -1.2675
   51MOL0     H 6819   9.305   4.861   6.199  0.6656  0.6236  1.3505
   51MOL0     H 6820   9.095   5.000   6.152  0.8172 -2.0932 -0.6700
   51MOL0     H 6821   9.046   5.094   6.009 -0.3538  0.0918 -0.2582
   51MOL0     H 6822   8.854   5.005   6.098 -0.4160  0.0287 -0.9148
   51MOL0     H 6823   8.891   4.887   5.969 -1.4666  0.9836  0.2980
   51MOL0     H 6824   8.844   4.730   6.134 -1.7551  0.8780  0.0057
   51MOL0     H 6825   9.013   4.757   6.157 -1.0848 -2.5740 -1.8055
   51MOL0     H 6826   8.901   4.764   6.385 -2.9861  0.4071  0.5723
   51MOL0     H 6827   8.952   4.935   6.346 -1.4900  0.5592  0.9120
   51MOL0     H 6828   8.714   4.974   6.301 -1.0713 -0.4252  0.1171
   51MOL0     H 6829   8.690   4.799   6.300  1.4609 -0.5939 -1.8645
   51MOL0     H 6830   8.740   4.771   6.524 -2.9622  1.1622  2.4758
   51MOL0     H 6831   8.788   4.939   6.546  0.1445  1.3516  0.3734
   51MOL0     H 6832   8.560   4.952   6.612 -2.3359 -2.6231  1.7439
   51MOL0     H 6833   8.539   4.981   6.445  1.9396  0.9920 -0.9191
   51MOL0     H 6834   8.460   4.741   6.610 -2.1790 -2.2598 -1.6180
   51MOL0     H 6835   8.517   4.695   6.441 -0.6121  0.3165 -0.8496
   51MOL0     H 6836   8.366   4.800   6.231 -0.3055  3.0381 -1.4716
   51MOL0     H 6837   8.090   4.815   6.154  2.4860  1.0808 -3.5793
   51MOL0     H 6838   8.029   4.980   6.231  1.4338  1.1355 -0.4234
   51MOL0     H 6839   8.115   4.988   6.002  1.0882  0.7837 -0.7641
   51MOL0     H 6840   8.271   4.948   6.056 -0.6821 -0.2078  0.5017
   51MOL0     H 6841   8.109   5.189   6.152  1.5839  1.0534  3.7986
   51MOL0     H 6842   8.219   5.182   6.008 -2.2424  1.8850  0.6634
   51MOL0     H 6843   8.291   5.137   6.304 -0.0548 -0.2042  0.3332
   51MOL0     H 6844   8.344   5.269   6.229 -0.9631 -0.1533  1.6090
   51MOL0     H 6845   8.423   5.358   6.047  0.8133  2.4560  0.8070
   51MOL0     H 6846   8.632   5.533   5.870  1.1207 -2.3686  1.4604
   51MOL0     H 6847   8.517   5.494   5.744  0.6848 -0.2945 -0.1003
   51MOL0     H 6848   8.453   5.532   5.900  0.9335  3.9349 -1.2719
   51MOL0     H 6849   9.103   5.204   5.684 -0.3938  1.7357  0.5601
   51MOL0     H 6850   9.252   5.199   5.474  1.0943  4.3592  2.8205
   51MOL0     H 6851   9.350   5.223   5.301 -1.1558 -2.0944  2.3379
   51MOL0     H 6852   9.288   5.058   5.277 -1.4829 -0.8188 -2.0102
   51MOL0     H 6853   9.268   5.071   5.049  1.8034 -2.2901  0.3026
   51MOL0     H 6854   9.343   5.235   5.038  1.2556  0.2090  0.7753
   51MOL0     H 6855   9.485   5.013   4.986  2.2695 -0.4713 -0.2419
   51MOL0     H 6856   9.509   5.014   5.164 -0.1442  0.9430 -0.1182
   51MOL0     H 6857   9.557   5.240   4.965 -0.9465  0.6921  0.2637
   51MOL0     H 6858   9.582   5.268   5.123  1.8155  2.5785 -2.1169
   51MOL0     H 6859   9.733   5.055   4.959 -2.0317 -2.0483  0.2933
   51MOL0     H 6860   9.781   5.117   5.119 -3.3483 -0.6148  0.8538
   51MOL0     H 6861   9.755   5.278   4.853  4.2594 -3.5865 -2.3160
   51MOL0     H 6862   9.776   5.345   5.023  0.5649 -0.6678  0.2394
   51MOL0     H 6863   9.976   5.244   5.043 -1.6250 -0.4107  0.3625
   51MOL0     H 6864   9.980   5.357   4.908 -2.4215  1.0496 -1.4186
   51MOL0     H 6865   9.993   5.174   4.742 -1.7953 -0.3054 -0.3109
   51MOL0     H 6866   9.954   5.049   4.866  0.8575 -0.8198  0.5826
   51MOL0     H 6867   8.904   5.204   5.238  0.2124  0.3447  0.0448
   51MOL0     H 6868   8.757   5.222   5.448  0.2302 -1.6530 -2.7645
   51MOL0     H 6869   8.713   5.054   5.820 -3.4781  1.9195 -3.1387
   51MOL0     H 6870   8.604   4.973   6.025  0.1525 -0.4212  1.6071
   51MOL0     H 6871   9.287   5.043   5.806 -0.2232  2.3708  0.9206
   51MOL0     H 6872   9.538   5.071   5.822  1.6907 -1.4888 -0.0130
   51MOL0     H 6873   9.881   5.027   6.204 -4.0943 -2.9289 -2.4364
   51MOL0     H 6874  10.127   5.042   6.271  1.5905  0.4018 -1.9440
   51MOL0     H 6875  10.315   4.950   6.330 -0.3620  2.1280 -0.8042
   51MOL0     H 6876  10.462   4.899   6.244  0.5153  0.2194 -0.4629
   51MOL0     H 6877  10.329   5.178   6.274  0.7688  1.0282  2.3873
   51MOL0     H 6878  10.479   5.136   6.170  0.4370 -0.0433 -0.4744
   51MOL0     H 6879  10.603   5.089   6.360 -0.8049 -1.9293 -1.2322
   51MOL0     H 6880  10.458   5.086   6.466  0.4542 -1.3742 -0.7754
   51MOL0     H 6881  10.551   5.307   6.513 -2.4249  1.0935  0.4814
   51MOL0     H 6882  10.436   5.341   6.398  0.0686  0.5313  0.5740
   51MOL0     H 6883  10.747   5.455   6.159  2.0486  1.1367  2.9851
   51MOL0     H 6884  10.217   4.806   5.920  1.0102  0.2729  1.6998
   51MOL0     H 6885   9.978   4.809   5.855 -1.6749  1.4617 -0.9368
   52MOL0     O 6886   5.955   1.378   1.138 -0.0698 -0.2075  0.0189
   52MOL0     C 6887   6.010   1.329   1.238 -0.3422 -0.4556 -0.1104
   52MOL0     O 6888   5.958   1.220   1.310 -0.6842  0.6472 -0.3005
   52MOL0     C 6889   5.828   1.182   1.291 -1.0318  0.5234 -0.7346
   52MOL0     C 6890   5.779   1.147   1.166 -0.5179 -0.2335  0.1672
   52MOL0     C 6891   5.643   1.102   1.161 -0.2844  0.6074 -0.0030
   52MOL0     C 6892   5.560   1.091   1.269  0.8772 -0.3168  0.1380
   52MOL0     O 6893   5.424   1.065   1.255  0.5115 -0.4332 -0.3100
   52MOL0     C 6894   5.350   1.027   1.367  0.5256  0.4315 -0.0714
   52MOL0     C 6895   5.215   0.953   1.334  0.7327 -0.6486  0.3810
   52MOL0     C 6896   5.118   1.038   1.252 -0.5143 -1.0446  0.0432
   52MOL0     C 6897   5.112   1.001   1.100  0.4390 -0.6552 -0.6311
   52MOL0     C 6898   5.033   0.873   1.065  0.0557 -0.6399  0.0596
   52MOL0     C 6899   5.056   0.847   0.920 -0.4900 -0.4918 -0.7299
   52MOL0     C 6900   5.007   0.723   0.865  0.5620  0.8059  0.0853
   52MOL0     C 6901   4.862   0.687   0.906 -0.4072  0.5285 -0.5923
   52MOL0     N 6902   4.770   0.793   0.899  0.1434 -0.0336 -0.3388
   52MOL0     C 6903   4.666   0.810   0.988  0.8537  0.1235  0.4470
   52MOL0     C 6904   4.588   0.904   0.931 -0.5711  0.0984  0.4288
   52MOL0     C 6905   4.452   0.949   0.977 -0.2508 -0.1931 -0.4755
   52MOL0     C 6906   4.362   0.828   0.945  0.6338  0.1852  1.0096
   52MOL0     C 6907   4.339   0.789   0.795  0.3387 -0.4980 -0.1178
   52MOL0     C 6908   4.270   0.895   0.705  0.3873  0.7128  0.4026
   52MOL0     O 6909   4.226   0.831   0.583 -0.1152 -0.0617 -0.1165
   52MOL0     C 6910   4.091   0.862   0.549  0.2874 -0.3847 -0.5966
   52MOL0     C 6911   4.047   0.987   0.518 -0.3283 -0.5873  0.3702
   52MOL0     C 6912   3.912   1.013   0.475 -0.7226 -0.1047 -0.3893
   52MOL0     C 6913   3.879   1.150   0.431  0.6997  0.1895 -0.0995
   52MOL0     C 6914   3.820   0.904   0.478 -0.1842 -0.1224 -0.1185
   52MOL0     C 6915   3.686   0.900   0.417 -0.3281 -0.2110  0.4511
   52MOL0     O 6916   3.634   0.780   0.385  0.3764  0.6165  0.0213
   52MOL0     C 6917   3.498   0.776   0.362 -0.1241 -0.5251 -0.5633
   52MOL0     C 6918   3.448   0.745   0.234 -0.7040  0.2322 -0.7140
   52MOL0     C 6919   3.313   0.743   0.217 -0.3360  0.0114 -1.0760
   52MOL0     C 6920   3.221   0.775   0.319  0.8431 -0.4466 -0.6809
   52MOL0     O 6921   3.082   0.786   0.304 -0.2331 -0.3268  0.4358
   52MOL0     C 6922   3.027   0.753   0.175 -0.8505  0.0781  0.2871
   52MOL0     C 6923   2.889   0.701   0.211  0.1827  0.2258 -0.3067
   52MOL0     C 6924   2.775   0.796   0.153 -0.2000  0.6713  0.0315
   52MOL0     C 6925   2.638   0.719   0.156 -0.5048  0.0566 -0.6400
   52MOL0     C 6926   2.518   0.801   0.101 -0.0683 -0.1063 -0.4129
   52MOL0     C 6927   2.453   0.872   0.221  0.3728  0.0297  0.4741
   52MOL0     C 6928   2.315   0.929   0.167 -0.1041 -0.0947  0.0571
   52MOL0     C 6929   2.255   1.035   0.262 -0.4194 -0.4159 -0.3195
   52MOL0    Cl 6930   2.223   0.964   0.418 -0.1353 -0.3941  0.0373
   52MOL0     C 6931   3.269   0.806   0.443 -0.6183  0.6483 -0.0987
   52MOL0     C 6932   3.407   0.800   0.468 -0.4787 -0.2762  0.0565
   52MOL0     O 6933   3.625   1.003   0.422 -0.3280 -0.5165 -0.7252
   52MOL0     C 6934   3.868   0.778   0.526 -0.2151  0.4251  0.0501
   52MOL0     C 6935   4.001   0.757   0.552  0.1789  0.1036  0.4556
   52MOL0     N 6936   4.644   0.924   0.807 -0.0980 -0.1952  0.2975
   52MOL0     N 6937   4.747   0.859   0.790  0.6321 -0.5318 -0.3839
   52MOL0     C 6938   5.614   1.120   1.401  0.0703  0.3743  0.4346
   52MOL0     C 6939   5.751   1.165   1.404 -0.7290 -1.1501  0.3690
   52MOL0     C 6940   6.144   1.387   1.271 -0.3561  0.4002 -0.2558
   52MOL0     C 6941   6.204   1.372   1.398 -0.2361  0.1740  0.1742
   52MOL0     C 6942   6.328   1.433   1.428 -0.6472 -0.3789  0.8151
   52MOL0     C 6943   6.387   1.509   1.329 -0.1153  0.3517 -0.1872
   52MOL0     O 6944   6.519   1.557   1.358 -0.3564 -0.2361 -0.1529
   52MOL0     C 6945   6.618   1.544   1.248 -0.4798 -0.5183 -0.3985
   52MOL0     C 6946   6.655   1.683   1.205  0.2482 -0.0004  0.0261
   52MOL0     C 6947   6.787   1.682   1.115  0.0664  0.0973 -0.7507
   52MOL0     C 6948   6.825   1.819   1.070  0.2670  0.2722  0.5538
   52MOL0     C 6949   6.960   1.826   1.013 -0.0651 -0.0500 -0.0401
   52MOL0     C 6950   7.078   1.819   0.973  0.1332 -0.7110  0.5615
   52MOL0     C 6951   6.325   1.525   1.205  0.0369 -0.1961  0.4121
   52MOL0     C 6952   6.206   1.464   1.178  0.4752 -0.1075 -0.7759
   52MOL0     H 6953   5.854   1.153   1.088 -0.0981  0.9811  0.6512
   52MOL0     H 6954   5.614   1.070   1.062 -0.4398 -2.1799  0.8617
   52MOL0     H 6955   5.407   0.963   1.435  1.1829  1.9386  0.8423
   52MOL0     H 6956   5.336   1.124   1.416  3.0057  0.0469  1.5875
   52MOL0     H 6957   5.230   0.853   1.291 -1.8965 -0.5201 -0.9849
   52MOL0     H 6958   5.157   0.949   1.427 -3.3606  2.8663 -1.6937
   52MOL0     H 6959   5.015   1.020   1.284 -0.4421  1.6094  2.0257
   52MOL0     H 6960   5.152   1.141   1.262  1.3994 -1.3978 -1.9567
   52MOL0     H 6961   5.075   1.082   1.037  0.5149 -1.6278 -1.9672
   52MOL0     H 6962   5.217   0.991   1.070  0.4701 -0.3975 -0.6120
   52MOL0     H 6963   5.072   0.789   1.122  0.1857 -0.5854  0.0512
   52MOL0     H 6964   4.929   0.901   1.087  0.9537  1.5194  1.9587
   52MOL0     H 6965   5.017   0.935   0.869 -0.0305  0.0998 -0.0831
   52MOL0     H 6966   5.165   0.851   0.907 -0.4083  1.2527  0.1782
   52MOL0     H 6967   5.003   0.730   0.755 -0.4607  0.2229  0.0679
   52MOL0     H 6968   5.077   0.640   0.880  0.2587  0.4533 -0.4061
   52MOL0     H 6969   4.861   0.641   1.006 -0.9078 -0.6477 -1.1206
   52MOL0     H 6970   4.824   0.614   0.834  0.4952  1.1970 -1.7868
   52MOL0     H 6971   4.649   0.762   1.084  3.2834 -2.2130 -0.1732
   52MOL0     H 6972   4.451   0.968   1.085  1.6539  1.4211 -0.6763
   52MOL0     H 6973   4.407   1.034   0.925 -0.6604 -0.3897 -0.4456
   52MOL0     H 6974   4.261   0.847   0.983 -0.3877 -0.7950 -1.0611
   52MOL0     H 6975   4.394   0.736   0.995  0.0616  0.8572  2.6938
   52MOL0     H 6976   4.269   0.707   0.808 -1.8109  1.2813  0.0571
   52MOL0     H 6977   4.427   0.741   0.751  0.8907 -1.6770  2.1301
   52MOL0     H 6978   4.346   0.969   0.675  2.1419 -0.4458  1.7634
   52MOL0     H 6979   4.184   0.945   0.749 -0.7020 -0.2191 -0.6188
   52MOL0     H 6980   4.119   1.068   0.511 -1.7189  0.6318 -0.3808
   52MOL0     H 6981   3.959   1.224   0.429  0.4669  0.4627  0.3840
   52MOL0     H 6982   3.827   1.141   0.335 -0.6162 -1.6561  0.7107
   52MOL0     H 6983   3.803   1.185   0.502 -0.0690 -4.1109  1.5007
   52MOL0     H 6984   3.506   0.709   0.149 -3.7007 -4.7292 -1.0463
   52MOL0     H 6985   3.282   0.729   0.114  1.1490  2.0490 -1.8702
   52MOL0     H 6986   3.021   0.850   0.124 -2.0773  1.1617  2.3053
   52MOL0     H 6987   3.079   0.675   0.120  0.9410 -0.4550  2.5691
   52MOL0     H 6988   2.875   0.605   0.160  1.1492 -0.0305 -0.1160
   52MOL0     H 6989   2.871   0.681   0.317 -0.6961  0.1404 -0.4704
   52MOL0     H 6990   2.790   0.827   0.049  0.4809  1.2353  0.2880
   52MOL0     H 6991   2.765   0.880   0.222  1.1395 -1.8622  3.5589
   52MOL0     H 6992   2.652   0.624   0.104  2.1106 -0.7978  1.3820
   52MOL0     H 6993   2.616   0.693   0.260  1.3364 -0.0337 -0.2372
   52MOL0     H 6994   2.450   0.726   0.060  3.3700 -3.2566 -0.8889
   52MOL0     H 6995   2.560   0.862   0.019 -0.0102 -2.0830 -1.9186
   52MOL0     H 6996   2.433   0.801   0.302  0.5359 -0.7304 -0.1391
   52MOL0     H 6997   2.520   0.948   0.261  0.6007 -0.9373  1.9971
   52MOL0     H 6998   2.246   0.846   0.152  1.9946 -1.5798 -2.1125
   52MOL0     H 6999   2.329   0.984   0.074  1.7979 -1.3163 -0.4472
   52MOL0     H 7000   2.166   1.081   0.218 -0.3657  1.2541  1.1985
   52MOL0     H 7001   2.327   1.116   0.276  1.5758 -2.0095 -0.8624
   52MOL0     H 7002   3.201   0.830   0.524 -0.8008  2.0420 -0.6410
   52MOL0     H 7003   3.456   0.843   0.555 -0.3895  2.2035 -1.1333
   52MOL0     H 7004   3.812   0.685   0.521  1.5736 -0.6361 -2.9666
   52MOL0     H 7005   4.030   0.657   0.580 -0.8610 -0.6722 -1.1043
   52MOL0     H 7006   5.561   1.110   1.496 -1.9847 -0.9838 -0.7604
   52MOL0     H 7007   5.790   1.188   1.502 -0.6036  3.7592 -0.5503
   52MOL0     H 7008   6.154   1.314   1.475  2.2716 -1.1306  0.9260
   52MOL0     H 7009   6.381   1.417   1.521  0.8757 -0.1604  0.0030
   52MOL0     H 7010   6.709   1.495   1.284 -1.1652  0.7909  3.7106
   52MOL0     H 7011   6.573   1.504   1.157 -2.6241 -2.4792  1.3768
   52MOL0     H 7012   6.680   1.745   1.292  1.5385 -1.9626  1.1465
   52MOL0     H 7013   6.572   1.718   1.143  0.0661 -1.2132 -0.4308
   52MOL0     H 7014   6.768   1.623   1.024  1.5753 -0.4941 -0.7126
   52MOL0     H 7015   6.866   1.639   1.177  0.4670  1.2542 -0.4478
   52MOL0     H 7016   6.827   1.877   1.162  0.4407 -3.3233  3.0189
   52MOL0     H 7017   6.754   1.860   0.998 -0.0334  0.2885  0.8571
   52MOL0     H 7018   7.176   1.817   0.929  0.4743  0.3210  1.2316
   52MOL0     H 7019   6.372   1.577   1.122 -3.2297 -0.5016 -1.8184
   52MOL0     H 7020   6.167   1.477   1.078 -3.5267  0.8689  0.7282
   53MOL0     O 7021   7.018   2.159   5.550 -0.0599 -0.4794  0.4065
   53MOL0     C 7022   7.080   2.080   5.627  0.6596  0.3251 -0.5359
   53MOL0     O 7023   7.030   1.974   5.684  0.3001 -0.0830 -1.1360
   53MOL0     C 7024   6.909   1.939   5.645  0.1581 -0.1746 -0.2636
   53MOL0     C 7025   6.894   1.862   5.527 -0.7844 -0.4311  0.6646
   53MOL0     C 7026   6.765   1.832   5.476 -0.2997  0.3740  0.8629
   53MOL0     C 7027   6.651   1.883   5.541  1.1303 -0.6856  0.7360
   53MOL0     O 7028   6.522   1.864   5.493  0.4463  0.0543 -1.2232
   53MOL0     C 7029   6.503   1.785   5.369  0.0214  0.4164 -0.3320
   53MOL0     C 7030   6.368   1.778   5.322 -0.0402 -0.3628 -0.0145
   53MOL0     C 7031   6.250   1.761   5.431 -0.9308  0.2448 -0.8398
   53MOL0     C 7032   6.101   1.756   5.381 -0.8445 -0.1746 -0.0687
   53MOL0     C 7033   6.065   1.619   5.324 -0.2438  0.1740  0.0250
   53MOL0     C 7034   5.919   1.584   5.303 -0.4457 -0.6072 -0.0811
   53MOL0     C 7035   5.833   1.597   5.428  0.8972 -0.5136 -0.0979
   53MOL0     C 7036   5.685   1.595   5.402  0.0762  0.3905  0.5403
   53MOL0     N 7037   5.652   1.455   5.374 -0.1382  0.6024 -0.2669
   53MOL0     C 7038   5.614   1.365   5.470  0.9644 -0.7177  0.0492
   53MOL0     C 7039   5.554   1.268   5.397  0.5547 -0.0716  0.4130
   53MOL0     C 7040   5.529   1.131   5.455 -0.2663 -0.2237 -0.6091
   53MOL0     C 7041   5.411   1.056   5.391  0.1668  0.2881 -0.7744
   53MOL0     C 7042   5.395   0.919   5.459 -0.6875 -0.8246 -0.2717
   53MOL0     C 7043   5.314   0.819   5.384  0.0580  0.8294  0.3244
   53MOL0     O 7044   5.175   0.819   5.412 -0.5543  0.4156 -0.4913
   53MOL0     C 7045   5.098   0.726   5.338 -0.2755  0.3159  0.3130
   53MOL0     C 7046   5.143   0.624   5.253 -0.1587  0.2575 -0.2731
   53MOL0     C 7047   5.062   0.530   5.186 -0.1997 -0.4211 -0.9500
   53MOL0     C 7048   5.131   0.425   5.104  0.1469  0.3396  0.1573
   53MOL0     C 7049   4.919   0.540   5.202 -0.4813  0.5090  0.1759
   53MOL0     C 7050   4.811   0.449   5.143 -0.1211 -0.6251 -0.4280
   53MOL0     O 7051   4.835   0.363   5.034 -0.0302  0.2431  0.1235
   53MOL0     C 7052   4.732   0.308   4.959  0.6955  0.2222 -0.0633
   53MOL0     C 7053   4.683   0.179   4.987 -0.3239  0.5391 -0.3211
   53MOL0     C 7054   4.581   0.119   4.914  0.8219  0.1996  0.3038
   53MOL0     C 7055   4.520   0.197   4.816  0.2951 -0.3112  0.3666
   53MOL0     O 7056   4.410   0.151   4.753 -0.1559  0.4956 -0.1698
   53MOL0     C 7057   4.381   0.177   4.613  0.7644 -0.5620 -1.1737
   53MOL0     C 7058   4.459   0.080   4.528 -0.4105 -0.2665 -0.4513
   53MOL0     C 7059   4.406  -0.062   4.539  0.4704  0.1263  0.5952
   53MOL0     C 7060   4.512  -0.153   4.461 -0.3253 -0.2802 -0.1213
   53MOL0     C 7061   4.454  -0.310   4.452  0.3821  0.0880 -0.6233
   53MOL0     C 7062   4.569  -0.404   4.399 -0.2556 -0.4951  0.3822
   53MOL0     C 7063   4.544  -0.549   4.441  0.0490  0.0990  0.1110
   53MOL0     C 7064   4.590  -0.569   4.587 -0.2589 -0.2532 -1.2135
   53MOL0    Cl 7065   4.777  -0.566   4.608  0.5101 -0.2529 -0.0245
   53MOL0     C 7066   4.562   0.324   4.787 -0.5544  0.2270 -0.0212
   53MOL0     C 7067   4.672   0.381   4.857  0.4217 -0.1297 -0.7271
   53MOL0     O 7068   4.702   0.455   5.202  0.0948  0.8805  0.2122
   53MOL0     C 7069   4.871   0.640   5.290  0.1608  0.5229  0.5105
   53MOL0     C 7070   4.960   0.735   5.349  0.3506  0.5761  0.7842
   53MOL0     N 7071   5.577   1.305   5.260 -0.1627  0.5541 -0.3278
   53MOL0     N 7072   5.634   1.417   5.250  0.3229  0.4220  0.1480
   53MOL0     C 7073   6.666   1.951   5.664 -1.0187 -0.9417 -0.0192
   53MOL0     C 7074   6.798   1.973   5.717 -1.0306  0.0515  0.9857
   53MOL0     C 7075   7.226   2.119   5.666 -0.2983  0.7131 -0.2410
   53MOL0     C 7076   7.275   2.248   5.656  0.5914  0.9032  0.2715
   53MOL0     C 7077   7.406   2.279   5.693  0.3616  0.6577 -0.4578
   53MOL0     C 7078   7.490   2.184   5.744 -0.3727 -0.4130  0.0054
   53MOL0     O 7079   7.623   2.201   5.781 -0.1221  0.2939 -0.1831
   53MOL0     C 7080   7.712   2.298   5.728  0.0418  0.1095 -0.2053
   53MOL0     C 7081   7.750   2.275   5.582 -0.0439 -0.2482  0.6753
   53MOL0     C 7082   7.856   2.379   5.534 -0.9196 -1.3164  0.3422
   53MOL0     C 7083   7.999   2.357   5.568 -0.2827 -0.4392 -0.3099
   53MOL0     C 7084   8.086   2.456   5.501 -0.6919  0.4174  0.3089
   53MOL0     C 7085   8.140   2.550   5.459 -0.9043 -0.1439  0.6970
   53MOL0     C 7086   7.441   2.051   5.762  0.3083 -0.6903  0.1094
   53MOL0     C 7087   7.312   2.019   5.723 -0.5516  0.1928 -0.6982
   53MOL0     H 7088   6.987   1.826   5.484 -0.5574 -0.1651  0.9297
   53MOL0     H 7089   6.760   1.768   5.388  0.9017 -0.6581  1.5077
   53MOL0     H 7090   6.563   1.827   5.288  0.0902  0.7944 -0.0894
   53MOL0     H 7091   6.517   1.680   5.397 -1.0746 -0.0264 -1.3523
   53MOL0     H 7092   6.358   1.880   5.283  1.7815  0.7915  2.2607
   53MOL0     H 7093   6.359   1.692   5.255 -0.8235 -1.4139  1.4080
   53MOL0     H 7094   6.261   1.670   5.491 -2.5771  1.3673  1.3127
   53MOL0     H 7095   6.264   1.839   5.506 -3.1199 -0.5062  0.4449
   53MOL0     H 7096   6.038   1.782   5.466  1.1484 -0.3659  1.5210
   53MOL0     H 7097   6.087   1.832   5.304 -1.1286  0.3878  0.5360
   53MOL0     H 7098   6.128   1.592   5.239  3.1497 -2.7939  3.1464
   53MOL0     H 7099   6.098   1.542   5.394  0.2704 -0.9188 -1.3494
   53MOL0     H 7100   5.887   1.644   5.217  2.0407 -0.5964 -1.1093
   53MOL0     H 7101   5.909   1.480   5.273  2.8399 -0.6005 -1.6723
   53MOL0     H 7102   5.841   1.518   5.503 -1.8218 -0.1832  0.6477
   53MOL0     H 7103   5.844   1.693   5.478 -1.5187 -0.1658 -0.0897
   53MOL0     H 7104   5.655   1.656   5.316 -0.3306  1.6940  1.5641
   53MOL0     H 7105   5.629   1.629   5.491 -1.8961  0.7555 -0.7704
   53MOL0     H 7106   5.621   1.361   5.578 -0.5110  1.5673  0.2855
   53MOL0     H 7107   5.619   1.072   5.441  0.3612  0.4757  0.3593
   53MOL0     H 7108   5.516   1.153   5.561 -1.7709 -3.6308  0.0212
   53MOL0     H 7109   5.435   1.044   5.285  1.6282 -1.0617 -0.3409
   53MOL0     H 7110   5.316   1.109   5.396 -0.7058 -1.2818 -0.0736
   53MOL0     H 7111   5.359   0.932   5.562  1.0351  0.0670  0.2612
   53MOL0     H 7112   5.493   0.871   5.467 -0.5547 -0.4462  0.5451
   53MOL0     H 7113   5.360   0.725   5.414  1.0243  1.7422  1.8129
   53MOL0     H 7114   5.332   0.837   5.278  2.5774 -1.0807  0.3544
   53MOL0     H 7115   5.250   0.610   5.238 -0.3755 -3.1993  0.5233
   53MOL0     H 7116   5.237   0.450   5.118  1.0292 -2.3367 -1.0595
   53MOL0     H 7117   5.099   0.325   5.134 -0.9297  0.3988 -0.7719
   53MOL0     H 7118   5.112   0.433   4.997  0.5657 -3.1366 -0.2710
   53MOL0     H 7119   4.731   0.116   5.062 -0.5902  0.8431  0.1064
   53MOL0     H 7120   4.553   0.015   4.933 -1.8377  0.8241  0.2598
   53MOL0     H 7121   4.275   0.152   4.607  0.4327  0.7748 -1.3086
   53MOL0     H 7122   4.400   0.282   4.587 -2.3348  0.7522  1.2808
   53MOL0     H 7123   4.457   0.120   4.426 -0.9513 -0.1028 -0.3827
   53MOL0     H 7124   4.564   0.080   4.557  0.5028 -0.0585 -3.3994
   53MOL0     H 7125   4.305  -0.066   4.495  1.1026 -2.0682 -0.8154
   53MOL0     H 7126   4.396  -0.100   4.641 -1.0670 -1.8025 -0.2053
   53MOL0     H 7127   4.529  -0.114   4.360 -2.4556  0.6815 -0.1815
   53MOL0     H 7128   4.603  -0.164   4.521  2.4041  0.6756 -3.7664
   53MOL0     H 7129   4.362  -0.313   4.393  0.3677  2.1630 -0.7686
   53MOL0     H 7130   4.426  -0.348   4.551  0.2107  0.6158 -0.4649
   53MOL0     H 7131   4.559  -0.396   4.291  4.3070 -0.2976 -0.2295
   53MOL0     H 7132   4.671  -0.371   4.423 -0.0846  0.1272 -1.1266
   53MOL0     H 7133   4.601  -0.623   4.384 -1.1494  0.6263 -1.8469
   53MOL0     H 7134   4.440  -0.580   4.434  0.1925 -0.3711  0.0226
   53MOL0     H 7135   4.556  -0.670   4.611 -0.9844  0.0674 -0.8415
   53MOL0     H 7136   4.543  -0.503   4.660 -2.1834 -1.4058 -1.3491
   53MOL0     H 7137   4.510   0.392   4.720 -0.3120 -0.8384 -1.3104
   53MOL0     H 7138   4.703   0.484   4.843  1.5850  0.4815  4.4637
   53MOL0     H 7139   4.765   0.654   5.312 -0.6332  0.2272 -2.6130
   53MOL0     H 7140   4.948   0.815   5.422  2.3271  2.0987 -0.4629
   53MOL0     H 7141   6.583   1.985   5.726  1.3644  1.0716  2.3062
   53MOL0     H 7142   6.817   2.007   5.818 -1.9962 -2.8132  2.2535
   53MOL0     H 7143   7.214   2.328   5.615  1.8792  0.3160 -3.1571
   53MOL0     H 7144   7.451   2.377   5.675  1.0982  0.6876  1.3655
   53MOL0     H 7145   7.666   2.396   5.742  2.2034  1.0966  0.5419
   53MOL0     H 7146   7.810   2.292   5.777  0.3354  1.9158 -0.5100
   53MOL0     H 7147   7.663   2.293   5.518  1.1441  1.8745 -0.4625
   53MOL0     H 7148   7.782   2.172   5.563 -0.9919 -0.2025 -1.4019
   53MOL0     H 7149   7.825   2.475   5.575 -1.5093 -0.3198 -2.2266
   53MOL0     H 7150   7.852   2.391   5.425 -1.4350 -2.4868  0.2112
   53MOL0     H 7151   8.017   2.254   5.536  1.3029 -0.1679 -0.3356
   53MOL0     H 7152   8.012   2.359   5.677 -3.1222  3.5369  0.1946
   53MOL0     H 7153   8.185   2.638   5.416 -2.4914 -0.3405 -1.5258
   53MOL0     H 7154   7.510   1.975   5.796  1.2273 -0.9081 -2.1303
   53MOL0     H 7155   7.276   1.918   5.738  0.7462 -0.2824 -0.6068
   54MOL0     O 7156   8.226   6.425   6.367  0.1212 -0.3155 -0.0471
   54MOL0     C 7157   8.246   6.481   6.259 -0.1582 -0.0112 -0.3931
   54MOL0     O 7158   8.154   6.559   6.199 -0.5902  0.1356 -0.7997
   54MOL0     C 7159   8.029   6.566   6.267 -0.0425  0.7449  0.1362
   54MOL0     C 7160   7.937   6.462   6.278  0.1866  0.2762 -0.4070
   54MOL0     C 7161   7.807   6.487   6.328 -0.7654 -0.0800  0.4585
   54MOL0     C 7162   7.768   6.613   6.373 -0.1227  0.0103  0.3089
   54MOL0     O 7163   7.644   6.618   6.427 -0.6552 -0.3718  0.0406
   54MOL0     C 7164   7.591   6.747   6.473  0.2312 -0.3980  0.4186
   54MOL0     C 7165   7.451   6.724   6.526  0.2817  0.3213 -0.4632
   54MOL0     C 7166   7.339   6.694   6.425 -0.4165  0.1348  0.8144
   54MOL0     C 7167   7.206   6.707   6.501  0.1062 -0.4861  0.5485
   54MOL0     C 7168   7.076   6.651   6.434  0.2331 -0.6142  1.0664
   54MOL0     C 7169   7.093   6.500   6.412 -0.3210  0.2623  0.2704
   54MOL0     C 7170   6.971   6.422   6.392  0.3178  0.1239 -0.4482
   54MOL0     C 7171   6.923   6.410   6.248  0.4767 -0.0658  1.1953
   54MOL0     N 7172   6.865   6.533   6.200 -0.0391  0.0120 -0.3813
   54MOL0     C 7173   6.914   6.607   6.097  0.1499 -0.7515  0.5555
   54MOL0     C 7174   6.812   6.688   6.065 -0.4208 -0.5743 -0.4485
   54MOL0     C 7175   6.827   6.785   5.952  0.1145  0.1405  0.1648
   54MOL0     C 7176   6.696   6.813   5.879 -0.5300  0.0911 -0.6464
   54MOL0     C 7177   6.696   6.943   5.797 -0.7555  0.9729 -0.8764
   54MOL0     C 7178   6.558   6.947   5.734  0.0410 -0.2686  0.2914
   54MOL0     O 7179   6.561   6.871   5.608 -0.3853  0.8708 -1.1230
   54MOL0     C 7180   6.445   6.873   5.530 -0.3643  0.4012  0.1205
   54MOL0     C 7181   6.316   6.906   5.584  0.0787 -0.4405 -0.0585
   54MOL0     C 7182   6.196   6.884   5.512 -0.6885  0.1701 -0.3412
   54MOL0     C 7183   6.076   6.947   5.569 -0.0497 -0.0928 -1.0205
   54MOL0     C 7184   6.205   6.819   5.381  0.8150 -0.5097 -0.3110
   54MOL0     C 7185   6.088   6.789   5.301 -0.5312  0.2121  0.3420
   54MOL0     O 7186   6.120   6.786   5.164  0.2410  0.0426 -0.5061
   54MOL0     C 7187   6.017   6.811   5.074 -0.5560 -0.4016 -0.9543
   54MOL0     C 7188   5.887   6.765   5.080  0.1467  0.6593  0.3565
   54MOL0     C 7189   5.798   6.809   4.984  0.4718 -0.6432 -0.8001
   54MOL0     C 7190   5.832   6.907   4.885  0.3958  0.3298 -0.4878
   54MOL0     O 7191   5.747   6.949   4.790 -0.0153  0.0661  0.3282
   54MOL0     C 7192   5.610   6.922   4.806  0.1589  0.2360  0.5857
   54MOL0     C 7193   5.538   6.987   4.686  0.1890  0.2299 -0.1970
   54MOL0     C 7194   5.388   6.970   4.699 -0.1175 -0.0176  0.2121
   54MOL0     C 7195   5.307   6.986   4.568 -0.3894 -0.3558  0.5965
   54MOL0     C 7196   5.157   6.997   4.593  0.5292  0.4510 -0.3636
   54MOL0     C 7197   5.100   6.866   4.654 -0.0288  0.6114 -0.6666
   54MOL0     C 7198   5.133   6.732   4.580 -0.5221 -0.1323 -0.3890
   54MOL0     C 7199   5.039   6.700   4.462 -0.3090 -0.3502  0.8493
   54MOL0    Cl 7200   5.099   6.775   4.302 -0.2306  0.1712  0.3437
   54MOL0     C 7201   5.966   6.948   4.873  0.3842  0.5079 -0.5960
   54MOL0     C 7202   6.058   6.894   4.966  0.8118 -0.6475 -0.6541
   54MOL0     O 7203   5.980   6.778   5.349  0.5550  1.1224 -1.2128
   54MOL0     C 7204   6.333   6.811   5.322 -0.1630  1.0049 -0.1893
   54MOL0     C 7205   6.445   6.830   5.399 -0.6235  0.1924  0.2251
   54MOL0     N 7206   6.712   6.667   6.164 -0.5454  0.3751  1.8125
   54MOL0     N 7207   6.741   6.565   6.235  0.0366 -0.2031  0.5385
   54MOL0     C 7208   7.855   6.715   6.354 -0.0982 -0.4704  0.9659
   54MOL0     C 7209   7.989   6.692   6.308 -0.1672 -1.0585 -0.5036
   54MOL0     C 7210   8.376   6.463   6.196 -0.6857 -0.2897  0.2339
   54MOL0     C 7211   8.490   6.413   6.276  0.1520 -0.4721 -0.2787
   54MOL0     C 7212   8.607   6.381   6.219 -0.8452 -0.4733 -0.9896
   54MOL0     C 7213   8.622   6.396   6.079 -0.5056  0.2514 -0.1225
   54MOL0     O 7214   8.737   6.343   6.030  0.4244  0.0715  0.1053
   54MOL0     C 7215   8.863   6.382   6.079 -1.1478 -0.4910 -0.3903
   54MOL0     C 7216   8.954   6.367   5.956 -0.4833  0.0770 -0.6932
   54MOL0     C 7217   9.054   6.479   5.957 -0.8583 -0.5849 -0.5300
   54MOL0     C 7218   9.143   6.478   5.829  0.1226 -0.6310 -0.0144
   54MOL0     C 7219   9.230   6.358   5.820 -0.1485 -0.7609 -1.3546
   54MOL0     C 7220   9.312   6.265   5.826  0.6368 -0.0880  1.1272
   54MOL0     C 7221   8.514   6.429   6.003 -0.3824 -0.1657  0.0574
   54MOL0     C 7222   8.395   6.463   6.057 -0.4735  0.2587  0.5284
   54MOL0     H 7223   7.957   6.356   6.260 -0.3234 -0.0777  0.9679
   54MOL0     H 7224   7.743   6.411   6.372  1.8777 -3.0059 -0.3692
   54MOL0     H 7225   7.666   6.781   6.545  0.9784 -0.4745 -0.3138
   54MOL0     H 7226   7.592   6.825   6.397 -0.8442  0.1955  0.9892
   54MOL0     H 7227   7.451   6.644   6.602  1.4116  0.3173 -0.4447
   54MOL0     H 7228   7.414   6.812   6.579  1.4188 -0.1266  1.1637
   54MOL0     H 7229   7.353   6.748   6.330 -1.2194 -0.9526  0.0593
   54MOL0     H 7230   7.356   6.592   6.390 -3.0286 -0.0085 -0.2113
   54MOL0     H 7231   7.213   6.649   6.593 -1.7078 -0.5033  0.7056
   54MOL0     H 7232   7.197   6.814   6.523  2.8656  0.3483 -1.7739
   54MOL0     H 7233   6.991   6.671   6.499 -1.0292 -0.9620 -0.4046
   54MOL0     H 7234   7.049   6.700   6.339  0.1260 -2.2569  0.2136
   54MOL0     H 7235   7.161   6.488   6.327  0.5452 -0.2388  1.0263
   54MOL0     H 7236   7.145   6.465   6.502 -0.3495  1.2093  0.6676
   54MOL0     H 7237   6.984   6.318   6.424 -4.4404 -1.5421 -2.9788
   54MOL0     H 7238   6.886   6.465   6.446 -0.6710 -0.5514 -1.4155
   54MOL0     H 7239   6.839   6.339   6.250  0.6879 -0.3085  1.5004
   54MOL0     H 7240   6.992   6.380   6.169 -2.7309  0.6960 -2.2366
   54MOL0     H 7241   7.016   6.608   6.060 -0.6453  2.3119 -1.9214
   54MOL0     H 7242   6.857   6.884   5.986 -1.7936  1.6001 -2.1024
   54MOL0     H 7243   6.907   6.751   5.885 -0.7712  0.8029 -1.2879
   54MOL0     H 7244   6.611   6.802   5.948 -0.6943 -3.1048 -1.2162
   54MOL0     H 7245   6.686   6.734   5.804 -1.9639  1.1877 -1.6438
   54MOL0     H 7246   6.772   6.953   5.719 -0.4553  1.8731 -0.4876
   54MOL0     H 7247   6.716   7.022   5.870 -2.6483  0.2886  0.4647
   54MOL0     H 7248   6.554   7.053   5.707  0.0086 -0.0093  1.2808
   54MOL0     H 7249   6.472   6.917   5.794  0.0643  2.8464  2.1069
   54MOL0     H 7250   6.300   6.951   5.681  0.3641  0.0521 -0.2364
   54MOL0     H 7251   6.000   6.872   5.594 -0.7895  0.7039 -0.8228
   54MOL0     H 7252   6.098   7.002   5.661  3.1522 -1.4819 -0.8247
   54MOL0     H 7253   6.026   7.018   5.502 -2.2578 -0.0580  0.5596
   54MOL0     H 7254   5.854   6.701   5.161  2.2990 -0.9922  0.0454
   54MOL0     H 7255   5.698   6.770   5.003  0.7683 -0.3004  1.9194
   54MOL0     H 7256   5.589   6.815   4.808  0.0670  0.1574 -1.9015
   54MOL0     H 7257   5.569   6.960   4.901  0.2572  0.3892  0.5680
   54MOL0     H 7258   5.565   7.093   4.678 -1.6393  0.6650 -1.1269
   54MOL0     H 7259   5.569   6.940   4.592 -0.0495 -0.1023 -0.1107
   54MOL0     H 7260   5.344   7.045   4.766 -2.2341  1.8826 -3.0160
   54MOL0     H 7261   5.365   6.876   4.749 -0.3494 -0.2679 -0.3615
   54MOL0     H 7262   5.344   7.078   4.523 -2.0783 -0.0555 -0.2435
   54MOL0     H 7263   5.334   6.907   4.497 -1.5973  0.6328 -1.0159
   54MOL0     H 7264   5.099   7.015   4.503 -1.2744  0.6067  0.7748
   54MOL0     H 7265   5.150   7.077   4.668  2.5952  1.8146 -1.4972
   54MOL0     H 7266   5.141   6.852   4.754 -0.0649 -1.1851 -0.8862
   54MOL0     H 7267   4.991   6.879   4.658 -0.2847 -1.5073  0.6415
   54MOL0     H 7268   5.113   6.648   4.646 -1.7722 -0.4705 -1.1584
   54MOL0     H 7269   5.235   6.717   4.545  0.4824 -1.8358  2.9289
   54MOL0     H 7270   4.931   6.716   4.474 -0.8418 -3.5123  0.9701
   54MOL0     H 7271   5.058   6.593   4.452  1.0840  0.0917 -2.9122
   54MOL0     H 7272   5.990   7.004   4.783 -0.9349  1.3073 -0.4829
   54MOL0     H 7273   6.165   6.910   4.957  1.4137 -2.3000  2.2976
   54MOL0     H 7274   6.353   6.790   5.218  0.0473 -4.4596  0.6572
   54MOL0     H 7275   6.541   6.817   5.350 -1.1573 -2.0716 -0.3494
   54MOL0     H 7276   7.817   6.810   6.388 -0.0673 -0.1632  0.1589
   54MOL0     H 7277   8.058   6.773   6.289  0.0027 -0.0530  3.4982
   54MOL0     H 7278   8.475   6.405   6.384 -1.4766  0.5299 -0.3819
   54MOL0     H 7279   8.695   6.354   6.277 -1.0212 -0.0601 -0.5253
   54MOL0     H 7280   8.853   6.485   6.113  0.7958 -0.2916 -0.2713
   54MOL0     H 7281   8.900   6.314   6.156 -2.5951  0.9784  1.6774
   54MOL0     H 7282   8.897   6.378   5.863  0.2928 -1.5226 -1.4016
   54MOL0     H 7283   9.008   6.272   5.955  0.4389  0.5610  0.5449
   54MOL0     H 7284   9.115   6.461   6.046 -0.3013  1.8555 -0.3345
   54MOL0     H 7285   9.014   6.580   5.968 -1.9121 -1.1196  0.8539
   54MOL0     H 7286   9.209   6.564   5.840  1.5761 -1.2177 -3.1657
   54MOL0     H 7287   9.081   6.498   5.741  1.1226  1.5062 -0.2919
   54MOL0     H 7288   9.378   6.181   5.835 -0.6735 -1.2368  0.4202
   54MOL0     H 7289   8.513   6.400   5.898 -1.6233 -0.1058  0.0377
   54MOL0     H 7290   8.306   6.480   5.998  1.0852 -1.6967 -2.7170
   55MOL0     O 7291   6.974   7.394   6.249  0.1076  0.1047  0.3198
   55MOL0     C 7292   7.069   7.358   6.320 -0.0100 -0.0278 -0.2094
   55MOL0     O 7293   7.069   7.262   6.410  0.0038 -0.3576 -0.1210
   55MOL0     C 7294   6.960   7.175   6.417  0.6801  0.1821  0.0870
   55MOL0     C 7295   6.954   7.046   6.353  0.0839 -0.4422 -0.6944
   55MOL0     C 7296   6.852   6.959   6.379  0.5242 -0.9097  0.0459
   55MOL0     C 7297   6.744   6.995   6.458  0.3757  0.7442  0.0309
   55MOL0     O 7298   6.632   6.926   6.490  1.0693 -0.2930  0.6826
   55MOL0     C 7299   6.652   6.801   6.542 -0.2735  0.4156 -0.2569
   55MOL0     C 7300   6.510   6.740   6.578 -0.1194 -0.1809 -0.2490
   55MOL0     C 7301   6.526   6.604   6.653  0.0984 -0.0760 -0.3723
   55MOL0     C 7302   6.604   6.630   6.784 -0.2173  0.7468  0.6556
   55MOL0     C 7303   6.579   6.516   6.885  0.5365  0.4185  0.0017
   55MOL0     C 7304   6.430   6.524   6.935  0.9204 -0.2147 -0.6828
   55MOL0     C 7305   6.386   6.414   7.028  0.0776  1.1378  0.6468
   55MOL0     C 7306   6.244   6.436   7.098  0.3670  0.5777  0.3714
   55MOL0     N 7307   6.120   6.428   7.012 -0.7612  0.6427 -0.1236
   55MOL0     C 7308   6.114   6.347   6.904 -0.2416 -1.0182  0.3553
   55MOL0     C 7309   6.009   6.388   6.833  0.1766 -0.1130  0.3681
   55MOL0     C 7310   5.961   6.338   6.697 -0.1768  0.2529 -0.5467
   55MOL0     C 7311   5.811   6.300   6.689 -0.0030  0.0044  1.0921
   55MOL0     C 7312   5.717   6.415   6.721 -0.1949 -0.0435 -0.1108
   55MOL0     C 7313   5.565   6.392   6.739  0.0995 -0.0098  0.4032
   55MOL0     O 7314   5.549   6.306   6.851 -0.5476  0.5569  0.3483
   55MOL0     C 7315   5.438   6.219   6.846 -1.4494 -0.8536 -0.1555
   55MOL0     C 7316   5.324   6.253   6.780 -0.3583 -0.3674 -0.4881
   55MOL0     C 7317   5.221   6.166   6.766  0.1926  0.0432  0.4143
   55MOL0     C 7318   5.102   6.212   6.681  0.1872 -0.6523 -0.1672
   55MOL0     C 7319   5.225   6.040   6.834 -0.8984 -0.5624  0.3449
   55MOL0     C 7320   5.113   5.947   6.810 -0.2193 -0.2897 -0.8447
   55MOL0     O 7321   5.048   5.933   6.931  0.2709 -0.5355 -0.2526
   55MOL0     C 7322   4.933   5.858   6.956  0.8122  0.0745  0.1946
   55MOL0     C 7323   4.847   5.808   6.856  0.8735 -0.5433 -0.3365
   55MOL0     C 7324   4.740   5.732   6.895  0.7725  0.8912  0.7255
   55MOL0     C 7325   4.705   5.703   7.026  0.2136  0.5264  0.2157
   55MOL0     O 7326   4.598   5.623   7.054  0.2992  0.4343  0.1734
   55MOL0     C 7327   4.596   5.566   7.183  0.6965  0.6532  0.0747
   55MOL0     C 7328   4.480   5.471   7.194  0.9564  0.7969 -0.0234
   55MOL0     C 7329   4.471   5.404   7.329 -0.3010  0.2056  0.8680
   55MOL0     C 7330   4.357   5.446   7.419 -0.0019  0.6044 -0.2074
   55MOL0     C 7331   4.371   5.357   7.551  0.0829  0.4905  0.3733
   55MOL0     C 7332   4.256   5.406   7.638 -0.3764  0.4397 -0.6614
   55MOL0     C 7333   4.276   5.347   7.785 -0.4727 -0.7805 -0.1916
   55MOL0     C 7334   4.184   5.402   7.901  0.6803 -0.3098  0.2862
   55MOL0    Cl 7335   4.234   5.569   7.955 -0.1609 -0.0604  0.1409
   55MOL0     C 7336   4.790   5.760   7.120  1.1017 -0.1412 -0.3422
   55MOL0     C 7337   4.904   5.835   7.089  0.1141 -0.7751 -0.0878
   55MOL0     O 7338   5.093   5.885   6.700  0.2546  0.0828 -0.4702
   55MOL0     C 7339   5.344   6.010   6.905  0.2944  0.3817 -0.2908
   55MOL0     C 7340   5.456   6.091   6.897 -0.1736 -0.3507 -0.4262
   55MOL0     N 7341   5.962   6.503   6.901 -0.1163  0.0450  0.0439
   55MOL0     N 7342   6.024   6.523   7.006  0.3228  0.5456 -0.8871
   55MOL0     C 7343   6.739   7.126   6.508 -0.0353  0.0666  0.1332
   55MOL0     C 7344   6.837   7.221   6.476 -0.0504  0.3117  0.1555
   55MOL0     C 7345   7.197   7.432   6.309  0.0512 -0.6870 -0.4522
   55MOL0     C 7346   7.221   7.536   6.218  0.1572  0.7068  0.4160
   55MOL0     C 7347   7.342   7.598   6.203 -0.7162  0.6485 -0.1371
   55MOL0     C 7348   7.460   7.552   6.281  0.0579  0.7545  0.6418
   55MOL0     O 7349   7.577   7.612   6.242  0.4037  0.4184  0.4756
   55MOL0     C 7350   7.692   7.536   6.267  0.7879 -0.5480  0.0445
   55MOL0     C 7351   7.812   7.606   6.209 -0.9219  0.2555 -0.0590
   55MOL0     C 7352   7.873   7.715   6.293 -1.0582  0.5987  0.3761
   55MOL0     C 7353   7.998   7.787   6.241 -1.2967 -0.6316  0.0280
   55MOL0     C 7354   8.108   7.697   6.203 -0.0382  0.2564 -0.2821
   55MOL0     C 7355   8.192   7.610   6.174 -0.0339  0.2999 -0.3066
   55MOL0     C 7356   7.438   7.445   6.367 -1.8115  0.8483 -0.3510
   55MOL0     C 7357   7.315   7.398   6.389  0.5226  0.4271 -0.6763
   55MOL0     H 7358   7.044   7.005   6.309  0.1882  1.7038 -2.6920
   55MOL0     H 7359   6.855   6.858   6.340  0.1608 -0.3733 -1.4161
   55MOL0     H 7360   6.713   6.741   6.474  2.1442  1.0483  1.2515
   55MOL0     H 7361   6.708   6.817   6.635 -1.6574  0.3664  0.6151
   55MOL0     H 7362   6.447   6.804   6.640 -0.7997  0.3708 -1.4727
   55MOL0     H 7363   6.451   6.718   6.489 -2.8591 -1.3524  1.7033
   55MOL0     H 7364   6.423   6.575   6.676 -0.2252  2.4460  1.7478
   55MOL0     H 7365   6.566   6.520   6.595 -0.5826  0.0783 -1.0866
   55MOL0     H 7366   6.711   6.645   6.767  0.7515 -1.7009  3.6809
   55MOL0     H 7367   6.578   6.722   6.838 -0.3574  0.8693  0.3814
   55MOL0     H 7368   6.595   6.419   6.837  1.2168 -0.8389  2.5973
   55MOL0     H 7369   6.638   6.530   6.976  1.0668  5.3324 -0.8423
   55MOL0     H 7370   6.436   6.616   6.994 -1.4639  0.5863 -1.5763
   55MOL0     H 7371   6.350   6.542   6.862 -0.1609 -1.6724  0.1196
   55MOL0     H 7372   6.373   6.334   6.955 -0.8333  0.4804  1.4995
   55MOL0     H 7373   6.456   6.386   7.107  2.0338 -0.5826 -1.5584
   55MOL0     H 7374   6.252   6.539   7.134  1.7279 -0.0635  2.0477
   55MOL0     H 7375   6.236   6.361   7.178  0.9921 -0.1983 -0.2651
   55MOL0     H 7376   6.176   6.263   6.874  1.6129  0.5165 -0.3136
   55MOL0     H 7377   5.970   6.421   6.626 -0.6426  1.5235  0.8359
   55MOL0     H 7378   6.025   6.254   6.671  0.0282 -0.0805  0.9607
   55MOL0     H 7379   5.785   6.211   6.746  0.4618 -1.5366 -0.9804
   55MOL0     H 7380   5.795   6.274   6.583 -0.4826 -1.8979  1.5917
   55MOL0     H 7381   5.727   6.497   6.649 -1.0097  1.1003  1.0369
   55MOL0     H 7382   5.750   6.462   6.814  0.7967  3.9063 -2.2072
   55MOL0     H 7383   5.515   6.355   6.649 -0.5211 -0.6452  0.9888
   55MOL0     H 7384   5.525   6.488   6.775  0.5039 -0.6017  2.5550
   55MOL0     H 7385   5.306   6.346   6.727 -0.8672 -1.0552 -1.5564
   55MOL0     H 7386   5.092   6.147   6.593 -0.4895 -1.3170  0.3856
   55MOL0     H 7387   5.010   6.225   6.738  1.6588  0.5169  2.1254
   55MOL0     H 7388   5.125   6.312   6.643 -0.7925 -0.2413  0.2915
   55MOL0     H 7389   4.869   5.849   6.758 -0.5916  1.2468  0.0206
   55MOL0     H 7390   4.676   5.701   6.812  1.2000  1.5623  0.1406
   55MOL0     H 7391   4.690   5.517   7.209 -0.7705 -2.0018  0.7908
   55MOL0     H 7392   4.587   5.655   7.247  3.4439  1.9787 -1.2290
   55MOL0     H 7393   4.388   5.530   7.183  1.3744  1.2127 -1.4590
   55MOL0     H 7394   4.494   5.394   7.118 -0.6324  0.9236 -0.4951
   55MOL0     H 7395   4.558   5.421   7.393 -0.4308 -1.0039  1.3876
   55MOL0     H 7396   4.464   5.296   7.316  0.9288  0.1895  0.2816
   55MOL0     H 7397   4.367   5.553   7.439 -1.8365  0.9454 -0.8861
   55MOL0     H 7398   4.261   5.412   7.377  1.0165 -2.3383 -0.4083
   55MOL0     H 7399   4.471   5.361   7.595  0.4711  1.3732 -0.5414
   55MOL0     H 7400   4.351   5.250   7.541  3.5031 -0.4307  1.7212
   55MOL0     H 7401   4.246   5.514   7.654 -3.1728  0.0504  0.8842
   55MOL0     H 7402   4.158   5.373   7.603 -2.2657  1.2332  3.3371
   55MOL0     H 7403   4.379   5.360   7.821 -0.3987 -6.5581  2.9258
   55MOL0     H 7404   4.271   5.238   7.790  0.7421 -0.8103  1.6005
   55MOL0     H 7405   4.206   5.344   7.990  0.9017 -1.0091 -0.2151
   55MOL0     H 7406   4.080   5.404   7.866  0.4279  2.4602  0.9308
   55MOL0     H 7407   4.776   5.748   7.227 -1.1759  0.7786 -0.4877
   55MOL0     H 7408   4.963   5.890   7.161  1.8778  1.5725 -3.0669
   55MOL0     H 7409   5.341   5.919   6.965 -2.0143 -0.1674 -1.1429
   55MOL0     H 7410   5.553   6.075   6.943 -0.6535  0.4757  0.8915
   55MOL0     H 7411   6.663   7.175   6.569  0.7849  0.6662  0.6896
   55MOL0     H 7412   6.837   7.321   6.519  3.1920 -0.0955  1.4066
   55MOL0     H 7413   7.140   7.561   6.150  0.0885  0.3942  0.3810
   55MOL0     H 7414   7.378   7.667   6.127  1.7403  0.5745  0.8432
   55MOL0     H 7415   7.705   7.536   6.375 -2.2515  0.3810  0.5028
   55MOL0     H 7416   7.694   7.439   6.215  1.0713  0.0662 -1.1268
   55MOL0     H 7417   7.781   7.647   6.113 -1.8464  0.2871  0.2341
   55MOL0     H 7418   7.891   7.535   6.185 -0.5696  0.6517 -0.0740
   55MOL0     H 7419   7.905   7.671   6.387  2.6739 -3.4906 -2.4161
   55MOL0     H 7420   7.802   7.792   6.324  0.7194  1.6712  2.0502
   55MOL0     H 7421   8.037   7.851   6.321  0.3508 -2.4333  0.7470
   55MOL0     H 7422   7.986   7.856   6.156  4.0352  1.7823  0.8704
   55MOL0     H 7423   8.268   7.540   6.145 -0.2138 -0.9674  2.0234
   55MOL0     H 7424   7.520   7.397   6.419 -3.2316 -0.6144  0.6321
   55MOL0     H 7425   7.310   7.316   6.460  0.1256  2.1951  1.4167
   56MOL0     O 7426   2.025   3.144   9.421  0.2458  0.5928 -0.5676
   56MOL0     C 7427   2.095   3.134   9.517 -0.3391 -0.5844  0.7079
   56MOL0     O 7428   2.055   3.069   9.626  0.2278 -0.6311  0.7883
   56MOL0     C 7429   1.935   3.007   9.636 -0.3896 -0.0999 -0.7249
   56MOL0     C 7430   1.897   2.895   9.562 -0.8988 -0.8690 -0.5045
   56MOL0     C 7431   1.781   2.831   9.584  0.2239  0.5730  0.0395
   56MOL0     C 7432   1.679   2.882   9.665  0.3201  0.4171  0.4827
   56MOL0     O 7433   1.556   2.815   9.686  0.1521 -0.1830  0.0263
   56MOL0     C 7434   1.492   2.760   9.574  0.1923  0.0820 -0.2661
   56MOL0     C 7435   1.357   2.715   9.624 -0.1734 -0.3526  0.2896
   56MOL0     C 7436   1.264   2.829   9.679 -0.2307 -0.5515  0.0363
   56MOL0     C 7437   1.136   2.840   9.615  1.2746  0.3150  0.3268
   56MOL0     C 7438   1.051   2.954   9.675 -0.1070 -0.0492 -0.0043
   56MOL0     C 7439   0.906   2.952   9.616 -0.5247 -0.6113 -0.5939
   56MOL0     C 7440   0.816   3.060   9.677  0.0445  0.5837 -0.2634
   56MOL0     C 7441   0.658   3.033   9.655  0.2624  0.1599 -0.4449
   56MOL0     N 7442   0.599   3.110   9.544  0.5530  0.0275  0.2367
   56MOL0     C 7443   0.569   3.246   9.547  0.5557  0.8301 -0.1546
   56MOL0     C 7444   0.567   3.277   9.422 -0.2888 -0.6154 -0.1892
   56MOL0     C 7445   0.560   3.416   9.371  0.0806 -0.4925  0.2602
   56MOL0     C 7446   0.475   3.442   9.249  0.0498 -0.0342  0.6927
   56MOL0     C 7447   0.313   3.431   9.285 -0.4886  0.6882 -0.6229
   56MOL0     C 7448   0.228   3.426   9.156  0.5594  0.2171 -0.3536
   56MOL0     O 7449   0.093   3.402   9.186  0.7292  0.1568  1.0936
   56MOL0     C 7450   0.012   3.511   9.221 -0.2563 -0.5874 -0.1192
   56MOL0     C 7451   0.058   3.643   9.254 -0.3022  0.3009 -0.2730
   56MOL0     C 7452  -0.036   3.750   9.277 -0.2067  0.0574 -0.0514
   56MOL0     C 7453   0.020   3.883   9.292 -0.5956  0.9804 -0.1642
   56MOL0     C 7454  -0.173   3.715   9.282  0.7065  0.4591  0.2762
   56MOL0     C 7455  -0.274   3.810   9.301  0.1420 -0.0767 -0.1840
   56MOL0     O 7456  -0.396   3.761   9.340 -0.8345  0.0426 -0.2936
   56MOL0     C 7457  -0.502   3.842   9.308  0.5455 -0.2952  1.0303
   56MOL0     C 7458  -0.585   3.894   9.402  0.6290 -0.2265 -0.0848
   56MOL0     C 7459  -0.708   3.964   9.380  0.2781  0.6843  0.6209
   56MOL0     C 7460  -0.750   3.976   9.244 -0.5822  0.9521  1.0802
   56MOL0     O 7461  -0.864   4.037   9.185  0.1102 -0.1256 -0.7388
   56MOL0     C 7462  -0.960   4.073   9.289  0.4331  0.2660 -0.3431
   56MOL0     C 7463  -1.098   4.126   9.238 -0.2962  0.8265  0.4045
   56MOL0     C 7464  -1.185   4.191   9.349  0.4835  0.2169 -0.1859
   56MOL0     C 7465  -1.126   4.316   9.424  0.2630 -0.4850  0.3862
   56MOL0     C 7466  -1.237   4.409   9.483  0.4660 -0.1881 -0.3091
   56MOL0     C 7467  -1.310   4.342   9.594  0.2887 -0.4073  0.4655
   56MOL0     C 7468  -1.414   4.431   9.658  0.6538 -0.1978 -0.3529
   56MOL0     C 7469  -1.516   4.367   9.747  0.5659 -0.6312 -0.1517
   56MOL0    Cl 7470  -1.638   4.275   9.663  0.0291 -0.3071  0.0213
   56MOL0     C 7471  -0.664   3.922   9.146 -0.1381 -0.4238  0.3067
   56MOL0     C 7472  -0.549   3.849   9.177  0.0174 -0.2652  0.2313
   56MOL0     O 7473  -0.256   3.928   9.282 -0.1759  0.3358  0.4397
   56MOL0     C 7474  -0.218   3.586   9.254  0.3705 -0.4786  0.5764
   56MOL0     C 7475  -0.128   3.490   9.213  0.4423  1.0391 -0.3739
   56MOL0     N 7476   0.586   3.168   9.343 -0.2798  0.5307 -0.5416
   56MOL0     N 7477   0.588   3.065   9.419  1.1548 -0.1155 -0.1775
   56MOL0     C 7478   1.710   3.000   9.733 -0.5961 -0.1954  0.5861
   56MOL0     C 7479   1.837   3.062   9.723 -0.1716  0.0322 -0.5640
   56MOL0     C 7480   2.225   3.193   9.518  0.7481 -0.2363  0.0932
   56MOL0     C 7481   2.293   3.213   9.643  0.3119 -0.9520 -0.5592
   56MOL0     C 7482   2.426   3.255   9.644  0.2164  0.5019 -0.4173
   56MOL0     C 7483   2.496   3.278   9.529  1.0925  0.6650  1.0593
   56MOL0     O 7484   2.616   3.323   9.547 -0.1033 -1.2617  0.0395
   56MOL0     C 7485   2.684   3.401   9.435 -0.0303  0.0026 -0.0467
   56MOL0     C 7486   2.808   3.466   9.486 -1.1125 -0.0766  0.0125
   56MOL0     C 7487   2.915   3.367   9.521  0.9320  0.6043 -0.8789
   56MOL0     C 7488   3.049   3.442   9.519 -0.1687  0.9387 -0.0734
   56MOL0     C 7489   3.097   3.446   9.382 -0.8101  0.6722 -0.2399
   56MOL0     C 7490   3.123   3.448   9.266 -0.3056 -0.8318 -0.3053
   56MOL0     C 7491   2.426   3.258   9.406  0.3545  0.9144 -1.2943
   56MOL0     C 7492   2.291   3.221   9.396  0.1731 -0.2481  0.0456
   56MOL0     H 7493   1.964   2.857   9.485 -1.1108 -3.8493  0.6640
   56MOL0     H 7494   1.772   2.754   9.508 -0.1360  3.2928 -2.8779
   56MOL0     H 7495   1.485   2.832   9.492  2.8369  1.5392  0.6858
   56MOL0     H 7496   1.550   2.678   9.531 -2.0432 -1.2128 -0.9844
   56MOL0     H 7497   1.292   2.669   9.548 -1.7520 -1.3450  2.1564
   56MOL0     H 7498   1.371   2.640   9.702  1.4280 -0.7498 -0.3373
   56MOL0     H 7499   1.251   2.799   9.783 -1.5422 -4.4629 -1.0840
   56MOL0     H 7500   1.313   2.927   9.675 -1.4591  0.2021  2.0951
   56MOL0     H 7501   1.156   2.852   9.508  4.2701 -1.7389  0.5350
   56MOL0     H 7502   1.085   2.744   9.625 -0.8619  1.1645 -1.3691
   56MOL0     H 7503   1.043   2.935   9.783 -0.4407 -0.8349 -0.1607
   56MOL0     H 7504   1.102   3.050   9.667  2.8389 -1.5737 -0.7191
   56MOL0     H 7505   0.908   2.981   9.510 -0.8773  0.2552 -0.3754
   56MOL0     H 7506   0.864   2.853   9.638  0.2663 -0.4083  2.1646
   56MOL0     H 7507   0.830   3.075   9.784  1.0555  3.5671 -0.7144
   56MOL0     H 7508   0.838   3.160   9.638  3.3103  0.3759  0.7702
   56MOL0     H 7509   0.606   3.045   9.751 -0.5898  0.0963 -0.8966
   56MOL0     H 7510   0.643   2.926   9.640  3.8973 -0.7159  0.8887
   56MOL0     H 7511   0.559   3.316   9.629  1.5224  0.2190  0.5085
   56MOL0     H 7512   0.508   3.472   9.450 -1.4737 -2.1501  0.4601
   56MOL0     H 7513   0.662   3.448   9.346  0.6036 -1.9360  0.5079
   56MOL0     H 7514   0.500   3.363   9.177 -0.4523 -0.1439  0.6388
   56MOL0     H 7515   0.507   3.535   9.201  2.2261 -2.1373 -2.3313
   56MOL0     H 7516   0.270   3.507   9.352 -0.7161 -2.5114  3.2010
   56MOL0     H 7517   0.303   3.340   9.344 -1.0081  0.6019 -0.8370
   56MOL0     H 7518   0.279   3.352   9.094  1.5495 -0.9036  1.7137
   56MOL0     H 7519   0.254   3.522   9.109  3.0310 -0.2970 -0.1462
   56MOL0     H 7520   0.160   3.678   9.263 -0.8353  1.4832  1.7539
   56MOL0     H 7521   0.042   3.932   9.197  2.9650  1.9117  0.9586
   56MOL0     H 7522  -0.040   3.946   9.357 -0.3936  1.2553 -0.2428
   56MOL0     H 7523   0.117   3.875   9.343 -0.5209 -1.8156 -0.5981
   56MOL0     H 7524  -0.553   3.897   9.505 -0.4106 -0.1149  0.2411
   56MOL0     H 7525  -0.769   4.000   9.462 -1.6586  1.7430 -1.1953
   56MOL0     H 7526  -0.981   3.984   9.350 -0.1559  0.5762 -0.0810
   56MOL0     H 7527  -0.925   4.152   9.357  3.0774  0.4756 -1.8395
   56MOL0     H 7528  -1.082   4.193   9.153 -1.4771  0.2583 -0.2874
   56MOL0     H 7529  -1.148   4.038   9.198  2.4773  0.7031 -3.1889
   56MOL0     H 7530  -1.187   4.124   9.436  3.5334  1.0443  0.6561
   56MOL0     H 7531  -1.287   4.220   9.322  0.9634  2.6077  0.3497
   56MOL0     H 7532  -1.058   4.279   9.501 -0.1134  1.7689  1.9113
   56MOL0     H 7533  -1.069   4.372   9.349 -3.2218  4.6268  0.9702
   56MOL0     H 7534  -1.304   4.431   9.400  0.6420 -0.8459 -0.6293
   56MOL0     H 7535  -1.184   4.497   9.520  3.4683 -0.5431 -3.3062
   56MOL0     H 7536  -1.357   4.247   9.568 -2.7378  1.1388 -0.1889
   56MOL0     H 7537  -1.231   4.321   9.666  0.4134 -0.1577  0.4046
   56MOL0     H 7538  -1.462   4.485   9.576  2.2184 -1.7548 -2.4101
   56MOL0     H 7539  -1.348   4.506   9.703  2.2442  0.5563 -3.6182
   56MOL0     H 7540  -1.573   4.448   9.794  2.1558  0.9199 -0.7867
   56MOL0     H 7541  -1.472   4.293   9.815 -0.7191 -0.7987  0.5264
   56MOL0     H 7542  -0.689   3.915   9.040  0.7473 -2.4571  0.1960
   56MOL0     H 7543  -0.492   3.805   9.097 -0.6128  0.1664 -0.4719
   56MOL0     H 7544  -0.325   3.567   9.242  0.4766 -1.6237  1.2903
   56MOL0     H 7545  -0.160   3.395   9.172  1.4340  0.8722 -0.7815
   56MOL0     H 7546   1.631   3.040   9.797  0.5522 -1.4274  2.9122
   56MOL0     H 7547   1.872   3.142   9.787  0.3600 -2.4765  2.5215
   56MOL0     H 7548   2.245   3.200   9.740 -2.0274 -0.2476 -1.5441
   56MOL0     H 7549   2.470   3.257   9.743 -1.2430  2.9423  0.2642
   56MOL0     H 7550   2.692   3.331   9.352 -4.4125 -2.7209  1.4991
   56MOL0     H 7551   2.618   3.482   9.403  2.8717  1.8885 -1.7858
   56MOL0     H 7552   2.794   3.524   9.577  0.4708 -0.0373  0.2567
   56MOL0     H 7553   2.841   3.539   9.411  0.7866  2.6565  3.2201
   56MOL0     H 7554   2.912   3.283   9.451  2.5584  0.0510 -0.3128
   56MOL0     H 7555   2.884   3.334   9.621 -1.2978  0.8396 -1.4251
   56MOL0     H 7556   3.124   3.385   9.575 -0.4182  1.0262  0.3524
   56MOL0     H 7557   3.040   3.542   9.562  2.7409  1.4594 -0.4618
   56MOL0     H 7558   3.156   3.450   9.164  1.2903 -2.0671  0.1432
   56MOL0     H 7559   2.478   3.279   9.313 -1.5100 -2.6173 -3.3379
   56MOL0     H 7560   2.235   3.217   9.303  0.7255  3.2278 -0.5585
   57MOL0     O 7561  10.912   3.608   3.303  0.5887 -0.0151 -0.0951
   57MOL0     C 7562  10.927   3.670   3.406 -0.3322  1.2038 -0.0212
   57MOL0     O 7563  10.840   3.721   3.491  0.3815 -0.2246 -0.5995
   57MOL0     C 7564  10.708   3.678   3.487  0.7016  0.1651 -0.4848
   57MOL0     C 7565  10.640   3.662   3.365 -0.3805 -0.3014 -0.5691
   57MOL0     C 7566  10.499   3.651   3.355 -1.5631  1.1969 -0.5269
   57MOL0     C 7567  10.430   3.633   3.471  0.9481  0.4829  0.5883
   57MOL0     O 7568  10.291   3.608   3.461  0.3227 -0.2165  0.3267
   57MOL0     C 7569  10.207   3.627   3.576  0.3925  0.5118 -0.4255
   57MOL0     C 7570  10.056   3.629   3.549  0.0326  0.1028 -0.3982
   57MOL0     C 7571  10.006   3.501   3.477  0.2583 -0.0818  0.4021
   57MOL0     C 7572   9.851   3.488   3.492  1.0561 -0.0941  0.5182
   57MOL0     C 7573   9.781   3.397   3.378 -0.0261 -0.4746 -0.5258
   57MOL0     C 7574   9.627   3.375   3.401 -0.1382 -0.2104  0.5152
   57MOL0     C 7575   9.594   3.257   3.308  0.2713 -0.2295 -0.6241
   57MOL0     C 7576   9.437   3.264   3.302 -0.1779 -1.0158  0.3250
   57MOL0     N 7577   9.366   3.278   3.434 -0.2446 -0.1556  0.6041
   57MOL0     C 7578   9.375   3.203   3.554  1.0787  0.6852  0.2109
   57MOL0     C 7579   9.300   3.278   3.640 -0.8887 -0.1526  0.3664
   57MOL0     C 7580   9.293   3.245   3.785 -0.9189 -0.5981 -0.2556
   57MOL0     C 7581   9.424   3.280   3.853 -0.8258 -0.4390  0.7896
   57MOL0     C 7582   9.460   3.433   3.856  0.1543  0.0905  0.0148
   57MOL0     C 7583   9.587   3.460   3.919  0.0035 -0.4710  0.5458
   57MOL0     O 7584   9.682   3.402   3.836 -0.9440  1.2615  0.0584
   57MOL0     C 7585   9.816   3.421   3.876  0.4118 -0.8909  0.7715
   57MOL0     C 7586   9.900   3.323   3.824  0.0381  0.2835 -0.1370
   57MOL0     C 7587  10.036   3.336   3.828  1.4324  0.7593 -0.2335
   57MOL0     C 7588  10.119   3.233   3.754 -0.3736  0.0700  0.3104
   57MOL0     C 7589  10.096   3.446   3.897  0.0880 -0.4556 -0.9814
   57MOL0     C 7590  10.247   3.479   3.911 -0.0557 -0.0798 -0.3782
   57MOL0     O 7591  10.333   3.408   3.838  0.6327  0.7492 -0.0137
   57MOL0     C 7592  10.468   3.393   3.848  0.4683  0.4695  1.1699
   57MOL0     C 7593  10.528   3.280   3.787 -1.1084 -0.3674  0.7053
   57MOL0     C 7594  10.664   3.274   3.774 -0.5311  0.2262 -1.1432
   57MOL0     C 7595  10.745   3.368   3.841 -0.2487 -0.7013  0.5560
   57MOL0     O 7596  10.878   3.349   3.842 -0.5075  0.7143 -0.1761
   57MOL0     C 7597  10.967   3.454   3.868 -0.1332  0.6769 -0.4041
   57MOL0     C 7598  11.100   3.409   3.822  0.0223  0.5433  0.1556
   57MOL0     C 7599  11.202   3.517   3.844 -0.4633  0.1430 -1.5048
   57MOL0     C 7600  11.332   3.479   3.777 -0.6421  0.3965 -0.6560
   57MOL0     C 7601  11.446   3.581   3.788  0.0130  0.7396  0.0597
   57MOL0     C 7602  11.566   3.533   3.702 -0.5539  0.7251 -0.4871
   57MOL0     C 7603  11.685   3.627   3.710 -0.0314 -0.0812  0.0864
   57MOL0     C 7604  11.780   3.582   3.824 -0.3470 -0.7539 -0.1750
   57MOL0    Cl 7605  11.944   3.657   3.815 -0.1482  0.0349 -0.1254
   57MOL0     C 7606  10.688   3.479   3.904  0.4534  0.5757  0.4669
   57MOL0     C 7607  10.553   3.489   3.901  0.6806 -0.3679  0.2844
   57MOL0     O 7608  10.273   3.590   3.958 -0.0373 -0.1924  0.3687
   57MOL0     C 7609  10.008   3.529   3.974  1.1033 -0.3535  0.5353
   57MOL0     C 7610   9.867   3.517   3.962 -0.5300  0.4128  0.2042
   57MOL0     N 7611   9.246   3.381   3.569  0.6740 -0.2444 -0.0769
   57MOL0     N 7612   9.279   3.387   3.446 -0.4552 -1.0492 -0.0025
   57MOL0     C 7613  10.491   3.666   3.591 -0.8632  1.0359  0.5824
   57MOL0     C 7614  10.626   3.687   3.601 -0.3782  0.4440 -0.2215
   57MOL0     C 7615  11.069   3.705   3.434 -0.2057  0.4324 -1.0970
   57MOL0     C 7616  11.109   3.816   3.513 -0.2001  0.3850 -0.2471
   57MOL0     C 7617  11.248   3.832   3.546  0.6523 -0.1649 -0.4003
   57MOL0     C 7618  11.346   3.745   3.486  0.0289 -0.6428 -0.1285
   57MOL0     O 7619  11.477   3.776   3.503 -0.7668  0.3035 -0.0250
   57MOL0     C 7620  11.552   3.806   3.378 -0.0256  0.2306 -0.1952
   57MOL0     C 7621  11.580   3.950   3.384 -0.2849 -1.0682 -0.2003
   57MOL0     C 7622  11.688   3.984   3.491  0.1871 -0.0761  0.3178
   57MOL0     C 7623  11.822   3.918   3.475  0.5805  0.2146  0.1863
   57MOL0     C 7624  11.902   3.971   3.366  0.3641 -0.2324  1.3455
   57MOL0     C 7625  11.969   4.025   3.277 -0.0850  0.5544  0.1464
   57MOL0     C 7626  11.306   3.638   3.407 -1.1541 -0.1767 -0.2673
   57MOL0     C 7627  11.173   3.616   3.379  0.0996  0.0745 -0.1427
   57MOL0     H 7628  10.694   3.674   3.271 -1.9755  2.4080 -1.2455
   57MOL0     H 7629  10.458   3.635   3.256  1.6572 -4.2923 -1.3781
   57MOL0     H 7630  10.230   3.537   3.634  4.1845  1.0028 -0.9323
   57MOL0     H 7631  10.227   3.698   3.656 -3.0156 -0.1182  1.1781
   57MOL0     H 7632   9.993   3.647   3.637  0.3226 -1.6340  0.2062
   57MOL0     H 7633  10.051   3.714   3.480  1.4283  2.6631  2.4019
   57MOL0     H 7634  10.036   3.510   3.372  1.1573  2.9345  0.7986
   57MOL0     H 7635  10.051   3.414   3.525 -0.7316 -1.6876 -1.4435
   57MOL0     H 7636   9.840   3.455   3.595  2.1639  0.4275  0.8260
   57MOL0     H 7637   9.803   3.586   3.483 -3.8215 -2.3223 -1.2677
   57MOL0     H 7638   9.800   3.443   3.280  2.2661 -0.4711 -0.1196
   57MOL0     H 7639   9.826   3.298   3.386 -0.0406 -0.5349 -1.1146
   57MOL0     H 7640   9.603   3.333   3.499 -0.6180 -4.5022 -1.1992
   57MOL0     H 7641   9.569   3.466   3.384  0.9295  0.4177  0.1844
   57MOL0     H 7642   9.650   3.268   3.215 -2.3968 -0.2303 -2.3215
   57MOL0     H 7643   9.632   3.165   3.355  2.8132  0.0964 -1.9028
   57MOL0     H 7644   9.388   3.179   3.254 -1.4360 -0.1171 -0.0190
   57MOL0     H 7645   9.416   3.342   3.228 -0.1554 -0.9160  0.4237
   57MOL0     H 7646   9.419   3.107   3.579  0.2530 -0.5441 -2.6861
   57MOL0     H 7647   9.224   3.312   3.837  2.1106  1.5735  1.2722
   57MOL0     H 7648   9.271   3.141   3.811 -4.1221  0.1305  0.4251
   57MOL0     H 7649   9.506   3.237   3.795 -1.3973 -0.7360  0.1889
   57MOL0     H 7650   9.421   3.246   3.957 -2.0984  1.0373  1.2785
   57MOL0     H 7651   9.375   3.476   3.909 -0.5093 -2.6483  1.3452
   57MOL0     H 7652   9.465   3.467   3.752 -0.8997  2.5433  0.6964
   57MOL0     H 7653   9.591   3.420   4.021  2.3027 -0.3138  0.5697
   57MOL0     H 7654   9.599   3.568   3.932  3.6737 -0.6350 -0.4869
   57MOL0     H 7655   9.875   3.229   3.777 -0.6103  2.3548 -4.4879
   57MOL0     H 7656  10.143   3.261   3.651  0.4963 -1.1020  0.1745
   57MOL0     H 7657  10.209   3.203   3.809 -1.2766 -0.6450  1.4584
   57MOL0     H 7658  10.061   3.141   3.762 -2.3296  1.3305  1.4669
   57MOL0     H 7659  10.481   3.189   3.750  0.8199 -0.9683 -0.4073
   57MOL0     H 7660  10.710   3.183   3.737 -1.0044  0.2803 -1.8997
   57MOL0     H 7661  10.935   3.544   3.814 -0.7054 -0.1859 -1.5355
   57MOL0     H 7662  10.961   3.480   3.974 -2.6835  0.6838 -0.4748
   57MOL0     H 7663  11.128   3.318   3.876 -1.1168 -0.1130 -0.3114
   57MOL0     H 7664  11.095   3.381   3.717  1.7657 -0.0904  0.2128
   57MOL0     H 7665  11.205   3.532   3.952 -0.8248 -0.3187 -1.4258
   57MOL0     H 7666  11.154   3.608   3.806 -1.0084  1.1838  1.4261
   57MOL0     H 7667  11.370   3.393   3.833 -0.8063  1.9700  2.1021
   57MOL0     H 7668  11.322   3.459   3.670  0.3846 -0.6374 -0.5832
   57MOL0     H 7669  11.473   3.583   3.894 -0.3851  3.3013  0.1711
   57MOL0     H 7670  11.406   3.675   3.748  0.1597  0.5801 -0.4707
   57MOL0     H 7671  11.594   3.431   3.731 -2.0176  0.4079 -0.1134
   57MOL0     H 7672  11.529   3.532   3.599  0.6726 -0.6679 -0.9549
   57MOL0     H 7673  11.641   3.724   3.736  1.1416 -0.4143  3.9533
   57MOL0     H 7674  11.733   3.621   3.612 -0.1857  2.7908 -0.2526
   57MOL0     H 7675  11.789   3.473   3.829 -3.1410 -1.0526 -0.0238
   57MOL0     H 7676  11.736   3.626   3.913 -3.4485 -3.4860 -0.1795
   57MOL0     H 7677  10.747   3.558   3.950  1.4330  0.6251 -0.8310
   57MOL0     H 7678  10.503   3.580   3.931  1.1300 -0.0421  0.0540
   57MOL0     H 7679  10.039   3.600   4.050 -0.3398  1.5503 -0.5562
   57MOL0     H 7680   9.811   3.584   4.026 -3.1160 -0.6808 -0.7528
   57MOL0     H 7681  10.433   3.668   3.683  0.5536  0.2550  1.5404
   57MOL0     H 7682  10.670   3.723   3.694 -2.2145  1.5269  0.2855
   57MOL0     H 7683  11.035   3.881   3.559  0.6965  1.5090 -0.3327
   57MOL0     H 7684  11.277   3.908   3.618 -0.2139 -0.3366  0.1456
   57MOL0     H 7685  11.641   3.742   3.376  0.2763  0.6346 -2.6413
   57MOL0     H 7686  11.495   3.789   3.286  0.0360 -0.7924 -0.0466
   57MOL0     H 7687  11.489   4.008   3.402 -0.2890 -1.1267 -0.0247
   57MOL0     H 7688  11.614   3.976   3.283  1.2620  0.9564  0.7661
   57MOL0     H 7689  11.651   3.965   3.592  0.0740  0.5683  0.4007
   57MOL0     H 7690  11.694   4.092   3.472  2.4008 -0.4490 -1.7198
   57MOL0     H 7691  11.821   3.810   3.487  0.8648  0.3067  1.0768
   57MOL0     H 7692  11.882   3.941   3.563  3.4440 -1.3849 -1.1689
   57MOL0     H 7693  12.029   4.085   3.211  0.3574  0.1679  0.1928
   57MOL0     H 7694  11.384   3.575   3.365 -0.1041  0.9240 -0.0279
   57MOL0     H 7695  11.152   3.526   3.321 -1.3549 -2.1552  3.5195
   58MOL0     O 7696  10.319  10.839   5.122  0.6458  0.7579  0.6470
   58MOL0     C 7697  10.347  10.740   5.050 -0.3217 -0.2150  0.9377
   58MOL0     O 7698  10.282  10.615   5.048 -0.3332 -0.2148 -0.2885
   58MOL0     C 7699  10.160  10.599   5.106 -0.3765 -0.0457  0.0977
   58MOL0     C 7700  10.135  10.474   5.161  0.6874 -0.9481 -0.1793
   58MOL0     C 7701  10.012  10.451   5.237  0.0868 -1.1042 -0.5527
   58MOL0     C 7702   9.924  10.559   5.252 -0.9840 -0.4217 -0.0586
   58MOL0     O 7703   9.813  10.531   5.324 -0.4164  0.4440  0.0646
   58MOL0     C 7704   9.722  10.637   5.348  0.9013  0.6659 -0.3567
   58MOL0     C 7705   9.597  10.585   5.434  0.0643  0.0711 -0.1794
   58MOL0     C 7706   9.527  10.476   5.347  0.6985  0.0108 -0.4372
   58MOL0     C 7707   9.452  10.381   5.440 -0.1490 -0.0842 -0.6118
   58MOL0     C 7708   9.366  10.271   5.379  0.0775  0.0714  0.2799
   58MOL0     C 7709   9.353  10.158   5.497 -0.6644 -0.7655  1.3082
   58MOL0     C 7710   9.253  10.045   5.462  0.6485  0.1534 -0.3241
   58MOL0     C 7711   9.109  10.089   5.463 -0.4260  0.3441  0.2839
   58MOL0     N 7712   9.020   9.959   5.463 -0.2692 -0.3172  0.2518
   58MOL0     C 7713   8.884   9.974   5.447 -0.9944 -1.5773 -0.0262
   58MOL0     C 7714   8.833   9.851   5.427  0.7686  0.0143 -0.1583
   58MOL0     C 7715   8.681   9.814   5.418 -0.8965 -0.3704  1.0194
   58MOL0     C 7716   8.617   9.751   5.535 -0.4911  0.9023  0.1153
   58MOL0     C 7717   8.680   9.606   5.574  0.6954  0.8203  0.3049
   58MOL0     C 7718   8.683   9.494   5.476  0.3408  0.8134  0.4569
   58MOL0     O 7719   8.551   9.460   5.434 -0.8387  0.7241  0.0425
   58MOL0     C 7720   8.463   9.398   5.527 -0.1483 -0.3354  0.5310
   58MOL0     C 7721   8.324   9.414   5.508  0.1055  0.5794 -0.4727
   58MOL0     C 7722   8.225   9.349   5.590  0.8698 -0.1787 -0.2443
   58MOL0     C 7723   8.087   9.379   5.554  0.1430  0.3576 -0.6378
   58MOL0     C 7724   8.270   9.263   5.695 -0.4681  0.6208 -0.5317
   58MOL0     C 7725   8.180   9.201   5.786 -1.3309  0.5235 -0.0848
   58MOL0     O 7726   8.236   9.156   5.907  0.1210 -0.1486  0.1289
   58MOL0     C 7727   8.147   9.108   5.998  0.8344 -0.4357 -0.6967
   58MOL0     C 7728   8.105   9.170   6.118 -0.0679 -0.2329  0.4241
   58MOL0     C 7729   8.017   9.102   6.203 -0.3277  0.3056 -0.7239
   58MOL0     C 7730   7.960   8.983   6.170  0.5446  1.2365  0.4344
   58MOL0     O 7731   7.871   8.940   6.264  0.0604  0.0515 -0.2650
   58MOL0     C 7732   7.746   8.877   6.215 -0.1797  0.3540 -0.4991
   58MOL0     C 7733   7.659   8.990   6.164  0.5589 -0.5930  1.1000
   58MOL0     C 7734   7.513   8.932   6.148 -0.4802 -0.4629 -0.0956
   58MOL0     C 7735   7.411   9.047   6.143 -0.2000  0.1717  0.2646
   58MOL0     C 7736   7.276   8.989   6.112 -0.1450 -0.1357  0.0660
   58MOL0     C 7737   7.171   9.098   6.105 -0.5568 -1.1316  0.4130
   58MOL0     C 7738   7.031   9.041   6.107 -0.2872  0.9639  0.3107
   58MOL0     C 7739   6.920   9.135   6.162 -0.4644  0.3497  0.7679
   58MOL0    Cl 7740   6.905   9.277   6.069 -0.1130 -0.1983 -0.2009
   58MOL0     C 7741   8.012   8.913   6.056  0.8293  0.5574  0.2976
   58MOL0     C 7742   8.096   8.982   5.974 -0.5404 -0.4300 -0.1672
   58MOL0     O 7743   8.074   9.165   5.744  0.0179 -0.9351  0.3217
   58MOL0     C 7744   8.402   9.249   5.711  0.3332  0.1062  0.2796
   58MOL0     C 7745   8.501   9.304   5.623  0.5392  0.4948  0.7337
   58MOL0     N 7746   8.938   9.763   5.438 -0.3764  0.7257  0.0005
   58MOL0     N 7747   9.052   9.830   5.441  0.6415  0.5456  0.1528
   58MOL0     C 7748   9.952  10.679   5.189  0.2086  0.4943  0.6745
   58MOL0     C 7749  10.066  10.694   5.116 -0.4282 -1.0290  0.6955
   58MOL0     C 7750  10.465  10.747   4.958 -0.3876  0.2894 -0.8197
   58MOL0     C 7751  10.511  10.643   4.881 -0.0237  0.2313  0.6841
   58MOL0     C 7752  10.612  10.645   4.783 -0.2768 -1.3309  0.0470
   58MOL0     C 7753  10.688  10.762   4.781 -1.0539  0.4549 -0.4557
   58MOL0     O 7754  10.799  10.773   4.695 -0.4195 -0.1959 -0.2711
   58MOL0     C 7755  10.879  10.652   4.667 -0.9777  0.2102 -0.3795
   58MOL0     C 7756  11.020  10.686   4.610  0.3361  0.1244  0.1239
   58MOL0     C 7757  11.092  10.564   4.552 -0.0420 -0.6446 -0.3336
   58MOL0     C 7758  11.240  10.608   4.538 -0.1698 -0.3027 -0.0365
   58MOL0     C 7759  11.323  10.507   4.477 -0.6043  0.6331 -0.7999
   58MOL0     C 7760  11.403  10.439   4.414 -0.1969  0.1768 -0.6275
   58MOL0     C 7761  10.646  10.876   4.852  0.2919  0.1960 -0.9007
   58MOL0     C 7762  10.544  10.867   4.947 -0.5698 -0.2035 -0.6392
   58MOL0     H 7763  10.206  10.394   5.143  3.8548  1.2677  1.3824
   58MOL0     H 7764  10.000  10.347   5.268  1.1077 -1.3279 -0.8447
   58MOL0     H 7765   9.786  10.706   5.404  1.8058 -1.4450  1.3773
   58MOL0     H 7766   9.689  10.686   5.256 -2.1640  0.3677  0.4844
   58MOL0     H 7767   9.632  10.547   5.530 -0.5428 -0.0342  0.0017
   58MOL0     H 7768   9.521  10.663   5.442 -1.0277 -0.7945 -1.5281
   58MOL0     H 7769   9.455  10.511   5.273  0.2097  1.8753  0.8426
   58MOL0     H 7770   9.609  10.425   5.295  2.2805  2.2214 -0.2735
   58MOL0     H 7771   9.529  10.337   5.505 -1.4752 -2.6871 -0.6700
   58MOL0     H 7772   9.379  10.442   5.494 -0.9542  0.0908 -1.8616
   58MOL0     H 7773   9.268  10.313   5.354 -1.0789 -1.9501  1.1390
   58MOL0     H 7774   9.408  10.229   5.287  1.3838 -1.5375  1.5517
   58MOL0     H 7775   9.452  10.111   5.487 -0.1008  0.8889 -3.6591
   58MOL0     H 7776   9.330  10.205   5.593 -0.4408 -2.1361  2.0483
   58MOL0     H 7777   9.271   9.999   5.364 -2.4635 -2.3051  0.1060
   58MOL0     H 7778   9.268   9.966   5.536  0.4014  0.1244 -0.3069
   58MOL0     H 7779   9.084  10.148   5.375  1.5373 -0.6135 -0.9975
   58MOL0     H 7780   9.088  10.149   5.552  1.6816  0.0042  1.0938
   58MOL0     H 7781   8.823  10.063   5.457 -1.6135 -2.0571  0.5395
   58MOL0     H 7782   8.633   9.912   5.404  0.3153  0.1822  0.6191
   58MOL0     H 7783   8.662   9.751   5.331  0.2736 -1.5282  1.5800
   58MOL0     H 7784   8.508   9.746   5.531 -0.7114  4.1986 -0.6080
   58MOL0     H 7785   8.657   9.811   5.617 -1.1646  2.3130 -0.5402
   58MOL0     H 7786   8.625   9.579   5.664  0.0308  2.0059  0.2759
   58MOL0     H 7787   8.778   9.630   5.617  0.4881 -0.9432  1.8629
   58MOL0     H 7788   8.746   9.414   5.514 -2.9110 -0.4977  3.6210
   58MOL0     H 7789   8.730   9.538   5.387 -0.8471 -1.0649 -1.1675
   58MOL0     H 7790   8.295   9.484   5.430 -0.3502  2.6342  1.4400
   58MOL0     H 7791   8.017   9.395   5.637  0.4118 -1.5057 -0.0205
   58MOL0     H 7792   8.087   9.478   5.507 -2.2018  0.0160 -1.4959
   58MOL0     H 7793   8.054   9.315   5.472  2.3466 -1.2663 -0.3381
   58MOL0     H 7794   8.140   9.270   6.143 -0.4529  0.0207 -0.0316
   58MOL0     H 7795   7.988   9.137   6.301 -0.9027  1.1536 -1.1797
   58MOL0     H 7796   7.766   8.802   6.138  1.4804 -1.2515  1.3898
   58MOL0     H 7797   7.701   8.814   6.292  1.2928 -2.8955 -2.0853
   58MOL0     H 7798   7.667   9.070   6.238 -0.7591  2.4121 -1.7840
   58MOL0     H 7799   7.704   9.034   6.075 -2.8448 -0.5543 -0.7388
   58MOL0     H 7800   7.491   8.857   6.225  2.3695 -0.6517  0.6684
   58MOL0     H 7801   7.508   8.880   6.052 -0.5339 -0.7275  0.0479
   58MOL0     H 7802   7.408   9.104   6.237  1.5683  1.6386 -0.5284
   58MOL0     H 7803   7.444   9.120   6.069  2.3548  1.1846  2.2620
   58MOL0     H 7804   7.251   8.918   6.192 -0.7842 -0.2056 -0.1888
   58MOL0     H 7805   7.279   8.943   6.013 -1.6477  1.2253 -0.6546
   58MOL0     H 7806   7.172   9.162   6.194 -2.2297  3.3662 -2.4433
   58MOL0     H 7807   7.187   9.172   6.026  3.1976 -2.3659 -0.1575
   58MOL0     H 7808   7.030   8.954   6.173 -3.3272 -0.1877 -1.0783
   58MOL0     H 7809   7.018   8.999   6.007  0.3409 -3.8856  2.0225
   58MOL0     H 7810   6.950   9.153   6.266 -1.0508  0.1346  0.9764
   58MOL0     H 7811   6.828   9.077   6.158 -0.5752  0.5755 -1.1081
   58MOL0     H 7812   7.988   8.813   6.019 -4.1615  2.3633 -2.2524
   58MOL0     H 7813   8.132   8.918   5.894 -1.1490 -2.0640  0.8176
   58MOL0     H 7814   8.443   9.172   5.777 -1.6430 -0.2268  1.1932
   58MOL0     H 7815   8.605   9.273   5.628  0.1969 -0.8162  0.1204
   58MOL0     H 7816   9.880  10.759   5.173 -1.3049 -0.8340  0.6787
   58MOL0     H 7817  10.071  10.783   5.052 -1.0563 -1.5839 -0.1503
   58MOL0     H 7818  10.446  10.557   4.865 -2.1501  2.1658 -2.2282
   58MOL0     H 7819  10.637  10.564   4.715  0.6778 -1.5120  0.5929
   58MOL0     H 7820  10.898  10.608   4.765 -0.0345  1.8273  0.1984
   58MOL0     H 7821  10.818  10.585   4.605 -2.6849  0.8932  0.4819
   58MOL0     H 7822  11.088  10.721   4.689  0.1237 -4.4169  2.6319
   58MOL0     H 7823  11.008  10.760   4.530  0.0549 -0.8540 -0.7501
   58MOL0     H 7824  11.045  10.532   4.458 -1.8220  3.8236 -1.2044
   58MOL0     H 7825  11.082  10.485   4.627  0.7439 -1.9164 -1.5202
   58MOL0     H 7826  11.290  10.631   4.633  0.0384  0.7337 -0.3891
   58MOL0     H 7827  11.241  10.703   4.483  3.1483 -1.5444 -2.4111
   58MOL0     H 7828  11.460  10.360   4.369  0.2823  0.2820 -0.2191
   58MOL0     H 7829  10.706  10.965   4.836  0.5024  0.3709  0.7106
   58MOL0     H 7830  10.513  10.954   5.003  3.1288  0.7236  0.2426
   59MOL0     O 7831   0.218   1.296  10.709 -0.5747 -0.7381 -0.1629
   59MOL0     C 7832   0.191   1.209  10.625  0.1108  0.4495 -1.2036
   59MOL0     O 7833   0.075   1.124  10.626  0.1813 -0.0480  0.6411
   59MOL0     C 7834  -0.025   1.156  10.716 -1.0105 -0.0381  0.6766
   59MOL0     C 7835  -0.161   1.159  10.671  0.1117  0.2247 -0.2106
   59MOL0     C 7836  -0.270   1.192  10.759 -0.1956  0.2226  0.6725
   59MOL0     C 7837  -0.238   1.213  10.899 -0.6315 -0.0344 -0.6161
   59MOL0     O 7838  -0.339   1.259  10.981  0.3783  0.0623  0.1077
   59MOL0     C 7839  -0.318   1.404  11.013  0.3613 -0.2412 -0.3472
   59MOL0     C 7840  -0.442   1.436  11.109 -0.7737 -0.0599 -0.1368
   59MOL0     C 7841  -0.577   1.428  11.039  0.3405  0.5356 -0.3561
   59MOL0     C 7842  -0.705   1.434  11.133 -0.4865  0.6762  0.5027
   59MOL0     C 7843  -0.834   1.440  11.046 -0.0635 -0.2516 -0.8283
   59MOL0     C 7844  -0.946   1.461  11.152 -0.6264 -0.4252  0.8249
   59MOL0     C 7845  -1.088   1.453  11.091 -0.0034 -0.7343  0.1754
   59MOL0     C 7846  -1.195   1.388  11.178  0.1136 -0.1235 -0.2859
   59MOL0     N 7847  -1.197   1.436  11.317  0.6541  0.0265 -0.2247
   59MOL0     C 7848  -1.219   1.567  11.360 -0.3634 -0.4239  0.2695
   59MOL0     C 7849  -1.218   1.560  11.496  0.8117 -1.2180  0.3158
   59MOL0     C 7850  -1.223   1.693  11.583  0.5753  0.8646  0.3301
   59MOL0     C 7851  -1.297   1.670  11.718  0.2374 -0.3951 -0.1074
   59MOL0     C 7852  -1.441   1.619  11.679  0.3846  0.5088  0.0502
   59MOL0     C 7853  -1.545   1.638  11.792  0.1178 -0.1774 -0.1713
   59MOL0     O 7854  -1.679   1.598  11.750  0.0883  0.0850 -0.1752
   59MOL0     C 7855  -1.787   1.614  11.837  0.2829 -0.2134  0.9759
   59MOL0     C 7856  -1.908   1.578  11.782  0.6494 -0.2717  0.9862
   59MOL0     C 7857  -2.032   1.593  11.849  0.4598  0.2241  0.6152
   59MOL0     C 7858  -2.151   1.519  11.799  0.2907 -1.0799  0.3895
   59MOL0     C 7859  -2.030   1.668  11.973  0.2199  0.1507  0.1291
   59MOL0     C 7860  -2.156   1.711  12.045  0.2357  0.3110 -0.9650
   59MOL0     O 7861  -2.155   1.707  12.189  0.3704  0.4367 -0.3455
   59MOL0     C 7862  -2.263   1.766  12.252 -0.0818 -0.4530  0.2548
   59MOL0     C 7863  -2.398   1.773  12.203 -0.1245  0.8167 -0.5232
   59MOL0     C 7864  -2.488   1.861  12.252 -0.5518 -0.3097 -0.0955
   59MOL0     C 7865  -2.454   1.943  12.360  0.3389 -0.4454 -0.8482
   59MOL0     O 7866  -2.538   2.038  12.424 -0.2997 -0.4481  0.1928
   59MOL0     C 7867  -2.670   2.060  12.364  0.3235 -1.2177  0.7172
   59MOL0     C 7868  -2.729   2.191  12.436  0.2058  0.8421 -0.0344
   59MOL0     C 7869  -2.642   2.309  12.428 -0.0989 -0.0413  0.2404
   59MOL0     C 7870  -2.714   2.423  12.496 -0.3002 -0.1102  0.1138
   59MOL0     C 7871  -2.652   2.557  12.449 -0.3914 -0.0909 -0.7282
   59MOL0     C 7872  -2.710   2.684  12.512 -0.0461 -0.5854  0.7478
   59MOL0     C 7873  -2.651   2.724  12.647  0.6916 -0.0174 -0.0110
   59MOL0     C 7874  -2.733   2.838  12.704 -0.0675 -0.3242 -0.1290
   59MOL0    Cl 7875  -2.711   2.981  12.608 -0.1915 -0.0211  0.4700
   59MOL0     C 7876  -2.316   1.944  12.406 -0.0732 -0.2562 -0.9798
   59MOL0     C 7877  -2.219   1.846  12.357  0.8136 -0.6606 -0.5470
   59MOL0     O 7878  -2.243   1.753  11.971  0.1121  0.3463 -0.0683
   59MOL0     C 7879  -1.903   1.692  12.024 -0.3539 -0.3558  0.7357
   59MOL0     C 7880  -1.788   1.655  11.965 -0.0133  0.0613  0.0789
   59MOL0     N 7881  -1.213   1.434  11.528  0.3472 -0.3151  0.2932
   59MOL0     N 7882  -1.202   1.356  11.424  0.0171  0.1495  0.2985
   59MOL0     C 7883  -0.102   1.199  10.941 -0.1741  0.1495  0.0202
   59MOL0     C 7884   0.003   1.167  10.850  1.0246  1.0897 -0.2784
   59MOL0     C 7885   0.278   1.192  10.503 -0.5567  0.0778 -0.2933
   59MOL0     C 7886   0.257   1.095  10.400  0.5443  0.8361 -0.2114
   59MOL0     C 7887   0.332   1.082  10.283 -0.7700 -0.3664  0.7647
   59MOL0     C 7888   0.438   1.176  10.266 -0.1257 -0.1288  0.0826
   59MOL0     O 7889   0.513   1.164  10.146  0.4593 -0.1191 -0.3292
   59MOL0     C 7890   0.638   1.225  10.126 -0.0840  0.4923  0.2588
   59MOL0     C 7891   0.740   1.123  10.175  0.2217 -0.9149 -0.6872
   59MOL0     C 7892   0.735   1.004  10.088  0.0778  0.3418 -0.2878
   59MOL0     C 7893   0.840   0.909  10.150 -0.2244  0.1222  0.5279
   59MOL0     C 7894   0.830   0.787  10.071  0.4710 -0.2533  0.0501
   59MOL0     C 7895   0.821   0.683  10.013  0.8775 -0.1954  0.0825
   59MOL0     C 7896   0.467   1.271  10.369  0.5149 -0.4224  0.6282
   59MOL0     C 7897   0.389   1.279  10.489 -0.0556  0.5217 -0.5989
   59MOL0     H 7898  -0.187   1.142  10.567 -2.7631  0.2774  0.4117
   59MOL0     H 7899  -0.372   1.195  10.725 -0.7438 -1.9019  1.9475
   59MOL0     H 7900  -0.223   1.419  11.065  0.5019  2.3831 -1.2197
   59MOL0     H 7901  -0.340   1.472  10.931  1.1227  1.2738  0.6613
   59MOL0     H 7902  -0.438   1.361  11.189 -1.3244  0.1663  0.1134
   59MOL0     H 7903  -0.436   1.535  11.156 -1.1821  0.8527 -1.9241
   59MOL0     H 7904  -0.587   1.509  10.967 -0.5490  0.4070 -0.3797
   59MOL0     H 7905  -0.584   1.329  10.992 -0.4947  0.3154  0.2136
   59MOL0     H 7906  -0.698   1.345  11.195  2.5288 -0.0853 -0.7670
   59MOL0     H 7907  -0.712   1.532  11.182 -2.0324  0.9274 -0.1406
   59MOL0     H 7908  -0.838   1.531  10.986  0.4731  0.4158  0.1088
   59MOL0     H 7909  -0.844   1.345  10.995 -1.1360 -0.7686  0.2889
   59MOL0     H 7910  -0.928   1.406  11.245  3.1993  2.3752  2.0285
   59MOL0     H 7911  -0.941   1.562  11.195 -0.2222  0.8480 -1.9805
   59MOL0     H 7912  -1.115   1.555  11.064 -0.3657 -0.4521  1.5293
   59MOL0     H 7913  -1.074   1.398  10.997  2.6143  1.1359 -0.6713
   59MOL0     H 7914  -1.168   1.282  11.181  0.0408 -0.2442 -2.1824
   59MOL0     H 7915  -1.292   1.395  11.127  1.1748 -2.5128 -2.9093
   59MOL0     H 7916  -1.221   1.662  11.307 -3.2819 -1.4596 -1.7219
   59MOL0     H 7917  -1.121   1.724  11.607 -0.3011  4.4011 -0.0050
   59MOL0     H 7918  -1.272   1.776  11.532  2.5622  2.8084  1.4052
   59MOL0     H 7919  -1.286   1.754  11.786  1.3737 -0.7753  0.2151
   59MOL0     H 7920  -1.236   1.593  11.767  1.8065  0.7620 -0.1608
   59MOL0     H 7921  -1.432   1.512  11.654 -1.6934  0.3963 -0.4213
   59MOL0     H 7922  -1.483   1.670  11.593  0.9076  1.1704  0.1746
   59MOL0     H 7923  -1.555   1.747  11.801 -3.1926 -0.2895 -1.0091
   59MOL0     H 7924  -1.503   1.599  11.885  0.0695  0.8763  0.3148
   59MOL0     H 7925  -1.906   1.524  11.688  0.8352 -1.9372  1.8920
   59MOL0     H 7926  -2.226   1.586  11.755 -1.1548 -1.6626  1.8394
   59MOL0     H 7927  -2.134   1.431  11.736 -0.6478 -2.0745  1.4733
   59MOL0     H 7928  -2.205   1.472  11.882 -0.9014  0.4931  0.5614
   59MOL0     H 7929  -2.429   1.711  12.119 -1.5160 -2.5473  2.2105
   59MOL0     H 7930  -2.587   1.854  12.208 -0.7081  0.2905  0.1451
   59MOL0     H 7931  -2.658   2.072  12.256 -1.7129 -1.6554  0.4084
   59MOL0     H 7932  -2.739   1.976  12.373 -0.4893 -0.5412  0.9599
   59MOL0     H 7933  -2.832   2.218  12.409 -1.3792 -0.8369  3.6238
   59MOL0     H 7934  -2.725   2.159  12.540  1.1642  2.6999  0.5325
   59MOL0     H 7935  -2.620   2.344  12.327 -2.2427  2.6539  0.5802
   59MOL0     H 7936  -2.549   2.282  12.478  0.4973 -3.5228 -2.3378
   59MOL0     H 7937  -2.823   2.425  12.481 -0.5215 -0.2211  1.5530
   59MOL0     H 7938  -2.694   2.425  12.604  2.1204  1.7248 -0.2858
   59MOL0     H 7939  -2.664   2.568  12.341  1.0657  0.9591 -0.8102
   59MOL0     H 7940  -2.544   2.552  12.465 -0.3170 -2.7708 -1.5909
   59MOL0     H 7941  -2.690   2.766  12.443 -0.8366  0.4843  1.7471
   59MOL0     H 7942  -2.819   2.671  12.502 -0.5622  2.7929  0.7736
   59MOL0     H 7943  -2.548   2.756  12.636  1.2934 -2.2771 -1.7550
   59MOL0     H 7944  -2.659   2.636  12.712  1.6554  0.3537  0.6264
   59MOL0     H 7945  -2.700   2.851  12.807  1.3135 -1.6807 -0.3582
   59MOL0     H 7946  -2.840   2.816  12.695 -0.3638 -0.4032  2.6205
   59MOL0     H 7947  -2.285   2.008  12.488 -0.0510 -0.4257 -0.8549
   59MOL0     H 7948  -2.115   1.840  12.388  0.9917 -0.9653 -1.1916
   59MOL0     H 7949  -1.889   1.732  12.124 -0.4939  0.7444  0.3303
   59MOL0     H 7950  -1.689   1.666  12.007  0.5975 -0.9552 -1.0262
   59MOL0     H 7951  -0.092   1.217  11.047  0.4819 -1.4446  0.2446
   59MOL0     H 7952   0.103   1.147  10.888 -0.6421 -3.8075  2.2535
   59MOL0     H 7953   0.169   1.031  10.402 -0.1720  1.8364  1.3229
   59MOL0     H 7954   0.302   1.011  10.207 -1.2307 -0.1817  0.7739
   59MOL0     H 7955   0.651   1.241  10.019 -0.0004 -1.4246 -0.0535
   59MOL0     H 7956   0.645   1.323  10.175 -0.1174  1.1685 -1.0424
   59MOL0     H 7957   0.720   1.088  10.277  2.0998 -0.9382 -0.2974
   59MOL0     H 7958   0.841   1.163  10.186  0.0842 -0.1006 -2.1946
   59MOL0     H 7959   0.759   1.030   9.985 -0.7304  2.7482  0.0673
   59MOL0     H 7960   0.634   0.964  10.083  0.5097 -0.6345 -1.6682
   59MOL0     H 7961   0.833   0.889  10.257 -1.9319 -3.2275 -0.0745
   59MOL0     H 7962   0.935   0.962  10.134  1.4801 -2.7834  0.2708
   59MOL0     H 7963   0.813   0.594   9.955 -0.4290 -0.0781  0.0593
   59MOL0     H 7964   0.552   1.339  10.366 -1.0834  1.6499 -0.1369
   59MOL0     H 7965   0.418   1.364  10.551  0.5104 -0.1591  0.0838
   60MOL0     O 7966   8.309   9.188   1.375  0.1139  0.0352 -0.3686
   60MOL0     C 7967   8.327   9.298   1.429 -0.3160  0.4695 -0.6757
   60MOL0     O 7968   8.445   9.361   1.439  0.0306  0.9682  0.4812
   60MOL0     C 7969   8.551   9.290   1.386 -0.5187 -0.9759  0.7668
   60MOL0     C 7970   8.629   9.199   1.456  0.0800  0.7222 -0.6774
   60MOL0     C 7971   8.746   9.137   1.398 -0.5552  0.1681  0.3396
   60MOL0     C 7972   8.766   9.154   1.259  0.4089  0.4414  0.7559
   60MOL0     O 7973   8.853   9.080   1.188 -0.3836  0.1303  0.1237
   60MOL0     C 7974   8.989   9.117   1.202  0.1368  0.2195 -0.4599
   60MOL0     C 7975   9.061   9.068   1.327 -0.2191  0.5622 -0.1395
   60MOL0     C 7976   9.043   8.917   1.354 -0.1910  0.4404 -0.5228
   60MOL0     C 7977   9.109   8.877   1.490  0.1433 -0.7981  0.4113
   60MOL0     C 7978   9.122   8.724   1.484  0.4757 -0.8727  0.6314
   60MOL0     C 7979   9.182   8.671   1.611  0.4496  0.4260 -0.6561
   60MOL0     C 7980   9.180   8.517   1.612  0.5893  0.4925 -0.3545
   60MOL0     C 7981   9.329   8.467   1.626  0.1857  1.1095 -0.2782
   60MOL0     N 7982   9.338   8.324   1.666  0.2899 -0.2968  0.7114
   60MOL0     C 7983   9.347   8.275   1.791  0.3030 -0.0043  0.6385
   60MOL0     C 7984   9.332   8.141   1.778  0.7564 -0.4579  0.5461
   60MOL0     C 7985   9.337   8.036   1.886 -0.8534  0.6072  0.4729
   60MOL0     C 7986   9.212   8.030   1.983  0.3862 -0.0778 -0.0730
   60MOL0     C 7987   9.088   7.994   1.896  0.1532 -0.0071  1.4142
   60MOL0     C 7988   8.972   7.958   1.980  0.4410 -0.1038  0.3881
   60MOL0     O 7989   8.867   7.912   1.897  0.4709  0.1832  0.9070
   60MOL0     C 7990   8.735   7.900   1.947 -0.4932  0.9399  0.1500
   60MOL0     C 7991   8.633   7.907   1.848 -1.0373  0.3294  0.1720
   60MOL0     C 7992   8.498   7.909   1.882  0.2165 -0.0461 -0.2781
   60MOL0     C 7993   8.409   7.907   1.763  0.0753  0.8013 -0.5330
   60MOL0     C 7994   8.462   7.896   2.018  0.3032 -0.3430  1.1354
   60MOL0     C 7995   8.322   7.878   2.070  0.0730 -0.0971  0.4170
   60MOL0     O 7996   8.310   7.853   2.200 -0.0463 -0.0376  0.8847
   60MOL0     C 7997   8.192   7.875   2.269  0.5239 -0.6928  0.2026
   60MOL0     C 7998   8.209   7.871   2.407  0.4860  1.2841  0.0439
   60MOL0     C 7999   8.100   7.894   2.495  0.2389  0.0313  0.5783
   60MOL0     C 8000   7.976   7.928   2.449  0.1551  0.3999  0.7042
   60MOL0     O 8001   7.873   7.940   2.540 -0.4801  0.3591 -0.1360
   60MOL0     C 8002   7.780   7.826   2.545  0.6001  0.0962  0.0240
   60MOL0     C 8003   7.649   7.879   2.608  0.1090  0.2914  0.5993
   60MOL0     C 8004   7.565   7.763   2.657 -0.2805  0.4448 -0.0766
   60MOL0     C 8005   7.431   7.797   2.724  0.1906  0.2640 -0.1105
   60MOL0     C 8006   7.346   7.667   2.769 -0.8430  0.1750  0.0536
   60MOL0     C 8007   7.217   7.716   2.837  0.2128 -0.0642  0.0582
   60MOL0     C 8008   7.113   7.789   2.750  0.0536 -0.0716 -0.2613
   60MOL0     C 8009   6.995   7.847   2.831  0.2795  0.1684 -0.5397
   60MOL0    Cl 8010   6.899   7.731   2.929  0.2911 -0.3121 -0.1345
   60MOL0     C 8011   7.951   7.946   2.311 -0.7854 -1.0075 -0.1872
   60MOL0     C 8012   8.061   7.909   2.219  0.9988 -0.7120  0.3072
   60MOL0     O 8013   8.226   7.883   1.996 -0.0440  0.7414  0.3264
   60MOL0     C 8014   8.563   7.879   2.116 -0.7389 -0.5338 -0.5473
   60MOL0     C 8015   8.702   7.888   2.080  0.4881 -0.7848 -0.3230
   60MOL0     N 8016   9.326   8.110   1.645  0.0166  0.6983 -0.0844
   60MOL0     N 8017   9.325   8.221   1.580  0.5160 -0.0506  0.1885
   60MOL0     C 8018   8.693   9.247   1.188  0.0312 -0.2373  0.9793
   60MOL0     C 8019   8.591   9.321   1.255 -0.7738  0.3669  0.3068
   60MOL0     C 8020   8.221   9.355   1.514  0.7758 -0.3648 -0.5111
   60MOL0     C 8021   8.246   9.444   1.623  0.7302  0.4447 -0.1047
   60MOL0     C 8022   8.140   9.499   1.692 -0.4824  0.5825 -0.3843
   60MOL0     C 8023   8.010   9.453   1.672  0.2854  0.2850 -0.8159
   60MOL0     O 8024   7.912   9.513   1.757  0.6967  0.6310  0.3977
   60MOL0     C 8025   7.771   9.531   1.711  0.0322 -0.0159  0.2049
   60MOL0     C 8026   7.771   9.632   1.595  0.0999  0.1776  0.1713
   60MOL0     C 8027   7.800   9.776   1.642 -0.3892 -0.3652  0.6527
   60MOL0     C 8028   7.883   9.858   1.544 -0.0135 -0.6614  0.4220
   60MOL0     C 8029   7.890   9.997   1.589 -0.0859 -0.7020 -0.4072
   60MOL0     C 8030   7.907  10.112   1.624 -0.0272 -0.1475 -0.8853
   60MOL0     C 8031   7.982   9.363   1.565  0.4444 -0.8909 -0.0607
   60MOL0     C 8032   8.086   9.324   1.482  0.5041 -0.6788 -0.1334
   60MOL0     H 8033   8.600   9.190   1.560  2.2650 -1.6272 -0.1752
   60MOL0     H 8034   8.817   9.072   1.447  1.3997  1.5761 -0.4729
   60MOL0     H 8035   9.046   9.080   1.116  0.8414 -0.0004  0.0937
   60MOL0     H 8036   9.001   9.225   1.219 -2.0211  0.1882  1.7138
   60MOL0     H 8037   9.167   9.098   1.328 -0.6288  2.1743 -1.3545
   60MOL0     H 8038   9.028   9.120   1.417  3.1965  0.0340  1.6082
   60MOL0     H 8039   8.938   8.890   1.368 -0.1434  0.8842  0.7196
   60MOL0     H 8040   9.080   8.869   1.262 -2.1125 -1.1302 -0.5508
   60MOL0     H 8041   9.203   8.930   1.511 -2.2566  3.9772  0.4229
   60MOL0     H 8042   9.032   8.894   1.566  0.5983 -0.6723  0.8483
   60MOL0     H 8043   9.023   8.682   1.464  0.7835 -1.0625 -0.5787
   60MOL0     H 8044   9.184   8.696   1.399  0.2060 -0.9565  0.4598
   60MOL0     H 8045   9.279   8.719   1.627  0.8736 -1.1065  1.8637
   60MOL0     H 8046   9.129   8.706   1.701  0.6262  2.9765 -1.4534
   60MOL0     H 8047   9.132   8.484   1.704  2.2631  4.1757  2.0894
   60MOL0     H 8048   9.129   8.477   1.524  0.6821  2.8586 -1.5660
   60MOL0     H 8049   9.376   8.516   1.712  2.4187 -0.0282 -0.7738
   60MOL0     H 8050   9.381   8.483   1.531  0.6314 -0.2473 -0.2847
   60MOL0     H 8051   9.346   8.320   1.889  1.8935 -2.5345  1.9345
   60MOL0     H 8052   9.347   7.936   1.843 -0.0504  1.9453 -2.7910
   60MOL0     H 8053   9.426   8.058   1.946 -0.6593  2.5396 -0.4431
   60MOL0     H 8054   9.189   8.121   2.038 -1.2405  0.1088 -1.0079
   60MOL0     H 8055   9.228   7.951   2.057  0.8078  1.4374  1.5100
   60MOL0     H 8056   9.118   7.913   1.829 -2.4366  0.7615 -0.9031
   60MOL0     H 8057   9.058   8.079   1.834 -1.2638  0.3071  2.4786
   60MOL0     H 8058   8.942   8.041   2.045 -2.3378 -0.6085 -0.1301
   60MOL0     H 8059   8.992   7.871   2.045 -1.4793 -1.1535 -0.3526
   60MOL0     H 8060   8.661   7.919   1.744 -2.0118  2.0918  0.0740
   60MOL0     H 8061   8.467   7.859   1.684  4.5192 -0.4413  3.0585
   60MOL0     H 8062   8.325   7.840   1.783 -0.0192  1.0850  0.0444
   60MOL0     H 8063   8.385   8.012   1.740  1.7973  1.8343  1.9130
   60MOL0     H 8064   8.312   7.854   2.435  0.7735  0.1034 -1.5437
   60MOL0     H 8065   8.114   7.879   2.602 -2.1653 -4.3449  0.5113
   60MOL0     H 8066   7.758   7.785   2.446  3.5475  0.6941 -0.9757
   60MOL0     H 8067   7.833   7.754   2.608 -0.3984 -0.7320 -0.0649
   60MOL0     H 8068   7.669   7.942   2.696 -1.1189  0.9414  0.4263
   60MOL0     H 8069   7.582   7.932   2.541 -1.0586 -1.5080  0.2688
   60MOL0     H 8070   7.624   7.714   2.734 -2.8118 -0.4711  1.4043
   60MOL0     H 8071   7.550   7.686   2.581  0.4997  0.9798 -0.7934
   60MOL0     H 8072   7.449   7.861   2.811  0.0450  0.1647 -0.0056
   60MOL0     H 8073   7.380   7.857   2.648  3.5306 -0.5128 -3.2614
   60MOL0     H 8074   7.413   7.602   2.826 -0.3526  1.3754  0.8690
   60MOL0     H 8075   7.318   7.611   2.678  1.2685  0.3674 -0.7635
   60MOL0     H 8076   7.172   7.626   2.880  0.8347  0.0580  0.9953
   60MOL0     H 8077   7.242   7.786   2.917  1.1029  0.4247 -0.6300
   60MOL0     H 8078   7.077   7.725   2.668  3.6138 -0.6362 -1.5673
   60MOL0     H 8079   7.160   7.874   2.699  1.6664 -1.6544 -1.5478
   60MOL0     H 8080   6.933   7.903   2.760  1.4128  1.3045 -0.6615
   60MOL0     H 8081   7.042   7.916   2.901  3.0419  0.2030 -2.3137
   60MOL0     H 8082   7.863   7.999   2.275  0.1373 -0.0017 -1.0089
   60MOL0     H 8083   8.030   7.913   2.115 -0.7854 -0.3548  0.8201
   60MOL0     H 8084   8.530   7.880   2.220 -1.5555  0.6396 -0.7918
   60MOL0     H 8085   8.780   7.873   2.153  1.2114  0.1488 -0.8750
   60MOL0     H 8086   8.723   9.272   1.086 -2.6063 -2.5882 -0.5323
   60MOL0     H 8087   8.538   9.395   1.197  1.4175  0.5513 -1.6129
   60MOL0     H 8088   8.343   9.464   1.668  0.0457  0.0000  1.6614
   60MOL0     H 8089   8.168   9.553   1.782 -0.5236 -1.3476  0.8495
   60MOL0     H 8090   7.742   9.427   1.695  1.7620 -0.4401 -0.4524
   60MOL0     H 8091   7.725   9.586   1.794 -0.8603  1.0667 -0.9861
   60MOL0     H 8092   7.681   9.626   1.535  1.3368 -2.8764 -1.6246
   60MOL0     H 8093   7.847   9.602   1.522 -0.3667  0.4297 -0.4220
   60MOL0     H 8094   7.871   9.758   1.724  0.0667  0.4949  0.4555
   60MOL0     H 8095   7.713   9.827   1.685 -1.2367 -2.7175  1.9916
   60MOL0     H 8096   7.824   9.859   1.452 -1.3937 -0.3000  1.2802
   60MOL0     H 8097   7.980   9.820   1.509  1.0140  0.6750  1.6917
   60MOL0     H 8098   7.919  10.215   1.649 -2.8067 -0.0655  0.5256
   60MOL0     H 8099   7.879   9.345   1.536 -0.2463  0.6556  1.2511
   60MOL0     H 8100   8.061   9.266   1.394  2.9842 -1.2551 -0.5406
   61MOL0     O 8101   9.140   6.342   2.301 -0.0089 -0.2640  0.3991
   61MOL0     C 8102   9.104   6.239   2.235  0.5790  1.0500  0.2241
   61MOL0     O 8103   8.989   6.224   2.157 -0.5594  0.2907 -0.1296
   61MOL0     C 8104   8.906   6.339   2.145 -0.3023  0.3481 -0.6343
   61MOL0     C 8105   8.775   6.343   2.212  0.0389 -0.4985  0.1455
   61MOL0     C 8106   8.709   6.461   2.222 -0.2310 -0.9028 -0.0864
   61MOL0     C 8107   8.753   6.585   2.157 -0.3071  0.3535  0.5173
   61MOL0     O 8108   8.677   6.693   2.165  0.3378  0.9420  0.2850
   61MOL0     C 8109   8.697   6.791   2.057 -0.2129  0.0942  0.1515
   61MOL0     C 8110   8.611   6.911   2.095  0.6714  0.7848  0.1384
   61MOL0     C 8111   8.467   6.888   2.080  0.6451  0.4409  0.1801
   61MOL0     C 8112   8.372   6.999   2.101  0.3300  0.8216 -0.3123
   61MOL0     C 8113   8.227   6.952   2.060  0.4306  0.2807 -0.3989
   61MOL0     C 8114   8.168   7.060   1.973  1.0998 -0.5526 -0.5365
   61MOL0     C 8115   8.022   7.031   1.934 -0.4297  0.3770 -0.0609
   61MOL0     C 8116   7.947   7.151   1.885 -0.7412 -0.0137 -0.7881
   61MOL0     N 8117   7.808   7.113   1.863  0.5573  0.5834 -0.3435
   61MOL0     C 8118   7.701   7.130   1.949  0.7646  0.1187 -0.4029
   61MOL0     C 8119   7.586   7.087   1.881 -0.2945 -0.4385  0.5170
   61MOL0     C 8120   7.448   7.076   1.951 -0.5786 -0.1871  0.3755
   61MOL0     C 8121   7.356   7.175   1.881  0.5253 -0.4147  0.0355
   61MOL0     C 8122   7.212   7.124   1.889  0.0117 -0.3998  0.8353
   61MOL0     C 8123   7.115   7.229   1.849  0.4521  0.3813 -0.0592
   61MOL0     O 8124   6.987   7.178   1.831  0.4936 -0.4310 -0.6054
   61MOL0     C 8125   6.907   7.229   1.734 -0.4900  0.0950  0.6054
   61MOL0     C 8126   6.809   7.149   1.677 -0.1291  1.0509  0.0573
   61MOL0     C 8127   6.726   7.180   1.567  0.7785 -0.1182 -0.4266
   61MOL0     C 8128   6.637   7.067   1.515 -0.2642  0.5477  0.7430
   61MOL0     C 8129   6.737   7.313   1.505  0.2678  0.2026 -0.8857
   61MOL0     C 8130   6.649   7.361   1.391 -0.7108  0.1250  0.7414
   61MOL0     O 8131   6.663   7.500   1.363  0.2027 -0.1413  0.3482
   61MOL0     C 8132   6.561   7.560   1.300  0.7074 -0.4991  0.1912
   61MOL0     C 8133   6.597   7.665   1.213  0.1990 -0.2098 -0.4848
   61MOL0     C 8134   6.504   7.746   1.141 -0.1205 -0.3172 -0.0346
   61MOL0     C 8135   6.368   7.729   1.175 -0.3080 -0.1269  0.0707
   61MOL0     O 8136   6.264   7.810   1.137  0.3637  0.0858 -1.0383
   61MOL0     C 8137   6.284   7.929   1.058  0.0970 -0.6275  0.3586
   61MOL0     C 8138   6.152   7.980   1.018 -0.0090 -0.5480 -0.0626
   61MOL0     C 8139   6.173   8.115   0.939  0.1916 -0.1724  0.2635
   61MOL0     C 8140   6.030   8.154   0.880 -0.3044  0.0528 -0.7096
   61MOL0     C 8141   6.020   8.292   0.806 -0.4202  0.6764  0.2617
   61MOL0     C 8142   5.910   8.323   0.708  0.0395  0.1775  0.1688
   61MOL0     C 8143   5.771   8.346   0.768 -0.6768  0.2008  0.3511
   61MOL0     C 8144   5.665   8.242   0.761 -0.4703 -0.2737  0.1361
   61MOL0    Cl 8145   5.587   8.209   0.606  0.2871  0.5339  0.0590
   61MOL0     C 8146   6.331   7.626   1.255 -0.2360 -0.1735 -0.3405
   61MOL0     C 8147   6.421   7.541   1.321 -0.5038 -0.2314 -0.3478
   61MOL0     O 8148   6.582   7.275   1.334 -0.1118  0.0926  0.5446
   61MOL0     C 8149   6.830   7.411   1.569 -0.1398  0.0358 -0.5617
   61MOL0     C 8150   6.914   7.365   1.679  0.0411 -0.2912 -0.1679
   61MOL0     N 8151   7.628   7.055   1.751 -0.3866  0.2117 -0.2869
   61MOL0     N 8152   7.758   7.078   1.745  0.1813 -0.1661  0.1499
   61MOL0     C 8153   8.878   6.579   2.095 -0.8603  0.3820  0.7844
   61MOL0     C 8154   8.956   6.463   2.090  0.9505  0.5459  0.7001
   61MOL0     C 8155   9.183   6.120   2.247  0.0007  0.6303  0.5062
   61MOL0     C 8156   9.287   6.118   2.339  0.5775  0.4578 -0.1167
   61MOL0     C 8157   9.374   6.011   2.346  0.3929 -0.5725 -0.7887
   61MOL0     C 8158   9.358   5.895   2.266 -0.0233  0.1830  0.8246
   61MOL0     O 8159   9.448   5.787   2.268  0.0185 -0.3011  0.1878
   61MOL0     C 8160   9.578   5.817   2.326 -0.4004  0.3955  0.9595
   61MOL0     C 8161   9.579   5.753   2.464  0.7435 -0.5086  0.5832
   61MOL0     C 8162   9.589   5.597   2.455  0.7072  0.0400 -0.1806
   61MOL0     C 8163   9.647   5.533   2.579  0.1373 -0.6351  0.3118
   61MOL0     C 8164   9.680   5.393   2.552 -0.2945 -0.3593 -0.3629
   61MOL0     C 8165   9.715   5.275   2.546  0.2573 -0.8700 -0.0491
   61MOL0     C 8166   9.253   5.901   2.171 -0.6986  0.7590 -0.0329
   61MOL0     C 8167   9.161   6.009   2.169  0.1893 -0.2359  0.7568
   61MOL0     H 8168   8.741   6.260   2.273 -0.3203  0.1697  0.8739
   61MOL0     H 8169   8.618   6.467   2.281  0.0643  3.4439  0.2081
   61MOL0     H 8170   8.801   6.826   2.053 -0.7842  1.8317 -3.1948
   61MOL0     H 8171   8.667   6.756   1.958 -2.4142  3.4086 -0.5264
   61MOL0     H 8172   8.648   6.936   2.195  1.2439  0.9974 -0.1266
   61MOL0     H 8173   8.641   6.997   2.034 -0.7678  1.3735  0.2039
   61MOL0     H 8174   8.455   6.842   1.982  0.5716 -1.5858  1.0798
   61MOL0     H 8175   8.443   6.805   2.147 -0.8253 -0.1321 -1.0061
   61MOL0     H 8176   8.371   7.039   2.203  0.0896 -0.0811  0.0529
   61MOL0     H 8177   8.408   7.086   2.045 -0.1771  1.3353  0.1523
   61MOL0     H 8178   8.222   6.855   2.009 -2.1890 -0.8754  1.7881
   61MOL0     H 8179   8.167   6.948   2.151 -2.0308 -2.9031 -1.9495
   61MOL0     H 8180   8.167   7.154   2.030  3.0163 -1.0603  0.4055
   61MOL0     H 8181   8.236   7.075   1.888  0.2876 -0.7984 -1.2421
   61MOL0     H 8182   8.004   6.947   1.866 -2.2080 -1.7671  2.8455
   61MOL0     H 8183   7.980   6.995   2.028  1.5098  2.5056  1.7416
   61MOL0     H 8184   7.998   7.184   1.795  0.8935 -2.5281 -0.8897
   61MOL0     H 8185   7.944   7.233   1.957  2.8301 -1.5662  1.3832
   61MOL0     H 8186   7.705   7.146   2.057  0.8952 -1.8075 -0.0919
   61MOL0     H 8187   7.410   6.975   1.936  1.5614 -1.1423  1.0340
   61MOL0     H 8188   7.445   7.095   2.059 -0.4692  0.1288  0.3246
   61MOL0     H 8189   7.392   7.176   1.778 -0.6692  1.9308 -0.4120
   61MOL0     H 8190   7.365   7.277   1.919  1.4684  0.0786 -1.4229
   61MOL0     H 8191   7.185   7.092   1.990  0.5879 -1.5467  0.6480
   61MOL0     H 8192   7.196   7.041   1.819  1.5133 -0.2683  0.2922
   61MOL0     H 8193   7.144   7.266   1.750 -2.1940 -0.8773 -1.4018
   61MOL0     H 8194   7.115   7.312   1.921 -0.4422 -2.2718  3.2469
   61MOL0     H 8195   6.790   7.050   1.717  0.8753  0.6358 -0.4742
   61MOL0     H 8196   6.531   7.092   1.505 -0.5225 -1.0191 -0.9577
   61MOL0     H 8197   6.673   7.027   1.419 -0.2975 -0.4353  1.1222
   61MOL0     H 8198   6.647   6.987   1.589  2.1924  1.8574  1.9564
   61MOL0     H 8199   6.701   7.692   1.196  1.2118 -2.6615  1.2435
   61MOL0     H 8200   6.523   7.826   1.069 -0.1099 -0.9614 -0.7597
   61MOL0     H 8201   6.326   8.012   1.116 -2.0673  0.9283 -0.1611
   61MOL0     H 8202   6.341   7.914   0.965  1.3228 -0.9710  1.1413
   61MOL0     H 8203   6.095   7.907   0.960 -0.4487 -0.6897  0.5395
   61MOL0     H 8204   6.092   8.005   1.106  0.9478  0.4569  0.3351
   61MOL0     H 8205   6.234   8.093   0.851  0.1050  0.0531  0.1452
   61MOL0     H 8206   6.201   8.191   1.012 -0.4190  2.1132 -1.7359
   61MOL0     H 8207   6.003   8.088   0.797  0.4861  0.2568 -1.1444
   61MOL0     H 8208   5.954   8.153   0.958  0.5568  3.7059  0.3302
   61MOL0     H 8209   6.118   8.297   0.758 -0.0975  0.1997  0.8625
   61MOL0     H 8210   6.008   8.371   0.882 -4.0838 -0.1012  0.6975
   61MOL0     H 8211   5.932   8.400   0.634  3.7391 -0.5534  0.3142
   61MOL0     H 8212   5.904   8.236   0.643  0.8548  0.9481 -0.9665
   61MOL0     H 8213   5.736   8.442   0.729 -2.9855 -0.9663 -0.5824
   61MOL0     H 8214   5.768   8.373   0.874  3.3549  0.9224  0.4576
   61MOL0     H 8215   5.584   8.282   0.822 -0.1535  3.2963 -1.4902
   61MOL0     H 8216   5.712   8.152   0.800 -1.7199 -1.1731 -0.3836
   61MOL0     H 8217   6.225   7.605   1.260 -0.0256 -0.9710  2.8805
   61MOL0     H 8218   6.398   7.463   1.393  1.8226 -1.0836 -0.4438
   61MOL0     H 8219   6.840   7.515   1.540 -0.0381  0.8120  2.0504
   61MOL0     H 8220   6.996   7.419   1.724 -1.0501 -0.7194  2.5086
   61MOL0     H 8221   8.931   6.659   2.045  4.5308 -3.3716 -0.3593
   61MOL0     H 8222   9.047   6.460   2.030  0.6816 -2.4242  0.2846
   61MOL0     H 8223   9.274   6.198   2.411 -1.1940 -0.1141  0.2400
   61MOL0     H 8224   9.428   6.008   2.440 -1.8758 -0.4748  0.5925
   61MOL0     H 8225   9.658   5.775   2.264 -0.9763  0.7757 -0.0519
   61MOL0     H 8226   9.595   5.924   2.341  0.5908  0.1451  1.7816
   61MOL0     H 8227   9.496   5.785   2.527 -1.4546 -2.9619 -0.8427
   61MOL0     H 8228   9.675   5.790   2.503  1.7770  1.0576 -3.0182
   61MOL0     H 8229   9.647   5.568   2.367  0.6490 -0.1331 -0.1612
   61MOL0     H 8230   9.491   5.558   2.427  0.2786  0.2853  0.9318
   61MOL0     H 8231   9.579   5.542   2.664  1.7770  0.5972  1.5588
   61MOL0     H 8232   9.732   5.594   2.611 -1.5164  1.2420  1.4261
   61MOL0     H 8233   9.749   5.174   2.550  0.9768 -0.6353 -0.1575
   61MOL0     H 8234   9.231   5.814   2.110  1.8761 -1.3085  1.7310
   61MOL0     H 8235   9.075   6.012   2.103 -0.1458 -1.3346  1.1277
   62MOL0     O 8236   8.004   5.833   8.459  1.0592  0.3073  0.1538
   62MOL0     C 8237   8.060   5.813   8.565  0.7504 -0.2238 -0.1136
   62MOL0     O 8238   8.003   5.822   8.685 -0.4745 -0.8895 -0.2071
   62MOL0     C 8239   7.875   5.857   8.700 -0.4681 -0.1307 -0.7953
   62MOL0     C 8240   7.840   5.929   8.816  1.2383  0.4627 -0.3293
   62MOL0     C 8241   7.708   5.948   8.866  0.7676  0.3389 -0.1188
   62MOL0     C 8242   7.603   5.922   8.785  0.1307  0.0754 -0.3497
   62MOL0     O 8243   7.479   5.953   8.830 -0.6428  0.5314 -0.4568
   62MOL0     C 8244   7.371   5.937   8.739 -0.2580 -0.4168 -0.0704
   62MOL0     C 8245   7.241   5.965   8.803  0.1272  0.3008  0.4270
   62MOL0     C 8246   7.129   5.934   8.705 -0.3868 -0.3327 -0.4329
   62MOL0     C 8247   7.095   5.783   8.694 -0.1145 -0.3732  0.6988
   62MOL0     C 8248   6.997   5.734   8.794  0.4014  0.6392  0.6505
   62MOL0     C 8249   6.858   5.782   8.780 -0.4591 -0.0904 -0.0245
   62MOL0     C 8250   6.752   5.702   8.863 -1.0134 -0.2305 -0.1025
   62MOL0     C 8251   6.605   5.729   8.827 -0.1980  0.8906 -0.9985
   62MOL0     N 8252   6.521   5.719   8.952 -0.4078  0.9819 -0.6452
   62MOL0     C 8253   6.531   5.625   9.040 -0.8398  0.3059 -0.7709
   62MOL0     C 8254   6.476   5.694   9.150 -0.0154  0.1185  0.4367
   62MOL0     C 8255   6.481   5.624   9.281 -0.5310  0.2977 -0.3339
   62MOL0     C 8256   6.369   5.521   9.298 -0.1419 -0.4402  0.2406
   62MOL0     C 8257   6.407   5.373   9.283 -0.0129  0.7744 -0.4739
   62MOL0     C 8258   6.297   5.293   9.350 -0.3839  0.3683 -0.0095
   62MOL0     O 8259   6.342   5.157   9.356  0.6015 -0.4193  0.4610
   62MOL0     C 8260   6.245   5.075   9.406  0.0364 -0.3077  0.3306
   62MOL0     C 8261   6.277   4.943   9.422  0.0696 -0.4096  0.3200
   62MOL0     C 8262   6.182   4.854   9.466 -0.0888 -0.1510 -0.8072
   62MOL0     C 8263   6.227   4.712   9.451  0.0436  0.4011 -0.5708
   62MOL0     C 8264   6.052   4.897   9.511  0.6078 -0.9656 -0.4094
   62MOL0     C 8265   5.948   4.809   9.575  0.1490 -0.3152 -0.7952
   62MOL0     O 8266   5.829   4.865   9.611  0.4957  0.0469  0.1169
   62MOL0     C 8267   5.721   4.793   9.653 -0.1662 -0.5529  0.5540
   62MOL0     C 8268   5.692   4.659   9.633 -0.0598 -0.2775 -0.6778
   62MOL0     C 8269   5.590   4.588   9.699  0.5249 -0.0703  0.3097
   62MOL0     C 8270   5.501   4.656   9.770 -0.4930  1.2805 -0.0097
   62MOL0     O 8271   5.397   4.588   9.839 -0.9758 -0.4486 -0.6386
   62MOL0     C 8272   5.263   4.620   9.804 -0.8469  0.1759 -1.2872
   62MOL0     C 8273   5.184   4.548   9.917 -0.2598 -0.4332 -0.3721
   62MOL0     C 8274   5.218   4.403   9.909  0.7167  0.1238  0.1361
   62MOL0     C 8275   5.143   4.330  10.019 -0.1319  0.1616  0.3336
   62MOL0     C 8276   4.984   4.308  10.008  0.2034 -0.4100  0.0080
   62MOL0     C 8277   4.945   4.279   9.868  0.9351  0.4932 -0.0729
   62MOL0     C 8278   4.796   4.238   9.858  0.0542  0.4148  0.1665
   62MOL0     C 8279   4.774   4.087   9.886 -0.1839  0.1621  0.6166
   62MOL0    Cl 8280   4.606   4.055   9.841 -0.0077  0.0567  0.3872
   62MOL0     C 8281   5.528   4.791   9.799  0.2169 -0.7217 -0.0963
   62MOL0     C 8282   5.631   4.858   9.735 -1.5099 -0.8343  0.4341
   62MOL0     O 8283   5.989   4.704   9.616  0.3522  0.4862 -0.0890
   62MOL0     C 8284   6.028   5.030   9.506 -0.4318  0.2969  0.6702
   62MOL0     C 8285   6.118   5.107   9.446  0.0278  0.2662 -0.3024
   62MOL0     N 8286   6.424   5.817   9.115  0.9590 -0.5338 -0.0091
   62MOL0     N 8287   6.447   5.829   8.991 -0.1018  0.2021 -0.0927
   62MOL0     C 8288   7.628   5.839   8.670  0.5580 -0.2997  0.2301
   62MOL0     C 8289   7.763   5.804   8.634 -0.9784  0.3223  0.6605
   62MOL0     C 8290   8.209   5.802   8.562  0.3830 -0.3057  0.7218
   62MOL0     C 8291   8.283   5.764   8.675  0.2300  0.3053 -0.0740
   62MOL0     C 8292   8.423   5.754   8.684 -0.2460  0.5992  0.0554
   62MOL0     C 8293   8.495   5.762   8.563 -0.2589  1.2309  0.0557
   62MOL0     O 8294   8.631   5.736   8.560  1.1961 -0.3201 -0.5407
   62MOL0     C 8295   8.691   5.698   8.439  0.4945  0.6627  1.0683
   62MOL0     C 8296   8.650   5.550   8.407  0.4471  0.4981 -0.2355
   62MOL0     C 8297   8.694   5.453   8.504  0.6899 -0.1612 -0.2365
   62MOL0     C 8298   8.636   5.318   8.478  0.7453 -0.3636 -0.0362
   62MOL0     C 8299   8.688   5.219   8.574  0.5752  0.4226  0.0130
   62MOL0     C 8300   8.736   5.126   8.649 -0.7469 -0.5941 -0.4671
   62MOL0     C 8301   8.421   5.794   8.441 -0.0522  0.9262 -0.5455
   62MOL0     C 8302   8.283   5.814   8.444  0.6822  0.5130  0.3540
   62MOL0     H 8303   7.910   5.960   8.893 -0.7403  0.6283  1.5105
   62MOL0     H 8304   7.697   6.004   8.958  0.1088  0.2962 -0.1694
   62MOL0     H 8305   7.382   6.000   8.651  1.2184  3.2066  2.4513
   62MOL0     H 8306   7.369   5.832   8.708 -1.2770 -0.7849  1.1334
   62MOL0     H 8307   7.237   5.895   8.887 -1.8540 -1.5822 -1.1269
   62MOL0     H 8308   7.236   6.071   8.829 -1.8612  0.4577 -0.4775
   62MOL0     H 8309   7.034   5.984   8.723 -0.9774 -1.6553  0.2216
   62MOL0     H 8310   7.167   5.972   8.609 -2.6235  1.6537 -0.6139
   62MOL0     H 8311   7.059   5.749   8.596  1.9348 -2.0887  0.4807
   62MOL0     H 8312   7.177   5.712   8.704 -0.4888 -0.7133  1.3904
   62MOL0     H 8313   6.979   5.627   8.787 -0.1692  0.5925  2.5081
   62MOL0     H 8314   7.030   5.744   8.898  1.3055 -1.6161  0.6439
   62MOL0     H 8315   6.856   5.882   8.825  0.0047  0.1072 -0.4285
   62MOL0     H 8316   6.827   5.787   8.676  4.0725  0.2264 -1.5898
   62MOL0     H 8317   6.765   5.593   8.868  0.1061 -0.0470  1.9250
   62MOL0     H 8318   6.768   5.735   8.966 -4.1926  1.8709 -0.1457
   62MOL0     H 8319   6.570   5.651   8.760 -1.7683 -0.2719  1.0618
   62MOL0     H 8320   6.597   5.828   8.780 -1.7644  1.7157  0.8094
   62MOL0     H 8321   6.577   5.526   9.041  0.7191  0.9362 -2.7708
   62MOL0     H 8322   6.584   5.589   9.285 -1.0244 -2.2774 -4.4201
   62MOL0     H 8323   6.456   5.692   9.363  1.9551 -0.6092  1.2726
   62MOL0     H 8324   6.296   5.541   9.219  0.2596 -1.3172 -0.3781
   62MOL0     H 8325   6.309   5.544   9.387 -0.1457  1.3629 -0.1851
   62MOL0     H 8326   6.502   5.370   9.337  1.1230 -2.0687 -2.3397
   62MOL0     H 8327   6.420   5.339   9.179 -1.8038  2.0815 -1.1668
   62MOL0     H 8328   6.209   5.306   9.287  0.4967 -0.2937 -1.4097
   62MOL0     H 8329   6.295   5.336   9.451  0.6813  2.5524 -0.8583
   62MOL0     H 8330   6.376   4.906   9.400  0.0161 -0.0172 -0.6415
   62MOL0     H 8331   6.289   4.702   9.362 -0.0716 -0.7389 -0.5296
   62MOL0     H 8332   6.290   4.680   9.535  0.2141  2.7415  0.2909
   62MOL0     H 8333   6.143   4.643   9.441 -0.0117  0.2605  0.6944
   62MOL0     H 8334   5.756   4.595   9.573 -0.5992  0.8663 -2.5906
   62MOL0     H 8335   5.581   4.481   9.682  1.7162  0.0819 -1.5011
   62MOL0     H 8336   5.252   4.729   9.803  2.9955  0.6811 -2.2048
   62MOL0     H 8337   5.243   4.573   9.707  0.9353 -0.8680 -1.1944
   62MOL0     H 8338   5.217   4.590  10.013 -2.7111  0.9177 -0.0530
   62MOL0     H 8339   5.076   4.551   9.900 -0.8698 -2.3508  2.4305
   62MOL0     H 8340   5.326   4.392   9.927  1.1138  1.5067 -1.1800
   62MOL0     H 8341   5.194   4.356   9.813  1.5630 -1.4108  0.6340
   62MOL0     H 8342   5.178   4.227  10.028  0.0807  0.3815  2.8167
   62MOL0     H 8343   5.176   4.384  10.108 -1.1318  0.1512  0.7201
   62MOL0     H 8344   4.928   4.399  10.027  1.1355 -0.4084  3.2599
   62MOL0     H 8345   4.961   4.237  10.088 -2.1944 -1.1876 -1.2778
   62MOL0     H 8346   4.964   4.367   9.806 -1.9808  0.2305 -1.4896
   62MOL0     H 8347   5.016   4.208   9.824  1.7995  1.3105 -0.0244
   62MOL0     H 8348   4.763   4.250   9.755 -1.3560  2.6106  0.8128
   62MOL0     H 8349   4.732   4.297   9.924  0.2486 -0.3264  1.0481
   62MOL0     H 8350   4.787   4.055   9.990  1.4393  1.0577  0.7123
   62MOL0     H 8351   4.834   4.018   9.826 -0.2225 -1.0331  1.9146
   62MOL0     H 8352   5.464   4.847   9.866  0.5957 -0.8691  0.3952
   62MOL0     H 8353   5.654   4.961   9.762  2.9117 -1.8942  1.4826
   62MOL0     H 8354   5.943   5.077   9.556 -0.1189  0.3942  1.1207
   62MOL0     H 8355   6.083   5.209   9.440  1.4852  0.9864  2.1074
   62MOL0     H 8356   7.546   5.798   8.612  0.5564 -0.8064  0.5888
   62MOL0     H 8357   7.781   5.724   8.563  3.0409  2.2442 -0.8142
   62MOL0     H 8358   8.224   5.765   8.767  0.6256  1.9540  0.2064
   62MOL0     H 8359   8.470   5.736   8.780 -2.2270  0.0707  0.9764
   62MOL0     H 8360   8.675   5.773   8.360  2.3604 -1.8106 -1.8547
   62MOL0     H 8361   8.799   5.704   8.458  0.2611  0.6671  2.5651
   62MOL0     H 8362   8.685   5.519   8.308 -2.8479 -0.4464 -1.2446
   62MOL0     H 8363   8.541   5.539   8.409  0.5624 -0.8557 -0.4409
   62MOL0     H 8364   8.655   5.497   8.596  0.3702  2.3273 -1.4827
   62MOL0     H 8365   8.802   5.434   8.495  0.2971 -3.0503  0.1188
   62MOL0     H 8366   8.664   5.288   8.376  1.1025  2.4540 -0.8708
   62MOL0     H 8367   8.528   5.324   8.494  0.5361 -0.3489 -1.2913
   62MOL0     H 8368   8.756   5.036   8.702  1.4913 -1.2031 -2.2102
   62MOL0     H 8369   8.473   5.811   8.347  1.2795  0.4598  0.0908
   62MOL0     H 8370   8.239   5.837   8.347  1.3724  3.3211  0.6048
   63MOL0     O 8371   8.334   3.948   8.371 -0.6959 -1.0274 -0.1541
   63MOL0     C 8372   8.273   4.055   8.381 -0.4201  0.9534  0.4693
   63MOL0     O 8373   8.132   4.061   8.370  0.2754 -0.6318  0.0854
   63MOL0     C 8374   8.047   3.970   8.308 -0.5491 -0.1807 -0.7761
   63MOL0     C 8375   7.916   3.970   8.345  0.3022  0.3611 -0.4329
   63MOL0     C 8376   7.824   3.889   8.289 -0.3298  0.2013 -0.4091
   63MOL0     C 8377   7.859   3.802   8.182 -0.4206 -1.0120 -0.4718
   63MOL0     O 8378   7.763   3.723   8.128 -0.5841 -0.9038  0.0295
   63MOL0     C 8379   7.798   3.618   8.040  0.1479 -1.0332  0.5209
   63MOL0     C 8380   7.665   3.538   8.021  1.0258  0.0618  0.9031
   63MOL0     C 8381   7.670   3.427   7.914  0.2078  0.1944 -0.6605
   63MOL0     C 8382   7.544   3.334   7.902  0.6409  1.1136 -0.2131
   63MOL0     C 8383   7.400   3.401   7.894 -0.7046  0.7664 -0.0566
   63MOL0     C 8384   7.392   3.515   7.786  0.8076  0.1271  0.8329
   63MOL0     C 8385   7.426   3.465   7.641 -0.1393  0.4602  0.6838
   63MOL0     C 8386   7.379   3.568   7.533  1.3911  0.0590  0.3468
   63MOL0     N 8387   7.236   3.549   7.505  0.7102  0.6064  0.9326
   63MOL0     C 8388   7.178   3.472   7.401  0.3512 -0.5442 -0.6967
   63MOL0     C 8389   7.043   3.488   7.422 -0.3804 -0.2260  0.8531
   63MOL0     C 8390   6.940   3.403   7.357 -0.4349  0.1040  0.0906
   63MOL0     C 8391   6.848   3.483   7.266  0.9411 -0.0631  0.1302
   63MOL0     C 8392   6.790   3.382   7.164 -0.4581  0.4767 -0.6694
   63MOL0     C 8393   6.654   3.425   7.117 -1.0524  0.5261  0.2701
   63MOL0     O 8394   6.583   3.312   7.069  0.6542 -1.3305  0.0321
   63MOL0     C 8395   6.460   3.339   7.012 -0.0170  0.5115  0.0376
   63MOL0     C 8396   6.404   3.469   6.989 -0.0263 -0.0302  0.0992
   63MOL0     C 8397   6.276   3.487   6.940  0.7712 -0.3636 -0.3441
   63MOL0     C 8398   6.226   3.621   6.904  0.4423 -1.1950  0.0069
   63MOL0     C 8399   6.200   3.365   6.914  0.6346 -0.4176 -0.2216
   63MOL0     C 8400   6.068   3.364   6.837  0.4959 -0.1732  0.3649
   63MOL0     O 8401   6.031   3.240   6.790  0.4862  0.8551 -0.1718
   63MOL0     C 8402   5.898   3.216   6.751  0.7508 -0.6235 -0.6784
   63MOL0     C 8403   5.844   3.295   6.647  0.4762  0.7363  0.0059
   63MOL0     C 8404   5.710   3.281   6.617  0.4389  0.5347  0.1126
   63MOL0     C 8405   5.626   3.197   6.690 -0.0528 -0.8400  0.2130
   63MOL0     O 8406   5.493   3.195   6.653 -0.5312 -0.0369 -0.4550
   63MOL0     C 8407   5.391   3.153   6.748 -0.0652 -1.0448 -0.6260
   63MOL0     C 8408   5.264   3.229   6.696 -1.0073  0.1201 -0.0660
   63MOL0     C 8409   5.217   3.192   6.554 -0.4871 -0.7023 -0.4420
   63MOL0     C 8410   5.110   3.294   6.499 -0.5549 -0.7076  0.3378
   63MOL0     C 8411   5.040   3.258   6.369  0.0529  0.3520  0.5029
   63MOL0     C 8412   4.965   3.373   6.294 -0.4301 -0.1820 -0.4693
   63MOL0     C 8413   4.854   3.308   6.203  0.0131 -0.5356  0.4355
   63MOL0     C 8414   4.747   3.261   6.290 -0.1865 -0.5261 -0.6391
   63MOL0    Cl 8415   4.591   3.244   6.205  0.4231 -0.5446 -0.1436
   63MOL0     C 8416   5.677   3.120   6.785  0.2647  0.5904  0.6353
   63MOL0     C 8417   5.814   3.123   6.816 -0.2699 -0.0883  0.3072
   63MOL0     O 8418   5.997   3.465   6.828  0.7624  0.3202  0.0173
   63MOL0     C 8419   6.253   3.243   6.949 -0.2606 -0.8584  0.0728
   63MOL0     C 8420   6.374   3.225   7.001 -1.1274 -0.8898  0.0193
   63MOL0     N 8421   7.018   3.575   7.519  0.2725  0.5506 -0.6512
   63MOL0     N 8422   7.129   3.613   7.572  0.4935  0.2695 -0.1251
   63MOL0     C 8423   7.995   3.801   8.145 -0.8791 -0.1203 -0.1754
   63MOL0     C 8424   8.089   3.882   8.207  0.4548 -0.2310  0.0879
   63MOL0     C 8425   8.355   4.178   8.392  1.0279  0.4927 -1.0052
   63MOL0     C 8426   8.304   4.303   8.359  0.4312  0.0863  0.3081
   63MOL0     C 8427   8.379   4.409   8.388 -0.2921  0.0009  0.2167
   63MOL0     C 8428   8.499   4.397   8.458  0.0909  0.5538  0.6223
   63MOL0     O 8429   8.571   4.509   8.484  0.5343  0.3049  0.2181
   63MOL0     C 8430   8.547   4.578   8.615  0.3461 -0.2828 -0.5557
   63MOL0     C 8431   8.575   4.495   8.737  0.0816  0.2577 -0.5203
   63MOL0     C 8432   8.555   4.570   8.869  0.5516 -0.2946 -0.7836
   63MOL0     C 8433   8.661   4.677   8.908  0.6093  0.0475 -0.7917
   63MOL0     C 8434   8.596   4.784   8.978 -0.5090  0.1481 -1.0154
   63MOL0     C 8435   8.536   4.885   9.003  0.5736  0.0027  0.4882
   63MOL0     C 8436   8.551   4.277   8.493  0.4084  0.5767  0.7130
   63MOL0     C 8437   8.475   4.165   8.464 -0.3790  0.3673  0.6383
   63MOL0     H 8438   7.889   4.036   8.426  2.4710 -1.2748  1.7569
   63MOL0     H 8439   7.718   3.877   8.309 -0.0295 -1.8384  0.1471
   63MOL0     H 8440   7.839   3.663   7.949  2.9468  0.9693  2.5956
   63MOL0     H 8441   7.869   3.546   8.081  0.0281 -0.3804  1.9390
   63MOL0     H 8442   7.638   3.487   8.114  0.8712  0.3729  1.0328
   63MOL0     H 8443   7.581   3.598   7.987 -0.2464 -2.4095 -0.5185
   63MOL0     H 8444   7.699   3.466   7.816  1.1970 -0.4517 -0.6443
   63MOL0     H 8445   7.745   3.352   7.943 -0.2939  0.2409  0.8305
   63MOL0     H 8446   7.560   3.261   7.822 -0.7241 -0.8402  1.2298
   63MOL0     H 8447   7.544   3.272   7.992 -0.1560 -2.2491 -2.3931
   63MOL0     H 8448   7.320   3.328   7.881  1.3770 -1.3227 -2.3467
   63MOL0     H 8449   7.384   3.443   7.994  0.5457  0.5218  0.2668
   63MOL0     H 8450   7.292   3.555   7.803  1.1230  2.6243 -2.2474
   63MOL0     H 8451   7.456   3.600   7.810  2.7764  0.2145 -3.6549
   63MOL0     H 8452   7.532   3.439   7.636 -0.2038  0.4335 -2.9983
   63MOL0     H 8453   7.376   3.371   7.615  0.8836  0.0831  0.0288
   63MOL0     H 8454   7.432   3.557   7.438  0.6853  1.8920 -0.3037
   63MOL0     H 8455   7.400   3.667   7.575  1.8364 -0.2688  0.9202
   63MOL0     H 8456   7.224   3.393   7.342 -0.6891 -0.2691 -1.9341
   63MOL0     H 8457   6.991   3.322   7.303  0.9002  1.1169 -0.2175
   63MOL0     H 8458   6.872   3.368   7.435 -0.3685 -1.0789 -0.3551
   63MOL0     H 8459   6.884   3.572   7.213 -3.3961  1.3916 -0.7855
   63MOL0     H 8460   6.761   3.516   7.323 -0.7984 -1.5141 -1.5266
   63MOL0     H 8461   6.768   3.285   7.210  0.6007 -0.4175 -1.9962
   63MOL0     H 8462   6.860   3.359   7.083 -1.8127 -1.9705 -1.2622
   63MOL0     H 8463   6.674   3.495   7.035  0.0626 -2.3025 -2.0636
   63MOL0     H 8464   6.594   3.473   7.195 -0.0998  0.0526  1.3321
   63MOL0     H 8465   6.463   3.556   7.017  0.8186 -1.4024  2.9691
   63MOL0     H 8466   6.197   3.626   6.799  0.6080  0.4678  0.0063
   63MOL0     H 8467   6.139   3.637   6.967  1.3706 -2.4621  1.7227
   63MOL0     H 8468   6.289   3.709   6.922 -0.6775 -1.0462  4.2529
   63MOL0     H 8469   5.914   3.360   6.596  0.4937  0.3489 -0.4733
   63MOL0     H 8470   5.663   3.332   6.534 -0.2057 -1.0413 -0.5289
   63MOL0     H 8471   5.366   3.047   6.737 -2.3996 -0.7419  1.0650
   63MOL0     H 8472   5.427   3.181   6.847  0.4800 -1.9003 -0.5718
   63MOL0     H 8473   5.191   3.205   6.774  0.3478  2.4376  2.0301
   63MOL0     H 8474   5.273   3.337   6.705  0.6935 -0.1082  1.8805
   63MOL0     H 8475   5.186   3.088   6.560  1.6914 -1.4627 -1.3314
   63MOL0     H 8476   5.301   3.181   6.484  0.0442 -3.8185  0.5527
   63MOL0     H 8477   5.035   3.312   6.577 -0.1367  0.6263  0.4608
   63MOL0     H 8478   5.161   3.388   6.475  1.2433 -2.0730 -1.5758
   63MOL0     H 8479   4.971   3.174   6.383 -1.2736  0.8535 -2.1897
   63MOL0     H 8480   5.115   3.222   6.297 -0.5966 -4.6521  1.9864
   63MOL0     H 8481   4.925   3.451   6.360  1.4481  1.3911 -1.1023
   63MOL0     H 8482   5.034   3.437   6.237  1.4134  1.2620  3.0629
   63MOL0     H 8483   4.898   3.230   6.140  1.0850  1.1796 -1.0217
   63MOL0     H 8484   4.809   3.380   6.133 -0.3432 -1.5701 -0.4381
   63MOL0     H 8485   4.727   3.339   6.365  0.4750 -1.3963  0.4682
   63MOL0     H 8486   4.767   3.163   6.332 -1.1252 -0.0059  1.1262
   63MOL0     H 8487   5.606   3.050   6.829  2.3119 -1.4604  0.8610
   63MOL0     H 8488   5.851   3.067   6.900  2.3063  0.4216 -0.4016
   63MOL0     H 8489   6.209   3.146   6.927 -1.6513 -1.0410  3.1340
   63MOL0     H 8490   6.412   3.128   7.033  2.0513  0.7312  1.6767
   63MOL0     H 8491   8.032   3.732   8.070  2.1991  2.6580 -1.4702
   63MOL0     H 8492   8.192   3.868   8.173  1.8554 -0.3620  3.8846
   63MOL0     H 8493   8.208   4.304   8.308  0.8341 -0.0508 -0.4709
   63MOL0     H 8494   8.354   4.511   8.364  2.1967  0.4714 -0.6885
   63MOL0     H 8495   8.602   4.671   8.634 -2.4911  0.6362  5.6713
   63MOL0     H 8496   8.441   4.601   8.623 -0.1452 -2.8414  1.1722
   63MOL0     H 8497   8.680   4.467   8.740  1.1808  3.8987  2.0768
   63MOL0     H 8498   8.507   4.410   8.720  2.5416 -1.3082 -3.4467
   63MOL0     H 8499   8.549   4.495   8.948 -3.2646 -1.6530 -2.1235
   63MOL0     H 8500   8.456   4.617   8.866 -0.3687 -2.1879 -1.9909
   63MOL0     H 8501   8.699   4.726   8.818 -0.6138  1.3014 -0.6551
   63MOL0     H 8502   8.752   4.631   8.948  0.2020 -0.4913 -0.4658
   63MOL0     H 8503   8.477   4.974   9.009 -0.2823 -0.0574 -3.8008
   63MOL0     H 8504   8.651   4.275   8.535  1.0657  0.8283 -0.8122
   63MOL0     H 8505   8.520   4.072   8.496 -2.6305 -0.6071  1.2122
   64MOL0     O 8506  11.210   8.272   3.897  0.0139 -0.1135 -0.2841
   64MOL0     C 8507  11.302   8.325   3.835 -0.4992  0.8181 -0.8426
   64MOL0     O 8508  11.324   8.455   3.838  0.0024  0.0099 -0.0055
   64MOL0     C 8509  11.253   8.552   3.909 -0.7272  0.4135 -0.6174
   64MOL0     C 8510  11.229   8.681   3.856 -0.1573 -0.0877  0.0342
   64MOL0     C 8511  11.142   8.769   3.921 -1.4149 -0.6119  0.0006
   64MOL0     C 8512  11.085   8.743   4.039  0.3042  0.0111 -0.1668
   64MOL0     O 8513  11.026   8.847   4.105 -0.6105 -0.7006  0.7666
   64MOL0     C 8514  10.967   8.826   4.230  0.5775 -0.4448 -0.9642
   64MOL0     C 8515  10.926   8.960   4.287 -0.3962  0.2345  0.3564
   64MOL0     C 8516  10.802   9.009   4.209  0.1255  0.5896  0.0374
   64MOL0     C 8517  10.788   9.167   4.210 -0.0441 -0.0427 -0.0011
   64MOL0     C 8518  10.634   9.218   4.193 -1.5620 -0.1684  0.0879
   64MOL0     C 8519  10.539   9.158   4.289 -0.0246  0.1983 -0.5414
   64MOL0     C 8520  10.412   9.235   4.309  0.2606 -0.3806  0.8031
   64MOL0     C 8521  10.327   9.176   4.415  1.2709  0.6850  0.5904
   64MOL0     N 8522  10.212   9.258   4.453 -0.0981 -0.1337  0.1145
   64MOL0     C 8523  10.219   9.378   4.522  0.8664  0.1266  0.5086
   64MOL0     C 8524  10.096   9.432   4.496 -0.6812  0.4842  0.0993
   64MOL0     C 8525  10.036   9.546   4.570 -0.5642  0.4588 -0.4073
   64MOL0     C 8526   9.936   9.484   4.673  1.1246 -0.6918  0.4676
   64MOL0     C 8527   9.983   9.395   4.783  0.2136  0.0944 -0.3983
   64MOL0     C 8528   9.894   9.410   4.909  0.2947  0.4140  0.5846
   64MOL0     O 8529   9.774   9.328   4.913  0.0382  0.1688  0.3701
   64MOL0     C 8530   9.672   9.346   5.001  0.7098  0.2907  0.5171
   64MOL0     C 8531   9.675   9.440   5.101  0.3632  0.0502  0.3293
   64MOL0     C 8532   9.573   9.447   5.199  0.3671 -1.0065 -1.0723
   64MOL0     C 8533   9.598   9.549   5.322 -0.8167 -0.5076  0.0264
   64MOL0     C 8534   9.468   9.352   5.189 -0.0485  0.6786  0.0566
   64MOL0     C 8535   9.363   9.326   5.291  0.3693 -0.4966 -0.5491
   64MOL0     O 8536   9.381   9.362   5.429 -0.2053 -0.0636 -0.2226
   64MOL0     C 8537   9.277   9.354   5.517 -0.3360 -0.6866 -0.6905
   64MOL0     C 8538   9.181   9.452   5.492  0.1694  0.5949  0.9691
   64MOL0     C 8539   9.067   9.454   5.569  0.2203  0.2140 -1.0947
   64MOL0     C 8540   9.039   9.365   5.673  0.6827  0.8959 -0.0624
   64MOL0     O 8541   8.913   9.362   5.728  0.8175 -0.3314  0.8297
   64MOL0     C 8542   8.905   9.280   5.847  0.6696 -0.7200 -0.0447
   64MOL0     C 8543   8.758   9.315   5.882  0.0629 -0.3395 -0.8970
   64MOL0     C 8544   8.733   9.275   6.029  0.2062 -0.1428  0.7820
   64MOL0     C 8545   8.585   9.251   6.065  0.3548 -0.0202  0.6018
   64MOL0     C 8546   8.582   9.233   6.217  0.2360 -0.2510  0.4661
   64MOL0     C 8547   8.441   9.222   6.279 -0.3449  0.1318  0.3375
   64MOL0     C 8548   8.454   9.238   6.419  0.0661  0.7142 -0.6497
   64MOL0     C 8549   8.321   9.247   6.490  0.8501  0.6346  0.5895
   64MOL0    Cl 8550   8.214   9.105   6.461 -0.0376  0.1681 -0.0296
   64MOL0     C 8551   9.143   9.276   5.708 -0.2635  0.3360  0.4864
   64MOL0     C 8552   9.264   9.287   5.638 -0.0377 -0.0513  0.1158
   64MOL0     O 8553   9.257   9.276   5.245 -0.3788  0.4710  0.3208
   64MOL0     C 8554   9.462   9.272   5.075 -0.0312 -0.3816 -0.5108
   64MOL0     C 8555   9.562   9.258   4.985 -0.7754  0.2177 -0.1459
   64MOL0     N 8556  10.023   9.360   4.403 -0.2267 -0.4122  0.0249
   64MOL0     N 8557  10.106   9.266   4.373  0.3133  0.0038  0.3515
   64MOL0     C 8558  11.104   8.615   4.090  0.0008 -0.2619 -0.1219
   64MOL0     C 8559  11.184   8.525   4.033  0.3805 -0.0025  0.1215
   64MOL0     C 8560  11.395   8.236   3.764  0.1215 -0.6607  0.1506
   64MOL0     C 8561  11.380   8.093   3.774 -0.2196 -0.0182  0.1221
   64MOL0     C 8562  11.466   8.013   3.707  0.2625  0.5330 -0.0645
   64MOL0     C 8563  11.571   8.070   3.628 -0.7841  0.5002  0.0524
   64MOL0     O 8564  11.655   7.982   3.559  0.0090 -0.2467  0.8125
   64MOL0     C 8565  11.752   8.045   3.476 -0.6530  1.0533 -0.1970
   64MOL0     C 8566  11.845   7.938   3.409  0.1009 -0.5578  0.0763
   64MOL0     C 8567  11.770   7.827   3.334  0.0591  0.4382  0.3541
   64MOL0     C 8568  11.718   7.722   3.433 -0.0550  0.8047 -0.0901
   64MOL0     C 8569  11.687   7.589   3.367  0.8362  0.0628 -0.8525
   64MOL0     C 8570  11.674   7.469   3.348  0.3510 -0.0624 -0.0609
   64MOL0     C 8571  11.576   8.206   3.608  0.3752 -1.2141  0.4232
   64MOL0     C 8572  11.494   8.293   3.683  0.5374  0.3393  0.2429
   64MOL0     H 8573  11.290   8.702   3.769 -3.0749 -0.8748 -2.4063
   64MOL0     H 8574  11.135   8.869   3.878  2.0389  0.0332  0.7197
   64MOL0     H 8575  10.876   8.766   4.220 -0.2201  0.2925  1.3146
   64MOL0     H 8576  11.042   8.785   4.297  2.7079  1.3893 -2.0902
   64MOL0     H 8577  10.906   8.946   4.394 -0.4900  1.2386  0.4763
   64MOL0     H 8578  11.013   9.025   4.280  0.9013 -1.3643  0.8813
   64MOL0     H 8579  10.810   8.982   4.103 -0.3168  0.0792  0.1305
   64MOL0     H 8580  10.718   8.964   4.262  2.7041 -2.4521  1.9671
   64MOL0     H 8581  10.843   9.228   4.282  0.5559  0.6295 -0.9991
   64MOL0     H 8582  10.837   9.207   4.120 -2.5831 -0.6089 -1.7395
   64MOL0     H 8583  10.628   9.327   4.205 -3.7431 -0.2721  0.3496
   64MOL0     H 8584  10.607   9.199   4.089 -0.5982  0.3065 -0.2580
   64MOL0     H 8585  10.520   9.052   4.271  0.8718  0.1616 -1.3134
   64MOL0     H 8586  10.591   9.155   4.385  0.0249  0.8210 -0.5447
   64MOL0     H 8587  10.446   9.333   4.343 -2.3728  0.7147  0.5207
   64MOL0     H 8588  10.358   9.240   4.214 -0.4931  1.6892  1.2767
   64MOL0     H 8589  10.389   9.154   4.502  1.8544 -1.8866 -0.3992
   64MOL0     H 8590  10.300   9.075   4.384  3.2587  0.5107 -0.7552
   64MOL0     H 8591  10.297   9.416   4.587 -0.1542  4.5701 -0.4792
   64MOL0     H 8592  10.119   9.595   4.622  1.8651 -1.9511 -1.7265
   64MOL0     H 8593   9.986   9.616   4.503  1.2704  1.1868 -1.0882
   64MOL0     H 8594   9.857   9.439   4.613  1.3767 -2.1042  1.1515
   64MOL0     H 8595   9.894   9.572   4.722 -4.3353 -0.8078 -3.1431
   64MOL0     H 8596  10.085   9.427   4.806  0.0936 -1.3367  2.5599
   64MOL0     H 8597   9.977   9.291   4.751  0.9942 -0.2059  0.3827
   64MOL0     H 8598   9.876   9.514   4.940 -0.8183 -0.1101  1.7315
   64MOL0     H 8599   9.952   9.365   4.990  3.0321 -1.3825 -2.1586
   64MOL0     H 8600   9.757   9.509   5.121 -1.4573  1.8064  2.2808
   64MOL0     H 8601   9.663   9.507   5.399 -2.6875 -3.0972  0.3188
   64MOL0     H 8602   9.627   9.645   5.279 -2.6435 -0.8124 -2.0872
   64MOL0     H 8603   9.509   9.578   5.377  0.1148  3.9957 -0.4952
   64MOL0     H 8604   9.175   9.522   5.409 -0.6925  1.2252  1.5441
   64MOL0     H 8605   8.998   9.529   5.532  0.5134  2.0055  1.6980
   64MOL0     H 8606   8.910   9.176   5.813  1.5222 -1.1144  1.2397
   64MOL0     H 8607   8.970   9.309   5.930 -0.7882  0.6742  0.6758
   64MOL0     H 8608   8.720   9.416   5.867  1.0089  0.4703  1.6820
   64MOL0     H 8609   8.695   9.242   5.830  1.9567 -2.1070 -0.8138
   64MOL0     H 8610   8.779   9.353   6.091 -0.2216 -0.1162  1.0688
   64MOL0     H 8611   8.783   9.179   6.047 -1.9329 -1.8566 -1.7520
   64MOL0     H 8612   8.515   9.331   6.038 -1.5815 -2.1183 -1.0200
   64MOL0     H 8613   8.552   9.159   6.016 -0.4422  0.5522  0.0346
   64MOL0     H 8614   8.631   9.317   6.266 -2.4141 -0.4252  3.8112
   64MOL0     H 8615   8.635   9.145   6.254  2.1063  0.8089  0.4306
   64MOL0     H 8616   8.392   9.313   6.243 -1.9377 -1.2931 -1.2829
   64MOL0     H 8617   8.390   9.130   6.247 -0.7426  0.4316  0.1039
   64MOL0     H 8618   8.506   9.331   6.440  0.5355  0.4224 -0.5022
   64MOL0     H 8619   8.507   9.150   6.457  0.3684  0.9536 -0.5167
   64MOL0     H 8620   8.266   9.337   6.464  0.5105  1.0575  2.5983
   64MOL0     H 8621   8.345   9.256   6.597 -0.4276 -0.3470  0.9843
   64MOL0     H 8622   9.130   9.199   5.783 -1.2846 -1.9234 -1.8623
   64MOL0     H 8623   9.337   9.213   5.670  0.1488  0.1671  0.1919
   64MOL0     H 8624   9.388   9.193   5.072 -1.8512  1.0718  2.0633
   64MOL0     H 8625   9.544   9.179   4.912 -1.0981 -2.4042  2.5455
   64MOL0     H 8626  11.070   8.567   4.181  0.0791 -1.3635 -0.6448
   64MOL0     H 8627  11.196   8.425   4.076 -1.6889 -0.9662 -1.3754
   64MOL0     H 8628  11.313   8.057   3.851 -0.2339 -0.4814 -0.1067
   64MOL0     H 8629  11.458   7.908   3.732 -1.4406  1.1679  2.5508
   64MOL0     H 8630  11.706   8.108   3.399  0.2954  0.9067 -0.9057
   64MOL0     H 8631  11.830   8.093   3.536  1.8970  0.1161 -2.5219
   64MOL0     H 8632  11.905   7.885   3.485  2.4655  0.0147 -1.2757
   64MOL0     H 8633  11.917   7.978   3.337  0.4006  0.1044  0.7203
   64MOL0     H 8634  11.828   7.777   3.256  0.7082  1.5355  0.1206
   64MOL0     H 8635  11.679   7.862   3.283 -0.5093 -2.6870 -1.0355
   64MOL0     H 8636  11.620   7.756   3.465 -1.2318 -2.8722  0.7040
   64MOL0     H 8637  11.785   7.698   3.516  1.1034  3.1898 -0.2342
   64MOL0     H 8638  11.675   7.364   3.325  0.0101 -0.2399  0.6799
   64MOL0     H 8639  11.634   8.267   3.539 -2.6070  0.3700 -0.8293
   64MOL0     H 8640  11.494   8.400   3.665  5.1831  0.4276 -0.4067
   65MOL0     O 8641   7.841   5.490   2.279 -0.0138 -1.1803  0.0410
   65MOL0     C 8642   7.791   5.411   2.199  0.5162 -1.1916  0.1809
   65MOL0     O 8643   7.811   5.292   2.182 -1.3512 -0.1563  0.3540
   65MOL0     C 8644   7.882   5.212   2.270 -0.4655 -0.7967 -0.2384
   65MOL0     C 8645   7.933   5.091   2.214  0.1727 -0.5998  0.8909
   65MOL0     C 8646   7.995   4.991   2.295 -0.5422  0.5075 -0.5836
   65MOL0     C 8647   8.032   5.018   2.430 -0.2378 -0.6337  0.0597
   65MOL0     O 8648   8.098   4.932   2.517  0.6205  0.0023  0.7739
   65MOL0     C 8649   8.121   4.797   2.469 -0.4483 -0.9800 -0.3475
   65MOL0     C 8650   8.179   4.713   2.588  0.3375 -0.5087 -0.1639
   65MOL0     C 8651   8.199   4.558   2.563 -0.8838 -0.2358  0.4106
   65MOL0     C 8652   8.278   4.489   2.668  0.2475  0.1090 -0.0698
   65MOL0     C 8653   8.362   4.366   2.634  0.0098  0.0997 -0.0166
   65MOL0     C 8654   8.292   4.261   2.539  0.1706 -0.1413  0.4124
   65MOL0     C 8655   8.358   4.127   2.548 -0.1205  0.2811  0.0121
   65MOL0     C 8656   8.285   4.024   2.463 -0.0477 -0.3652  0.6758
   65MOL0     N 8657   8.159   3.999   2.518 -0.3232  0.3165  0.3527
   65MOL0     C 8658   8.128   3.922   2.629 -0.2363  0.7855  0.5775
   65MOL0     C 8659   8.002   3.938   2.638 -0.2122  0.0629 -0.2828
   65MOL0     C 8660   7.919   3.876   2.753  0.4559  0.3729 -0.4292
   65MOL0     C 8661   7.823   3.976   2.821  0.3320  0.0855 -0.1444
   65MOL0     C 8662   7.724   3.916   2.924 -0.0444  0.8979 -0.6827
   65MOL0     C 8663   7.603   4.005   2.960 -0.6871  0.4899  0.2613
   65MOL0     O 8664   7.532   3.928   3.055 -0.5072  0.2779 -0.5267
   65MOL0     C 8665   7.418   3.857   3.013 -1.4084  0.8602  0.2415
   65MOL0     C 8666   7.392   3.753   3.099  0.1084  0.0712  0.0138
   65MOL0     C 8667   7.273   3.683   3.086 -0.2560 -0.4279 -0.4783
   65MOL0     C 8668   7.245   3.572   3.192 -0.5131  0.5000  0.1710
   65MOL0     C 8669   7.178   3.717   2.979  0.8062 -0.6669  0.2083
   65MOL0     C 8670   7.041   3.655   2.961  0.5462  0.9728  0.3765
   65MOL0     O 8671   6.993   3.569   3.065  0.0967  0.0569 -0.1889
   65MOL0     C 8672   6.866   3.529   3.050  0.1469 -2.2193 -0.1799
   65MOL0     C 8673   6.791   3.545   3.165  0.2305  0.1133  0.3026
   65MOL0     C 8674   6.665   3.490   3.181 -0.0272  0.3322 -0.1158
   65MOL0     C 8675   6.612   3.417   3.067  0.9112  0.3321 -0.2320
   65MOL0     O 8676   6.490   3.356   3.062 -0.5136  0.5691 -0.0397
   65MOL0     C 8677   6.443   3.277   3.174  0.7644 -0.0276 -0.3502
   65MOL0     C 8678   6.532   3.150   3.184 -0.2014  0.0171 -0.5529
   65MOL0     C 8679   6.490   3.056   3.294 -0.2090 -0.7659  0.2932
   65MOL0     C 8680   6.589   2.947   3.311  0.5458  0.9803  0.6635
   65MOL0     C 8681   6.710   2.991   3.393  0.1633 -0.5735 -0.3787
   65MOL0     C 8682   6.842   2.911   3.348  0.2751 -0.2650  0.6267
   65MOL0     C 8683   6.839   2.757   3.350 -0.2845  1.7352 -0.8448
   65MOL0     C 8684   6.979   2.703   3.388  0.6105 -0.7414  0.5018
   65MOL0    Cl 8685   6.986   2.691   3.572  0.3800  0.3346  0.2845
   65MOL0     C 8686   6.683   3.414   2.948  0.4634  0.2671 -0.9777
   65MOL0     C 8687   6.815   3.451   2.944  0.3177 -0.1698 -0.2366
   65MOL0     O 8688   6.972   3.686   2.864 -0.1063 -0.0022  0.7109
   65MOL0     C 8689   7.220   3.827   2.892  0.0346 -0.8141  0.2124
   65MOL0     C 8690   7.336   3.891   2.907  0.7381 -0.2543 -0.4633
   65MOL0     N 8691   7.945   3.993   2.534  0.5039  0.9399 -0.3286
   65MOL0     N 8692   8.038   4.041   2.459  0.5328 -0.2755  0.4127
   65MOL0     C 8693   8.010   5.147   2.476  0.7631 -0.5417  0.2096
   65MOL0     C 8694   7.930   5.246   2.400 -0.5296  0.5254 -0.1437
   65MOL0     C 8695   7.701   5.470   2.100 -0.4479 -0.3371 -0.2371
   65MOL0     C 8696   7.637   5.387   2.003  0.2759  0.8598 -0.0189
   65MOL0     C 8697   7.554   5.446   1.904  0.1449 -0.1873  0.3837
   65MOL0     C 8698   7.523   5.579   1.909  0.1523  0.8144  0.0554
   65MOL0     O 8699   7.413   5.615   1.837  0.7114 -0.1342 -0.5169
   65MOL0     C 8700   7.394   5.750   1.793  0.3599  0.5226 -0.3229
   65MOL0     C 8701   7.530   5.810   1.740 -0.3233  0.6283  1.2042
   65MOL0     C 8702   7.597   5.740   1.620  1.0878  0.0814 -0.1129
   65MOL0     C 8703   7.702   5.835   1.560  0.1847  0.0692  0.4834
   65MOL0     C 8704   7.745   5.783   1.431 -0.1517  0.0002  0.4586
   65MOL0     C 8705   7.767   5.725   1.326 -0.8076 -0.8977  0.8992
   65MOL0     C 8706   7.587   5.658   2.004  0.5467  0.6532  0.1332
   65MOL0     C 8707   7.672   5.609   2.097  0.4276 -0.4529 -0.0424
   65MOL0     H 8708   7.903   5.079   2.110  0.0400 -0.5068  0.9184
   65MOL0     H 8709   8.031   4.899   2.251 -1.4847 -1.3289  2.2202
   65MOL0     H 8710   8.029   4.762   2.422 -1.0715  0.1895 -0.0584
   65MOL0     H 8711   8.196   4.798   2.389 -0.2333 -0.2173 -0.1491
   65MOL0     H 8712   8.280   4.755   2.593  0.3926 -0.5978 -0.4673
   65MOL0     H 8713   8.126   4.727   2.682 -0.4328 -0.4491 -0.6027
   65MOL0     H 8714   8.095   4.523   2.561 -0.7828 -0.5040 -1.4167
   65MOL0     H 8715   8.244   4.541   2.465 -1.8999  2.2492 -0.5642
   65MOL0     H 8716   8.348   4.559   2.715 -0.7404  0.3113  1.1773
   65MOL0     H 8717   8.204   4.456   2.743 -0.9982  0.2895 -1.1770
   65MOL0     H 8718   8.458   4.400   2.593  0.8495 -0.6716  1.2450
   65MOL0     H 8719   8.384   4.324   2.732 -1.0311 -0.7379 -0.1261
   65MOL0     H 8720   8.192   4.241   2.577  0.8011 -1.2744  1.5455
   65MOL0     H 8721   8.289   4.305   2.439  1.1735 -1.6762 -0.3363
   65MOL0     H 8722   8.465   4.125   2.526  0.4146 -4.3284  1.9755
   65MOL0     H 8723   8.342   4.096   2.651  0.4708 -1.4561 -0.3915
   65MOL0     H 8724   8.342   3.931   2.473 -1.5639 -1.2221  1.8114
   65MOL0     H 8725   8.284   4.045   2.355  1.5486 -1.3031  0.4352
   65MOL0     H 8726   8.192   3.870   2.700  3.3157 -0.6441 -3.2504
   65MOL0     H 8727   7.863   3.788   2.720  2.8771 -2.4889  2.4309
   65MOL0     H 8728   7.987   3.832   2.827 -1.3772 -4.4422 -1.2534
   65MOL0     H 8729   7.763   4.011   2.735  0.2209 -2.4055 -1.1580
   65MOL0     H 8730   7.880   4.061   2.860 -0.7437  1.8892 -2.2239
   65MOL0     H 8731   7.775   3.886   3.016  1.4642 -2.1730 -2.3639
   65MOL0     H 8732   7.677   3.826   2.884 -0.4122  0.4940  0.6273
   65MOL0     H 8733   7.546   4.030   2.870 -0.6839  1.1683  0.4455
   65MOL0     H 8734   7.635   4.098   3.006 -3.8314  2.0673 -0.4740
   65MOL0     H 8735   7.457   3.741   3.185  0.5990  0.4937 -0.2930
   65MOL0     H 8736   7.192   3.613   3.278  0.9889  1.7956  0.5236
   65MOL0     H 8737   7.193   3.487   3.147 -2.0803 -0.8103  4.0265
   65MOL0     H 8738   7.339   3.528   3.225 -1.2775  0.0678  1.8827
   65MOL0     H 8739   6.826   3.604   3.248  0.8937  0.8696 -0.4941
   65MOL0     H 8740   6.609   3.500   3.273 -0.3446  2.9920 -0.5250
   65MOL0     H 8741   6.448   3.346   3.259  2.0338 -0.6179  0.0818
   65MOL0     H 8742   6.339   3.249   3.157  0.9104 -0.5951 -0.3318
   65MOL0     H 8743   6.537   3.101   3.086 -0.8736 -0.8542 -0.1686
   65MOL0     H 8744   6.638   3.173   3.198  0.1107 -1.8959  0.5367
   65MOL0     H 8745   6.394   3.015   3.259  0.4649  0.0211 -2.8053
   65MOL0     H 8746   6.473   3.113   3.385  0.5862  1.7385 -1.0417
   65MOL0     H 8747   6.552   2.858   3.363 -0.0209  0.9709  0.2507
   65MOL0     H 8748   6.610   2.920   3.208  2.4634  3.0994  0.4074
   65MOL0     H 8749   6.694   2.976   3.500  0.7015  0.7332 -0.1050
   65MOL0     H 8750   6.730   3.097   3.381 -2.8549  0.0962 -0.2609
   65MOL0     H 8751   6.880   2.951   3.254 -0.8450  1.0586  0.7113
   65MOL0     H 8752   6.928   2.938   3.411  1.7976  1.3825 -1.9913
   65MOL0     H 8753   6.810   2.722   3.250  2.0434 -1.3660 -0.5676
   65MOL0     H 8754   6.764   2.735   3.426  0.3716  4.1906  0.6396
   65MOL0     H 8755   7.047   2.781   3.354 -0.6017 -0.5880 -1.7405
   65MOL0     H 8756   6.993   2.610   3.332  1.3315  1.3703 -3.1083
   65MOL0     H 8757   6.640   3.358   2.865  0.7911 -0.3414 -0.7447
   65MOL0     H 8758   6.887   3.422   2.868  0.6374 -0.6717  0.2489
   65MOL0     H 8759   7.154   3.861   2.812  0.8567  2.6079  0.8374
   65MOL0     H 8760   7.363   3.966   2.833 -1.5953  0.4361 -0.6889
   65MOL0     H 8761   8.051   5.176   2.572 -0.7446  1.6170  0.2693
   65MOL0     H 8762   7.919   5.341   2.452  1.4029 -0.1309  1.6116
   65MOL0     H 8763   7.648   5.280   2.012  3.3554  1.1236  0.4543
   65MOL0     H 8764   7.487   5.393   1.837 -1.1238  2.9931 -1.0934
   65MOL0     H 8765   7.312   5.752   1.721 -0.2848 -1.3435  0.3119
   65MOL0     H 8766   7.367   5.821   1.872  2.7927  1.6029 -0.3700
   65MOL0     H 8767   7.613   5.819   1.810  0.3553  1.3194  0.3310
   65MOL0     H 8768   7.498   5.908   1.702 -0.1049 -1.4861 -5.7362
   65MOL0     H 8769   7.527   5.721   1.537 -1.7961  1.4260  1.8622
   65MOL0     H 8770   7.649   5.649   1.651  0.2794 -0.3003  0.1388
   65MOL0     H 8771   7.789   5.860   1.621  1.4371 -1.1041 -0.7362
   65MOL0     H 8772   7.653   5.931   1.545  1.3300  0.4642 -1.0031
   65MOL0     H 8773   7.799   5.682   1.234  0.5289 -2.5936  2.1038
   65MOL0     H 8774   7.561   5.760   2.032  0.0855  0.1603  1.5964
   65MOL0     H 8775   7.709   5.666   2.181  1.7542 -0.4507 -0.6022
   66MOL0     O 8776   7.535   2.977   2.579 -0.3390 -0.0647 -1.3591
   66MOL0     C 8777   7.437   2.959   2.510  0.2638 -0.6005  0.9829
   66MOL0     O 8778   7.383   3.049   2.430 -0.2380  0.5991 -1.1431
   66MOL0     C 8779   7.404   3.174   2.484  0.3126 -0.6674 -0.4310
   66MOL0     C 8780   7.305   3.232   2.575 -0.1152  0.1943  1.2751
   66MOL0     C 8781   7.313   3.363   2.632 -0.3768  0.6274  0.4940
   66MOL0     C 8782   7.432   3.434   2.604 -0.1383  0.5640 -0.3444
   66MOL0     O 8783   7.441   3.542   2.691 -0.2554  0.5222  1.0469
   66MOL0     C 8784   7.557   3.621   2.681 -0.6927  0.1826 -0.5346
   66MOL0     C 8785   7.581   3.700   2.551 -0.3662 -0.0061  0.3162
   66MOL0     C 8786   7.450   3.786   2.517 -0.6801  0.2151  1.2535
   66MOL0     C 8787   7.334   3.716   2.442  1.0561  0.8144 -0.4415
   66MOL0     C 8788   7.221   3.810   2.392 -0.3639  0.0204 -0.1172
   66MOL0     C 8789   7.153   3.883   2.503  0.7873 -0.4857 -0.4931
   66MOL0     C 8790   7.048   3.986   2.461  0.0972 -0.7564 -0.3339
   66MOL0     C 8791   6.906   3.928   2.460  0.2909 -0.4742 -0.6956
   66MOL0     N 8792   6.800   4.031   2.452 -0.3869  0.0640 -0.3890
   66MOL0     C 8793   6.780   4.136   2.372 -0.1963  0.9034  1.2437
   66MOL0     C 8794   6.648   4.175   2.398  0.0194 -0.0196  0.4657
   66MOL0     C 8795   6.587   4.301   2.350  0.3636  0.2851  0.4658
   66MOL0     C 8796   6.632   4.413   2.450  0.2303  0.4186 -0.3390
   66MOL0     C 8797   6.656   4.549   2.378 -0.2923  0.2004  0.2498
   66MOL0     C 8798   6.685   4.668   2.470  0.2384 -0.2320  0.5228
   66MOL0     O 8799   6.679   4.789   2.392  0.1740 -0.1503  0.7293
   66MOL0     C 8800   6.709   4.907   2.456 -0.2910  1.2630  1.4820
   66MOL0     C 8801   6.664   4.947   2.580 -0.0723 -0.5513  0.2228
   66MOL0     C 8802   6.686   5.071   2.637 -0.8812  0.9292  0.0214
   66MOL0     C 8803   6.642   5.113   2.775 -1.1951  0.3758  0.5544
   66MOL0     C 8804   6.770   5.164   2.566 -0.1720 -0.2789 -0.3250
   66MOL0     C 8805   6.795   5.303   2.606 -0.3195  0.6744  0.4285
   66MOL0     O 8806   6.922   5.350   2.593 -0.3104 -0.0825 -0.0471
   66MOL0     C 8807   6.957   5.478   2.634 -0.0879 -0.8516 -0.6663
   66MOL0     C 8808   6.893   5.557   2.731 -0.5510  0.0351 -0.0774
   66MOL0     C 8809   6.932   5.694   2.754 -0.7137  0.4997  0.2606
   66MOL0     C 8810   7.050   5.748   2.690  0.6480 -0.4126 -0.7964
   66MOL0     O 8811   7.102   5.872   2.715 -0.9489  0.4614  0.4033
   66MOL0     C 8812   7.019   5.975   2.749  0.1734  0.2359  0.0538
   66MOL0     C 8813   7.100   6.110   2.757  0.2627  0.2987 -0.7053
   66MOL0     C 8814   7.010   6.225   2.811 -0.4235  0.1851  0.6123
   66MOL0     C 8815   7.082   6.351   2.783 -0.4743 -0.2585  0.0584
   66MOL0     C 8816   7.013   6.476   2.821  0.5953  0.3493  0.7151
   66MOL0     C 8817   7.101   6.598   2.832 -0.1181  0.3282  0.3892
   66MOL0     C 8818   7.087   6.683   2.707 -0.1806 -0.1195  0.5627
   66MOL0     C 8819   7.185   6.804   2.703  0.5078  0.3551  0.4792
   66MOL0    Cl 8820   7.357   6.744   2.691  0.0631 -0.0751 -0.2075
   66MOL0     C 8821   7.114   5.665   2.595 -0.6717  0.1848 -1.2862
   66MOL0     C 8822   7.067   5.538   2.561  0.2321  0.1205  0.1174
   66MOL0     O 8823   6.689   5.360   2.616 -0.5768 -0.2220  0.0315
   66MOL0     C 8824   6.830   5.120   2.452 -0.3590 -0.0798  0.0045
   66MOL0     C 8825   6.801   4.991   2.388  0.2107 -0.4865  0.3328
   66MOL0     N 8826   6.596   4.102   2.506  0.8334  0.5878 -0.2877
   66MOL0     N 8827   6.689   4.016   2.529  0.5059 -0.1636 -0.0317
   66MOL0     C 8828   7.532   3.379   2.519 -0.3114  0.3778  0.2203
   66MOL0     C 8829   7.508   3.257   2.456  0.6984  0.5116 -0.0833
   66MOL0     C 8830   7.374   2.834   2.495 -0.0756  0.8183 -0.0535
   66MOL0     C 8831   7.424   2.730   2.571 -0.1624  1.1046  0.6634
   66MOL0     C 8832   7.364   2.606   2.582 -0.3073  0.6289 -0.7174
   66MOL0     C 8833   7.252   2.571   2.502 -0.5857 -0.9219 -0.0999
   66MOL0     O 8834   7.182   2.454   2.501  0.7337 -0.6457 -0.0057
   66MOL0     C 8835   7.261   2.330   2.518  0.5461 -0.1853 -0.1651
   66MOL0     C 8836   7.340   2.308   2.386 -0.3250 -0.2712  0.2943
   66MOL0     C 8837   7.465   2.206   2.400  0.7851 -0.0808  0.7475
   66MOL0     C 8838   7.586   2.290   2.389  0.2691  0.4855  0.0905
   66MOL0     C 8839   7.606   2.397   2.488 -0.6813 -0.4650 -0.1966
   66MOL0     C 8840   7.649   2.497   2.539  0.3435 -0.6985 -0.1318
   66MOL0     C 8841   7.207   2.668   2.418  0.1752 -0.4474  0.4012
   66MOL0     C 8842   7.261   2.798   2.413  1.1616  0.8290 -0.4088
   66MOL0     H 8843   7.218   3.172   2.602  0.2065 -1.9385 -1.9403
   66MOL0     H 8844   7.238   3.396   2.703  2.5416  4.8116  1.9886
   66MOL0     H 8845   7.542   3.698   2.757 -2.7395 -0.9245  0.2806
   66MOL0     H 8846   7.647   3.563   2.705 -1.7094 -1.8595 -1.4057
   66MOL0     H 8847   7.661   3.774   2.547 -0.1491 -0.1820 -4.7472
   66MOL0     H 8848   7.598   3.626   2.472  0.7113  0.4592  0.0979
   66MOL0     H 8849   7.414   3.813   2.617 -1.0155 -0.9694  1.4756
   66MOL0     H 8850   7.470   3.875   2.457 -3.3145  1.5104  2.1280
   66MOL0     H 8851   7.370   3.641   2.370  0.3364 -0.7567  0.7605
   66MOL0     H 8852   7.276   3.659   2.515 -2.6904  2.0745 -2.1915
   66MOL0     H 8853   7.255   3.873   2.309  0.0843 -0.0921 -0.0254
   66MOL0     H 8854   7.149   3.745   2.343 -0.8247  0.0947  0.4535
   66MOL0     H 8855   7.116   3.812   2.578 -1.3020  0.6961 -0.3322
   66MOL0     H 8856   7.232   3.939   2.552  0.0008  1.4595 -1.3517
   66MOL0     H 8857   7.049   4.060   2.542 -0.3088 -1.8004  0.6510
   66MOL0     H 8858   7.075   4.028   2.364  1.1857 -0.6323  0.0131
   66MOL0     H 8859   6.903   3.867   2.551  2.3338  0.3428 -0.0207
   66MOL0     H 8860   6.897   3.859   2.375 -0.2620 -0.9359 -0.2759
   66MOL0     H 8861   6.840   4.183   2.294  2.7900 -1.8668  1.6391
   66MOL0     H 8862   6.620   4.333   2.250 -2.1714 -0.3918 -0.6789
   66MOL0     H 8863   6.478   4.292   2.336  0.1143  1.2897  1.6288
   66MOL0     H 8864   6.725   4.393   2.504  0.5466  2.6382  0.0086
   66MOL0     H 8865   6.551   4.422   2.524  0.4894 -3.1337  0.5780
   66MOL0     H 8866   6.564   4.581   2.328 -0.8929  0.1390  1.2694
   66MOL0     H 8867   6.738   4.541   2.307 -0.5871 -0.0099 -0.0680
   66MOL0     H 8868   6.781   4.660   2.522 -0.7997  0.4129  2.6728
   66MOL0     H 8869   6.598   4.674   2.536  0.5849  1.4901  0.8676
   66MOL0     H 8870   6.599   4.870   2.620  0.4976 -1.3588 -0.3648
   66MOL0     H 8871   6.576   5.199   2.753  1.9032  2.4099 -1.6710
   66MOL0     H 8872   6.583   5.041   2.833  2.4174  0.2362  4.4564
   66MOL0     H 8873   6.723   5.146   2.839  0.1329  0.5178 -1.1273
   66MOL0     H 8874   6.816   5.510   2.793 -1.1250  0.9554 -0.0799
   66MOL0     H 8875   6.873   5.751   2.826  1.1198  2.0237  0.6278
   66MOL0     H 8876   6.933   5.976   2.681  0.2336  1.1361 -0.0239
   66MOL0     H 8877   6.974   5.955   2.847 -0.9432 -3.2995 -1.0267
   66MOL0     H 8878   7.189   6.091   2.817  0.3699  0.1374 -0.9145
   66MOL0     H 8879   7.127   6.147   2.658  1.2202  2.5189  0.3025
   66MOL0     H 8880   7.010   6.219   2.920 -0.8734  1.8900  0.7316
   66MOL0     H 8881   6.908   6.220   2.774  0.2596  0.3957 -1.4177
   66MOL0     H 8882   7.182   6.339   2.823 -1.6532 -0.3688  3.2311
   66MOL0     H 8883   7.093   6.348   2.674  4.2025  2.4945  0.1885
   66MOL0     H 8884   6.960   6.455   2.915  0.6036 -0.9393  0.4611
   66MOL0     H 8885   6.933   6.492   2.748  0.2259 -0.0668  1.0149
   66MOL0     H 8886   7.082   6.655   2.923  0.2662  1.2100 -0.0693
   66MOL0     H 8887   7.206   6.570   2.838 -0.9382 -3.3222  0.3905
   66MOL0     H 8888   6.990   6.734   2.704  0.2429  0.8164 -3.3749
   66MOL0     H 8889   7.088   6.620   2.617 -2.0140  0.5248  0.0404
   66MOL0     H 8890   7.165   6.868   2.789 -3.1151 -2.7545  2.2527
   66MOL0     H 8891   7.158   6.868   2.618 -1.4474 -0.8031  0.1681
   66MOL0     H 8892   7.204   5.707   2.552 -0.6389  1.8738  0.3126
   66MOL0     H 8893   7.122   5.475   2.492 -1.0246 -1.6552  0.6795
   66MOL0     H 8894   6.898   5.192   2.408 -2.1720  3.4661  2.5281
   66MOL0     H 8895   6.836   4.956   2.291 -1.1662 -0.1438 -0.3121
   66MOL0     H 8896   7.627   3.428   2.499 -0.0704 -0.4882 -0.8425
   66MOL0     H 8897   7.582   3.220   2.386 -0.2922  2.1516 -2.1117
   66MOL0     H 8898   7.516   2.746   2.626  2.7565 -1.2387 -3.0439
   66MOL0     H 8899   7.410   2.537   2.652  0.7319 -2.4104 -4.0970
   66MOL0     H 8900   7.321   2.329   2.609 -0.3536 -0.5295  0.4397
   66MOL0     H 8901   7.204   2.237   2.524 -0.8241  0.6661  0.3004
   66MOL0     H 8902   7.375   2.402   2.342  1.8110 -0.8602  0.6223
   66MOL0     H 8903   7.275   2.261   2.312  1.2488  1.0127 -2.0455
   66MOL0     H 8904   7.460   2.131   2.321  2.5119 -0.7456  1.2287
   66MOL0     H 8905   7.459   2.137   2.485  0.7481 -0.3688  0.5135
   66MOL0     H 8906   7.576   2.336   2.290 -1.2570  0.0024 -0.0069
   66MOL0     H 8907   7.672   2.223   2.380 -0.3559 -0.3490  0.1741
   66MOL0     H 8908   7.685   2.582   2.594 -1.7707  1.4870 -1.8647
   66MOL0     H 8909   7.135   2.644   2.340  1.6460  0.6084 -1.3637
   66MOL0     H 8910   7.218   2.876   2.351  2.5696  1.2157 -0.9358
   67MOL0     O 8911  10.288   4.477   1.988  0.8306 -0.1583  0.3760
   67MOL0     C 8912  10.345   4.523   1.888 -0.4929 -0.2300  0.3042
   67MOL0     O 8913  10.289   4.514   1.762 -0.4670  0.6505 -1.2829
   67MOL0     C 8914  10.165   4.461   1.740 -0.6529  0.8089 -0.2743
   67MOL0     C 8915  10.047   4.522   1.759  0.0842  0.0126  0.2702
   67MOL0     C 8916   9.929   4.454   1.727  0.4042 -0.0485  0.2258
   67MOL0     C 8917   9.928   4.321   1.684 -0.4956  0.0189  0.2111
   67MOL0     O 8918   9.824   4.242   1.648  0.2494  0.1622 -0.6162
   67MOL0     C 8919   9.693   4.287   1.684 -0.7750 -0.3615 -0.3296
   67MOL0     C 8920   9.584   4.185   1.627 -0.1860  0.5285 -0.1240
   67MOL0     C 8921   9.446   4.243   1.645  0.5465  0.2791  0.2839
   67MOL0     C 8922   9.345   4.156   1.562 -0.2611  0.5717  0.8275
   67MOL0     C 8923   9.197   4.205   1.589 -0.7817  0.2751  0.0341
   67MOL0     C 8924   9.103   4.131   1.495 -0.3841  0.1591  0.3461
   67MOL0     C 8925   8.958   4.175   1.495 -0.4706  1.1371  0.1475
   67MOL0     C 8926   8.886   4.129   1.622 -0.6400  0.1445 -0.1052
   67MOL0     N 8927   8.744   4.121   1.603  0.3512  0.9884  0.0010
   67MOL0     C 8928   8.642   4.206   1.649 -0.2907 -0.4922  0.8127
   67MOL0     C 8929   8.532   4.122   1.649 -0.1220 -1.2983 -0.7940
   67MOL0     C 8930   8.406   4.146   1.724 -1.1576 -0.4224 -0.3484
   67MOL0     C 8931   8.430   4.121   1.878 -0.0104 -0.3958 -0.2948
   67MOL0     C 8932   8.439   3.974   1.914 -0.1011 -0.5462 -0.8826
   67MOL0     C 8933   8.431   3.963   2.065 -0.2158  0.0265 -0.5401
   67MOL0     O 8934   8.291   3.964   2.106 -0.6594  0.2897 -0.2497
   67MOL0     C 8935   8.210   3.850   2.111 -0.3810 -0.5376  0.3190
   67MOL0     C 8936   8.085   3.867   2.166 -0.0383  0.2934  0.0700
   67MOL0     C 8937   7.991   3.761   2.169  0.4144  0.2130 -0.3845
   67MOL0     C 8938   7.857   3.803   2.222  0.3922 -0.6854  0.3765
   67MOL0     C 8939   8.026   3.632   2.125  0.3494  0.1292  0.1850
   67MOL0     C 8940   7.945   3.513   2.142  0.3055 -0.8022 -0.0812
   67MOL0     O 8941   7.977   3.397   2.083 -0.4091  0.0625 -0.1095
   67MOL0     C 8942   7.891   3.296   2.119 -0.2748  0.3824  0.3966
   67MOL0     C 8943   7.772   3.281   2.048 -0.4350 -0.2279  0.4855
   67MOL0     C 8944   7.699   3.163   2.065 -0.6422 -0.8069 -0.2905
   67MOL0     C 8945   7.733   3.061   2.154  0.1891  0.4689 -0.8986
   67MOL0     O 8946   7.650   2.953   2.177  0.1393 -0.0794 -0.2551
   67MOL0     C 8947   7.540   2.915   2.091 -1.0125 -0.8927 -0.1487
   67MOL0     C 8948   7.526   2.769   2.095  0.3501 -0.0714  0.2948
   67MOL0     C 8949   7.377   2.749   2.057 -0.3101  0.7872 -0.4739
   67MOL0     C 8950   7.336   2.604   2.100 -0.8796  0.7627 -0.2558
   67MOL0     C 8951   7.197   2.573   2.036 -0.3951  0.3198  0.3891
   67MOL0     C 8952   7.146   2.437   2.089  0.1073 -0.6734  0.7445
   67MOL0     C 8953   7.000   2.413   2.034 -1.0574 -0.6276  0.6187
   67MOL0     C 8954   6.959   2.269   2.037 -0.1432  0.1672  0.7786
   67MOL0    Cl 8955   6.790   2.245   1.967 -0.6169  0.1136  0.1475
   67MOL0     C 8956   7.845   3.077   2.229 -0.4647  0.3271  0.0418
   67MOL0     C 8957   7.936   3.187   2.212  0.6568 -0.0565  0.2388
   67MOL0     O 8958   7.852   3.518   2.219  0.5624 -0.6955  0.1533
   67MOL0     C 8959   8.145   3.621   2.055  0.0803  0.5432 -0.2426
   67MOL0     C 8960   8.243   3.732   2.043  0.0137 -0.3130  0.9386
   67MOL0     N 8961   8.557   3.999   1.592  0.2948  0.1801  0.3424
   67MOL0     N 8962   8.684   4.004   1.565  0.3975  0.3771 -0.8237
   67MOL0     C 8963  10.049   4.256   1.688  0.9336 -0.3525  0.5852
   67MOL0     C 8964  10.163   4.328   1.715  0.3009  0.0642  0.1237
   67MOL0     C 8965  10.482   4.589   1.901  0.0530  0.0383 -0.0332
   67MOL0     C 8966  10.525   4.618   2.025 -0.2668 -0.7485  0.9945
   67MOL0     C 8967  10.648   4.693   2.027  0.1706  0.6360 -0.2116
   67MOL0     C 8968  10.726   4.719   1.910 -0.3690 -0.0094  0.7038
   67MOL0     O 8969  10.847   4.779   1.894 -0.6595  1.0977  0.2217
   67MOL0     C 8970  10.942   4.738   2.002  0.4346  0.1644  0.5749
   67MOL0     C 8971  10.968   4.858   2.097 -1.2217  0.8838 -0.7062
   67MOL0     C 8972  11.090   4.839   2.200  0.0268 -0.0212 -0.2569
   67MOL0     C 8973  11.149   4.977   2.242  0.1109 -0.7328  0.3380
   67MOL0     C 8974  11.267   4.957   2.332 -0.1843  0.3558 -0.4246
   67MOL0     C 8975  11.371   4.932   2.389 -0.1506  0.3726 -0.1150
   67MOL0     C 8976  10.670   4.690   1.786 -0.9732 -1.1708 -0.2429
   67MOL0     C 8977  10.543   4.641   1.784  0.3758  0.8476 -0.2599
   67MOL0     H 8978  10.053   4.627   1.788  2.3443  0.4079 -1.3205
   67MOL0     H 8979   9.835   4.508   1.725 -0.5702 -1.5615  2.0041
   67MOL0     H 8980   9.682   4.293   1.792  1.3926 -1.6717  0.0195
   67MOL0     H 8981   9.685   4.383   1.632 -1.9887 -0.2932 -0.0431
   67MOL0     H 8982   9.607   4.164   1.523  1.5961 -0.8316  0.4957
   67MOL0     H 8983   9.591   4.088   1.677  1.8050 -1.5946 -4.0268
   67MOL0     H 8984   9.430   4.235   1.753  0.7814  0.7162  0.3523
   67MOL0     H 8985   9.432   4.349   1.623 -3.2545 -0.0330  0.4769
   67MOL0     H 8986   9.361   4.163   1.454 -0.6818  1.7807  0.8271
   67MOL0     H 8987   9.352   4.051   1.591 -2.5083  0.1711  0.1344
   67MOL0     H 8988   9.172   4.173   1.691  1.5974 -1.5704  0.1341
   67MOL0     H 8989   9.175   4.311   1.578 -1.0985  0.1882 -0.1677
   67MOL0     H 8990   9.135   4.146   1.391 -0.2743 -0.2045  0.3264
   67MOL0     H 8991   9.119   4.025   1.513  0.3552  0.3189  0.6630
   67MOL0     H 8992   8.958   4.282   1.517  0.8557  0.9534  1.1771
   67MOL0     H 8993   8.898   4.135   1.413  0.8168 -1.9580  0.5813
   67MOL0     H 8994   8.905   4.190   1.710 -2.3117  2.4963 -1.2717
   67MOL0     H 8995   8.911   4.026   1.649 -2.1820 -0.0416  0.7028
   67MOL0     H 8996   8.647   4.308   1.685  1.6484 -1.0111  2.1853
   67MOL0     H 8997   8.376   4.250   1.709  2.3420  0.6640 -0.5342
   67MOL0     H 8998   8.333   4.074   1.686  2.7773 -4.1276 -1.6524
   67MOL0     H 8999   8.349   4.165   1.938  1.8459  0.7919  1.4947
   67MOL0     H 9000   8.509   4.189   1.911 -1.5238  0.8640  0.9085
   67MOL0     H 9001   8.538   3.939   1.883 -0.4355 -2.2015 -0.1790
   67MOL0     H 9002   8.364   3.915   1.860  1.2722 -0.2059 -3.3083
   67MOL0     H 9003   8.486   4.043   2.115  0.3438 -0.2834 -0.6436
   67MOL0     H 9004   8.480   3.871   2.096 -1.9549 -0.4961  0.8127
   67MOL0     H 9005   8.055   3.955   2.223  1.5097 -0.3815  2.0644
   67MOL0     H 9006   7.855   3.790   2.331 -1.1915  3.1449  0.9830
   67MOL0     H 9007   7.834   3.909   2.213  0.9554 -0.6977 -1.6527
   67MOL0     H 9008   7.771   3.753   2.177 -0.1013  1.8892 -1.8114
   67MOL0     H 9009   7.754   3.359   1.974 -0.9100 -1.1758 -0.4224
   67MOL0     H 9010   7.622   3.144   1.991  2.9990  0.9413 -5.0242
   67MOL0     H 9011   7.451   2.970   2.124 -0.9187 -1.4132  1.0166
   67MOL0     H 9012   7.552   2.944   1.986 -1.9872 -3.4756 -1.0508
   67MOL0     H 9013   7.591   2.724   2.019  0.1359  1.7719 -1.0557
   67MOL0     H 9014   7.546   2.722   2.192 -0.2278 -1.4874 -0.2343
   67MOL0     H 9015   7.356   2.772   1.952 -1.6417  1.3149 -0.1130
   67MOL0     H 9016   7.310   2.820   2.106 -1.7802  0.7715 -2.3719
   67MOL0     H 9017   7.410   2.535   2.059 -0.2052  1.2872  0.0653
   67MOL0     H 9018   7.337   2.593   2.209  1.2787  2.4221 -0.0632
   67MOL0     H 9019   7.205   2.573   1.927  1.3476 -2.5897  0.4223
   67MOL0     H 9020   7.125   2.646   2.074  0.1214  1.8003 -1.3525
   67MOL0     H 9021   7.218   2.366   2.048 -3.1797 -2.2807 -2.9135
   67MOL0     H 9022   7.139   2.427   2.198 -1.1465 -0.0481  0.7367
   67MOL0     H 9023   6.989   2.467   1.939 -0.3094  0.0417  0.9013
   67MOL0     H 9024   6.933   2.461   2.106 -2.8531 -0.8858 -0.8021
   67MOL0     H 9025   6.952   2.233   2.141 -2.6788 -0.0210  0.6011
   67MOL0     H 9026   7.026   2.194   1.994  1.3613  0.6502  2.1468
   67MOL0     H 9027   7.871   2.992   2.292  0.3182 -0.3642 -1.1578
   67MOL0     H 9028   8.031   3.191   2.264  0.8129 -1.3438  0.1038
   67MOL0     H 9029   8.178   3.522   2.022 -0.4755  0.8609 -1.8828
   67MOL0     H 9030   8.346   3.719   2.011 -0.3164  0.1875 -0.4039
   67MOL0     H 9031  10.052   4.151   1.661 -0.1727 -0.5379  1.1125
   67MOL0     H 9032  10.256   4.281   1.745  0.1628  1.2660  2.6976
   67MOL0     H 9033  10.464   4.603   2.113 -0.3819  1.7435  1.4054
   67MOL0     H 9034  10.686   4.720   2.126 -3.3507 -2.3072  2.2270
   67MOL0     H 9035  10.906   4.651   2.058  3.4462 -0.7901  1.2149
   67MOL0     H 9036  11.035   4.713   1.950  0.0170  2.2128 -1.3031
   67MOL0     H 9037  10.883   4.897   2.154 -0.2637  3.6025 -0.9471
   67MOL0     H 9038  10.994   4.939   2.028 -0.8220 -0.0761 -1.7134
   67MOL0     H 9039  11.171   4.776   2.161  0.8377 -0.0309  1.3559
   67MOL0     H 9040  11.056   4.776   2.283 -1.2471 -0.7868 -1.3152
   67MOL0     H 9041  11.088   5.046   2.302  0.7120  0.1392 -0.0261
   67MOL0     H 9042  11.178   5.042   2.158 -0.9822  0.9648  1.2108
   67MOL0     H 9043  11.455   4.897   2.445 -1.6742  0.0944  2.1263
   67MOL0     H 9044  10.726   4.719   1.697  4.8765 -0.0167  3.2390
   67MOL0     H 9045  10.494   4.615   1.690 -0.6906 -0.6180  0.6458
   68MOL0     O 9046   7.380   7.836   9.656  0.2783 -0.3509  0.0189
   68MOL0     C 9047   7.452   7.740   9.622  1.5555 -0.0583 -0.0290
   68MOL0     O 9048   7.415   7.652   9.518  0.0741  0.1738  0.6320
   68MOL0     C 9049   7.280   7.648   9.491  0.1369 -0.0960 -0.4682
   68MOL0     C 9050   7.182   7.627   9.584  0.5116 -0.1799  0.0607
   68MOL0     C 9051   7.053   7.619   9.542  0.6844  0.7193 -0.3660
   68MOL0     C 9052   7.029   7.613   9.405  0.6026 -0.1300 -0.4460
   68MOL0     O 9053   6.900   7.594   9.362 -0.5972 -0.2884 -0.3611
   68MOL0     C 9054   6.815   7.504   9.443  0.1037 -0.5263 -0.4120
   68MOL0     C 9055   6.687   7.508   9.363  0.4179 -0.2720  1.3315
   68MOL0     C 9056   6.601   7.402   9.427 -0.8902  0.6719  0.3109
   68MOL0     C 9057   6.469   7.381   9.353  0.5130  0.7621  0.9176
   68MOL0     C 9058   6.363   7.312   9.427  0.3837  0.7803  0.3765
   68MOL0     C 9059   6.260   7.284   9.318  0.5119  0.6300 -0.3485
   68MOL0     C 9060   6.132   7.232   9.386  0.9583  0.0672 -0.9262
   68MOL0     C 9061   6.136   7.083   9.409 -0.8716  0.7013  0.4590
   68MOL0     N 9062   6.005   7.020   9.426 -0.5777 -0.0314  0.1509
   68MOL0     C 9063   5.906   7.075   9.509  0.8095 -0.5011 -0.1809
   68MOL0     C 9064   5.800   6.985   9.496  0.1085 -0.1135  0.6387
   68MOL0     C 9065   5.667   6.998   9.563  0.0067 -0.8785  0.3246
   68MOL0     C 9066   5.644   6.891   9.667 -0.1030 -0.1535  0.0683
   68MOL0     C 9067   5.499   6.904   9.731 -0.2542 -0.3652  0.6622
   68MOL0     C 9068   5.442   6.781   9.797 -0.1822  0.8428  0.5630
   68MOL0     O 9069   5.330   6.739   9.716 -0.6305 -0.5989  0.3450
   68MOL0     C 9070   5.202   6.785   9.741 -0.5123 -0.0610 -0.1292
   68MOL0     C 9071   5.178   6.889   9.840  0.3317 -0.3380  0.2531
   68MOL0     C 9072   5.048   6.924   9.872 -0.2865  0.3804  0.5589
   68MOL0     C 9073   5.025   7.052   9.950 -0.2637 -0.0461 -0.0407
   68MOL0     C 9074   4.941   6.839   9.826  0.4432  0.0175 -0.4652
   68MOL0     C 9075   4.801   6.861   9.873  0.3254  0.1605  0.1294
   68MOL0     O 9076   4.698   6.838   9.792  0.2471 -0.2672  0.2192
   68MOL0     C 9077   4.565   6.823   9.826  0.8946  0.0748  0.1534
   68MOL0     C 9078   4.477   6.760   9.738 -0.8129  0.0896  0.2213
   68MOL0     C 9079   4.344   6.743   9.760  0.6044  0.1432 -0.3967
   68MOL0     C 9080   4.287   6.786   9.879 -0.6673  0.7546 -0.0845
   68MOL0     O 9081   4.151   6.765   9.898  0.1738  0.2848  0.3667
   68MOL0     C 9082   4.091   6.833  10.001 -0.3454 -0.3944 -1.5254
   68MOL0     C 9083   4.063   6.974   9.956 -0.2941  0.5236  0.6105
   68MOL0     C 9084   3.957   7.049  10.042 -0.2075  0.4361  0.0848
   68MOL0     C 9085   3.967   7.190   9.992 -0.6217 -0.1571  0.9858
   68MOL0     C 9086   3.896   7.292  10.081 -0.0453  0.9309  0.6662
   68MOL0     C 9087   3.741   7.280  10.088 -0.4348  0.6066  0.4008
   68MOL0     C 9088   3.680   7.397  10.158 -0.4360  0.1159 -0.3906
   68MOL0     C 9089   3.705   7.378  10.312 -0.5607  0.0822 -0.2843
   68MOL0    Cl 9090   3.585   7.486  10.402 -0.1557 -0.0441  0.2942
   68MOL0     C 9091   4.368   6.861   9.968  0.5427 -0.3734  0.5234
   68MOL0     C 9092   4.506   6.886   9.934  0.0639  0.3783  1.5439
   68MOL0     O 9093   4.790   6.879   9.999  0.5442 -0.2861  0.8964
   68MOL0     C 9094   4.968   6.739   9.728 -0.4334 -0.3664  0.0456
   68MOL0     C 9095   5.096   6.715   9.681  0.9722 -0.6117  0.4904
   68MOL0     N 9096   5.837   6.874   9.423 -0.1721  0.1882 -0.3911
   68MOL0     N 9097   5.960   6.892   9.382 -0.4687 -0.4904 -0.2748
   68MOL0     C 9098   7.128   7.628   9.312 -0.2905 -0.2693  0.5305
   68MOL0     C 9099   7.254   7.637   9.356 -0.3378 -0.5010 -0.2239
   68MOL0     C 9100   7.578   7.722   9.705  0.1162  0.8825  0.5368
   68MOL0     C 9101   7.659   7.609   9.680 -0.1405  0.0790  0.3357
   68MOL0     C 9102   7.779   7.584   9.751  0.4158 -0.4646  0.1122
   68MOL0     C 9103   7.823   7.673   9.849 -0.3472 -0.2739 -1.1826
   68MOL0     O 9104   7.947   7.657   9.912  0.7527 -0.1626  0.0350
   68MOL0     C 9105   7.942   7.644  10.051 -0.0190  0.4918 -0.4928
   68MOL0     C 9106   8.033   7.526  10.093  0.1023 -0.0457  0.6894
   68MOL0     C 9107   7.993   7.395  10.025 -0.0237 -0.4682 -0.7505
   68MOL0     C 9108   8.094   7.288  10.067 -0.4532 -0.4386 -0.6919
   68MOL0     C 9109   8.232   7.312  10.033 -0.4853  0.3223  0.7551
   68MOL0     C 9110   8.355   7.325  10.012  0.6268  0.1437 -0.3536
   68MOL0     C 9111   7.741   7.785   9.871 -0.5592 -0.1521 -0.1022
   68MOL0     C 9112   7.619   7.801   9.809 -0.6287  0.0906  0.4413
   68MOL0     H 9113   7.196   7.633   9.691 -0.9036  1.4607  0.1910
   68MOL0     H 9114   6.971   7.615   9.613  1.2199  0.5839  0.2516
   68MOL0     H 9115   6.849   7.400   9.450  1.6742  0.0472  1.3613
   68MOL0     H 9116   6.792   7.541   9.543  3.6437  2.0614 -0.3625
   68MOL0     H 9117   6.634   7.603   9.356  2.5423  0.9108 -0.0302
   68MOL0     H 9118   6.708   7.474   9.261  0.7128  0.5242  1.1220
   68MOL0     H 9119   6.658   7.309   9.435  2.6083  2.6227 -0.0146
   68MOL0     H 9120   6.580   7.442   9.527 -1.1543  0.2719  0.4183
   68MOL0     H 9121   6.426   7.476   9.321 -3.4054 -0.8587  0.8345
   68MOL0     H 9122   6.505   7.329   9.264 -3.1362 -1.3264  0.5052
   68MOL0     H 9123   6.387   7.215   9.471  0.9418  0.7800  0.0750
   68MOL0     H 9124   6.311   7.368   9.506 -1.3694  0.9772 -0.8574
   68MOL0     H 9125   6.230   7.377   9.268  3.5335  1.5972 -0.5724
   68MOL0     H 9126   6.289   7.221   9.234  1.8549 -0.8205  1.1219
   68MOL0     H 9127   6.104   7.285   9.478 -0.0241  2.2612 -2.3872
   68MOL0     H 9128   6.053   7.249   9.312 -1.0702 -1.2829  0.7793
   68MOL0     H 9129   6.202   7.057   9.493  1.0904  0.6679 -1.0371
   68MOL0     H 9130   6.184   7.034   9.325  0.0391  3.1651 -0.5593
   68MOL0     H 9131   5.908   7.168   9.566  2.5009 -1.2360  1.0026
   68MOL0     H 9132   5.671   7.100   9.604 -1.6924 -0.5199 -0.3146
   68MOL0     H 9133   5.580   6.995   9.497 -0.5680  0.4891  0.9725
   68MOL0     H 9134   5.717   6.921   9.742 -2.5566  2.4622  1.6168
   68MOL0     H 9135   5.667   6.790   9.631 -0.1698 -0.6247  1.3011
   68MOL0     H 9136   5.420   6.951   9.671  0.6498 -0.0400 -0.2947
   68MOL0     H 9137   5.515   6.973   9.814 -2.8579 -0.1431  1.0559
   68MOL0     H 9138   5.419   6.807   9.900 -0.6114  0.2588  0.6149
   68MOL0     H 9139   5.507   6.694   9.793 -3.5703 -1.8704 -1.6718
   68MOL0     H 9140   5.256   6.943   9.894 -0.5348 -1.8150  3.2079
   68MOL0     H 9141   4.931   7.089   9.909 -0.4302 -0.3307  0.0789
   68MOL0     H 9142   4.998   7.033  10.055 -1.2089 -1.0125 -0.4395
   68MOL0     H 9143   5.115   7.113   9.942  0.8961 -1.8807 -2.3586
   68MOL0     H 9144   4.509   6.722   9.642  1.2490  1.6228  0.2403
   68MOL0     H 9145   4.283   6.686   9.691  1.5717 -0.8653 -0.4610
   68MOL0     H 9146   3.993   6.792  10.029 -1.4940  2.5884 -0.7743
   68MOL0     H 9147   4.152   6.838  10.091 -0.4728  0.5180 -1.4779
   68MOL0     H 9148   4.154   7.028   9.927  1.0165 -2.1315 -0.6126
   68MOL0     H 9149   4.014   6.950   9.861 -2.1791  0.9539  1.4321
   68MOL0     H 9150   3.992   7.049  10.146 -0.7726 -0.1854  0.2892
   68MOL0     H 9151   3.857   7.010  10.021 -1.4772  3.1559  0.6003
   68MOL0     H 9152   4.069   7.229   9.984  0.2021 -2.4659 -1.0012
   68MOL0     H 9153   3.929   7.187   9.890 -0.2688  0.7945  0.8181
   68MOL0     H 9154   3.928   7.389  10.041  0.9851 -0.0292 -0.9693
   68MOL0     H 9155   3.945   7.287  10.178 -0.7663 -1.5212  0.9671
   68MOL0     H 9156   3.690   7.264   9.992  0.7391 -1.0233  0.0184
   68MOL0     H 9157   3.706   7.188  10.137 -2.1317 -0.4298 -2.5070
   68MOL0     H 9158   3.578   7.408  10.122  0.1774 -1.0199 -2.6570
   68MOL0     H 9159   3.737   7.485  10.127 -1.7004  1.0666 -0.0798
   68MOL0     H 9160   3.807   7.405  10.342 -0.0739  0.6416 -2.2629
   68MOL0     H 9161   3.672   7.276  10.333 -0.3813  0.0098 -0.3513
   68MOL0     H 9162   4.331   6.911  10.056 -1.0853 -2.1357  0.9170
   68MOL0     H 9163   4.559   6.955   9.999 -2.1420  1.1872  2.6116
   68MOL0     H 9164   4.885   6.687   9.681  0.2999 -1.2739 -0.2716
   68MOL0     H 9165   5.115   6.641   9.604 -1.6317  2.8591 -3.9746
   68MOL0     H 9166   7.103   7.625   9.206  2.6860  0.5046 -0.2794
   68MOL0     H 9167   7.339   7.648   9.290  1.4881 -1.0440  1.9015
   68MOL0     H 9168   7.638   7.540   9.600 -0.1163  1.6301 -1.0603
   68MOL0     H 9169   7.840   7.499   9.722  1.7598  0.5810 -0.2952
   68MOL0     H 9170   7.964   7.738  10.103 -2.0494  0.0093  1.3724
   68MOL0     H 9171   7.844   7.616  10.089 -0.8251  1.7756 -1.5770
   68MOL0     H 9172   8.020   7.498  10.198 -1.6665  0.0736  0.5260
   68MOL0     H 9173   8.135   7.556  10.068 -0.6548  0.3411 -2.2704
   68MOL0     H 9174   7.988   7.405   9.916  0.2689  0.6003 -0.6765
   68MOL0     H 9175   7.898   7.350  10.058 -0.0658 -2.2028 -3.0198
   68MOL0     H 9176   8.080   7.188  10.024  1.1477 -1.0298  0.0465
   68MOL0     H 9177   8.096   7.268  10.174  1.1075 -2.9268 -1.0891
   68MOL0     H 9178   8.460   7.325  10.034  1.1743  4.1909 -1.9309
   68MOL0     H 9179   7.767   7.866   9.939 -3.1470  0.9111 -0.2895
   68MOL0     H 9180   7.551   7.883   9.832 -0.3467 -0.1639  2.3405
   69MOL0     O 9181   3.161   1.009   3.539 -0.6162  0.4405  0.2321
   69MOL0     C 9182   3.099   1.110   3.506  0.0917 -0.2657 -0.2491
   69MOL0     O 9183   3.157   1.224   3.466  0.5439 -0.7635 -0.0665
   69MOL0     C 9184   3.297   1.228   3.448  0.2623 -0.4111 -0.6214
   69MOL0     C 9185   3.356   1.144   3.362 -0.5577 -0.3950  0.1946
   69MOL0     C 9186   3.494   1.169   3.325  0.0672 -0.1206 -0.4344
   69MOL0     C 9187   3.567   1.277   3.374 -0.1909  0.7203 -0.6463
   69MOL0     O 9188   3.696   1.290   3.330 -0.4923 -0.4046  1.0407
   69MOL0     C 9189   3.785   1.383   3.394  0.1098 -0.1202  0.6749
   69MOL0     C 9190   3.925   1.385   3.337  0.9894  0.5545 -0.0491
   69MOL0     C 9191   4.015   1.494   3.401  0.2227 -0.2486  0.9965
   69MOL0     C 9192   4.141   1.511   3.309  0.6961  0.3037 -0.3739
   69MOL0     C 9193   4.225   1.631   3.354  0.5500 -0.0589  0.0285
   69MOL0     C 9194   4.271   1.625   3.495 -0.5040 -0.4234 -0.0838
   69MOL0     C 9195   4.410   1.694   3.510  0.4131  0.0309 -0.0734
   69MOL0     C 9196   4.419   1.845   3.473 -0.2350 -0.2880 -0.0345
   69MOL0     N 9197   4.547   1.908   3.511 -0.7340  0.7888  0.3148
   69MOL0     C 9198   4.592   1.923   3.643 -0.5750  0.5068 -0.0232
   69MOL0     C 9199   4.705   1.988   3.649  0.2310 -0.0541 -0.0816
   69MOL0     C 9200   4.771   2.040   3.776  0.4780 -0.0649  0.9631
   69MOL0     C 9201   4.793   2.197   3.796  0.2524 -0.2086  0.2436
   69MOL0     C 9202   4.661   2.276   3.773  0.3054 -0.6356 -0.1314
   69MOL0     C 9203   4.637   2.390   3.875  0.8853  0.9707  1.0337
   69MOL0     O 9204   4.641   2.334   4.006  0.0177 -0.0857 -0.4994
   69MOL0     C 9205   4.562   2.387   4.102  1.0107  0.0477  0.9953
   69MOL0     C 9206   4.555   2.332   4.227  0.5004  0.3134 -0.1802
   69MOL0     C 9207   4.498   2.385   4.347 -0.0863  0.1092 -0.1254
   69MOL0     C 9208   4.512   2.310   4.476 -0.2620  0.1574  0.0677
   69MOL0     C 9209   4.442   2.514   4.333  0.4677  0.1711  0.3265
   69MOL0     C 9210   4.389   2.595   4.440 -0.6451  0.0905  0.9217
   69MOL0     O 9211   4.378   2.731   4.415 -0.1121 -0.4698  0.0854
   69MOL0     C 9212   4.333   2.810   4.518  0.2958 -1.8514  0.7173
   69MOL0     C 9213   4.240   2.781   4.617 -0.4832  0.0134  0.7886
   69MOL0     C 9214   4.204   2.859   4.732  0.1615  0.1525  0.1292
   69MOL0     C 9215   4.264   2.987   4.733 -0.1305 -0.1398  0.2045
   69MOL0     O 9216   4.245   3.078   4.834  0.7356 -0.6070 -0.4363
   69MOL0     C 9217   4.171   3.194   4.804 -0.5809  0.4627 -0.7083
   69MOL0     C 9218   4.087   3.251   4.927  0.4161 -0.4465  0.0749
   69MOL0     C 9219   3.991   3.155   4.984  0.1565  1.1269 -0.2569
   69MOL0     C 9220   3.923   3.214   5.117 -1.1726 -0.0536 -0.2102
   69MOL0     C 9221   3.859   3.097   5.205 -0.1642  0.4212 -0.3248
   69MOL0     C 9222   3.738   3.038   5.130  0.3901 -1.3199  0.3311
   69MOL0     C 9223   3.664   2.932   5.202 -0.1080  0.9329 -0.1484
   69MOL0     C 9224   3.551   2.870   5.127  0.3913 -0.3026  0.6202
   69MOL0    Cl 9225   3.599   2.772   4.991  0.0136  0.0936  0.2274
   69MOL0     C 9226   4.365   3.021   4.636  0.7151 -0.0531  0.9185
   69MOL0     C 9227   4.399   2.938   4.528  0.0872  0.2675 -0.7556
   69MOL0     O 9228   4.355   2.537   4.537  0.5742 -0.4299  0.4137
   69MOL0     C 9229   4.438   2.571   4.198 -0.3765  0.5755  0.0641
   69MOL0     C 9230   4.493   2.504   4.085  0.1787  0.3137  0.8176
   69MOL0     N 9231   4.743   1.998   3.519  0.1521  0.0505 -1.1470
   69MOL0     N 9232   4.659   1.942   3.436 -0.3519 -0.0782 -0.5538
   69MOL0     C 9233   3.506   1.353   3.475 -0.0665 -0.5492  1.0151
   69MOL0     C 9234   3.373   1.332   3.514 -0.3991  0.0149 -0.5475
   69MOL0     C 9235   2.953   1.087   3.486  0.2208 -1.6571  0.3665
   69MOL0     C 9236   2.880   1.202   3.472  0.4289  0.3275 -0.1726
   69MOL0     C 9237   2.739   1.202   3.469  0.7176 -0.7008  0.2479
   69MOL0     C 9238   2.669   1.080   3.484 -0.6243  0.3306 -0.2826
   69MOL0     O 9239   2.539   1.057   3.477  0.4488  0.3387 -0.4456
   69MOL0     C 9240   2.457   1.169   3.464  0.8980  0.1032 -0.2016
   69MOL0     C 9241   2.311   1.133   3.509  0.0225 -0.7706  0.7218
   69MOL0     C 9242   2.245   1.057   3.405  0.4877 -0.2357  0.4798
   69MOL0     C 9243   2.105   1.008   3.452 -0.1200  0.1201 -0.0895
   69MOL0     C 9244   2.014   1.125   3.453 -0.4527 -0.0465 -0.1227
   69MOL0     C 9245   1.961   1.229   3.450  0.9133  0.2857 -0.7767
   69MOL0     C 9246   2.748   0.964   3.491  0.2215 -0.2487  0.3036
   69MOL0     C 9247   2.887   0.969   3.491  0.5968  0.8450  0.1345
   69MOL0     H 9248   3.299   1.063   3.319 -3.3944  2.5576 -2.1570
   69MOL0     H 9249   3.537   1.105   3.248  0.8877  3.5464 -3.3549
   69MOL0     H 9250   3.745   1.484   3.404  1.8333  0.4932  1.7504
   69MOL0     H 9251   3.780   1.343   3.496  0.3071 -1.2149  0.2666
   69MOL0     H 9252   3.967   1.285   3.346 -0.6038 -0.2547 -1.1886
   69MOL0     H 9253   3.911   1.410   3.231  0.5936  1.8572  0.2921
   69MOL0     H 9254   3.954   1.584   3.411 -1.4663 -1.4546  2.0403
   69MOL0     H 9255   4.039   1.475   3.506 -1.4935  3.2228  2.1995
   69MOL0     H 9256   4.200   1.419   3.307 -0.2193 -0.5003  2.9853
   69MOL0     H 9257   4.116   1.529   3.204  1.2046 -2.9287 -1.1797
   69MOL0     H 9258   4.308   1.637   3.283 -0.6344 -3.0900 -1.7736
   69MOL0     H 9259   4.155   1.715   3.353 -1.1154 -1.3871 -1.2258
   69MOL0     H 9260   4.204   1.681   3.561 -0.7492 -0.6598 -0.1334
   69MOL0     H 9261   4.276   1.520   3.525 -0.6273 -1.0937 -2.2324
   69MOL0     H 9262   4.440   1.686   3.615 -0.1904  3.0296  0.4068
   69MOL0     H 9263   4.479   1.630   3.454 -0.4968 -0.5864 -0.5198
   69MOL0     H 9264   4.331   1.892   3.517 -0.4654 -0.2547 -0.5238
   69MOL0     H 9265   4.409   1.868   3.367 -1.6341  0.4268  0.2211
   69MOL0     H 9266   4.535   1.883   3.726  1.3010 -1.0244  0.5965
   69MOL0     H 9267   4.703   1.992   3.847 -0.3071 -0.4589 -0.0294
   69MOL0     H 9268   4.870   1.995   3.781  1.7414  2.4846  0.6152
   69MOL0     H 9269   4.873   2.224   3.725  0.3015 -0.5853  0.1525
   69MOL0     H 9270   4.828   2.212   3.898 -0.5552  0.8676  0.3743
   69MOL0     H 9271   4.576   2.214   3.803 -0.4321  1.0311  1.4299
   69MOL0     H 9272   4.644   2.307   3.670  1.7552 -0.3090 -0.2891
   69MOL0     H 9273   4.538   2.435   3.861  0.1246 -0.8531  0.1067
   69MOL0     H 9274   4.710   2.470   3.860  0.0244  1.8390  1.3558
   69MOL0     H 9275   4.620   2.246   4.235 -1.8459 -1.6874 -1.2306
   69MOL0     H 9276   4.411   2.302   4.515  0.2931  1.4274  1.8974
   69MOL0     H 9277   4.560   2.211   4.469 -0.4400 -0.0618  1.6971
   69MOL0     H 9278   4.569   2.363   4.552 -0.4453  4.4664 -2.4920
   69MOL0     H 9279   4.182   2.690   4.622 -0.5115 -0.0377 -0.2427
   69MOL0     H 9280   4.132   2.828   4.807  0.4637 -1.0947 -0.0787
   69MOL0     H 9281   4.249   3.269   4.788  0.8209 -1.4818 -3.8631
   69MOL0     H 9282   4.108   3.175   4.717  0.5348 -1.6433 -1.1110
   69MOL0     H 9283   4.153   3.287   5.006  1.4346 -0.7311 -0.6207
   69MOL0     H 9284   4.035   3.344   4.903 -2.1389 -0.9549  2.9209
   69MOL0     H 9285   4.052   3.068   5.009 -1.4366  0.0191 -0.0885
   69MOL0     H 9286   3.918   3.117   4.912  3.1988 -2.6877 -1.6706
   69MOL0     H 9287   4.001   3.268   5.172 -0.8004  0.6583 -1.3857
   69MOL0     H 9288   3.849   3.284   5.079  0.1349  0.3200 -2.2586
   69MOL0     H 9289   3.816   3.144   5.294 -0.5721  1.7341 -1.1787
   69MOL0     H 9290   3.938   3.031   5.240  0.2634  2.0448  1.9783
   69MOL0     H 9291   3.665   3.111   5.095  0.7096 -2.2155 -2.4516
   69MOL0     H 9292   3.782   2.994   5.040  0.2774  1.2459 -1.0728
   69MOL0     H 9293   3.618   2.978   5.290  1.2399 -0.3824  1.3177
   69MOL0     H 9294   3.717   2.848   5.248 -2.8138 -0.3709  0.8708
   69MOL0     H 9295   3.479   2.946   5.097 -0.8205 -1.8591 -0.6293
   69MOL0     H 9296   3.489   2.800   5.185  1.3146 -1.6764  0.0073
   69MOL0     H 9297   4.409   3.120   4.641  2.1918 -0.5938 -0.6918
   69MOL0     H 9298   4.476   2.972   4.460  4.6920  0.8473  4.1536
   69MOL0     H 9299   4.401   2.672   4.188  1.1437  1.2209  0.6545
   69MOL0     H 9300   4.481   2.558   3.992  1.5579 -0.6391  0.0615
   69MOL0     H 9301   3.563   1.439   3.508  0.2422 -1.0809  1.8817
   69MOL0     H 9302   3.330   1.414   3.570 -3.2659 -1.1856 -0.8396
   69MOL0     H 9303   2.921   1.302   3.484  2.6147 -0.6640  1.3280
   69MOL0     H 9304   2.685   1.296   3.465  0.8052 -0.6281  0.7308
   69MOL0     H 9305   2.487   1.256   3.524  1.3383  0.4449 -0.8891
   69MOL0     H 9306   2.465   1.205   3.361  1.2642  1.2386  0.2068
   69MOL0     H 9307   2.250   1.220   3.535  1.5325  0.4406  0.3914
   69MOL0     H 9308   2.313   1.077   3.604  1.6395 -1.7346  0.1679
   69MOL0     H 9309   2.307   0.972   3.376  1.1276  0.5035 -0.3743
   69MOL0     H 9310   2.232   1.119   3.315 -1.0662  0.3916  1.1036
   69MOL0     H 9311   2.104   0.974   3.556  0.0478  2.0612  0.5920
   69MOL0     H 9312   2.062   0.934   3.384 -0.3463  0.5815 -0.4548
   69MOL0     H 9313   1.907   1.316   3.421  0.5564  0.3352  0.0103
   69MOL0     H 9314   2.693   0.871   3.505 -1.3956  0.6484  0.1372
   69MOL0     H 9315   2.946   0.879   3.505  1.8667  1.2099 -2.3350
   70MOL0     O 9316  10.480   5.491   1.452  0.0797 -0.4529 -0.0034
   70MOL0     C 9317  10.506   5.533   1.344  0.5267  0.3960 -0.3725
   70MOL0     O 9318  10.418   5.565   1.246  0.0512  0.1269  0.5701
   70MOL0     C 9319  10.286   5.547   1.276  0.2527  0.9492 -0.0207
   70MOL0     C 9320  10.230   5.429   1.333 -0.3335  0.5611  0.2192
   70MOL0     C 9321  10.095   5.422   1.371 -1.6247 -0.0736  0.3269
   70MOL0     C 9322  10.009   5.524   1.340 -0.3044 -0.8766 -0.5736
   70MOL0     O 9323   9.877   5.503   1.360 -0.0989  0.1061  0.1029
   70MOL0     C 9324   9.791   5.546   1.257  0.3240  0.1803 -0.0281
   70MOL0     C 9325   9.661   5.464   1.276  1.1640  0.0562  1.0487
   70MOL0     C 9326   9.548   5.522   1.184 -0.2943  0.3390 -0.6062
   70MOL0     C 9327   9.421   5.441   1.194 -0.3342 -0.8219  0.0833
   70MOL0     C 9328   9.345   5.447   1.050  0.0597 -0.1254  0.3417
   70MOL0     C 9329   9.204   5.389   1.053  0.2113 -0.1466  1.0749
   70MOL0     C 9330   9.159   5.402   0.906 -0.6126 -0.6531  0.0782
   70MOL0     C 9331   9.025   5.318   0.885  0.0066 -0.6851  0.0540
   70MOL0     N 9332   8.992   5.323   0.739 -0.4193 -0.9371  0.4404
   70MOL0     C 9333   8.889   5.406   0.689  0.8053 -0.5404  0.2815
   70MOL0     C 9334   8.909   5.387   0.556  0.1758  0.6551  0.2205
   70MOL0     C 9335   8.824   5.443   0.447  0.1698 -0.2801 -0.7440
   70MOL0     C 9336   8.736   5.566   0.482 -0.0621 -0.2165 -0.1782
   70MOL0     C 9337   8.609   5.567   0.396  0.5253 -0.5798  0.0611
   70MOL0     C 9338   8.650   5.578   0.252  0.0411  0.3570 -0.8868
   70MOL0     O 9339   8.537   5.626   0.165  0.4623 -0.7384 -0.5005
   70MOL0     C 9340   8.456   5.529   0.104 -0.9489  0.4939 -0.5095
   70MOL0     C 9341   8.510   5.432   0.033  0.6070 -1.1965 -0.1002
   70MOL0     C 9342   8.429   5.350  -0.047  0.6537 -0.5139 -0.8125
   70MOL0     C 9343   8.488   5.240  -0.142  0.3359  0.3899  0.5798
   70MOL0     C 9344   8.292   5.365  -0.039 -0.0922  1.2539 -0.2223
   70MOL0     C 9345   8.197   5.273  -0.108 -0.3824 -0.6441 -0.0368
   70MOL0     O 9346   8.079   5.276  -0.050  0.5256 -0.0133 -0.1748
   70MOL0     C 9347   8.001   5.166  -0.076 -0.0979  0.7118  0.0052
   70MOL0     C 9348   8.009   5.041  -0.016 -0.4801 -0.1465  1.6936
   70MOL0     C 9349   7.923   4.940  -0.063  0.9547 -0.6820 -0.0835
   70MOL0     C 9350   7.826   4.958  -0.157  0.4286  0.3562 -0.0408
   70MOL0     O 9351   7.737   4.862  -0.199  0.5449 -0.8026  0.1473
   70MOL0     C 9352   7.775   4.722  -0.189  0.0336 -0.0920 -0.6772
   70MOL0     C 9353   7.687   4.649  -0.282 -0.9254  0.1918  0.3502
   70MOL0     C 9354   7.725   4.673  -0.430  0.0041 -0.5459  1.1317
   70MOL0     C 9355   7.668   4.568  -0.525  0.2621  0.0104  0.2793
   70MOL0     C 9356   7.739   4.580  -0.658 -0.4494 -0.1154  0.4857
   70MOL0     C 9357   7.672   4.490  -0.762  0.0232 -0.5087 -0.0437
   70MOL0     C 9358   7.742   4.518  -0.895 -0.6693 -0.4173  0.1881
   70MOL0     C 9359   7.673   4.458  -1.012  1.1994 -0.1711  0.7741
   70MOL0    Cl 9360   7.714   4.283  -1.051  0.2837 -0.1679  0.2905
   70MOL0     C 9361   7.809   5.079  -0.216  0.3281 -0.6844  0.3831
   70MOL0     C 9362   7.895   5.183  -0.171 -0.3730 -0.3137  0.2564
   70MOL0     O 9363   8.229   5.193  -0.199 -0.0036  0.4905  0.2591
   70MOL0     C 9364   8.239   5.457   0.051 -0.1411 -0.2787 -0.3510
   70MOL0     C 9365   8.317   5.544   0.123  0.3155 -0.1210  0.6613
   70MOL0     N 9366   9.022   5.308   0.535  0.8151  0.2697  0.0228
   70MOL0     N 9367   9.077   5.278   0.645 -0.7601 -1.0283 -0.0100
   70MOL0     C 9368  10.066   5.633   1.270 -0.7835  0.1415 -0.7921
   70MOL0     C 9369  10.202   5.646   1.244  0.7184  0.0521  0.3452
   70MOL0     C 9370  10.657   5.566   1.320 -0.4868 -0.6226 -0.5176
   70MOL0     C 9371  10.711   5.626   1.206  0.0357  0.8538  0.2595
   70MOL0     C 9372  10.847   5.626   1.175  0.2894  0.5102 -0.2128
   70MOL0     C 9373  10.938   5.589   1.271 -0.0040  0.5003 -0.3557
   70MOL0     O 9374  11.073   5.601   1.257  0.0932  0.0849  0.5772
   70MOL0     C 9375  11.110   5.736   1.298  0.4741  0.4527  0.1035
   70MOL0     C 9376  11.244   5.773   1.223  0.6650  0.9098  0.7607
   70MOL0     C 9377  11.288   5.911   1.251  0.1742 -0.0515 -0.9325
   70MOL0     C 9378  11.417   5.928   1.181  0.3194 -0.5803 -0.7000
   70MOL0     C 9379  11.489   6.045   1.234 -0.7772  0.3214 -0.2753
   70MOL0     C 9380  11.559   6.135   1.281  0.7384  0.5895  0.4130
   70MOL0     C 9381  10.892   5.553   1.398  0.3672  0.0176 -0.3816
   70MOL0     C 9382  10.755   5.535   1.416  0.2020  0.5673  0.1122
   70MOL0     H 9383  10.281   5.340   1.367 -0.3011 -0.4864 -2.3680
   70MOL0     H 9384  10.058   5.339   1.431 -2.6867 -1.3750 -2.0196
   70MOL0     H 9385   9.756   5.649   1.271 -0.2008 -0.2284  2.0075
   70MOL0     H 9386   9.840   5.533   1.160 -2.2455  1.0416 -1.5307
   70MOL0     H 9387   9.674   5.361   1.241 -0.8106 -0.1832  0.8585
   70MOL0     H 9388   9.628   5.460   1.380 -3.0052 -0.1539 -0.0675
   70MOL0     H 9389   9.524   5.620   1.225  0.6390  1.2255 -2.0986
   70MOL0     H 9390   9.587   5.532   1.082  1.5167 -1.8224 -0.2157
   70MOL0     H 9391   9.451   5.337   1.213  4.0337  0.2118 -0.1052
   70MOL0     H 9392   9.359   5.467   1.280 -0.7416 -3.3298  0.6359
   70MOL0     H 9393   9.333   5.550   1.014  0.7722  0.0334  0.5431
   70MOL0     H 9394   9.408   5.393   0.980 -1.6790 -0.3751 -1.0896
   70MOL0     H 9395   9.205   5.281   1.070 -1.5620 -0.5737 -1.0502
   70MOL0     H 9396   9.141   5.435   1.129  0.0669 -3.9899  3.6029
   70MOL0     H 9397   9.143   5.503   0.869 -2.8715 -1.6124 -1.8556
   70MOL0     H 9398   9.238   5.359   0.843 -0.4653 -1.2973  0.6878
   70MOL0     H 9399   8.942   5.364   0.938  1.1772  0.6557  0.7612
   70MOL0     H 9400   9.030   5.216   0.926  0.3560  0.3228  2.6796
   70MOL0     H 9401   8.811   5.454   0.747  1.4816 -2.0728  2.5955
   70MOL0     H 9402   8.892   5.469   0.365  0.9329  0.3544  0.0825
   70MOL0     H 9403   8.760   5.358   0.419 -0.7048  0.6192 -1.5493
   70MOL0     H 9404   8.796   5.656   0.464 -1.1696  0.3889 -1.0218
   70MOL0     H 9405   8.704   5.563   0.586 -1.0877  2.4931 -0.3335
   70MOL0     H 9406   8.533   5.642   0.419 -2.5936 -3.7848  1.0628
   70MOL0     H 9407   8.571   5.466   0.416 -0.0031 -1.6506 -4.9141
   70MOL0     H 9408   8.679   5.479   0.216 -0.9433 -1.5163  2.9427
   70MOL0     H 9409   8.742   5.635   0.236 -1.2938  1.9982 -3.2794
   70MOL0     H 9410   8.618   5.432   0.019  0.6448  0.8355 -0.1555
   70MOL0     H 9411   8.595   5.222  -0.126  0.6227  0.4894 -1.0588
   70MOL0     H 9412   8.441   5.143  -0.121 -0.6163  0.9093  0.8712
   70MOL0     H 9413   8.465   5.261  -0.246 -4.1771  0.9114  1.4844
   70MOL0     H 9414   8.087   5.002   0.048  0.3564 -1.5754 -0.1199
   70MOL0     H 9415   7.931   4.845  -0.010 -0.1320 -1.0363 -0.5208
   70MOL0     H 9416   7.881   4.700  -0.202 -0.6236 -2.0085 -3.8008
   70MOL0     H 9417   7.755   4.672  -0.094 -0.7325 -2.2774 -1.9293
   70MOL0     H 9418   7.705   4.543  -0.258 -1.1109  0.0883  0.0494
   70MOL0     H 9419   7.583   4.670  -0.256  0.1047  1.2111  4.1403
   70MOL0     H 9420   7.834   4.672  -0.432  0.0002 -1.6635  0.3840
   70MOL0     H 9421   7.696   4.770  -0.470  0.8077 -0.2476  1.2548
   70MOL0     H 9422   7.670   4.466  -0.485  0.4161 -0.0522  0.1137
   70MOL0     H 9423   7.561   4.586  -0.536 -0.1077 -2.2950 -0.3331
   70MOL0     H 9424   7.845   4.556  -0.650 -0.5635 -0.6351  0.4954
   70MOL0     H 9425   7.737   4.684  -0.694  2.5186 -0.4082 -0.8423
   70MOL0     H 9426   7.689   4.388  -0.725  0.3228  0.0594  1.4675
   70MOL0     H 9427   7.566   4.512  -0.775 -0.0468 -1.3026 -0.8800
   70MOL0     H 9428   7.847   4.484  -0.897  0.4724  2.7857 -1.8669
   70MOL0     H 9429   7.764   4.624  -0.907 -0.6025 -0.4611 -0.0867
   70MOL0     H 9430   7.689   4.514  -1.105 -2.7992  0.2087  0.0948
   70MOL0     H 9431   7.566   4.463  -0.986  0.1936  0.5101 -2.8675
   70MOL0     H 9432   7.731   5.092  -0.291  0.2141 -0.3625  0.5554
   70MOL0     H 9433   7.885   5.279  -0.222 -0.9541  0.0851  1.0990
   70MOL0     H 9434   8.132   5.466   0.065 -0.1690 -1.0286 -0.0506
   70MOL0     H 9435   8.279   5.628   0.180 -0.6105 -1.3704  1.9353
   70MOL0     H 9436   9.998   5.712   1.240  0.6367  0.7721 -2.5381
   70MOL0     H 9437  10.245   5.736   1.200 -1.0360  1.4664  1.3827
   70MOL0     H 9438  10.651   5.682   1.136  0.6640  0.3231 -0.7189
   70MOL0     H 9439  10.879   5.685   1.090 -0.7312 -2.1293 -2.6000
   70MOL0     H 9440  11.026   5.804   1.281 -0.3607  0.1936  2.7794
   70MOL0     H 9441  11.128   5.735   1.406 -0.8512 -0.0276  0.3352
   70MOL0     H 9442  11.227   5.756   1.116 -1.1974 -0.4464  1.2010
   70MOL0     H 9443  11.318   5.697   1.249 -1.2960 -1.6698 -0.6771
   70MOL0     H 9444  11.296   5.925   1.359  2.5831  1.3277 -1.2068
   70MOL0     H 9445  11.210   5.979   1.214 -0.6614 -0.2784  0.3731
   70MOL0     H 9446  11.394   5.959   1.078 -0.1261 -1.8152 -0.9886
   70MOL0     H 9447  11.477   5.837   1.181 -0.1202 -0.9011 -2.2457
   70MOL0     H 9448  11.609   6.216   1.331  1.5866  1.7568 -2.1163
   70MOL0     H 9449  10.961   5.516   1.473  1.0439  0.5546 -0.7335
   70MOL0     H 9450  10.724   5.481   1.504 -3.2238 -0.1048 -1.3279
   71MOL0     O 9451   2.600   9.845   6.766 -0.3373  0.0260 -0.5639
   71MOL0     C 9452   2.548   9.736   6.784  0.5028  0.2270  0.0114
   71MOL0     O 9453   2.425   9.713   6.838  1.3817 -0.3751  0.3488
   71MOL0     C 9454   2.350   9.818   6.896 -0.4388 -0.2621  0.3483
   71MOL0     C 9455   2.336   9.817   7.038 -0.5804 -0.0333  0.0766
   71MOL0     C 9456   2.244   9.909   7.101  0.0086 -0.2934  0.1825
   71MOL0     C 9457   2.174  10.005   7.031 -0.7629 -0.2507  0.1805
   71MOL0     O 9458   2.090  10.088   7.103  0.1159 -0.4444  0.3298
   71MOL0     C 9459   1.947  10.059   7.084  0.0147  0.6963 -0.1805
   71MOL0     C 9460   1.887  10.108   7.220  0.0709  0.0519 -0.4988
   71MOL0     C 9461   1.735  10.147   7.213  0.8371 -0.2626 -0.1596
   71MOL0     C 9462   1.644  10.031   7.223  0.2971  0.6213 -0.1246
   71MOL0     C 9463   1.499  10.062   7.262  0.1471 -0.5668 -0.0750
   71MOL0     C 9464   1.407   9.936   7.262 -0.6529  0.5490  0.0178
   71MOL0     C 9465   1.256   9.974   7.269  0.1114  0.1623  0.2928
   71MOL0     C 9466   1.169   9.847   7.289  0.4120  0.1671 -0.6664
   71MOL0     N 9467   1.029   9.889   7.284 -0.9135 -0.6402  0.0466
   71MOL0     C 9468   0.929   9.839   7.196  0.6181 -0.2476 -0.0128
   71MOL0     C 9469   0.811   9.860   7.267 -0.5125  0.2588 -0.0111
   71MOL0     C 9470   0.667   9.827   7.226 -0.1501  0.3220 -0.1666
   71MOL0     C 9471   0.567   9.937   7.230  0.3124  0.4940 -0.3978
   71MOL0     C 9472   0.537   9.997   7.371  0.6492 -0.4161 -0.8447
   71MOL0     C 9473   0.413  10.087   7.368  0.1020 -0.2700  0.4331
   71MOL0     O 9474   0.294  10.009   7.386 -0.2665  0.4663  0.3138
   71MOL0     C 9475   0.181  10.070   7.424  0.0068  0.6045  0.0986
   71MOL0     C 9476   0.067   9.988   7.419 -0.2895 -0.7373  0.1507
   71MOL0     C 9477  -0.061  10.024   7.455  0.0972  0.4793 -0.0054
   71MOL0     C 9478  -0.166   9.924   7.434 -0.5072 -0.0843  0.2521
   71MOL0     C 9479  -0.085  10.153   7.492 -0.4657  0.2108  0.4386
   71MOL0     C 9480  -0.219  10.211   7.511  1.3755 -0.2219  0.1722
   71MOL0     O 9481  -0.234  10.343   7.514  0.6565  0.1986 -0.6696
   71MOL0     C 9482  -0.363  10.396   7.548 -0.5713  0.2881 -0.2006
   71MOL0     C 9483  -0.458  10.403   7.446  0.1350 -0.0623  0.1632
   71MOL0     C 9484  -0.585  10.461   7.475  0.2591  0.9658  0.1651
   71MOL0     C 9485  -0.619  10.511   7.601 -0.6430 -0.4846  0.7864
   71MOL0     O 9486  -0.748  10.541   7.645 -0.6697  0.2780  0.4820
   71MOL0     C 9487  -0.833  10.428   7.616 -0.1926 -0.1946 -1.0930
   71MOL0     C 9488  -0.958  10.447   7.697  0.1489 -0.3729  0.0862
   71MOL0     C 9489  -0.941  10.443   7.851  0.6832 -0.1983 -0.0050
   71MOL0     C 9490  -1.064  10.504   7.921  0.8077 -0.3690  0.0316
   71MOL0     C 9491  -1.191  10.418   7.896  0.0232 -0.5538 -0.0402
   71MOL0     C 9492  -1.328  10.485   7.935 -0.6517  0.2972  0.2832
   71MOL0     C 9493  -1.434  10.382   7.930 -0.8612  0.0810  0.6082
   71MOL0     C 9494  -1.576  10.448   7.952 -0.3178  0.1288  0.9494
   71MOL0    Cl 9495  -1.619  10.495   8.126  0.2565  0.2939 -0.5615
   71MOL0     C 9496  -0.523  10.518   7.695 -0.3139 -0.5605 -0.2452
   71MOL0     C 9497  -0.392  10.463   7.671 -0.3107 -0.1152  0.4427
   71MOL0     O 9498  -0.317  10.134   7.518 -0.0576  0.3174  0.0344
   71MOL0     C 9499   0.030  10.241   7.488  1.0014  0.6133  0.0243
   71MOL0     C 9500   0.153  10.201   7.466  1.5199 -0.1016 -0.3109
   71MOL0     N 9501   0.846   9.909   7.388 -0.1284 -0.4782 -0.5644
   71MOL0     N 9502   0.966   9.935   7.395  0.2929 -0.8981 -1.0062
   71MOL0     C 9503   2.199  10.016   6.896 -0.2181  0.3709  0.4619
   71MOL0     C 9504   2.279   9.923   6.823 -0.0897 -0.1923  0.1633
   71MOL0     C 9505   2.620   9.606   6.749  0.1259 -0.6728  0.4503
   71MOL0     C 9506   2.555   9.482   6.768 -0.0268  0.3552 -0.1704
   71MOL0     C 9507   2.625   9.363   6.724  0.7838 -0.5269  0.3366
   71MOL0     C 9508   2.753   9.375   6.676  0.0622  0.6566 -0.1654
   71MOL0     O 9509   2.821   9.254   6.650 -0.2850  0.3557  0.0685
   71MOL0     C 9510   2.960   9.259   6.619  0.1759  0.3905 -0.0145
   71MOL0     C 9511   3.010   9.122   6.666  0.8487 -0.8240  0.1415
   71MOL0     C 9512   3.164   9.111   6.659  0.2426  0.5251  0.5697
   71MOL0     C 9513   3.190   8.975   6.714  0.0204  0.0421  0.0507
   71MOL0     C 9514   3.342   8.964   6.713 -0.7120  0.3885 -0.0412
   71MOL0     C 9515   3.464   8.971   6.732 -0.7163  0.0737  0.6797
   71MOL0     C 9516   2.805   9.495   6.643  0.2058 -0.9212 -0.5743
   71MOL0     C 9517   2.743   9.612   6.679  0.3753 -1.4152 -0.7846
   71MOL0     H 9518   2.386   9.739   7.096  1.5092  2.8637  2.5083
   71MOL0     H 9519   2.236   9.899   7.208  0.2872  1.5126  0.4143
   71MOL0     H 9520   1.895  10.111   7.003 -3.1308 -0.4822  0.9191
   71MOL0     H 9521   1.930   9.952   7.069  1.2792 -0.2306  3.6466
   71MOL0     H 9522   1.906  10.032   7.296 -1.6961  0.1766  0.1066
   71MOL0     H 9523   1.943  10.190   7.266 -2.0961  0.1011  2.2853
   71MOL0     H 9524   1.704  10.218   7.290 -2.6266 -0.7129 -0.9775
   71MOL0     H 9525   1.702  10.191   7.118 -3.2086 -2.0718  0.2376
   71MOL0     H 9526   1.655   9.972   7.131 -2.3557 -1.2186  0.6227
   71MOL0     H 9527   1.681   9.967   7.304  0.7689  2.3253  1.0590
   71MOL0     H 9528   1.502  10.102   7.364  2.1307  0.5971 -0.5339
   71MOL0     H 9529   1.461  10.141   7.197  2.7940  0.1402 -0.8829
   71MOL0     H 9530   1.421   9.879   7.170  0.2844 -0.3865  0.7172
   71MOL0     H 9531   1.432   9.878   7.352 -2.8735  0.6971  0.8201
   71MOL0     H 9532   1.211  10.052   7.330 -1.3355  0.3202 -0.9109
   71MOL0     H 9533   1.226   9.999   7.166 -0.0691 -0.7480  0.1113
   71MOL0     H 9534   1.174   9.808   7.391 -1.0815 -1.2370 -1.0850
   71MOL0     H 9535   1.207   9.766   7.226 -0.8948 -3.1857  2.4333
   71MOL0     H 9536   0.933   9.791   7.100 -2.3052 -5.0782  1.9162
   71MOL0     H 9537   0.655   9.779   7.128 -1.0141  0.0300  0.0727
   71MOL0     H 9538   0.636   9.755   7.302  1.3362 -0.8129 -0.5823
   71MOL0     H 9539   0.475   9.904   7.181 -1.0389 -1.9172  3.3395
   71MOL0     H 9540   0.611  10.019   7.172  0.3071  2.3185  2.0228
   71MOL0     H 9541   0.622  10.050   7.415  1.5436 -2.5145  0.1171
   71MOL0     H 9542   0.516   9.916   7.442 -2.5168  0.0423 -1.1085
   71MOL0     H 9543   0.408  10.141   7.273 -0.2603  1.7323  1.5198
   71MOL0     H 9544   0.419  10.163   7.447  0.5741  0.2339 -0.0801
   71MOL0     H 9545   0.074   9.887   7.379 -0.5060 -0.9870  0.7278
   71MOL0     H 9546  -0.210   9.888   7.528 -1.4586 -2.4004 -0.9873
   71MOL0     H 9547  -0.249   9.963   7.374 -0.7445 -2.3920 -1.0457
   71MOL0     H 9548  -0.122   9.840   7.379 -0.3388 -0.0329  0.3095
   71MOL0     H 9549  -0.426  10.380   7.345  0.1511  0.5481  0.0203
   71MOL0     H 9550  -0.657  10.467   7.395  0.8227  0.3900 -0.4045
   71MOL0     H 9551  -0.852  10.418   7.509  0.1491 -0.3561 -1.1393
   71MOL0     H 9552  -0.782  10.337   7.649  0.9860 -0.6355 -3.8385
   71MOL0     H 9553  -1.004  10.540   7.662  2.3121  0.6603 -0.1798
   71MOL0     H 9554  -1.027  10.367   7.668 -0.2157 -0.6131  1.5334
   71MOL0     H 9555  -0.847  10.495   7.870 -0.1512  1.1641  0.5558
   71MOL0     H 9556  -0.942  10.338   7.881 -2.8952  0.0677  1.3355
   71MOL0     H 9557  -1.050  10.504   8.030  0.3218  0.1629  0.0985
   71MOL0     H 9558  -1.089  10.608   7.896  0.2084 -0.8577 -1.5148
   71MOL0     H 9559  -1.175  10.326   7.953  0.7258  1.6820  3.7022
   71MOL0     H 9560  -1.209  10.406   7.789 -2.2629  0.7350  0.1431
   71MOL0     H 9561  -1.297  10.508   8.037  2.2165 -2.1571  0.1080
   71MOL0     H 9562  -1.351  10.581   7.888 -0.4305 -0.1043 -0.6822
   71MOL0     H 9563  -1.416  10.302   8.002 -1.5476  0.9537  1.7879
   71MOL0     H 9564  -1.429  10.338   7.830 -0.1547  0.3974  0.5043
   71MOL0     H 9565  -1.646  10.379   7.905  0.6855  1.1627 -2.3569
   71MOL0     H 9566  -1.600  10.535   7.890 -1.5233 -0.3839  0.6606
   71MOL0     H 9567  -0.560  10.553   7.791 -1.8999 -2.8115  0.0534
   71MOL0     H 9568  -0.327  10.456   7.757 -2.0847 -1.4086  1.7744
   71MOL0     H 9569   0.000  10.341   7.518  1.0239  0.1204  1.7651
   71MOL0     H 9570   0.218  10.286   7.483 -1.4441  2.3752 -0.3400
   71MOL0     H 9571   2.144  10.093   6.841 -1.3134  0.6739  1.9101
   71MOL0     H 9572   2.303   9.933   6.718  1.0000 -0.0491  0.4076
   71MOL0     H 9573   2.453   9.475   6.802  0.2742 -3.2204  0.3847
   71MOL0     H 9574   2.571   9.270   6.731 -4.6636  2.2230 -0.1519
   71MOL0     H 9575   2.986   9.274   6.513 -0.1505 -1.2286 -0.3536
   71MOL0     H 9576   3.007   9.347   6.663  1.2943 -0.7396  1.1317
   71MOL0     H 9577   2.969   9.047   6.597 -0.0006  1.1490 -1.6388
   71MOL0     H 9578   2.970   9.099   6.765  1.8373  1.6741  1.1956
   71MOL0     H 9579   3.225   9.182   6.716  1.3322  0.2352 -0.2082
   71MOL0     H 9580   3.189   9.110   6.553 -0.5463 -1.2826  0.3567
   71MOL0     H 9581   3.154   8.894   6.649  0.3833 -0.5489  0.5740
   71MOL0     H 9582   3.133   8.941   6.800 -0.1366 -1.7400 -0.7110
   71MOL0     H 9583   3.570   8.963   6.746 -0.3748 -0.1873 -1.7017
   71MOL0     H 9584   2.897   9.516   6.590  0.5587  3.5584  1.3712
   71MOL0     H 9585   2.797   9.703   6.653  3.1584 -2.9658 -0.7337
   72MOL0     O 9586   5.013   9.107   3.174  0.5672  0.1009 -0.1318
   72MOL0     C 9587   5.057   9.205   3.235  0.0597  0.4919 -0.5610
   72MOL0     O 9588   4.996   9.270   3.338  0.1049  0.0040  0.1855
   72MOL0     C 9589   4.863   9.244   3.348 -0.0288  0.0841  0.1737
   72MOL0     C 9590   4.775   9.320   3.274  0.6379  0.7200  0.6434
   72MOL0     C 9591   4.638   9.315   3.285 -0.5476  0.2633 -0.5994
   72MOL0     C 9592   4.588   9.236   3.385 -0.3787  0.3586  0.8941
   72MOL0     O 9593   4.448   9.244   3.417 -0.3165  0.4672  0.0536
   72MOL0     C 9594   4.370   9.189   3.313 -0.9321  0.4774  1.2046
   72MOL0     C 9595   4.271   9.078   3.348 -0.5777  0.3825  0.7953
   72MOL0     C 9596   4.219   9.119   3.487  0.3754  0.2498  0.0958
   72MOL0     C 9597   4.090   9.045   3.509  0.6886 -0.5374  0.2285
   72MOL0     C 9598   4.047   9.067   3.653  0.0578 -0.1733  0.3372
   72MOL0     C 9599   3.936   8.967   3.678  0.0075 -0.3753 -0.3260
   72MOL0     C 9600   3.892   8.955   3.822 -0.0269 -0.9640  0.3683
   72MOL0     C 9601   3.831   8.812   3.829  0.6383 -0.6800 -0.0559
   72MOL0     N 9602   3.731   8.800   3.936 -0.1369  0.7086 -0.1821
   72MOL0     C 9603   3.603   8.853   3.941 -0.4112  0.4274  0.5356
   72MOL0     C 9604   3.544   8.795   4.046  0.4314 -0.2265  0.3590
   72MOL0     C 9605   3.400   8.815   4.086 -0.1366 -0.1211  0.1756
   72MOL0     C 9606   3.382   8.814   4.238  0.2962  0.1913  0.0260
   72MOL0     C 9607   3.384   8.668   4.298 -0.4438 -1.0504 -1.1680
   72MOL0     C 9608   3.273   8.586   4.251 -0.4228  0.1806  0.0646
   72MOL0     O 9609   3.152   8.666   4.233  0.4344  0.0340 -0.6767
   72MOL0     C 9610   3.049   8.660   4.319 -0.3142 -0.4810  0.0798
   72MOL0     C 9611   3.058   8.612   4.447 -0.3469  0.4106 -1.0663
   72MOL0     C 9612   2.945   8.597   4.531  0.6201  0.1712 -0.8016
   72MOL0     C 9613   2.978   8.551   4.673  1.2587  1.0491  0.3034
   72MOL0     C 9614   2.808   8.629   4.482 -0.7940  0.3077  0.3920
   72MOL0     C 9615   2.687   8.636   4.559  1.1464  0.1513  0.6016
   72MOL0     O 9616   2.569   8.680   4.495  0.2251  0.2457 -0.0948
   72MOL0     C 9617   2.462   8.677   4.578  0.1561  0.6296  0.5743
   72MOL0     C 9618   2.454   8.768   4.678  0.0149 -0.2616  0.3211
   72MOL0     C 9619   2.350   8.753   4.768  0.1627  0.1822 -0.5335
   72MOL0     C 9620   2.246   8.660   4.749 -0.5019 -0.0200 -0.0725
   72MOL0     O 9621   2.154   8.660   4.852 -0.3991 -0.1999  0.7513
   72MOL0     C 9622   2.029   8.586   4.837 -0.0814  0.0074 -0.4613
   72MOL0     C 9623   1.943   8.690   4.759 -0.0599  0.0218 -0.3378
   72MOL0     C 9624   1.889   8.802   4.848  0.2623  0.4979  0.9639
   72MOL0     C 9625   1.776   8.884   4.770 -0.7979 -0.1462  0.9471
   72MOL0     C 9626   1.693   8.978   4.857 -0.4600  0.2460 -0.1719
   72MOL0     C 9627   1.564   9.014   4.775  1.1502  0.3830  0.1101
   72MOL0     C 9628   1.506   9.148   4.825  0.2338  0.4603  1.0555
   72MOL0     C 9629   1.391   9.204   4.736  0.8754 -0.9036 -0.5002
   72MOL0    Cl 9630   1.257   9.098   4.761 -0.0864 -0.1242 -0.3540
   72MOL0     C 9631   2.251   8.575   4.639 -1.0012  0.6854  0.1337
   72MOL0     C 9632   2.362   8.581   4.554 -0.3782 -0.0197  0.1569
   72MOL0     O 9633   2.690   8.585   4.670 -0.1231 -0.0266  0.6662
   72MOL0     C 9634   2.806   8.677   4.353 -0.2509  0.5175  0.6024
   72MOL0     C 9635   2.923   8.700   4.279  0.6326  0.0964 -1.3244
   72MOL0     N 9636   3.630   8.703   4.105 -0.3566  0.0321 -0.3902
   72MOL0     N 9637   3.742   8.706   4.039  0.0242 -0.3025  0.7171
   72MOL0     C 9638   4.671   9.158   3.466  0.1745  0.1811  0.0087
   72MOL0     C 9639   4.808   9.163   3.451 -1.2308 -0.6801  0.0435
   72MOL0     C 9640   5.200   9.246   3.209  0.0025  0.9790  1.1611
   72MOL0     C 9641   5.289   9.156   3.150 -0.0834 -1.0606  0.1532
   72MOL0     C 9642   5.419   9.196   3.098 -0.5960 -0.5629 -1.1766
   72MOL0     C 9643   5.450   9.336   3.108  0.8286 -0.2498  0.1154
   72MOL0     O 9644   5.564   9.386   3.062  0.4633 -0.0210 -0.2899
   72MOL0     C 9645   5.592   9.352   2.924  0.1146 -0.4215 -0.6214
   72MOL0     C 9646   5.724   9.426   2.875 -0.5501  0.2851 -0.2996
   72MOL0     C 9647   5.721   9.578   2.857 -0.8081  0.2514 -0.3817
   72MOL0     C 9648   5.613   9.619   2.762 -0.6145 -0.2941  0.3852
   72MOL0     C 9649   5.606   9.771   2.751  0.5424  1.3751 -0.3604
   72MOL0     C 9650   5.587   9.889   2.731  0.0942 -0.3816 -0.5518
   72MOL0     C 9651   5.358   9.417   3.178 -0.6839  0.6034  0.4027
   72MOL0     C 9652   5.241   9.372   3.234 -0.0449  0.2355 -0.7046
   72MOL0     H 9653   4.814   9.384   3.195  3.1995 -3.1593 -1.5539
   72MOL0     H 9654   4.572   9.386   3.237 -1.8897  0.5466  1.5512
   72MOL0     H 9655   4.315   9.279   3.285  2.2162  2.0654 -0.4998
   72MOL0     H 9656   4.422   9.156   3.222 -0.7728  0.5917  1.2531
   72MOL0     H 9657   4.187   9.077   3.278 -2.1403  3.7198  2.3696
   72MOL0     H 9658   4.307   8.975   3.347 -0.7477  0.3146 -0.2967
   72MOL0     H 9659   4.292   9.096   3.565  1.8710 -1.6450 -1.7474
   72MOL0     H 9660   4.204   9.225   3.507 -3.6991 -0.3496  1.1280
   72MOL0     H 9661   4.016   9.099   3.448  1.5968  1.6222  0.9670
   72MOL0     H 9662   4.108   8.940   3.480 -0.1378 -0.1312 -1.9928
   72MOL0     H 9663   4.132   9.043   3.718  2.5031 -1.6015 -3.0826
   72MOL0     H 9664   4.012   9.168   3.671 -1.0368 -0.9198  2.9177
   72MOL0     H 9665   3.849   8.985   3.614  0.3622 -0.0189 -0.7143
   72MOL0     H 9666   3.984   8.872   3.654  3.0178  1.0228 -0.2702
   72MOL0     H 9667   3.978   8.979   3.886  0.8277  0.3205 -1.2096
   72MOL0     H 9668   3.808   9.023   3.838  1.6569  2.0437 -2.4832
   72MOL0     H 9669   3.907   8.734   3.838 -1.0749 -2.8248 -2.5565
   72MOL0     H 9670   3.770   8.790   3.742 -0.8888  0.1281  0.7632
   72MOL0     H 9671   3.557   8.924   3.874 -0.3457 -0.4129 -0.4190
   72MOL0     H 9672   3.364   8.911   4.048 -2.4324 -1.8976 -2.5673
   72MOL0     H 9673   3.339   8.733   4.046  0.0536  0.1606 -0.7210
   72MOL0     H 9674   3.289   8.867   4.263  2.1528  3.3639  0.7515
   72MOL0     H 9675   3.463   8.870   4.285 -2.6458  4.7832  0.2327
   72MOL0     H 9676   3.388   8.677   4.407 -0.4843 -1.8936 -1.0911
   72MOL0     H 9677   3.470   8.608   4.268  0.6296 -0.4661  0.5634
   72MOL0     H 9678   3.250   8.504   4.320 -0.0417 -2.6377 -2.9265
   72MOL0     H 9679   3.296   8.545   4.152 -3.3980 -0.0165 -0.6491
   72MOL0     H 9680   3.151   8.575   4.489 -2.4147 -2.9877  0.9907
   72MOL0     H 9681   2.932   8.453   4.689  1.7083  0.9659  1.1816
   72MOL0     H 9682   3.082   8.538   4.703  1.3302 -2.0749 -0.9276
   72MOL0     H 9683   2.929   8.626   4.736  0.3289  2.5096 -2.0474
   72MOL0     H 9684   2.525   8.843   4.711 -0.2946  0.0114  0.3712
   72MOL0     H 9685   2.350   8.828   4.847 -0.6458  1.6897 -1.9110
   72MOL0     H 9686   2.037   8.491   4.784  1.7623 -0.7567  1.0735
   72MOL0     H 9687   1.982   8.558   4.932  1.7275  1.7515  1.0346
   72MOL0     H 9688   2.010   8.738   4.687  1.7957  1.5512  2.2410
   72MOL0     H 9689   1.862   8.634   4.710  0.4149 -1.4869  0.5496
   72MOL0     H 9690   1.967   8.867   4.888  1.2532 -0.1059  0.0869
   72MOL0     H 9691   1.832   8.754   4.928  0.3418  1.4427  1.5971
   72MOL0     H 9692   1.836   8.936   4.694  0.7214 -3.7215 -0.5264
   72MOL0     H 9693   1.711   8.811   4.721 -0.2456 -0.3834  0.5583
   72MOL0     H 9694   1.750   9.064   4.895  0.1985 -0.8220  1.3512
   72MOL0     H 9695   1.659   8.921   4.944  0.4952 -0.5453 -0.3101
   72MOL0     H 9696   1.579   9.015   4.666  1.4200  0.5404  0.1464
   72MOL0     H 9697   1.487   8.937   4.785  0.1758  0.9236 -2.3832
   72MOL0     H 9698   1.590   9.217   4.810 -1.7773  3.0316  0.8233
   72MOL0     H 9699   1.484   9.154   4.932  1.4017  1.3164  1.2707
   72MOL0     H 9700   1.429   9.203   4.634  1.2746  1.3047 -0.4174
   72MOL0     H 9701   1.368   9.306   4.767  2.4832 -0.7412  0.2680
   72MOL0     H 9702   2.176   8.498   4.623  0.7719 -1.8947  3.0872
   72MOL0     H 9703   2.374   8.516   4.468  0.2426  1.8345 -1.2290
   72MOL0     H 9704   2.714   8.720   4.315 -0.0963  1.1392  0.9171
   72MOL0     H 9705   2.904   8.735   4.178 -0.7560 -1.5342 -1.6844
   72MOL0     H 9706   4.624   9.101   3.545 -1.2403 -0.0752 -0.9699
   72MOL0     H 9707   4.875   9.113   3.520 -2.4894  0.2705  2.0358
   72MOL0     H 9708   5.268   9.053   3.125  4.2673 -1.4371 -3.2076
   72MOL0     H 9709   5.483   9.119   3.058  0.1190  0.1885 -1.5151
   72MOL0     H 9710   5.607   9.243   2.919  0.2067 -0.3535 -2.1228
   72MOL0     H 9711   5.508   9.378   2.860 -0.1896  0.1905  0.0111
   72MOL0     H 9712   5.757   9.376   2.783  2.5027 -1.0332  1.3765
   72MOL0     H 9713   5.798   9.395   2.949  0.1462 -0.2655 -1.2081
   72MOL0     H 9714   5.817   9.613   2.817 -0.0937  1.3070  2.0842
   72MOL0     H 9715   5.710   9.631   2.952  0.4839  1.4370 -0.8493
   72MOL0     H 9716   5.523   9.575   2.806  0.7336 -2.9273  0.6668
   72MOL0     H 9717   5.624   9.567   2.667 -0.3248  1.4553 -0.5818
   72MOL0     H 9718   5.553   9.989   2.718  0.6148 -0.5132 -3.7773
   72MOL0     H 9719   5.395   9.518   3.178 -1.6510  0.9870 -0.9330
   72MOL0     H 9720   5.178   9.433   3.297 -0.2460  0.6852 -1.3253
   73MOL0     O 9721   1.075   9.390   0.921  0.0264 -0.0713  0.2278
   73MOL0     C 9722   1.143   9.308   0.857  0.3681  0.5467 -0.5692
   73MOL0     O 9723   1.093   9.225   0.769  0.1717 -0.0654  1.2848
   73MOL0     C 9724   0.959   9.193   0.776 -0.2580 -0.0467  0.4500
   73MOL0     C 9725   0.919   9.107   0.883 -0.2779  0.7378  0.4151
   73MOL0     C 9726   0.793   9.047   0.871  0.0425  1.1112 -0.5983
   73MOL0     C 9727   0.709   9.071   0.764 -0.9622 -1.1336  0.9396
   73MOL0     O 9728   0.597   9.005   0.757  0.1543  0.1695 -0.0540
   73MOL0     C 9729   0.552   8.965   0.629  0.4788 -0.0993  0.4497
   73MOL0     C 9730   0.480   8.831   0.635  0.6267  0.0168 -0.5226
   73MOL0     C 9731   0.334   8.847   0.677 -0.3825 -0.0783  1.2639
   73MOL0     C 9732   0.280   8.721   0.723  0.0945  0.7081 -0.7059
   73MOL0     C 9733   0.138   8.702   0.757  0.5338 -0.5986 -0.6003
   73MOL0     C 9734   0.086   8.808   0.864  0.0110 -0.0819 -0.1805
   73MOL0     C 9735  -0.066   8.834   0.842 -0.3973  0.0557 -0.2917
   73MOL0     C 9736  -0.146   8.711   0.878  0.7304  0.1324  0.3132
   73MOL0     N 9737  -0.291   8.716   0.843 -0.3928 -0.2402 -0.7107
   73MOL0     C 9738  -0.359   8.837   0.811  0.2387  0.3409 -0.8440
   73MOL0     C 9739  -0.478   8.796   0.769 -0.1278  0.9403  0.8320
   73MOL0     C 9740  -0.568   8.895   0.702  0.0274  1.2988  0.2328
   73MOL0     C 9741  -0.650   8.971   0.800  0.4621 -0.0795  0.4619
   73MOL0     C 9742  -0.730   9.080   0.734 -0.3719  0.6655  1.0424
   73MOL0     C 9743  -0.793   9.179   0.829 -0.3787  0.6307  0.4175
   73MOL0     O 9744  -0.912   9.120   0.868  0.5206  0.2185 -0.3497
   73MOL0     C 9745  -1.031   9.183   0.826 -0.2621  0.9855  0.6464
   73MOL0     C 9746  -1.055   9.253   0.708  0.6532 -0.2889 -0.1087
   73MOL0     C 9747  -1.182   9.307   0.690 -0.1408  0.2149 -0.1743
   73MOL0     C 9748  -1.204   9.393   0.574 -0.4734  0.1044  0.2483
   73MOL0     C 9749  -1.289   9.285   0.781  0.3388  0.1553 -0.0990
   73MOL0     C 9750  -1.434   9.346   0.769 -0.2008  0.2863  1.2021
   73MOL0     O 9751  -1.525   9.294   0.856  0.5546  0.1396  0.5546
   73MOL0     C 9752  -1.658   9.330   0.836  0.5549  0.6049 -0.8080
   73MOL0     C 9753  -1.736   9.256   0.752 -0.4430  0.5771  0.1863
   73MOL0     C 9754  -1.874   9.273   0.743  0.8088 -0.2538 -0.7069
   73MOL0     C 9755  -1.937   9.367   0.828  0.1294 -1.6072 -0.5435
   73MOL0     O 9756  -2.072   9.395   0.824 -0.4289 -0.1746 -0.1774
   73MOL0     C 9757  -2.163   9.300   0.775 -0.5518  0.9978 -0.4399
   73MOL0     C 9758  -2.302   9.354   0.790 -0.3263  0.2592 -0.1127
   73MOL0     C 9759  -2.343   9.456   0.677  0.4155  0.1083 -0.4278
   73MOL0     C 9760  -2.487   9.505   0.680  0.4672 -0.1642 -0.3833
   73MOL0     C 9761  -2.528   9.568   0.545  0.8787  0.5690  0.6977
   73MOL0     C 9762  -2.682   9.595   0.539 -0.1861 -0.6915 -0.5939
   73MOL0     C 9763  -2.720   9.628   0.398  0.4707 -0.1215  0.3359
   73MOL0     C 9764  -2.692   9.526   0.291  0.8913 -1.0004  0.2788
   73MOL0    Cl 9765  -2.751   9.367   0.341  0.0756 -0.3069  0.2986
   73MOL0     C 9766  -1.860   9.442   0.923  0.1902 -0.0863  0.1687
   73MOL0     C 9767  -1.726   9.413   0.930  0.6246 -0.2121 -0.3107
   73MOL0     O 9768  -1.458   9.438   0.694 -0.1043  0.0237 -1.0081
   73MOL0     C 9769  -1.267   9.202   0.889 -0.4939  0.4728 -0.0616
   73MOL0     C 9770  -1.139   9.156   0.916 -0.4306  0.3792 -0.0422
   73MOL0     N 9771  -0.482   8.657   0.764  0.2993  0.6097  0.4764
   73MOL0     N 9772  -0.372   8.610   0.817  0.3330  0.7886  0.0748
   73MOL0     C 9773   0.749   9.173   0.667  0.3327 -0.2318 -0.2793
   73MOL0     C 9774   0.876   9.229   0.669  0.0405  0.3671  0.2621
   73MOL0     C 9775   1.291   9.294   0.879 -0.8501 -1.8762 -0.2937
   73MOL0     C 9776   1.362   9.369   0.976  0.2331 -0.5701 -0.2142
   73MOL0     C 9777   1.492   9.330   1.009  0.6175 -0.4819 -0.3943
   73MOL0     C 9778   1.556   9.221   0.944  1.3560 -0.7671 -0.8395
   73MOL0     O 9779   1.679   9.171   0.970 -0.4268 -0.5075 -0.0230
   73MOL0     C 9780   1.772   9.254   1.044  0.2698  0.3468 -0.2985
   73MOL0     C 9781   1.768   9.206   1.190  0.1766  0.2577  0.0762
   73MOL0     C 9782   1.871   9.278   1.276 -0.2396 -0.2379  0.4772
   73MOL0     C 9783   1.891   9.230   1.417  0.0738  0.3786 -0.8279
   73MOL0     C 9784   1.766   9.274   1.480 -0.5621 -0.6175 -0.1271
   73MOL0     C 9785   1.661   9.312   1.532  0.4156  0.2633  0.4112
   73MOL0     C 9786   1.485   9.158   0.847 -0.4901 -0.6505 -0.7700
   73MOL0     C 9787   1.357   9.191   0.806 -1.1767  0.1035 -0.4665
   73MOL0     H 9788   0.985   9.083   0.966  0.1112  1.9602  0.4709
   73MOL0     H 9789   0.755   8.983   0.949 -2.8409  3.4668  0.1252
   73MOL0     H 9790   0.477   9.038   0.599  0.8829 -0.0560 -0.4923
   73MOL0     H 9791   0.637   8.974   0.560  1.1532  0.7780  1.3581
   73MOL0     H 9792   0.497   8.787   0.536 -0.5788 -0.2772 -0.6122
   73MOL0     H 9793   0.531   8.765   0.706 -1.7795 -0.7214  0.6221
   73MOL0     H 9794   0.309   8.924   0.750 -0.6550  4.4218 -3.0381
   73MOL0     H 9795   0.274   8.871   0.588 -1.9994 -3.0125  1.4143
   73MOL0     H 9796   0.306   8.635   0.660  1.4830 -0.4766  1.3405
   73MOL0     H 9797   0.332   8.698   0.817 -0.4700 -1.8769 -0.9574
   73MOL0     H 9798   0.086   8.707   0.660 -0.2465 -1.0917 -0.2151
   73MOL0     H 9799   0.126   8.601   0.796  1.4798 -0.9376 -1.1576
   73MOL0     H 9800   0.109   8.774   0.965 -2.3975  2.6278  1.4280
   73MOL0     H 9801   0.138   8.903   0.850  0.8914 -1.0141 -5.0516
   73MOL0     H 9802  -0.093   8.915   0.910 -1.9569 -0.4246 -0.3033
   73MOL0     H 9803  -0.075   8.862   0.736 -0.8385  0.3977 -0.1618
   73MOL0     H 9804  -0.139   8.706   0.987 -0.3292 -1.4001  0.3511
   73MOL0     H 9805  -0.100   8.619   0.841  1.7780  1.1452 -0.9948
   73MOL0     H 9806  -0.330   8.941   0.824  0.7734  0.1870 -0.7775
   73MOL0     H 9807  -0.498   8.959   0.648  1.2687  2.1281  2.6959
   73MOL0     H 9808  -0.620   8.835   0.626 -0.4699  1.7740  0.1969
   73MOL0     H 9809  -0.584   9.031   0.863  1.9537  1.6775 -2.5352
   73MOL0     H 9810  -0.720   8.909   0.857 -0.0966  1.8509  1.9764
   73MOL0     H 9811  -0.798   9.027   0.667  4.6312  0.6717 -4.8917
   73MOL0     H 9812  -0.679   9.136   0.655 -0.0188 -0.8735  0.1357
   73MOL0     H 9813  -0.800   9.279   0.786  0.7740  0.8509  0.7115
   73MOL0     H 9814  -0.726   9.190   0.915  1.2541 -2.2906 -0.3523
   73MOL0     H 9815  -0.970   9.262   0.641  0.9237 -1.7464  0.0080
   73MOL0     H 9816  -1.283   9.358   0.508 -0.1629  1.7306 -1.0289
   73MOL0     H 9817  -1.224   9.490   0.620  1.0347 -0.0521  1.3436
   73MOL0     H 9818  -1.111   9.404   0.517 -0.1072 -0.3888  0.7304
   73MOL0     H 9819  -1.689   9.192   0.678 -3.0662  0.7398 -1.7721
   73MOL0     H 9820  -1.934   9.212   0.676  2.5530 -3.1154  0.1631
   73MOL0     H 9821  -2.147   9.282   0.669 -4.0484 -3.8969 -0.4957
   73MOL0     H 9822  -2.146   9.208   0.833  1.0296  0.8339 -1.1033
   73MOL0     H 9823  -2.370   9.269   0.777  1.1102 -0.9723  0.0981
   73MOL0     H 9824  -2.320   9.397   0.888  0.9423 -0.9515  0.6847
   73MOL0     H 9825  -2.328   9.428   0.573 -3.0539 -2.7579 -0.3235
   73MOL0     H 9826  -2.284   9.548   0.694 -0.7843  0.9505 -0.6901
   73MOL0     H 9827  -2.550   9.416   0.687 -3.1250  2.2283  0.4166
   73MOL0     H 9828  -2.509   9.569   0.766 -0.9586 -0.0942 -0.7744
   73MOL0     H 9829  -2.488   9.513   0.460  1.2447  2.2370 -0.2621
   73MOL0     H 9830  -2.477   9.665   0.548 -0.3975  1.2487  2.3429
   73MOL0     H 9831  -2.734   9.506   0.577  0.3118 -1.0437 -0.7158
   73MOL0     H 9832  -2.711   9.682   0.597  1.0831 -0.3961 -0.3825
   73MOL0     H 9833  -2.676   9.723   0.366 -2.4329  0.8724 -1.0073
   73MOL0     H 9834  -2.828   9.642   0.404  0.0227 -3.1955  1.4066
   73MOL0     H 9835  -2.587   9.523   0.261  1.1531  0.8669  0.9079
   73MOL0     H 9836  -2.754   9.545   0.203  1.3387 -0.5611  0.0563
   73MOL0     H 9837  -1.911   9.515   0.985 -2.1142 -2.1274  0.8390
   73MOL0     H 9838  -1.678   9.448   1.020  0.9933 -1.0205 -0.1827
   73MOL0     H 9839  -1.348   9.177   0.956  0.8540  0.8552  1.7712
   73MOL0     H 9840  -1.123   9.100   1.008  1.2878  1.4169  0.3448
   73MOL0     H 9841   0.663   9.193   0.603 -1.4391 -0.7420  1.8399
   73MOL0     H 9842   0.908   9.284   0.581 -1.8597  0.3199 -0.5266
   73MOL0     H 9843   1.317   9.448   1.036 -1.3785 -0.9256 -0.8915
   73MOL0     H 9844   1.539   9.391   1.085 -3.6825  3.5938 -0.5780
   73MOL0     H 9845   1.875   9.239   1.011  0.5912 -3.1136  1.7050
   73MOL0     H 9846   1.750   9.361   1.044  0.2217  0.3545 -1.6777
   73MOL0     H 9847   1.787   9.098   1.196  4.9859  0.8181 -0.6764
   73MOL0     H 9848   1.674   9.242   1.233  1.4630 -0.1025  3.5667
   73MOL0     H 9849   1.848   9.385   1.266 -3.6928 -0.7409  1.6136
   73MOL0     H 9850   1.963   9.264   1.219  0.1180 -3.5239  1.6697
   73MOL0     H 9851   1.986   9.273   1.451  0.2606  0.1652 -1.0636
   73MOL0     H 9852   1.905   9.123   1.437  3.2611  1.3225  3.4771
   73MOL0     H 9853   1.567   9.351   1.566  1.2327  0.3369  2.7274
   73MOL0     H 9854   1.530   9.074   0.796  1.6446 -0.2553  0.3757
   73MOL0     H 9855   1.301   9.119   0.747 -0.2848  0.3752 -1.6888
   74MOL0     O 9856   9.139   0.299   9.715  0.3821  0.3712 -0.1280
   74MOL0     C 9857   9.162   0.235   9.616 -1.0296 -0.2876 -0.0507
   74MOL0     O 9858   9.076   0.191   9.526  0.1730 -0.6450 -0.2721
   74MOL0     C 9859   8.943   0.174   9.559 -0.1129 -0.3387 -0.1939
   74MOL0     C 9860   8.900   0.113   9.675 -0.2214 -0.1308  0.5209
   74MOL0     C 9861   8.764   0.085   9.687  0.3336  0.5060 -0.0911
   74MOL0     C 9862   8.666   0.103   9.581 -0.6060 -0.7823 -0.1516
   74MOL0     O 9863   8.530   0.073   9.599  0.1473 -0.2743  0.7853
   74MOL0     C 9864   8.492  -0.008   9.704 -0.3807 -0.3709  0.0852
   74MOL0     C 9865   8.342  -0.058   9.693  0.0744 -0.4680  0.1760
   74MOL0     C 9866   8.300  -0.159   9.797  0.5266 -0.2617 -0.3730
   74MOL0     C 9867   8.160  -0.226   9.778  0.1940 -0.0794  0.2056
   74MOL0     C 9868   8.100  -0.280   9.915 -0.0898 -0.2552 -0.0682
   74MOL0     C 9869   7.964  -0.347   9.891  0.4708 -0.2589  0.1006
   74MOL0     C 9870   7.921  -0.416  10.012 -0.3637  0.3286 -0.3709
   74MOL0     C 9871   7.788  -0.364  10.065 -0.3028  0.0847  0.2802
   74MOL0     N 9872   7.778  -0.218  10.106  0.7453  0.0663  0.8925
   74MOL0     C 9873   7.673  -0.179  10.192 -0.5559 -0.9688  0.1251
   74MOL0     C 9874   7.684  -0.043  10.187 -0.5668  0.7084 -0.1013
   74MOL0     C 9875   7.600   0.059  10.236  0.5045 -1.4481  0.6512
   74MOL0     C 9876   7.600   0.173  10.130 -0.4971 -0.3447 -0.1918
   74MOL0     C 9877   7.457   0.206  10.088 -0.2708 -0.4886  0.4828
   74MOL0     C 9878   7.390   0.134   9.968 -0.2714 -0.2287  0.0621
   74MOL0     O 9879   7.253   0.168   9.944 -0.4849  0.5249  0.2646
   74MOL0     C 9880   7.153   0.148  10.031  0.5772  1.1555 -0.0573
   74MOL0     C 9881   7.036   0.217   9.999 -0.2587 -0.8682 -0.2816
   74MOL0     C 9882   6.913   0.197  10.063 -0.2785  0.7185  0.9430
   74MOL0     C 9883   6.794   0.274  10.002  0.1257 -0.2788 -0.0487
   74MOL0     C 9884   6.912   0.124  10.182 -0.2830  0.3301 -0.8107
   74MOL0     C 9885   6.791   0.108  10.271  0.5391 -0.3903 -0.2192
   74MOL0     O 9886   6.819   0.043  10.388 -1.3815  0.5753  0.0746
   74MOL0     C 9887   6.731   0.008  10.487  0.0739  0.4976 -1.3690
   74MOL0     C 9888   6.645   0.107  10.550 -0.6533 -0.0613  0.6683
   74MOL0     C 9889   6.551   0.080  10.643  0.0972  0.5065  0.3843
   74MOL0     C 9890   6.556  -0.046  10.711 -0.3233  0.3821 -0.3422
   74MOL0     O 9891   6.470  -0.088  10.805  0.1221  0.0607 -0.1698
   74MOL0     C 9892   6.391   0.005  10.880 -0.6650 -0.6851 -0.1015
   74MOL0     C 9893   6.256   0.033  10.809 -0.2405 -0.5819 -0.4900
   74MOL0     C 9894   6.186  -0.096  10.770 -0.1202  0.0958  0.1848
   74MOL0     C 9895   6.034  -0.055  10.736 -0.0297 -0.2720  0.6911
   74MOL0     C 9896   5.939  -0.174  10.702 -0.3388  0.9180 -0.0326
   74MOL0     C 9897   5.810  -0.128  10.634 -0.2197 -0.1929  0.2386
   74MOL0     C 9898   5.707  -0.231  10.587 -0.0395 -0.1976 -0.3998
   74MOL0     C 9899   5.783  -0.331  10.500  0.8114  0.5938 -0.1190
   74MOL0    Cl 9900   5.696  -0.482  10.446 -0.2673 -0.7644 -0.5833
   74MOL0     C 9901   6.650  -0.140  10.667 -0.9005 -0.2540 -0.8717
   74MOL0     C 9902   6.735  -0.122  10.552 -0.3403 -0.7274  0.0313
   74MOL0     O 9903   6.688   0.179  10.249 -0.5414  0.4498 -0.1114
   74MOL0     C 9904   7.035   0.067  10.226 -0.1971  0.1508  0.3045
   74MOL0     C 9905   7.155   0.070  10.150  1.0474 -0.3070 -0.1355
   74MOL0     N 9906   7.811  -0.010  10.132 -0.6599  0.4821  0.7474
   74MOL0     N 9907   7.868  -0.119  10.088 -1.0359  0.1160 -0.0096
   74MOL0     C 9908   8.718   0.159   9.464  0.3677  0.4418 -0.6276
   74MOL0     C 9909   8.853   0.197   9.451  0.1219  0.8984 -0.4624
   74MOL0     C 9910   9.304   0.196   9.598 -0.4781 -0.3535  0.5572
   74MOL0     C 9911   9.398   0.268   9.665 -0.5629 -0.7133  0.3883
   74MOL0     C 9912   9.535   0.251   9.638  0.1873 -0.7185  0.2039
   74MOL0     C 9913   9.578   0.160   9.541  0.0542  0.6287  0.0101
   74MOL0     O 9914   9.709   0.127   9.514 -0.7428 -0.0999  0.6128
   74MOL0     C 9915   9.818   0.191   9.575 -0.6151 -0.4422  0.3500
   74MOL0     C 9916   9.855   0.315   9.498  0.0390 -0.4610 -0.1792
   74MOL0     C 9917   9.980   0.381   9.567 -0.1453 -0.4427  0.3188
   74MOL0     C 9918  10.040   0.497   9.486 -0.0351 -0.4711  0.0001
   74MOL0     C 9919  10.168   0.537   9.546 -0.5930  0.0618 -0.6837
   74MOL0     C 9920  10.277   0.562   9.584  0.5096 -0.4606 -0.5804
   74MOL0     C 9921   9.479   0.087   9.472 -0.2448 -0.7632 -0.3674
   74MOL0     C 9922   9.345   0.106   9.499  1.1149  0.5054  0.1910
   74MOL0     H 9923   8.966   0.083   9.756  0.9618 -1.7600 -0.9751
   74MOL0     H 9924   8.737   0.035   9.780 -2.3740  1.1778 -0.4267
   74MOL0     H 9925   8.566  -0.089   9.707  1.8732  1.5904  0.7726
   74MOL0     H 9926   8.506   0.044   9.799  0.0749 -2.0653  0.9837
   74MOL0     H 9927   8.282   0.034   9.694 -1.0215 -1.1030 -1.7755
   74MOL0     H 9928   8.322  -0.100   9.594  0.0405  1.0382 -0.4814
   74MOL0     H 9929   8.379  -0.230   9.825 -1.6083 -1.6751  2.5428
   74MOL0     H 9930   8.300  -0.104   9.892  0.0733 -1.5222  0.3901
   74MOL0     H 9931   8.090  -0.155   9.734 -0.7494 -1.5930 -0.8274
   74MOL0     H 9932   8.184  -0.308   9.710 -1.7018 -1.8120  1.5265
   74MOL0     H 9933   8.174  -0.348   9.958  1.6535  1.0828 -0.8432
   74MOL0     H 9934   8.085  -0.195   9.981  0.7066 -0.5589  0.5208
   74MOL0     H 9935   7.895  -0.277   9.843  0.2803  0.1860  0.9919
   74MOL0     H 9936   7.995  -0.421   9.817  0.4336  1.5576 -1.8281
   74MOL0     H 9937   7.909  -0.521   9.984  1.9082  0.2819 -1.3723
   74MOL0     H 9938   7.995  -0.417  10.092  1.5270 -4.7689 -1.8036
   74MOL0     H 9939   7.774  -0.420  10.158 -0.3166  0.0068  0.2319
   74MOL0     H 9940   7.700  -0.399  10.009  0.3842  0.1115 -0.8508
   74MOL0     H 9941   7.593  -0.244  10.226 -2.7741  0.6272 -1.7058
   74MOL0     H 9942   7.501   0.018  10.261  0.7916 -3.6383 -1.4168
   74MOL0     H 9943   7.641   0.116  10.320  0.3586  0.0257 -0.2355
   74MOL0     H 9944   7.665   0.153  10.045 -1.6936  0.4180 -1.3194
   74MOL0     H 9945   7.637   0.266  10.176  0.1298 -0.1841 -1.0070
   74MOL0     H 9946   7.457   0.313  10.063 -1.4448 -0.7822 -0.9432
   74MOL0     H 9947   7.386   0.202  10.172 -1.3909 -2.3555 -0.4902
   74MOL0     H 9948   7.410   0.028   9.986  1.3918 -0.2553 -1.6829
   74MOL0     H 9949   7.458   0.165   9.888  0.6391  1.7444  1.5262
   74MOL0     H 9950   7.038   0.279   9.910 -1.7883  0.4341  0.5416
   74MOL0     H 9951   6.767   0.356  10.070 -0.7077 -2.5057  2.4517
   74MOL0     H 9952   6.813   0.311   9.900 -0.8246  1.4948  0.3684
   74MOL0     H 9953   6.699   0.220  10.008  0.5927 -1.1560 -0.4545
   74MOL0     H 9954   6.627   0.202  10.502  0.2720 -0.1981  0.0018
   74MOL0     H 9955   6.470   0.146  10.672 -1.2597 -0.5961 -0.7662
   74MOL0     H 9956   6.369  -0.037  10.978  0.4146  1.5050  1.1364
   74MOL0     H 9957   6.443   0.094  10.916 -3.5791 -0.4190  4.0961
   74MOL0     H 9958   6.193   0.095  10.874 -2.2811  1.4937 -4.1583
   74MOL0     H 9959   6.266   0.095  10.720  2.5263 -0.7540 -0.3871
   74MOL0     H 9960   6.185  -0.157  10.860 -1.9288 -1.5636 -0.8872
   74MOL0     H 9961   6.237  -0.154  10.692 -1.3156  1.1992 -1.4765
   74MOL0     H 9962   5.987   0.004  10.815  0.9117  2.2009 -0.5124
   74MOL0     H 9963   6.033   0.009  10.647  1.8369 -1.2453 -0.0911
   74MOL0     H 9964   5.914  -0.237  10.788 -0.2260  1.9983  0.8193
   74MOL0     H 9965   5.992  -0.230  10.624 -0.6936 -0.7898  0.9064
   74MOL0     H 9966   5.759  -0.056  10.698 -1.3313  0.0515 -0.8743
   74MOL0     H 9967   5.843  -0.078  10.542  0.5914  1.8339  1.5678
   74MOL0     H 9968   5.624  -0.190  10.528 -0.2017 -0.7201 -0.5363
   74MOL0     H 9969   5.656  -0.279  10.671 -0.7647  0.7485 -0.2739
   74MOL0     H 9970   5.850  -0.366  10.579 -0.8313  1.6305  1.8017
   74MOL0     H 9971   5.829  -0.288  10.411 -2.5938  3.5540 -0.6997
   74MOL0     H 9972   6.660  -0.234  10.720  2.8373 -0.6830 -2.0971
   74MOL0     H 9973   6.798  -0.203  10.517 -0.3416 -1.5614  1.8410
   74MOL0     H 9974   7.043   0.021  10.324 -1.7509 -1.4812 -0.2832
   74MOL0     H 9975   7.245   0.020  10.184 -0.7799 -1.7094  3.0842
   74MOL0     H 9976   8.640   0.171   9.389  0.1940 -0.6425 -0.6311
   74MOL0     H 9977   8.893   0.227   9.355  2.1032 -1.1547 -0.3755
   74MOL0     H 9978   9.369   0.336   9.745 -2.7286 -2.2887  1.0393
   74MOL0     H 9979   9.595   0.310   9.706 -0.8361  0.7756 -0.1217
   74MOL0     H 9980   9.796   0.206   9.681 -2.2247 -1.6197  0.2058
   74MOL0     H 9981   9.909   0.132   9.580  0.9912  1.6770 -1.5002
   74MOL0     H 9982   9.774   0.388   9.491 -0.6463 -0.8987  2.3618
   74MOL0     H 9983   9.876   0.301   9.391 -1.4046  2.9848 -1.0401
   74MOL0     H 9984  10.055   0.303   9.582 -1.2305 -1.7237 -0.6200
   74MOL0     H 9985   9.950   0.435   9.658 -0.4933  3.7835 -2.0643
   74MOL0     H 9986   9.970   0.581   9.482  0.6997  0.1251 -4.4286
   74MOL0     H 9987  10.058   0.463   9.384  1.5905 -0.0952  0.1412
   74MOL0     H 9988  10.375   0.602   9.603  1.1107 -2.2761  0.3252
   74MOL0     H 9989   9.492  -0.001   9.410  0.9996 -1.1710  0.4353
   74MOL0     H 9990   9.275   0.052   9.435 -0.2095  1.2316  0.9870
   75MOL0     O 9991   2.858   4.141   0.760 -0.8156 -0.4814 -0.0283
   75MOL0     C 9992   2.923   4.062   0.689  0.2710 -0.6946 -0.7941
   75MOL0     O 9993   2.868   3.979   0.596 -0.1527 -0.4142  0.1479
   75MOL0     C 9994   2.732   3.963   0.589 -0.2243 -0.5169  0.0238
   75MOL0     C 9995   2.631   4.059   0.601  0.2793  0.2770 -0.6329
   75MOL0     C 9996   2.498   4.030   0.609  0.1995 -0.8966  0.8081
   75MOL0     C 9997   2.457   3.905   0.564 -0.1765  0.1824 -1.1325
   75MOL0     O 9998   2.334   3.851   0.578 -0.0689 -0.0252 -0.0578
   75MOL0     C 9999   2.233   3.928   0.645 -0.5359  0.8509 -0.2737
   75MOL0     C10000   2.100   3.861   0.636  0.1026 -0.4870 -0.6124
   75MOL0     C10001   1.996   3.905   0.737 -0.9658 -0.6410  0.9793
   75MOL0     C10002   1.935   3.789   0.806  0.4551 -0.9403 -0.8694
   75MOL0     C10003   1.795   3.822   0.845 -0.2159  0.0895 -0.2781
   75MOL0     C10004   1.693   3.821   0.728 -0.4205  0.4589  0.4435
   75MOL0     C10005   1.683   3.688   0.644 -0.2028 -0.2956 -0.1240
   75MOL0     C10006   1.574   3.703   0.543 -0.2413 -0.3854 -0.2050
   75MOL0     N10007   1.570   3.619   0.420  0.4196 -0.7403 -0.0963
   75MOL0     C10008   1.512   3.653   0.301 -0.4261  0.4776 -0.5385
   75MOL0     C10009   1.542   3.548   0.217  0.0909 -0.1741  0.4119
   75MOL0     C10010   1.489   3.539   0.074 -0.5363 -0.3161 -0.1771
   75MOL0     C10011   1.333   3.527   0.069  0.5810 -0.4612 -0.1582
   75MOL0     C10012   1.294   3.388   0.128 -0.9738 -0.7133  0.1623
   75MOL0     C10013   1.138   3.364   0.129 -1.6345 -0.0799 -0.3594
   75MOL0     O10014   1.092   3.330   0.000  1.0115 -0.2423  0.3364
   75MOL0     C10015   0.965   3.274   0.016  0.8397 -0.5898  0.5434
   75MOL0     C10016   0.851   3.354   0.003 -0.4928  0.3338 -0.8018
   75MOL0     C10017   0.717   3.293   0.004  0.2215 -0.1542 -1.3550
   75MOL0     C10018   0.606   3.390   0.007  0.2457  0.0429 -0.4597
   75MOL0     C10019   0.711   3.150   0.007 -1.1630  0.4159  0.1093
   75MOL0     C10020   0.578   3.078  -0.005  0.3890 -0.4934 -0.5780
   75MOL0     O10021   0.576   2.941  -0.014  0.5516 -0.1050  0.0225
   75MOL0     C10022   0.457   2.868  -0.000  0.0119 -0.1997 -0.1985
   75MOL0     C10023   0.368   2.868  -0.109  0.4585 -0.0225  0.5254
   75MOL0     C10024   0.248   2.812  -0.087 -0.1326  0.2925  0.5582
   75MOL0     C10025   0.218   2.743   0.030 -0.2453 -0.5558 -0.2470
   75MOL0     O10026   0.094   2.683   0.039  0.0557 -0.0796 -0.2589
   75MOL0     C10027  -0.012   2.764  -0.001 -0.2147  0.0756 -0.2837
   75MOL0     C10028  -0.134   2.708   0.062 -0.3159 -0.6882  0.4072
   75MOL0     C10029  -0.142   2.732   0.211  0.4100  0.1231 -0.5391
   75MOL0     C10030  -0.259   2.641   0.271 -0.7338  0.4615  0.5887
   75MOL0     C10031  -0.253   2.620   0.414 -0.2080 -0.4905  0.2132
   75MOL0     C10032  -0.250   2.745   0.506  0.3195 -0.2415 -0.8768
   75MOL0     C10033  -0.373   2.838   0.472 -0.3103  0.3922  0.1902
   75MOL0     C10034  -0.392   2.954   0.578  0.1127 -0.0855  0.2745
   75MOL0    Cl10035  -0.246   3.060   0.582 -0.2875 -0.0726 -0.2791
   75MOL0     C10036   0.316   2.739   0.131 -0.3702  0.7941 -0.0995
   75MOL0     C10037   0.432   2.804   0.124  0.3087  0.2671  0.2138
   75MOL0     O10038   0.475   3.152   0.003  0.3493 -0.5968 -0.4642
   75MOL0     C10039   0.831   3.074   0.008 -0.7742 -0.2515  0.0277
   75MOL0     C10040   0.956   3.137   0.016 -0.0110  0.1496 -0.1727
   75MOL0     N10041   1.614   3.452   0.283  0.1927  0.6849 -0.2807
   75MOL0     N10042   1.639   3.498   0.404  0.5900 -1.7249 -1.2404
   75MOL0     C10043   2.560   3.812   0.533 -0.0607  0.9793 -0.0487
   75MOL0     C10044   2.698   3.841   0.541  0.1846  0.3928 -0.6282
   75MOL0     C10045   3.069   4.059   0.703 -0.1478 -0.1172 -0.1339
   75MOL0     C10046   3.156   4.026   0.598 -0.0168 -0.3954  0.1411
   75MOL0     C10047   3.292   4.027   0.617 -0.7305 -0.3520  0.0042
   75MOL0     C10048   3.359   4.073   0.726 -0.3591  0.8068  0.3709
   75MOL0     O10049   3.493   4.073   0.721 -0.2843  0.0199  0.1493
   75MOL0     C10050   3.567   4.032   0.842  0.6177  0.0971 -0.0865
   75MOL0     C10051   3.716   4.080   0.835 -0.4381  0.1187  0.2850
   75MOL0     C10052   3.795   4.032   0.703  0.2149 -0.7743 -0.2133
   75MOL0     C10053   3.816   3.885   0.710 -0.1921  0.2469  0.3688
   75MOL0     C10054   3.903   3.832   0.599 -0.7519 -0.0482 -0.4159
   75MOL0     C10055   3.977   3.797   0.506  0.6413 -0.2467  0.0196
   75MOL0     C10056   3.270   4.094   0.831 -0.4561  0.3513 -0.3345
   75MOL0     C10057   3.135   4.092   0.827  0.5543  0.3112  0.4539
   75MOL0     H10058   2.642   4.163   0.629  0.0065  0.2198 -0.3104
   75MOL0     H10059   2.427   4.106   0.639  0.6051 -0.1113 -0.1834
   75MOL0     H10060   2.259   3.936   0.751  2.9644 -2.1770 -0.6918
   75MOL0     H10061   2.226   4.030   0.606 -1.3077  0.7057 -0.5304
   75MOL0     H10062   2.062   3.880   0.535 -1.1642 -1.1176 -0.2783
   75MOL0     H10063   2.109   3.752   0.640 -3.6096 -0.9111 -0.3144
   75MOL0     H10064   2.040   3.955   0.823 -0.5647 -1.2525  1.1345
   75MOL0     H10065   1.920   3.973   0.696  1.9816  3.9748  2.4235
   75MOL0     H10066   1.941   3.705   0.736  0.8712  0.9992 -3.3034
   75MOL0     H10067   1.987   3.762   0.898 -2.6195  0.3547  1.3991
   75MOL0     H10068   1.775   3.745   0.921 -3.8325  1.0082 -0.0773
   75MOL0     H10069   1.788   3.920   0.894 -4.1276 -0.6832  1.1423
   75MOL0     H10070   1.599   3.833   0.784 -1.4117 -3.0581 -0.2630
   75MOL0     H10071   1.710   3.906   0.662  0.5500  0.1832  0.3220
   75MOL0     H10072   1.775   3.665   0.590 -2.2149 -1.4715 -3.3740
   75MOL0     H10073   1.657   3.599   0.701 -0.5297  1.2593  2.3140
   75MOL0     H10074   1.567   3.809   0.516  0.0239 -0.6532 -1.3741
   75MOL0     H10075   1.476   3.681   0.587  0.0212  1.1232  1.2203
   75MOL0     H10076   1.447   3.739   0.288  0.8574  1.4114 -0.9286
   75MOL0     H10077   1.533   3.617   0.012 -1.5151 -0.7413 -1.4531
   75MOL0     H10078   1.517   3.442   0.031  0.6002  0.7433 -1.9487
   75MOL0     H10079   1.294   3.533  -0.033 -2.1718 -0.0340  0.8523
   75MOL0     H10080   1.290   3.609   0.125  2.7482 -1.1515  2.7886
   75MOL0     H10081   1.324   3.379   0.233  2.4461 -0.7286 -0.7068
   75MOL0     H10082   1.340   3.311   0.067  1.1270 -1.1867  2.1896
   75MOL0     H10083   1.087   3.453   0.168 -2.1806 -1.3829  2.0592
   75MOL0     H10084   1.117   3.286   0.202  1.4201 -1.1870 -0.5573
   75MOL0     H10085   0.872   3.460   0.018  1.8023 -0.0021 -1.2992
   75MOL0     H10086   0.567   3.386   0.109  0.7038 -0.4142 -0.2974
   75MOL0     H10087   0.644   3.492  -0.005 -0.5550  0.4814  0.5907
   75MOL0     H10088   0.531   3.369  -0.071  1.2944 -1.3579 -1.1314
   75MOL0     H10089   0.391   2.903  -0.209 -2.7425 -0.1155 -0.3462
   75MOL0     H10090   0.181   2.819  -0.172 -0.7905 -0.4652  0.9940
   75MOL0     H10091   0.014   2.867   0.026  1.8195  0.5015 -3.4317
   75MOL0     H10092  -0.037   2.757  -0.107  0.8182  0.9208 -0.5926
   75MOL0     H10093  -0.217   2.765   0.020  0.6328  1.2589  1.0272
   75MOL0     H10094  -0.136   2.604   0.028  0.7929 -0.1501 -1.4248
   75MOL0     H10095  -0.159   2.836   0.237  1.1952  0.2731 -0.6131
   75MOL0     H10096  -0.049   2.716   0.266 -0.2372  2.5502  1.4104
   75MOL0     H10097  -0.354   2.685   0.239  0.0477  1.5680 -0.2976
   75MOL0     H10098  -0.258   2.541   0.226 -1.3232  0.2579  1.0119
   75MOL0     H10099  -0.161   2.564   0.433 -0.1516 -0.4545  0.0453
   75MOL0     H10100  -0.345   2.567   0.440 -1.1395  0.7767 -0.3900
   75MOL0     H10101  -0.265   2.713   0.610  1.9152  0.3593 -0.4284
   75MOL0     H10102  -0.160   2.807   0.495 -0.7986  2.1206  1.9222
   75MOL0     H10103  -0.470   2.787   0.468  0.3018 -1.4920  4.4856
   75MOL0     H10104  -0.351   2.893   0.380 -0.9348  0.7402  0.2440
   75MOL0     H10105  -0.419   2.909   0.674 -0.0370 -0.0124  0.2683
   75MOL0     H10106  -0.474   3.014   0.536  0.0318 -0.3795  0.0065
   75MOL0     H10107   0.293   2.680   0.220 -1.2561 -1.2270 -1.5696
   75MOL0     H10108   0.501   2.798   0.207 -2.0658 -2.0071  2.2249
   75MOL0     H10109   0.838   2.971  -0.023  0.1357  0.3429 -1.9372
   75MOL0     H10110   1.054   3.090   0.014  0.1415  0.3077  1.7068
   75MOL0     H10111   2.531   3.709   0.512  2.5471  0.0565  0.5254
   75MOL0     H10112   2.775   3.777   0.498  0.6594  1.0178 -0.7135
   75MOL0     H10113   3.118   3.971   0.513  1.4933  0.1308 -0.9069
   75MOL0     H10114   3.363   3.999   0.540  0.2332 -2.1363  1.4460
   75MOL0     H10115   3.530   4.080   0.933 -0.6246  0.4686 -0.7698
   75MOL0     H10116   3.565   3.925   0.866  1.6175  0.2519  0.7832
   75MOL0     H10117   3.769   4.030   0.916 -1.9422 -1.9276  0.0667
   75MOL0     H10118   3.717   4.187   0.857 -1.5882  0.1991 -0.0059
   75MOL0     H10119   3.890   4.085   0.692 -0.5330  0.1649 -3.2378
   75MOL0     H10120   3.740   4.072   0.617  0.3004  2.9355  1.2547
   75MOL0     H10121   3.722   3.830   0.716  0.9928 -2.0519 -0.7419
   75MOL0     H10122   3.870   3.873   0.805  0.3081  5.0273  0.8935
   75MOL0     H10123   4.037   3.776   0.420 -1.1036 -0.1678 -1.2756
   75MOL0     H10124   3.325   4.108   0.924  0.1493 -1.4191 -0.3885
   75MOL0     H10125   3.071   4.106   0.914  2.6247  0.4052  2.0384
   76MOL0     O10126   3.133   9.678   2.826  0.1018 -0.4806 -0.2714
   76MOL0     C10127   3.163   9.707   2.945 -0.3260  0.2553 -0.4555
   76MOL0     O10128   3.072   9.717   3.046 -0.1451 -0.6271  0.3462
   76MOL0     C10129   2.938   9.732   3.012  0.3167 -0.6989  0.0194
   76MOL0     C10130   2.863   9.655   2.928 -0.3879 -0.0981 -0.8701
   76MOL0     C10131   2.722   9.675   2.915 -0.6264 -0.1608  0.3588
   76MOL0     C10132   2.664   9.784   2.975  0.2585  0.7429 -0.3590
   76MOL0     O10133   2.528   9.807   2.955  0.0391 -0.2438  0.8745
   76MOL0     C10134   2.434   9.807   3.069  0.3454 -0.1042  0.1702
   76MOL0     C10135   2.308   9.775   3.003 -0.2792  0.5688 -0.3773
   76MOL0     C10136   2.201   9.744   3.107 -0.2893  0.1314 -0.0723
   76MOL0     C10137   2.079   9.701   3.027  0.3660  0.1036  0.7962
   76MOL0     C10138   1.960   9.691   3.116 -0.4724  0.0629  0.2352
   76MOL0     C10139   1.929   9.835   3.178 -0.1290 -0.6187  0.3588
   76MOL0     C10140   1.793   9.862   3.241 -0.1829 -0.3311  0.4834
   76MOL0     C10141   1.773  10.002   3.292 -0.3586 -0.3792  0.0668
   76MOL0     N10142   1.633  10.036   3.321  0.2107  0.2055 -0.2013
   76MOL0     C10143   1.612  10.125   3.421  0.7084  0.2558 -0.5519
   76MOL0     C10144   1.481  10.159   3.411  0.4636 -0.2484  0.1615
   76MOL0     C10145   1.410  10.248   3.507 -0.8775  0.2407  0.8729
   76MOL0     C10146   1.269  10.218   3.523  0.7443 -0.2147 -0.1528
   76MOL0     C10147   1.254  10.087   3.602 -0.2718  0.3765  0.0521
   76MOL0     C10148   1.104  10.062   3.644 -0.9620 -0.3597 -1.0073
   76MOL0     O10149   1.059  10.158   3.751 -0.2228 -0.4765 -0.0537
   76MOL0     C10150   0.922  10.186   3.757  0.4047  0.0323 -0.0423
   76MOL0     C10151   0.888  10.317   3.802  0.1302  0.6158 -0.1915
   76MOL0     C10152   0.757  10.351   3.833  0.4629  0.6256 -0.0782
   76MOL0     C10153   0.735  10.487   3.886  0.3898  0.4691 -0.6436
   76MOL0     C10154   0.654  10.257   3.802  0.4487 -0.1352  1.2918
   76MOL0     C10155   0.509  10.283   3.824 -0.0280  0.2650 -0.0233
   76MOL0     O10156   0.447  10.180   3.893  0.0292 -0.2354  0.0400
   76MOL0     C10157   0.322  10.190   3.934 -0.9582 -0.2838  0.6699
   76MOL0     C10158   0.230  10.113   3.874  0.3217  0.1024  0.0476
   76MOL0     C10159   0.097  10.111   3.913 -1.5899  0.2196 -0.6693
   76MOL0     C10160   0.052  10.206   4.008  0.5785 -0.1416  0.2756
   76MOL0     O10161  -0.074  10.238   4.040 -0.2210  0.2328  0.1979
   76MOL0     C10162  -0.188  10.152   4.017  0.5432  0.4672  0.1185
   76MOL0     C10163  -0.313  10.206   4.083  0.2114  0.2789 -0.2936
   76MOL0     C10164  -0.285  10.214   4.239  0.3553  0.5873 -0.3307
   76MOL0     C10165  -0.390  10.298   4.314  0.2317 -0.4972 -0.3687
   76MOL0     C10166  -0.534  10.245   4.301 -0.4152  0.3161  1.1483
   76MOL0     C10167  -0.640  10.311   4.391  0.0244 -0.5288  0.1719
   76MOL0     C10168  -0.682  10.450   4.342  0.0082 -0.0900 -0.1448
   76MOL0     C10169  -0.826  10.496   4.358 -0.5804  0.4648 -0.4299
   76MOL0    Cl10170  -0.936  10.371   4.281 -0.0118  0.0331 -0.0157
   76MOL0     C10171   0.150  10.285   4.069  0.7180 -0.0332  0.0900
   76MOL0     C10172   0.286  10.278   4.034 -0.0374  0.0684 -0.4226
   76MOL0     O10173   0.461  10.392   3.792  0.9532 -0.1484  0.1508
   76MOL0     C10174   0.691  10.135   3.749  0.2471 -0.2709  0.3078
   76MOL0     C10175   0.821  10.096   3.729  0.8400  0.3183 -0.5461
   76MOL0     N10176   1.432  10.106   3.292 -1.1268  0.2452 -0.3159
   76MOL0     N10177   1.522  10.036   3.237  0.0716 -0.1785  1.1259
   76MOL0     C10178   2.738   9.870   3.049  0.3654 -0.3214 -0.3594
   76MOL0     C10179   2.871   9.845   3.076 -0.5259  0.6608 -0.1995
   76MOL0     C10180   3.308   9.727   2.962  0.0139 -0.5986  0.4228
   76MOL0     C10181   3.404   9.699   2.854  0.9830 -0.1689 -0.1349
   76MOL0     C10182   3.539   9.722   2.870 -0.3079  0.0915  0.7329
   76MOL0     C10183   3.585   9.785   2.990  0.5212  0.1165 -1.3586
   76MOL0     O10184   3.708   9.825   3.024  0.3225  0.0156 -0.1372
   76MOL0     C10185   3.820   9.802   2.928  0.2865 -1.0751  0.6929
   76MOL0     C10186   3.871   9.933   2.872 -0.8928 -0.5365 -0.8417
   76MOL0     C10187   3.760   9.995   2.791  0.0441 -0.2890 -0.0502
   76MOL0     C10188   3.806  10.110   2.699 -0.5175 -0.1112  0.4847
   76MOL0     C10189   3.796  10.245   2.752  0.2761 -0.5218 -0.4685
   76MOL0     C10190   3.780  10.346   2.812  0.4925 -0.7291 -0.5391
   76MOL0     C10191   3.490   9.821   3.089  0.6944  0.8763 -0.3286
   76MOL0     C10192   3.358   9.774   3.074 -0.2245  0.3943 -0.0136
   76MOL0     H10193   2.908   9.577   2.868 -0.6716 -1.1997  0.3002
   76MOL0     H10194   2.656   9.621   2.847  0.0110  0.4690 -0.7849
   76MOL0     H10195   2.457   9.717   3.127  2.6379 -1.1016 -2.1111
   76MOL0     H10196   2.443   9.898   3.129  1.7082  1.2203 -1.9102
   76MOL0     H10197   2.274   9.842   2.924 -3.1814 -0.1354  0.1591
   76MOL0     H10198   2.316   9.682   2.946 -1.4943 -1.7397  2.9315
   76MOL0     H10199   2.234   9.663   3.172 -3.3370 -2.4062 -1.4612
   76MOL0     H10200   2.177   9.836   3.162  0.5051  0.5818 -0.4612
   76MOL0     H10201   2.055   9.767   2.944  1.2220 -1.9579 -1.1968
   76MOL0     H10202   2.083   9.603   2.979 -2.0705 -0.2134  1.1055
   76MOL0     H10203   1.879   9.660   3.048  0.4466 -1.0530 -0.3847
   76MOL0     H10204   1.980   9.608   3.184 -0.8442 -0.1547  0.0849
   76MOL0     H10205   2.008   9.843   3.253  2.3468 -0.8982 -2.0583
   76MOL0     H10206   1.947   9.916   3.107 -3.4174  1.0491  1.2140
   76MOL0     H10207   1.723   9.853   3.158 -0.6827 -0.4948  0.9235
   76MOL0     H10208   1.770   9.795   3.324 -0.5885  0.6035  1.1439
   76MOL0     H10209   1.807  10.073   3.216 -1.3696 -2.6022 -2.6478
   76MOL0     H10210   1.841  10.020   3.375  1.5270  0.5515 -1.5966
   76MOL0     H10211   1.675  10.160   3.502 -0.9798  0.9821  0.5007
   76MOL0     H10212   1.458  10.250   3.605 -1.6219 -1.0382  1.2825
   76MOL0     H10213   1.422  10.349   3.466  1.4098 -0.0088  0.7789
   76MOL0     H10214   1.215  10.212   3.428 -0.7021  0.7066  0.5654
   76MOL0     H10215   1.224  10.296   3.586  3.4020  0.5963  0.8649
   76MOL0     H10216   1.331  10.074   3.679  1.5742 -0.3869 -1.8387
   76MOL0     H10217   1.282  10.009   3.531  0.1921  1.0190 -0.4738
   76MOL0     H10218   1.091   9.961   3.686 -0.8756 -0.4931 -1.3008
   76MOL0     H10219   1.038  10.062   3.557 -1.0371 -0.6369 -0.9510
   76MOL0     H10220   0.967  10.390   3.819  0.7975 -0.3209  0.8415
   76MOL0     H10221   0.668  10.476   3.971  2.0210  0.2021  0.6461
   76MOL0     H10222   0.825  10.541   3.915  0.4910  0.5203 -1.0414
   76MOL0     H10223   0.700  10.548   3.802  3.6643  2.6689 -0.6033
   76MOL0     H10224   0.272  10.047   3.798 -0.6068 -1.0920  0.5402
   76MOL0     H10225   0.035  10.042   3.858  1.7132 -1.1036 -3.0684
   76MOL0     H10226  -0.206  10.151   3.909 -1.7338  2.1676  0.3995
   76MOL0     H10227  -0.162  10.053   4.056  3.5395  1.2552  0.3601
   76MOL0     H10228  -0.340  10.303   4.040  3.2703 -0.5428 -4.7686
   76MOL0     H10229  -0.392  10.135   4.058  2.7647 -3.4952  1.3973
   76MOL0     H10230  -0.190  10.266   4.254  0.4972  0.5158 -0.9635
   76MOL0     H10231  -0.287  10.117   4.288 -1.4640  2.5126  3.9408
   76MOL0     H10232  -0.354  10.287   4.417  1.1659  0.4953 -0.5650
   76MOL0     H10233  -0.391  10.407   4.302  2.1562 -0.5025 -0.9555
   76MOL0     H10234  -0.532  10.137   4.317  0.2804 -0.1433 -1.5880
   76MOL0     H10235  -0.567  10.260   4.198  1.7003  0.6022  0.4683
   76MOL0     H10236  -0.722  10.240   4.390 -1.1025  0.6986 -1.7678
   76MOL0     H10237  -0.600  10.329   4.491 -0.0540  0.4972  0.0338
   76MOL0     H10238  -0.663  10.440   4.235 -0.8670 -4.6360 -0.0726
   76MOL0     H10239  -0.623  10.533   4.381  0.6384 -0.1177 -1.0264
   76MOL0     H10240  -0.833  10.596   4.313  0.7523  2.3713  3.1877
   76MOL0     H10241  -0.847  10.515   4.464 -4.3274 -3.3841 -0.2081
   76MOL0     H10242   0.115  10.354   4.145 -0.3732 -0.0135 -0.4189
   76MOL0     H10243   0.365  10.332   4.085  0.7410  0.7618 -2.2734
   76MOL0     H10244   0.619  10.059   3.722 -2.4020  2.4939 -1.0652
   76MOL0     H10245   0.840   9.991   3.707 -0.0962 -0.1793  0.8430
   76MOL0     H10246   2.694   9.957   3.097 -2.0991 -1.1102 -1.0387
   76MOL0     H10247   2.925   9.916   3.138 -1.6206  1.9275 -0.6529
   76MOL0     H10248   3.368   9.654   2.762 -0.2480  1.6079 -0.5728
   76MOL0     H10249   3.600   9.703   2.782 -1.2114  2.6920 -0.5658
   76MOL0     H10250   3.899   9.744   2.976 -0.2107 -1.0074  1.6142
   76MOL0     H10251   3.802   9.732   2.846 -0.5968 -3.4602  2.8272
   76MOL0     H10252   3.963   9.904   2.819  1.7174  0.9493  2.5230
   76MOL0     H10253   3.909   9.997   2.952 -0.9118 -1.0970 -0.3847
   76MOL0     H10254   3.692  10.045   2.861  0.2356  0.9459 -0.7234
   76MOL0     H10255   3.697   9.928   2.732 -4.7875  1.7452  2.1892
   76MOL0     H10256   3.737  10.102   2.615 -0.8767 -2.7894  0.9570
   76MOL0     H10257   3.907  10.086   2.662 -0.8457  1.8996 -1.9969
   76MOL0     H10258   3.765  10.436   2.866  3.3722  1.2698 -2.7277
   76MOL0     H10259   3.518   9.865   3.184  1.4177  0.5592 -0.3907
   76MOL0     H10260   3.291   9.784   3.159  1.4631  0.6560  1.3552
   77MOL0     O10261   6.823  11.176   4.860  0.0062 -0.2969  0.4975
   77MOL0     C10262   6.740  11.102   4.811 -0.2183  0.3705 -1.0169
   77MOL0     O10263   6.725  10.964   4.848 -0.3794 -0.2762 -0.4890
   77MOL0     C10264   6.820  10.915   4.935 -0.7195 -0.2009  0.6930
   77MOL0     C10265   6.809  10.912   5.072  0.0981  0.4836  0.2467
   77MOL0     C10266   6.906  10.842   5.145  0.5342 -0.8704 -0.4683
   77MOL0     C10267   7.016  10.790   5.086 -0.2890 -0.1366 -1.1377
   77MOL0     O10268   7.114  10.722   5.161  0.0181 -0.0679 -0.3598
   77MOL0     C10269   7.087  10.673   5.296 -0.2194 -0.7727  0.3984
   77MOL0     C10270   7.157  10.547   5.317 -0.6009 -0.0467  0.4259
   77MOL0     C10271   7.304  10.576   5.347 -0.1769  0.2563  0.6626
   77MOL0     C10272   7.371  10.437   5.380 -0.0839 -0.0894 -0.2254
   77MOL0     C10273   7.521  10.443   5.345 -1.3592  0.3754 -0.1898
   77MOL0     C10274   7.605  10.554   5.423  0.5481 -0.2973 -0.3085
   77MOL0     C10275   7.751  10.534   5.421  0.2512 -0.6242  0.8858
   77MOL0     C10276   7.793  10.516   5.273 -0.1593 -0.7228 -0.0357
   77MOL0     N10277   7.932  10.511   5.260 -0.1901  0.1782  1.2809
   77MOL0     C10278   8.011  10.621   5.253 -0.5334  0.0001 -0.5723
   77MOL0     C10279   8.130  10.584   5.298  0.4078  0.9817 -0.3447
   77MOL0     C10280   8.239  10.678   5.314 -0.4787  0.2721 -0.6939
   77MOL0     C10281   8.290  10.754   5.194  1.4339 -1.2357  0.1373
   77MOL0     C10282   8.417  10.830   5.240 -0.3082 -0.1207  0.2749
   77MOL0     C10283   8.483  10.931   5.140  0.0881  1.0020 -0.2828
   77MOL0     O10284   8.555  10.867   5.037 -0.3886 -0.5508  0.1297
   77MOL0     C10285   8.687  10.825   5.055 -0.8209 -0.4845  0.4467
   77MOL0     C10286   8.790  10.904   5.099 -0.6581 -0.5311 -0.8001
   77MOL0     C10287   8.924  10.858   5.091  0.7483  0.2816 -0.4089
   77MOL0     C10288   9.036  10.940   5.152 -0.2383  0.2690 -0.1643
   77MOL0     C10289   8.942  10.731   5.032  0.1245  0.1858 -0.5968
   77MOL0     C10290   9.077  10.679   5.028 -0.4608 -1.6190  0.4157
   77MOL0     O10291   9.163  10.765   4.960 -0.0025  0.4834 -0.6139
   77MOL0     C10292   9.290  10.724   4.950  0.9256  0.4446 -0.0284
   77MOL0     C10293   9.382  10.774   5.041  0.3689  0.1366  0.2710
   77MOL0     C10294   9.520  10.751   5.032  1.2293 -0.6481  0.4898
   77MOL0     C10295   9.567  10.668   4.935  0.0414  0.6856 -0.1588
   77MOL0     O10296   9.700  10.637   4.933 -0.1568 -0.2802  0.9669
   77MOL0     C10297   9.754  10.639   4.803  0.8035 -0.0685 -0.1607
   77MOL0     C10298   9.909  10.648   4.809  0.2535 -0.8574  0.3497
   77MOL0     C10299   9.962  10.644   4.670 -0.6059 -0.1093  0.0997
   77MOL0     C10300  10.113  10.650   4.655  0.2887 -0.1255  0.1039
   77MOL0     C10301  10.156  10.694   4.508  0.0044 -0.4142  0.2647
   77MOL0     C10302  10.301  10.739   4.501  0.2991 -1.1812  0.5075
   77MOL0     C10303  10.297  10.895   4.481  0.5017  0.2959 -0.1951
   77MOL0     C10304  10.445  10.954   4.484  0.1554  0.0125 -0.1260
   77MOL0    Cl10305  10.541  10.876   4.355 -0.4482 -0.5672  0.4540
   77MOL0     C10306   9.475  10.610   4.848  0.0911  0.2550  0.7115
   77MOL0     C10307   9.339  10.634   4.857 -0.5665 -0.7330 -0.2071
   77MOL0     O10308   9.090  10.562   5.041 -0.2057  0.3439 -0.3902
   77MOL0     C10309   8.835  10.654   4.993 -0.6834  0.7632 -0.1431
   77MOL0     C10310   8.703  10.703   5.001  0.1143  0.5975  0.0316
   77MOL0     N10311   8.122  10.449   5.330 -0.7452  0.2309 -0.4413
   77MOL0     N10312   8.005  10.408   5.301  0.5244  0.4264  0.3467
   77MOL0     C10313   7.027  10.797   4.950  0.9236 -0.0297 -0.3329
   77MOL0     C10314   6.932  10.855   4.870 -0.0069 -0.1489 -0.1848
   77MOL0     C10315   6.646  11.161   4.713 -0.5577  0.1410  0.3467
   77MOL0     C10316   6.515  11.104   4.681 -0.6266 -0.9586  0.4859
   77MOL0     C10317   6.423  11.164   4.591  0.4691 -0.2729  0.2418
   77MOL0     C10318   6.464  11.288   4.525 -0.2421  0.0897  1.0809
   77MOL0     O10319   6.384  11.373   4.450 -0.9602  0.4874  0.8443
   77MOL0     C10320   6.251  11.327   4.414  0.2342 -0.3382  0.1399
   77MOL0     C10321   6.185  11.435   4.324 -0.4407  0.3917  0.2940
   77MOL0     C10322   6.274  11.466   4.201 -0.0254 -0.1693  0.7975
   77MOL0     C10323   6.199  11.567   4.110 -0.1532 -0.2480  0.3935
   77MOL0     C10324   6.060  11.529   4.064  0.9392 -0.1578 -0.3776
   77MOL0     C10325   5.941  11.518   4.023  0.3794 -0.1219 -0.7122
   77MOL0     C10326   6.588  11.341   4.557 -0.5124 -0.7767 -0.3719
   77MOL0     C10327   6.683  11.286   4.645 -1.0057  0.5829 -0.0325
   77MOL0     H10328   6.729  10.964   5.125 -1.2973  1.2030 -2.3555
   77MOL0     H10329   6.892  10.842   5.253  1.8091 -0.1553 -0.2854
   77MOL0     H10330   7.138  10.751   5.354  2.8284 -0.9727 -1.7888
   77MOL0     H10331   6.983  10.664   5.328  0.0163 -1.6722  0.9377
   77MOL0     H10332   7.116  10.493   5.403  0.3050 -1.6577 -0.1131
   77MOL0     H10333   7.159  10.484   5.227 -0.2945  0.0899  0.3371
   77MOL0     H10334   7.345  10.614   5.254  1.5970  0.9288  1.6661
   77MOL0     H10335   7.320  10.642   5.433 -1.3115 -1.1589  2.0310
   77MOL0     H10336   7.360  10.407   5.485  2.6350 -2.1227 -0.3864
   77MOL0     H10337   7.321  10.360   5.321  0.8399 -1.0364  0.1831
   77MOL0     H10338   7.565  10.350   5.381 -1.0372  1.5265  2.6560
   77MOL0     H10339   7.540  10.452   5.237  1.1892  0.8264  0.2311
   77MOL0     H10340   7.588  10.652   5.377 -3.4201 -0.6646  0.0971
   77MOL0     H10341   7.558  10.551   5.522  1.0477 -0.9844 -0.0870
   77MOL0     H10342   7.803  10.615   5.472  1.4221 -1.9742  1.8818
   77MOL0     H10343   7.771  10.439   5.471  0.8738 -0.3913  1.0819
   77MOL0     H10344   7.758  10.602   5.215 -2.1230 -0.3862  1.5298
   77MOL0     H10345   7.755  10.423   5.230 -2.4530 -1.4843  3.2559
   77MOL0     H10346   7.984  10.723   5.229  1.7977  1.1678  1.2799
   77MOL0     H10347   8.208  10.756   5.385  2.1242  2.2436 -1.5761
   77MOL0     H10348   8.320  10.633   5.372 -2.2768 -1.9657  0.2433
   77MOL0     H10349   8.212  10.814   5.146  0.8020 -4.1942 -2.9105
   77MOL0     H10350   8.305  10.688   5.109 -2.1586  2.2637 -3.7246
   77MOL0     H10351   8.487  10.754   5.274  0.7218  0.9486  0.6201
   77MOL0     H10352   8.404  10.884   5.334  1.5025  0.3148  0.3164
   77MOL0     H10353   8.552  10.988   5.204 -0.8069  1.1504  0.5841
   77MOL0     H10354   8.407  10.998   5.099 -3.1700 -1.5544  1.1927
   77MOL0     H10355   8.764  10.998   5.147  1.5572 -0.7767  1.0656
   77MOL0     H10356   8.990  11.001   5.231 -0.6333 -1.4395  0.9925
   77MOL0     H10357   9.122  10.888   5.195  0.6483  2.5122  0.9314
   77MOL0     H10358   9.072  11.000   5.068  1.3587  0.2650  0.4933
   77MOL0     H10359   9.342  10.833   5.123  0.7820 -2.1554  2.2193
   77MOL0     H10360   9.585  10.796   5.106 -0.1955 -2.1543  2.7838
   77MOL0     H10361   9.739  10.541   4.757 -0.3529  0.1961 -0.3748
   77MOL0     H10362   9.704  10.713   4.740 -1.2419 -1.0920  0.1994
   77MOL0     H10363   9.924  10.743   4.862 -1.0022  0.1317 -0.9551
   77MOL0     H10364   9.946  10.574   4.880  1.8919  1.1354  1.7040
   77MOL0     H10365   9.922  10.724   4.608  1.2870  0.0211 -1.0374
   77MOL0     H10366   9.939  10.550   4.619 -2.7240 -0.3847  1.4595
   77MOL0     H10367  10.170  10.718   4.720  0.9341  0.5048 -1.0889
   77MOL0     H10368  10.148  10.548   4.670 -1.0987 -0.8589 -1.3841
   77MOL0     H10369  10.091  10.767   4.459  0.9616 -1.7391 -3.2667
   77MOL0     H10370  10.154  10.607   4.442  0.2833 -1.9625  2.2004
   77MOL0     H10371  10.357  10.733   4.595 -3.4681  1.6135  3.2549
   77MOL0     H10372  10.352  10.696   4.415  0.1501 -0.6551  0.1582
   77MOL0     H10373  10.231  10.936   4.558 -1.2322 -0.2037 -1.3561
   77MOL0     H10374  10.250  10.914   4.384  0.5242 -0.8395 -0.4531
   77MOL0     H10375  10.493  10.948   4.582  1.6642  2.4833 -0.6376
   77MOL0     H10376  10.447  11.063   4.476  0.5652  0.2685  2.4679
   77MOL0     H10377   9.508  10.542   4.770  3.0150  0.9130  1.2411
   77MOL0     H10378   9.269  10.591   4.785 -0.9581  2.4411 -1.9094
   77MOL0     H10379   8.862  10.557   4.951 -1.5025  0.1281  0.7453
   77MOL0     H10380   8.621  10.641   4.966  0.4744 -0.5098  1.0790
   77MOL0     H10381   7.110  10.750   4.899  0.7134 -0.2323 -0.4872
   77MOL0     H10382   6.944  10.861   4.762  0.1193  0.0413 -0.1622
   77MOL0     H10383   6.481  11.005   4.713 -2.5124 -0.6264 -0.3404
   77MOL0     H10384   6.326  11.117   4.576  0.6780  0.1953 -3.5292
   77MOL0     H10385   6.249  11.235   4.354 -0.4335  1.1826 -2.3371
   77MOL0     H10386   6.178  11.330   4.495 -2.8517  4.1963 -2.3844
   77MOL0     H10387   6.152  11.529   4.368 -4.1287 -0.0099 -1.2863
   77MOL0     H10388   6.090  11.390   4.294 -0.9948  1.6031  0.1862
   77MOL0     H10389   6.295  11.371   4.149  1.0343 -0.2863  1.3963
   77MOL0     H10390   6.370  11.503   4.239 -0.7412  1.0542  1.4270
   77MOL0     H10391   6.251  11.581   4.015 -0.4219  1.5719  0.4823
   77MOL0     H10392   6.186  11.661   4.165 -2.4248  0.2630 -0.8743
   77MOL0     H10393   5.841  11.499   3.989 -1.0086 -0.4475  3.0520
   77MOL0     H10394   6.627  11.431   4.511  1.1667 -0.0236  2.2930
   77MOL0     H10395   6.775  11.335   4.676 -2.7676  3.9429  0.4075
   78MOL0     O10396   0.602   7.148   3.114  0.0520  0.3205 -0.3862
   78MOL0     C10397   0.671   7.101   3.022 -0.1550 -0.5187 -0.0449
   78MOL0     O10398   0.648   7.128   2.892  0.2813  0.4588 -1.0997
   78MOL0     C10399   0.532   7.193   2.869 -0.0274 -0.3338 -0.2118
   78MOL0     C10400   0.547   7.330   2.848  0.4849 -0.1790 -0.2374
   78MOL0     C10401   0.432   7.401   2.829  0.0308 -0.4929 -0.0050
   78MOL0     C10402   0.302   7.336   2.828  0.9887 -1.0541  0.1501
   78MOL0     O10403   0.183   7.392   2.794 -0.2246 -0.7344 -0.4918
   78MOL0     C10404   0.181   7.537   2.774  0.4094 -0.2767 -0.1901
   78MOL0     C10405   0.183   7.619   2.907 -0.4047 -0.2028 -0.0591
   78MOL0     C10406   0.058   7.624   2.994 -0.4980 -0.5912 -0.4925
   78MOL0     C10407   0.074   7.740   3.100  0.1001  0.3860  0.7992
   78MOL0     C10408  -0.058   7.746   3.183  0.2020 -0.3444 -0.2293
   78MOL0     C10409  -0.039   7.857   3.298 -0.0196  0.0645 -0.5033
   78MOL0     C10410  -0.179   7.914   3.345  0.7682  0.0503  0.5199
   78MOL0     C10411  -0.237   8.038   3.268  0.4536  0.2525 -0.7791
   78MOL0     N10412  -0.257   8.014   3.125 -0.0822  0.0843  0.2315
   78MOL0     C10413  -0.357   7.935   3.067  0.5275  0.2262 -0.1601
   78MOL0     C10414  -0.331   7.944   2.935 -0.0552 -0.0532  0.0796
   78MOL0     C10415  -0.417   7.893   2.812  1.7307  1.0116 -0.6071
   78MOL0     C10416  -0.398   7.741   2.788 -0.5036 -0.2525 -0.5258
   78MOL0     C10417  -0.306   7.721   2.667 -0.5458 -0.0695 -0.1904
   78MOL0     C10418  -0.264   7.582   2.653 -0.6041  0.0641  0.0593
   78MOL0     O10419  -0.233   7.553   2.519 -0.8487 -0.5047  0.7083
   78MOL0     C10420  -0.334   7.536   2.432  0.1585 -1.0437  0.5334
   78MOL0     C10421  -0.474   7.518   2.446  0.1108  0.1852  0.3180
   78MOL0     C10422  -0.559   7.523   2.334 -0.8669  0.1699 -0.0367
   78MOL0     C10423  -0.704   7.506   2.355  0.2373 -0.8795 -1.1118
   78MOL0     C10424  -0.500   7.539   2.208 -0.0781 -0.6016  1.4824
   78MOL0     C10425  -0.582   7.564   2.078  0.0401  0.3592 -0.1491
   78MOL0     O10426  -0.539   7.657   1.991 -0.2716  0.3975  0.1300
   78MOL0     C10427  -0.621   7.690   1.889 -0.4655 -0.4018  0.2645
   78MOL0     C10428  -0.582   7.647   1.764 -1.1896 -0.6807 -0.8648
   78MOL0     C10429  -0.658   7.671   1.650 -0.1842  1.3738 -0.0054
   78MOL0     C10430  -0.773   7.749   1.651 -0.7530 -0.9352  0.1550
   78MOL0     O10431  -0.856   7.782   1.539  0.0442  0.7455  0.0864
   78MOL0     C10432  -0.863   7.688   1.427 -0.0317  0.3784 -0.1612
   78MOL0     C10433  -0.932   7.547   1.456 -0.1476  0.1689 -0.3177
   78MOL0     C10434  -1.073   7.561   1.518 -0.5189 -0.5092 -0.1289
   78MOL0     C10435  -1.146   7.433   1.564  0.6372 -0.3307  0.0162
   78MOL0     C10436  -1.114   7.408   1.707  0.8730  0.1301 -1.2016
   78MOL0     C10437  -1.212   7.290   1.760 -0.0924  0.4256  0.2162
   78MOL0     C10438  -1.168   7.226   1.893  0.2193  0.3037  0.3781
   78MOL0     C10439  -1.249   7.099   1.922 -0.0929 -0.1117  0.4572
   78MOL0    Cl10440  -1.401   7.163   1.944  0.6279  0.0296  0.3580
   78MOL0     C10441  -0.811   7.799   1.779  0.0042  0.3083 -0.3733
   78MOL0     C10442  -0.737   7.767   1.893  0.5241 -0.0159  0.4072
   78MOL0     O10443  -0.686   7.497   2.071  0.0362 -0.4078 -0.5293
   78MOL0     C10444  -0.361   7.540   2.190 -0.2932  0.6121 -0.2524
   78MOL0     C10445  -0.286   7.548   2.305 -0.5471  0.7121  0.2319
   78MOL0     N10446  -0.217   8.023   2.916 -0.4938 -0.0105 -0.0267
   78MOL0     N10447  -0.169   8.055   3.031  0.2817 -0.3302  0.5485
   78MOL0     C10448   0.295   7.200   2.852 -0.2815  0.2361 -0.3339
   78MOL0     C10449   0.415   7.129   2.880  0.6580  0.2063  0.3792
   78MOL0     C10450   0.789   7.020   3.060 -0.7148  0.0994  0.3111
   78MOL0     C10451   0.817   6.994   3.198  0.0221  0.4365  0.9005
   78MOL0     C10452   0.932   6.909   3.226  0.7933 -0.2211 -1.0329
   78MOL0     C10453   1.012   6.850   3.139  0.0961 -0.2237  1.1650
   78MOL0     O10454   1.109   6.768   3.185  0.1626 -0.5292  0.4396
   78MOL0     C10455   1.187   6.693   3.092  0.5260  0.9601 -0.9531
   78MOL0     C10456   1.298   6.609   3.156  0.3263 -0.5495  0.4505
   78MOL0     C10457   1.242   6.500   3.247 -0.1922  0.6331  0.1784
   78MOL0     C10458   1.337   6.430   3.337 -0.3888  0.4436 -0.0247
   78MOL0     C10459   1.413   6.517   3.428  0.6665  0.0441  0.9098
   78MOL0     C10460   1.455   6.601   3.495  0.2737 -0.0060  0.0024
   78MOL0     C10461   0.979   6.876   3.010 -0.4337 -0.8121 -0.2928
   78MOL0     C10462   0.876   6.957   2.962  0.3208 -0.0834 -0.4468
   78MOL0     H10463   0.646   7.376   2.844 -1.3307  4.1822 -0.6370
   78MOL0     H10464   0.449   7.504   2.800 -0.6624 -0.1385  0.7851
   78MOL0     H10465   0.272   7.562   2.718  0.3185 -1.0530 -0.7024
   78MOL0     H10466   0.085   7.553   2.723  0.4100 -0.3136 -0.2027
   78MOL0     H10467   0.276   7.605   2.962  1.3476  4.1950 -1.4867
   78MOL0     H10468   0.180   7.723   2.874 -3.6626  0.9631  3.2933
   78MOL0     H10469  -0.024   7.647   2.926  1.3917 -2.7622 -3.7709
   78MOL0     H10470   0.051   7.526   3.042 -1.1982 -1.0882 -1.5964
   78MOL0     H10471   0.155   7.700   3.161  0.8644 -3.6434 -2.4519
   78MOL0     H10472   0.097   7.832   3.045 -0.0333 -1.9850 -3.6824
   78MOL0     H10473  -0.149   7.770   3.128 -0.3828  0.7249  1.1222
   78MOL0     H10474  -0.069   7.642   3.216  1.4181 -0.5843 -0.5406
   78MOL0     H10475   0.007   7.798   3.379  0.6264 -1.3180 -1.8252
   78MOL0     H10476   0.031   7.939   3.283  1.1187 -0.5198  1.2172
   78MOL0     H10477  -0.245   7.828   3.332  0.1553  0.6706 -0.5700
   78MOL0     H10478  -0.191   7.936   3.451 -1.5105  0.1181  0.2896
   78MOL0     H10479  -0.169   8.123   3.276  2.1849 -0.9066 -2.2766
   78MOL0     H10480  -0.331   8.066   3.317  0.4987 -0.1346 -0.4627
   78MOL0     H10481  -0.453   7.895   3.099  1.4940 -1.7538  0.3916
   78MOL0     H10482  -0.520   7.905   2.846  0.7342  1.1118 -3.3928
   78MOL0     H10483  -0.410   7.942   2.714 -0.5581 -0.4563 -1.6074
   78MOL0     H10484  -0.498   7.698   2.783 -0.1093 -1.0785 -1.6669
   78MOL0     H10485  -0.349   7.690   2.871  0.4963  1.1706 -0.1975
   78MOL0     H10486  -0.213   7.777   2.680 -1.0664  0.7948 -0.1047
   78MOL0     H10487  -0.353   7.760   2.575  0.6907 -0.6303 -1.0923
   78MOL0     H10488  -0.346   7.521   2.692 -0.5994  0.9480  1.4899
   78MOL0     H10489  -0.178   7.551   2.713  0.2538 -0.3242 -1.3125
   78MOL0     H10490  -0.509   7.495   2.546 -1.4333 -2.3786 -0.7213
   78MOL0     H10491  -0.722   7.493   2.462  1.8087 -1.6155 -0.9106
   78MOL0     H10492  -0.767   7.578   2.301  1.0578  1.7548  1.1950
   78MOL0     H10493  -0.734   7.410   2.312 -3.6558  0.2749 -1.3701
   78MOL0     H10494  -0.488   7.594   1.761 -1.1740 -0.8250  0.9191
   78MOL0     H10495  -0.631   7.622   1.557 -2.5335 -1.0563  0.4663
   78MOL0     H10496  -0.913   7.740   1.344 -0.3473 -1.3710 -1.1231
   78MOL0     H10497  -0.760   7.669   1.396 -0.6555 -1.5994 -1.1542
   78MOL0     H10498  -0.935   7.492   1.362 -2.4400  0.4948 -0.4979
   78MOL0     H10499  -0.874   7.499   1.536 -2.4860  0.6853  1.8113
   78MOL0     H10500  -1.136   7.608   1.441  0.2598 -1.7052 -1.5529
   78MOL0     H10501  -1.060   7.634   1.598  0.2003 -0.3202 -0.4151
   78MOL0     H10502  -1.252   7.459   1.565  0.5750 -0.4307 -1.5474
   78MOL0     H10503  -1.131   7.345   1.501  0.6520  0.4199 -1.0504
   78MOL0     H10504  -1.127   7.499   1.766 -1.8965  0.3918 -2.0800
   78MOL0     H10505  -1.013   7.367   1.715 -0.1587 -2.6723 -1.6445
   78MOL0     H10506  -1.311   7.335   1.761  0.2411  1.2880  3.2161
   78MOL0     H10507  -1.205   7.207   1.689  0.4994 -1.1480  2.0349
   78MOL0     H10508  -1.174   7.306   1.968  0.5058  2.2401 -1.5427
   78MOL0     H10509  -1.065   7.190   1.894 -0.2594 -1.2506 -1.6363
   78MOL0     H10510  -1.218   7.037   2.006 -0.7234 -1.4269 -0.2552
   78MOL0     H10511  -1.230   7.030   1.840  2.8140  0.0013  0.9488
   78MOL0     H10512  -0.905   7.852   1.791  0.0141  0.4137 -0.7464
   78MOL0     H10513  -0.768   7.806   1.990 -1.7828 -0.0907 -0.2498
   78MOL0     H10514  -0.315   7.538   2.091  1.9049  0.7174  0.6933
   78MOL0     H10515  -0.178   7.537   2.308 -0.6927 -1.1525  0.2024
   78MOL0     H10516   0.198   7.151   2.849 -0.4516  0.5987 -0.7250
   78MOL0     H10517   0.406   7.021   2.884  3.1717 -0.0893  0.0857
   78MOL0     H10518   0.760   7.045   3.276 -1.4393  2.6240 -1.4151
   78MOL0     H10519   0.957   6.894   3.331 -0.5141  0.7686 -0.5624
   78MOL0     H10520   1.120   6.619   3.048  1.7159 -0.0389 -1.1222
   78MOL0     H10521   1.230   6.765   3.021  0.3518  1.3536 -0.6639
   78MOL0     H10522   1.362   6.685   3.201  0.4778 -0.6942  0.4788
   78MOL0     H10523   1.356   6.561   3.077  0.9058  1.0966 -0.1637
   78MOL0     H10524   1.198   6.425   3.180  2.6995 -0.4628 -0.6503
   78MOL0     H10525   1.158   6.542   3.302 -0.1894  0.6911  0.1385
   78MOL0     H10526   1.409   6.388   3.265 -1.2024  1.3526 -1.4258
   78MOL0     H10527   1.291   6.341   3.379 -2.0800  0.7261 -1.1789
   78MOL0     H10528   1.509   6.683   3.539 -0.0562 -0.0177  0.4293
   78MOL0     H10529   1.043   6.846   2.928 -0.2518  2.7424 -1.6545
   78MOL0     H10530   0.855   6.969   2.856 -3.2800 -0.7784  0.0420
   79MOL0     O10531   8.481   5.016   0.723  0.2000  0.2696 -0.0688
   79MOL0     C10532   8.519   4.907   0.673 -0.3650 -0.8003  0.8955
   79MOL0     O10533   8.442   4.794   0.663  0.3288  0.4746 -0.2711
   79MOL0     C10534   8.304   4.789   0.686 -0.0471 -0.1906  0.1583
   79MOL0     C10535   8.212   4.886   0.626  0.2718 -0.2029 -0.0070
   79MOL0     C10536   8.080   4.866   0.658  0.5315 -0.1401  0.2617
   79MOL0     C10537   8.029   4.770   0.744 -0.2366 -0.4705 -0.5267
   79MOL0     O10538   7.904   4.795   0.786 -0.1608 -0.6603  0.6233
   79MOL0     C10539   7.844   4.707   0.874 -0.0296  0.3833  0.0123
   79MOL0     C10540   7.706   4.745   0.884 -0.0356  0.5268 -0.1888
   79MOL0     C10541   7.629   4.671   0.997  0.4981  1.2166  0.8776
   79MOL0     C10542   7.468   4.701   0.998  0.3701  0.5085  0.0939
   79MOL0     C10543   7.380   4.620   1.085  0.3148 -0.2928 -0.0639
   79MOL0     C10544   7.372   4.472   1.029  0.1133 -0.2286 -0.3130
   79MOL0     C10545   7.295   4.378   1.126  1.2368  0.5146 -0.6553
   79MOL0     C10546   7.259   4.241   1.065 -0.5252 -0.5903  0.9268
   79MOL0     N10547   7.118   4.210   1.060  0.2580 -0.1902 -0.5426
   79MOL0     C10548   7.038   4.160   1.163  1.3143 -0.2740  0.2619
   79MOL0     C10549   6.909   4.165   1.118 -0.2402  0.9645 -0.8898
   79MOL0     C10550   6.782   4.115   1.177 -0.3120  0.0146 -0.3553
   79MOL0     C10551   6.726   4.223   1.267  0.6056 -0.0118 -0.3852
   79MOL0     C10552   6.700   4.188   1.417  0.2061 -0.7723  0.5473
   79MOL0     C10553   6.566   4.143   1.462  1.1926  0.0908 -0.7146
   79MOL0     O10554   6.554   4.171   1.601 -0.3848  0.3913 -0.4615
   79MOL0     C10555   6.479   4.075   1.668  0.5221  0.0432 -0.4003
   79MOL0     C10556   6.501   4.082   1.806  1.0184  0.8378  0.0080
   79MOL0     C10557   6.421   4.012   1.902 -0.5675 -0.6905  0.4953
   79MOL0     C10558   6.432   4.022   2.047 -0.6095 -0.2309  0.0707
   79MOL0     C10559   6.325   3.925   1.848 -0.9176  0.6314  0.0980
   79MOL0     C10560   6.234   3.847   1.923 -0.1107 -0.7959 -0.6706
   79MOL0     O10561   6.105   3.891   1.907 -1.0937  0.5956 -0.3992
   79MOL0     C10562   6.008   3.844   1.995 -0.0005  0.0514 -0.0720
   79MOL0     C10563   5.895   3.780   1.944  0.7702 -0.3449  0.0921
   79MOL0     C10564   5.790   3.736   2.029 -0.4904 -0.1751 -0.5107
   79MOL0     C10565   5.798   3.763   2.168 -0.5443 -0.0218  0.3889
   79MOL0     O10566   5.704   3.726   2.263 -0.8963 -0.4385 -0.0561
   79MOL0     C10567   5.623   3.617   2.224 -0.0871 -0.4760 -0.1906
   79MOL0     C10568   5.496   3.667   2.165  0.8305  0.4183 -0.1406
   79MOL0     C10569   5.403   3.554   2.142 -0.6608 -0.2736 -0.1346
   79MOL0     C10570   5.256   3.600   2.154 -0.5765 -0.2286  0.3040
   79MOL0     C10571   5.166   3.494   2.088 -0.4170  0.1826 -0.0731
   79MOL0     C10572   5.030   3.556   2.060  0.7421  0.1226  0.2566
   79MOL0     C10573   4.950   3.441   1.988  1.1254  0.3304  0.6714
   79MOL0     C10574   4.787   3.462   1.989 -0.7046  0.5316  0.0956
   79MOL0    Cl10575   4.747   3.490   2.153  0.0381 -0.2325  0.3906
   79MOL0     C10576   5.911   3.834   2.221 -0.1366  0.3237 -0.0805
   79MOL0     C10577   6.014   3.878   2.133  0.6346  0.6558  0.0911
   79MOL0     O10578   6.274   3.768   2.004  0.1610  0.4002 -0.9170
   79MOL0     C10579   6.316   3.911   1.711  0.6441 -1.4113  0.2725
   79MOL0     C10580   6.392   3.983   1.623  0.1789  0.0352 -0.0716
   79MOL0     N10581   6.918   4.218   0.995 -0.3308 -0.3305  0.6448
   79MOL0     N10582   7.037   4.242   0.958 -0.1787  0.0516 -0.0544
   79MOL0     C10583   8.115   4.678   0.805  0.2656 -0.7208  0.0264
   79MOL0     C10584   8.254   4.693   0.783  0.7377  0.3011 -0.0458
   79MOL0     C10585   8.654   4.895   0.611  0.0809 -0.7264  0.6025
   79MOL0     C10586   8.678   4.784   0.525 -0.0165  0.2673 -0.0344
   79MOL0     C10587   8.807   4.765   0.480 -1.4155  0.4770 -0.8732
   79MOL0     C10588   8.915   4.841   0.530 -0.5340  0.1189 -0.1570
   79MOL0     O10589   9.036   4.797   0.488  0.0781 -0.1578  0.0504
   79MOL0     C10590   9.155   4.869   0.534  0.1153  0.0953 -0.4347
   79MOL0     C10591   9.281   4.799   0.470 -1.6177  0.0875  0.1242
   79MOL0     C10592   9.415   4.808   0.553 -0.7658 -0.1477 -0.8454
   79MOL0     C10593   9.491   4.945   0.557  0.5463  0.0344 -0.3015
   79MOL0     C10594   9.431   5.024   0.663 -0.6528  0.3564 -0.0146
   79MOL0     C10595   9.362   5.095   0.732  0.6972  0.3475 -0.4900
   79MOL0     C10596   8.889   4.955   0.602 -0.0788 -0.3420 -0.2484
   79MOL0     C10597   8.759   4.974   0.652 -0.2761  0.5594  0.1406
   79MOL0     H10598   8.247   4.966   0.561  0.4424 -1.0891 -1.0273
   79MOL0     H10599   8.023   4.948   0.616  3.8066  1.8933 -0.5256
   79MOL0     H10600   7.860   4.606   0.836  0.8804  0.7741 -0.6950
   79MOL0     H10601   7.890   4.708   0.973 -1.9708 -0.3340  0.9688
   79MOL0     H10602   7.705   4.852   0.906  2.0883  0.2611  1.5488
   79MOL0     H10603   7.658   4.718   0.790  1.1912 -0.8498 -0.4526
   79MOL0     H10604   7.644   4.566   0.971 -1.1606  1.6165 -2.1502
   79MOL0     H10605   7.677   4.672   1.095 -0.0123 -3.9231  1.4619
   79MOL0     H10606   7.464   4.801   1.042 -0.0503  1.1531 -1.3688
   79MOL0     H10607   7.424   4.693   0.898  0.1134 -0.7282  0.2937
   79MOL0     H10608   7.405   4.626   1.192 -1.0195  0.7147  0.2058
   79MOL0     H10609   7.278   4.659   1.081  1.2119  2.1051 -1.3311
   79MOL0     H10610   7.309   4.481   0.940  2.2571 -0.6106 -1.9267
   79MOL0     H10611   7.468   4.428   1.004  0.6581  0.1927  0.9573
   79MOL0     H10612   7.341   4.359   1.224  1.5833  0.1397 -0.8859
   79MOL0     H10613   7.201   4.430   1.147  1.2009 -0.5510  2.3257
   79MOL0     H10614   7.311   4.161   1.117  1.9334  0.3301  0.0351
   79MOL0     H10615   7.281   4.232   0.958  0.1528 -0.1197  1.0189
   79MOL0     H10616   7.075   4.120   1.257  2.9190  1.1325  0.2936
   79MOL0     H10617   6.711   4.092   1.097  2.2696 -3.2086 -1.9744
   79MOL0     H10618   6.803   4.017   1.222  0.7550  0.4101  0.0421
   79MOL0     H10619   6.630   4.262   1.231 -0.7289 -1.3324  1.5397
   79MOL0     H10620   6.789   4.313   1.272  2.5912 -1.3518  0.0238
   79MOL0     H10621   6.729   4.279   1.471 -1.5610 -0.0510  0.3458
   79MOL0     H10622   6.772   4.111   1.446  2.3683  1.6241  2.0649
   79MOL0     H10623   6.544   4.040   1.433 -3.8016  1.2209 -1.9659
   79MOL0     H10624   6.491   4.198   1.405 -1.7953 -1.5113  1.3610
   79MOL0     H10625   6.572   4.156   1.842  1.8395 -0.6866  1.6501
   79MOL0     H10626   6.336   4.053   2.090  1.1101  2.4300  2.3492
   79MOL0     H10627   6.476   3.932   2.092 -1.8605 -0.8972  0.0055
   79MOL0     H10628   6.507   4.098   2.069  0.0750 -0.8805 -0.0205
   79MOL0     H10629   5.869   3.778   1.839  1.2727  3.0472 -0.2119
   79MOL0     H10630   5.694   3.695   1.999 -0.9099  0.5108 -0.1349
   79MOL0     H10631   5.666   3.547   2.152  2.1405 -3.1737  3.4120
   79MOL0     H10632   5.618   3.546   2.307  1.6007  1.9394  2.1714
   79MOL0     H10633   5.443   3.722   2.243  0.4042 -0.3336  0.1144
   79MOL0     H10634   5.505   3.733   2.079  2.4360  1.4054  0.7387
   79MOL0     H10635   5.413   3.472   2.214  0.4303  0.4073  0.5111
   79MOL0     H10636   5.422   3.504   2.046 -1.4446 -1.6414  0.4010
   79MOL0     H10637   5.244   3.641   2.255  3.0294  1.1372  0.3230
   79MOL0     H10638   5.239   3.689   2.093 -2.0285  0.5051  1.6994
   79MOL0     H10639   5.158   3.408   2.156 -0.0223 -0.2630 -0.5837
   79MOL0     H10640   5.215   3.467   1.994  3.6721  0.5150  1.7483
   79MOL0     H10641   4.992   3.610   2.147  0.6176 -0.2076  0.4097
   79MOL0     H10642   5.033   3.634   1.983  1.3234 -1.1428 -1.0414
   79MOL0     H10643   4.976   3.343   2.030  0.2153 -0.4113 -0.4653
   79MOL0     H10644   4.977   3.445   1.882  1.1148  4.2729  0.6939
   79MOL0     H10645   4.737   3.373   1.949  1.2435 -0.6727  0.1712
   79MOL0     H10646   4.761   3.554   1.935 -0.9047  1.3478  1.5296
   79MOL0     H10647   5.908   3.868   2.325 -0.6816  0.3693 -0.1100
   79MOL0     H10648   6.086   3.946   2.178 -0.3798  1.4300  0.5804
   79MOL0     H10649   6.237   3.844   1.678  1.3228 -1.9560 -0.2554
   79MOL0     H10650   6.378   3.970   1.517  4.0631  2.1805 -1.0292
   79MOL0     H10651   8.083   4.606   0.880 -0.5431 -1.0558 -0.6186
   79MOL0     H10652   8.321   4.624   0.832 -1.5054 -0.4236  2.1771
   79MOL0     H10653   8.596   4.723   0.487  0.4187 -2.3400  2.7900
   79MOL0     H10654   8.839   4.694   0.405  1.4001  0.0629  0.5709
   79MOL0     H10655   9.154   4.977   0.519  1.2557  0.3793  1.2199
   79MOL0     H10656   9.167   4.856   0.642 -0.8645 -1.9356 -0.5094
   79MOL0     H10657   9.294   4.836   0.368 -3.3772 -2.6755 -1.2211
   79MOL0     H10658   9.255   4.694   0.454  0.7512 -1.0164  2.6609
   79MOL0     H10659   9.489   4.742   0.508 -0.6643 -0.6687  0.0526
   79MOL0     H10660   9.398   4.771   0.655 -1.3009 -3.2314 -1.9420
   79MOL0     H10661   9.482   5.004   0.465  0.5113  0.4175 -0.0527
   79MOL0     H10662   9.593   4.925   0.589 -0.1916  1.2387  3.1698
   79MOL0     H10663   9.306   5.157   0.800 -0.2214 -0.4826 -0.4750
   79MOL0     H10664   8.958   5.034   0.630 -1.5936  0.7593  0.5353
   79MOL0     H10665   8.752   5.066   0.709 -0.1324  0.5362  0.1965
   80MOL0     O10666   7.924   3.119   6.128 -0.1479 -0.6536  0.1791
   80MOL0     C10667   7.983   3.184   6.039 -0.7570 -0.4776 -0.4546
   80MOL0     O10668   7.922   3.277   5.965 -0.9609 -0.2631  0.8321
   80MOL0     C10669   7.795   3.319   5.999  0.0881 -0.2032  0.1827
   80MOL0     C10670   7.687   3.228   5.978  0.7086  0.0874 -1.1153
   80MOL0     C10671   7.557   3.274   6.009 -0.1817 -0.1686 -0.0021
   80MOL0     C10672   7.536   3.403   6.060 -0.2052 -0.9042  0.4610
   80MOL0     O10673   7.406   3.450   6.084  0.7105 -0.0586 -1.1416
   80MOL0     C10674   7.358   3.582   6.055  0.2649 -0.0277 -0.4590
   80MOL0     C10675   7.207   3.567   6.044  0.6246 -0.3131  0.1803
   80MOL0     C10676   7.138   3.516   6.176 -0.5698 -0.6497  1.1483
   80MOL0     C10677   6.999   3.581   6.181  0.2347 -0.1951  0.2814
   80MOL0     C10678   6.922   3.510   6.292 -0.1516 -0.5527 -0.7847
   80MOL0     C10679   6.766   3.540   6.274 -0.3829 -0.2868 -1.0766
   80MOL0     C10680   6.692   3.490   6.395  1.0894  0.4888 -0.1277
   80MOL0     C10681   6.594   3.604   6.441 -0.5109  0.6957  0.7268
   80MOL0     N10682   6.496   3.652   6.340 -0.2016  0.1337  0.1914
   80MOL0     C10683   6.430   3.772   6.347 -0.2957 -0.2597 -0.5504
   80MOL0     C10684   6.342   3.769   6.239  0.4978  0.0805 -0.9673
   80MOL0     C10685   6.246   3.877   6.208  0.4214  0.2520  0.4322
   80MOL0     C10686   6.105   3.810   6.194  0.4986 -0.1382  0.3888
   80MOL0     C10687   6.051   3.762   6.327 -0.4953 -0.1308 -0.4532
   80MOL0     C10688   5.923   3.677   6.294  0.6717  0.2305 -0.1455
   80MOL0     O10689   5.821   3.775   6.263  0.3577  0.0696 -0.1800
   80MOL0     C10690   5.703   3.743   6.324  1.0381 -0.3001  0.4456
   80MOL0     C10691   5.620   3.622   6.310  0.9730 -0.4828  0.0923
   80MOL0     C10692   5.495   3.601   6.385 -0.6269  0.4151  0.9343
   80MOL0     C10693   5.441   3.451   6.388 -0.0627  0.0104 -0.7709
   80MOL0     C10694   5.444   3.708   6.458  0.1098  0.3051  1.0366
   80MOL0     C10695   5.322   3.702   6.541  0.8161 -0.2334 -0.3168
   80MOL0     O10696   5.308   3.807   6.631 -0.3637  0.0455 -0.3142
   80MOL0     C10697   5.176   3.829   6.668 -0.3576 -0.1408 -0.2823
   80MOL0     C10698   5.160   3.820   6.812 -0.9282  0.1402  0.3669
   80MOL0     C10699   5.039   3.867   6.859 -0.3191 -0.7519  0.5085
   80MOL0     C10700   4.929   3.890   6.784  0.0374 -0.5649 -0.6074
   80MOL0     O10701   4.802   3.924   6.824  1.2029 -0.6519 -0.1457
   80MOL0     C10702   4.760   3.918   6.962  0.3985  0.3679  1.4021
   80MOL0     C10703   4.612   3.934   6.984 -0.3101  0.3703 -0.0517
   80MOL0     C10704   4.539   3.808   6.950 -0.0332 -0.4032 -0.1015
   80MOL0     C10705   4.396   3.835   6.992 -0.5656  0.3657  0.1204
   80MOL0     C10706   4.309   3.712   7.004 -1.2260 -0.5738 -0.2480
   80MOL0     C10707   4.336   3.593   6.907 -0.5637 -0.1280 -0.2973
   80MOL0     C10708   4.280   3.626   6.769  0.4937  0.0145 -0.2135
   80MOL0     C10709   4.156   3.539   6.743 -0.7031  0.6474  0.0147
   80MOL0    Cl10710   4.032   3.578   6.874  0.0817 -0.1877  0.1917
   80MOL0     C10711   4.938   3.870   6.646 -0.6455 -0.1688 -0.1723
   80MOL0     C10712   5.064   3.850   6.583 -0.3897 -1.0101 -0.1140
   80MOL0     O10713   5.233   3.619   6.514  0.0613 -0.3889 -0.2111
   80MOL0     C10714   5.517   3.829   6.455  0.5861  0.2851 -0.0957
   80MOL0     C10715   5.637   3.840   6.383  0.4753  0.2218  0.2250
   80MOL0     N10716   6.359   3.648   6.169 -0.0344 -0.6036 -0.8867
   80MOL0     N10717   6.459   3.584   6.231 -0.1251  0.6872 -0.4851
   80MOL0     C10718   7.648   3.486   6.085 -0.1703  0.8141 -0.9173
   80MOL0     C10719   7.772   3.448   6.052 -0.5575  0.7349 -0.1048
   80MOL0     C10720   8.125   3.160   6.023 -0.1180 -0.0969  0.5651
   80MOL0     C10721   8.191   3.039   6.064  0.1125 -0.3430 -0.7767
   80MOL0     C10722   8.325   3.032   6.045 -0.5811  0.0233  0.6722
   80MOL0     C10723   8.403   3.124   5.978 -0.1636 -1.2997  0.3238
   80MOL0     O10724   8.530   3.101   5.955 -0.1198  0.3854 -0.2851
   80MOL0     C10725   8.609   3.162   6.059  0.3681  0.4016  0.3479
   80MOL0     C10726   8.628   3.078   6.191  0.6832  0.0992  0.4068
   80MOL0     C10727   8.678   2.939   6.153 -0.1848  0.2598  0.1847
   80MOL0     C10728   8.748   2.876   6.273 -0.7479  0.1278 -0.0183
   80MOL0     C10729   8.669   2.850   6.390 -0.9258 -0.2989  0.1414
   80MOL0     C10730   8.587   2.831   6.481 -0.0465  0.4085  0.6516
   80MOL0     C10731   8.336   3.241   5.933  0.0233 -0.4322 -0.3183
   80MOL0     C10732   8.202   3.258   5.950 -0.0816  0.1123 -0.9374
   80MOL0     H10733   7.693   3.130   5.930 -0.9329 -0.5535 -0.1116
   80MOL0     H10734   7.465   3.219   5.992  0.4533 -0.5909 -2.3273
   80MOL0     H10735   7.382   3.642   6.143 -1.2022  0.0176 -0.0593
   80MOL0     H10736   7.408   3.619   5.966  0.7809 -0.3458 -0.3081
   80MOL0     H10737   7.157   3.662   6.021 -3.4049 -1.9076  1.4741
   80MOL0     H10738   7.196   3.492   5.965  2.1386 -0.0489 -0.3037
   80MOL0     H10739   7.130   3.407   6.168  0.4556 -0.6664  0.1056
   80MOL0     H10740   7.191   3.536   6.269 -2.3995  0.2351  2.0505
   80MOL0     H10741   6.998   3.689   6.200  1.8616 -0.2871  1.0144
   80MOL0     H10742   6.955   3.565   6.082  1.8888  0.5975 -0.6242
   80MOL0     H10743   6.932   3.403   6.273 -0.6986 -0.4963 -1.4346
   80MOL0     H10744   6.969   3.534   6.388 -0.6518 -1.3328 -0.3307
   80MOL0     H10745   6.749   3.647   6.265 -1.2830  0.2496  3.9980
   80MOL0     H10746   6.726   3.490   6.185 -0.6034  0.6781 -1.5268
   80MOL0     H10747   6.638   3.395   6.381  1.2728  0.3637  0.0169
   80MOL0     H10748   6.764   3.470   6.474  2.2086  0.7039 -1.0674
   80MOL0     H10749   6.644   3.692   6.482 -1.6807  0.5627  2.5288
   80MOL0     H10750   6.535   3.561   6.522  0.2457  2.7457  2.4359
   80MOL0     H10751   6.449   3.858   6.409  0.4711  0.1432 -1.3144
   80MOL0     H10752   6.239   3.946   6.292  2.0822 -0.6428  1.3658
   80MOL0     H10753   6.275   3.939   6.123  1.2745 -0.1012  0.4519
   80MOL0     H10754   6.107   3.725   6.126 -4.1767 -2.0455  2.2178
   80MOL0     H10755   6.040   3.882   6.144  2.1498  0.3186 -1.1970
   80MOL0     H10756   6.025   3.841   6.398  0.9728  1.9183 -2.0607
   80MOL0     H10757   6.125   3.694   6.370  0.3001  1.2013  0.3359
   80MOL0     H10758   5.897   3.617   6.382 -2.0957  3.3466  1.3842
   80MOL0     H10759   5.932   3.602   6.216 -1.7998 -0.9485  0.6238
   80MOL0     H10760   5.654   3.542   6.244 -2.2022 -1.5693 -0.3783
   80MOL0     H10761   5.424   3.421   6.492  3.8148  5.7844  2.0775
   80MOL0     H10762   5.345   3.451   6.335 -0.6535  1.2942  0.2274
   80MOL0     H10763   5.516   3.388   6.340  2.4612  1.3712  1.1581
   80MOL0     H10764   5.247   3.810   6.876  2.5333  4.6496 -2.9083
   80MOL0     H10765   5.018   3.888   6.964 -0.8725  1.2518  0.0491
   80MOL0     H10766   4.792   3.821   7.000  2.1407 -0.1191 -1.0736
   80MOL0     H10767   4.807   4.002   7.015 -1.4852  2.8268 -0.5956
   80MOL0     H10768   4.589   3.947   7.090 -0.2476 -3.2509  0.5105
   80MOL0     H10769   4.584   4.021   6.924  0.2472 -0.1880 -1.1518
   80MOL0     H10770   4.590   3.725   7.001  0.1889 -1.0002 -1.2523
   80MOL0     H10771   4.533   3.797   6.841 -0.4182 -1.9703  0.0519
   80MOL0     H10772   4.392   3.878   7.092 -0.8678  1.4769 -0.3579
   80MOL0     H10773   4.354   3.906   6.920 -1.1030 -1.0475 -1.0205
   80MOL0     H10774   4.206   3.747   6.997 -1.1596 -0.2323  0.4840
   80MOL0     H10775   4.328   3.677   7.105 -0.6998  2.0207  0.6339
   80MOL0     H10776   4.443   3.569   6.898 -0.2379  1.7795 -2.3588
   80MOL0     H10777   4.281   3.508   6.948  0.2857 -0.6403 -0.1736
   80MOL0     H10778   4.348   3.605   6.686  1.9262  0.1792  0.8717
   80MOL0     H10779   4.247   3.729   6.756  1.5587  0.1958 -1.7627
   80MOL0     H10780   4.188   3.435   6.743  1.9382  1.3763 -0.9953
   80MOL0     H10781   4.114   3.547   6.642  1.2842 -0.5703 -0.9688
   80MOL0     H10782   4.857   3.901   6.582 -2.2468  2.5720  2.8720
   80MOL0     H10783   5.093   3.842   6.479 -0.4046 -1.6200 -0.0711
   80MOL0     H10784   5.481   3.911   6.517 -1.4904 -0.9631  0.4476
   80MOL0     H10785   5.681   3.939   6.373 -1.0153  1.3115  3.2297
   80MOL0     H10786   7.633   3.581   6.136  0.1738 -0.5319  1.9031
   80MOL0     H10787   7.856   3.510   6.082 -0.1896 -0.5126  1.5648
   80MOL0     H10788   8.143   2.952   6.106 -2.2815 -0.3606 -3.2848
   80MOL0     H10789   8.380   2.947   6.083  0.6514 -0.1478 -1.3493
   80MOL0     H10790   8.709   3.187   6.022  0.9434 -1.7606  0.3241
   80MOL0     H10791   8.566   3.261   6.076 -1.8969  0.4873 -4.3443
   80MOL0     H10792   8.528   3.055   6.229 -0.5093 -0.8022 -2.9211
   80MOL0     H10793   8.697   3.130   6.258 -1.9008  1.5478  2.1139
   80MOL0     H10794   8.752   2.958   6.075  0.0661 -1.1966  0.0309
   80MOL0     H10795   8.599   2.876   6.112  0.7097 -0.5355 -0.3536
   80MOL0     H10796   8.832   2.940   6.301  0.5561 -0.3319 -2.5781
   80MOL0     H10797   8.795   2.780   6.252  2.6377  0.4264  4.6885
   80MOL0     H10798   8.517   2.795   6.553 -2.0804  0.1668 -1.3601
   80MOL0     H10799   8.392   3.319   5.882 -0.6491 -0.3296 -0.9231
   80MOL0     H10800   8.165   3.359   5.932 -0.7235  0.1157  0.3199
   81MOL0     O10801  10.245   7.044   2.320  1.0372  0.2470 -0.1006
   81MOL0     C10802  10.363   7.045   2.285  0.1137 -0.1790 -0.2702
   81MOL0     O10803  10.429   7.153   2.232  0.0766 -0.3722 -0.2980
   81MOL0     C10804  10.378   7.276   2.240 -0.7942 -0.2550 -0.4529
   81MOL0     C10805  10.287   7.319   2.346  0.3307 -0.8242 -0.0055
   81MOL0     C10806  10.242   7.450   2.358 -1.0654 -0.2809  0.0741
   81MOL0     C10807  10.283   7.545   2.266 -0.4949  0.2256 -1.0564
   81MOL0     O10808  10.233   7.674   2.271  0.0080 -0.6816 -0.2155
   81MOL0     C10809  10.315   7.765   2.353 -0.5983  0.8387  0.3316
   81MOL0     C10810  10.260   7.905   2.360 -0.3000 -0.2780  0.4673
   81MOL0     C10811  10.126   7.937   2.423  0.0602  0.5917 -0.5030
   81MOL0     C10812  10.012   7.894   2.335  0.2306 -0.5987  0.3478
   81MOL0     C10813   9.878   7.944   2.395 -0.7522  0.2192  0.1525
   81MOL0     C10814   9.759   7.879   2.330  0.3988  1.1122  0.6466
   81MOL0     C10815   9.623   7.902   2.394 -0.6577 -0.0708 -0.3117
   81MOL0     C10816   9.616   7.865   2.540  1.0307 -0.1074 -0.4726
   81MOL0     N10817   9.478   7.892   2.589  0.0721  0.3348  0.5461
   81MOL0     C10818   9.444   7.873   2.720 -0.6156  0.7828  0.2388
   81MOL0     C10819   9.310   7.871   2.723 -0.3183  0.8875 -0.3908
   81MOL0     C10820   9.234   7.839   2.848  0.6668  0.9282  0.5527
   81MOL0     C10821   9.225   7.686   2.851 -0.5043  0.1524  0.2210
   81MOL0     C10822   9.140   7.632   2.966 -0.0168  0.1766 -0.3184
   81MOL0     C10823   8.983   7.646   2.961  0.5566 -0.0934  0.4420
   81MOL0     O10824   8.934   7.581   3.077 -0.4487 -0.5921  0.0617
   81MOL0     C10825   8.797   7.607   3.114  0.7501 -0.0265 -0.6234
   81MOL0     C10826   8.696   7.622   3.023 -0.4054  0.4664 -0.4855
   81MOL0     C10827   8.553   7.608   3.063 -0.5680 -0.6391 -0.0534
   81MOL0     C10828   8.456   7.593   2.950 -0.8621  0.1013  0.4379
   81MOL0     C10829   8.514   7.601   3.207 -0.1637  0.8541  0.7208
   81MOL0     C10830   8.383   7.573   3.250  0.2116  0.2360 -0.6066
   81MOL0     O10831   8.368   7.571   3.391  0.1493  0.1034  0.0228
   81MOL0     C10832   8.239   7.563   3.449 -1.3158 -0.2259  0.7144
   81MOL0     C10833   8.241   7.501   3.576  0.4637 -0.5305 -1.1433
   81MOL0     C10834   8.129   7.490   3.650  0.8760 -0.5536 -0.1479
   81MOL0     C10835   8.003   7.525   3.593  0.0592 -0.4685 -0.1056
   81MOL0     O10836   7.898   7.514   3.683 -0.4090  0.1680 -0.2355
   81MOL0     C10837   7.783   7.454   3.627  0.4488  0.2497 -0.0834
   81MOL0     C10838   7.684   7.440   3.740 -0.1094 -0.3244 -0.7981
   81MOL0     C10839   7.558   7.349   3.719  0.0197  0.4682 -0.4206
   81MOL0     C10840   7.441   7.402   3.802 -0.1567 -0.7473  0.0067
   81MOL0     C10841   7.309   7.329   3.756  0.0254 -0.3222 -0.0083
   81MOL0     C10842   7.196   7.349   3.856  1.1779 -0.3078  0.2256
   81MOL0     C10843   7.210   7.259   3.966 -0.1185  0.0697 -0.4412
   81MOL0     C10844   7.131   7.289   4.088  0.0837  0.4562 -0.4883
   81MOL0    Cl10845   6.954   7.272   4.063  0.1656 -0.2327  0.0408
   81MOL0     C10846   8.000   7.580   3.462  0.4339  0.4566 -0.3880
   81MOL0     C10847   8.117   7.596   3.392  0.1624 -0.9201 -0.5143
   81MOL0     O10848   8.294   7.537   3.169  0.4363  0.6018  0.1784
   81MOL0     C10849   8.625   7.605   3.296  0.6503 -0.2659 -0.4455
   81MOL0     C10850   8.757   7.597   3.250  0.3191 -0.7102  0.2894
   81MOL0     N10851   9.262   7.908   2.596  0.5525  0.0229  0.4346
   81MOL0     N10852   9.363   7.923   2.521  0.4990  0.0381 -0.7831
   81MOL0     C10853  10.364   7.514   2.154  0.0440 -0.0195 -0.2762
   81MOL0     C10854  10.412   7.378   2.144 -0.3465 -0.0419 -0.5310
   81MOL0     C10855  10.421   6.908   2.272  0.0231 -0.2928  0.3113
   81MOL0     C10856  10.389   6.801   2.344  0.1490  0.0547  0.3795
   81MOL0     C10857  10.457   6.675   2.332  0.1141 -0.1150 -0.1335
   81MOL0     C10858  10.570   6.665   2.251  0.7976  0.2374 -0.6682
   81MOL0     O10859  10.626   6.547   2.237  0.0237  0.1424 -0.5700
   81MOL0     C10860  10.767   6.542   2.213 -0.0359 -0.5485  0.2193
   81MOL0     C10861  10.824   6.399   2.236  0.3207 -0.6443 -0.3043
   81MOL0     C10862  10.765   6.287   2.150 -0.2333 -0.2280  0.4482
   81MOL0     C10863  10.830   6.255   2.016 -0.0146 -0.1717 -0.2534
   81MOL0     C10864  10.748   6.151   1.948  0.4572  0.2965  0.1016
   81MOL0     C10865  10.687   6.056   1.901  1.0222 -0.1902 -1.0909
   81MOL0     C10866  10.587   6.768   2.159  0.6917 -0.1139 -0.5792
   81MOL0     C10867  10.524   6.897   2.179 -0.5008 -0.2266  0.1915
   81MOL0     H10868  10.266   7.256   2.432  2.8856  0.4826  1.6855
   81MOL0     H10869  10.179   7.478   2.442 -0.5483  0.3782  0.2507
   81MOL0     H10870  10.315   7.713   2.450 -1.3211 -3.0679 -1.5718
   81MOL0     H10871  10.421   7.756   2.327 -1.0581  0.3269 -1.4461
   81MOL0     H10872  10.335   7.966   2.411 -2.0004  0.6961  1.9302
   81MOL0     H10873  10.260   7.938   2.256  0.4807 -1.3639  0.1073
   81MOL0     H10874  10.120   7.890   2.522 -0.9445  0.5495 -0.5725
   81MOL0     H10875  10.119   8.040   2.457 -3.1372  0.2810  0.1094
   81MOL0     H10876  10.014   7.930   2.232 -1.8920 -1.3984 -0.0362
   81MOL0     H10877  10.017   7.784   2.339 -0.9356 -0.8214 -1.9425
   81MOL0     H10878   9.879   7.911   2.499 -1.1565 -0.0382  0.0753
   81MOL0     H10879   9.874   8.054   2.395  1.3650  0.3354  0.2955
   81MOL0     H10880   9.753   7.904   2.223 -2.2657  2.5365  1.0421
   81MOL0     H10881   9.766   7.771   2.341 -2.7711  0.5727 -1.3741
   81MOL0     H10882   9.586   8.004   2.381  1.7905  0.8894 -0.2289
   81MOL0     H10883   9.545   7.852   2.335 -2.8910  2.7199  0.1185
   81MOL0     H10884   9.683   7.922   2.604 -1.7035 -0.3070  2.8908
   81MOL0     H10885   9.644   7.761   2.560  1.1206 -0.3657 -1.8372
   81MOL0     H10886   9.512   7.863   2.804 -0.8631  1.8502  0.5767
   81MOL0     H10887   9.270   7.886   2.939 -1.2066  2.6712  0.4561
   81MOL0     H10888   9.130   7.871   2.847 -0.7085 -2.9611  1.5548
   81MOL0     H10889   9.322   7.637   2.866  0.5311  1.6788 -1.1986
   81MOL0     H10890   9.191   7.645   2.756  0.3626 -0.9640  0.3676
   81MOL0     H10891   9.177   7.670   3.062  1.8694 -1.6808 -0.2592
   81MOL0     H10892   9.164   7.526   2.961  0.6745  0.2110  1.4006
   81MOL0     H10893   8.931   7.604   2.874  3.2089 -0.7701 -0.9408
   81MOL0     H10894   8.948   7.748   2.977  0.4671 -0.2032  0.9730
   81MOL0     H10895   8.720   7.620   2.917 -1.4069  1.0569 -0.7435
   81MOL0     H10896   8.506   7.606   2.853  0.5839 -4.6675  0.2839
   81MOL0     H10897   8.411   7.494   2.947  0.0452 -0.5058  3.5230
   81MOL0     H10898   8.381   7.672   2.959 -2.9260 -1.7911  0.6487
   81MOL0     H10899   8.342   7.484   3.612  0.8051 -1.9000 -2.6664
   81MOL0     H10900   8.136   7.464   3.755 -4.3680  1.0600  0.9106
   81MOL0     H10901   7.733   7.499   3.541 -0.8804 -0.5885  0.2097
   81MOL0     H10902   7.804   7.349   3.602 -0.9969 -1.8085  5.6345
   81MOL0     H10903   7.742   7.384   3.814 -1.1576 -1.2922 -0.6779
   81MOL0     H10904   7.654   7.538   3.780  0.0215 -0.9505  0.9481
   81MOL0     H10905   7.585   7.245   3.737  0.3846  0.1278 -2.5954
   81MOL0     H10906   7.525   7.351   3.615  0.6074 -2.1456 -0.7264
   81MOL0     H10907   7.469   7.379   3.906  0.1850 -1.1579 -0.1718
   81MOL0     H10908   7.418   7.508   3.788 -2.1854 -1.1335  0.0587
   81MOL0     H10909   7.322   7.223   3.735  0.0124 -0.0364 -1.6195
   81MOL0     H10910   7.278   7.377   3.663 -2.0656 -4.4644 -1.6622
   81MOL0     H10911   7.204   7.447   3.903  1.0789  0.3685 -1.1244
   81MOL0     H10912   7.097   7.339   3.812  1.2942 -2.9832  0.4195
   81MOL0     H10913   7.315   7.256   3.997 -0.3531  2.1657  0.8121
   81MOL0     H10914   7.187   7.159   3.929  1.7049 -0.0593 -1.3494
   81MOL0     H10915   7.162   7.386   4.128  0.9131  0.3366 -0.8312
   81MOL0     H10916   7.164   7.211   4.157  1.2892 -0.7364 -2.3171
   81MOL0     H10917   7.908   7.612   3.415 -0.4548 -0.6989  0.4737
   81MOL0     H10918   8.117   7.666   3.310  2.0261  0.8791  0.9259
   81MOL0     H10919   8.612   7.606   3.404 -0.4152 -3.0962 -0.4558
   81MOL0     H10920   8.831   7.582   3.328  1.0404  2.1653  0.2741
   81MOL0     H10921  10.393   7.593   2.085  1.4933  1.3884  1.8006
   81MOL0     H10922  10.478   7.343   2.065 -1.1315 -0.2344 -1.1100
   81MOL0     H10923  10.310   6.806   2.417  2.2547  2.6844  2.6902
   81MOL0     H10924  10.416   6.595   2.393  1.5149  0.3445  1.5252
   81MOL0     H10925  10.796   6.579   2.114  0.1431 -1.1523  0.0441
   81MOL0     H10926  10.806   6.611   2.289 -0.6688  0.5266 -0.4062
   81MOL0     H10927  10.794   6.378   2.339 -1.9128 -0.7888 -0.9247
   81MOL0     H10928  10.932   6.401   2.220  0.3551  1.7858 -0.1842
   81MOL0     H10929  10.657   6.300   2.138 -0.2934 -1.1801 -0.1474
   81MOL0     H10930  10.782   6.198   2.211  2.6883 -1.1553 -1.5188
   81MOL0     H10931  10.931   6.216   2.034  1.3312  1.7031 -3.1048
   81MOL0     H10932  10.825   6.342   1.951  0.3914 -1.7024 -2.4600
   81MOL0     H10933  10.641   5.974   1.851  0.1376 -0.8952  0.7729
   81MOL0     H10934  10.666   6.756   2.085  1.0161 -1.2161 -0.0761
   81MOL0     H10935  10.543   6.980   2.113 -3.4720 -0.2907 -0.9213
   82MOL0     O10936   7.589   1.528   7.042  0.2485 -0.4835  0.3437
   82MOL0     C10937   7.597   1.620   7.125 -0.1799  0.2966 -0.6415
   82MOL0     O10938   7.499   1.691   7.179  0.5204  0.6928 -0.3522
   82MOL0     C10939   7.378   1.678   7.117 -0.2208 -0.6115 -0.0961
   82MOL0     C10940   7.269   1.610   7.180 -0.1950  0.6456  0.2048
   82MOL0     C10941   7.143   1.603   7.121 -0.2241 -0.0329 -0.0990
   82MOL0     C10942   7.117   1.670   6.999 -0.5621 -0.0312  0.7885
   82MOL0     O10943   6.981   1.678   6.952 -0.1642 -0.2915 -0.6023
   82MOL0     C10944   6.945   1.811   6.904 -0.7039  0.5506  0.5802
   82MOL0     C10945   6.815   1.854   6.974  1.0943  0.1834 -0.3764
   82MOL0     C10946   6.730   1.951   6.886 -0.1069  0.4414 -0.6979
   82MOL0     C10947   6.584   1.974   6.930  0.1426  0.2676 -0.0962
   82MOL0     C10948   6.573   2.040   7.074  0.3336 -0.7958  1.2570
   82MOL0     C10949   6.430   2.081   7.102  0.2062  0.2955  0.1220
   82MOL0     C10950   6.425   2.150   7.235 -0.0002 -0.9334 -0.3936
   82MOL0     C10951   6.283   2.210   7.267  0.1177  0.3771  0.6856
   82MOL0     N10952   6.264   2.259   7.404  0.7907  0.6333  0.5128
   82MOL0     C10953   6.241   2.185   7.509  0.4996  0.4522  0.1886
   82MOL0     C10954   6.213   2.276   7.601  0.4970 -0.5106 -0.1838
   82MOL0     C10955   6.156   2.233   7.739  0.1895 -0.4999 -0.1206
   82MOL0     C10956   6.007   2.272   7.775 -0.1229  0.2115  0.4470
   82MOL0     C10957   5.900   2.215   7.678  0.1470 -0.4196  0.3694
   82MOL0     C10958   5.772   2.266   7.731  0.5832  0.0310 -0.1621
   82MOL0     O10959   5.671   2.205   7.645  0.1972  0.0145  0.0443
   82MOL0     C10960   5.600   2.121   7.727  0.3238  1.3694  0.1461
   82MOL0     C10961   5.483   2.156   7.795  0.7067  0.4954 -0.6534
   82MOL0     C10962   5.406   2.066   7.879  0.7604  0.3464  0.3490
   82MOL0     C10963   5.276   2.114   7.946  0.3081 -0.2698 -0.4241
   82MOL0     C10964   5.453   1.930   7.896 -0.0682 -0.4813  0.3806
   82MOL0     C10965   5.392   1.830   7.972 -0.1033 -0.2338 -0.3972
   82MOL0     O10966   5.288   1.871   8.058 -0.1071 -0.4717  0.5394
   82MOL0     C10967   5.256   1.782   8.161  0.0550 -0.0404  0.4726
   82MOL0     C10968   5.123   1.745   8.183  0.1389  0.0472  0.0656
   82MOL0     C10969   5.106   1.670   8.300  0.5087  0.1683 -0.5023
   82MOL0     C10970   5.204   1.631   8.392 -0.1628  0.4321 -0.4156
   82MOL0     O10971   5.179   1.559   8.510 -0.2828  0.5335 -0.2942
   82MOL0     C10972   5.058   1.591   8.579 -0.8294  0.6402 -0.7219
   82MOL0     C10973   5.062   1.539   8.724  0.1312 -0.1308  0.3843
   82MOL0     C10974   5.147   1.627   8.810 -1.2307 -0.3355 -0.3397
   82MOL0     C10975   5.114   1.594   8.952  0.5209 -0.5289 -0.6750
   82MOL0     C10976   5.197   1.659   9.061  0.0519  0.8446 -0.7353
   82MOL0     C10977   5.146   1.632   9.204  0.1022  0.2249 -0.3774
   82MOL0     C10978   5.192   1.735   9.316  0.2887 -0.1470 -1.3433
   82MOL0     C10979   5.341   1.761   9.320 -0.5848 -0.0437  0.5130
   82MOL0    Cl10980   5.440   1.606   9.313  0.4790  0.0580 -0.0425
   82MOL0     C10981   5.334   1.665   8.362  0.7026  0.2793  0.1538
   82MOL0     C10982   5.355   1.743   8.247 -0.5530  0.4062 -0.2750
   82MOL0     O10983   5.428   1.717   7.960 -0.0411 -0.0665 -0.5477
   82MOL0     C10984   5.570   1.904   7.814  0.3283  0.8472  0.9994
   82MOL0     C10985   5.645   1.997   7.731  1.0275  1.4411 -0.9012
   82MOL0     N10986   6.228   2.405   7.555 -0.3610  1.3890  0.4198
   82MOL0     N10987   6.256   2.394   7.433 -0.0387 -0.8891  0.7962
   82MOL0     C10988   7.227   1.743   6.935  0.1219 -0.7432 -0.4546
   82MOL0     C10989   7.353   1.739   6.992 -0.4462  0.4522  0.5628
   82MOL0     C10990   7.733   1.643   7.190  0.4193 -0.0575 -0.1441
   82MOL0     C10991   7.844   1.555   7.164 -0.0388 -0.3295  0.2226
   82MOL0     C10992   7.970   1.577   7.238 -0.5365  0.3188  0.2108
   82MOL0     C10993   7.979   1.675   7.332 -0.6478  0.1244 -1.0822
   82MOL0     O10994   8.104   1.687   7.394 -0.4927  0.7713 -0.0533
   82MOL0     C10995   8.124   1.762   7.506 -0.0786 -0.2578  0.9650
   82MOL0     C10996   8.235   1.875   7.491  0.3288 -0.0141  0.2719
   82MOL0     C10997   8.368   1.814   7.482 -0.2946 -0.7476  0.1294
   82MOL0     C10998   8.434   1.820   7.338 -0.0918 -0.4022  0.4397
   82MOL0     C10999   8.567   1.758   7.342  0.6522  0.4447  0.3844
   82MOL0     C11000   8.678   1.704   7.337  0.3343  0.0735  0.3835
   82MOL0     C11001   7.870   1.758   7.347  0.1391  0.8146  0.2886
   82MOL0     C11002   7.746   1.747   7.281 -0.1863 -0.5820 -0.9536
   82MOL0     H11003   7.302   1.565   7.273  2.7437 -0.1726 -1.1012
   82MOL0     H11004   7.064   1.548   7.172 -1.1010 -2.1756 -3.4506
   82MOL0     H11005   7.011   1.896   6.924 -0.3275  0.9758 -2.1106
   82MOL0     H11006   6.921   1.804   6.798 -1.7926 -3.1616  0.9069
   82MOL0     H11007   6.748   1.770   6.994 -2.2667  1.5576 -4.3451
   82MOL0     H11008   6.836   1.900   7.070  0.0511 -1.1618  0.5344
   82MOL0     H11009   6.793   2.041   6.881  3.6851 -1.5120  3.8150
   82MOL0     H11010   6.722   1.901   6.789 -0.2287  0.5491 -0.7422
   82MOL0     H11011   6.539   2.034   6.851  2.3932 -1.7589 -3.1108
   82MOL0     H11012   6.528   1.880   6.925  2.7348 -1.3508 -0.3669
   82MOL0     H11013   6.612   1.978   7.155  2.5874 -0.7601  0.2691
   82MOL0     H11014   6.637   2.129   7.080 -2.1145  1.2730 -0.7989
   82MOL0     H11015   6.393   2.156   7.032  1.1867  1.3357  0.6841
   82MOL0     H11016   6.375   1.987   7.090  0.0921  0.4664 -0.7644
   82MOL0     H11017   6.426   2.064   7.302  0.3098 -1.2823 -0.8377
   82MOL0     H11018   6.503   2.223   7.260  0.1719 -1.3219  0.2177
   82MOL0     H11019   6.210   2.131   7.252  1.0222 -1.0036  2.9690
   82MOL0     H11020   6.265   2.289   7.194 -0.6148  0.3517  0.8354
   82MOL0     H11021   6.231   2.080   7.535 -2.1229  1.1372  2.3666
   82MOL0     H11022   6.181   2.128   7.755  1.9724 -0.0478  0.2703
   82MOL0     H11023   6.223   2.291   7.804  2.5444 -1.2242 -1.7691
   82MOL0     H11024   6.004   2.381   7.771  3.9357  0.4677  0.0433
   82MOL0     H11025   5.980   2.243   7.877  4.3397 -2.1162  1.2601
   82MOL0     H11026   5.913   2.107   7.671  0.2590 -0.3554 -0.5603
   82MOL0     H11027   5.919   2.260   7.580  2.8762 -0.4116  0.8166
   82MOL0     H11028   5.769   2.374   7.719  2.4084  0.1107 -0.2411
   82MOL0     H11029   5.769   2.232   7.835  0.3334  0.3401 -0.0686
   82MOL0     H11030   5.432   2.250   7.775 -0.8641 -0.4706 -1.4302
   82MOL0     H11031   5.278   2.119   8.055 -0.0568 -2.9250 -0.2357
   82MOL0     H11032   5.256   2.216   7.913 -1.6266  0.5788  3.0013
   82MOL0     H11033   5.190   2.057   7.908  0.6895 -0.6087 -0.8012
   82MOL0     H11034   5.054   1.789   8.111  2.0074 -0.4111 -2.1253
   82MOL0     H11035   5.004   1.645   8.326  1.0049 -2.9087 -1.1743
   82MOL0     H11036   5.025   1.694   8.596  1.5766  1.3413  0.0791
   82MOL0     H11037   4.975   1.542   8.528 -2.2452  1.6069  0.5681
   82MOL0     H11038   4.961   1.522   8.764 -0.1170 -1.8528 -0.8516
   82MOL0     H11039   5.111   1.441   8.715  0.6120  0.2976 -2.4888
   82MOL0     H11040   5.120   1.732   8.793 -1.6216 -0.7091 -2.3093
   82MOL0     H11041   5.247   1.598   8.779 -2.0405 -2.2017 -1.3900
   82MOL0     H11042   5.011   1.630   8.966 -0.1466 -2.4674 -0.1366
   82MOL0     H11043   5.103   1.486   8.969 -2.8297  0.0929  2.3302
   82MOL0     H11044   5.186   1.767   9.042 -0.7084  0.8073 -0.5616
   82MOL0     H11045   5.302   1.632   9.049  0.1083  0.9214 -0.4085
   82MOL0     H11046   5.037   1.639   9.199 -0.3954 -4.8501 -1.5965
   82MOL0     H11047   5.177   1.536   9.246  1.2580  1.9323  3.0891
   82MOL0     H11048   5.163   1.690   9.411  2.4265  0.9399 -0.0986
   82MOL0     H11049   5.135   1.827   9.301  1.3153  0.3781 -2.1714
   82MOL0     H11050   5.362   1.820   9.410 -0.5882  1.3714 -0.3721
   82MOL0     H11051   5.359   1.819   9.228 -0.2163 -0.3230  0.4077
   82MOL0     H11052   5.415   1.625   8.422 -1.0196  0.1508  2.5574
   82MOL0     H11053   5.456   1.778   8.232 -1.0689  2.2804  0.3394
   82MOL0     H11054   5.606   1.803   7.798 -2.1511 -0.0659  0.7412
   82MOL0     H11055   5.727   1.956   7.674  1.1750  2.1625 -1.2037
   82MOL0     H11056   7.209   1.803   6.847  1.2128 -1.6465 -1.3219
   82MOL0     H11057   7.427   1.794   6.936 -2.6193  2.0023 -0.9650
   82MOL0     H11058   7.833   1.469   7.098 -1.9777 -0.0237  0.0877
   82MOL0     H11059   8.059   1.518   7.221 -0.3326  1.0530 -1.4553
   82MOL0     H11060   8.037   1.803   7.557 -0.8128 -1.2685  0.5397
   82MOL0     H11061   8.160   1.689   7.580  0.7462 -1.8631 -0.9126
   82MOL0     H11062   8.239   1.929   7.586  2.0979  0.6508 -0.1436
   82MOL0     H11063   8.208   1.944   7.410 -0.3407 -1.2459 -0.5777
   82MOL0     H11064   8.363   1.711   7.517 -2.3234 -1.4779 -2.0337
   82MOL0     H11065   8.437   1.876   7.540  0.2910  1.3303 -2.5630
   82MOL0     H11066   8.453   1.919   7.296  1.9885 -1.2896 -0.8970
   82MOL0     H11067   8.370   1.772   7.262  0.0156  2.5424 -1.7067
   82MOL0     H11068   8.777   1.664   7.337  0.8786  1.3689  0.7241
   82MOL0     H11069   7.879   1.842   7.416  0.6059  4.3043 -3.6171
   82MOL0     H11070   7.666   1.821   7.290 -0.2152 -0.6104 -0.9757
   83MOL0     O11071  10.375   1.969  10.602  0.2526 -0.5058  0.1335
   83MOL0     C11072  10.463   2.026  10.661 -0.4620 -0.5594 -0.3225
   83MOL0     O11073  10.442   2.098  10.772 -0.4843  0.4634 -0.8916
   83MOL0     C11074  10.319   2.115  10.821  0.4581  0.4275  0.1430
   83MOL0     C11075  10.268   2.241  10.805  0.2552  0.1105  1.3482
   83MOL0     C11076  10.148   2.271  10.862 -0.7245  0.3950  0.7240
   83MOL0     C11077  10.083   2.180  10.951  1.0475  0.0592 -0.3552
   83MOL0     O11078   9.977   2.238  11.025  0.2675 -0.1040 -0.5669
   83MOL0     C11079   9.896   2.156  11.116 -0.1614  0.7861  0.3858
   83MOL0     C11080   9.809   2.062  11.026 -0.0566  0.0853  0.3427
   83MOL0     C11081   9.706   2.004  11.110 -0.5013  0.1336 -0.6909
   83MOL0     C11082   9.598   1.921  11.042  0.4919 -0.7103 -0.0316
   83MOL0     C11083   9.534   1.844  11.152  0.7351 -0.3401 -0.1186
   83MOL0     C11084   9.619   1.729  11.206 -0.3686  0.5259  0.3191
   83MOL0     C11085   9.551   1.638  11.309 -0.2321  0.6259  0.6623
   83MOL0     C11086   9.652   1.563  11.402  0.7251 -0.0017 -0.5884
   83MOL0     N11087   9.685   1.436  11.341  0.4487  0.2634  0.3380
   83MOL0     C11088   9.813   1.380  11.362  0.4697  0.7747  0.8870
   83MOL0     C11089   9.791   1.252  11.324 -0.5629  0.9251 -0.2113
   83MOL0     C11090   9.892   1.143  11.331  0.9290 -1.0231  0.9693
   83MOL0     C11091   9.916   1.095  11.468 -0.6413  0.3479 -0.5869
   83MOL0     C11092   9.784   1.021  11.518 -0.0567 -0.9966  1.2524
   83MOL0     C11093   9.781   0.957  11.652  0.1491 -0.0936  0.0463
   83MOL0     O11094   9.775   1.045  11.760 -0.0036  0.2849 -0.8124
   83MOL0     C11095   9.652   1.076  11.813 -0.0261  0.7610  0.8401
   83MOL0     C11096   9.652   1.180  11.905 -1.2331  0.0883  0.1644
   83MOL0     C11097   9.542   1.223  11.964 -0.1391 -0.3251 -0.5761
   83MOL0     C11098   9.555   1.340  12.062 -0.9077  0.1417 -0.0993
   83MOL0     C11099   9.415   1.173  11.928  0.4361 -0.0690 -0.4433
   83MOL0     C11100   9.295   1.204  12.009  0.2709  0.4368 -0.4346
   83MOL0     O11101   9.318   1.216  12.143  0.0938 -1.0599 -0.3579
   83MOL0     C11102   9.210   1.234  12.220 -0.0618  0.3695  0.4320
   83MOL0     C11103   9.166   1.362  12.263 -0.6728 -0.5612  0.2123
   83MOL0     C11104   9.045   1.367  12.335 -0.2195 -0.6235  0.1732
   83MOL0     C11105   8.967   1.264  12.366  0.2333  0.3442 -0.4240
   83MOL0     O11106   8.844   1.265  12.435 -0.0749 -0.1575  1.8111
   83MOL0     C11107   8.799   1.391  12.483 -0.0337  0.2220 -0.3913
   83MOL0     C11108   8.715   1.465  12.378 -0.1017 -0.1211  0.6282
   83MOL0     C11109   8.680   1.605  12.425  0.3313  0.4850  0.2332
   83MOL0     C11110   8.586   1.607  12.544  0.4764 -0.5382  0.3438
   83MOL0     C11111   8.499   1.726  12.559  1.1882  0.1431 -0.8371
   83MOL0     C11112   8.439   1.728  12.703 -0.8715  0.5051 -0.2645
   83MOL0     C11113   8.342   1.847  12.722 -0.1734  0.0688  0.7424
   83MOL0     C11114   8.407   1.992  12.727 -0.1226  0.5303  0.6661
   83MOL0    Cl11115   8.292   2.116  12.791  0.2274 -0.4622 -0.1509
   83MOL0     C11116   9.016   1.143  12.331  0.6396  0.2024 -0.1653
   83MOL0     C11117   9.134   1.125  12.263  0.4084 -0.0149  0.0974
   83MOL0     O11118   9.186   1.214  11.953 -0.1016 -0.7864  0.3844
   83MOL0     C11119   9.411   1.078  11.828 -0.0208  0.0584 -0.0050
   83MOL0     C11120   9.521   1.030  11.768 -1.0203 -0.8535  0.0843
   83MOL0     N11121   9.661   1.232  11.287  0.3935  0.0160  0.0848
   83MOL0     N11122   9.596   1.346  11.293  0.0092 -0.4273  0.4454
   83MOL0     C11123  10.139   2.053  10.971 -0.0980  0.6646  0.1478
   83MOL0     C11124  10.255   2.014  10.899  0.0655 -1.1568 -0.2963
   83MOL0     C11125  10.603   2.012  10.633  0.5427  0.9891 -0.6133
   83MOL0     C11126  10.692   2.112  10.661  0.7089 -0.4057  0.5586
   83MOL0     C11127  10.832   2.100  10.631  0.4524  0.2411 -0.2319
   83MOL0     C11128  10.878   1.985  10.567 -0.2601  0.3006 -0.5897
   83MOL0     O11129  11.014   1.978  10.569 -0.5012 -0.1922  1.2164
   83MOL0     C11130  11.067   1.865  10.494  0.0718  0.5673  0.0481
   83MOL0     C11131  11.211   1.917  10.479  0.2271 -0.4436  0.5092
   83MOL0     C11132  11.309   1.823  10.406 -0.6013  0.3843  0.8543
   83MOL0     C11133  11.425   1.905  10.338 -0.6493  0.4626 -1.0498
   83MOL0     C11134  11.515   1.948  10.450 -0.5294  1.2391  1.0576
   83MOL0     C11135  11.588   1.985  10.539 -0.3020  0.1219  0.0800
   83MOL0     C11136  10.789   1.898  10.525  0.7296  0.4713 -0.1575
   83MOL0     C11137  10.652   1.900  10.562  0.0928 -0.2541 -1.0402
   83MOL0     H11138  10.330   2.314  10.754  0.1455 -0.5428  0.2187
   83MOL0     H11139  10.101   2.365  10.838 -2.1088 -0.5257 -0.3176
   83MOL0     H11140   9.953   2.104  11.194 -3.5605  1.4731  3.6463
   83MOL0     H11141   9.841   2.233  11.171  1.6064  0.9203  2.1208
   83MOL0     H11142   9.765   2.109  10.938 -3.3105 -2.0235  0.6908
   83MOL0     H11143   9.865   1.982  10.977 -0.5429 -1.7172  2.5634
   83MOL0     H11144   9.761   1.949  11.187 -2.0991 -1.3446 -0.5525
   83MOL0     H11145   9.648   2.079  11.163 -1.3843 -0.7792 -0.3409
   83MOL0     H11146   9.526   1.985  10.990 -1.6343 -1.2005  2.0979
   83MOL0     H11147   9.638   1.861  10.960 -1.7558  0.1925 -1.9169
   83MOL0     H11148   9.523   1.911  11.237  4.0623 -0.1408  0.2941
   83MOL0     H11149   9.433   1.817  11.121  0.2085 -0.6772  1.8047
   83MOL0     H11150   9.642   1.667  11.118  1.6415  1.9255 -0.2167
   83MOL0     H11151   9.711   1.766  11.252  0.4919 -2.4525  1.1971
   83MOL0     H11152   9.494   1.697  11.382  0.5561  2.4082 -0.0814
   83MOL0     H11153   9.493   1.561  11.258  3.3681 -1.2131 -1.0144
   83MOL0     H11154   9.601   1.539  11.496 -2.3229 -0.7906 -2.3034
   83MOL0     H11155   9.737   1.626  11.427  0.2269 -0.1495  1.6904
   83MOL0     H11156   9.912   1.413  11.393  1.1306  1.7974 -1.9704
   83MOL0     H11157   9.849   1.077  11.255 -0.6467 -1.0107  1.8122
   83MOL0     H11158   9.986   1.188  11.298  1.4271 -0.6357  2.8393
   83MOL0     H11159   9.954   1.161  11.546  0.9732 -0.7773 -0.3548
   83MOL0     H11160   9.997   1.025  11.448 -0.3142  0.8562 -1.0639
   83MOL0     H11161   9.774   0.944  11.440  0.2881  0.5148 -0.3477
   83MOL0     H11162   9.708   1.100  11.517 -0.3273 -1.2560  0.5193
   83MOL0     H11163   9.870   0.894  11.662  1.5057  1.9787  2.0971
   83MOL0     H11164   9.700   0.883  11.658 -2.1588  2.3838  1.1896
   83MOL0     H11165   9.746   1.212  11.949 -0.9396 -1.9093  1.1154
   83MOL0     H11166   9.650   1.394  12.054 -1.4343  1.2544  0.9638
   83MOL0     H11167   9.481   1.418  12.046  1.6022  2.5747 -0.5307
   83MOL0     H11168   9.531   1.309  12.164  0.1310  1.1246  0.4555
   83MOL0     H11169   9.210   1.455  12.229 -0.8169  0.6357  3.0186
   83MOL0     H11170   9.021   1.471  12.355  3.3259 -0.0432  2.3842
   83MOL0     H11171   8.741   1.366  12.572  1.7369 -1.7305  0.3062
   83MOL0     H11172   8.888   1.448  12.509  1.3931 -2.2048  0.3821
   83MOL0     H11173   8.765   1.458  12.281 -1.9733  1.1266 -0.4908
   83MOL0     H11174   8.617   1.421  12.359 -0.8851  1.3700  1.0846
   83MOL0     H11175   8.628   1.657  12.344 -4.4879  0.1035  2.7592
   83MOL0     H11176   8.771   1.664  12.442  1.0167  0.6022 -3.2315
   83MOL0     H11177   8.516   1.523  12.544 -0.1714 -0.0048  0.9280
   83MOL0     H11178   8.648   1.596  12.634  0.9782 -1.4955 -0.0945
   83MOL0     H11179   8.421   1.721  12.482 -1.1237 -1.5021  1.4514
   83MOL0     H11180   8.544   1.825  12.545 -2.1150  2.0459  0.6363
   83MOL0     H11181   8.383   1.636  12.720 -4.6240  2.7650  0.7270
   83MOL0     H11182   8.523   1.734  12.773 -2.4117  1.1181  1.5926
   83MOL0     H11183   8.299   1.837  12.822 -0.5754  1.1821  0.6973
   83MOL0     H11184   8.275   1.850  12.636  0.6108  0.2231  0.1246
   83MOL0     H11185   8.431   2.007  12.621 -0.6031 -0.8186  0.3291
   83MOL0     H11186   8.502   1.994  12.781 -0.6995  0.0725  1.7354
   83MOL0     H11187   8.965   1.056  12.370  0.3165  0.1152 -0.7701
   83MOL0     H11188   9.157   1.021  12.239 -0.4603  0.0016 -0.8847
   83MOL0     H11189   9.318   1.029  11.802  0.7481 -1.8205  0.5901
   83MOL0     H11190   9.499   0.960  11.687 -2.1926 -2.1451  1.4510
   83MOL0     H11191  10.104   1.975  11.038  0.4826  0.5185  0.2845
   83MOL0     H11192  10.296   1.915  10.917 -1.7120 -1.5210  2.2950
   83MOL0     H11193  10.650   2.200  10.709 -2.4380 -1.3590 -0.1582
   83MOL0     H11194  10.916   2.156  10.672  2.3283 -3.2121  1.0920
   83MOL0     H11195  11.062   1.765  10.537  1.7397  0.4830  0.1198
   83MOL0     H11196  11.027   1.863  10.392  3.8265 -0.2648 -1.5643
   83MOL0     H11197  11.250   1.931  10.581  1.0540  2.7846 -0.1504
   83MOL0     H11198  11.216   2.014  10.429 -1.3642 -1.4967 -1.8968
   83MOL0     H11199  11.242   1.777  10.332 -0.0334  2.3361 -0.9810
   83MOL0     H11200  11.356   1.747  10.468  1.3821  0.4876 -0.4318
   83MOL0     H11201  11.393   1.982  10.267 -1.8937  1.2008  0.2606
   83MOL0     H11202  11.487   1.844  10.271  0.4578 -1.2473  1.4019
   83MOL0     H11203  11.656   2.013  10.616 -0.9256  2.0046 -0.0039
   83MOL0     H11204  10.819   1.812  10.467 -0.6393 -0.2056  0.0822
   83MOL0     H11205  10.580   1.823  10.534 -1.0077 -0.5810  2.2537
   84MOL0     O11206   9.605   3.223   9.336 -0.6898  0.0857 -1.1439
   84MOL0     C11207   9.676   3.325   9.324 -0.1877  0.6437  0.2130
   84MOL0     O11208   9.624   3.448   9.297 -0.3665 -0.0584 -0.3111
   84MOL0     C11209   9.489   3.453   9.325 -0.7218  0.5182  0.7164
   84MOL0     C11210   9.402   3.407   9.234 -0.3966  0.1047  0.3467
   84MOL0     C11211   9.265   3.400   9.252  0.5523  0.0723 -0.0378
   84MOL0     C11212   9.205   3.459   9.358 -1.4797 -0.5053 -0.5840
   84MOL0     O11213   9.067   3.463   9.375 -0.4396  0.0346  0.0699
   84MOL0     C11214   9.004   3.555   9.470 -0.3518 -0.6246 -0.0938
   84MOL0     C11215   8.853   3.535   9.473 -0.9116 -0.5121  0.0976
   84MOL0     C11216   8.795   3.625   9.577  0.1326 -0.0352  0.4125
   84MOL0     C11217   8.657   3.580   9.632 -0.1255  0.3793 -0.2222
   84MOL0     C11218   8.652   3.556   9.781 -0.7725  0.5039  0.1814
   84MOL0     C11219   8.757   3.455   9.827 -0.1022  0.0550 -0.5849
   84MOL0     C11220   8.721   3.421   9.972  0.3087 -0.6986  0.4556
   84MOL0     C11221   8.837   3.358  10.045 -1.1863  0.1121 -0.8607
   84MOL0     N11222   8.949   3.452  10.054  0.5201  0.2274 -0.1571
   84MOL0     C11223   8.969   3.546  10.153  0.5699  0.7557  0.2095
   84MOL0     C11224   9.098   3.566  10.167 -0.5120  0.5093 -0.4845
   84MOL0     C11225   9.153   3.672  10.255 -0.6107 -0.3163 -0.0093
   84MOL0     C11226   9.197   3.611  10.398  0.3039 -1.3754  0.8642
   84MOL0     C11227   9.073   3.589  10.491 -0.1976  0.6878  0.6421
   84MOL0     C11228   9.086   3.530  10.633 -0.0652  0.4900  0.4303
   84MOL0     O11229   8.961   3.515  10.699  0.4696  0.6330  0.5260
   84MOL0     C11230   8.873   3.452  10.619  0.1761  0.8992 -0.6792
   84MOL0     C11231   8.891   3.319  10.580  0.0558 -0.2610 -0.2315
   84MOL0     C11232   8.790   3.259  10.496  0.1895 -0.2975 -0.7427
   84MOL0     C11233   8.815   3.117  10.456  0.6858  0.1817 -0.4594
   84MOL0     C11234   8.684   3.338  10.440 -0.3153  0.0679  0.2013
   84MOL0     C11235   8.574   3.273  10.359  0.3856 -0.2854  0.9770
   84MOL0     O11236   8.453   3.336  10.378  0.0171  0.2279  0.5083
   84MOL0     C11237   8.346   3.375  10.302 -1.0747 -0.4245 -0.5806
   84MOL0     C11238   8.272   3.472  10.356 -0.4408  0.2763 -0.2584
   84MOL0     C11239   8.179   3.541  10.284  0.0180  0.6664  1.4956
   84MOL0     C11240   8.152   3.508  10.145 -0.7765  0.1329 -0.9377
   84MOL0     O11241   8.056   3.582  10.080 -0.1357 -0.1309 -0.1256
   84MOL0     C11242   8.095   3.619   9.940  0.6202 -0.1522  0.5064
   84MOL0     C11243   8.183   3.739   9.910  0.7979  1.0795  0.0810
   84MOL0     C11244   8.232   3.731   9.767  0.1674 -0.4935  0.4249
   84MOL0     C11245   8.114   3.734   9.668 -0.3221  0.5028  1.1177
   84MOL0     C11246   8.158   3.829   9.548  0.1947  0.0360  0.8734
   84MOL0     C11247   8.061   3.805   9.429  0.5649  0.1119 -0.3796
   84MOL0     C11248   8.114   3.889   9.311  0.1467  1.2531 -0.0015
   84MOL0     C11249   8.062   3.856   9.172 -0.5160 -0.9646  0.0558
   84MOL0    Cl11250   7.890   3.901   9.158  0.0202 -0.0866  0.1790
   84MOL0     C11251   8.229   3.400  10.094 -0.6421  0.2392  0.1718
   84MOL0     C11252   8.334   3.336  10.170  0.2135 -0.3970  0.2163
   84MOL0     O11253   8.597   3.197  10.263  0.1616  0.3412  0.3260
   84MOL0     C11254   8.676   3.472  10.461 -0.2012 -0.9053  0.0913
   84MOL0     C11255   8.764   3.528  10.559 -0.1491  0.0802 -0.3016
   84MOL0     N11256   9.160   3.487  10.069  0.4475  0.0689 -0.5207
   84MOL0     N11257   9.069   3.416  10.001  0.1865 -0.2098 -0.1140
   84MOL0     C11258   9.299   3.500   9.454 -0.3242  0.1829 -0.6944
   84MOL0     C11259   9.443   3.497   9.443 -0.1717 -0.3168 -0.2758
   84MOL0     C11260   9.823   3.304   9.324 -0.7910 -0.6906  0.0307
   84MOL0     C11261   9.894   3.398   9.247 -0.5963  0.0669  0.4122
   84MOL0     C11262  10.037   3.374   9.231  0.1966 -0.4984 -0.6209
   84MOL0     C11263  10.098   3.259   9.285  1.1255 -0.0518 -0.3945
   84MOL0     O11264  10.225   3.237   9.240  0.2144 -0.1370  0.0307
   84MOL0     C11265  10.265   3.106   9.224 -0.7946  0.7236 -0.1005
   84MOL0     C11266  10.406   3.106   9.164  0.7072  0.2903  0.0054
   84MOL0     C11267  10.392   3.163   9.023  1.2919 -0.6143  0.1257
   84MOL0     C11268  10.526   3.203   8.958 -0.3217 -0.2252 -0.5399
   84MOL0     C11269  10.620   3.295   9.040  0.1624  0.2820  0.1564
   84MOL0     C11270  10.696   3.366   9.101 -0.1536 -0.3426 -0.1788
   84MOL0     C11271  10.021   3.175   9.366 -0.5258 -0.3205  0.0838
   84MOL0     C11272   9.887   3.197   9.385  0.4460 -0.0957  0.0606
   84MOL0     H11273   9.445   3.378   9.139 -0.3259  1.4797 -0.0694
   84MOL0     H11274   9.201   3.347   9.183  0.1056 -0.2349  0.6093
   84MOL0     H11275   9.038   3.543   9.573 -2.9744  0.7765  1.0430
   84MOL0     H11276   9.025   3.657   9.434 -0.7800 -1.3641 -2.6762
   84MOL0     H11277   8.804   3.546   9.376  1.2516  0.6405 -0.9386
   84MOL0     H11278   8.837   3.430   9.501  2.1624 -0.4913  2.6420
   84MOL0     H11279   8.864   3.649   9.658 -0.2595  2.5104  0.0835
   84MOL0     H11280   8.781   3.722   9.528 -0.9738 -0.7831 -0.8205
   84MOL0     H11281   8.574   3.649   9.613  1.1212  1.9404 -0.1762
   84MOL0     H11282   8.622   3.492   9.577 -3.5510  3.2438 -3.1519
   84MOL0     H11283   8.671   3.646   9.841  0.5317 -0.9300  1.9952
   84MOL0     H11284   8.553   3.518   9.809 -0.3651 -0.4823  0.3079
   84MOL0     H11285   8.750   3.368   9.761  2.8431 -0.3416 -0.5042
   84MOL0     H11286   8.864   3.479   9.830 -0.2890  0.8886  1.9429
   84MOL0     H11287   8.689   3.515  10.018  1.7586  0.4937 -0.8525
   84MOL0     H11288   8.630   3.359   9.976 -0.5630  0.2031 -2.5035
   84MOL0     H11289   8.866   3.272   9.983  0.5311 -0.6207  0.8632
   84MOL0     H11290   8.814   3.317  10.143 -0.1723  0.7242 -0.3490
   84MOL0     H11291   8.889   3.594  10.208  0.2495  0.5709 -0.0878
   84MOL0     H11292   9.241   3.715  10.205 -1.4373  0.9119 -0.4569
   84MOL0     H11293   9.085   3.757  10.264  0.9652  0.9616  0.4366
   84MOL0     H11294   9.268   3.677  10.449  0.2778 -0.6615 -0.0103
   84MOL0     H11295   9.265   3.526  10.387  0.2995 -1.0988 -2.0319
   84MOL0     H11296   9.022   3.511  10.434  1.7645 -0.7507  0.7290
   84MOL0     H11297   9.014   3.680  10.496  0.3562  1.2578 -1.7151
   84MOL0     H11298   9.163   3.586  10.687  2.6188 -2.4057 -0.0471
   84MOL0     H11299   9.128   3.429  10.625 -0.9813  0.1314  0.0031
   84MOL0     H11300   8.970   3.252  10.611  0.0430 -1.5912 -2.8001
   84MOL0     H11301   8.841   3.111  10.350 -0.3704 -1.7238 -0.6541
   84MOL0     H11302   8.898   3.076  10.516 -0.6166  2.3011  3.1065
   84MOL0     H11303   8.725   3.058  10.471  0.4203  0.9932  1.4409
   84MOL0     H11304   8.293   3.499  10.458 -0.5191 -0.7111  0.0321
   84MOL0     H11305   8.131   3.619  10.341 -1.4224  0.6962  0.3038
   84MOL0     H11306   8.122   3.531   9.880  2.7368 -0.0643  1.2742
   84MOL0     H11307   8.000   3.636   9.889  0.2263  1.8403  1.8026
   84MOL0     H11308   8.115   3.825   9.919  0.0983  0.6520 -0.8835
   84MOL0     H11309   8.267   3.755   9.977 -1.5662  1.3011  3.2172
   84MOL0     H11310   8.302   3.651   9.743  0.5695 -0.0392  0.0866
   84MOL0     H11311   8.287   3.824   9.759 -0.2630 -0.0723  2.0053
   84MOL0     H11312   8.117   3.634   9.624  0.1718  0.6014  0.9099
   84MOL0     H11313   8.016   3.750   9.713 -0.6691 -1.7520  1.2541
   84MOL0     H11314   8.260   3.799   9.520 -0.0359  0.1415 -0.1227
   84MOL0     H11315   8.149   3.934   9.576 -0.5143  1.3973 -3.5787
   84MOL0     H11316   8.055   3.701   9.399  0.7855 -0.9809  2.9003
   84MOL0     H11317   7.959   3.836   9.454 -0.1803 -1.7579 -0.9875
   84MOL0     H11318   8.223   3.891   9.303  0.0650  3.3027 -1.1639
   84MOL0     H11319   8.092   3.995   9.327  1.2640  1.5290 -0.2209
   84MOL0     H11320   8.069   3.752   9.136  0.0227 -0.7462 -0.4911
   84MOL0     H11321   8.119   3.902   9.091 -2.1716 -3.2838 -2.6072
   84MOL0     H11322   8.230   3.373   9.989 -1.6431  0.3524  0.1301
   84MOL0     H11323   8.394   3.267  10.112  2.6291  0.2430  1.8202
   84MOL0     H11324   8.602   3.534  10.412  0.1764  0.7575  1.5124
   84MOL0     H11325   8.757   3.630  10.597 -0.5155  0.0313 -0.2399
   84MOL0     H11326   9.259   3.559   9.536  1.6646  1.2206 -0.4143
   84MOL0     H11327   9.501   3.547   9.520 -0.5996  0.8261 -0.6712
   84MOL0     H11328   9.838   3.475   9.194 -0.3743 -1.1684 -1.7527
   84MOL0     H11329  10.088   3.434   9.157 -0.9085  1.1996 -0.0506
   84MOL0     H11330  10.265   3.056   9.321 -1.2432  0.3909 -0.2737
   84MOL0     H11331  10.196   3.052   9.160  1.7595 -1.8044 -0.9516
   84MOL0     H11332  10.455   3.008   9.163  3.9450  1.7495 -2.0392
   84MOL0     H11333  10.466   3.170   9.230 -0.1294  0.1430  0.9363
   84MOL0     H11334  10.327   3.251   9.023 -1.2666 -2.3323 -1.3437
   84MOL0     H11335  10.344   3.089   8.957  0.3688  2.0361 -2.4338
   84MOL0     H11336  10.513   3.259   8.865  3.7705 -0.6113 -1.5318
   84MOL0     H11337  10.578   3.114   8.921  1.4086  0.7207 -0.4618
   84MOL0     H11338  10.765   3.428   9.153  0.0162 -0.3625 -0.3802
   84MOL0     H11339  10.071   3.087   9.404 -0.1356 -0.4084 -0.6114
   84MOL0     H11340   9.824   3.125   9.436 -2.9063  0.5767 -2.7450
   85MOL0     O11341   0.421   3.531  10.722  0.3250  0.1568  0.2474
   85MOL0     C11342   0.425   3.517  10.841  0.2558 -0.4696  0.0153
   85MOL0     O11343   0.310   3.476  10.916 -0.1878 -0.2911  0.5152
   85MOL0     C11344   0.209   3.417  10.844  0.7382 -0.3612 -0.2950
   85MOL0     C11345   0.079   3.453  10.883  0.4739 -0.0151  0.6824
   85MOL0     C11346  -0.028   3.396  10.809 -0.0249  0.3813  0.0393
   85MOL0     C11347  -0.012   3.303  10.701 -0.4146 -0.5489  0.2811
   85MOL0     O11348  -0.122   3.263  10.634  0.4315  0.3613  0.2684
   85MOL0     C11349  -0.095   3.194  10.514 -0.3001 -0.0698 -0.4978
   85MOL0     C11350  -0.207   3.147  10.433  0.4537 -0.1695 -0.4557
   85MOL0     C11351  -0.277   3.253  10.343  0.1981 -0.3517  0.3177
   85MOL0     C11352  -0.361   3.180  10.236 -0.0665  0.1771  0.5323
   85MOL0     C11353  -0.407   3.280  10.130  0.1954  0.0912  0.5420
   85MOL0     C11354  -0.530   3.368  10.167 -0.2310  0.3569 -0.7298
   85MOL0     C11355  -0.660   3.291  10.198  0.1048  0.2142 -0.3060
   85MOL0     C11356  -0.791   3.347  10.140  0.2844  0.6627  0.3861
   85MOL0     N11357  -0.912   3.292  10.197  0.4105  0.5122  0.7396
   85MOL0     C11358  -0.978   3.356  10.299  0.2224 -0.0796 -0.3673
   85MOL0     C11359  -1.101   3.288  10.296 -0.3331 -0.7204  0.1144
   85MOL0     C11360  -1.203   3.333  10.397  0.5434  0.3895 -0.5243
   85MOL0     C11361  -1.330   3.246  10.405 -0.6085  0.2967  0.2304
   85MOL0     C11362  -1.303   3.106  10.456 -0.2030  0.4254  0.1531
   85MOL0     C11363  -1.437   3.042  10.485 -0.2523  0.0491  0.2732
   85MOL0     O11364  -1.525   3.130  10.565 -0.0534 -0.0460  0.3934
   85MOL0     C11365  -1.650   3.090  10.613 -0.1025  0.1376 -0.1978
   85MOL0     C11366  -1.684   2.957  10.635  0.1894 -0.5478  0.1464
   85MOL0     C11367  -1.807   2.909  10.693  0.2200  0.0703  0.1979
   85MOL0     C11368  -1.833   2.765  10.713  0.3452  0.9045 -0.7738
   85MOL0     C11369  -1.901   3.014  10.732 -0.6751 -0.2097  0.4115
   85MOL0     C11370  -2.025   2.983  10.794 -0.4587  0.7485 -1.0219
   85MOL0     O11371  -2.104   3.097  10.822 -0.2143  0.7394 -0.3403
   85MOL0     C11372  -2.222   3.093  10.900  0.1952  0.2907 -1.0988
   85MOL0     C11373  -2.219   3.132  11.038  0.4169 -0.3148  1.8064
   85MOL0     C11374  -2.337   3.137  11.114  0.0313 -0.0574 -0.0048
   85MOL0     C11375  -2.457   3.101  11.056 -0.0717 -0.8984 -0.2607
   85MOL0     O11376  -2.571   3.127  11.137  0.0807  0.2709  0.1768
   85MOL0     C11377  -2.612   3.268  11.130 -0.2118 -0.1566 -0.1576
   85MOL0     C11378  -2.746   3.279  11.054  0.6648  0.4366  0.7004
   85MOL0     C11379  -2.751   3.390  10.956  0.1635 -1.0233 -0.6304
   85MOL0     C11380  -2.905   3.418  10.920 -0.5933  0.2750  0.5385
   85MOL0     C11381  -2.904   3.528  10.816  0.2482  1.0520  0.5479
   85MOL0     C11382  -3.042   3.589  10.791 -0.0816 -1.0846  0.2343
   85MOL0     C11383  -3.036   3.713  10.706  0.0783  0.1827 -0.1123
   85MOL0     C11384  -3.165   3.788  10.684  1.5510  0.0801  0.6205
   85MOL0    Cl11385  -3.246   3.831  10.837  0.0771  0.1651  0.2956
   85MOL0     C11386  -2.467   3.074  10.919 -0.0643 -0.5830 -0.1426
   85MOL0     C11387  -2.346   3.072  10.840 -0.3477 -0.3441 -0.3795
   85MOL0     O11388  -2.064   2.864  10.811 -0.1952 -0.1780 -0.0586
   85MOL0     C11389  -1.865   3.146  10.703  0.5750 -0.4517 -0.1379
   85MOL0     C11390  -1.746   3.187  10.648  0.1134 -0.1358  0.5016
   85MOL0     N11391  -1.107   3.186  10.201 -0.7486 -0.2266  0.0919
   85MOL0     N11392  -0.984   3.187  10.152  0.1287  0.2402  0.1111
   85MOL0     C11393   0.118   3.260  10.683 -0.2070  0.4178  0.2872
   85MOL0     C11394   0.229   3.316  10.748 -0.3294 -0.9309 -1.2163
   85MOL0     C11395   0.543   3.565  10.918 -0.2520  0.9771  0.5210
   85MOL0     C11396   0.529   3.577  11.049  0.3367  0.1990 -0.0902
   85MOL0     C11397   0.633   3.634  11.125  0.2267  0.2900  0.9327
   85MOL0     C11398   0.756   3.656  11.072 -0.2214 -0.6123 -0.3186
   85MOL0     O11399   0.841   3.709  11.159 -0.7451 -0.6505  0.2104
   85MOL0     C11400   0.981   3.733  11.125  0.5786 -0.3778  0.7896
   85MOL0     C11401   1.065   3.759  11.256  0.1335 -0.6991 -0.4703
   85MOL0     C11402   1.017   3.888  11.331 -0.2837 -0.1644  0.3699
   85MOL0     C11403   1.126   3.919  11.437 -0.0287  0.5943 -0.2334
   85MOL0     C11404   1.110   3.847  11.562 -0.5350 -0.1639  0.0624
   85MOL0     C11405   1.089   3.772  11.649  0.1501  0.5469 -0.4209
   85MOL0     C11406   0.777   3.646  10.937 -0.6204  0.8894 -0.2756
   85MOL0     C11407   0.670   3.605  10.858 -0.5106  0.2972 -0.3745
   85MOL0     H11408   0.051   3.525  10.960 -2.5073 -0.9921  0.6327
   85MOL0     H11409  -0.130   3.417  10.841  0.4185  2.4747  0.1884
   85MOL0     H11410  -0.020   3.248  10.455 -1.5685  0.9279 -1.2537
   85MOL0     H11411  -0.047   3.099  10.540  1.4343  1.3977  2.1744
   85MOL0     H11412  -0.153   3.076  10.369  1.7379  1.3685 -1.1500
   85MOL0     H11413  -0.283   3.094  10.491  0.7198 -0.5657 -0.4567
   85MOL0     H11414  -0.341   3.314  10.408 -1.3564 -1.8939  0.3264
   85MOL0     H11415  -0.205   3.320  10.294 -2.7172  1.7257 -1.5316
   85MOL0     H11416  -0.294   3.109  10.187  0.6673 -0.5415  2.4747
   85MOL0     H11417  -0.443   3.125  10.281 -0.3389 -0.7752 -1.0692
   85MOL0     H11418  -0.323   3.338  10.091  0.3430 -1.1743 -1.1593
   85MOL0     H11419  -0.449   3.227  10.044  1.0523 -0.9311  0.7441
   85MOL0     H11420  -0.509   3.438  10.248 -3.0295 -0.4129  0.7935
   85MOL0     H11421  -0.551   3.439  10.086  0.4860  1.0311 -0.3418
   85MOL0     H11422  -0.644   3.189  10.161  0.3218 -0.3970  1.4028
   85MOL0     H11423  -0.660   3.298  10.307  1.8660  3.3266 -0.3983
   85MOL0     H11424  -0.784   3.324  10.034  0.2211 -2.2689  0.9582
   85MOL0     H11425  -0.789   3.454  10.167 -0.1636  0.2874  2.0350
   85MOL0     H11426  -0.950   3.446  10.352  2.7145 -0.1035 -1.4583
   85MOL0     H11427  -1.159   3.348  10.496  1.6042  4.0429 -1.3603
   85MOL0     H11428  -1.248   3.430  10.371 -1.9964 -1.0215 -1.8187
   85MOL0     H11429  -1.374   3.243  10.305  1.1105  1.2366 -0.5982
   85MOL0     H11430  -1.399   3.303  10.468 -1.7912  0.0500 -0.8111
   85MOL0     H11431  -1.252   3.116  10.553 -1.2177 -3.4153  1.2531
   85MOL0     H11432  -1.240   3.042  10.394 -0.6657 -0.5062  0.6199
   85MOL0     H11433  -1.417   2.950  10.540  1.9330  0.5558  0.4228
   85MOL0     H11434  -1.488   3.017  10.391  1.1225  1.6297 -0.9482
   85MOL0     H11435  -1.618   2.878  10.601  0.9352 -0.3887  1.2137
   85MOL0     H11436  -1.848   2.747  10.820 -2.8550  0.8786 -1.1190
   85MOL0     H11437  -1.918   2.734  10.652  0.4529 -0.2594 -0.3406
   85MOL0     H11438  -1.739   2.721  10.680  0.6749  2.5683 -2.2305
   85MOL0     H11439  -2.122   3.155  11.080  0.9837  0.8609 -0.0406
   85MOL0     H11440  -2.329   3.164  11.219 -0.5216  1.3129 -0.3001
   85MOL0     H11441  -2.630   3.313  11.229 -0.3171  0.2937 -0.3757
   85MOL0     H11442  -2.528   3.319  11.081  2.0372 -0.8502  2.6274
   85MOL0     H11443  -2.747   3.195  10.984 -0.1778 -1.6070  3.0476
   85MOL0     H11444  -2.838   3.275  11.113 -0.8497  0.1751 -1.5387
   85MOL0     H11445  -2.684   3.382  10.870 -1.3609  2.1152 -2.2599
   85MOL0     H11446  -2.721   3.484  11.003  1.6899 -2.0659  0.5757
   85MOL0     H11447  -2.946   3.326  10.877  0.2545 -0.4178  1.1702
   85MOL0     H11448  -2.967   3.439  11.008  0.0225 -1.7275  1.5261
   85MOL0     H11449  -2.872   3.475  10.725 -1.0050  1.5015 -0.1813
   85MOL0     H11450  -2.838   3.611  10.842  1.6037 -0.3473  1.7855
   85MOL0     H11451  -3.103   3.512  10.742 -0.9437 -0.5221  0.3897
   85MOL0     H11452  -3.091   3.614  10.886  0.1649 -2.5093  0.7587
   85MOL0     H11453  -2.996   3.681  10.609  1.6403 -0.0760  0.5956
   85MOL0     H11454  -2.967   3.784  10.752  0.7714 -0.1480 -0.6181
   85MOL0     H11455  -3.224   3.717  10.626 -2.1130  1.8501  1.8949
   85MOL0     H11456  -3.137   3.870  10.618  0.7880 -1.0714 -1.2079
   85MOL0     H11457  -2.562   3.061  10.868 -1.8656 -0.0082  2.8163
   85MOL0     H11458  -2.338   3.045  10.736  3.5918 -2.3878  0.2506
   85MOL0     H11459  -1.939   3.218  10.735 -2.4405 -2.9500 -1.0443
   85MOL0     H11460  -1.717   3.291  10.635  1.5834 -0.2428  2.4002
   85MOL0     H11461   0.139   3.190  10.603  0.8251  1.5574 -0.4888
   85MOL0     H11462   0.334   3.294  10.736 -0.2425 -0.2693 -1.6984
   85MOL0     H11463   0.434   3.546  11.092 -1.1390 -1.8445 -4.2147
   85MOL0     H11464   0.616   3.655  11.230  0.5075 -0.4295  1.1228
   85MOL0     H11465   1.023   3.654  11.061  0.2233  0.1125 -0.0755
   85MOL0     H11466   0.988   3.828  11.072 -0.0897  0.2128  1.7279
   85MOL0     H11467   1.170   3.769  11.230  1.2217 -2.9324  2.5723
   85MOL0     H11468   1.051   3.671  11.320  1.2843  0.7102  1.8196
   85MOL0     H11469   0.912   3.881  11.360 -0.9149  1.8557 -1.1419
   85MOL0     H11470   1.011   3.968  11.256  0.9773  0.4963  0.9308
   85MOL0     H11471   1.119   4.025  11.463  0.2405  0.2367  1.3813
   85MOL0     H11472   1.224   3.909  11.389 -0.7011 -3.2214 -1.1042
   85MOL0     H11473   1.074   3.690  11.717 -3.1055 -0.3475 -2.0048
   85MOL0     H11474   0.878   3.667  10.902  0.4394 -2.1047  0.6319
   85MOL0     H11475   0.686   3.611  10.751  2.7133  1.9230  0.0746
   86MOL0     O11476   9.105  10.879   9.751  0.4724 -0.1497  0.2424
   86MOL0     C11477   9.107  10.869   9.872  0.1405 -0.3292  0.2673
   86MOL0     O11478   9.009  10.901   9.958 -0.0508 -1.2967  0.0499
   86MOL0     C11479   8.876  10.904   9.918 -1.0953  0.0690  0.0559
   86MOL0     C11480   8.798  11.017   9.913 -0.2967 -0.2835  0.9276
   86MOL0     C11481   8.667  11.010   9.860 -0.8428 -0.3200 -0.9873
   86MOL0     C11482   8.608  10.894   9.829  0.2489 -0.1491  0.1825
   86MOL0     O11483   8.476  10.892   9.804  0.1022  0.0257 -0.1765
   86MOL0     C11484   8.422  10.793   9.709 -0.3856 -0.0967 -0.5494
   86MOL0     C11485   8.467  10.815   9.570 -0.4873  0.2125  0.3062
   86MOL0     C11486   8.417  10.950   9.525  0.1940  0.2726  0.8223
   86MOL0     C11487   8.480  10.983   9.385 -0.1584  0.5657  1.2798
   86MOL0     C11488   8.431  11.117   9.322 -0.0878 -0.0237  0.2439
   86MOL0     C11489   8.449  11.136   9.166  0.2273  0.5366  0.4357
   86MOL0     C11490   8.594  11.114   9.121 -0.0875  0.2224 -0.1977
   86MOL0     C11491   8.675  11.241   9.119 -1.1475  0.2937 -0.1810
   86MOL0     N11492   8.613  11.354   9.053  0.4719 -0.0478  0.5642
   86MOL0     C11493   8.552  11.341   8.926  0.0227 -0.5136  0.3087
   86MOL0     C11494   8.474  11.452   8.906 -1.3708 -0.3209  0.5638
   86MOL0     C11495   8.416  11.492   8.780  0.4438 -0.7053  0.7417
   86MOL0     C11496   8.478  11.616   8.729  0.8452 -0.3593  0.2734
   86MOL0     C11497   8.388  11.693   8.628 -0.7061  0.0272 -0.0497
   86MOL0     C11498   8.267  11.755   8.689 -0.1129 -0.0834  0.2614
   86MOL0     O11499   8.205  11.839   8.588 -0.1809  0.0705 -0.0081
   86MOL0     C11500   8.095  11.903   8.634  0.3907 -0.3960 -0.3984
   86MOL0     C11501   8.110  12.010   8.722  1.4882  0.4944  0.4969
   86MOL0     C11502   7.989  12.075   8.757  0.3901 -0.4204 -0.3233
   86MOL0     C11503   8.000  12.179   8.857 -0.6592  0.5212  0.8100
   86MOL0     C11504   7.860  12.035   8.706 -0.5215 -0.0864  0.3483
   86MOL0     C11505   7.727  12.085   8.751  0.3299 -0.8723 -0.0721
   86MOL0     O11506   7.621  11.994   8.740  0.4962  0.4109  0.4740
   86MOL0     C11507   7.489  12.023   8.770 -0.0317  0.2164  0.5775
   86MOL0     C11508   7.459  12.098   8.883  0.2124  0.3824 -0.1071
   86MOL0     C11509   7.323  12.128   8.910  0.5178  0.2603  1.3182
   86MOL0     C11510   7.227  12.094   8.818  0.8519  0.4512 -0.4165
   86MOL0     O11511   7.099  12.141   8.839 -0.4811 -1.0332 -0.2456
   86MOL0     C11512   6.998  12.159   8.736  0.1396  0.1274  0.3068
   86MOL0     C11513   6.883  12.238   8.797 -0.4972  0.2424  0.0908
   86MOL0     C11514   6.834  12.200   8.936  0.3440 -0.5008 -1.2192
   86MOL0     C11515   6.767  12.062   8.958  0.1459 -0.0733  0.3912
   86MOL0     C11516   6.698  12.030   9.092 -0.3038  0.8354  0.1181
   86MOL0     C11517   6.678  11.872   9.106 -0.0998 -0.5678 -0.2023
   86MOL0     C11518   6.562  11.841   9.194 -1.0938 -0.1505  0.1292
   86MOL0     C11519   6.445  11.761   9.124  0.0014 -0.0570 -0.1584
   86MOL0    Cl11520   6.366  11.870   9.011 -0.0142 -0.3208  0.4132
   86MOL0     C11521   7.258  12.017   8.708  0.2403  0.5783 -0.4284
   86MOL0     C11522   7.387  11.977   8.691 -0.7404  0.4219  0.3970
   86MOL0     O11523   7.719  12.201   8.789  0.7012 -0.0452  0.1074
   86MOL0     C11524   7.859  11.930   8.621 -0.5010 -0.9765  0.0329
   86MOL0     C11525   7.977  11.863   8.584  0.1438 -0.4518  0.1280
   86MOL0     N11526   8.474  11.524   9.026  0.1769  0.4735  0.6090
   86MOL0     N11527   8.550  11.458   9.113 -0.0604 -0.3885 -0.0959
   86MOL0     C11528   8.678  10.772   9.851  0.0508 -0.1224  0.7220
   86MOL0     C11529   8.809  10.781   9.893 -0.8090 -0.3404  0.0133
   86MOL0     C11530   9.243  10.855   9.927 -0.3732  0.7000  0.4059
   86MOL0     C11531   9.265  10.826  10.060  0.4525 -0.1234  0.4182
   86MOL0     C11532   9.380  10.759  10.111 -0.3962 -0.3649  0.2496
   86MOL0     C11533   9.496  10.746  10.027  0.2795  0.0524 -0.1991
   86MOL0     O11534   9.612  10.689  10.080 -0.0408 -0.6273 -0.0457
   86MOL0     C11535   9.736  10.687  10.011  0.0879  0.7354  0.6053
   86MOL0     C11536   9.857  10.651  10.098 -0.3510 -0.4711  0.9554
   86MOL0     C11537   9.911  10.776  10.151  0.5039 -0.3072  0.2796
   86MOL0     C11538  10.030  10.743  10.243  0.5721 -0.3776  0.1583
   86MOL0     C11539  10.154  10.818  10.217  0.2795  0.0099  0.0146
   86MOL0     C11540  10.251  10.891  10.225  0.1968  0.1847  0.6132
   86MOL0     C11541   9.480  10.787   9.894  0.4757 -0.3739  0.0531
   86MOL0     C11542   9.359  10.836   9.844  0.1034 -0.3440 -0.0860
   86MOL0     H11543   8.836  11.114   9.944 -0.0304 -0.2616  0.5353
   86MOL0     H11544   8.606  11.099   9.844  2.0201  2.0256  0.2880
   86MOL0     H11545   8.446  10.691   9.740 -0.2240  0.4079  1.1052
   86MOL0     H11546   8.313  10.784   9.710 -0.2499 -2.5692  0.6349
   86MOL0     H11547   8.576  10.814   9.566 -0.4453  2.3466 -0.9652
   86MOL0     H11548   8.421  10.748   9.498 -1.5160  2.2485 -1.0424
   86MOL0     H11549   8.308  10.960   9.520  0.1326  0.0345  1.5101
   86MOL0     H11550   8.453  11.024   9.597  0.1681  0.3452  0.7601
   86MOL0     H11551   8.588  10.988   9.396 -0.1587  0.3173  1.4001
   86MOL0     H11552   8.458  10.901   9.316  0.3431  0.7105  0.9428
   86MOL0     H11553   8.324  11.124   9.344 -1.1077 -1.7045 -3.3615
   86MOL0     H11554   8.484  11.200   9.369 -3.8914  2.1997  1.0034
   86MOL0     H11555   8.395  11.055   9.117  0.2711  0.4943  0.4588
   86MOL0     H11556   8.402  11.228   9.132  1.0540  1.6704  2.2001
   86MOL0     H11557   8.647  11.041   9.183 -1.5140 -0.1154  0.6837
   86MOL0     H11558   8.600  11.084   9.016  0.2422 -0.9867  0.1427
   86MOL0     H11559   8.771  11.225   9.068  0.4409  1.3499  2.3044
   86MOL0     H11560   8.702  11.278   9.218 -3.0931  2.6104 -0.4244
   86MOL0     H11561   8.577  11.263   8.854 -2.3576 -0.6338 -0.4845
   86MOL0     H11562   8.421  11.403   8.717  0.9222 -1.9517  2.4678
   86MOL0     H11563   8.310  11.515   8.787  0.5075  2.1796 -3.4376
   86MOL0     H11564   8.572  11.590   8.680  1.3352 -1.6223  1.8050
   86MOL0     H11565   8.508  11.686   8.808  2.2585 -0.8866  0.2368
   86MOL0     H11566   8.368  11.636   8.537 -3.2873  1.0878 -0.2250
   86MOL0     H11567   8.438  11.782   8.589 -2.0218  0.1796 -1.4816
   86MOL0     H11568   8.296  11.816   8.775  0.5176  1.9846 -1.3449
   86MOL0     H11569   8.196  11.677   8.718 -1.2844  0.9242  0.2060
   86MOL0     H11570   8.203  12.041   8.769  1.9338 -1.2349  0.8243
   86MOL0     H11571   7.935  12.186   8.944  0.0192  4.7950  1.2186
   86MOL0     H11572   8.104  12.190   8.887 -0.5038 -0.7676  0.7900
   86MOL0     H11573   7.978  12.279   8.817  1.7146 -0.6860 -4.2919
   86MOL0     H11574   7.539  12.138   8.945 -0.5376 -0.0161  1.1526
   86MOL0     H11575   7.292  12.197   8.988 -4.8946  1.9199 -1.7149
   86MOL0     H11576   7.045  12.199   8.645  0.0195 -1.0645 -0.2968
   86MOL0     H11577   6.972  12.058   8.704 -1.2543  1.2438 -2.3842
   86MOL0     H11578   6.903  12.345   8.804  0.5780  0.0292  0.4911
   86MOL0     H11579   6.795  12.217   8.734  0.2387 -0.5855 -0.6951
   86MOL0     H11580   6.767  12.282   8.964  1.6577  0.2738 -0.2129
   86MOL0     H11581   6.919  12.201   9.005 -0.8550  0.2171  0.2985
   86MOL0     H11582   6.692  12.052   8.878  0.4546 -1.5912  0.2587
   86MOL0     H11583   6.836  11.979   8.941 -1.4072 -1.2561 -0.4750
   86MOL0     H11584   6.605  12.089   9.093 -0.1383  1.0940  1.3937
   86MOL0     H11585   6.748  12.072   9.180  0.6786  1.6175 -0.7866
   86MOL0     H11586   6.661  11.843   9.002 -0.6922 -0.2217 -0.2087
   86MOL0     H11587   6.767  11.830   9.154 -0.3502 -0.1950  0.6165
   86MOL0     H11588   6.531  11.923   9.259  1.7460  1.3857 -0.2882
   86MOL0     H11589   6.606  11.765   9.260 -0.1251 -0.6089 -1.0103
   86MOL0     H11590   6.374  11.720   9.196  0.4123 -0.0044  0.2820
   86MOL0     H11591   6.492  11.673   9.079  1.8908  1.0450 -0.4865
   86MOL0     H11592   7.189  11.993   8.628 -0.2637 -0.0270  0.1846
   86MOL0     H11593   7.416  11.914   8.607  1.6901  0.0584  1.4322
   86MOL0     H11594   7.761  11.906   8.582 -1.3670 -2.9267  3.0623
   86MOL0     H11595   7.967  11.775   8.521 -1.7708  0.3911 -0.8408
   86MOL0     H11596   8.630  10.675   9.851 -3.7800  1.5824 -0.7789
   86MOL0     H11597   8.878  10.697   9.893  1.2170  1.2460 -0.4263
   86MOL0     H11598   9.186  10.854  10.130  0.6912  2.5420 -0.2589
   86MOL0     H11599   9.382  10.732  10.216  2.3009  0.0771  0.3904
   86MOL0     H11600   9.735  10.604   9.939 -1.6329 -0.3918  1.8533
   86MOL0     H11601   9.757  10.779   9.957 -1.2065 -0.4004 -2.0366
   86MOL0     H11602   9.925  10.612  10.021 -2.7372  0.7303 -1.9453
   86MOL0     H11603   9.818  10.583  10.174 -2.0876  1.8753  2.3191
   86MOL0     H11604   9.841  10.846  10.199  1.6463  0.1012  1.4213
   86MOL0     H11605   9.947  10.836  10.067  2.0449 -1.3469  0.1558
   86MOL0     H11606  10.063  10.640  10.232  0.2757 -0.2929 -1.6998
   86MOL0     H11607   9.999  10.759  10.347  2.7888  1.2301  0.6571
   86MOL0     H11608  10.328  10.961  10.253  0.0691 -0.4446  2.7702
   86MOL0     H11609   9.558  10.755   9.826 -2.7779 -1.3504 -3.5571
   86MOL0     H11610   9.361  10.836   9.736  2.0499  0.2195 -0.0818
   87MOL0     O11611   9.219  10.000   6.575  0.0915  0.3356 -0.0057
   87MOL0     C11612   9.197   9.895   6.507  0.6499 -0.5833 -0.3194
   87MOL0     O11613   9.090   9.807   6.528 -0.0008 -0.1620  0.0958
   87MOL0     C11614   9.006   9.824   6.643 -0.5961 -0.3286  0.5050
   87MOL0     C11615   8.955   9.711   6.702  0.5553 -0.2108 -0.1979
   87MOL0     C11616   8.855   9.711   6.795 -1.1498 -0.0487  0.1820
   87MOL0     C11617   8.792   9.830   6.826  0.2286 -0.8067 -0.3161
   87MOL0     O11618   8.698   9.827   6.924  0.5246  0.2648  0.4303
   87MOL0     C11619   8.615   9.943   6.956 -0.6167  0.3373  0.2769
   87MOL0     C11620   8.517   9.914   7.065 -0.1576 -0.5639  0.3798
   87MOL0     C11621   8.424  10.034   7.083  0.3043 -0.3595  0.4228
   87MOL0     C11622   8.306   9.987   7.170 -0.9844  0.7152 -0.5889
   87MOL0     C11623   8.223  10.115   7.196 -0.1136 -0.4618 -0.3038
   87MOL0     C11624   8.102  10.085   7.278 -0.8557  0.3441 -0.0857
   87MOL0     C11625   8.050  10.209   7.353  0.3198 -0.2336  0.7532
   87MOL0     C11626   7.911  10.193   7.422 -0.0483 -0.0870  0.4362
   87MOL0     N11627   7.864  10.306   7.500  0.5152 -0.6026 -0.3625
   87MOL0     C11628   7.900  10.327   7.633 -0.1996 -0.0132 -0.0236
   87MOL0     C11629   7.861  10.448   7.669  0.6191 -0.0698  0.0596
   87MOL0     C11630   7.886  10.514   7.807  0.9273  0.5094 -0.6680
   87MOL0     C11631   7.756  10.579   7.848  0.1898  0.4920 -0.0140
   87MOL0     C11632   7.778  10.616   7.997  1.4122 -0.7110 -0.9498
   87MOL0     C11633   7.665  10.709   8.054  0.2483  0.6131  0.5293
   87MOL0     O11634   7.546  10.630   8.059 -0.4245  0.1876  0.5747
   87MOL0     C11635   7.432  10.707   8.074  0.0680 -0.3638  0.5224
   87MOL0     C11636   7.404  10.839   8.116  0.6418 -1.0405  0.5725
   87MOL0     C11637   7.281  10.898   8.120  0.0113  0.6336  0.0875
   87MOL0     C11638   7.271  11.033   8.190  0.4981  0.0658  0.8749
   87MOL0     C11639   7.170  10.824   8.085  0.4696 -0.5054  0.1293
   87MOL0     C11640   7.026  10.877   8.099  0.6218  0.3668 -0.1024
   87MOL0     O11641   6.931  10.781   8.098 -0.2278  0.6080 -0.2885
   87MOL0     C11642   6.806  10.829   8.104  0.4919  0.3153 -0.6261
   87MOL0     C11643   6.733  10.839   8.224  0.5217  0.0078 -0.4847
   87MOL0     C11644   6.590  10.883   8.238  0.3574  0.5266  0.2718
   87MOL0     C11645   6.520  10.914   8.121 -0.1144 -0.2856 -0.3782
   87MOL0     O11646   6.388  10.942   8.099 -0.1744 -1.0124  0.0185
   87MOL0     C11647   6.311  10.990   8.209 -0.3336  1.1437  0.0077
   87MOL0     C11648   6.185  11.060   8.174 -0.5447 -0.3884 -0.0438
   87MOL0     C11649   6.121  11.110   8.298 -0.5480 -0.5285 -0.1141
   87MOL0     C11650   5.985  11.161   8.279 -0.1274 -0.2791  0.6521
   87MOL0     C11651   5.917  11.200   8.407 -1.1628  0.4204 -0.3076
   87MOL0     C11652   5.777  11.259   8.376  0.4616 -0.0253 -0.3088
   87MOL0     C11653   5.699  11.286   8.504 -0.2746  0.8279 -0.2151
   87MOL0     C11654   5.762  11.386   8.603 -0.2752  0.8867  0.4673
   87MOL0    Cl11655   5.625  11.485   8.665 -0.5637 -0.3139 -0.3752
   87MOL0     C11656   6.595  10.889   8.005 -0.4986  0.0730 -0.2953
   87MOL0     C11657   6.728  10.842   7.994 -0.2089  0.8505 -0.4817
   87MOL0     O11658   7.005  10.997   8.093 -0.1301 -0.1950 -0.6929
   87MOL0     C11659   7.192  10.689   8.054  0.3128 -0.5240 -0.1047
   87MOL0     C11660   7.309  10.635   8.061 -1.4929 -0.1627 -0.6375
   87MOL0     N11661   7.788  10.493   7.556  0.3573 -0.4752 -0.8591
   87MOL0     N11662   7.798  10.410   7.462 -0.0350 -0.4706  0.0035
   87MOL0     C11663   8.847   9.951   6.777 -0.0714 -0.3953  0.4339
   87MOL0     C11664   8.946   9.945   6.675  0.2874  0.0954  1.7856
   87MOL0     C11665   9.294   9.863   6.402  0.1137  0.6480  0.2984
   87MOL0     C11666   9.267   9.768   6.300 -0.1825  0.2831 -0.2543
   87MOL0     C11667   9.367   9.740   6.204  0.3862  0.1951 -0.2986
   87MOL0     C11668   9.494   9.808   6.205  0.5720  0.8874  0.0781
   87MOL0     O11669   9.592   9.795   6.104 -0.0753 -0.3928  0.2894
   87MOL0     C11670   9.640   9.655   6.101  0.3648 -1.1389 -0.4313
   87MOL0     C11671   9.772   9.651   6.178 -0.7119  0.0071 -0.5280
   87MOL0     C11672   9.840   9.508   6.176  0.1749  1.0243  0.1338
   87MOL0     C11673   9.961   9.510   6.073 -0.0981  0.7933 -0.4398
   87MOL0     C11674  10.079   9.592   6.096 -0.3423 -0.0628 -0.3060
   87MOL0     C11675  10.181   9.663   6.099  0.2341 -0.1561 -0.0753
   87MOL0     C11676   9.519   9.901   6.305 -0.1437  0.0874 -0.2474
   87MOL0     C11677   9.423   9.918   6.408  0.0033 -0.6310 -0.5143
   87MOL0     H11678   9.000   9.615   6.677  0.7382 -0.4481  0.9842
   87MOL0     H11679   8.817   9.619   6.839  0.6550 -0.0374  1.8677
   87MOL0     H11680   8.679  10.027   6.982 -0.7387  1.9729 -3.8532
   87MOL0     H11681   8.564   9.975   6.864  2.2468 -1.6423 -2.1972
   87MOL0     H11682   8.448   9.836   7.035 -2.3302  1.1224  0.7491
   87MOL0     H11683   8.573   9.895   7.157 -3.2478  1.6412  2.9282
   87MOL0     H11684   8.479  10.115   7.131 -0.3317  0.2355  0.1601
   87MOL0     H11685   8.381  10.062   6.987 -0.3360 -2.3745  0.0701
   87MOL0     H11686   8.244   9.917   7.114  1.5072 -2.0046 -0.1946
   87MOL0     H11687   8.334   9.934   7.262 -0.8501 -0.8378 -1.4866
   87MOL0     H11688   8.284  10.190   7.248 -1.5274 -0.0921  0.8853
   87MOL0     H11689   8.197  10.156   7.098  0.1358  3.0534  0.9556
   87MOL0     H11690   8.033  10.041   7.205 -0.7022  2.0249 -1.3177
   87MOL0     H11691   8.128  10.007   7.350  1.0838 -0.7663 -1.8755
   87MOL0     H11692   8.122  10.240   7.429  3.6460 -3.0102 -0.9994
   87MOL0     H11693   8.043  10.278   7.268  0.0408  0.4528  1.3269
   87MOL0     H11694   7.897  10.107   7.487  0.3919 -0.2441  0.3271
   87MOL0     H11695   7.839  10.174   7.342 -0.9242 -0.6402  1.3271
   87MOL0     H11696   7.963  10.260   7.690  1.0425 -0.1453 -1.4787
   87MOL0     H11697   7.918  10.447   7.887 -1.1023  1.8387  1.3557
   87MOL0     H11698   7.961  10.595   7.804 -0.0942  1.5193  0.1618
   87MOL0     H11699   7.673  10.508   7.838 -0.7414  1.6433 -0.7860
   87MOL0     H11700   7.727  10.670   7.795  0.5923  1.7747  1.8820
   87MOL0     H11701   7.869  10.677   8.005  0.1290  1.1211  0.5703
   87MOL0     H11702   7.798  10.522   8.049  4.2192 -1.9691 -3.9448
   87MOL0     H11703   7.654  10.789   7.979  0.3472 -0.1690 -0.3414
   87MOL0     H11704   7.688  10.746   8.154  0.2277 -2.0085  1.5769
   87MOL0     H11705   7.483  10.910   8.139  0.1472 -0.3374  0.1643
   87MOL0     H11706   7.362  11.075   8.233  0.0783 -0.3170  2.1821
   87MOL0     H11707   7.230  11.110   8.123 -2.4563  0.5779  3.0510
   87MOL0     H11708   7.200  11.020   8.273  1.3002  0.9302  1.7280
   87MOL0     H11709   6.794  10.818   8.311  1.9662  2.8484 -0.6772
   87MOL0     H11710   6.544  10.880   8.337 -2.1837 -1.1918 -0.8594
   87MOL0     H11711   6.293  10.903   8.272  3.0835  0.2259 -0.0861
   87MOL0     H11712   6.366  11.056   8.278 -0.0375 -0.5066  1.4282
   87MOL0     H11713   6.201  11.144   8.106 -0.9759  1.3774  1.9523
   87MOL0     H11714   6.115  11.004   8.111 -1.3546  3.0157 -2.4679
   87MOL0     H11715   6.175  11.200   8.330 -0.7639 -0.4164 -0.0626
   87MOL0     H11716   6.118  11.023   8.365 -2.3834 -2.2861 -2.3080
   87MOL0     H11717   5.981  11.246   8.211 -1.5604 -0.4957  0.4481
   87MOL0     H11718   5.923  11.085   8.232  1.8999 -0.1844 -2.4843
   87MOL0     H11719   5.977  11.271   8.464 -0.5452 -0.4618  0.1587
   87MOL0     H11720   5.922  11.108   8.466 -0.1895  1.3609  1.1271
   87MOL0     H11721   5.785  11.350   8.316 -2.5609 -1.2972 -2.9121
   87MOL0     H11722   5.717  11.191   8.315  2.7517  0.1252 -2.9231
   87MOL0     H11723   5.699  11.187   8.551  0.1800  1.4373  1.0994
   87MOL0     H11724   5.595  11.315   8.486 -0.3954  2.7948  2.9825
   87MOL0     H11725   5.844  11.448   8.569 -0.8710  1.8819  0.8011
   87MOL0     H11726   5.798  11.333   8.692  0.6579 -1.0165 -0.9817
   87MOL0     H11727   6.541  10.888   7.911 -1.6488  0.2769  0.3450
   87MOL0     H11728   6.768  10.830   7.894  2.2264  0.8862  0.4043
   87MOL0     H11729   7.108  10.620   8.047  0.4754 -0.8954  1.3209
   87MOL0     H11730   7.320  10.529   8.041  0.5311  0.1331 -1.3182
   87MOL0     H11731   8.801  10.046   6.802 -0.2300  0.3066 -2.2631
   87MOL0     H11732   8.979  10.033   6.621 -0.6031 -1.2272 -1.1085
   87MOL0     H11733   9.167   9.725   6.301 -0.3620  0.5257  2.7164
   87MOL0     H11734   9.357   9.665   6.126  1.0473 -0.9786  0.7209
   87MOL0     H11735   9.565   9.590   6.146  1.7084 -0.0790  3.7586
   87MOL0     H11736   9.657   9.619   5.999  3.6100 -0.2962 -0.3138
   87MOL0     H11737   9.773   9.674   6.285  2.0875  2.6409 -0.9631
   87MOL0     H11738   9.850   9.715   6.137 -0.0190 -1.4435 -1.5388
   87MOL0     H11739   9.760   9.441   6.142  0.3296  0.6597  0.4747
   87MOL0     H11740   9.879   9.480   6.274  0.0987 -2.8112 -0.7574
   87MOL0     H11741   9.922   9.530   5.973 -0.3087 -1.0884 -0.7684
   87MOL0     H11742   9.991   9.405   6.079 -0.8421  0.5830  4.5094
   87MOL0     H11743  10.265   9.730   6.102  2.0724 -2.3307  1.5383
   87MOL0     H11744   9.613   9.955   6.300  0.7254 -1.3449 -0.0148
   87MOL0     H11745   9.438  10.002   6.475  0.6429 -0.0922 -1.3154
   88MOL0     O11746  11.139   0.995   8.690 -0.0829  0.5584 -0.2285
   88MOL0     C11747  11.151   1.111   8.719 -0.1678 -0.2946 -0.6702
   88MOL0     O11748  11.204   1.155   8.832 -0.6968  0.0359 -0.5415
   88MOL0     C11749  11.292   1.072   8.907 -0.6079 -0.7965 -0.4235
   88MOL0     C11750  11.303   1.105   9.040 -0.6387 -0.3913 -0.2343
   88MOL0     C11751  11.402   1.044   9.121 -0.6517  0.8296 -0.1476
   88MOL0     C11752  11.491   0.948   9.067 -0.9098  0.2837  0.4080
   88MOL0     O11753  11.613   0.906   9.130 -0.0770  0.9862 -0.4147
   88MOL0     C11754  11.694   1.000   9.211  0.7924 -0.5459 -0.7658
   88MOL0     C11755  11.814   0.929   9.271  0.8658 -0.4416  0.4672
   88MOL0     C11756  11.921   1.022   9.324 -0.2673 -0.6787 -0.0480
   88MOL0     C11757  12.014   0.952   9.422  0.3679 -0.6674  0.0045
   88MOL0     C11758  12.122   1.049   9.479 -0.0218 -1.1217  0.7310
   88MOL0     C11759  12.081   1.156   9.572 -0.2732 -0.5170  0.3200
   88MOL0     C11760  12.017   1.098   9.692 -0.8769 -0.1474 -0.7892
   88MOL0     C11761  11.862   1.117   9.694  0.5589 -0.1774  0.2804
   88MOL0     N11762  11.815   1.261   9.669 -0.3081  0.4965  0.1924
   88MOL0     C11763  11.874   1.382   9.696 -0.1765 -0.5643  0.1260
   88MOL0     C11764  11.803   1.475   9.617 -0.7263 -0.1612 -0.3121
   88MOL0     C11765  11.835   1.611   9.603 -0.4031 -0.6848 -0.2471
   88MOL0     C11766  11.715   1.698   9.629  0.2900  1.0278 -0.4423
   88MOL0     C11767  11.681   1.724   9.781  0.5348  0.7994 -0.6230
   88MOL0     C11768  11.544   1.780   9.804 -0.0515 -0.2466 -0.5660
   88MOL0     O11769  11.531   1.807   9.941  0.4139  0.0112 -0.4995
   88MOL0     C11770  11.401   1.827   9.983 -0.1902 -0.5372  0.8841
   88MOL0     C11771  11.334   1.955   9.965 -0.9515 -0.6261  0.0485
   88MOL0     C11772  11.200   1.981  10.002 -0.2317  0.2206 -0.3429
   88MOL0     C11773  11.146   2.130   9.972  0.4886  0.9064 -0.6677
   88MOL0     C11774  11.128   1.877  10.064  0.9336  0.4023 -0.9263
   88MOL0     C11775  10.984   1.889  10.094 -0.1288 -0.5686 -0.2760
   88MOL0     O11776  10.930   1.765  10.129 -0.4517  0.0874  0.1358
   88MOL0     C11777  10.795   1.747  10.143  0.1145 -0.1457 -0.3382
   88MOL0     C11778  10.707   1.789  10.042  0.5191 -0.4181  0.1816
   88MOL0     C11779  10.569   1.761  10.058  0.6707 -0.3580 -0.0771
   88MOL0     C11780  10.520   1.697  10.182  0.0409  0.2567  1.1533
   88MOL0     O11781  10.391   1.660  10.201 -0.5558  0.2811  0.5972
   88MOL0     C11782  10.311   1.624  10.082 -0.0016 -0.7912  0.1160
   88MOL0     C11783  10.176   1.578  10.125  0.7813  0.4574  0.6129
   88MOL0     C11784  10.095   1.526  10.003 -0.3245 -0.7927 -0.4860
   88MOL0     C11785   9.944   1.518  10.023 -0.6032 -0.3319 -0.5307
   88MOL0     C11786   9.860   1.629   9.950  0.4746 -0.0079 -0.5878
   88MOL0     C11787   9.858   1.623   9.792  0.1996  0.3454 -0.2575
   88MOL0     C11788   9.785   1.744   9.735 -0.9070 -0.6705  0.1512
   88MOL0     C11789   9.767   1.741   9.582 -0.0855  0.1446  0.4314
   88MOL0    Cl11790   9.911   1.701   9.494 -0.0891 -0.1194 -0.2592
   88MOL0     C11791  10.607   1.654  10.272  0.1213  0.0389 -0.8386
   88MOL0     C11792  10.744   1.682  10.258  0.6418 -0.3284  0.3420
   88MOL0     O11793  10.922   1.995  10.087 -0.2655 -0.4644  0.0871
   88MOL0     C11794  11.191   1.751  10.085 -0.1620  0.1454 -0.7703
   88MOL0     C11795  11.322   1.730  10.045 -0.3226  0.0657  0.0860
   88MOL0     N11796  11.707   1.415   9.545  0.5074  0.1274  0.4637
   88MOL0     N11797  11.718   1.292   9.578 -0.0321  0.9940  0.6127
   88MOL0     C11798  11.480   0.926   8.930  0.8045  0.0345  0.4858
   88MOL0     C11799  11.392   1.003   8.852 -0.5829  0.5573  0.1008
   88MOL0     C11800  11.122   1.211   8.615  0.4765 -0.2287 -0.4849
   88MOL0     C11801  11.080   1.334   8.652  0.7747 -0.1026 -0.0994
   88MOL0     C11802  11.050   1.429   8.553  0.6162 -0.1878 -1.9661
   88MOL0     C11803  11.049   1.387   8.421  0.7642  0.0069 -0.4170
   88MOL0     O11804  11.026   1.473   8.318  0.4373  0.0583 -1.0253
   88MOL0     C11805  10.985   1.610   8.332 -0.6244  0.0004 -0.0252
   88MOL0     C11806  10.983   1.677   8.188  0.6118  0.4155 -0.6933
   88MOL0     C11807  10.867   1.645   8.105 -0.2426 -0.4613 -0.6848
   88MOL0     C11808  10.740   1.704   8.158 -0.1995 -0.1302 -0.3752
   88MOL0     C11809  10.645   1.665   8.055  0.3805 -0.1638 -0.3356
   88MOL0     C11810  10.565   1.642   7.972  0.4388  0.5949 -0.0822
   88MOL0     C11811  11.100   1.266   8.384  0.6117  0.2671  1.0138
   88MOL0     C11812  11.126   1.169   8.481  0.2644 -0.2776  0.0182
   88MOL0     H11813  11.248   1.190   9.078  0.6587 -0.2047  1.3643
   88MOL0     H11814  11.419   1.075   9.223  0.9140  0.3995 -0.2529
   88MOL0     H11815  11.715   1.086   9.147 -4.5881  1.7906  0.0333
   88MOL0     H11816  11.640   1.038   9.299  2.4056 -3.4564  1.6971
   88MOL0     H11817  11.786   0.861   9.351 -0.5342 -0.1453  0.2476
   88MOL0     H11818  11.854   0.868   9.189  0.0174  2.8394 -2.6435
   88MOL0     H11819  11.975   1.077   9.247  1.4615  1.8273  2.7040
   88MOL0     H11820  11.867   1.094   9.386 -0.7481 -1.5050  0.5168
   88MOL0     H11821  11.954   0.907   9.501 -0.8284 -1.2064 -1.1804
   88MOL0     H11822  12.064   0.878   9.359  1.2117 -0.7568  0.7594
   88MOL0     H11823  12.209   0.990   9.511  0.0467 -1.7998 -0.6377
   88MOL0     H11824  12.154   1.108   9.393  0.1469 -0.1724  1.4229
   88MOL0     H11825  12.167   1.217   9.603  0.1958 -1.3014  0.5881
   88MOL0     H11826  12.012   1.217   9.512  1.3517  0.2903 -0.8278
   88MOL0     H11827  12.046   0.992   9.700  0.7670  0.4100  1.4637
   88MOL0     H11828  12.057   1.145   9.782 -0.1453  0.6703 -1.5334
   88MOL0     H11829  11.821   1.091   9.792  2.0768 -1.2980  0.6626
   88MOL0     H11830  11.817   1.050   9.621 -0.5089  1.4814 -0.6455
   88MOL0     H11831  11.953   1.395   9.769  0.0005 -0.0473 -0.1523
   88MOL0     H11832  11.905   1.654   9.676 -1.0124  0.8410 -0.5066
   88MOL0     H11833  11.878   1.627   9.504  2.5714 -1.6783  0.7823
   88MOL0     H11834  11.624   1.657   9.584 -0.3850  0.9583  0.9133
   88MOL0     H11835  11.727   1.797   9.584  0.9462  0.8919 -0.5613
   88MOL0     H11836  11.753   1.792   9.826  1.8048 -1.1273  0.3976
   88MOL0     H11837  11.685   1.632   9.840  0.4579  0.0634 -1.7352
   88MOL0     H11838  11.465   1.709   9.778 -0.3772 -1.8171  3.8525
   88MOL0     H11839  11.525   1.872   9.748 -1.2035  0.4820  0.9322
   88MOL0     H11840  11.390   2.040   9.927 -0.2762 -0.4210  1.4445
   88MOL0     H11841  11.063   2.126   9.901  0.0999  1.6530 -0.2606
   88MOL0     H11842  11.118   2.182  10.064  0.4329 -0.5295  0.1541
   88MOL0     H11843  11.219   2.191   9.918 -0.1582  0.9772 -1.4848
   88MOL0     H11844  10.750   1.820   9.948  1.1915 -0.4711  0.4664
   88MOL0     H11845  10.496   1.794   9.985  0.0308  3.8033  2.1297
   88MOL0     H11846  10.297   1.711  10.017  1.8639 -0.0602  0.6474
   88MOL0     H11847  10.363   1.550  10.020  3.5682  1.7886 -0.2729
   88MOL0     H11848  10.192   1.498  10.198  1.1324  0.5544  0.6442
   88MOL0     H11849  10.130   1.659  10.182 -0.5196  0.8336 -0.9188
   88MOL0     H11850  10.134   1.427   9.978  0.1430 -0.5012 -0.9306
   88MOL0     H11851  10.114   1.585   9.913  2.0996  0.4469  0.7395
   88MOL0     H11852   9.905   1.419  10.001  0.9143 -0.2728 -4.2795
   88MOL0     H11853   9.923   1.526  10.130  0.0852 -1.9476 -0.2415
   88MOL0     H11854   9.908   1.724   9.973  1.4522 -0.4780 -0.6204
   88MOL0     H11855   9.756   1.623   9.982  0.0579 -1.0073 -2.0139
   88MOL0     H11856   9.962   1.626   9.757 -0.3830 -0.0717 -2.1047
   88MOL0     H11857   9.821   1.530   9.749 -2.0885  0.7353  0.7164
   88MOL0     H11858   9.850   1.831   9.746  0.3848 -1.1952 -2.5693
   88MOL0     H11859   9.693   1.766   9.790 -0.6072 -1.1577  0.8697
   88MOL0     H11860   9.722   1.838   9.557 -0.0794 -0.4980 -2.5200
   88MOL0     H11861   9.694   1.664   9.559  1.0854 -0.1389 -3.0195
   88MOL0     H11862  10.575   1.605  10.363 -2.7195 -3.4683 -3.4647
   88MOL0     H11863  10.817   1.653  10.332 -0.6388  0.7255  2.1107
   88MOL0     H11864  11.132   1.671  10.129 -2.4819  2.0350 -0.3038
   88MOL0     H11865  11.363   1.631  10.062  0.1784 -0.0019 -1.3831
   88MOL0     H11866  11.549   0.858   8.882  0.0556 -0.6627  0.3725
   88MOL0     H11867  11.393   0.980   8.746  0.1433 -0.7763  0.3681
   88MOL0     H11868  11.071   1.364   8.756  0.2572  0.5471 -0.3185
   88MOL0     H11869  11.026   1.531   8.581  0.8641 -0.8403  0.8357
   88MOL0     H11870  10.898   1.632   8.394  1.2152  0.5912  2.5495
   88MOL0     H11871  11.071   1.656   8.382  1.0799 -0.1008 -2.6524
   88MOL0     H11872  11.076   1.645   8.140  0.7556 -1.5005  0.7595
   88MOL0     H11873  10.987   1.786   8.198  3.1053  0.5109 -1.8785
   88MOL0     H11874  10.846   1.539   8.086  0.1271 -0.5120 -0.8265
   88MOL0     H11875  10.906   1.687   8.012  1.6003  1.3288  0.8095
   88MOL0     H11876  10.740   1.813   8.163 -1.6226  0.1569 -3.7682
   88MOL0     H11877  10.702   1.659   8.251  1.6149 -1.5681 -0.2629
   88MOL0     H11878  10.493   1.608   7.900  1.9022 -0.0639 -1.3205
   88MOL0     H11879  11.098   1.230   8.282 -0.4034 -0.2786  1.2064
   88MOL0     H11880  11.162   1.071   8.451  1.8690 -0.5674  2.6285
   89MOL0     O11881   2.290   3.295   4.779 -0.6192  0.0383  0.0891
   89MOL0     C11882   2.301   3.395   4.844 -0.3067  0.1067 -0.4546
   89MOL0     O11883   2.419   3.459   4.880 -0.1715  0.1652  0.5696
   89MOL0     C11884   2.543   3.427   4.836 -0.2789 -0.6201  0.1397
   89MOL0     C11885   2.636   3.519   4.860 -0.2427 -0.2492  0.1544
   89MOL0     C11886   2.768   3.498   4.824 -0.2959 -0.2501 -0.0264
   89MOL0     C11887   2.811   3.381   4.758 -0.2834 -0.3785  0.1709
   89MOL0     O11888   2.944   3.366   4.723  0.0039 -0.2187  0.1279
   89MOL0     C11889   2.995   3.233   4.703 -0.5743 -0.5813  0.5378
   89MOL0     C11890   3.149   3.228   4.728  0.4627 -0.4794 -0.4428
   89MOL0     C11891   3.216   3.125   4.635 -0.0503 -0.5363 -0.5941
   89MOL0     C11892   3.371   3.132   4.631 -1.2835  0.2944 -0.8188
   89MOL0     C11893   3.439   3.121   4.769  0.2959 -0.0658  1.0751
   89MOL0     C11894   3.594   3.108   4.749  0.0135  0.4234 -0.1690
   89MOL0     C11895   3.668   3.241   4.712 -0.0796 -0.3822  0.0111
   89MOL0     C11896   3.687   3.274   4.562  0.3841  1.4311 -0.6251
   89MOL0     N11897   3.742   3.160   4.490  0.6613 -0.0379  0.9557
   89MOL0     C11898   3.868   3.106   4.496  0.2981 -0.0690  0.0428
   89MOL0     C11899   3.867   3.018   4.397 -0.5559 -0.5545  0.0784
   89MOL0     C11900   3.974   2.925   4.362 -0.1709  0.3892 -0.6263
   89MOL0     C11901   3.971   2.877   4.212  0.3639 -0.0704  0.6814
   89MOL0     C11902   4.077   2.774   4.178 -0.4116  0.0905 -0.0112
   89MOL0     C11903   4.077   2.648   4.276  0.3287  0.1082 -0.0298
   89MOL0     O11904   4.137   2.523   4.237 -0.0056  0.1395  0.6591
   89MOL0     C11905   4.135   2.408   4.313  0.6035  0.5361 -0.0006
   89MOL0     C11906   4.066   2.397   4.435 -0.3521 -1.0155 -0.2905
   89MOL0     C11907   4.074   2.286   4.509  0.5190  0.8966  0.3333
   89MOL0     C11908   4.014   2.296   4.649 -0.0280 -0.0534  0.4723
   89MOL0     C11909   4.126   2.166   4.453  0.3253 -0.1165 -0.1532
   89MOL0     C11910   4.104   2.032   4.510 -0.9428 -0.0008  0.0400
   89MOL0     O11911   4.154   1.929   4.429  0.0092 -0.2217 -0.4036
   89MOL0     C11912   4.166   1.809   4.488 -0.2842 -0.7174 -0.2846
   89MOL0     C11913   4.116   1.699   4.428 -1.4342  0.5624 -0.3513
   89MOL0     C11914   4.121   1.568   4.481  0.1914 -1.7543 -0.2598
   89MOL0     C11915   4.188   1.552   4.606 -0.0759 -0.2950 -0.5257
   89MOL0     O11916   4.195   1.437   4.670  0.5500 -0.7023 -0.4272
   89MOL0     C11917   4.104   1.330   4.627 -0.1582 -0.4781  0.5239
   89MOL0     C11918   4.109   1.228   4.736 -0.0379 -0.0561 -0.4863
   89MOL0     C11919   4.020   1.108   4.724  0.9705  0.4765 -0.1847
   89MOL0     C11920   3.874   1.131   4.773  0.1969  1.0088  1.2049
   89MOL0     C11921   3.806   0.993   4.779 -0.0173  0.0109 -0.2380
   89MOL0     C11922   3.770   0.931   4.644  0.8586 -0.0876 -0.3311
   89MOL0     C11923   3.668   0.815   4.659 -0.0861 -0.8535 -0.5828
   89MOL0     C11924   3.532   0.853   4.721 -1.0853 -0.2140  0.3890
   89MOL0    Cl11925   3.414   0.712   4.711 -0.1088 -0.2844  0.1618
   89MOL0     C11926   4.255   1.665   4.662 -0.2461 -0.0332 -0.2696
   89MOL0     C11927   4.248   1.790   4.601 -0.0317 -0.6603  0.4625
   89MOL0     O11928   4.054   2.017   4.626 -0.5140  0.1182  0.1042
   89MOL0     C11929   4.196   2.169   4.329 -0.2874 -0.8784 -0.3179
   89MOL0     C11930   4.195   2.293   4.258 -0.7136  0.1400 -0.9397
   89MOL0     N11931   3.741   3.008   4.348  0.2322  0.4755 -1.0741
   89MOL0     N11932   3.667   3.095   4.400  0.8110 -0.4601 -0.7869
   89MOL0     C11933   2.717   3.273   4.743  0.4759  0.5757 -0.2278
   89MOL0     C11934   2.584   3.302   4.790 -1.3612  0.8645 -0.3968
   89MOL0     C11935   2.172   3.444   4.907  0.1141  0.4244  0.6338
   89MOL0     C11936   2.051   3.379   4.876  0.1113 -0.0810 -0.7863
   89MOL0     C11937   1.944   3.402   4.958 -0.2585 -0.1393 -0.2661
   89MOL0     C11938   1.959   3.493   5.062 -0.2472  0.6891 -0.5789
   89MOL0     O11939   1.860   3.523   5.161 -0.5709  0.3886  0.3245
   89MOL0     C11940   1.778   3.419   5.197  0.5475  0.2773 -0.2844
   89MOL0     C11941   1.669   3.466   5.286 -0.0564  0.2235 -0.2429
   89MOL0     C11942   1.545   3.516   5.214 -0.2615 -0.1242 -0.0137
   89MOL0     C11943   1.574   3.645   5.128 -0.4726  0.3175  0.1225
   89MOL0     C11944   1.457   3.680   5.052  0.2779 -0.0361  0.2505
   89MOL0     C11945   1.375   3.731   4.974  0.4731 -0.3149  0.4770
   89MOL0     C11946   2.075   3.559   5.085  0.0024 -0.4835 -0.3117
   89MOL0     C11947   2.184   3.534   5.012  0.2571  0.0516 -0.5219
   89MOL0     H11948   2.616   3.613   4.910  0.2640 -1.0626  1.9372
   89MOL0     H11949   2.833   3.581   4.851 -0.2908 -0.0893 -0.5133
   89MOL0     H11950   2.948   3.152   4.760 -0.9832 -3.0657 -2.9629
   89MOL0     H11951   2.972   3.213   4.598  0.0418  2.0795 -0.1754
   89MOL0     H11952   3.186   3.331   4.725 -0.8109  0.1985  2.7623
   89MOL0     H11953   3.165   3.195   4.831 -2.1843 -0.9021 -0.0872
   89MOL0     H11954   3.185   3.023   4.660 -0.1272 -0.5760 -0.8493
   89MOL0     H11955   3.198   3.154   4.531 -0.3227  1.3645 -0.0540
   89MOL0     H11956   3.413   3.059   4.562 -0.2244  0.3519 -0.2420
   89MOL0     H11957   3.395   3.235   4.602 -0.0113  0.6738  1.3588
   89MOL0     H11958   3.414   3.214   4.820 -1.0941 -0.9016  1.9802
   89MOL0     H11959   3.398   3.036   4.824 -2.6794  1.6141  1.6663
   89MOL0     H11960   3.625   3.064   4.845 -1.2282  1.5618  0.7933
   89MOL0     H11961   3.618   3.039   4.668  0.3020  0.8333 -0.4357
   89MOL0     H11962   3.617   3.328   4.756  3.0646  1.8050 -0.3562
   89MOL0     H11963   3.768   3.253   4.754  0.3826  1.2357 -1.4328
   89MOL0     H11964   3.757   3.357   4.555  0.6840  1.1252 -1.4341
   89MOL0     H11965   3.597   3.302   4.507  1.1068  5.0952 -0.1821
   89MOL0     H11966   3.944   3.142   4.565  0.3144  0.8452 -0.4388
   89MOL0     H11967   4.072   2.972   4.376  0.7830 -1.3986 -0.9913
   89MOL0     H11968   3.955   2.837   4.425 -2.9552  0.0320 -1.8395
   89MOL0     H11969   3.980   2.964   4.147 -0.0711  0.1236  0.8784
   89MOL0     H11970   3.869   2.852   4.182  0.5292 -0.0317  0.0880
   89MOL0     H11971   4.178   2.817   4.180 -1.1474  1.8880  2.1440
   89MOL0     H11972   4.064   2.751   4.072  1.4028  0.9118 -0.4597
   89MOL0     H11973   3.973   2.636   4.307  0.2827  2.9600  1.2693
   89MOL0     H11974   4.125   2.675   4.371  0.0446 -2.2606  0.8640
   89MOL0     H11975   4.014   2.484   4.472  0.5904  1.4214 -4.0553
   89MOL0     H11976   3.923   2.236   4.636  1.4151 -2.2615  0.0635
   89MOL0     H11977   4.082   2.239   4.713  2.7568 -1.4980 -3.4059
   89MOL0     H11978   3.998   2.399   4.684  0.5828  0.3332 -0.3514
   89MOL0     H11979   4.061   1.717   4.336  3.2734 -0.1405 -3.6962
   89MOL0     H11980   4.083   1.478   4.434 -0.7423 -1.5574  0.0983
   89MOL0     H11981   4.000   1.361   4.617 -1.0362 -2.0771  3.4763
   89MOL0     H11982   4.136   1.277   4.536  2.2226 -0.5397  1.3300
   89MOL0     H11983   4.214   1.199   4.735  0.0227  0.1515  0.0116
   89MOL0     H11984   4.092   1.276   4.833  1.1268  2.9617 -1.6611
   89MOL0     H11985   4.062   1.033   4.792  1.9357  0.5081 -0.7306
   89MOL0     H11986   4.007   1.059   4.627 -2.4158  1.0388 -0.1373
   89MOL0     H11987   3.877   1.184   4.868 -0.0357 -1.0567  2.4315
   89MOL0     H11988   3.824   1.195   4.699  1.7492 -0.5812 -1.3737
   89MOL0     H11989   3.706   1.010   4.820  0.1424 -0.0601  0.1865
   89MOL0     H11990   3.855   0.928   4.852 -0.8005  2.0923  2.2885
   89MOL0     H11991   3.722   1.011   4.586 -1.5774 -1.2133 -0.0067
   89MOL0     H11992   3.861   0.897   4.594 -0.6362  0.4665 -3.6685
   89MOL0     H11993   3.715   0.754   4.736  1.7000  0.8426 -0.2364
   89MOL0     H11994   3.652   0.767   4.562 -1.4698 -0.1094 -0.7480
   89MOL0     H11995   3.495   0.942   4.669  0.7500 -0.2777 -1.1238
   89MOL0     H11996   3.549   0.879   4.826  1.1136 -1.8562  0.5083
   89MOL0     H11997   4.328   1.652   4.741  1.6778  1.7338 -1.6564
   89MOL0     H11998   4.288   1.881   4.644 -1.2358  0.7993 -1.3332
   89MOL0     H11999   4.253   2.083   4.296 -0.9416 -0.9022 -1.4428
   89MOL0     H12000   4.257   2.312   4.171  1.1835  2.1604  0.7421
   89MOL0     H12001   2.742   3.174   4.705  3.2835  0.7316  0.9448
   89MOL0     H12002   2.516   3.218   4.787  0.6601 -0.8457 -0.7638
   89MOL0     H12003   2.038   3.315   4.790  1.3643 -0.1698 -0.9214
   89MOL0     H12004   1.851   3.351   4.934  0.0472 -0.2694 -1.2337
   89MOL0     H12005   1.749   3.353   5.114  2.5470  0.7248 -1.4042
   89MOL0     H12006   1.827   3.347   5.263 -0.9765 -0.2364  0.3365
   89MOL0     H12007   1.703   3.541   5.359  0.2004  3.7695 -3.6938
   89MOL0     H12008   1.640   3.380   5.347  1.7414 -0.2139  0.0554
   89MOL0     H12009   1.474   3.539   5.294  0.0926  1.2265 -0.0691
   89MOL0     H12010   1.510   3.435   5.149  4.8079 -2.1098 -0.7614
   89MOL0     H12011   1.659   3.631   5.061  0.8282  0.5521  1.6502
   89MOL0     H12012   1.587   3.734   5.192 -0.1980  0.3916 -0.0351
   89MOL0     H12013   1.322   3.778   4.893 -2.3239 -0.9613  1.7941
   89MOL0     H12014   2.084   3.611   5.180 -2.6001 -1.5696  0.6059
   89MOL0     H12015   2.274   3.583   5.048  0.5878 -0.3388 -0.8059
   90MOL0     O12016  10.529  10.720   0.475  0.0773  0.3362 -0.0597
   90MOL0     C12017  10.448  10.729   0.381 -0.3562 -0.3732 -1.0658
   90MOL0     O12018  10.476  10.738   0.249 -0.6790  0.1805 -0.1776
   90MOL0     C12019  10.605  10.714   0.202 -0.4538 -0.5668 -0.3090
   90MOL0     C12020  10.623  10.613   0.104  0.2288  0.6837 -0.9418
   90MOL0     C12021  10.744  10.569   0.062  0.4748  1.0017  0.2089
   90MOL0     C12022  10.862  10.615   0.121 -0.0357  0.0691  0.2102
   90MOL0     O12023  10.990  10.582   0.076 -0.1078 -0.6371  0.6643
   90MOL0     C12024  11.026  10.447   0.110 -0.1271 -0.2259 -0.0941
   90MOL0     C12025  11.171  10.433   0.073  0.2377  1.1586  0.0959
   90MOL0     C12026  11.236  10.304   0.130  0.4941 -0.1937 -0.0641
   90MOL0     C12027  11.212  10.182   0.048  0.0733 -0.3745  0.1805
   90MOL0     C12028  11.320  10.077   0.069 -0.1992 -0.7386 -0.5199
   90MOL0     C12029  11.463  10.132   0.039 -0.6117 -1.0026 -0.5301
   90MOL0     C12030  11.558  10.030  -0.020  0.4074 -1.3063 -0.4651
   90MOL0     C12031  11.705  10.046   0.002 -0.2150 -0.4246  0.2074
   90MOL0     N12032  11.752  10.182  -0.044  0.2730  0.0843  0.5119
   90MOL0     C12033  11.857  10.246   0.012 -0.1988 -0.3749  0.5700
   90MOL0     C12034  11.889  10.358  -0.058 -0.1760  0.4194 -0.0535
   90MOL0     C12035  11.990  10.456  -0.005  0.7515  0.2454 -0.3910
   90MOL0     C12036  11.947  10.523   0.130  0.9086  0.1898 -0.3956
   90MOL0     C12037  12.059  10.607   0.185  0.7366 -0.9315  0.3828
   90MOL0     C12038  12.029  10.657   0.330  0.7147 -0.6921 -0.3641
   90MOL0     O12039  11.913  10.749   0.345  0.0430  0.5888 -0.5115
   90MOL0     C12040  11.854  10.769   0.466 -0.1400 -0.2332 -0.7863
   90MOL0     C12041  11.917  10.776   0.591  0.0512  0.0307 -0.2264
   90MOL0     C12042  11.853  10.820   0.708 -0.4464  0.7136  0.7361
   90MOL0     C12043  11.945  10.825   0.824 -0.1271  0.1874 -0.5971
   90MOL0     C12044  11.718  10.866   0.697 -0.0405 -0.3071  0.3240
   90MOL0     C12045  11.650  10.931   0.812 -0.0628 -0.4010 -0.2020
   90MOL0     O12046  11.518  10.957   0.788 -0.2288 -0.2594  0.2015
   90MOL0     C12047  11.444  11.009   0.892 -0.8186  1.0286  0.4412
   90MOL0     C12048  11.341  10.933   0.954  0.6014  0.6724 -0.7377
   90MOL0     C12049  11.268  10.982   1.064  0.4636  0.1067 -0.3508
   90MOL0     C12050  11.303  11.110   1.111 -0.0893 -0.2463  0.2754
   90MOL0     O12051  11.232  11.147   1.222 -0.0193  0.4207  0.3696
   90MOL0     C12052  11.270  11.273   1.283  0.1266 -0.1175 -0.8816
   90MOL0     C12053  11.174  11.310   1.394 -0.2482  0.1402  0.0768
   90MOL0     C12054  11.156  11.209   1.508  0.1010 -0.2814 -0.4885
   90MOL0     C12055  11.262  11.232   1.616  0.3154 -0.1473 -0.0208
   90MOL0     C12056  11.249  11.152   1.741  0.1752  0.5059 -0.4058
   90MOL0     C12057  11.287  11.006   1.722 -0.5138 -0.4242  0.6272
   90MOL0     C12058  11.224  10.934   1.838  0.5479 -0.3030  0.0479
   90MOL0     C12059  11.278  10.792   1.839  1.0437  0.4658  0.3031
   90MOL0    Cl12060  11.249  10.708   1.993 -0.1494  0.0503  0.3511
   90MOL0     C12061  11.402  11.192   1.049  0.4871  0.3348  0.4489
   90MOL0     C12062  11.470  11.137   0.937 -0.1912  0.7027 -0.2904
   90MOL0     O12063  11.701  10.953   0.916 -0.1487 -0.5055 -0.0868
   90MOL0     C12064  11.655  10.852   0.575 -0.2021 -0.0524 -0.9455
   90MOL0     C12065  11.718  10.809   0.462  0.4995  0.0560  0.2929
   90MOL0     N12066  11.792  10.368  -0.153 -0.7153 -0.4178 -0.3374
   90MOL0     N12067  11.723  10.259  -0.157 -0.5929  0.1466 -0.6790
   90MOL0     C12068  10.852  10.721   0.208  0.0703 -0.5700  0.5619
   90MOL0     C12069  10.723  10.770   0.246  0.1682 -0.0789 -0.0444
   90MOL0     C12070  10.314  10.741   0.417  1.1214  0.3998 -0.3263
   90MOL0     C12071  10.259  10.728   0.554  0.0698 -0.0099 -0.1174
   90MOL0     C12072  10.125  10.745   0.576 -0.4195 -0.1648  0.5423
   90MOL0     C12073  10.030  10.764   0.468  0.5424 -0.3154 -0.1217
   90MOL0     O12074   9.896  10.764   0.505 -0.5551  0.3434 -0.2827
   90MOL0     C12075   9.808  10.772   0.400  0.3796  0.0087 -0.1178
   90MOL0     C12076   9.661  10.732   0.425 -0.1196 -0.8286 -0.6544
   90MOL0     C12077   9.581  10.855   0.486  0.2408  0.1227  0.3220
   90MOL0     C12078   9.436  10.823   0.499  0.6216  0.0591 -1.3246
   90MOL0     C12079   9.376  10.797   0.372 -0.1017  0.5600 -1.2583
   90MOL0     C12080   9.331  10.763   0.266  0.7504 -0.2130 -0.3726
   90MOL0     C12081  10.089  10.767   0.336  0.0787 -0.8996  0.2011
   90MOL0     C12082  10.220  10.768   0.316 -0.3403 -0.0318  0.9589
   90MOL0     H12083  10.541  10.569   0.047  2.4625 -2.0137 -2.3646
   90MOL0     H12084  10.759  10.500  -0.020  0.3704  1.1446  0.0682
   90MOL0     H12085  10.995  10.432   0.214 -1.8505 -2.2531 -0.8136
   90MOL0     H12086  10.973  10.371   0.052  0.0055 -1.3864  1.2436
   90MOL0     H12087  11.166  10.415  -0.035 -1.1379 -2.7315  0.6493
   90MOL0     H12088  11.238  10.519   0.083  1.9695 -0.2963  1.6820
   90MOL0     H12089  11.342  10.329   0.142  0.8476 -1.5981 -0.1828
   90MOL0     H12090  11.199  10.280   0.230 -0.4962  1.0005 -0.1167
   90MOL0     H12091  11.112  10.147   0.075  1.9328 -3.6220  3.8672
   90MOL0     H12092  11.206  10.202  -0.059  2.8960  1.3191  0.2336
   90MOL0     H12093  11.314  10.043   0.173  2.3178 -2.2542 -0.7718
   90MOL0     H12094  11.302   9.992   0.002  2.2638 -2.2090  0.5418
   90MOL0     H12095  11.457  10.213  -0.034 -0.0517 -0.3960  0.0800
   90MOL0     H12096  11.501  10.199   0.117 -1.5214  0.5533 -1.3644
   90MOL0     H12097  11.529   9.930   0.012  2.0548 -1.9543 -0.8875
   90MOL0     H12098  11.538  10.037  -0.127  0.1080 -2.7784 -0.5194
   90MOL0     H12099  11.763   9.965  -0.044  3.2636  1.0191  1.6630
   90MOL0     H12100  11.711  10.035   0.111 -0.0699  1.5908  0.4392
   90MOL0     H12101  11.914  10.210   0.097  2.2417 -0.5326 -1.0269
   90MOL0     H12102  12.078  10.393   0.007  0.8721  0.4760 -0.0626
   90MOL0     H12103  11.995  10.529  -0.087 -0.0394 -1.8738 -2.4464
   90MOL0     H12104  11.912  10.457   0.210 -4.4511  3.0193  0.0566
   90MOL0     H12105  11.853  10.579   0.127  0.7627  0.1548  1.8146
   90MOL0     H12106  12.087  10.682   0.110 -0.9453 -0.9401 -0.2937
   90MOL0     H12107  12.149  10.545   0.196  0.6741 -1.4557 -1.5256
   90MOL0     H12108  12.120  10.702   0.373  0.3141 -0.8621  0.6879
   90MOL0     H12109  12.009  10.564   0.383  0.2828 -1.2946 -1.5637
   90MOL0     H12110  12.022  10.750   0.600 -0.2954 -1.0122  1.1424
   90MOL0     H12111  12.044  10.783   0.803 -1.3324 -1.6646 -3.0935
   90MOL0     H12112  11.959  10.932   0.838  2.5605 -0.1708 -0.0489
   90MOL0     H12113  11.902  10.772   0.909 -0.7221  1.3616 -0.1418
   90MOL0     H12114  11.313  10.837   0.913 -1.2672  0.5763  0.6318
   90MOL0     H12115  11.188  10.926   1.110  1.1887 -0.5516  0.1428
   90MOL0     H12116  11.371  11.254   1.321 -0.6291 -0.6908  0.9380
   90MOL0     H12117  11.274  11.356   1.211 -1.5260  0.7421 -0.0222
   90MOL0     H12118  11.205  11.404   1.439  2.5634  0.3566 -2.0487
   90MOL0     H12119  11.072  11.312   1.354 -0.6339 -3.9231  0.4560
   90MOL0     H12120  11.156  11.108   1.467 -1.8876 -0.6999  0.4280
   90MOL0     H12121  11.063  11.218   1.565  0.5644  0.5644  0.1670
   90MOL0     H12122  11.366  11.210   1.588  2.7274  4.9277  3.5203
   90MOL0     H12123  11.257  11.335   1.649 -1.8991 -0.6754  1.5339
   90MOL0     H12124  11.146  11.151   1.777  0.7573 -0.1417  1.3798
   90MOL0     H12125  11.309  11.203   1.817 -1.6329  0.1795  1.3082
   90MOL0     H12126  11.251  10.960   1.629  1.0785 -1.1121  0.3085
   90MOL0     H12127  11.392  10.974   1.726 -0.4283 -0.1913  0.2688
   90MOL0     H12128  11.115  10.944   1.841  0.5368 -0.5971  0.7644
   90MOL0     H12129  11.258  10.994   1.924 -1.4496  1.4500 -0.2913
   90MOL0     H12130  11.387  10.789   1.833  1.1250 -2.4309  1.3480
   90MOL0     H12131  11.231  10.741   1.754  0.7677  1.6728 -0.2882
   90MOL0     H12132  11.418  11.293   1.086 -3.0122 -0.5182  5.2227
   90MOL0     H12133  11.548  11.196   0.889  0.0207  1.2818  0.7269
   90MOL0     H12134  11.551  10.883   0.574  0.8170  4.0226  0.5258
   90MOL0     H12135  11.667  10.819   0.367 -0.9891 -3.3643  0.5802
   90MOL0     H12136  10.945  10.770   0.235 -0.0960 -0.0553  0.2360
   90MOL0     H12137  10.718  10.852   0.318  0.2167  0.5189 -0.7153
   90MOL0     H12138  10.328  10.729   0.637 -0.5576  1.1234  0.4192
   90MOL0     H12139  10.084  10.761   0.676 -2.0235 -0.6980 -0.0074
   90MOL0     H12140   9.807  10.868   0.347 -1.1617 -0.5189 -1.1377
   90MOL0     H12141   9.841  10.707   0.318  0.8222  0.5492 -0.3734
   90MOL0     H12142   9.674  10.642   0.485 -2.5315 -1.1075 -0.4268
   90MOL0     H12143   9.618  10.706   0.328  2.2807  3.1739 -3.0724
   90MOL0     H12144   9.592  10.940   0.418 -0.2264  0.8706  1.1568
   90MOL0     H12145   9.615  10.879   0.587 -1.6639  0.9520  0.8160
   90MOL0     H12146   9.377  10.903   0.544  1.9247 -0.8239  2.2275
   90MOL0     H12147   9.417  10.731   0.556  0.9793  0.4981 -0.4932
   90MOL0     H12148   9.289  10.733   0.172 -0.5454  1.0166 -0.2144
   90MOL0     H12149  10.019  10.809   0.264 -2.1911 -4.2917  0.1977
   90MOL0     H12150  10.251  10.802   0.218  0.1012  2.6109  1.9413
   91MOL0     O12151  10.126   7.890   1.197  0.0525 -0.1546 -0.2792
   91MOL0     C12152  10.156   7.879   1.081 -0.3151  1.0035  0.6612
   91MOL0     O12153  10.116   7.963   0.977 -0.1444 -0.2241  0.4979
   91MOL0     C12154  10.014   8.040   1.012  0.0788  0.2199 -0.7341
   91MOL0     C12155  10.033   8.153   1.085  0.1040 -0.7257  0.7066
   91MOL0     C12156   9.930   8.252   1.099  1.2855  1.1064  0.5075
   91MOL0     C12157   9.797   8.221   1.062  0.0432 -0.6933 -0.4759
   91MOL0     O12158   9.694   8.320   1.050 -0.3794  0.1057 -0.0361
   91MOL0     C12159   9.682   8.427   1.141 -0.0862 -0.2907 -0.6069
   91MOL0     C12160   9.551   8.404   1.224  0.5841 -0.1449 -0.7145
   91MOL0     C12161   9.540   8.250   1.291 -0.0396  0.0790  0.5780
   91MOL0     C12162   9.633   8.244   1.412 -0.1141 -0.6034  0.2637
   91MOL0     C12163   9.653   8.097   1.473  0.2725  0.0252  0.6794
   91MOL0     C12164   9.765   8.012   1.398 -0.4663 -0.2363 -0.6089
   91MOL0     C12165   9.758   7.867   1.455 -0.6064 -0.1324 -0.4719
   91MOL0     C12166   9.873   7.787   1.396 -0.0649  0.1998  0.0587
   91MOL0     N12167   9.863   7.646   1.444  0.2794  0.7261 -0.9305
   91MOL0     C12168   9.841   7.596   1.577 -0.4147  0.5329 -0.5536
   91MOL0     C12169   9.820   7.459   1.559 -0.5360 -0.2827  0.0122
   91MOL0     C12170   9.800   7.355   1.664 -0.0206 -0.2920  0.1844
   91MOL0     C12171   9.655   7.340   1.712  0.0159 -0.6591  0.0769
   91MOL0     C12172   9.628   7.227   1.807  0.4687 -0.3225  0.1646
   91MOL0     C12173   9.479   7.220   1.844  0.2311  0.6180 -0.4241
   91MOL0     O12174   9.402   7.206   1.729 -0.1648  0.4422 -0.3233
   91MOL0     C12175   9.266   7.241   1.748  0.0709  0.2108 -0.2619
   91MOL0     C12176   9.191   7.187   1.854  0.6325 -0.4284  0.2235
   91MOL0     C12177   9.058   7.219   1.858 -0.5872 -0.7761 -0.3128
   91MOL0     C12178   8.988   7.169   1.977  0.0957 -0.5057  0.4284
   91MOL0     C12179   8.993   7.288   1.744  0.2328 -0.6197 -0.3154
   91MOL0     C12180   8.843   7.304   1.741 -0.2299 -0.4903 -0.0072
   91MOL0     O12181   8.798   7.391   1.651 -0.1412  0.3922  0.2118
   91MOL0     C12182   8.660   7.414   1.622  0.7502 -0.0609  0.1242
   91MOL0     C12183   8.572   7.309   1.600  0.7731  0.8317  0.4646
   91MOL0     C12184   8.453   7.332   1.526 -0.1169 -0.1933 -0.8326
   91MOL0     C12185   8.413   7.460   1.494 -0.0644  0.2412  0.3958
   91MOL0     O12186   8.297   7.484   1.417 -0.1750  0.2337 -0.4679
   91MOL0     C12187   8.201   7.578   1.468  0.4345 -0.0042  0.5708
   91MOL0     C12188   8.133   7.532   1.594  0.7001  0.6799 -0.7135
   91MOL0     C12189   8.009   7.620   1.624  0.4281 -0.0482  0.4667
   91MOL0     C12190   8.029   7.762   1.612  0.1350 -0.3496 -0.5099
   91MOL0     C12191   7.901   7.840   1.630 -0.5192 -0.1763 -0.0919
   91MOL0     C12192   7.799   7.814   1.519  0.0310 -0.3051  0.1021
   91MOL0     C12193   7.672   7.900   1.549 -0.9715  0.0816 -0.0234
   91MOL0     C12194   7.552   7.859   1.464  0.0719 -0.3657 -0.2242
   91MOL0    Cl12195   7.405   7.949   1.486 -0.0424 -0.1673 -0.0669
   91MOL0     C12196   8.500   7.565   1.520  0.0615 -0.3188  1.2153
   91MOL0     C12197   8.622   7.543   1.575 -0.0036 -0.4791  0.0328
   91MOL0     O12198   8.775   7.247   1.820  0.4843  0.0632  0.0081
   91MOL0     C12199   9.073   7.336   1.639  0.8451  0.9706  0.4168
   91MOL0     C12200   9.211   7.319   1.647 -0.0521 -0.6099 -0.1163
   91MOL0     N12201   9.840   7.434   1.424 -0.1809  0.3705 -0.2397
   91MOL0     N12202   9.874   7.539   1.360  1.3486 -0.4927 -0.1000
   91MOL0     C12203   9.780   8.111   0.981 -0.2036  0.1212 -0.3983
   91MOL0     C12204   9.887   8.018   0.955  1.0276  0.0237 -0.0502
   91MOL0     C12205  10.251   7.775   1.048 -0.1101  0.1173 -0.9410
   91MOL0     C12206  10.299   7.775   0.911 -0.2548 -0.5863 -0.9838
   91MOL0     C12207  10.378   7.669   0.871 -0.2832 -0.5654 -0.2665
   91MOL0     C12208  10.421   7.565   0.951 -0.3960 -0.6638  0.6265
   91MOL0     O12209  10.514   7.471   0.910 -0.2693  0.1952  0.3615
   91MOL0     C12210  10.639   7.527   0.855  0.8195  1.0709 -0.1986
   91MOL0     C12211  10.747   7.430   0.898 -0.3422 -0.0212 -0.1295
   91MOL0     C12212  10.884   7.467   0.853 -0.1104  0.9960  0.1059
   91MOL0     C12213  10.927   7.608   0.906 -1.2773 -0.6161  0.3983
   91MOL0     C12214  11.067   7.621   0.946  0.6626 -0.3172 -0.3484
   91MOL0     C12215  11.170   7.626   1.006 -0.0287  0.1590  0.0497
   91MOL0     C12216  10.367   7.553   1.072 -0.0156  0.7180 -0.9078
   91MOL0     C12217  10.288   7.655   1.127  0.7483 -0.8095  0.3523
   91MOL0     H12218  10.134   8.169   1.122  0.6151 -1.6293 -0.2383
   91MOL0     H12219   9.961   8.355   1.115 -3.2354  2.7411  0.2464
   91MOL0     H12220   9.772   8.455   1.196 -1.1930  0.4630  0.9186
   91MOL0     H12221   9.663   8.521   1.087  2.7004  0.6367 -0.1529
   91MOL0     H12222   9.552   8.477   1.305  1.7731  0.1076 -0.9478
   91MOL0     H12223   9.472   8.422   1.150  1.1585  0.9170 -1.0806
   91MOL0     H12224   9.445   8.233   1.342  0.6187  0.9908  2.2345
   91MOL0     H12225   9.572   8.175   1.219  0.0888 -1.3516  2.0613
   91MOL0     H12226   9.725   8.297   1.388 -1.5523  2.7010  1.5027
   91MOL0     H12227   9.584   8.304   1.489  0.3423  1.4460 -0.9755
   91MOL0     H12228   9.679   8.107   1.579 -3.1657 -1.2563  1.8034
   91MOL0     H12229   9.561   8.038   1.461  0.3774 -0.9504  3.7452
   91MOL0     H12230   9.732   7.999   1.294  0.6328 -0.7193 -0.9237
   91MOL0     H12231   9.866   8.053   1.402 -1.1039  1.6341 -2.3017
   91MOL0     H12232   9.766   7.855   1.564  4.5645 -0.3005 -0.6336
   91MOL0     H12233   9.667   7.826   1.410 -0.9778  0.2560 -0.0829
   91MOL0     H12234   9.962   7.838   1.433 -1.2696  4.0234 -1.8552
   91MOL0     H12235   9.872   7.780   1.287 -2.9538  1.6722 -0.0879
   91MOL0     H12236   9.845   7.661   1.665  3.7810  1.3322 -1.1451
   91MOL0     H12237   9.828   7.253   1.636 -1.1767 -0.6268  0.1908
   91MOL0     H12238   9.868   7.374   1.747  0.3116 -2.0837  0.3691
   91MOL0     H12239   9.584   7.351   1.629 -0.3749 -0.0667  0.4813
   91MOL0     H12240   9.619   7.428   1.766 -0.0627  1.7298 -3.5148
   91MOL0     H12241   9.682   7.243   1.901  0.9168  0.4563 -0.2111
   91MOL0     H12242   9.656   7.131   1.762  2.2030 -0.3576  1.2294
   91MOL0     H12243   9.460   7.311   1.901  1.9566 -0.1047  1.4388
   91MOL0     H12244   9.451   7.140   1.914 -0.8953  0.0289 -1.5201
   91MOL0     H12245   9.236   7.136   1.939 -0.8474 -1.9262  0.1461
   91MOL0     H12246   9.066   7.141   2.049  1.2475  2.5864  0.5480
   91MOL0     H12247   8.936   7.249   2.031  1.9304 -0.2319  1.9235
   91MOL0     H12248   8.930   7.078   1.966 -1.0149  0.1744  0.5299
   91MOL0     H12249   8.611   7.210   1.621  2.3978  1.4190  0.3460
   91MOL0     H12250   8.388   7.252   1.491 -0.9831  1.4007 -3.1478
   91MOL0     H12251   8.252   7.673   1.486  0.2247  0.0462  0.9093
   91MOL0     H12252   8.122   7.595   1.395 -2.3151 -2.8503  2.6068
   91MOL0     H12253   8.100   7.428   1.584  2.3225 -0.0331  0.8663
   91MOL0     H12254   8.193   7.546   1.684 -0.9533  2.2610  0.2011
   91MOL0     H12255   7.963   7.597   1.720  0.4975  0.5114  0.6431
   91MOL0     H12256   7.935   7.601   1.546  1.0946  0.9511 -0.4552
   91MOL0     H12257   8.099   7.784   1.693 -0.1473 -1.4213  0.0446
   91MOL0     H12258   8.071   7.782   1.513  0.8419 -2.0366 -0.5787
   91MOL0     H12259   7.924   7.947   1.636 -1.2417 -0.1071  2.5080
   91MOL0     H12260   7.854   7.815   1.725 -2.2937 -1.7723 -1.3166
   91MOL0     H12261   7.837   7.835   1.418 -1.2564  0.8976 -0.1685
   91MOL0     H12262   7.765   7.710   1.528  1.9032 -0.7603  4.2864
   91MOL0     H12263   7.694   8.007   1.549  1.8063 -0.4060 -0.8796
   91MOL0     H12264   7.642   7.869   1.649  0.3630 -5.1178 -0.9003
   91MOL0     H12265   7.540   7.751   1.478  4.0347 -0.8979  0.4420
   91MOL0     H12266   7.589   7.862   1.361  0.0307  0.6146 -0.2186
   91MOL0     H12267   8.455   7.657   1.483 -0.5148 -2.0153 -2.8517
   91MOL0     H12268   8.686   7.629   1.591 -1.8690  1.0537 -0.3635
   91MOL0     H12269   9.023   7.385   1.555  1.1605  0.1706 -0.2428
   91MOL0     H12270   9.264   7.354   1.559  1.5106 -3.3567 -0.4021
   91MOL0     H12271   9.683   8.095   0.936 -1.0643 -1.3986  1.8146
   91MOL0     H12272   9.871   7.930   0.895  0.9755 -0.1098  0.1572
   91MOL0     H12273  10.285   7.860   0.846  0.6641  1.8161  1.7103
   91MOL0     H12274  10.413   7.655   0.769  1.5594  1.0149  0.1048
   91MOL0     H12275  10.632   7.535   0.746 -0.8863  1.3348 -0.0953
   91MOL0     H12276  10.656   7.631   0.885 -1.5169  2.1476 -2.1580
   91MOL0     H12277  10.727   7.327   0.868  1.8243 -0.4042 -0.4403
   91MOL0     H12278  10.737   7.431   1.007 -0.6417 -0.5694 -0.1527
   91MOL0     H12279  10.875   7.458   0.744 -1.3027  1.8738  0.1068
   91MOL0     H12280  10.954   7.387   0.879 -0.5528 -2.1492 -6.3397
   91MOL0     H12281  10.879   7.629   1.002 -1.3921  0.2830  0.1480
   91MOL0     H12282  10.906   7.688   0.835  1.4617 -0.2931 -0.1678
   91MOL0     H12283  11.260   7.641   1.062 -2.3400  1.5928  3.7201
   91MOL0     H12284  10.395   7.470   1.137 -1.3431  1.3839  0.5824
   91MOL0     H12285  10.251   7.654   1.229  1.5139 -0.1641  0.6496
   92MOL0     O12286   7.406   2.415   7.551 -0.2987 -0.5697 -0.8267
   92MOL0     C12287   7.424   2.502   7.461 -0.6171  0.0188  0.1212
   92MOL0     O12288   7.334   2.534   7.370 -1.2133 -0.2372  0.2664
   92MOL0     C12289   7.233   2.444   7.354  1.0268  0.5225 -0.2257
   92MOL0     C12290   7.102   2.499   7.363 -1.1316 -0.6833 -0.4473
   92MOL0     C12291   6.987   2.428   7.354  0.1944 -0.6821 -0.3066
   92MOL0     C12292   6.993   2.292   7.316 -0.4099 -0.4751 -0.1721
   92MOL0     O12293   6.893   2.197   7.311  0.1578 -0.9454 -0.2433
   92MOL0     C12294   6.841   2.155   7.441  0.0029 -0.6974  0.2275
   92MOL0     C12295   6.744   2.039   7.418  0.2720 -0.7608  0.6312
   92MOL0     C12296   6.819   1.906   7.396 -0.1931  0.1162 -0.6576
   92MOL0     C12297   6.715   1.788   7.430 -1.7922  1.3248 -0.0466
   92MOL0     C12298   6.786   1.659   7.387 -0.0941  0.0005 -0.2935
   92MOL0     C12299   6.925   1.639   7.455  0.2494  0.1012  0.3136
   92MOL0     C12300   6.957   1.486   7.459  0.2329  0.2255 -1.1065
   92MOL0     C12301   7.087   1.453   7.516 -0.1655  0.4382  0.8750
   92MOL0     N12302   7.101   1.481   7.655  0.0974  0.1849 -0.7490
   92MOL0     C12303   7.031   1.424   7.763 -0.0320 -0.7557 -1.0077
   92MOL0     C12304   7.102   1.465   7.874 -0.0476 -0.4796 -0.3521
   92MOL0     C12305   7.041   1.453   8.012  0.3013  0.2357 -0.0462
   92MOL0     C12306   6.971   1.582   8.061  0.3019  0.8432  1.4288
   92MOL0     C12307   7.051   1.706   8.061  1.2666  0.0768 -0.7726
   92MOL0     C12308   7.169   1.681   8.161 -0.7470  0.4133  0.5551
   92MOL0     O12309   7.237   1.810   8.161  0.0562 -0.1348  0.0376
   92MOL0     C12310   7.364   1.806   8.220 -1.5378  0.6347 -0.0696
   92MOL0     C12311   7.405   1.719   8.326 -0.3037 -0.6313 -0.3808
   92MOL0     C12312   7.535   1.734   8.383  0.3511  0.2941  0.4050
   92MOL0     C12313   7.571   1.671   8.516 -0.7739 -0.4874  0.0463
   92MOL0     C12314   7.631   1.822   8.314 -0.8874 -0.3231 -0.1608
   92MOL0     C12315   7.781   1.852   8.359  0.1467  0.5502  0.8070
   92MOL0     O12316   7.847   1.959   8.314 -0.0276  0.0747  0.6841
   92MOL0     C12317   7.957   2.002   8.388 -0.2890  0.7643 -0.3233
   92MOL0     C12318   7.942   2.086   8.495 -0.2368  0.4375 -0.1720
   92MOL0     C12319   8.043   2.144   8.569  0.4327  0.4764  0.0453
   92MOL0     C12320   8.171   2.102   8.544 -0.5723  0.4325  0.6605
   92MOL0     O12321   8.274   2.161   8.610  0.9551 -0.4834 -0.1241
   92MOL0     C12322   8.355   2.065   8.681  1.1102 -0.4127 -0.0935
   92MOL0     C12323   8.461   2.138   8.766  0.4298 -0.3136 -0.8710
   92MOL0     C12324   8.496   2.041   8.883 -0.4765  0.6880  0.3210
   92MOL0     C12325   8.601   2.100   8.979  0.3384 -0.3953 -0.5287
   92MOL0     C12326   8.629   2.022   9.099 -0.6045 -0.1077 -1.5001
   92MOL0     C12327   8.737   2.094   9.185  1.1553 -0.1582 -0.1039
   92MOL0     C12328   8.879   2.073   9.142 -0.5666 -0.1283  0.3235
   92MOL0     C12329   8.990   2.121   9.236  1.2776  0.0034  0.3468
   92MOL0    Cl12330   9.154   2.097   9.151 -0.1769  0.2057  0.2134
   92MOL0     C12331   8.198   2.004   8.444 -0.5551  0.2340 -0.7656
   92MOL0     C12332   8.090   1.959   8.365 -0.1338  1.2721  0.8434
   92MOL0     O12333   7.832   1.762   8.430 -0.2877 -0.8020  0.2151
   92MOL0     C12334   7.588   1.901   8.197  0.2449 -0.4218 -0.2035
   92MOL0     C12335   7.454   1.895   8.164  0.2829 -0.1482  0.2363
   92MOL0     N12336   7.203   1.550   7.831  0.0150  0.6599 -0.4085
   92MOL0     N12337   7.199   1.560   7.705  0.5430 -0.2663  0.1532
   92MOL0     C12338   7.123   2.239   7.300 -0.1818 -0.5343 -0.3958
   92MOL0     C12339   7.238   2.314   7.319  0.0142  0.3946  0.2313
   92MOL0     C12340   7.556   2.574   7.463  0.6029  0.1515 -0.1491
   92MOL0     C12341   7.594   2.649   7.353 -0.5381  0.4042  0.1689
   92MOL0     C12342   7.719   2.709   7.359  0.9392 -0.3517  0.4744
   92MOL0     C12343   7.813   2.681   7.459  0.2363 -0.1044 -0.0660
   92MOL0     O12344   7.929   2.747   7.451 -0.2126  0.3294  0.0320
   92MOL0     C12345   8.050   2.693   7.517 -0.0832 -0.3905 -0.1294
   92MOL0     C12346   8.170   2.739   7.428 -1.2475 -0.5517  0.0164
   92MOL0     C12347   8.304   2.668   7.456  0.4153  0.1206  0.0379
   92MOL0     C12348   8.362   2.705   7.593 -0.6901  0.5781 -0.3263
   92MOL0     C12349   8.439   2.825   7.581 -0.4005 -0.3805 -0.1524
   92MOL0     C12350   8.495   2.932   7.580 -0.5786  0.3330  0.2383
   92MOL0     C12351   7.780   2.597   7.560 -0.3885 -1.0275 -0.7579
   92MOL0     C12352   7.654   2.552   7.571  0.3784 -0.6649  0.8548
   92MOL0     H12353   7.092   2.598   7.405 -3.9366 -1.4676  1.0298
   92MOL0     H12354   6.891   2.479   7.355  0.5341  0.0890 -2.1110
   92MOL0     H12355   6.923   2.126   7.507 -0.4018  1.5657  1.8575
   92MOL0     H12356   6.791   2.235   7.497 -1.3013 -3.3176  3.1088
   92MOL0     H12357   6.667   2.027   7.494 -1.3693  0.0609 -0.8459
   92MOL0     H12358   6.690   2.074   7.330  0.7344  2.4411  1.5052
   92MOL0     H12359   6.853   1.886   7.293  2.7728  1.1139  0.0245
   92MOL0     H12360   6.909   1.896   7.458  0.5260  1.0773 -1.5069
   92MOL0     H12361   6.705   1.782   7.538  1.5624 -1.7694  0.3111
   92MOL0     H12362   6.618   1.794   7.381 -2.5998 -1.0904  1.0814
   92MOL0     H12363   6.714   1.580   7.410  1.3413 -0.9164  1.2256
   92MOL0     H12364   6.796   1.651   7.278 -0.6918 -2.7263 -0.2169
   92MOL0     H12365   6.994   1.709   7.406  0.9470 -0.6632  0.1681
   92MOL0     H12366   6.920   1.671   7.560  0.1773 -0.5400  0.5077
   92MOL0     H12367   6.871   1.437   7.504 -1.7101  1.0260 -3.6658
   92MOL0     H12368   6.955   1.451   7.355 -0.5078 -0.8278 -0.7524
   92MOL0     H12369   7.162   1.503   7.453  0.6636 -3.0373 -1.2274
   92MOL0     H12370   7.103   1.345   7.504 -2.2981  0.2159 -0.4918
   92MOL0     H12371   6.943   1.360   7.767 -0.0831 -0.6226  0.2395
   92MOL0     H12372   6.967   1.372   8.012 -1.0176  1.2877  3.0061
   92MOL0     H12373   7.117   1.413   8.080  1.7655  2.2982 -0.3858
   92MOL0     H12374   6.931   1.553   8.158 -0.8963 -0.4136  0.6008
   92MOL0     H12375   6.891   1.614   7.993 -0.4589 -1.5007  1.1289
   92MOL0     H12376   6.999   1.793   8.101  0.6010 -0.8463  0.4018
   92MOL0     H12377   7.078   1.737   7.959  1.3826  0.5244 -0.6083
   92MOL0     H12378   7.233   1.601   8.121 -0.8301  1.5430 -2.0780
   92MOL0     H12379   7.137   1.651   8.261 -0.2207 -2.4462 -0.0336
   92MOL0     H12380   7.332   1.653   8.372 -0.6884  0.6568  0.9389
   92MOL0     H12381   7.638   1.733   8.576  2.0739 -1.5072 -1.8689
   92MOL0     H12382   7.478   1.666   8.574 -3.3617  2.3465 -3.4032
   92MOL0     H12383   7.611   1.570   8.502  2.5324  0.1452  3.3465
   92MOL0     H12384   7.846   2.117   8.536 -1.0818 -1.7558 -0.3284
   92MOL0     H12385   8.017   2.220   8.642 -0.7753  0.3565 -0.2367
   92MOL0     H12386   8.290   2.002   8.741 -1.1554  1.3276 -0.5908
   92MOL0     H12387   8.417   2.009   8.610  2.9980 -1.1878  2.0594
   92MOL0     H12388   8.550   2.171   8.712  0.3022  2.9345  0.6190
   92MOL0     H12389   8.424   2.227   8.818  3.6300  1.3805 -1.2375
   92MOL0     H12390   8.542   1.950   8.841 -0.4738  0.3647  1.0089
   92MOL0     H12391   8.404   2.015   8.936 -1.6036 -0.8185 -2.2091
   92MOL0     H12392   8.699   2.118   8.934  0.3036  1.6806  0.1080
   92MOL0     H12393   8.574   2.202   9.008 -0.3865 -0.3398 -1.3604
   92MOL0     H12394   8.676   1.927   9.072  2.5326  0.5086  1.2384
   92MOL0     H12395   8.539   2.012   9.160  1.4609 -1.1363  1.6030
   92MOL0     H12396   8.699   2.196   9.185 -0.0122 -0.4190 -4.0026
   92MOL0     H12397   8.733   2.056   9.287  0.5942 -0.8984 -0.3936
   92MOL0     H12398   8.904   2.141   9.060 -2.1878  0.2403  0.0915
   92MOL0     H12399   8.904   1.970   9.118 -2.6057  0.0846 -3.4055
   92MOL0     H12400   8.988   2.053   9.322 -3.7054 -0.2216  0.3059
   92MOL0     H12401   8.969   2.222   9.272 -0.6900 -0.1155 -0.3657
   92MOL0     H12402   8.298   1.962   8.434 -1.0034 -1.3862  0.9277
   92MOL0     H12403   8.096   1.885   8.286  0.4991 -0.0090  2.0307
   92MOL0     H12404   7.646   1.979   8.148 -0.7766  0.3695 -0.1834
   92MOL0     H12405   7.419   1.948   8.076 -3.9193 -1.1780  1.0543
   92MOL0     H12406   7.118   2.134   7.274  0.1011 -0.7366  0.3416
   92MOL0     H12407   7.334   2.263   7.324  0.2236  0.6460 -0.9937
   92MOL0     H12408   7.532   2.667   7.266  1.7226 -2.0497 -2.1597
   92MOL0     H12409   7.737   2.780   7.279 -0.9740 -1.7404 -1.2691
   92MOL0     H12410   8.052   2.714   7.624 -1.8617 -1.4192  0.1651
   92MOL0     H12411   8.043   2.584   7.524 -2.4071 -0.1816  2.6285
   92MOL0     H12412   8.184   2.843   7.458  1.2247 -0.1929 -2.0245
   92MOL0     H12413   8.151   2.735   7.320  1.3126  3.7648 -0.8280
   92MOL0     H12414   8.375   2.694   7.378  2.4660 -0.4876  1.5996
   92MOL0     H12415   8.297   2.559   7.455  1.2752  0.0414  0.7670
   92MOL0     H12416   8.424   2.622   7.629  1.3455  2.4789  0.7687
   92MOL0     H12417   8.279   2.716   7.663 -0.7973 -1.3960 -0.0807
   92MOL0     H12418   8.548   3.021   7.553 -1.1367  0.6600  0.2084
   92MOL0     H12419   7.853   2.580   7.638  1.1608  1.7738 -1.4683
   92MOL0     H12420   7.621   2.478   7.643 -1.2565 -1.3276 -0.5076
   93MOL0     O12421   9.689   0.200   7.518 -0.8134  0.3162  0.3024
   93MOL0     C12422   9.804   0.165   7.478  0.2698 -0.0363  0.3525
   93MOL0     O12423   9.840   0.041   7.444  0.3424  0.1483  0.4046
   93MOL0     C12424   9.735  -0.061   7.426  0.6032  0.0323 -0.7215
   93MOL0     C12425   9.630  -0.039   7.334 -0.0894 -0.1470 -0.6250
   93MOL0     C12426   9.540  -0.140   7.309 -0.2889 -0.9494  0.0646
   93MOL0     C12427   9.547  -0.269   7.374  0.3667 -0.3786 -0.4948
   93MOL0     O12428   9.462  -0.363   7.320  0.4111 -0.1952 -0.2266
   93MOL0     C12429   9.403  -0.476   7.389 -0.5670 -0.0267  0.1832
   93MOL0     C12430   9.255  -0.472   7.412 -0.5995  0.1610  0.3796
   93MOL0     C12431   9.208  -0.397   7.533  0.4444  0.2674 -0.6074
   93MOL0     C12432   9.071  -0.344   7.512  0.3725 -0.2171 -0.5996
   93MOL0     C12433   8.982  -0.328   7.634 -0.6047  1.2846 -0.6677
   93MOL0     C12434   8.831  -0.311   7.613  0.6315 -0.5016 -0.6521
   93MOL0     C12435   8.802  -0.199   7.508 -0.0323  0.2890 -0.3909
   93MOL0     C12436   8.647  -0.183   7.492 -0.2457 -1.0499  0.6022
   93MOL0     N12437   8.631  -0.086   7.381 -0.2313 -0.0452 -0.3308
   93MOL0     C12438   8.562  -0.093   7.266 -0.2175  0.8911  0.7845
   93MOL0     C12439   8.527   0.037   7.249 -0.3432 -1.0451  0.3504
   93MOL0     C12440   8.433   0.084   7.126  0.2805  0.1637  0.2614
   93MOL0     C12441   8.277   0.062   7.145 -0.7038 -0.3997  0.2098
   93MOL0     C12442   8.198   0.058   7.016  0.1532 -0.5593 -0.0721
   93MOL0     C12443   8.049   0.013   7.043 -0.2041  0.2899 -0.6225
   93MOL0     O12444   7.975   0.108   7.116 -0.2203  0.0881  0.1115
   93MOL0     C12445   7.839   0.097   7.150 -0.2655 -0.2166 -0.0929
   93MOL0     C12446   7.775   0.219   7.174 -0.2096  0.5422 -0.0094
   93MOL0     C12447   7.637   0.224   7.216 -0.0732 -0.0469 -0.4013
   93MOL0     C12448   7.586   0.363   7.233  0.6679  0.1199  0.5089
   93MOL0     C12449   7.567   0.101   7.226 -0.2992  0.7393 -0.5890
   93MOL0     C12450   7.425   0.091   7.270 -0.1359 -0.6597 -0.5276
   93MOL0     O12451   7.371   0.193   7.347 -0.2107 -0.1396 -0.5046
   93MOL0     C12452   7.237   0.187   7.395  0.1009 -0.1221  0.3276
   93MOL0     C12453   7.137   0.178   7.303 -0.4145  0.3828  0.4711
   93MOL0     C12454   6.997   0.179   7.349 -0.6106  0.0145 -0.3370
   93MOL0     C12455   6.972   0.195   7.481  0.6865  0.0565 -0.6124
   93MOL0     O12456   6.842   0.192   7.524  0.1227  0.0231  0.6015
   93MOL0     C12457   6.741   0.142   7.437 -0.4800  0.1245 -1.1859
   93MOL0     C12458   6.618   0.094   7.517 -0.2169  0.5539  0.1477
   93MOL0     C12459   6.496   0.065   7.424  0.1165 -0.1550 -0.9043
   93MOL0     C12460   6.377   0.043   7.517  0.5116 -0.9916 -0.2691
   93MOL0     C12461   6.253   0.016   7.435 -0.0737 -1.3374 -0.2990
   93MOL0     C12462   6.140  -0.059   7.501 -1.1674 -0.4502 -0.1891
   93MOL0     C12463   6.011  -0.054   7.425 -0.2134 -0.0706 -0.6524
   93MOL0     C12464   5.933  -0.179   7.472 -0.1632 -0.8369  0.1837
   93MOL0    Cl12465   5.793  -0.215   7.350 -0.1812  0.0425  0.1997
   93MOL0     C12466   7.075   0.206   7.576  0.4333 -0.2945 -0.1913
   93MOL0     C12467   7.207   0.205   7.529  0.3779  0.3557 -0.4259
   93MOL0     O12468   7.366  -0.008   7.237 -0.4493  0.7960 -0.3560
   93MOL0     C12469   7.634  -0.021   7.192  0.2042  0.5099  0.6419
   93MOL0     C12470   7.773  -0.021   7.163  0.0804 -0.1017  0.3065
   93MOL0     N12471   8.584   0.119   7.349 -0.4470 -1.3447  0.3252
   93MOL0     N12472   8.649   0.043   7.430  0.1942  0.3969  0.1990
   93MOL0     C12473   9.653  -0.287   7.470  0.4335 -0.4400  0.5502
   93MOL0     C12474   9.746  -0.187   7.495 -0.2478 -0.5280 -0.6003
   93MOL0     C12475   9.912   0.264   7.459  0.1837  0.2956 -0.6127
   93MOL0     C12476   9.886   0.397   7.465 -0.7668  0.6594  0.5426
   93MOL0     C12477   9.996   0.481   7.446  1.0402 -0.0294 -0.8096
   93MOL0     C12478  10.128   0.445   7.436 -0.0097  1.4694 -0.3677
   93MOL0     O12479  10.226   0.552   7.430 -0.0694 -1.0395  0.0387
   93MOL0     C12480  10.364   0.524   7.394  0.1225  0.1722 -0.0705
   93MOL0     C12481  10.392   0.624   7.276 -0.7957  0.1269 -0.9251
   93MOL0     C12482  10.543   0.615   7.245  0.2427  0.2818  0.2952
   93MOL0     C12483  10.567   0.661   7.103  0.1186 -0.1986 -0.8983
   93MOL0     C12484  10.709   0.649   7.084 -1.3247  0.2773 -0.2099
   93MOL0     C12485  10.829   0.645   7.056  0.3943 -0.4450 -0.5578
   93MOL0     C12486  10.154   0.305   7.430  0.7620 -0.1422 -0.2035
   93MOL0     C12487  10.048   0.214   7.448 -0.3080  0.1136 -0.5869
   93MOL0     H12488   9.622   0.066   7.306  0.9574  0.7012  1.9137
   93MOL0     H12489   9.455  -0.116   7.245  0.2844  1.0470 -0.0140
   93MOL0     H12490   9.430  -0.552   7.314  3.4892  0.2807  1.0804
   93MOL0     H12491   9.454  -0.493   7.484  0.8219  1.6762 -0.1843
   93MOL0     H12492   9.207  -0.433   7.322 -0.0880 -1.4628 -0.6465
   93MOL0     H12493   9.223  -0.576   7.428  0.3509  0.1368  2.5766
   93MOL0     H12494   9.212  -0.464   7.619  1.2238  1.7201  0.5305
   93MOL0     H12495   9.274  -0.312   7.553 -0.3184  0.1091  3.1706
   93MOL0     H12496   9.080  -0.245   7.467 -0.6200  0.2722  0.2554
   93MOL0     H12497   9.017  -0.416   7.449 -3.2028  0.3798  1.5353
   93MOL0     H12498   8.991  -0.420   7.692  0.7068  3.0376  2.1748
   93MOL0     H12499   9.020  -0.250   7.701 -1.0390  1.6389 -0.8217
   93MOL0     H12500   8.771  -0.395   7.575 -2.2497  1.0939  0.0989
   93MOL0     H12501   8.778  -0.284   7.705 -0.9203 -0.3228 -1.5679
   93MOL0     H12502   8.848  -0.108   7.550  1.9204 -0.9070  0.2114
   93MOL0     H12503   8.848  -0.225   7.412  0.3030  1.4103 -0.5457
   93MOL0     H12504   8.593  -0.156   7.584 -0.6905 -0.7048  0.2458
   93MOL0     H12505   8.606  -0.275   7.448  0.4320  0.3433 -3.2974
   93MOL0     H12506   8.519  -0.176   7.211 -0.8828  2.5403 -1.3339
   93MOL0     H12507   8.455   0.189   7.104 -1.0212 -0.0807 -2.6734
   93MOL0     H12508   8.455   0.021   7.039 -2.8208 -0.8744  0.1124
   93MOL0     H12509   8.237   0.140   7.211 -0.2302  0.3397 -0.3596
   93MOL0     H12510   8.271  -0.035   7.196  1.6951  0.9430  3.4029
   93MOL0     H12511   8.257  -0.014   6.959  0.8915  0.5967 -0.8020
   93MOL0     H12512   8.206   0.155   6.966 -2.2333  0.4312  1.2615
   93MOL0     H12513   8.066  -0.080   7.098  3.8333  0.9265 -0.4966
   93MOL0     H12514   7.993  -0.004   6.951  1.2061  0.9632 -1.6352
   93MOL0     H12515   7.832   0.310   7.163  0.1273  0.3149 -0.1562
   93MOL0     H12516   7.579   0.389   7.339  2.1966 -0.2948  0.7329
   93MOL0     H12517   7.653   0.432   7.181  1.6414 -1.7305 -0.8038
   93MOL0     H12518   7.489   0.357   7.183  2.3033  1.4573 -3.2030
   93MOL0     H12519   7.157   0.168   7.197 -0.7762  0.7197  0.3683
   93MOL0     H12520   6.918   0.180   7.274 -2.3099  0.7435  1.3750
   93MOL0     H12521   6.703   0.218   7.368  0.8500  2.8336  0.8645
   93MOL0     H12522   6.787   0.057   7.386 -0.1084 -0.1399 -0.4267
   93MOL0     H12523   6.641  -0.004   7.561  0.7854  0.5631 -0.3370
   93MOL0     H12524   6.581   0.168   7.589 -0.6177  2.2977 -1.7767
   93MOL0     H12525   6.503  -0.025   7.363 -1.3823  0.1051 -1.4983
   93MOL0     H12526   6.473   0.157   7.368 -0.0359  0.6243  0.4032
   93MOL0     H12527   6.396  -0.038   7.588  0.9803 -2.3437 -1.8625
   93MOL0     H12528   6.362   0.138   7.568  1.3901  0.0738 -1.8919
   93MOL0     H12529   6.277  -0.038   7.342 -0.0796  0.1658 -1.2062
   93MOL0     H12530   6.221   0.115   7.401  2.7044 -0.1667  0.2647
   93MOL0     H12531   6.173  -0.162   7.514  2.8906  0.2220 -3.2163
   93MOL0     H12532   6.119  -0.013   7.598 -2.2482  0.2796 -0.7433
   93MOL0     H12533   6.034  -0.039   7.320  0.9864  2.1070 -0.1441
   93MOL0     H12534   5.960   0.041   7.442  1.3337  0.6456  0.1619
   93MOL0     H12535   5.887  -0.155   7.568 -3.4073  1.1699 -1.6775
   93MOL0     H12536   5.995  -0.269   7.482 -0.9733 -1.1685  3.0932
   93MOL0     H12537   7.054   0.206   7.682  1.9679 -0.0348  0.1253
   93MOL0     H12538   7.284   0.216   7.605  0.5403  1.0223 -0.6873
   93MOL0     H12539   7.598  -0.124   7.184  5.2978 -1.4735 -0.7125
   93MOL0     H12540   7.816  -0.113   7.125  1.8512  1.4845 -1.8055
   93MOL0     H12541   9.675  -0.381   7.520  3.7287  0.3536  0.8248
   93MOL0     H12542   9.830  -0.218   7.556 -0.1133  0.5438 -0.2082
   93MOL0     H12543   9.786   0.430   7.493 -0.2873  2.2221  0.4742
   93MOL0     H12544   9.993   0.589   7.450  2.4761  0.0097 -0.2979
   93MOL0     H12545  10.445   0.547   7.464 -0.7149  2.8056  0.1175
   93MOL0     H12546  10.388   0.420   7.369  0.1130  0.2361 -0.3464
   93MOL0     H12547  10.370   0.724   7.312  0.9218  0.1249  0.2848
   93MOL0     H12548  10.324   0.609   7.192 -2.4492 -3.0379  0.7776
   93MOL0     H12549  10.591   0.517   7.257  0.4438  0.0845 -1.7673
   93MOL0     H12550  10.592   0.690   7.308 -0.7125  0.0256  1.3884
   93MOL0     H12551  10.545   0.766   7.082  1.2784 -0.3552 -3.2226
   93MOL0     H12552  10.511   0.605   7.028 -2.6119 -0.5473  1.2333
   93MOL0     H12553  10.935   0.628   7.048  0.4347  0.1899 -1.6612
   93MOL0     H12554  10.257   0.270   7.424 -0.1940 -3.6294  0.8678
   93MOL0     H12555  10.060   0.106   7.449  2.2211  0.2445 -3.1491
   94MOL0     O12556  10.281   5.499   4.866  0.4696  0.3175  0.7952
   94MOL0     C12557  10.398   5.517   4.856 -0.5314  0.2696 -0.3969
   94MOL0     O12558  10.468   5.601   4.761 -0.4208  0.2443 -0.3029
   94MOL0     C12559  10.406   5.667   4.662 -0.1394  0.3389 -0.7531
   94MOL0     C12560  10.497   5.715   4.568  0.0830 -1.0310 -0.4832
   94MOL0     C12561  10.461   5.773   4.447  0.0195 -0.0614 -0.4351
   94MOL0     C12562  10.326   5.789   4.424  0.5785 -0.0467  0.9864
   94MOL0     O12563  10.291   5.864   4.321  0.1485 -0.1735  0.4793
   94MOL0     C12564  10.148   5.879   4.286 -0.3997 -0.5857  0.8592
   94MOL0     C12565  10.099   5.768   4.190 -0.9441  0.0463  0.0173
   94MOL0     C12566   9.953   5.790   4.139 -0.6056  0.4978  0.7853
   94MOL0     C12567   9.904   5.655   4.081 -0.3489  0.9150 -0.0279
   94MOL0     C12568   9.773   5.671   4.007  0.1800 -0.3690 -0.4054
   94MOL0     C12569   9.656   5.740   4.090  0.2235  0.0894  0.2739
   94MOL0     C12570   9.521   5.747   4.024 -1.0529 -1.0865  0.4359
   94MOL0     C12571   9.420   5.823   4.113 -0.7440  0.3316  0.2161
   94MOL0     N12572   9.291   5.850   4.047 -0.0601 -0.0062 -0.7773
   94MOL0     C12573   9.197   5.751   4.025  0.5382  0.2892  0.2895
   94MOL0     C12574   9.101   5.826   3.955 -1.1425  0.9053  0.3742
   94MOL0     C12575   8.967   5.781   3.903  0.2650 -0.4345 -0.6182
   94MOL0     C12576   8.850   5.847   3.981  0.8147 -0.3217  0.0577
   94MOL0     C12577   8.836   5.806   4.127  0.7197  0.1475  0.2419
   94MOL0     C12578   8.730   5.897   4.193 -0.1178  0.3788 -1.2376
   94MOL0     O12579   8.594   5.862   4.145 -1.3514 -0.4568 -0.3720
   94MOL0     C12580   8.491   5.933   4.193 -0.0085  0.5933  0.1882
   94MOL0     C12581   8.491   6.040   4.288  0.1891 -0.5143  0.4212
   94MOL0     C12582   8.376   6.108   4.335 -0.5080  0.1553  0.0714
   94MOL0     C12583   8.414   6.200   4.447 -0.3414 -0.6164 -0.5054
   94MOL0     C12584   8.255   6.086   4.266 -0.2472  0.1241 -0.7239
   94MOL0     C12585   8.129   6.165   4.291  0.2932 -0.4651 -0.2777
   94MOL0     O12586   8.024   6.117   4.214 -0.3047  0.5449 -0.4851
   94MOL0     C12587   7.902   6.175   4.229 -0.0926 -0.3466  0.3645
   94MOL0     C12588   7.835   6.219   4.107  0.5724  0.7262  0.0774
   94MOL0     C12589   7.702   6.277   4.118 -0.6303  0.5267 -1.1173
   94MOL0     C12590   7.642   6.289   4.245 -0.2189 -0.3702  0.1808
   94MOL0     O12591   7.504   6.322   4.248  0.1075 -0.5704  0.5632
   94MOL0     C12592   7.433   6.360   4.368 -0.6756 -0.0963 -0.1488
   94MOL0     C12593   7.279   6.355   4.355  0.0548 -0.1862 -0.1627
   94MOL0     C12594   7.231   6.472   4.265  0.3163 -0.4052  0.2071
   94MOL0     C12595   7.081   6.446   4.232  0.5227 -0.2011  0.4639
   94MOL0     C12596   7.048   6.380   4.093 -0.9364  0.6231 -0.1670
   94MOL0     C12597   6.908   6.406   4.051  0.9673  0.4560  0.0157
   94MOL0     C12598   6.808   6.336   4.152 -0.1359 -0.0706  0.5077
   94MOL0     C12599   6.681   6.313   4.066 -0.1923 -0.2086 -0.8313
   94MOL0    Cl12600   6.572   6.225   4.187  0.1652 -0.2348  0.0651
   94MOL0     C12601   7.722   6.271   4.360 -0.7639 -0.2885  1.1139
   94MOL0     C12602   7.848   6.212   4.352  0.2454  0.9178 -0.1775
   94MOL0     O12603   8.119   6.261   4.375  0.2143 -0.0398  0.9557
   94MOL0     C12604   8.257   5.983   4.164 -0.3646 -0.0025  1.5319
   94MOL0     C12605   8.369   5.909   4.130 -0.5086  0.8487 -0.4422
   94MOL0     N12606   9.152   5.949   3.931  0.1281 -1.4293  0.4371
   94MOL0     N12607   9.263   5.966   3.978  0.8776  0.6749 -0.2169
   94MOL0     C12608  10.233   5.755   4.518 -0.6805  0.0624 -0.2993
   94MOL0     C12609  10.270   5.692   4.638 -0.4114  0.5511 -0.1451
   94MOL0     C12610  10.483   5.428   4.943  0.1859 -0.2447  0.4039
   94MOL0     C12611  10.620   5.429   4.938 -0.5925  0.3797 -0.5158
   94MOL0     C12612  10.696   5.324   4.997  0.6357 -0.0159  0.2420
   94MOL0     C12613  10.627   5.226   5.072 -0.4542 -0.2620 -0.6255
   94MOL0     O12614  10.690   5.125   5.136  0.1471 -0.2957  0.7243
   94MOL0     C12615  10.814   5.083   5.094 -0.2262 -0.1434  0.7774
   94MOL0     C12616  10.844   4.926   5.126 -0.5761  0.3299 -0.2903
   94MOL0     C12617  10.760   4.830   5.036  0.1349 -0.7335 -0.7595
   94MOL0     C12618  10.776   4.682   5.070  0.6243  0.1641  0.0679
   94MOL0     C12619  10.707   4.597   4.969  0.5074 -0.2298 -0.6854
   94MOL0     C12620  10.639   4.557   4.872 -0.1120  1.3219 -0.1419
   94MOL0     C12621  10.497   5.242   5.095  0.0784 -0.1327 -0.1031
   94MOL0     C12622  10.426   5.340   5.031 -0.2409  1.3097  0.6296
   94MOL0     H12623  10.603   5.705   4.587 -0.2732 -0.4646  2.2549
   94MOL0     H12624  10.524   5.810   4.367 -0.8554 -1.2230 -1.7230
   94MOL0     H12625  10.084   5.885   4.375  2.7332  0.6198  3.2049
   94MOL0     H12626  10.145   5.976   4.236  0.3637 -2.3754 -3.0250
   94MOL0     H12627  10.161   5.769   4.099 -0.3802  1.9353  0.3676
   94MOL0     H12628  10.116   5.671   4.236 -0.2661  0.6630  1.1101
   94MOL0     H12629   9.882   5.825   4.214 -1.5795  1.6551 -0.6218
   94MOL0     H12630   9.948   5.866   4.061 -2.7035  0.4168  0.7749
   94MOL0     H12631   9.974   5.610   4.010  1.7076  0.2736  2.2278
   94MOL0     H12632   9.892   5.582   4.162  1.5958  0.0253 -0.4564
   94MOL0     H12633   9.786   5.725   3.912  0.0021 -0.3270 -0.4069
   94MOL0     H12634   9.739   5.573   3.974 -1.2795 -0.2774  0.7606
   94MOL0     H12635   9.653   5.703   4.193  2.4052  3.5549  1.7614
   94MOL0     H12636   9.686   5.843   4.108 -0.7156 -0.0736  3.4456
   94MOL0     H12637   9.529   5.799   3.928 -0.8253  1.3741  1.7079
   94MOL0     H12638   9.478   5.648   4.010 -3.4154 -0.2385  1.2973
   94MOL0     H12639   9.452   5.923   4.143 -2.8235  1.1206 -0.0759
   94MOL0     H12640   9.424   5.771   4.210  3.2753  0.5893  0.3640
   94MOL0     H12641   9.178   5.654   4.069  1.9321 -0.3257 -0.4133
   94MOL0     H12642   8.946   5.786   3.796 -1.0470 -1.0937 -0.4144
   94MOL0     H12643   8.953   5.676   3.930  3.4879 -0.3219  2.0984
   94MOL0     H12644   8.755   5.833   3.930  0.8544 -0.0739 -0.0903
   94MOL0     H12645   8.852   5.956   3.972 -2.9651 -0.0516  1.0039
   94MOL0     H12646   8.925   5.824   4.188 -0.7753 -0.4634  2.7934
   94MOL0     H12647   8.801   5.703   4.131  1.9975 -0.3503 -0.6970
   94MOL0     H12648   8.753   6.003   4.186  2.0603  0.1741  1.1587
   94MOL0     H12649   8.732   5.879   4.301  0.2169  2.0448 -0.9520
   94MOL0     H12650   8.587   6.072   4.327 -0.8805  2.9586  0.5331
   94MOL0     H12651   8.418   6.303   4.411 -0.9564 -1.1153 -2.1085
   94MOL0     H12652   8.337   6.193   4.525  0.0435  2.1976  0.2547
   94MOL0     H12653   8.506   6.173   4.499  0.9938  1.2217 -1.7799
   94MOL0     H12654   7.886   6.214   4.011 -0.8502  1.8069 -0.7550
   94MOL0     H12655   7.649   6.302   4.026  0.5328  0.5891 -1.7836
   94MOL0     H12656   7.460   6.278   4.436  1.0948 -1.3931 -2.2759
   94MOL0     H12657   7.475   6.457   4.396  2.6121 -1.2489 -0.6017
   94MOL0     H12658   7.253   6.261   4.306  0.3955  1.4089 -3.7127
   94MOL0     H12659   7.236   6.379   4.453  2.4678  1.6338  0.5377
   94MOL0     H12660   7.297   6.487   4.180 -0.1502  1.5255  0.1306
   94MOL0     H12661   7.241   6.565   4.322  0.9409 -1.1357  1.3230
   94MOL0     H12662   7.031   6.394   4.315  1.7215 -2.7367 -0.2884
   94MOL0     H12663   7.035   6.544   4.218  0.5237 -0.4059 -1.1404
   94MOL0     H12664   7.074   6.274   4.085  1.8796  1.2513 -0.4621
   94MOL0     H12665   7.114   6.440   4.030  2.2516  1.1496  3.3150
   94MOL0     H12666   6.881   6.511   4.032  2.8229  0.9744  0.0367
   94MOL0     H12667   6.894   6.345   3.961 -0.1557 -1.6716  1.5562
   94MOL0     H12668   6.778   6.387   4.244  1.7431 -0.8989  1.6256
   94MOL0     H12669   6.850   6.244   4.193 -1.5899 -0.8349  0.3497
   94MOL0     H12670   6.715   6.248   3.985  0.4751 -0.0693 -0.6678
   94MOL0     H12671   6.635   6.406   4.030  0.1691  0.2418 -0.1529
   94MOL0     H12672   7.674   6.279   4.457 -6.0816  0.3514 -1.2253
   94MOL0     H12673   7.899   6.178   4.441  2.3349 -2.7012 -2.5151
   94MOL0     H12674   8.166   5.963   4.108  1.0163 -0.4294 -0.7168
   94MOL0     H12675   8.373   5.861   4.033 -1.3545  1.7354 -0.9312
   94MOL0     H12676  10.128   5.777   4.531 -0.3575  0.3142  2.9087
   94MOL0     H12677  10.193   5.653   4.704  1.3562  1.9011  2.9228
   94MOL0     H12678  10.663   5.513   4.884 -1.8172  1.2044 -0.2675
   94MOL0     H12679  10.804   5.331   4.986  0.7213 -2.4909 -0.9063
   94MOL0     H12680  10.840   5.110   4.991 -0.3772 -1.8265  0.2748
   94MOL0     H12681  10.874   5.140   5.166  0.9972 -0.2178 -0.1411
   94MOL0     H12682  10.811   4.909   5.229  1.6074 -0.7229  0.2998
   94MOL0     H12683  10.952   4.906   5.125 -0.8948 -1.6393 -2.3428
   94MOL0     H12684  10.782   4.844   4.930 -0.8289 -4.2132 -1.5344
   94MOL0     H12685  10.657   4.856   5.062 -0.2716 -0.5469 -2.4528
   94MOL0     H12686  10.739   4.660   5.170  3.8078 -0.8246  1.1412
   94MOL0     H12687  10.883   4.662   5.066  0.7131  0.3873  1.1988
   94MOL0     H12688  10.576   4.535   4.788 -2.6940  0.5474  1.8749
   94MOL0     H12689  10.442   5.191   5.173  0.2863 -1.8382 -1.0362
   94MOL0     H12690  10.323   5.361   5.059 -0.3170  2.0764 -0.1904
   95MOL0     O12691   2.840   1.952   5.146  0.3144 -0.0415 -0.0122
   95MOL0     C12692   2.807   1.895   5.250 -0.8129 -0.6405 -0.1610
   95MOL0     O12693   2.863   1.912   5.370 -0.0894 -0.4838 -0.4770
   95MOL0     C12694   2.969   1.997   5.384 -0.2611 -0.1964  0.9977
   95MOL0     C12695   2.957   2.132   5.428  0.2779  0.5540  0.4413
   95MOL0     C12696   3.063   2.226   5.432  0.5827  0.1952 -0.0185
   95MOL0     C12697   3.183   2.196   5.380 -0.0223  0.5914  0.2887
   95MOL0     O12698   3.284   2.279   5.397 -0.1907 -0.3908  0.1597
   95MOL0     C12699   3.400   2.261   5.308 -0.4976 -0.2257  1.1269
   95MOL0     C12700   3.481   2.388   5.318  0.2171 -0.2147 -0.2868
   95MOL0     C12701   3.598   2.391   5.221  0.0563  0.2686 -0.0455
   95MOL0     C12702   3.696   2.281   5.241 -0.3351  1.5963  0.0035
   95MOL0     C12703   3.792   2.268   5.121 -0.7856  0.6721  0.2084
   95MOL0     C12704   3.879   2.142   5.124  0.1063 -1.0720 -0.0643
   95MOL0     C12705   3.958   2.115   4.988  0.4303  1.1202  0.6629
   95MOL0     C12706   4.046   1.990   5.010 -0.3794  0.6834 -0.4010
   95MOL0     N12707   3.978   1.863   5.008 -0.2132  0.5795  0.2351
   95MOL0     C12708   3.987   1.776   4.897 -0.7917 -1.0927  0.9006
   95MOL0     C12709   3.902   1.675   4.924  0.0834  0.8039 -0.2549
   95MOL0     C12710   3.874   1.546   4.843  0.3220  0.5854  0.1592
   95MOL0     C12711   3.726   1.523   4.815  0.4200 -0.5185 -0.3785
   95MOL0     C12712   3.642   1.463   4.932 -0.3320  0.1439 -0.0520
   95MOL0     C12713   3.494   1.451   4.898  0.8647  0.6352  0.2941
   95MOL0     O12714   3.479   1.348   4.799  0.4461 -0.4353 -0.1045
   95MOL0     C12715   3.351   1.302   4.796 -0.0501  0.0130  0.1270
   95MOL0     C12716   3.325   1.181   4.738 -0.1519  0.0660  0.6295
   95MOL0     C12717   3.196   1.115   4.716  0.0687 -0.5212  0.5520
   95MOL0     C12718   3.182   0.987   4.637  0.1221  0.2187  0.3796
   95MOL0     C12719   3.089   1.208   4.740 -0.3437 -0.0013 -0.3562
   95MOL0     C12720   2.947   1.178   4.713 -0.3851 -0.2142 -0.5615
   95MOL0     O12721   2.851   1.223   4.795  0.3800  0.2600  0.3752
   95MOL0     C12722   2.716   1.228   4.757  0.1984  0.5551 -0.6938
   95MOL0     C12723   2.659   1.337   4.689  0.2243 -0.3347 -0.2697
   95MOL0     C12724   2.524   1.348   4.663 -0.9689  0.3777  0.0331
   95MOL0     C12725   2.449   1.230   4.691  0.7559 -0.1055  0.1695
   95MOL0     O12726   2.315   1.214   4.657 -0.2037  0.4333 -0.2627
   95MOL0     C12727   2.308   1.229   4.520  0.2669  0.8963 -0.0862
   95MOL0     C12728   2.168   1.185   4.467 -0.2915 -0.7509 -0.8100
   95MOL0     C12729   2.144   1.216   4.321 -0.5839  0.2133 -0.5708
   95MOL0     C12730   2.026   1.142   4.254 -0.7148 -1.2370 -0.6462
   95MOL0     C12731   2.019   1.197   4.104 -0.9606  0.3316 -0.4977
   95MOL0     C12732   1.974   1.085   4.002 -0.2136  0.0256 -0.0995
   95MOL0     C12733   1.974   1.143   3.860 -0.1101 -0.9517 -0.5129
   95MOL0     C12734   1.836   1.200   3.813  0.4440  0.0904 -0.0218
   95MOL0    Cl12735   1.800   1.363   3.883 -0.2254 -0.2161 -0.0836
   95MOL0     C12736   2.499   1.120   4.757  0.1992 -0.6462 -0.8731
   95MOL0     C12737   2.634   1.116   4.776  0.6230  0.3378  0.2484
   95MOL0     O12738   2.921   1.124   4.607  1.0946  0.6621 -0.0778
   95MOL0     C12739   3.096   1.327   4.814 -0.2650  0.0957 -0.9156
   95MOL0     C12740   3.228   1.373   4.837 -0.9676  0.2984 -0.7973
   95MOL0     N12741   3.853   1.703   5.053  0.0270 -0.4098  0.3624
   95MOL0     N12742   3.896   1.819   5.097 -0.2510  0.1677  0.3335
   95MOL0     C12743   3.201   2.061   5.336  0.5076  0.0484  0.2434
   95MOL0     C12744   3.096   1.972   5.334 -0.0151  0.4523  0.9781
   95MOL0     C12745   2.691   1.803   5.243  0.0357 -0.5641 -1.0648
   95MOL0     C12746   2.630   1.785   5.118  0.6902 -0.1142  0.7372
   95MOL0     C12747   2.519   1.695   5.101  0.4967 -0.9303 -0.7308
   95MOL0     C12748   2.469   1.633   5.220 -0.8328 -0.0400 -0.3613
   95MOL0     O12749   2.355   1.554   5.231  0.4508 -0.2603  0.6482
   95MOL0     C12750   2.263   1.557   5.122  0.4501  0.1147  0.1992
   95MOL0     C12751   2.156   1.451   5.153 -0.5100  0.1796 -0.5451
   95MOL0     C12752   2.194   1.323   5.079  0.2849  0.1400 -0.0703
   95MOL0     C12753   2.108   1.316   4.951  0.5513  0.4047  0.1375
   95MOL0     C12754   2.144   1.410   4.841  0.3267 -1.1017 -0.3105
   95MOL0     C12755   2.153   1.495   4.758  0.2235 -0.0618  0.5883
   95MOL0     C12756   2.522   1.663   5.345  0.2751 -0.3810  0.0660
   95MOL0     C12757   2.639   1.747   5.354  1.6550  0.1488  0.0767
   95MOL0     H12758   2.867   2.162   5.481  0.7659 -1.2694  2.4362
   95MOL0     H12759   3.040   2.324   5.473 -5.4891 -0.9040  0.1974
   95MOL0     H12760   3.455   2.171   5.336  1.6636  0.6247 -0.1629
   95MOL0     H12761   3.364   2.256   5.205  0.3266 -2.6509  0.9024
   95MOL0     H12762   3.422   2.479   5.307  1.0250  0.1519 -1.8301
   95MOL0     H12763   3.518   2.387   5.421 -3.1588 -1.2551  1.0446
   95MOL0     H12764   3.565   2.390   5.116 -1.1863  2.4209  0.2586
   95MOL0     H12765   3.650   2.485   5.241 -1.7258  1.1977  0.4845
   95MOL0     H12766   3.745   2.302   5.337 -1.4085 -1.6783  1.4164
   95MOL0     H12767   3.656   2.181   5.258  2.7279  0.0327 -1.2717
   95MOL0     H12768   3.726   2.255   5.035  1.7109 -0.1276 -1.7372
   95MOL0     H12769   3.859   2.354   5.113 -2.5397  1.9847 -0.9904
   95MOL0     H12770   3.956   2.153   5.201  0.1822 -2.7103  0.1282
   95MOL0     H12771   3.809   2.062   5.151 -0.0705 -0.3482  1.7888
   95MOL0     H12772   3.885   2.092   4.910 -0.3020 -0.0123  1.6576
   95MOL0     H12773   4.011   2.202   4.947 -0.5011  0.6116 -1.8178
   95MOL0     H12774   4.074   1.997   5.116  2.9803 -0.7426 -1.0544
   95MOL0     H12775   4.135   1.990   4.947  1.0622  2.4092  1.4758
   95MOL0     H12776   4.045   1.793   4.807 -1.0313  0.4985  1.0201
   95MOL0     H12777   3.935   1.542   4.753  0.1369  0.5728  0.0333
   95MOL0     H12778   3.916   1.465   4.903 -1.5339 -0.6577 -0.1238
   95MOL0     H12779   3.736   1.444   4.740  2.3590  0.9191 -1.7229
   95MOL0     H12780   3.672   1.607   4.771  0.0629 -0.3607  0.3451
   95MOL0     H12781   3.653   1.527   5.020  0.7114  0.9935 -0.7798
   95MOL0     H12782   3.687   1.369   4.965  0.8670  0.9570  0.7083
   95MOL0     H12783   3.457   1.550   4.870 -1.5503  0.6447  3.1173
   95MOL0     H12784   3.437   1.426   4.987 -0.1430  1.9900  0.0652
   95MOL0     H12785   3.419   1.136   4.707  0.4950  1.4564  0.4779
   95MOL0     H12786   3.079   0.951   4.630  0.5316 -1.0052  0.5015
   95MOL0     H12787   3.223   0.992   4.536  2.3695 -1.8858  1.1104
   95MOL0     H12788   3.226   0.906   4.696 -2.1215 -1.0972  0.3498
   95MOL0     H12789   2.726   1.419   4.667  1.0558 -0.5746  1.2144
   95MOL0     H12790   2.495   1.435   4.604 -0.8126 -1.1239 -2.4330
   95MOL0     H12791   2.325   1.331   4.484  1.1432  0.7369 -0.1297
   95MOL0     H12792   2.381   1.164   4.471 -1.4785  0.7672 -2.7410
   95MOL0     H12793   2.170   1.077   4.485 -0.9692 -0.8682 -1.4000
   95MOL0     H12794   2.095   1.222   4.540  0.5692 -2.4450  1.0250
   95MOL0     H12795   2.241   1.202   4.271  0.7892  0.9923  1.7389
   95MOL0     H12796   2.124   1.323   4.312  1.0196  0.4807 -1.2776
   95MOL0     H12797   2.053   1.036   4.250  4.4343 -0.1812 -1.6640
   95MOL0     H12798   1.931   1.159   4.305  0.4086  2.3769  0.5933
   95MOL0     H12799   2.117   1.239   4.079  0.5206 -1.4510  1.8629
   95MOL0     H12800   1.941   1.274   4.098 -4.1882 -2.6127  0.5313
   95MOL0     H12801   2.039   0.997   4.012 -1.7083 -1.1988 -0.7941
   95MOL0     H12802   1.883   1.028   4.025 -0.3276  0.6157  0.9715
   95MOL0     H12803   2.008   1.070   3.787 -1.9064  0.6828 -3.1699
   95MOL0     H12804   2.047   1.224   3.852  0.6789 -1.1393  3.0618
   95MOL0     H12805   1.767   1.123   3.846  0.3141 -0.5465 -1.6787
   95MOL0     H12806   1.828   1.204   3.704 -0.7235 -4.0735 -0.2435
   95MOL0     H12807   2.434   1.046   4.801  0.8391 -0.1279  1.0353
   95MOL0     H12808   2.670   1.033   4.835  4.3410  0.3933 -1.5881
   95MOL0     H12809   3.012   1.394   4.826 -1.6646 -1.1619 -3.1015
   95MOL0     H12810   3.241   1.475   4.873  0.5622  0.8598 -2.7054
   95MOL0     H12811   3.303   2.035   5.309  0.7392  1.3774 -0.2199
   95MOL0     H12812   3.105   1.873   5.291 -1.5453  0.3573  0.8270
   95MOL0     H12813   2.674   1.829   5.029  0.7954  0.4817  1.0821
   95MOL0     H12814   2.465   1.699   5.007 -0.8409  4.5220 -0.0399
   95MOL0     H12815   2.226   1.659   5.109  2.4747  0.7630 -0.9731
   95MOL0     H12816   2.314   1.529   5.029  0.2390 -0.5733  0.2856
   95MOL0     H12817   2.056   1.490   5.132 -1.0788 -2.2895 -2.9634
   95MOL0     H12818   2.162   1.429   5.260 -0.0040  0.0991 -0.5876
   95MOL0     H12819   2.162   1.245   5.149  1.7281 -1.3138 -0.9577
   95MOL0     H12820   2.299   1.308   5.053  0.1074 -1.9727  0.2406
   95MOL0     H12821   2.000   1.322   4.968  0.6428  4.1135  0.3269
   95MOL0     H12822   2.134   1.220   4.906  1.8880 -0.4556  2.5420
   95MOL0     H12823   2.155   1.567   4.678  0.8279 -0.7407 -0.0192
   95MOL0     H12824   2.491   1.606   5.432  3.0531 -2.6034 -0.2442
   95MOL0     H12825   2.677   1.765   5.454 -0.3691  2.5610  0.5023
   96MOL0     O12826   4.610   9.655  10.556 -0.4817 -0.3035  0.2741
   96MOL0     C12827   4.656   9.768  10.581  0.0174 -0.3378 -0.4227
   96MOL0     O12828   4.599   9.894  10.552  0.9768  0.0821  0.1218
   96MOL0     C12829   4.466   9.922  10.500  0.3870 -0.3044  0.2958
   96MOL0     C12830   4.371   9.825  10.472 -0.5648 -0.3568 -0.2277
   96MOL0     C12831   4.244   9.863  10.426  0.0254  1.0991 -0.8238
   96MOL0     C12832   4.206  10.005  10.403 -0.5885  0.3760 -0.4991
   96MOL0     O12833   4.080  10.040  10.355 -0.3912 -0.1270  0.0526
   96MOL0     C12834   4.058  10.181  10.342 -0.4878 -0.1887 -0.0610
   96MOL0     C12835   3.911  10.204  10.312 -0.4070 -0.3149  0.9173
   96MOL0     C12836   3.825  10.157  10.431 -0.1964  0.3255 -1.1586
   96MOL0     C12837   3.673  10.165  10.381  0.2588  0.2896  0.4770
   96MOL0     C12838   3.582  10.103  10.492  0.2352 -0.7321 -0.6300
   96MOL0     C12839   3.562   9.948  10.489 -0.4997  0.4971  0.2259
   96MOL0     C12840   3.481   9.902  10.606  0.2820  1.0478  0.3096
   96MOL0     C12841   3.323   9.930  10.606 -0.3050  0.3948 -0.1212
   96MOL0     N12842   3.267   9.862  10.718  0.4491 -0.2329 -0.3650
   96MOL0     C12843   3.276   9.903  10.844 -1.2668  0.7790 -0.2209
   96MOL0     C12844   3.172   9.848  10.907 -0.7267 -0.0665 -0.4062
   96MOL0     C12845   3.134   9.882  11.051 -0.0851  0.0773  0.1508
   96MOL0     C12846   3.001   9.960  11.057 -0.6288 -0.7748 -0.0076
   96MOL0     C12847   2.879   9.880  11.015  0.7803 -0.3502 -0.1612
   96MOL0     C12848   2.749   9.962  10.971 -0.5572  0.1104 -0.0582
   96MOL0     O12849   2.719  10.063  11.073 -0.3578  0.0052  0.4525
   96MOL0     C12850   2.583  10.105  11.065 -0.3504 -0.0503 -0.3308
   96MOL0     C12851   2.542  10.175  10.954  0.4916 -0.0179 -1.5910
   96MOL0     C12852   2.407  10.213  10.924 -0.3118 -0.0382  0.6306
   96MOL0     C12853   2.373  10.291  10.803  0.2070 -0.1672 -0.0167
   96MOL0     C12854   2.305  10.172  11.016  0.5129  0.6565  0.9820
   96MOL0     C12855   2.163  10.201  11.000 -0.4926 -0.6076  0.2443
   96MOL0     O12856   2.070  10.109  11.037 -0.9220 -0.4604  0.6488
   96MOL0     C12857   1.938  10.132  11.039  1.5202 -0.0163  0.8423
   96MOL0     C12858   1.867  10.073  11.135  1.1969  0.1546  0.2756
   96MOL0     C12859   1.727  10.094  11.146 -0.3209 -0.0912 -0.1428
   96MOL0     C12860   1.655  10.161  11.050  0.1273 -0.4542 -0.0349
   96MOL0     O12861   1.523  10.166  11.073 -0.3764  0.3169  0.1732
   96MOL0     C12862   1.449  10.248  10.981 -0.6838 -0.1334  0.3073
   96MOL0     C12863   1.298  10.251  11.011 -0.6097  0.1426 -0.2420
   96MOL0     C12864   1.217  10.344  10.926  0.2248  0.4585  0.2665
   96MOL0     C12865   1.082  10.385  10.995  0.2511  0.4226  0.4593
   96MOL0     C12866   0.981  10.272  11.010 -0.8454 -0.9143  0.9708
   96MOL0     C12867   0.945  10.251  11.160  0.5175 -0.8374 -0.0266
   96MOL0     C12868   0.856  10.126  11.165  0.0953  0.6379 -0.7179
   96MOL0     C12869   0.826  10.091  11.314 -0.6967 -0.0716  0.6568
   96MOL0    Cl12870   0.988  10.004  11.366 -0.0954 -0.1387  0.0712
   96MOL0     C12871   1.725  10.215  10.945 -0.4334  0.2234 -0.0756
   96MOL0     C12872   1.869  10.201  10.940  0.5690 -0.3037  0.4138
   96MOL0     O12873   2.133  10.318  10.964  0.0527  0.3232  0.1226
   96MOL0     C12874   2.345  10.092  11.126 -1.2563  0.7877  0.0010
   96MOL0     C12875   2.485  10.057  11.149 -0.7160 -0.0127  0.7523
   96MOL0     N12876   3.099   9.773  10.824  0.5756 -0.4076 -0.2370
   96MOL0     N12877   3.146   9.795  10.706  0.4011 -0.1494  0.0786
   96MOL0     C12878   4.308  10.091  10.431  0.0322  0.4480  0.3420
   96MOL0     C12879   4.430  10.055  10.488 -0.5775 -0.9214 -0.1942
   96MOL0     C12880   4.782   9.774  10.659  0.7693 -0.8781 -0.3834
   96MOL0     C12881   4.853   9.894  10.656 -0.4200  1.3606  0.6495
   96MOL0     C12882   4.980   9.894  10.722 -0.2014 -0.5104  0.6890
   96MOL0     C12883   5.035   9.792  10.794 -0.4492 -0.1008  0.7576
   96MOL0     O12884   5.152   9.800  10.866 -0.2360  0.9812  0.0497
   96MOL0     C12885   5.274   9.796  10.788  0.9075  0.4117  0.0242
   96MOL0     C12886   5.402   9.832  10.868  0.0631 -0.0614  0.0970
   96MOL0     C12887   5.531   9.796  10.785  0.3069  0.7020 -0.4935
   96MOL0     C12888   5.660   9.827  10.859  0.3719  0.3760  0.2245
   96MOL0     C12889   5.677   9.969  10.889  1.2365  0.7599  0.5235
   96MOL0     C12890   5.677  10.081  10.930  0.1229 -0.5341  0.8384
   96MOL0     C12891   4.960   9.674  10.802 -0.3666 -0.3847  0.1889
   96MOL0     C12892   4.837   9.656  10.732 -0.8028 -0.4513  0.5356
   96MOL0     H12893   4.389   9.719  10.482 -0.0256 -0.2901 -0.4772
   96MOL0     H12894   4.168   9.787  10.410  0.2542  0.1608  1.9560
   96MOL0     H12895   4.078  10.238  10.433  1.1368  0.5597 -0.8372
   96MOL0     H12896   4.125  10.204  10.259  0.2180 -1.3797  0.1598
   96MOL0     H12897   3.892  10.310  10.292 -0.0723 -0.6304 -1.3743
   96MOL0     H12898   3.884  10.150  10.221 -1.1414  3.5941 -1.4480
   96MOL0     H12899   3.847  10.052  10.453 -0.6568 -0.0023 -2.1910
   96MOL0     H12900   3.850  10.221  10.516 -3.0516  0.8219 -0.5882
   96MOL0     H12901   3.667  10.273  10.367  2.8097  0.2223 -2.2131
   96MOL0     H12902   3.654  10.116  10.285  0.0022  0.2951  0.5239
   96MOL0     H12903   3.613  10.132  10.593  2.2413 -4.0852 -0.1537
   96MOL0     H12904   3.483  10.141  10.462  0.7025 -1.7491 -3.7843
   96MOL0     H12905   3.520   9.917  10.393 -1.9405 -1.2956  1.3729
   96MOL0     H12906   3.660   9.899  10.493 -0.2652  0.9545  0.0629
   96MOL0     H12907   3.483   9.792  10.607 -2.3135  0.8827 -1.4676
   96MOL0     H12908   3.532   9.939  10.695  1.1342  2.0244 -0.5642
   96MOL0     H12909   3.278   9.896  10.512  1.1954 -0.6790 -0.4817
   96MOL0     H12910   3.297  10.037  10.605 -2.8326 -0.1298  0.8004
   96MOL0     H12911   3.356   9.966  10.881 -0.5340  0.9396 -1.9974
   96MOL0     H12912   3.117   9.791  11.108  0.8081 -1.9336 -2.5812
   96MOL0     H12913   3.224   9.928  11.092  0.5182 -0.8981 -0.0526
   96MOL0     H12914   3.006  10.054  11.001 -0.0018 -0.6685  0.2189
   96MOL0     H12915   2.989   9.991  11.161 -2.0073  0.8947 -0.6157
   96MOL0     H12916   2.863   9.811  11.098  2.7077  0.3286  0.8239
   96MOL0     H12917   2.913   9.811  10.937  2.0605  1.1357 -0.9584
   96MOL0     H12918   2.664   9.897  10.949  0.7319 -0.5561 -3.7018
   96MOL0     H12919   2.765  10.014  10.876 -0.1047 -0.1332 -0.1180
   96MOL0     H12920   2.626  10.201  10.890  1.3357  0.9884 -0.1199
   96MOL0     H12921   2.303  10.240  10.736  1.3106  0.3057 -1.5953
   96MOL0     H12922   2.327  10.386  10.832 -2.3408 -0.9409 -1.1848
   96MOL0     H12923   2.465  10.302  10.745  0.0891  0.8766 -0.0300
   96MOL0     H12924   1.915  10.022  11.218 -0.4318 -1.6804  0.1622
   96MOL0     H12925   1.676  10.042  11.226  1.6708  0.3114  1.4553
   96MOL0     H12926   1.490  10.349  10.996  1.8395 -0.7266 -1.9941
   96MOL0     H12927   1.465  10.198  10.886 -1.9021 -1.0843  0.5874
   96MOL0     H12928   1.271  10.145  11.016  0.7647 -0.2150 -0.1606
   96MOL0     H12929   1.280  10.296  11.109 -0.6670  0.8682 -0.5810
   96MOL0     H12930   1.188  10.286  10.838 -1.6083  0.7995  0.5870
   96MOL0     H12931   1.276  10.434  10.906 -0.0545  0.6458  0.2795
   96MOL0     H12932   1.101  10.430  11.092  1.1500 -0.8042  0.8826
   96MOL0     H12933   1.041  10.462  10.930 -0.1471  1.7382  2.2045
   96MOL0     H12934   1.009  10.177  10.963  1.9574  0.6289 -0.7514
   96MOL0     H12935   0.887  10.310  10.969  0.5686  2.1804  0.3248
   96MOL0     H12936   1.036  10.250  11.221 -1.1896 -0.5911  2.6359
   96MOL0     H12937   0.888  10.340  11.189 -0.1359 -1.5646  0.9691
   96MOL0     H12938   0.914  10.045  11.121 -2.6711 -2.4072  0.8132
   96MOL0     H12939   0.767  10.138  11.103 -0.7108  0.4686  0.3675
   96MOL0     H12940   0.743  10.019  11.319 -1.6231  0.6324 -2.2818
   96MOL0     H12941   0.793  10.176  11.374 -0.6874  1.3948 -1.3421
   96MOL0     H12942   1.671  10.274  10.870  1.0038  0.3206 -1.0662
   96MOL0     H12943   1.917  10.253  10.858 -0.4951  4.4759  2.5012
   96MOL0     H12944   2.274  10.055  11.200  0.0896  1.9683  1.9819
   96MOL0     H12945   2.520   9.985  11.221  3.5272 -0.9972 -1.9860
   96MOL0     H12946   4.298  10.199  10.425 -2.1724  0.2299 -0.9230
   96MOL0     H12947   4.509  10.122  10.522 -1.8827 -0.4931  2.2362
   96MOL0     H12948   4.813   9.967  10.587 -0.6058 -0.0397 -0.7915
   96MOL0     H12949   5.053   9.974  10.721 -1.4280  0.6431  0.6841
   96MOL0     H12950   5.277   9.693  10.751  1.3008  0.0482  1.0090
   96MOL0     H12951   5.267   9.865  10.704 -1.1212 -0.6208 -0.7252
   96MOL0     H12952   5.398   9.775  10.961 -2.4098  1.0276  0.7499
   96MOL0     H12953   5.391   9.933  10.908 -0.5982 -1.7662  4.8179
   96MOL0     H12954   5.531   9.839  10.685 -0.1646 -0.6204 -1.0866
   96MOL0     H12955   5.523   9.687  10.773 -0.7702  0.2262  3.3176
   96MOL0     H12956   5.744   9.795  10.796  0.9414  2.5712 -0.2186
   96MOL0     H12957   5.654   9.775  10.955 -1.0490  1.0450  0.5163
   96MOL0     H12958   5.657  10.183  10.956 -1.3237  0.2909 -2.8771
   96MOL0     H12959   5.002   9.597  10.866  3.5063  1.4666  0.1854
   96MOL0     H12960   4.784   9.562  10.732 -2.3910  0.4079  0.1831
   97MOL0     O12961   6.179   3.449   7.305 -0.1318 -0.1719  0.8172
   97MOL0     C12962   6.104   3.399   7.385  0.4435  0.4987 -0.1913
   97MOL0     O12963   6.135   3.355   7.507 -0.8948 -0.2538 -0.1246
   97MOL0     C12964   6.264   3.381   7.553 -0.3379  0.3702  0.1390
   97MOL0     C12965   6.278   3.435   7.683  0.5438  0.7273 -0.4426
   97MOL0     C12966   6.402   3.444   7.742  0.4154 -0.8391  0.2318
   97MOL0     C12967   6.519   3.414   7.669 -0.3602 -0.1341  0.6661
   97MOL0     O12968   6.639   3.433   7.734  0.4330 -0.7485 -0.4628
   97MOL0     C12969   6.761   3.370   7.691 -1.9820  0.9057 -0.2294
   97MOL0     C12970   6.813   3.276   7.803 -0.2055 -0.4455 -0.1629
   97MOL0     C12971   6.964   3.282   7.828 -0.5869 -0.4589 -0.5292
   97MOL0     C12972   7.026   3.141   7.808 -0.1067 -1.2836  0.1551
   97MOL0     C12973   7.026   3.063   7.935 -0.2500  0.0897  0.3373
   97MOL0     C12974   7.165   3.051   7.993  0.6968  0.9096 -0.4160
   97MOL0     C12975   7.165   2.960   8.127  0.1565 -0.5899  0.0639
   97MOL0     C12976   7.136   3.025   8.268  0.2679 -0.3178 -0.1940
   97MOL0     N12977   7.238   3.124   8.304  0.2392  0.1815  0.0623
   97MOL0     C12978   7.371   3.126   8.279 -0.4384  0.1085  0.5707
   97MOL0     C12979   7.417   3.232   8.356  0.2380  0.5356  0.0617
   97MOL0     C12980   7.556   3.271   8.359 -0.1803 -0.2897 -0.2613
   97MOL0     C12981   7.568   3.420   8.407  0.5682 -0.6394  1.0294
   97MOL0     C12982   7.713   3.473   8.401  0.7003  0.2098 -0.4246
   97MOL0     C12983   7.805   3.389   8.500 -0.9928 -0.3893  0.0372
   97MOL0     O12984   7.856   3.488   8.598 -0.2202 -0.0476  1.3865
   97MOL0     C12985   7.980   3.538   8.595 -0.6763  0.4308 -1.3420
   97MOL0     C12986   8.056   3.534   8.718 -0.3062  0.7110 -0.2418
   97MOL0     C12987   8.187   3.577   8.723  0.5982 -0.1944 -0.2703
   97MOL0     C12988   8.254   3.571   8.861 -0.1053  0.0890  0.2894
   97MOL0     C12989   8.238   3.649   8.608  0.7640 -0.4879  0.0184
   97MOL0     C12990   8.369   3.691   8.606 -0.4058  0.0092 -0.2667
   97MOL0     O12991   8.448   3.627   8.522  0.7275 -0.0871  0.0761
   97MOL0     C12992   8.579   3.655   8.532  0.1700 -0.3782 -0.2378
   97MOL0     C12993   8.635   3.746   8.443 -0.2908 -0.3881 -0.3702
   97MOL0     C12994   8.767   3.780   8.457 -0.7341  0.6770  0.0894
   97MOL0     C12995   8.853   3.720   8.553 -0.5500 -0.3098 -0.5187
   97MOL0     O12996   8.990   3.749   8.536  0.4263  0.2701 -0.7603
   97MOL0     C12997   9.076   3.687   8.632 -0.3737 -0.2970  0.6924
   97MOL0     C12998   9.200   3.767   8.617 -0.4038 -0.6474 -0.4928
   97MOL0     C12999   9.323   3.721   8.715  1.2707 -0.3218  0.6482
   97MOL0     C13000   9.298   3.714   8.871  0.1526 -0.0164 -0.4679
   97MOL0     C13001   9.412   3.669   8.962  0.2331 -0.4943  0.5193
   97MOL0     C13002   9.538   3.758   8.962  0.3479  0.3037  1.0568
   97MOL0     C13003   9.640   3.679   9.030 -0.1401 -0.6118 -0.4815
   97MOL0     C13004   9.753   3.775   9.075 -0.2503 -0.0895 -0.2505
   97MOL0    Cl13005   9.800   3.894   8.944 -0.4118 -0.2637  0.2549
   97MOL0     C13006   8.799   3.622   8.636 -1.0884 -0.4110 -0.0768
   97MOL0     C13007   8.666   3.583   8.627  0.7158  0.5508 -0.5550
   97MOL0     O13008   8.391   3.793   8.663 -0.9192 -0.6048 -0.7543
   97MOL0     C13009   8.157   3.665   8.497  0.5513  0.4521 -0.3327
   97MOL0     C13010   8.030   3.610   8.491 -0.1249  0.7048  0.2799
   97MOL0     N13011   7.319   3.278   8.444  0.0989  1.6544 -0.0439
   97MOL0     N13012   7.214   3.213   8.406 -0.4512  0.0425  1.0982
   97MOL0     C13013   6.505   3.372   7.536  0.5224 -0.2613  0.2810
   97MOL0     C13014   6.380   3.353   7.480  1.0649  0.0097  0.3913
   97MOL0     C13015   5.982   3.352   7.325  0.1213 -0.4092  0.0845
   97MOL0     C13016   5.891   3.282   7.412 -0.9608  0.3628  0.6948
   97MOL0     C13017   5.768   3.232   7.362  0.5916 -0.5581  0.0457
   97MOL0     C13018   5.731   3.247   7.226 -1.3153 -0.3363 -0.2679
   97MOL0     O13019   5.606   3.218   7.175  0.5912 -0.2263 -0.6291
   97MOL0     C13020   5.542   3.095   7.223  0.0845 -0.4990  0.2035
   97MOL0     C13021   5.401   3.094   7.154  0.3353 -0.2033 -1.2068
   97MOL0     C13022   5.316   2.967   7.159 -0.8151 -0.1497 -0.4515
   97MOL0     C13023   5.313   2.897   7.292  0.9605  0.4955  0.2103
   97MOL0     C13024   5.212   2.785   7.286  0.2971 -1.2260 -0.4287
   97MOL0     C13025   5.130   2.699   7.292  0.4155  1.1212  0.4913
   97MOL0     C13026   5.820   3.312   7.147 -0.7298  0.1222  0.0927
   97MOL0     C13027   5.951   3.367   7.187  0.1823  0.8610  0.0058
   97MOL0     H13028   6.184   3.438   7.737 -0.9279  1.1658 -2.9145
   97MOL0     H13029   6.417   3.475   7.845  1.2811 -1.9281  0.4561
   97MOL0     H13030   6.763   3.312   7.598  1.6406 -1.6805  1.2150
   97MOL0     H13031   6.833   3.451   7.678 -0.4435 -0.2595  0.7511
   97MOL0     H13032   6.771   3.318   7.895  1.6114  1.3529 -0.0822
   97MOL0     H13033   6.772   3.176   7.783 -0.6942  0.2169 -2.8850
   97MOL0     H13034   7.016   3.348   7.758  1.0833 -1.8928 -0.7282
   97MOL0     H13035   6.993   3.317   7.927  1.5196 -3.1767 -0.0577
   97MOL0     H13036   6.976   3.085   7.729 -1.0220  1.4072 -1.2934
   97MOL0     H13037   7.125   3.158   7.763 -0.9123  1.1248 -0.8749
   97MOL0     H13038   6.967   3.112   8.014 -1.7301  0.1765 -0.7845
   97MOL0     H13039   6.996   2.960   7.913  2.2040 -0.2632 -1.8852
   97MOL0     H13040   7.220   3.002   7.913 -0.2001 -2.2509  0.7185
   97MOL0     H13041   7.212   3.149   8.006  1.7032  0.6418 -1.9168
   97MOL0     H13042   7.078   2.895   8.115 -1.4786  1.0349  2.3086
   97MOL0     H13043   7.262   2.911   8.133  0.8380  0.2363 -2.7471
   97MOL0     H13044   7.135   2.948   8.346  1.4394 -1.7953 -1.5747
   97MOL0     H13045   7.039   3.075   8.257  0.7686  0.7980  0.3710
   97MOL0     H13046   7.429   3.076   8.203 -1.0714 -0.4786  0.4633
   97MOL0     H13047   7.608   3.208   8.432 -2.6225  0.2215  2.0830
   97MOL0     H13048   7.604   3.271   8.261  0.3328 -0.4221 -0.0159
   97MOL0     H13049   7.520   3.446   8.502 -0.5432  0.1156  0.2784
   97MOL0     H13050   7.514   3.477   8.331 -1.5885  0.3543  3.1769
   97MOL0     H13051   7.720   3.579   8.424 -2.2094  1.0673 -2.8202
   97MOL0     H13052   7.739   3.482   8.295  2.0143  0.3022 -0.1116
   97MOL0     H13053   7.889   3.341   8.450 -0.2930 -0.1277  0.9311
   97MOL0     H13054   7.747   3.319   8.561 -1.4690  0.0579  0.1127
   97MOL0     H13055   8.016   3.492   8.810 -0.2653  0.5030 -0.3183
   97MOL0     H13056   8.226   3.478   8.912 -0.8638  0.5779  0.7760
   97MOL0     H13057   8.363   3.575   8.863 -0.1510  1.4522  1.9086
   97MOL0     H13058   8.212   3.642   8.933 -2.6478 -3.4566  2.6275
   97MOL0     H13059   8.567   3.803   8.380  0.5064  1.4567  0.3734
   97MOL0     H13060   8.798   3.861   8.392  3.7377 -2.6944 -2.6200
   97MOL0     H13061   9.036   3.695   8.734 -0.1165 -3.9624  1.2214
   97MOL0     H13062   9.095   3.580   8.617 -3.4357 -0.6427 -1.6989
   97MOL0     H13063   9.231   3.750   8.514  0.1480 -1.3005 -0.2269
   97MOL0     H13064   9.177   3.871   8.640 -0.3688 -0.0282 -3.0299
   97MOL0     H13065   9.403   3.794   8.706  1.8721 -1.0755 -0.3638
   97MOL0     H13066   9.353   3.620   8.685 -0.0244 -0.3495 -0.6982
   97MOL0     H13067   9.285   3.820   8.893 -2.1132 -0.3374 -0.0360
   97MOL0     H13068   9.206   3.656   8.885 -0.5043  1.0766 -0.1393
   97MOL0     H13069   9.432   3.571   8.918 -1.0879 -0.4384 -0.2553
   97MOL0     H13070   9.376   3.642   9.062  0.0100  1.6853  1.0787
   97MOL0     H13071   9.583   3.793   8.869 -1.3598  2.3786  0.9075
   97MOL0     H13072   9.502   3.846   9.017 -1.4281  0.0513  0.3698
   97MOL0     H13073   9.686   3.607   8.961  1.7930  3.7488 -4.3045
   97MOL0     H13074   9.598   3.609   9.102  1.1315 -0.6113  0.2992
   97MOL0     H13075   9.848   3.739   9.115 -0.4569  0.4894  0.7864
   97MOL0     H13076   9.715   3.841   9.153 -0.0106 -1.8136  1.4067
   97MOL0     H13077   8.860   3.568   8.709  1.6241  1.7874 -0.5703
   97MOL0     H13078   8.612   3.526   8.701 -1.6521  1.9571 -1.0704
   97MOL0     H13079   8.196   3.722   8.413  0.9387  1.6810  0.6521
   97MOL0     H13080   7.974   3.620   8.398 -0.0479 -0.8412  0.0476
   97MOL0     H13081   6.587   3.327   7.479  0.9035 -3.2804  2.9582
   97MOL0     H13082   6.371   3.316   7.379 -0.7994 -4.2959  1.8837
   97MOL0     H13083   5.916   3.279   7.518  0.2394 -0.2579  0.4144
   97MOL0     H13084   5.711   3.180   7.438 -0.0128  0.4912  0.3248
   97MOL0     H13085   5.598   3.010   7.182  2.2346  0.3697  1.1342
   97MOL0     H13086   5.529   3.096   7.332 -1.1413 -0.0028  0.0611
   97MOL0     H13087   5.414   3.130   7.051  0.5912  0.9015 -0.8024
   97MOL0     H13088   5.336   3.168   7.201  1.0749 -1.0706  1.3688
   97MOL0     H13089   5.353   2.900   7.081 -0.6917  1.0616 -1.4586
   97MOL0     H13090   5.212   2.987   7.133 -0.8084 -0.1453 -0.4740
   97MOL0     H13091   5.280   2.958   7.377 -1.8271 -1.4280  0.6521
   97MOL0     H13092   5.416   2.871   7.318  1.0195  1.7559  1.3606
   97MOL0     H13093   5.064   2.616   7.301 -1.2698  2.3166 -0.1759
   97MOL0     H13094   5.794   3.329   7.043  0.7521  4.5563  0.2329
   97MOL0     H13095   6.018   3.403   7.110  1.8817 -1.0972  0.4668
   98MOL0     O13096   6.478   1.558   6.448 -0.1982 -0.2381  0.3302
   98MOL0     C13097   6.497   1.681   6.437 -0.6527  0.2476  0.0573
   98MOL0     O13098   6.398   1.769   6.406  0.1104 -0.4241  0.1740
   98MOL0     C13099   6.264   1.734   6.430 -0.5478  0.0596 -0.4863
   98MOL0     C13100   6.166   1.786   6.345  0.5073  0.2879  0.3328
   98MOL0     C13101   6.034   1.745   6.358  0.4084 -0.7060 -0.0828
   98MOL0     C13102   5.997   1.660   6.464 -0.4200 -0.4544 -0.8627
   98MOL0     O13103   5.868   1.616   6.482 -0.1822  0.1586  0.2859
   98MOL0     C13104   5.755   1.682   6.437 -0.4936  0.1477  0.0315
   98MOL0     C13105   5.625   1.606   6.490  0.3523 -0.8803 -0.1560
   98MOL0     C13106   5.601   1.647   6.636  0.0862 -0.2379  0.0222
   98MOL0     C13107   5.528   1.782   6.631 -0.3148  0.5107  0.4005
   98MOL0     C13108   5.509   1.859   6.758 -0.6070 -0.5801  0.9913
   98MOL0     C13109   5.634   1.883   6.847 -0.6909 -0.3704  0.0370
   98MOL0     C13110   5.753   1.951   6.775  0.1923 -0.3419 -0.4230
   98MOL0     C13111   5.890   1.881   6.789 -0.1395 -1.3591 -0.2834
   98MOL0     N13112   6.015   1.969   6.773  0.1791  0.0711 -0.1551
   98MOL0     C13113   6.048   2.054   6.669  0.0749  0.1836  0.3507
   98MOL0     C13114   6.178   2.075   6.688  0.5415  0.1350 -0.5161
   98MOL0     C13115   6.254   2.176   6.601  1.2484 -0.1518 -0.2426
   98MOL0     C13116   6.409   2.154   6.595  0.5443  0.1446 -0.3483
   98MOL0     C13117   6.471   2.242   6.488 -0.5231 -0.5162 -0.7927
   98MOL0     C13118   6.622   2.250   6.506 -0.0853  0.2647 -0.1144
   98MOL0     O13119   6.668   2.297   6.634  0.0934 -0.1729  0.4565
   98MOL0     C13120   6.799   2.277   6.662 -0.2118  0.5265  0.6321
   98MOL0     C13121   6.910   2.252   6.564  0.0089 -0.0343 -0.7804
   98MOL0     C13122   7.039   2.227   6.617  0.1661  0.6299  1.4407
   98MOL0     C13123   7.149   2.182   6.516 -0.7183  0.3143  0.0156
   98MOL0     C13124   7.075   2.237   6.752  0.0710  0.5013  0.0838
   98MOL0     C13125   7.208   2.227   6.809 -0.5473  1.1196 -0.6635
   98MOL0     O13126   7.207   2.176   6.940  0.2803 -0.0593 -0.0639
   98MOL0     C13127   7.322   2.177   7.012  1.2417  0.4800  0.3061
   98MOL0     C13128   7.346   2.069   7.091  0.2493  0.8063 -0.1224
   98MOL0     C13129   7.455   2.057   7.172 -0.9795 -0.5528 -0.3797
   98MOL0     C13130   7.554   2.158   7.178  0.5949  0.2453  0.6125
   98MOL0     O13131   7.663   2.140   7.261 -0.1769  0.4132  0.2212
   98MOL0     C13132   7.700   2.259   7.333 -0.8694  0.4488  0.1955
   98MOL0     C13133   7.844   2.234   7.369  1.0076 -1.2422 -0.1141
   98MOL0     C13134   7.859   2.149   7.492  0.2698 -0.4142  0.9513
   98MOL0     C13135   7.819   2.218   7.628 -0.1750  0.0823 -0.0687
   98MOL0     C13136   7.831   2.114   7.739 -0.2331  0.4147  1.1388
   98MOL0     C13137   7.980   2.076   7.776 -0.4993  0.1195 -0.5831
   98MOL0     C13138   7.969   1.972   7.900 -0.2499 -0.9209  0.1612
   98MOL0     C13139   8.096   1.900   7.926 -0.0740  0.5725  0.2519
   98MOL0    Cl13140   8.233   2.023   7.944 -0.0609  0.1951  0.1237
   98MOL0     C13141   7.531   2.277   7.100  0.0044 -0.3199  0.5624
   98MOL0     C13142   7.414   2.285   7.024  0.3371  0.5317 -0.2289
   98MOL0     O13143   7.310   2.242   6.749 -0.6108 -0.5250 -0.0367
   98MOL0     C13144   6.970   2.280   6.843 -0.2028  0.1790  1.7345
   98MOL0     C13145   6.840   2.293   6.795  0.9602  0.5931  1.0717
   98MOL0     N13146   6.226   2.025   6.810  0.0605  0.3809  0.3094
   98MOL0     N13147   6.132   1.954   6.853  0.7785  0.3096 -0.2535
   98MOL0     C13148   6.096   1.625   6.559  0.2469  0.9394 -0.6028
   98MOL0     C13149   6.226   1.666   6.544  0.1705  0.3690  0.2352
   98MOL0     C13150   6.638   1.734   6.456 -0.0611 -0.4532 -0.8729
   98MOL0     C13151   6.736   1.656   6.519  0.0200 -0.6081  0.9064
   98MOL0     C13152   6.863   1.705   6.542  0.1246  0.0693  0.1319
   98MOL0     C13153   6.898   1.826   6.496 -0.1580  0.5945  0.6723
   98MOL0     O13154   7.027   1.875   6.497 -0.6957 -0.9459 -0.9501
   98MOL0     C13155   7.139   1.787   6.485  0.8339 -0.0747 -0.0956
   98MOL0     C13156   7.154   1.706   6.350 -0.2014  0.0829  0.4481
   98MOL0     C13157   7.174   1.797   6.229  0.1032 -0.1692 -1.2285
   98MOL0     C13158   7.238   1.745   6.098 -0.4544 -0.1861 -0.0890
   98MOL0     C13159   7.173   1.616   6.060 -0.6071  0.2699 -0.0833
   98MOL0     C13160   7.125   1.511   6.020  0.0508  0.7162  0.1751
   98MOL0     C13161   6.807   1.904   6.438  0.6356 -0.3459  0.5359
   98MOL0     C13162   6.677   1.862   6.412  0.2422  0.4255  0.1415
   98MOL0     H13163   6.201   1.853   6.266  2.0177 -0.9937 -0.1322
   98MOL0     H13164   5.953   1.782   6.295 -0.8634 -0.4100  1.6628
   98MOL0     H13165   5.757   1.788   6.464 -1.8221  0.0631  0.5592
   98MOL0     H13166   5.775   1.659   6.332  1.5488 -2.1033  0.8063
   98MOL0     H13167   5.541   1.633   6.426  0.0384  0.2790  0.7053
   98MOL0     H13168   5.644   1.499   6.492 -2.4318 -1.4660 -1.3727
   98MOL0     H13169   5.538   1.571   6.683 -0.6702  0.1700 -0.3174
   98MOL0     H13170   5.697   1.641   6.688 -0.1806 -0.2935  0.5089
   98MOL0     H13171   5.583   1.851   6.567 -0.3990  0.1904 -0.0215
   98MOL0     H13172   5.435   1.757   6.578 -0.4410  0.1613  0.7747
   98MOL0     H13173   5.465   1.956   6.732  2.7375  1.0484  0.9477
   98MOL0     H13174   5.433   1.810   6.820 -1.3976 -0.1605  0.3791
   98MOL0     H13175   5.605   1.928   6.942 -2.2371  0.2749 -0.7007
   98MOL0     H13176   5.671   1.784   6.876 -2.3729 -0.7324  1.1168
   98MOL0     H13177   5.745   1.956   6.666  0.3975  0.2582 -0.4146
   98MOL0     H13178   5.765   2.051   6.819 -0.6046  0.7659 -2.5813
   98MOL0     H13179   5.911   1.800   6.719  1.5201 -1.3744  0.1948
   98MOL0     H13180   5.903   1.836   6.888  0.5554 -2.6890 -0.9509
   98MOL0     H13181   5.976   2.093   6.598  0.7091  0.6108 -0.0662
   98MOL0     H13182   6.213   2.170   6.500  0.3869 -0.3782  0.1050
   98MOL0     H13183   6.229   2.272   6.647  0.7002 -0.2100 -0.4110
   98MOL0     H13184   6.432   2.049   6.577  0.3045 -0.5815  2.9584
   98MOL0     H13185   6.454   2.173   6.693  1.4430 -0.4599 -0.6397
   98MOL0     H13186   6.430   2.343   6.498  2.2393  1.1018 -3.8140
   98MOL0     H13187   6.446   2.210   6.386  1.8890 -1.0310 -1.2763
   98MOL0     H13188   6.673   2.324   6.444 -1.4201 -1.6036 -3.6737
   98MOL0     H13189   6.671   2.157   6.477  0.5719  0.5815 -0.0596
   98MOL0     H13190   6.891   2.245   6.458 -0.2947 -1.3671 -0.6543
   98MOL0     H13191   7.216   2.105   6.555 -0.4149 -0.4840 -1.9317
   98MOL0     H13192   7.116   2.138   6.421 -1.4566 -0.7933  0.7613
   98MOL0     H13193   7.205   2.270   6.482  3.0098 -1.0732  2.0036
   98MOL0     H13194   7.279   1.983   7.096  1.3400 -0.1429 -1.2403
   98MOL0     H13195   7.478   1.964   7.224  1.4565  0.3967  0.4204
   98MOL0     H13196   7.697   2.340   7.260 -2.8744  0.8095  0.6243
   98MOL0     H13197   7.644   2.286   7.423  1.4878  3.1820  0.9776
   98MOL0     H13198   7.896   2.178   7.292  1.1090 -0.5801 -0.5404
   98MOL0     H13199   7.898   2.330   7.374  0.5091 -0.9840  0.4793
   98MOL0     H13200   7.966   2.129   7.506  1.4845  2.6985 -2.2358
   98MOL0     H13201   7.798   2.061   7.472  1.5338 -0.8303 -1.5990
   98MOL0     H13202   7.872   2.312   7.646 -0.5440 -0.0801  2.1863
   98MOL0     H13203   7.715   2.252   7.623 -1.0205 -1.9665  2.0189
   98MOL0     H13204   7.793   2.021   7.696  1.2638 -0.9783  2.6771
   98MOL0     H13205   7.767   2.143   7.822  0.0031 -1.5131  2.0627
   98MOL0     H13206   8.046   2.027   7.705 -1.7068  1.2920 -2.6117
   98MOL0     H13207   8.031   2.163   7.818  1.7663 -2.3988  2.3159
   98MOL0     H13208   7.890   1.900   7.878 -1.0387 -0.3553  1.0309
   98MOL0     H13209   7.946   2.029   7.991 -1.0595  1.4477 -1.4101
   98MOL0     H13210   8.110   1.825   7.848  0.4416 -1.7856  2.4654
   98MOL0     H13211   8.084   1.843   8.019 -2.6427 -1.1850 -1.0356
   98MOL0     H13212   7.597   2.364   7.096  0.2821 -0.5718 -1.8054
   98MOL0     H13213   7.391   2.376   6.968 -3.7971 -1.2226 -1.7603
   98MOL0     H13214   6.985   2.307   6.947 -1.5455 -1.5114  2.3974
   98MOL0     H13215   6.766   2.333   6.865  0.5085  0.1343  0.8662
   98MOL0     H13216   6.078   1.569   6.651  3.9181 -0.3089 -0.4679
   98MOL0     H13217   6.301   1.645   6.619  2.6942  1.3563 -1.8555
   98MOL0     H13218   6.707   1.553   6.541  1.0294 -0.7655  1.5533
   98MOL0     H13219   6.943   1.655   6.595 -0.1934 -0.8490 -0.2221
   98MOL0     H13220   7.229   1.848   6.495 -0.4577  2.4566 -2.5318
   98MOL0     H13221   7.146   1.714   6.566 -0.0620  3.1958  3.1527
   98MOL0     H13222   7.072   1.637   6.327 -0.8074  0.8715  0.2074
   98MOL0     H13223   7.245   1.646   6.360 -0.7326 -0.8116  0.0581
   98MOL0     H13224   7.242   1.870   6.273  0.2173 -2.3540  2.6162
   98MOL0     H13225   7.076   1.844   6.215  0.0725 -0.2272 -1.2074
   98MOL0     H13226   7.346   1.729   6.111 -0.9262 -3.0967  0.8168
   98MOL0     H13227   7.223   1.818   6.017 -0.4779  0.2848  0.3341
   98MOL0     H13228   7.080   1.424   5.976  0.9703 -0.8876  2.2619
   98MOL0     H13229   6.849   1.999   6.407 -1.5826  0.2125 -0.9971
   98MOL0     H13230   6.606   1.932   6.369 -1.0994 -1.8482 -1.5383
   99MOL0     O13231  11.262   9.145  10.588 -0.2690 -0.0749  0.0493
   99MOL0     C13232  11.333   9.093  10.676 -0.1434  0.0226  0.3620
   99MOL0     O13233  11.294   9.062  10.807 -0.4484 -0.3504  0.7912
   99MOL0     C13234  11.162   9.085  10.830  0.4540  0.8028  0.1482
   99MOL0     C13235  11.115   9.213  10.865  0.1218  0.6349 -0.4924
   99MOL0     C13236  10.985   9.233  10.894 -0.5725 -0.0279 -0.5789
   99MOL0     C13237  10.886   9.124  10.888 -0.2301 -0.2886 -0.2934
   99MOL0     O13238  10.753   9.150  10.897  0.4793 -0.5557 -0.4383
   99MOL0     C13239  10.697   9.099  11.017 -0.0487 -0.4803 -1.0074
   99MOL0     C13240  10.563   9.155  11.053 -0.6189 -0.0148  0.0968
   99MOL0     C13241  10.464   9.130  10.941  0.4091 -0.0526 -0.5445
   99MOL0     C13242  10.331   9.213  10.961  0.7642 -0.4765  0.6737
   99MOL0     C13243  10.327   9.345  10.884  0.1483  1.0216  0.1346
   99MOL0     C13244  10.224   9.455  10.928 -1.0033  0.4488  0.9285
   99MOL0     C13245  10.080   9.407  10.905  0.5935  0.7386 -0.3316
   99MOL0     C13246  10.002   9.519  10.996 -0.0670 -0.2294  0.6986
   99MOL0     N13247   9.863   9.512  10.958  0.0218 -0.0120  0.1862
   99MOL0     C13248   9.786   9.401  10.944  0.5998  1.2480  0.3468
   99MOL0     C13249   9.660   9.444  10.916  0.4856  0.2073 -0.1828
   99MOL0     C13250   9.541   9.360  10.868  0.2598 -0.3070 -0.7883
   99MOL0     C13251   9.504   9.248  10.966 -0.0505  0.1246  0.3401
   99MOL0     C13252   9.403   9.152  10.903  0.2642 -0.0222 -0.0255
   99MOL0     C13253   9.259   9.203  10.905 -0.6192 -0.6244 -0.0170
   99MOL0     O13254   9.167   9.093  10.879 -0.0858 -0.2622 -0.3683
   99MOL0     C13255   9.141   8.995  10.966 -1.1282  0.3657  0.0505
   99MOL0     C13256   9.096   8.879  10.916 -0.0504 -0.0601  0.0879
   99MOL0     C13257   9.060   8.765  10.990  0.0816 -0.4218 -0.0657
   99MOL0     C13258   9.024   8.638  10.906  0.4073 -0.7486 -0.4178
   99MOL0     C13259   9.077   8.765  11.127  0.0493 -0.1357  0.8522
   99MOL0     C13260   9.035   8.651  11.218  0.3334  0.8481 -0.4839
   99MOL0     O13261   8.956   8.551  11.160 -0.5906  0.4155  0.5531
   99MOL0     C13262   8.897   8.451  11.238  0.3517  0.4887  0.0081
   99MOL0     C13263   8.878   8.459  11.376 -0.6336 -0.7269 -0.0763
   99MOL0     C13264   8.816   8.351  11.443  0.0211  0.7929  0.5633
   99MOL0     C13265   8.757   8.241  11.377 -0.4222  0.7528  0.8567
   99MOL0     O13266   8.693   8.142  11.449  0.3540 -0.3520 -0.6250
   99MOL0     C13267   8.563   8.120  11.397 -0.3480  0.4568  0.1374
   99MOL0     C13268   8.463   8.111  11.505  0.4676  0.0413  1.0657
   99MOL0     C13269   8.457   7.979  11.588  0.2552  0.1982 -0.1085
   99MOL0     C13270   8.332   7.976  11.668 -0.1758  0.4471 -0.2570
   99MOL0     C13271   8.300   7.831  11.730  0.7013 -0.7327 -0.8329
   99MOL0     C13272   8.405   7.772  11.820 -0.0907 -0.5074  0.1474
   99MOL0     C13273   8.422   7.856  11.953 -0.2435  0.2787  0.4175
   99MOL0     C13274   8.535   7.817  12.049  0.3033  0.3320 -0.7304
   99MOL0    Cl13275   8.693   7.833  11.953 -0.0118  0.3469 -0.6871
   99MOL0     C13276   8.771   8.238  11.244 -0.1459 -0.2734  0.2386
   99MOL0     C13277   8.838   8.339  11.176  0.3228 -0.2900  0.2553
   99MOL0     O13278   9.080   8.657  11.332  0.2775  0.1562 -0.0952
   99MOL0     C13279   9.147   8.879  11.180  0.9022  0.1837 -0.0633
   99MOL0     C13280   9.170   8.984  11.101  0.0284 -1.4057 -0.8024
   99MOL0     N13281   9.670   9.581  10.897  0.2272 -0.3086  0.7021
   99MOL0     N13282   9.790   9.620  10.929  0.1882 -0.8204  0.3557
   99MOL0     C13283  10.936   9.010  10.835 -0.6562  0.8702 -0.4946
   99MOL0     C13284  11.074   8.980  10.817  0.4309  0.1391 -0.6133
   99MOL0     C13285  11.481   9.062  10.658 -0.2083  0.4132 -0.7034
   99MOL0     C13286  11.556   8.980  10.742  0.1444  0.2334  0.2288
   99MOL0     C13287  11.692   8.962  10.730 -0.0508 -0.6448 -1.0593
   99MOL0     C13288  11.754   9.011  10.618 -0.6274 -0.1560 -0.1774
   99MOL0     O13289  11.887   8.983  10.609 -0.3823  0.6563  0.0789
   99MOL0     C13290  11.960   9.024  10.493 -1.2374  0.2560  0.4466
   99MOL0     C13291  12.109   9.024  10.540  0.1722 -0.0073  0.1167
   99MOL0     C13292  12.147   9.152  10.607  0.0206 -0.1678  0.8539
   99MOL0     C13293  12.284   9.152  10.664 -0.1014 -0.3589 -0.2879
   99MOL0     C13294  12.281   9.094  10.796  0.4257 -0.3584 -0.4140
   99MOL0     C13295  12.274   9.064  10.912  0.7770 -1.0083 -0.0580
   99MOL0     C13296  11.684   9.084  10.523  0.9117 -0.7964  0.3879
   99MOL0     C13297  11.545   9.113  10.543 -0.8928 -0.8453  0.9143
   99MOL0     H13298  11.187   9.293  10.871  0.7639 -0.0048  3.1934
   99MOL0     H13299  10.943   9.329  10.922 -1.0754 -0.0451 -1.2568
   99MOL0     H13300  10.690   8.990  11.009  1.2018 -0.5568 -1.3776
   99MOL0     H13301  10.759   9.127  11.102 -2.3190  1.0084  0.2506
   99MOL0     H13302  10.529   9.103  11.144  1.3391  1.1004  1.5283
   99MOL0     H13303  10.589   9.258  11.078 -1.1646  0.1184  0.1346
   99MOL0     H13304  10.509   9.129  10.842  0.2262 -0.8173 -0.6272
   99MOL0     H13305  10.434   9.026  10.960 -0.8368  0.6743  1.9606
   99MOL0     H13306  10.249   9.156  10.917  1.1032  0.1643 -0.8167
   99MOL0     H13307  10.310   9.225  11.068 -0.7197 -0.0217  0.3524
   99MOL0     H13308  10.420   9.402  10.895 -0.0193  0.8045  4.9620
   99MOL0     H13309  10.317   9.321  10.778 -0.0039 -3.4757  0.9711
   99MOL0     H13310  10.237   9.484  11.033 -0.3532  1.7745  0.5030
   99MOL0     H13311  10.243   9.542  10.865 -3.3721  1.6179  1.7367
   99MOL0     H13312  10.042   9.410  10.803 -2.4181 -0.2203  0.6662
   99MOL0     H13313  10.062   9.314  10.959 -1.0040  2.8319  3.1511
   99MOL0     H13314  10.039   9.619  10.973 -1.1117 -0.1806 -0.9747
   99MOL0     H13315  10.013   9.517  11.105  1.7975  0.1808  0.5445
   99MOL0     H13316   9.816   9.298  10.959  2.3345  1.5285 -0.8209
   99MOL0     H13317   9.448   9.417  10.859  0.3065 -0.2268 -0.7786
   99MOL0     H13318   9.568   9.318  10.771 -1.1137  0.3109 -1.4551
   99MOL0     H13319   9.482   9.293  11.064 -0.3159  0.1274  0.2811
   99MOL0     H13320   9.594   9.187  10.971 -0.5963 -0.8191 -0.8895
   99MOL0     H13321   9.402   9.055  10.953 -0.4760  0.8927  1.8342
   99MOL0     H13322   9.434   9.117  10.804  1.7931  0.4343  0.2747
   99MOL0     H13323   9.253   9.286  10.833  3.0110  0.8233  1.1546
   99MOL0     H13324   9.236   9.261  10.995 -1.0350  2.3705 -1.9060
   99MOL0     H13325   9.084   8.875  10.808 -1.1085 -1.9457  0.2276
   99MOL0     H13326   9.050   8.541  10.948  0.1669 -0.2703  0.8636
   99MOL0     H13327   8.915   8.639  10.893  0.6327 -0.3666 -2.8227
   99MOL0     H13328   9.075   8.649  10.810 -0.4307  0.1624 -0.7825
   99MOL0     H13329   8.907   8.534  11.449 -1.8227 -0.8904  0.5955
   99MOL0     H13330   8.804   8.353  11.551 -2.8316 -1.0022  0.3891
   99MOL0     H13331   8.530   8.198  11.329  4.0448  1.7999 -0.7793
   99MOL0     H13332   8.575   8.029  11.338  3.9615 -0.2836  1.7850
   99MOL0     H13333   8.471   8.203  11.564 -0.6063  1.2230 -0.5326
   99MOL0     H13334   8.369   8.109  11.449 -0.2282  0.7251  2.1767
   99MOL0     H13335   8.537   7.959  11.659 -2.5905 -0.2754  3.2433
   99MOL0     H13336   8.439   7.888  11.529 -1.1538 -2.4751  4.0024
   99MOL0     H13337   8.339   8.050  11.749  1.1033 -2.3464  2.3542
   99MOL0     H13338   8.248   8.013  11.608 -0.6714 -1.1781 -0.6116
   99MOL0     H13339   8.289   7.765  11.643  1.9499  1.3418 -2.6754
   99MOL0     H13340   8.205   7.837  11.782  0.5169 -0.2005 -1.2203
   99MOL0     H13341   8.377   7.669  11.845  1.0925 -0.5455  1.4681
   99MOL0     H13342   8.503   7.759  11.773 -0.8038 -0.9897 -1.2585
   99MOL0     H13343   8.327   7.843  12.005  0.0073  1.8145  1.3482
   99MOL0     H13344   8.444   7.962  11.934 -1.6248  1.0418  2.6455
   99MOL0     H13345   8.530   7.712  12.078 -2.0515 -0.1558 -2.6291
   99MOL0     H13346   8.542   7.888  12.132  0.9351  0.8727 -1.2246
   99MOL0     H13347   8.723   8.165  11.179 -0.4495  0.6389 -0.5787
   99MOL0     H13348   8.837   8.346  11.068 -1.4834  1.5356  0.3417
   99MOL0     H13349   9.175   8.890  11.285 -0.6423  2.4844  0.1964
   99MOL0     H13350   9.211   9.069  11.154 -4.0875 -0.1885  0.8555
   99MOL0     H13351  10.869   8.927  10.815 -1.0232  1.6312 -2.7251
   99MOL0     H13352  11.114   8.884  10.786  3.0268  1.6344 -2.3347
   99MOL0     H13353  11.494   8.949  10.825  0.0217  0.9314  0.4013
   99MOL0     H13354  11.735   8.900  10.808 -1.8979 -1.4767 -0.6401
   99MOL0     H13355  11.955   8.941  10.422  1.2456  0.0502  0.4042
   99MOL0     H13356  11.935   9.116  10.440  0.2189  0.2076 -0.3829
   99MOL0     H13357  12.169   9.014  10.449  0.6024  2.6393  0.0535
   99MOL0     H13358  12.125   8.938  10.606  0.2288  1.2588  1.8184
   99MOL0     H13359  12.064   9.179  10.673 -0.9039  0.2143 -0.4325
   99MOL0     H13360  12.157   9.230  10.532 -0.1621 -2.3329 -1.5566
   99MOL0     H13361  12.323   9.253  10.676  1.7385 -1.1988  1.3988
   99MOL0     H13362  12.355   9.096  10.604  0.3925  2.2062 -2.2512
   99MOL0     H13363  12.250   9.044  11.014  3.3207  1.3676  1.1394
   99MOL0     H13364  11.724   9.140  10.439 -2.9777  2.3853  0.3733
   99MOL0     H13365  11.498   9.184  10.476 -0.5945 -1.2634  0.2496
  100MOL0     O13366   3.485   4.940   8.413 -0.2709 -0.9007  0.3206
  100MOL0     C13367   3.547   4.851   8.361 -0.6384 -0.0848  0.3353
  100MOL0     O13368   3.539   4.714   8.391  0.2458  0.6151 -0.2234
  100MOL0     C13369   3.432   4.668   8.461  0.4864  1.0300 -0.5211
  100MOL0     C13370   3.308   4.728   8.456  0.4470  0.3455  0.7489
  100MOL0     C13371   3.208   4.698   8.549 -0.4069  0.3055  1.8324
  100MOL0     C13372   3.244   4.620   8.662 -0.8479  0.2846 -0.5983
  100MOL0     O13373   3.148   4.608   8.756 -0.4185  0.3017  0.1711
  100MOL0     C13374   3.165   4.523   8.873  0.6141 -0.0813  0.4754
  100MOL0     C13375   3.022   4.499   8.939  0.7782  0.2828 -0.8943
  100MOL0     C13376   3.021   4.474   9.087  0.2599  0.0078 -0.3525
  100MOL0     C13377   3.098   4.348   9.128 -0.4167  0.2201  0.2284
  100MOL0     C13378   3.082   4.318   9.277 -0.5241 -0.2258 -0.3629
  100MOL0     C13379   2.932   4.259   9.304 -1.1507 -0.7332  0.0075
  100MOL0     C13380   2.899   4.281   9.455  0.4694  1.1497 -0.6845
  100MOL0     C13381   2.757   4.219   9.481 -0.4310  0.9469 -0.6294
  100MOL0     N13382   2.687   4.251   9.608  0.7186  0.2761  0.3425
  100MOL0     C13383   2.658   4.369   9.659  0.4099  0.5923  0.3778
  100MOL0     C13384   2.580   4.349   9.769 -1.4153  0.0996 -0.3792
  100MOL0     C13385   2.512   4.451   9.857 -0.8794 -0.1311  0.1819
  100MOL0     C13386   2.366   4.423   9.849  0.4422  0.1010  0.5151
  100MOL0     C13387   2.302   4.415   9.715  0.4741  0.8809  0.4693
  100MOL0     C13388   2.146   4.407   9.735 -0.3456 -0.1890  0.5418
  100MOL0     O13389   2.078   4.537   9.751 -0.0783  0.0070  0.4655
  100MOL0     C13390   1.941   4.537   9.722 -0.4813  0.6668  0.0783
  100MOL0     C13391   1.858   4.429   9.690  0.3135  0.1139  0.1183
  100MOL0     C13392   1.717   4.444   9.675  0.6417  1.1155 -0.0948
  100MOL0     C13393   1.640   4.311   9.665  0.1286 -0.3125 -0.2685
  100MOL0     C13394   1.651   4.571   9.687  0.4094  0.2717 -0.8562
  100MOL0     C13395   1.502   4.594   9.698  1.0563  0.7114  0.5717
  100MOL0     O13396   1.458   4.724   9.689  0.5297  0.9375 -0.4264
  100MOL0     C13397   1.322   4.746   9.689  0.4384 -0.7917  0.6242
  100MOL0     C13398   1.243   4.756   9.577 -0.0311  0.1853  0.1427
  100MOL0     C13399   1.119   4.810   9.588  0.0139  0.3550 -0.2977
  100MOL0     C13400   1.072   4.855   9.710  0.0969  0.3184  0.4166
  100MOL0     O13401   0.942   4.906   9.707  0.1282 -0.9272 -0.2849
  100MOL0     C13402   0.864   4.896   9.825 -0.2788 -0.6869  0.0026
  100MOL0     C13403   0.819   4.752   9.845  0.7372  0.2688  0.8307
  100MOL0     C13404   0.692   4.722   9.762  0.2683 -0.2221 -0.1063
  100MOL0     C13405   0.644   4.569   9.745 -0.7364 -0.1672 -0.2723
  100MOL0     C13406   0.670   4.504   9.615 -0.7412 -0.3263 -0.5342
  100MOL0     C13407   0.821   4.482   9.596 -1.2134  0.2365  0.4414
  100MOL0     C13408   0.902   4.400   9.701 -0.9348 -0.7916  0.5116
  100MOL0     C13409   0.834   4.263   9.735 -0.1240  0.5471 -0.3087
  100MOL0    Cl13410   0.896   4.180   9.878 -0.4392  0.0375 -0.0838
  100MOL0     C13411   1.147   4.838   9.819  0.6483  0.1073 -0.7757
  100MOL0     C13412   1.276   4.787   9.811 -0.1324  0.4053  0.8533
  100MOL0     O13413   1.432   4.501   9.724  0.0695  0.5099 -0.4443
  100MOL0     C13414   1.738   4.674   9.720 -0.0257 -0.5397  0.2361
  100MOL0     C13415   1.873   4.655   9.738 -0.3444 -0.3231  1.2237
  100MOL0     N13416   2.589   4.213   9.801 -0.0115 -0.6686  0.3162
  100MOL0     N13417   2.642   4.153   9.703 -0.7238 -0.4368  0.9261
  100MOL0     C13418   3.368   4.549   8.664  0.1160 -0.1950 -0.5699
  100MOL0     C13419   3.462   4.577   8.565  0.4526 -0.5567  0.1080
  100MOL0     C13420   3.664   4.885   8.285  0.2836  1.0672 -0.8537
  100MOL0     C13421   3.746   4.791   8.218  0.5688 -0.2414 -0.7699
  100MOL0     C13422   3.863   4.823   8.153 -0.3218  0.3176 -0.8274
  100MOL0     C13423   3.892   4.957   8.128  0.0290 -1.0368  0.3263
  100MOL0     O13424   4.003   5.011   8.060 -0.1057 -0.2658 -0.1216
  100MOL0     C13425   4.115   4.937   8.010  0.0175 -0.4200 -0.0745
  100MOL0     C13426   4.093   4.866   7.874  0.1578  0.0729  1.3262
  100MOL0     C13427   4.115   4.956   7.750  0.1246 -0.5760 -0.3096
  100MOL0     C13428   4.063   4.909   7.616 -0.9196 -0.9406  1.5563
  100MOL0     C13429   4.086   4.767   7.593  0.4464 -0.5266  1.0171
  100MOL0     C13430   4.116   4.653   7.586 -0.6342  0.1595 -0.6402
  100MOL0     C13431   3.804   5.055   8.185  0.4282 -0.5987  0.5414
  100MOL0     C13432   3.693   5.017   8.257  0.8853 -0.3963 -0.4888
  100MOL0     H13433   3.299   4.808   8.384 -1.1539  0.0234  0.5588
  100MOL0     H13434   3.111   4.746   8.558  0.8530  3.1197  1.3109
  100MOL0     H13435   3.203   4.428   8.833  0.8834 -0.1299  0.8420
  100MOL0     H13436   3.240   4.557   8.946  2.5337 -1.3422 -0.8073
  100MOL0     H13437   2.960   4.589   8.936  0.6190  0.1999 -0.0997
  100MOL0     H13438   2.951   4.430   8.893 -1.6707  2.0259  0.0379
  100MOL0     H13439   3.072   4.560   9.131  2.4967 -1.4840  0.1374
  100MOL0     H13440   2.916   4.492   9.114 -0.1019 -1.3186 -0.7860
  100MOL0     H13441   3.067   4.267   9.062 -0.3356 -0.4131  0.9476
  100MOL0     H13442   3.205   4.367   9.109 -0.3601  1.0885  1.3013
  100MOL0     H13443   3.161   4.250   9.309  1.5115  1.8063 -0.7495
  100MOL0     H13444   3.087   4.414   9.330 -0.9314 -0.8046  0.7565
  100MOL0     H13445   2.868   4.312   9.233  0.2817  2.9287  1.2447
  100MOL0     H13446   2.937   4.150   9.308  0.7296 -0.6442  0.9441
  100MOL0     H13447   2.974   4.236   9.520  0.1268 -0.1919 -1.1856
  100MOL0     H13448   2.897   4.387   9.483 -2.3592  0.7255  1.1307
  100MOL0     H13449   2.756   4.111   9.470 -2.9546  0.8194  0.1518
  100MOL0     H13450   2.700   4.242   9.391  1.5069  1.2555 -1.8195
  100MOL0     H13451   2.686   4.466   9.620  2.3448 -0.4835 -1.0430
  100MOL0     H13452   2.543   4.436   9.961  1.2242  2.3309  0.0063
  100MOL0     H13453   2.542   4.551   9.825  0.4779  0.1712  2.1954
  100MOL0     H13454   2.319   4.498   9.914  1.4938 -0.5924  2.1465
  100MOL0     H13455   2.343   4.328   9.899 -0.1166  0.1353  0.3352
  100MOL0     H13456   2.340   4.326   9.665  0.4536  0.9649  0.3038
  100MOL0     H13457   2.341   4.499   9.657  0.4458  0.0101 -0.8464
  100MOL0     H13458   2.134   4.338   9.818  1.1708 -1.3981 -0.2033
  100MOL0     H13459   2.117   4.360   9.640  2.6333  2.9230 -2.2080
  100MOL0     H13460   1.900   4.331   9.673  0.2667  0.0549  0.3296
  100MOL0     H13461   1.702   4.221   9.668  0.1167 -0.5170 -3.2599
  100MOL0     H13462   1.559   4.292   9.736  0.8809 -2.4254  0.0685
  100MOL0     H13463   1.608   4.309   9.560 -1.7147 -0.9749  0.2618
  100MOL0     H13464   1.262   4.721   9.476 -0.5430  0.9491 -0.2232
  100MOL0     H13465   1.062   4.816   9.496 -1.5806  1.2542  0.6936
  100MOL0     H13466   0.910   4.930   9.918 -2.0073  0.6001  0.4478
  100MOL0     H13467   0.771   4.953   9.815  0.3692  0.2987 -0.6650
  100MOL0     H13468   0.892   4.676   9.814 -1.8265 -2.2410  0.5023
  100MOL0     H13469   0.808   4.726   9.951  3.7076 -1.7956  0.7668
  100MOL0     H13470   0.705   4.761   9.661 -1.1614  1.0501  0.1657
  100MOL0     H13471   0.612   4.785   9.802 -0.1589 -1.2423  0.6939
  100MOL0     H13472   0.697   4.508   9.820 -0.1082 -0.2553 -0.7786
  100MOL0     H13473   0.537   4.559   9.764 -0.4761 -0.9295  0.9418
  100MOL0     H13474   0.631   4.572   9.539  0.3310 -0.7790 -1.5045
  100MOL0     H13475   0.612   4.411   9.613  0.5341 -1.2937  2.2120
  100MOL0     H13476   0.829   4.432   9.500 -0.0196 -0.6596  0.9867
  100MOL0     H13477   0.865   4.582   9.592  0.7187 -0.3687  3.3114
  100MOL0     H13478   0.928   4.456   9.791  2.8268 -4.3366  1.9343
  100MOL0     H13479   1.000   4.372   9.660  0.4182  2.4339  1.1899
  100MOL0     H13480   0.857   4.206   9.644  0.7637 -0.5835  0.5992
  100MOL0     H13481   0.726   4.272   9.749 -0.3504 -0.7955 -1.0614
  100MOL0     H13482   1.116   4.868   9.919 -1.8241  1.4793 -1.8623
  100MOL0     H13483   1.335   4.787   9.902  1.0327  2.0823  0.1439
  100MOL0     H13484   1.701   4.775   9.737 -1.9160 -1.0936 -0.3130
  100MOL0     H13485   1.928   4.746   9.757 -1.3374  0.6176 -0.1620
  100MOL0     H13486   3.396   4.489   8.750  0.0391  0.6822  0.0873
  100MOL0     H13487   3.564   4.551   8.590  0.2010  0.0813  1.9542
  100MOL0     H13488   3.701   4.692   8.224 -3.1380  1.2747 -0.7291
  100MOL0     H13489   3.927   4.743   8.117 -1.8658 -1.1053 -0.5292
  100MOL0     H13490   4.206   4.998   8.008 -0.0503 -0.1535  2.4278
  100MOL0     H13491   4.134   4.855   8.080  1.7606 -0.0384 -0.0539
  100MOL0     H13492   3.995   4.819   7.882 -0.3355  0.9579  0.5664
  100MOL0     H13493   4.173   4.791   7.861  1.3369  1.1511  2.0826
  100MOL0     H13494   4.223   4.969   7.741  0.1791  0.5606  1.4530
  100MOL0     H13495   4.068   5.050   7.780  2.8256  1.1934 -1.2660
  100MOL0     H13496   4.119   4.967   7.542 -1.9245  2.6353  3.3799
  100MOL0     H13497   3.954   4.915   7.616 -1.0485 -2.1597 -0.5468
  100MOL0     H13498   4.144   4.550   7.584 -0.3475  0.2459 -1.7545
  100MOL0     H13499   3.827   5.159   8.164 -0.6285 -0.8178 -2.2726
  100MOL0     H13500   3.634   5.098   8.299  2.0839 -0.3868  1.3020
  101MOL0     O13501   5.870   1.405  10.558  0.3942 -0.1173 -0.0857
  101MOL0     C13502   5.873   1.389  10.686 -0.2440 -0.9622 -0.2503
  101MOL0     O13503   5.763   1.412  10.769 -0.4856  0.2522  0.4203
  101MOL0     C13504   5.655   1.477  10.720 -0.1917 -0.6579 -0.2477
  101MOL0     C13505   5.655   1.617  10.735 -0.3672  1.3821  1.0399
  101MOL0     C13506   5.540   1.691  10.709 -0.7540 -0.5227 -0.1448
  101MOL0     C13507   5.425   1.635  10.657 -0.3839 -0.4264  0.8449
  101MOL0     O13508   5.318   1.704  10.626  0.6437 -0.0959 -0.2593
  101MOL0     C13509   5.300   1.829  10.690  0.0326  0.3750  0.8625
  101MOL0     C13510   5.158   1.884  10.688  0.6527 -0.7352 -1.1794
  101MOL0     C13511   5.053   1.775  10.724  0.5871  0.6475 -0.8301
  101MOL0     C13512   4.908   1.830  10.720  0.3589  0.6649  0.5243
  101MOL0     C13513   4.800   1.727  10.734 -0.8110 -0.2934  0.2916
  101MOL0     C13514   4.793   1.666  10.878  0.8644 -0.0730 -0.0897
  101MOL0     C13515   4.690   1.561  10.885 -0.2821  0.2573  0.1997
  101MOL0     C13516   4.690   1.473  11.017  0.1838 -0.9835  0.1727
  101MOL0     N13517   4.634   1.547  11.127  0.3380 -0.1053 -0.3803
  101MOL0     C13518   4.504   1.588  11.139  1.0232  0.9547 -0.6751
  101MOL0     C13519   4.504   1.669  11.254 -0.4875  0.0524  0.7175
  101MOL0     C13520   4.381   1.719  11.319 -0.3678  0.3338  0.1538
  101MOL0     C13521   4.392   1.696  11.471 -0.9808  0.2655  0.3834
  101MOL0     C13522   4.261   1.714  11.534  0.8028  0.1509  0.0200
  101MOL0     C13523   4.272   1.715  11.687  0.1412 -0.0573  0.1041
  101MOL0     O13524   4.145   1.754  11.743  0.5972  0.7911  0.2124
  101MOL0     C13525   4.036   1.671  11.739 -0.1015  0.0420 -0.0322
  101MOL0     C13526   3.913   1.732  11.768 -0.8924  0.0988 -0.1073
  101MOL0     C13527   3.801   1.666  11.757 -0.5022 -0.9690  0.8349
  101MOL0     C13528   3.676   1.741  11.775  0.4159  0.5643 -0.5225
  101MOL0     C13529   3.801   1.532  11.708 -0.1310 -0.2786  0.9539
  101MOL0     C13530   3.679   1.453  11.697  0.2970  1.0674  1.0075
  101MOL0     O13531   3.569   1.488  11.765 -0.5524  0.2438  0.6313
  101MOL0     C13532   3.450   1.419  11.767 -0.7030 -0.4829  0.7113
  101MOL0     C13533   3.329   1.494  11.765 -0.3407  0.0184  0.0148
  101MOL0     C13534   3.205   1.436  11.783 -0.7493  0.0991  0.1972
  101MOL0     C13535   3.193   1.295  11.813 -0.8089  0.2906 -0.2026
  101MOL0     O13536   3.073   1.241  11.838  0.1401 -0.0036 -1.0596
  101MOL0     C13537   3.078   1.106  11.894  0.8818  0.3369  0.4819
  101MOL0     C13538   2.934   1.067  11.932 -0.5463  0.0984 -0.2883
  101MOL0     C13539   2.892   0.917  11.959  0.4471 -0.5516 -0.5991
  101MOL0     C13540   2.744   0.906  11.994  0.2025  0.3694  0.8190
  101MOL0     C13541   2.705   0.945  12.137  1.1660 -0.5203 -0.6183
  101MOL0     C13542   2.550   0.957  12.170 -0.0092 -1.1135 -0.7605
  101MOL0     C13543   2.480   0.814  12.158 -0.1850 -0.4144  0.5195
  101MOL0     C13544   2.324   0.845  12.154 -1.2398  0.0209 -0.4563
  101MOL0    Cl13545   2.248   0.911  12.303  0.0145 -0.4442 -0.1593
  101MOL0     C13546   3.315   1.220  11.813  0.5617 -0.0074 -0.2551
  101MOL0     C13547   3.432   1.283  11.793 -0.8304 -0.4614 -0.5816
  101MOL0     O13548   3.680   1.352  11.622 -0.7133  0.1141 -0.1126
  101MOL0     C13549   3.921   1.470  11.670 -0.3377 -0.0791  0.1942
  101MOL0     C13550   4.040   1.543  11.685  1.0203  0.4418  0.4146
  101MOL0     N13551   4.630   1.668  11.309  0.0153 -0.9994 -0.6460
  101MOL0     N13552   4.705   1.596  11.234  0.5029 -0.4593  0.1856
  101MOL0     C13553   5.427   1.497  10.644 -0.2215 -0.7901  0.4699
  101MOL0     C13554   5.539   1.425  10.679  0.8319  0.6410  0.3324
  101MOL0     C13555   5.993   1.347  10.747 -0.1835 -0.0106  0.4515
  101MOL0     C13556   6.116   1.350  10.681  0.6978 -0.0670  0.0308
  101MOL0     C13557   6.229   1.296  10.745  0.3283 -0.8712  0.2081
  101MOL0     C13558   6.233   1.255  10.880 -0.6184  0.1420  0.1375
  101MOL0     O13559   6.339   1.206  10.941  1.1278 -0.2753  0.1840
  101MOL0     C13560   6.470   1.220  10.891 -0.6217 -0.5015 -0.4344
  101MOL0     C13561   6.569   1.158  10.987  0.6158 -0.7185 -0.1867
  101MOL0     C13562   6.711   1.222  10.970 -0.8993  1.0718 -0.1447
  101MOL0     C13563   6.791   1.167  11.085 -0.2086 -0.1456  0.0351
  101MOL0     C13564   6.907   1.246  11.113 -0.0608 -0.8546  0.1336
  101MOL0     C13565   7.006   1.321  11.138 -0.7685 -0.5323 -0.0389
  101MOL0     C13566   6.105   1.256  10.946 -0.4751  0.0705 -0.2712
  101MOL0     C13567   5.994   1.298  10.882  0.8366 -0.2772 -0.4142
  101MOL0     H13568   5.744   1.667  10.771 -1.6951  4.1522  0.7034
  101MOL0     H13569   5.551   1.797  10.726  3.7804 -0.7796 -0.0676
  101MOL0     H13570   5.315   1.820  10.798  2.1610 -0.3298  0.5458
  101MOL0     H13571   5.373   1.898  10.647 -0.1762 -0.0757 -0.2577
  101MOL0     H13572   5.157   1.962  10.764 -0.3615 -0.2466 -1.6883
  101MOL0     H13573   5.131   1.922  10.589  2.1245  2.7565 -0.3611
  101MOL0     H13574   5.063   1.691  10.655 -0.9878  1.9009 -2.6811
  101MOL0     H13575   5.075   1.741  10.825  1.0738  1.3700 -0.6811
  101MOL0     H13576   4.890   1.915  10.786 -0.4045  0.3024  0.7995
  101MOL0     H13577   4.905   1.855  10.613  0.1391 -4.4491 -0.9538
  101MOL0     H13578   4.702   1.772  10.717 -1.5121 -1.2270  1.6091
  101MOL0     H13579   4.824   1.652  10.658  0.3775  0.3340  0.0395
  101MOL0     H13580   4.887   1.617  10.905  0.7457  0.9233  2.4090
  101MOL0     H13581   4.784   1.751  10.946  7.6800 -0.2426  1.7975
  101MOL0     H13582   4.590   1.605  10.878 -0.7080 -0.8556 -1.1634
  101MOL0     H13583   4.699   1.496  10.798 -1.5932 -0.2994  0.4553
  101MOL0     H13584   4.796   1.463  11.043  0.2816  3.6632  2.6126
  101MOL0     H13585   4.643   1.377  10.995  1.8739 -1.3333 -2.3941
  101MOL0     H13586   4.419   1.562  11.077  0.0299  3.6104 -0.5586
  101MOL0     H13587   4.376   1.824  11.288 -0.8864 -0.2426 -1.8546
  101MOL0     H13588   4.294   1.669  11.277 -1.5648  0.6930  2.0952
  101MOL0     H13589   4.463   1.768  11.513 -0.7134  0.8560 -1.0238
  101MOL0     H13590   4.431   1.596  11.491 -1.6116  0.0953  0.7909
  101MOL0     H13591   4.196   1.636  11.495  0.3592 -0.1525  1.3298
  101MOL0     H13592   4.220   1.808  11.495  1.3044  0.8160  1.0482
  101MOL0     H13593   4.346   1.787  11.723 -3.2285  4.1208 -0.5026
  101MOL0     H13594   4.296   1.621  11.738  2.1036  1.3089  1.8630
  101MOL0     H13595   3.906   1.835  11.804 -0.6903  0.0874 -0.0340
  101MOL0     H13596   3.695   1.848  11.784  1.1652  0.3569  0.5888
  101MOL0     H13597   3.614   1.718  11.688  0.9304 -0.1451 -0.7129
  101MOL0     H13598   3.621   1.709  11.864 -0.3682 -3.3308 -2.1987
  101MOL0     H13599   3.338   1.602  11.757 -2.0745  0.2773  1.0768
  101MOL0     H13600   3.116   1.497  11.782 -0.8887 -0.1023 -1.0540
  101MOL0     H13601   3.116   1.044  11.812  0.3846  0.5605  0.0766
  101MOL0     H13602   3.135   1.088  11.986 -0.1464 -2.4861  0.6552
  101MOL0     H13603   2.908   1.125  12.021 -2.0217  1.3067 -1.4371
  101MOL0     H13604   2.868   1.108  11.855 -1.7562 -1.3161 -0.0665
  101MOL0     H13605   2.944   0.883  12.050 -1.3567  0.9711  1.1026
  101MOL0     H13606   2.916   0.864  11.867  0.8545  1.0270 -1.4316
  101MOL0     H13607   2.692   0.969  11.921 -0.1489 -2.1236 -1.1774
  101MOL0     H13608   2.712   0.809  11.955 -1.7376  1.9322 -1.7844
  101MOL0     H13609   2.749   1.043  12.159 -0.4264  0.1560 -0.3085
  101MOL0     H13610   2.741   0.877  12.215  0.9695  1.9617  1.8010
  101MOL0     H13611   2.530   1.003  12.267 -1.5620  0.9513 -1.9715
  101MOL0     H13612   2.502   1.023  12.096  0.7391 -0.8384 -1.0108
  101MOL0     H13613   2.504   0.750  12.244 -0.9340  0.8605  1.7089
  101MOL0     H13614   2.514   0.753  12.074  1.2779 -0.6311  1.2446
  101MOL0     H13615   2.285   0.746  12.129 -1.5329  0.1291 -0.4363
  101MOL0     H13616   2.301   0.915  12.073  3.2969  1.0561 -1.1055
  101MOL0     H13617   3.312   1.114  11.836  0.8408 -0.3898 -1.8714
  101MOL0     H13618   3.518   1.220  11.813 -0.7245 -0.1490 -0.0346
  101MOL0     H13619   3.929   1.369  11.630  1.1251 -0.4402  1.3162
  101MOL0     H13620   4.130   1.487  11.661  1.0334 -0.4833  2.3856
  101MOL0     H13621   5.347   1.440  10.598  0.6819 -0.3797 -1.7141
  101MOL0     H13622   5.535   1.317  10.672  0.2374  0.4062  3.0535
  101MOL0     H13623   6.142   1.386  10.582  5.9375  0.3317  1.2670
  101MOL0     H13624   6.324   1.279  10.697  1.7802 -1.1494  2.9530
  101MOL0     H13625   6.485   1.180  10.791 -0.9284 -0.8916 -0.3294
  101MOL0     H13626   6.490   1.327  10.886 -2.2379 -0.2371 -2.8672
  101MOL0     H13627   6.573   1.049  10.974 -1.9077 -0.8943 -0.0951
  101MOL0     H13628   6.538   1.181  11.089  3.6363 -2.3434  1.2226
  101MOL0     H13629   6.716   1.331  10.969  3.0519  1.0610 -1.6260
  101MOL0     H13630   6.755   1.188  10.876  0.5576  1.8278  0.2344
  101MOL0     H13631   6.837   1.072  11.056 -0.4210  0.0700 -1.0303
  101MOL0     H13632   6.736   1.147  11.178 -1.0786  1.3967 -0.1107
  101MOL0     H13633   7.070   1.398  11.174 -1.2680 -1.1154  2.2188
  101MOL0     H13634   6.103   1.221  11.048  1.4356  1.3100  0.2582
  101MOL0     H13635   5.901   1.303  10.939  0.0360  2.2398 -1.8143
  102MOL0     O13636   4.301   6.882   3.301  0.4763  0.2366  0.0560
  102MOL0     C13637   4.313   7.004   3.309 -0.6352  1.0413 -0.1536
  102MOL0     O13638   4.216   7.098   3.304  0.2005 -0.5557  0.4510
  102MOL0     C13639   4.092   7.078   3.251 -0.3190  0.1706  0.0398
  102MOL0     C13640   3.992   7.176   3.275  0.4026 -0.0979 -0.6516
  102MOL0     C13641   3.863   7.154   3.226  0.5573  0.1205  0.0593
  102MOL0     C13642   3.819   7.044   3.149 -0.1988 -0.3261  0.8637
  102MOL0     O13643   3.680   7.045   3.117  0.4962  0.7269 -0.7231
  102MOL0     C13644   3.634   6.935   3.034 -0.1656 -0.7503  0.6858
  102MOL0     C13645   3.480   6.958   2.996  0.3339 -0.0482  0.0218
  102MOL0     C13646   3.457   7.096   2.928 -0.4422  0.0938 -0.3855
  102MOL0     C13647   3.332   7.087   2.837 -0.1641  0.4113 -0.5508
  102MOL0     C13648   3.285   7.233   2.817 -0.0715 -0.2550 -0.5096
  102MOL0     C13649   3.151   7.239   2.739  0.5871  0.0518 -0.6934
  102MOL0     C13650   3.103   7.381   2.724  0.9976 -0.2150  0.1821
  102MOL0     C13651   2.957   7.382   2.693  1.2324  0.3576  0.3408
  102MOL0     N13652   2.908   7.520   2.685  0.1075  0.0752  0.4152
  102MOL0     C13653   2.833   7.570   2.580  0.5329  0.8448 -0.8594
  102MOL0     C13654   2.842   7.705   2.589  0.1542  0.2820  0.0415
  102MOL0     C13655   2.792   7.796   2.477  0.6146  0.6042  0.6478
  102MOL0     C13656   2.636   7.812   2.486 -0.9928  0.4659 -0.2341
  102MOL0     C13657   2.597   7.877   2.361 -0.3452 -0.6701  0.3003
  102MOL0     C13658   2.446   7.905   2.346  0.4142  0.8709  0.0590
  102MOL0     O13659   2.405   8.026   2.411  0.0836 -0.5306 -0.1095
  102MOL0     C13660   2.267   8.058   2.399 -0.5032 -0.2811 -0.8953
  102MOL0     C13661   2.162   7.966   2.362  0.8504  0.2885 -0.5018
  102MOL0     C13662   2.028   7.999   2.375 -0.0119 -0.2131 -0.3931
  102MOL0     C13663   1.915   7.900   2.348 -0.0663 -0.6975  0.2354
  102MOL0     C13664   2.003   8.128   2.409  0.3318 -0.5638 -0.3476
  102MOL0     C13665   1.865   8.172   2.405  0.2306  0.9008 -0.0399
  102MOL0     O13666   1.818   8.177   2.278  0.1615  0.6466 -0.1852
  102MOL0     C13667   1.691   8.215   2.258  0.5301 -0.0127  0.0022
  102MOL0     C13668   1.670   8.280   2.138 -0.4274  0.0285 -0.1966
  102MOL0     C13669   1.535   8.317   2.103 -0.2189  0.7504  0.7082
  102MOL0     C13670   1.429   8.281   2.185  0.3474  0.4344  0.0241
  102MOL0     O13671   1.305   8.305   2.132  0.3691 -0.2872  0.4096
  102MOL0     C13672   1.206   8.341   2.224  0.1273  0.5732 -0.5417
  102MOL0     C13673   1.151   8.477   2.184  0.6177 -0.4165 -0.9194
  102MOL0     C13674   1.021   8.506   2.270 -0.6025 -0.8492 -0.1026
  102MOL0     C13675   0.962   8.643   2.221  0.1832  0.3022 -0.8180
  102MOL0     C13676   0.837   8.667   2.310 -0.3476  1.3229 -0.3801
  102MOL0     C13677   0.803   8.814   2.300 -0.0080 -0.2038 -0.3652
  102MOL0     C13678   0.670   8.847   2.369 -0.1158  0.1515 -0.2007
  102MOL0     C13679   0.637   8.996   2.368  0.6182 -0.0620 -0.5632
  102MOL0    Cl13680   0.503   9.015   2.481  0.3288  0.4596 -0.5562
  102MOL0     C13681   1.450   8.196   2.295  0.1877  0.9507  0.2704
  102MOL0     C13682   1.584   8.173   2.332 -0.4150 -0.1150 -0.3263
  102MOL0     O13683   1.800   8.192   2.505  0.5354 -0.1012 -0.2526
  102MOL0     C13684   2.098   8.221   2.439 -0.4076 -0.1472 -0.8646
  102MOL0     C13685   2.228   8.186   2.433 -0.3919 -0.4875  0.5889
  102MOL0     N13686   2.903   7.739   2.705  0.6951  0.2277 -0.0733
  102MOL0     N13687   2.945   7.628   2.760 -0.3601  0.7026  0.2243
  102MOL0     C13688   3.927   6.959   3.113 -0.1746 -0.0849  0.3262
  102MOL0     C13689   4.052   6.975   3.162 -0.8690 -0.0248 -0.5679
  102MOL0     C13690   4.449   7.056   3.345  0.2107 -0.2994 -0.0666
  102MOL0     C13691   4.468   7.184   3.405  0.0370  0.6439 -0.2850
  102MOL0     C13692   4.596   7.242   3.403  0.2415 -0.0303 -0.1295
  102MOL0     C13693   4.701   7.172   3.350 -0.3902  0.2447 -0.2222
  102MOL0     O13694   4.822   7.240   3.343  0.6240  0.6407 -0.6828
  102MOL0     C13695   4.896   7.222   3.221 -0.4225  0.3848  0.7958
  102MOL0     C13696   4.820   7.296   3.101 -0.8051  0.0247 -0.2283
  102MOL0     C13697   4.877   7.242   2.970 -0.6722 -0.0548  0.1641
  102MOL0     C13698   5.032   7.287   2.933  0.0208 -0.5050  0.0683
  102MOL0     C13699   5.032   7.429   2.946  0.2915  0.0768  0.2232
  102MOL0     C13700   5.035   7.545   2.934 -0.4012  0.6571 -0.2243
  102MOL0     C13701   4.686   7.035   3.317  0.3682 -0.6414 -0.1224
  102MOL0     C13702   4.558   6.981   3.314  0.2907  0.7917 -0.9101
  102MOL0     H13703   4.002   7.269   3.329 -1.8157  0.2628 -0.7868
  102MOL0     H13704   3.778   7.219   3.245 -0.1257 -1.4798  3.2542
  102MOL0     H13705   3.695   6.941   2.943  0.3857  0.8145  1.1294
  102MOL0     H13706   3.644   6.845   3.094  4.1606  0.5204  2.2736
  102MOL0     H13707   3.448   6.875   2.934  1.2510  1.1459 -2.1625
  102MOL0     H13708   3.422   6.950   3.089  0.2154 -2.8668 -0.2192
  102MOL0     H13709   3.439   7.170   3.006 -0.6863 -1.3127  0.9289
  102MOL0     H13710   3.541   7.124   2.864 -0.7011  2.1572  0.0934
  102MOL0     H13711   3.345   7.034   2.743 -2.7612 -0.5000 -0.4794
  102MOL0     H13712   3.254   7.043   2.901 -0.7448  0.6541 -1.0764
  102MOL0     H13713   3.289   7.273   2.918  1.5262 -4.5055  1.3395
  102MOL0     H13714   3.362   7.281   2.755 -0.5202 -0.8687 -1.5748
  102MOL0     H13715   3.169   7.205   2.637 -3.6254  1.7132 -2.2379
  102MOL0     H13716   3.079   7.170   2.784  1.2177 -0.8935 -1.1042
  102MOL0     H13717   3.116   7.437   2.817 -0.2768  1.3120 -0.4971
  102MOL0     H13718   3.156   7.433   2.644  0.2753  0.0746 -0.1250
  102MOL0     H13719   2.904   7.321   2.768 -0.6870  1.9539  0.3760
  102MOL0     H13720   2.948   7.323   2.601  3.4496 -0.8693  0.8337
  102MOL0     H13721   2.796   7.499   2.506  0.5478 -2.0009  1.6864
  102MOL0     H13722   2.834   7.895   2.496 -3.4047  1.9995  3.6785
  102MOL0     H13723   2.821   7.751   2.382  0.5075  0.8862  0.4813
  102MOL0     H13724   2.610   7.866   2.577 -1.1028  1.0645 -0.6151
  102MOL0     H13725   2.589   7.713   2.491 -2.3425  1.0742 -0.3873
  102MOL0     H13726   2.626   7.803   2.286 -0.5150 -3.3296  2.7056
  102MOL0     H13727   2.653   7.971   2.354 -1.6603  0.3334  2.3296
  102MOL0     H13728   2.391   7.814   2.374 -2.1381  0.4009 -5.2542
  102MOL0     H13729   2.423   7.910   2.239  0.4744  0.9185  0.0480
  102MOL0     H13730   2.179   7.865   2.327  0.9647 -0.5858  1.8603
  102MOL0     H13731   1.941   7.797   2.373 -0.1895 -0.6839  0.4231
  102MOL0     H13732   1.831   7.929   2.412  1.0100  3.1688  0.1647
  102MOL0     H13733   1.884   7.888   2.244  1.5775 -0.9727 -0.2457
  102MOL0     H13734   1.754   8.303   2.072  0.2655 -1.0024  0.3020
  102MOL0     H13735   1.534   8.374   2.010 -1.0484  0.1783  0.3558
  102MOL0     H13736   1.117   8.278   2.224  0.4736  0.0320  1.1482
  102MOL0     H13737   1.249   8.350   2.324 -0.5190 -0.1953 -0.1873
  102MOL0     H13738   1.224   8.557   2.200  0.2566 -0.2453 -0.0791
  102MOL0     H13739   1.127   8.476   2.077  1.1289 -0.1018 -1.0419
  102MOL0     H13740   1.038   8.519   2.377 -0.6151  1.2107 -0.3094
  102MOL0     H13741   0.951   8.424   2.253  1.1825 -2.5711  0.4033
  102MOL0     H13742   1.038   8.721   2.233  1.0322 -0.7348  1.0230
  102MOL0     H13743   0.937   8.650   2.115  1.0254 -1.5152 -1.1631
  102MOL0     H13744   0.841   8.631   2.413 -1.2944 -0.9463 -1.0745
  102MOL0     H13745   0.762   8.603   2.263  0.3151 -0.6503  1.1401
  102MOL0     H13746   0.884   8.875   2.342 -1.3122  2.5123 -1.5735
  102MOL0     H13747   0.801   8.845   2.195  2.8868 -1.7821 -1.0194
  102MOL0     H13748   0.679   8.807   2.470  3.0815 -2.8742 -1.4464
  102MOL0     H13749   0.587   8.805   2.312 -2.2065  3.5875  0.0706
  102MOL0     H13750   0.599   9.014   2.268 -1.0071 -0.1038  0.0207
  102MOL0     H13751   0.719   9.067   2.383  0.2915  0.2948 -0.4673
  102MOL0     H13752   1.366   8.141   2.336  1.8871 -1.7940  0.3522
  102MOL0     H13753   1.599   8.110   2.419 -0.3863  0.9136  0.4180
  102MOL0     H13754   2.058   8.314   2.477 -0.3260 -0.2977 -0.4132
  102MOL0     H13755   2.307   8.252   2.469  1.5257 -1.1106 -2.1670
  102MOL0     H13756   3.907   6.875   3.047  2.0978 -1.4489  1.2338
  102MOL0     H13757   4.131   6.906   3.130  0.5870  0.7623  1.1529
  102MOL0     H13758   4.383   7.245   3.434 -0.3387  0.4307 -0.9233
  102MOL0     H13759   4.596   7.342   3.444 -4.2965 -0.4915  1.5958
  102MOL0     H13760   4.990   7.278   3.222 -0.1194 -0.1119  0.9850
  102MOL0     H13761   4.902   7.116   3.193 -2.0214  0.1852  1.1562
  102MOL0     H13762   4.833   7.405   3.110  0.2544 -0.1902  1.5253
  102MOL0     H13763   4.716   7.262   3.101 -0.0671 -2.4661  0.4506
  102MOL0     H13764   4.817   7.281   2.888 -0.6731 -3.2766 -1.5554
  102MOL0     H13765   4.865   7.134   2.957 -0.6396 -0.0388  0.0031
  102MOL0     H13766   5.055   7.274   2.827  2.3722  0.0115  0.4699
  102MOL0     H13767   5.117   7.247   2.988  0.8851  0.1055 -0.7973
  102MOL0     H13768   5.014   7.649   2.947 -0.6414  0.4432  1.2942
  102MOL0     H13769   4.763   6.970   3.276 -2.6285 -2.7266 -2.9495
  102MOL0     H13770   4.557   6.880   3.275  1.7075  0.0131  0.8864
  103MOL0     O13771   8.906   8.893   6.476  0.0960  0.2007  0.4003
  103MOL0     C13772   8.901   8.909   6.593 -0.3868 -0.1358 -0.5065
  103MOL0     O13773   9.007   8.911   6.676 -0.0533  1.2540  0.0922
  103MOL0     C13774   9.140   8.896   6.628 -0.7167  0.1792 -0.0274
  103MOL0     C13775   9.199   8.924   6.502  0.2856 -0.0668 -0.6233
  103MOL0     C13776   9.331   8.891   6.478 -0.8051 -0.1004 -0.1762
  103MOL0     C13777   9.408   8.839   6.574 -0.1337  0.0153  0.1512
  103MOL0     O13778   9.536   8.819   6.536 -0.2447 -0.7658 -0.1635
  103MOL0     C13779   9.636   8.852   6.634  0.1310  0.0097 -1.0351
  103MOL0     C13780   9.765   8.905   6.574 -0.3620 -0.4966 -0.5890
  103MOL0     C13781   9.809   8.796   6.475  0.5907  0.3174 -1.0231
  103MOL0     C13782   9.857   8.658   6.547  0.1633  0.1773  0.2027
  103MOL0     C13783   9.935   8.571   6.453 -0.4374 -0.0288 -0.0185
  103MOL0     C13784  10.073   8.619   6.415 -0.0982 -0.0709 -0.4054
  103MOL0     C13785  10.141   8.491   6.364 -0.4716  0.3741  0.1714
  103MOL0     C13786  10.269   8.537   6.301 -0.7443  0.4296 -0.5589
  103MOL0     N13787  10.233   8.602   6.171 -0.2936  0.4161  1.1169
  103MOL0     C13788  10.194   8.540   6.051 -0.7743  0.8197  0.2525
  103MOL0     C13789  10.207   8.631   5.955  0.3417  0.0598 -0.0269
  103MOL0     C13790  10.178   8.608   5.811 -0.9600 -0.0756  0.2033
  103MOL0     C13791  10.028   8.617   5.782  0.3200 -0.0063 -0.8689
  103MOL0     C13792   9.984   8.617   5.634 -0.1843 -0.1044 -0.2721
  103MOL0     C13793   9.831   8.632   5.637 -0.1443  0.2574  0.4032
  103MOL0     O13794   9.768   8.620   5.509 -0.2349  0.5632 -0.3017
  103MOL0     C13795   9.632   8.613   5.505 -0.0230 -0.5092 -0.5663
  103MOL0     C13796   9.577   8.551   5.395 -0.1745  0.0178 -0.0491
  103MOL0     C13797   9.440   8.521   5.400  1.3853  0.1295 -0.2487
  103MOL0     C13798   9.382   8.445   5.291 -0.0396  0.5433  0.3170
  103MOL0     C13799   9.357   8.565   5.507  0.4335  1.1164 -0.0714
  103MOL0     C13800   9.220   8.543   5.514  0.5777  1.2806 -0.3827
  103MOL0     O13801   9.174   8.429   5.561 -0.7435  0.2716 -0.4016
  103MOL0     C13802   9.043   8.429   5.604 -0.5796 -0.0272 -0.4396
  103MOL0     C13803   8.935   8.388   5.520 -0.9781  0.4172  0.5777
  103MOL0     C13804   8.808   8.359   5.567  0.0261 -0.3977  0.8029
  103MOL0     C13805   8.776   8.407   5.687  0.4499  0.1485 -0.3793
  103MOL0     O13806   8.647   8.375   5.722  0.2590 -0.0289  0.0804
  103MOL0     C13807   8.577   8.477   5.799 -0.1722 -0.0011  0.4926
  103MOL0     C13808   8.424   8.453   5.782  0.3142 -0.8276  0.0667
  103MOL0     C13809   8.331   8.550   5.860  0.0132  0.6108 -0.0931
  103MOL0     C13810   8.177   8.529   5.851  0.7090  0.2941 -0.2982
  103MOL0     C13811   8.120   8.482   5.983 -0.4002  0.0596  0.3115
  103MOL0     C13812   7.966   8.467   5.966  0.0994  0.9741 -0.0413
  103MOL0     C13813   7.907   8.393   6.093 -0.1270 -0.7191 -0.4977
  103MOL0     C13814   7.758   8.395   6.101 -0.0384 -0.0437 -0.2758
  103MOL0    Cl13815   7.685   8.553   6.107 -0.1265 -0.3554  0.1552
  103MOL0     C13816   8.871   8.467   5.772 -0.1791  0.8141 -0.5988
  103MOL0     C13817   9.012   8.466   5.738 -0.7040 -0.5496  0.4761
  103MOL0     O13818   9.150   8.633   5.468  0.0705 -0.0002 -0.2331
  103MOL0     C13819   9.416   8.646   5.606  0.1468  0.0524 -0.1776
  103MOL0     C13820   9.553   8.666   5.610 -0.3357 -0.4632 -0.0370
  103MOL0     N13821  10.248   8.748   6.013 -0.1250  0.2510  0.1776
  103MOL0     N13822  10.266   8.727   6.139 -0.2747 -0.3032 -0.1861
  103MOL0     C13823   9.350   8.807   6.698  0.5097  0.5361  0.6624
  103MOL0     C13824   9.221   8.838   6.726  0.7866 -0.5884  0.8769
  103MOL0     C13825   8.774   8.918   6.666 -0.5425 -0.5539 -0.5489
  103MOL0     C13826   8.653   8.947   6.590  0.0078  0.1682  0.7868
  103MOL0     C13827   8.532   8.944   6.658  0.7055  0.7427  0.1459
  103MOL0     C13828   8.520   8.926   6.795  0.1622 -0.0544  0.2300
  103MOL0     O13829   8.399   8.931   6.869 -0.6677 -0.8348 -0.1499
  103MOL0     C13830   8.281   8.936   6.791  0.6411  0.0080 -0.4565
  103MOL0     C13831   8.159   8.951   6.876 -0.3864 -0.4469 -0.1806
  103MOL0     C13832   8.028   8.951   6.802 -0.3328  0.3733  0.2625
  103MOL0     C13833   7.902   8.997   6.889 -0.1178  0.3524  0.4186
  103MOL0     C13834   7.895   8.900   6.997  0.0780  0.7843  0.1486
  103MOL0     C13835   7.873   8.815   7.082  0.4109 -0.2066 -0.4019
  103MOL0     C13836   8.640   8.894   6.864 -0.2308  0.2029 -1.3196
  103MOL0     C13837   8.764   8.893   6.800 -0.0471 -0.3056 -0.9354
  103MOL0     H13838   9.151   8.998   6.439  2.2128  0.2284 -1.8587
  103MOL0     H13839   9.377   8.918   6.383 -0.4034 -0.1284  0.0091
  103MOL0     H13840   9.599   8.925   6.708 -1.9244  0.7717 -2.7082
  103MOL0     H13841   9.659   8.758   6.685 -2.9505  0.1555  0.8799
  103MOL0     H13842   9.738   8.997   6.522 -0.5434 -0.6993 -0.8574
  103MOL0     H13843   9.846   8.925   6.644  1.8885 -0.5552 -3.0138
  103MOL0     H13844   9.733   8.760   6.406  0.8123 -1.4549 -0.4103
  103MOL0     H13845   9.903   8.826   6.427  2.4693 -0.3705  1.9071
  103MOL0     H13846   9.919   8.684   6.634  0.3126 -1.6362  0.6656
  103MOL0     H13847   9.768   8.608   6.584 -1.8510  2.2793 -1.5324
  103MOL0     H13848   9.947   8.474   6.503  1.8486 -0.2522 -0.9158
  103MOL0     H13849   9.873   8.543   6.367 -0.4602 -0.1722  0.0441
  103MOL0     H13850  10.052   8.695   6.339 -1.8209  1.7934  1.8210
  103MOL0     H13851  10.120   8.661   6.504  1.3771 -0.0581 -1.1416
  103MOL0     H13852  10.154   8.421   6.446 -0.3732 -1.7781 -1.5800
  103MOL0     H13853  10.085   8.438   6.286 -0.6532  3.0497 -1.6663
  103MOL0     H13854  10.346   8.461   6.288 -1.7606 -0.4231 -1.8999
  103MOL0     H13855  10.315   8.613   6.365  2.6324 -0.5073 -1.6545
  103MOL0     H13856  10.170   8.435   6.038  1.0822  0.0659  2.2231
  103MOL0     H13857  10.234   8.681   5.751  0.6260 -0.5560  1.0308
  103MOL0     H13858  10.208   8.508   5.777 -2.5689 -1.2052  1.9612
  103MOL0     H13859   9.992   8.715   5.814  2.9489  0.7506  0.0049
  103MOL0     H13860   9.967   8.547   5.840 -1.0705  3.2651  1.9917
  103MOL0     H13861  10.008   8.526   5.578  2.9852  0.4617 -0.0462
  103MOL0     H13862  10.045   8.693   5.585  0.4699 -2.5704 -3.6457
  103MOL0     H13863   9.804   8.735   5.665 -3.7234 -0.1014 -1.2062
  103MOL0     H13864   9.781   8.568   5.710  1.0482  1.9187  2.8356
  103MOL0     H13865   9.641   8.517   5.314  0.7234 -2.9384  1.7580
  103MOL0     H13866   9.437   8.351   5.297  2.7119  2.0503  0.1974
  103MOL0     H13867   9.276   8.420   5.291  0.5028 -1.9980  0.1286
  103MOL0     H13868   9.401   8.491   5.193 -3.3658  5.1674  1.4818
  103MOL0     H13869   8.961   8.364   5.417  0.8878 -2.6370  1.6200
  103MOL0     H13870   8.727   8.310   5.515  0.4247 -1.3597  1.0713
  103MOL0     H13871   8.597   8.466   5.906 -0.1908  1.4987  0.6698
  103MOL0     H13872   8.605   8.577   5.765 -1.5390  0.4932  0.7757
  103MOL0     H13873   8.391   8.448   5.677  1.8514 -0.7533 -0.4546
  103MOL0     H13874   8.413   8.357   5.833  0.8557  0.1993  2.2353
  103MOL0     H13875   8.353   8.647   5.813 -3.3441  1.0407 -1.0378
  103MOL0     H13876   8.357   8.548   5.966  1.3399 -2.4478 -0.3684
  103MOL0     H13877   8.128   8.621   5.818 -0.2392  0.9849  2.7262
  103MOL0     H13878   8.155   8.453   5.776  0.8496 -0.0860  0.0422
  103MOL0     H13879   8.133   8.561   6.059 -0.8173  1.7521 -1.2990
  103MOL0     H13880   8.175   8.397   6.025  2.4384  1.9062  0.6319
  103MOL0     H13881   7.913   8.561   5.950 -0.0157  0.8794 -0.2181
  103MOL0     H13882   7.949   8.409   5.875  2.3129  0.7118 -0.3240
  103MOL0     H13883   7.945   8.442   6.184  2.3932 -0.9648 -1.3391
  103MOL0     H13884   7.944   8.291   6.105  0.9959 -0.1057  1.8874
  103MOL0     H13885   7.733   8.351   6.199  0.4078  1.7651  0.6917
  103MOL0     H13886   7.720   8.330   6.021  0.3804 -0.9334  0.2251
  103MOL0     H13887   8.820   8.505   5.860 -1.2597  1.6878 -1.5785
  103MOL0     H13888   9.091   8.493   5.808  0.0191 -0.2172 -0.4426
  103MOL0     H13889   9.355   8.689   5.684 -0.3712  1.5369 -1.3343
  103MOL0     H13890   9.593   8.721   5.695 -2.1450 -1.1889  1.3672
  103MOL0     H13891   9.426   8.774   6.768 -0.1138 -1.7861  0.3183
  103MOL0     H13892   9.174   8.815   6.822 -1.4966 -0.1973 -0.0801
  103MOL0     H13893   8.655   8.967   6.483  1.6961 -0.7388  0.6044
  103MOL0     H13894   8.441   8.969   6.605  0.8194  3.1794  0.9768
  103MOL0     H13895   8.288   9.022   6.724  0.7056 -1.1406 -1.9869
  103MOL0     H13896   8.282   8.844   6.731  4.6704  0.5777 -1.5036
  103MOL0     H13897   8.171   9.039   6.939  4.2240 -0.5473 -0.6345
  103MOL0     H13898   8.137   8.870   6.946 -1.8871  0.4570  0.4362
  103MOL0     H13899   8.016   8.849   6.765  2.2478 -0.6702  2.0160
  103MOL0     H13900   8.036   9.025   6.721 -0.6769  0.6040  0.4386
  103MOL0     H13901   7.805   8.984   6.839 -0.9093 -0.3203  2.0628
  103MOL0     H13902   7.907   9.095   6.937 -3.4617  0.3753  0.9964
  103MOL0     H13903   7.861   8.745   7.162  0.7065  3.4990  3.2457
  103MOL0     H13904   8.635   8.874   6.970 -0.5262  0.0507 -1.3591
  103MOL0     H13905   8.853   8.868   6.857 -0.6582  0.8160  0.5765
  104MOL0     O13906   3.337   1.276   9.918 -0.2673 -0.4487 -0.2237
  104MOL0     C13907   3.432   1.233   9.853 -0.3372 -0.1688  0.6322
  104MOL0     O13908   3.427   1.159   9.741 -0.0885  0.5271 -0.2323
  104MOL0     C13909   3.299   1.120   9.694 -0.4109 -0.0413  0.2075
  104MOL0     C13910   3.279   1.118   9.548  0.9076 -0.9072 -0.2818
  104MOL0     C13911   3.159   1.077   9.492  0.4897  0.4623 -0.4085
  104MOL0     C13912   3.057   1.024   9.564 -0.3004 -0.3963 -0.4897
  104MOL0     O13913   2.949   0.978   9.498  0.3649 -0.1173 -0.3603
  104MOL0     C13914   2.826   1.033   9.545 -0.4289  0.1001 -0.2297
  104MOL0     C13915   2.726   1.058   9.433 -0.6765 -0.3010 -0.0376
  104MOL0     C13916   2.798   1.132   9.315 -0.0212  0.2180 -0.1399
  104MOL0     C13917   2.714   1.143   9.192  0.8456 -0.4244  0.0102
  104MOL0     C13918   2.800   1.209   9.088 -0.2407 -0.0022  0.2007
  104MOL0     C13919   2.845   1.347   9.125 -0.4593  0.7234 -0.2616
  104MOL0     C13920   2.905   1.440   9.015  0.7050  0.0772 -0.2018
  104MOL0     C13921   3.060   1.431   9.019  0.9451  0.6519 -0.3645
  104MOL0     N13922   3.126   1.298   9.008  0.6923 -0.2167 -0.6008
  104MOL0     C13923   3.117   1.210   8.906 -0.1993 -1.1473 -0.3882
  104MOL0     C13924   3.175   1.102   8.960  0.1036  0.7284 -0.2154
  104MOL0     C13925   3.190   0.976   8.890  0.0789  0.3135 -0.2821
  104MOL0     C13926   3.270   0.984   8.765  0.6613 -0.6967 -0.0413
  104MOL0     C13927   3.272   0.844   8.697  0.4467  0.6152  0.3129
  104MOL0     C13928   3.303   0.717   8.767 -0.2694  0.4454 -0.7026
  104MOL0     O13929   3.207   0.669   8.860  0.5470 -0.0766  0.4081
  104MOL0     C13930   3.083   0.622   8.819 -0.6107 -0.2343  0.6212
  104MOL0     C13931   2.992   0.577   8.916 -0.6250  0.4031  1.2360
  104MOL0     C13932   2.867   0.519   8.883 -0.4194 -0.7688 -0.4155
  104MOL0     C13933   2.781   0.507   9.001  0.1057 -0.6712 -0.1907
  104MOL0     C13934   2.831   0.497   8.749 -0.2417  0.7176  0.3443
  104MOL0     C13935   2.711   0.421   8.698 -0.2389 -0.2343  0.3637
  104MOL0     O13936   2.671   0.309   8.761 -0.4646  0.6283  0.0709
  104MOL0     C13937   2.537   0.279   8.746  0.8281  0.4740 -0.1904
  104MOL0     C13938   2.508   0.144   8.719  0.5365 -0.1321 -0.3092
  104MOL0     C13939   2.373   0.093   8.718  0.5112  0.7929 -0.8369
  104MOL0     C13940   2.263   0.181   8.735 -0.0544  0.7929 -0.5344
  104MOL0     O13941   2.140   0.127   8.707 -0.6477  0.3796 -0.3978
  104MOL0     C13942   2.037   0.211   8.643 -0.0253  0.4537 -0.2711
  104MOL0     C13943   1.923   0.133   8.585  0.1704  1.0553 -0.0188
  104MOL0     C13944   1.830   0.086   8.695 -0.3182 -0.2095 -0.0366
  104MOL0     C13945   1.736  -0.017   8.625  0.6945  0.1013 -0.1621
  104MOL0     C13946   1.641  -0.097   8.717 -0.6552  0.3560  0.7909
  104MOL0     C13947   1.551  -0.195   8.644 -0.3335 -0.9180 -0.5457
  104MOL0     C13948   1.460  -0.270   8.750  1.2215 -1.0777  0.6772
  104MOL0     C13949   1.531  -0.363   8.845  0.4473  0.2490  0.5174
  104MOL0    Cl13950   1.611  -0.505   8.757 -0.1164 -0.3368 -0.0320
  104MOL0     C13951   2.292   0.321   8.746  0.1041 -0.2445 -0.2657
  104MOL0     C13952   2.427   0.368   8.756 -0.0321 -0.1522  0.5583
  104MOL0     O13953   2.643   0.474   8.610  1.0005 -0.5059 -0.4098
  104MOL0     C13954   2.924   0.535   8.647 -0.6539  0.4062 -0.0996
  104MOL0     C13955   3.052   0.593   8.689  0.9336 -0.2047  0.1167
  104MOL0     N13956   3.199   1.117   9.094 -0.3089  0.6016  0.5241
  104MOL0     N13957   3.177   1.236   9.120 -0.4207 -0.9211  0.3972
  104MOL0     C13958   3.085   1.019   9.709 -0.0930 -0.1707  0.1526
  104MOL0     C13959   3.205   1.063   9.768 -0.0658 -0.4520  0.2755
  104MOL0     C13960   3.562   1.277   9.899 -1.5145  0.5490 -0.3053
  104MOL0     C13961   3.590   1.382   9.987  0.1873 -0.0494  0.7867
  104MOL0     C13962   3.721   1.413  10.031 -0.3239 -0.2846  0.0266
  104MOL0     C13963   3.832   1.342   9.982 -0.8819 -0.1360  0.4240
  104MOL0     O13964   3.965   1.359  10.002  0.1993  0.1195 -0.6566
  104MOL0     C13965   3.994   1.455  10.106  0.0919 -0.3931 -0.1909
  104MOL0     C13966   4.144   1.445  10.143 -0.7320  0.8906 -0.4558
  104MOL0     C13967   4.246   1.503  10.045 -0.6149  0.4218 -0.3825
  104MOL0     C13968   4.393   1.489  10.095  0.5309 -0.6451  0.5214
  104MOL0     C13969   4.479   1.461   9.978  0.7528 -0.6444 -0.4873
  104MOL0     C13970   4.555   1.433   9.893  0.5451 -0.6387  1.1179
  104MOL0     C13971   3.815   1.238   9.891  0.5040  0.0318 -0.3448
  104MOL0     C13972   3.685   1.224   9.834  0.8982  0.3862 -0.8032
  104MOL0     H13973   3.357   1.162   9.487  1.5699 -1.0732  0.4362
  104MOL0     H13974   3.150   1.110   9.389 -1.8726  0.2268 -0.3334
  104MOL0     H13975   2.786   0.960   9.616 -1.5389 -1.4439 -2.3086
  104MOL0     H13976   2.839   1.128   9.597 -3.3155  1.5213 -1.8661
  104MOL0     H13977   2.690   0.960   9.403 -2.1028 -0.0886  0.9007
  104MOL0     H13978   2.639   1.121   9.455 -1.6665 -0.8729 -2.0704
  104MOL0     H13979   2.830   1.226   9.361 -2.2440  0.2550  1.5197
  104MOL0     H13980   2.889   1.076   9.292 -0.1697  1.0597 -3.2495
  104MOL0     H13981   2.682   1.049   9.147  0.1143  1.5504 -4.0255
  104MOL0     H13982   2.625   1.205   9.212  0.4631 -1.2438  0.9220
  104MOL0     H13983   2.885   1.146   9.058 -1.1377 -0.5727 -1.2840
  104MOL0     H13984   2.742   1.222   8.996  0.8949  1.8326 -0.3267
  104MOL0     H13985   2.749   1.397   9.140 -3.0572 -3.2544 -1.7298
  104MOL0     H13986   2.912   1.357   9.211  0.3986 -0.4588 -0.7663
  104MOL0     H13987   2.862   1.414   8.918 -4.9462 -0.6918  2.0804
  104MOL0     H13988   2.869   1.542   9.032 -1.2440 -0.0992 -2.6126
  104MOL0     H13989   3.094   1.479   9.112  0.2380 -1.9880  1.3734
  104MOL0     H13990   3.109   1.484   8.937 -0.4194  1.6403 -0.5656
  104MOL0     H13991   3.086   1.229   8.804 -0.6862  0.8267  0.0927
  104MOL0     H13992   3.230   0.898   8.954  0.3483 -2.4179 -3.5079
  104MOL0     H13993   3.096   0.937   8.849 -0.3277  1.0359 -0.0618
  104MOL0     H13994   3.373   1.014   8.784  0.8412 -0.0191 -1.8579
  104MOL0     H13995   3.219   1.057   8.702 -0.3775 -0.5952  0.8800
  104MOL0     H13996   3.343   0.858   8.615 -0.1091 -0.4745 -0.3759
  104MOL0     H13997   3.171   0.830   8.657 -1.0601 -1.0823  4.1559
  104MOL0     H13998   3.402   0.729   8.810 -0.1598  3.6407 -1.5991
  104MOL0     H13999   3.316   0.633   8.698  4.5452  0.6628 -0.3440
  104MOL0     H14000   3.019   0.592   9.020  2.5045  1.7235  0.3388
  104MOL0     H14001   2.689   0.452   8.983 -0.1561  0.6115 -3.5831
  104MOL0     H14002   2.832   0.457   9.083  0.1651 -2.1565 -1.0979
  104MOL0     H14003   2.753   0.611   9.021  0.3236  0.6268 -5.2117
  104MOL0     H14004   2.592   0.078   8.702  1.2147  0.6203  0.0352
  104MOL0     H14005   2.349  -0.013   8.709 -0.7824  0.8834  1.0070
  104MOL0     H14006   1.992   0.274   8.720  1.3464 -0.0088  0.9425
  104MOL0     H14007   2.080   0.271   8.561 -1.4774  0.8027 -0.7989
  104MOL0     H14008   1.866   0.183   8.507 -0.4171  0.0465 -0.2573
  104MOL0     H14009   1.959   0.042   8.537 -1.8254  0.6900 -0.9045
  104MOL0     H14010   1.768   0.162   8.744  1.3701 -0.3553  2.4861
  104MOL0     H14011   1.894   0.040   8.770  0.1043 -3.8297 -2.3450
  104MOL0     H14012   1.663   0.033   8.561  0.0526 -0.9510 -0.2919
  104MOL0     H14013   1.806  -0.081   8.572 -1.0564 -0.8157 -1.4748
  104MOL0     H14014   1.589  -0.019   8.774  0.0467 -0.5633  2.7820
  104MOL0     H14015   1.704  -0.147   8.791  0.7878  0.0773 -0.5821
  104MOL0     H14016   1.484  -0.149   8.571 -1.4285 -1.9574 -0.2290
  104MOL0     H14017   1.618  -0.265   8.591 -1.8026 -1.5085 -1.6914
  104MOL0     H14018   1.384  -0.330   8.700 -0.2342 -0.0550  1.5729
  104MOL0     H14019   1.400  -0.196   8.805 -0.7134 -2.6463  0.7725
  104MOL0     H14020   1.455  -0.405   8.912 -1.3567  2.0936 -0.2490
  104MOL0     H14021   1.605  -0.312   8.907  1.2494  0.1389 -0.3240
  104MOL0     H14022   2.217   0.397   8.764 -0.2896 -0.6689 -0.0835
  104MOL0     H14023   2.444   0.474   8.771 -0.2403 -0.1711  0.9532
  104MOL0     H14024   2.918   0.509   8.542  1.4274  1.4421 -0.5382
  104MOL0     H14025   3.122   0.610   8.608  0.2073 -2.2877 -1.0158
  104MOL0     H14026   3.007   0.975   9.771 -0.1364 -1.3471 -0.6913
  104MOL0     H14027   3.221   1.053   9.875 -3.3264  0.4334  0.9426
  104MOL0     H14028   3.508   1.437  10.033 -2.8996 -1.9030 -2.0440
  104MOL0     H14029   3.731   1.492  10.104 -1.8042  0.5848 -0.6731
  104MOL0     H14030   3.969   1.559  10.082  2.8946  0.5927  0.7568
  104MOL0     H14031   3.938   1.430  10.196 -0.7233 -0.1154 -0.6105
  104MOL0     H14032   4.161   1.337  10.152  1.5374  1.2055 -0.5067
  104MOL0     H14033   4.173   1.487  10.240  1.7190  0.3494 -0.8895
  104MOL0     H14034   4.238   1.612  10.042  0.4599  0.5044 -0.5328
  104MOL0     H14035   4.223   1.457   9.948 -0.6807 -2.9971  1.1163
  104MOL0     H14036   4.398   1.402  10.161 -1.3612 -0.2372  1.2690
  104MOL0     H14037   4.425   1.574  10.155  4.0885 -1.2256 -0.3066
  104MOL0     H14038   4.611   1.409   9.805 -1.1380 -1.9428  0.3610
  104MOL0     H14039   3.898   1.184   9.847  0.2274 -0.7054  0.0157
  104MOL0     H14040   3.668   1.148   9.759  1.1430  2.1204 -2.6925
  105MOL0     O14041   6.149   0.137   6.308 -0.3428  0.6900 -0.3223
  105MOL0     C14042   6.124   0.020   6.346 -0.2169 -0.1824 -0.2185
  105MOL0     O14043   6.001  -0.031   6.384  0.0922  0.3315 -0.3886
  105MOL0     C14044   5.888   0.041   6.404 -1.0847  1.1403  0.3179
  105MOL0     C14045   5.795  -0.024   6.486 -0.8551  0.3618 -0.1087
  105MOL0     C14046   5.678   0.034   6.523 -0.2328  0.3110 -0.4021
  105MOL0     C14047   5.645   0.168   6.487 -0.3686  0.8912 -0.3236
  105MOL0     O14048   5.526   0.228   6.520 -0.2872 -0.1202 -0.4138
  105MOL0     C14049   5.472   0.328   6.433  0.6788  0.4843 -0.0247
  105MOL0     C14050   5.330   0.319   6.459 -0.1155 -0.3563  0.3482
  105MOL0     C14051   5.295   0.312   6.608  0.0561 -0.9526  0.6392
  105MOL0     C14052   5.142   0.318   6.629  0.5422  0.2294  0.2809
  105MOL0     C14053   5.106   0.324   6.778  0.9410  0.0035  0.7238
  105MOL0     C14054   4.952   0.349   6.792 -0.2861 -0.4125 -0.2803
  105MOL0     C14055   4.928   0.410   6.931  0.3253  0.1628  0.3844
  105MOL0     C14056   4.786   0.387   6.987 -0.6899 -0.1037 -1.1232
  105MOL0     N14057   4.790   0.407   7.136 -0.6321  0.7644  0.0538
  105MOL0     C14058   4.700   0.361   7.219 -0.8197 -0.3386 -0.5272
  105MOL0     C14059   4.741   0.391   7.345  0.8421 -0.0311  0.1249
  105MOL0     C14060   4.684   0.325   7.470 -0.2605 -0.0390 -0.2991
  105MOL0     C14061   4.680   0.406   7.597  0.9540  0.6220  0.2191
  105MOL0     C14062   4.547   0.381   7.677 -0.4964 -0.1919  0.0632
  105MOL0     C14063   4.546   0.465   7.811  0.5218  0.1119  0.7791
  105MOL0     O14064   4.672   0.441   7.874  0.9320  0.5900  0.7863
  105MOL0     C14065   4.707   0.519   7.978 -0.6550 -0.0499  0.4344
  105MOL0     C14066   4.605   0.584   8.057  0.0347 -0.7784  0.1384
  105MOL0     C14067   4.649   0.669   8.163  0.4506  0.3712 -0.0941
  105MOL0     C14068   4.540   0.753   8.236 -0.2273 -0.1048  0.2420
  105MOL0     C14069   4.789   0.678   8.195  0.8571  0.3163  0.0665
  105MOL0     C14070   4.841   0.770   8.300  0.2147  0.9502 -0.7774
  105MOL0     O14071   4.968   0.820   8.269  0.0069 -0.2956 -0.0986
  105MOL0     C14072   5.019   0.913   8.356 -0.4477  0.6186  0.6350
  105MOL0     C14073   4.978   1.048   8.355 -0.7245 -0.3512 -0.5350
  105MOL0     C14074   5.047   1.142   8.434 -0.4503  0.3023 -0.2499
  105MOL0     C14075   5.143   1.105   8.533  0.4858  0.4102 -1.2943
  105MOL0     O14076   5.190   1.205   8.623 -0.2755  0.3701  0.0122
  105MOL0     C14077   5.330   1.233   8.608 -0.1305  0.0174  1.5749
  105MOL0     C14078   5.387   1.236   8.460 -0.3431 -0.1577  0.3690
  105MOL0     C14079   5.537   1.281   8.465 -0.2166  0.0922 -0.2267
  105MOL0     C14080   5.591   1.295   8.325  0.0450 -0.8760 -0.9383
  105MOL0     C14081   5.718   1.385   8.324  0.0999 -0.0974 -0.2159
  105MOL0     C14082   5.803   1.360   8.194 -0.2612 -1.7651 -0.3420
  105MOL0     C14083   5.932   1.450   8.189  0.0845  0.5220 -0.5120
  105MOL0     C14084   6.003   1.434   8.052  0.2305 -0.8763 -0.1674
  105MOL0    Cl14085   6.128   1.547   8.039 -0.2143  0.2253  0.0648
  105MOL0     C14086   5.184   0.970   8.537 -0.4801 -0.2543  0.6013
  105MOL0     C14087   5.119   0.880   8.445 -1.2494  0.7115  0.4550
  105MOL0     O14088   4.780   0.783   8.408  0.1099  0.5116 -0.1407
  105MOL0     C14089   4.884   0.609   8.118  0.5645  0.8876  0.5331
  105MOL0     C14090   4.839   0.523   8.016 -0.0496  0.1230  0.6534
  105MOL0     N14091   4.851   0.469   7.335  1.5740 -1.6619  0.3039
  105MOL0     N14092   4.877   0.485   7.209 -0.4747 -0.0920 -0.7344
  105MOL0     C14093   5.742   0.230   6.396 -0.4071 -0.0882  0.1885
  105MOL0     C14094   5.856   0.167   6.355  0.6886 -0.4048  0.3546
  105MOL0     C14095   6.231  -0.073   6.351 -0.2567 -0.1982 -0.0492
  105MOL0     C14096   6.198  -0.210   6.326  0.0110  0.5851 -0.2245
  105MOL0     C14097   6.309  -0.302   6.325  0.3379 -0.3100  0.8835
  105MOL0     C14098   6.442  -0.261   6.345  0.1581  0.3810 -0.3896
  105MOL0     O14099   6.544  -0.355   6.356  0.4884 -0.3464  0.3452
  105MOL0     C14100   6.530  -0.481   6.292  0.4472  0.1297  0.1301
  105MOL0     C14101   6.657  -0.564   6.294 -0.0056  0.2470 -0.4334
  105MOL0     C14102   6.777  -0.481   6.345 -0.3181 -0.0304 -0.1951
  105MOL0     C14103   6.911  -0.562   6.354  0.4939  0.1961 -0.3852
  105MOL0     C14104   6.892  -0.687   6.428 -0.2213 -1.2762 -0.3345
  105MOL0     C14105   6.872  -0.797   6.475  0.5494 -0.0254 -0.1138
  105MOL0     C14106   6.466  -0.131   6.376 -0.2641 -0.8136  0.2236
  105MOL0     C14107   6.361  -0.041   6.378 -0.5159 -1.3594  0.7596
  105MOL0     H14108   5.804  -0.123   6.528 -2.2021  0.1988 -0.1765
  105MOL0     H14109   5.605  -0.011   6.590 -0.5179  2.2003  0.6133
  105MOL0     H14110   5.497   0.432   6.454  0.7580  0.5717 -0.5514
  105MOL0     H14111   5.484   0.301   6.328  0.6949  1.5582 -0.3085
  105MOL0     H14112   5.283   0.411   6.424  2.7223  0.3302 -1.9576
  105MOL0     H14113   5.287   0.229   6.415 -1.6231 -1.0721  3.0641
  105MOL0     H14114   5.338   0.229   6.665 -0.5757 -1.3891  0.4968
  105MOL0     H14115   5.336   0.401   6.655  0.7284 -0.4415 -0.8412
  105MOL0     H14116   5.092   0.393   6.567 -1.4088 -1.7216 -0.6732
  105MOL0     H14117   5.108   0.221   6.591  2.3698 -0.2942 -0.1109
  105MOL0     H14118   5.121   0.228   6.828 -1.6494 -0.8770 -0.0306
  105MOL0     H14119   5.172   0.400   6.821  3.1248 -0.5981 -1.3543
  105MOL0     H14120   4.913   0.415   6.713 -2.1148 -1.7937 -0.5920
  105MOL0     H14121   4.910   0.249   6.793  1.3590 -1.1864  2.7733
  105MOL0     H14122   4.997   0.363   7.002 -1.9703 -0.9024  2.0529
  105MOL0     H14123   4.945   0.518   6.936  1.5578 -0.0676  2.8222
  105MOL0     H14124   4.737   0.294   6.959  1.8195 -1.9525  0.2744
  105MOL0     H14125   4.728   0.461   6.931 -3.9248 -1.1930  0.5634
  105MOL0     H14126   4.617   0.298   7.189 -1.9702  0.1141  1.5704
  105MOL0     H14127   4.588   0.284   7.439  0.0192 -1.0340  0.1049
  105MOL0     H14128   4.752   0.240   7.485  0.2581  0.5599  0.9036
  105MOL0     H14129   4.691   0.514   7.583 -0.2077  1.1834  3.1132
  105MOL0     H14130   4.770   0.375   7.650 -1.3962 -3.5918  2.2465
  105MOL0     H14131   4.559   0.275   7.699  2.7228  0.6105  3.3603
  105MOL0     H14132   4.458   0.408   7.620 -0.9020 -0.9719  0.3174
  105MOL0     H14133   4.483   0.416   7.886 -1.8366 -0.6038 -1.5113
  105MOL0     H14134   4.517   0.569   7.797 -0.5648 -0.0019  1.9749
  105MOL0     H14135   4.502   0.596   8.027 -0.1621 -3.1605 -0.3877
  105MOL0     H14136   4.438   0.718   8.215  0.1569 -1.5051  0.5802
  105MOL0     H14137   4.543   0.749   8.345  1.1340 -0.9029  0.1956
  105MOL0     H14138   4.539   0.855   8.198 -1.8668 -0.6887 -1.4578
  105MOL0     H14139   4.901   1.087   8.289 -3.0111 -0.5178  1.8749
  105MOL0     H14140   5.022   1.248   8.441  0.5504  0.4551  3.3003
  105MOL0     H14141   5.338   1.337   8.642  1.6376  0.1127  0.9443
  105MOL0     H14142   5.388   1.172   8.677  1.2151 -0.4495  0.0708
  105MOL0     H14143   5.384   1.135   8.417  0.6008 -0.5346  1.1619
  105MOL0     H14144   5.323   1.298   8.396 -1.0891 -0.4012  0.8587
  105MOL0     H14145   5.600   1.209   8.519 -1.2301 -0.6407  0.0191
  105MOL0     H14146   5.537   1.369   8.528 -1.4946 -0.5661  0.7540
  105MOL0     H14147   5.615   1.195   8.289  2.3686 -0.8677  0.3896
  105MOL0     H14148   5.516   1.344   8.263 -1.0996 -0.5195  0.6466
  105MOL0     H14149   5.776   1.354   8.411  0.6414 -3.9562 -1.7750
  105MOL0     H14150   5.686   1.489   8.339 -1.2572  0.2900 -4.5086
  105MOL0     H14151   5.828   1.254   8.190  2.8875 -1.1804  1.3617
  105MOL0     H14152   5.729   1.381   8.116 -2.7571 -0.5994  2.1554
  105MOL0     H14153   5.998   1.410   8.267  1.5961  1.8865 -1.0158
  105MOL0     H14154   5.914   1.555   8.214 -0.3717  0.6467 -1.3371
  105MOL0     H14155   5.922   1.465   7.985 -2.0426  0.2254  2.8106
  105MOL0     H14156   6.038   1.332   8.033  0.3248 -1.1770  1.4975
  105MOL0     H14157   5.265   0.927   8.595  0.0944 -0.4046 -0.3022
  105MOL0     H14158   5.154   0.777   8.437  1.5766  1.6038  0.3776
  105MOL0     H14159   4.991   0.624   8.127  0.5056  1.5555  0.2039
  105MOL0     H14160   4.914   0.480   7.951 -1.8403 -1.8421 -0.2151
  105MOL0     H14161   5.726   0.332   6.360 -2.2127  1.5340  4.8014
  105MOL0     H14162   5.935   0.222   6.304 -0.4240  1.7146  0.8036
  105MOL0     H14163   6.101  -0.250   6.298 -1.3214  2.8298  0.9168
  105MOL0     H14164   6.287  -0.406   6.307  2.2829 -0.5569 -0.3597
  105MOL0     H14165   6.455  -0.545   6.339  0.5812  1.4914  2.3385
  105MOL0     H14166   6.492  -0.468   6.190 -0.8760 -0.8161  0.4761
  105MOL0     H14167   6.687  -0.596   6.194  0.4599  1.4905 -0.7178
  105MOL0     H14168   6.644  -0.653   6.356 -1.1173 -2.4053 -4.1479
  105MOL0     H14169   6.757  -0.437   6.443 -1.8731  0.2198 -0.6049
  105MOL0     H14170   6.797  -0.396   6.280 -2.8613  2.2534  1.8273
  105MOL0     H14171   6.983  -0.498   6.405 -1.2277  1.3208  0.7070
  105MOL0     H14172   6.945  -0.592   6.254  2.1451 -1.5579  0.6011
  105MOL0     H14173   6.860  -0.901   6.498  1.1529  0.8202  5.1575
  105MOL0     H14174   6.569  -0.100   6.388  0.5783 -2.1207 -2.8243
  105MOL0     H14175   6.385   0.064   6.380 -0.0975 -1.3938 -1.1714
  106MOL0     O14176   4.277   8.883  10.755  0.7803  0.4386  0.1986
  106MOL0     C14177   4.379   8.923  10.698 -0.4989 -0.1205 -0.0134
  106MOL0     O14178   4.403   8.911  10.563 -0.7884  0.5757  0.1344
  106MOL0     C14179   4.305   8.837  10.505 -0.4612  0.0087  0.3498
  106MOL0     C14180   4.199   8.899  10.443  0.2245 -0.5875 -0.5157
  106MOL0     C14181   4.095   8.821  10.379 -0.4711 -0.1664  0.0241
  106MOL0     C14182   4.090   8.683  10.387  0.1270  0.3664  0.0588
  106MOL0     O14183   4.004   8.609  10.322  0.1214 -0.1392 -0.4760
  106MOL0     C14184   3.872   8.671  10.332  0.1503 -0.0086  0.7728
  106MOL0     C14185   3.756   8.579  10.283  0.0601  0.1439 -0.4506
  106MOL0     C14186   3.712   8.609  10.147  0.0394  0.9370 -0.4885
  106MOL0     C14187   3.594   8.516  10.089 -0.0952  0.0690  1.1298
  106MOL0     C14188   3.567   8.552   9.938 -0.4948 -0.1701  0.4521
  106MOL0     C14189   3.472   8.454   9.877 -0.2216  0.1720  0.1531
  106MOL0     C14190   3.336   8.450   9.950  0.1430 -0.5259 -0.0808
  106MOL0     C14191   3.218   8.414   9.855  0.1318 -0.0349 -0.0140
  106MOL0     N14192   3.088   8.413   9.909  0.4836 -0.5070 -0.0999
  106MOL0     C14193   3.039   8.342  10.009  0.5264 -0.6091 -0.7624
  106MOL0     C14194   2.902   8.363  10.013 -1.0878  0.9006  0.3669
  106MOL0     C14195   2.814   8.285  10.108 -0.9975 -0.3636  0.5893
  106MOL0     C14196   2.674   8.281  10.068  0.7648 -0.9866 -0.3653
  106MOL0     C14197   2.601   8.411  10.100  0.1996  1.0448 -1.1294
  106MOL0     C14198   2.451   8.390  10.053  0.0120  0.0045  0.3764
  106MOL0     O14199   2.395   8.319  10.168  0.3241 -0.1122  0.3779
  106MOL0     C14200   2.264   8.320  10.189  1.6822  0.3399 -0.3130
  106MOL0     C14201   2.216   8.338  10.320 -0.4980  0.9408  0.0894
  106MOL0     C14202   2.072   8.336  10.343 -0.1237 -0.3309 -0.3466
  106MOL0     C14203   2.039   8.364  10.484 -0.2072  0.3470 -0.2017
  106MOL0     C14204   1.981   8.325  10.233  0.3317  1.3829  0.3406
  106MOL0     C14205   1.834   8.324  10.240  0.5484 -0.0752 -0.0231
  106MOL0     O14206   1.760   8.322  10.121 -0.6371 -0.3214  0.0311
  106MOL0     C14207   1.623   8.325  10.133 -0.6550  0.6722  0.6141
  106MOL0     C14208   1.554   8.219  10.071  0.2371 -0.4699 -0.6133
  106MOL0     C14209   1.417   8.210  10.071 -0.6860 -0.0851 -0.4075
  106MOL0     C14210   1.334   8.285  10.151 -0.1148 -0.1285  0.6837
  106MOL0     O14211   1.201   8.264  10.168  0.2357 -0.5033 -0.3118
  106MOL0     C14212   1.141   8.199  10.052 -0.1962 -0.3804 -0.2301
  106MOL0     C14213   0.991   8.214  10.089  0.4228 -0.0265  0.5007
  106MOL0     C14214   0.947   8.159  10.229 -0.5185  0.1986 -0.8960
  106MOL0     C14215   0.954   8.002  10.227  0.5847 -0.1514 -1.0160
  106MOL0     C14216   0.977   7.968  10.367 -0.8960 -0.4481 -0.3213
  106MOL0     C14217   0.859   7.987  10.464  0.6675  0.7977  0.5632
  106MOL0     C14218   0.739   7.890  10.437 -0.3667  0.2619 -0.1239
  106MOL0     C14219   0.621   7.916  10.535  0.6539 -0.0152 -0.0536
  106MOL0    Cl14220   0.664   7.887  10.710 -0.0456  0.4094 -0.6140
  106MOL0     C14221   1.395   8.388  10.228 -1.5468  0.0590  0.0424
  106MOL0     C14222   1.539   8.406  10.217  0.0675  0.1465 -0.9286
  106MOL0     O14223   1.788   8.305  10.353  0.7133 -0.7781 -0.0811
  106MOL0     C14224   2.033   8.324  10.100 -0.3534 -0.6807 -0.1810
  106MOL0     C14225   2.171   8.308  10.084 -0.7863 -0.8217  0.4703
  106MOL0     N14226   2.873   8.453   9.916 -0.1251 -0.4872  0.4339
  106MOL0     N14227   2.989   8.490   9.861  0.0975  0.4046  0.2874
  106MOL0     C14228   4.198   8.624  10.453  0.0035  0.5710  0.2475
  106MOL0     C14229   4.313   8.691  10.501  0.3359 -0.6141 -0.0701
  106MOL0     C14230   4.464   9.016  10.776 -0.5776  0.1873 -0.3423
  106MOL0     C14231   4.580   9.068  10.704  1.2282  0.6426  0.2149
  106MOL0     C14232   4.660   9.167  10.771  0.0255  0.0778 -0.8499
  106MOL0     C14233   4.624   9.202  10.900  0.4022  0.0910 -0.0021
  106MOL0     O14234   4.723   9.272  10.965  1.1219 -0.1501 -1.0726
  106MOL0     C14235   4.688   9.347  11.085  0.2498 -0.0033 -0.2419
  106MOL0     C14236   4.796   9.447  11.112 -0.2418 -0.2573  0.0411
  106MOL0     C14237   4.786   9.509  11.254 -0.3203 -0.6573 -0.1792
  106MOL0     C14238   4.914   9.485  11.328 -0.3338 -0.0820 -0.1099
  106MOL0     C14239   5.027   9.577  11.309  1.0143  0.0355  0.7128
  106MOL0     C14240   5.110   9.657  11.283  0.1658 -0.5423 -0.5944
  106MOL0     C14241   4.509   9.151  10.962  0.3214  0.2894 -0.1733
  106MOL0     C14242   4.434   9.052  10.904 -0.0796  0.4684 -0.4977
  106MOL0     H14243   4.202   9.003  10.413 -2.0979 -1.2313 -3.3817
  106MOL0     H14244   4.023   8.884  10.329 -0.2969  1.1297  1.3501
  106MOL0     H14245   3.844   8.685  10.437 -4.1448 -1.3540  0.0258
  106MOL0     H14246   3.865   8.765  10.277  0.8285 -0.8011 -0.7543
  106MOL0     H14247   3.808   8.482  10.278 -1.4356 -0.6431 -1.5966
  106MOL0     H14248   3.678   8.580  10.359  1.1762 -0.5560  0.7482
  106MOL0     H14249   3.677   8.713  10.145 -0.0296  0.9263  0.0018
  106MOL0     H14250   3.800   8.595  10.085  1.2429 -0.8597  1.4997
  106MOL0     H14251   3.612   8.409  10.102  0.9934  0.2626  1.3692
  106MOL0     H14252   3.509   8.542  10.153 -0.0568 -1.1554  1.6963
  106MOL0     H14253   3.544   8.659   9.933  1.7740  0.3608  0.1188
  106MOL0     H14254   3.654   8.540   9.873  0.3715  1.6732  1.1842
  106MOL0     H14255   3.458   8.486   9.773  1.5021 -2.2005 -0.9147
  106MOL0     H14256   3.514   8.353   9.877 -0.0589  0.2241  1.3126
  106MOL0     H14257   3.337   8.394  10.043  0.8782 -1.3117 -0.5485
  106MOL0     H14258   3.309   8.548   9.991 -1.8944 -1.6466  1.4807
  106MOL0     H14259   3.230   8.311   9.821  4.8358 -0.1364  1.2257
  106MOL0     H14260   3.220   8.494   9.780  2.5939  0.8865  0.9508
  106MOL0     H14261   3.092   8.269  10.070 -1.4326 -2.4304 -1.1504
  106MOL0     H14262   2.837   8.179  10.111 -0.9725 -0.3334  2.3361
  106MOL0     H14263   2.837   8.332  10.204  0.8573  2.9454 -1.2937
  106MOL0     H14264   2.619   8.201  10.118 -1.3692  0.2429 -0.6520
  106MOL0     H14265   2.662   8.252   9.963 -0.2746 -3.2465  0.3262
  106MOL0     H14266   2.640   8.483  10.028  1.5213  1.1256 -0.3648
  106MOL0     H14267   2.621   8.442  10.203  0.1559 -1.5515 -0.2706
  106MOL0     H14268   2.448   8.341   9.956  3.9715  1.0077 -0.4237
  106MOL0     H14269   2.410   8.491  10.052 -1.9565 -0.7545 -0.8678
  106MOL0     H14270   2.293   8.350  10.396  1.5643  2.4803 -2.0935
  106MOL0     H14271   2.119   8.343  10.556 -1.4708 -4.6481  0.1607
  106MOL0     H14272   1.993   8.461  10.503  1.1216  0.7843  0.9689
  106MOL0     H14273   1.977   8.287  10.532 -0.5489  0.6439 -0.1640
  106MOL0     H14274   1.614   8.141  10.025  2.7592  0.8569  0.2536
  106MOL0     H14275   1.365   8.134  10.012 -1.4165  1.2116 -1.4914
  106MOL0     H14276   1.152   8.262   9.964 -0.4977  1.8874  1.2532
  106MOL0     H14277   1.171   8.095  10.042  2.1016  0.2609 -0.5511
  106MOL0     H14278   0.964   8.320  10.078  0.9088  0.1223  0.7108
  106MOL0     H14279   0.941   8.150  10.016  2.4858  0.9732 -1.9823
  106MOL0     H14280   0.843   8.188  10.247  0.0578  1.0452  1.4491
  106MOL0     H14281   1.003   8.201  10.313 -1.5677  0.6448 -0.4007
  106MOL0     H14282   0.875   7.950  10.172  1.4939 -0.2956 -2.2262
  106MOL0     H14283   1.041   7.982  10.163  0.5186  3.6484 -2.5443
  106MOL0     H14284   1.064   8.017  10.412 -0.4211 -1.0779 -0.5333
  106MOL0     H14285   0.999   7.861  10.365 -0.1320 -0.3544 -4.2475
  106MOL0     H14286   0.896   7.969  10.565  1.9897  0.2395 -0.0033
  106MOL0     H14287   0.805   8.082  10.454 -1.0499 -0.1738  0.0531
  106MOL0     H14288   0.784   7.791  10.444  1.5027  0.9744 -1.2399
  106MOL0     H14289   0.705   7.903  10.334 -1.7942 -1.7290  0.0360
  106MOL0     H14290   0.541   7.859  10.486  2.9367 -1.6878 -2.0693
  106MOL0     H14291   0.591   8.021  10.526  0.5519 -0.2033 -2.9815
  106MOL0     H14292   1.342   8.448  10.301  0.0992  1.1828  0.3582
  106MOL0     H14293   1.588   8.486  10.272 -1.0577  0.3274 -0.1473
  106MOL0     H14294   1.974   8.332  10.010  3.2258 -1.5817 -2.8202
  106MOL0     H14295   2.214   8.307   9.985 -2.0171 -2.8690 -0.1055
  106MOL0     H14296   4.217   8.518  10.442  0.9637  0.7928 -0.4061
  106MOL0     H14297   4.385   8.617  10.535 -0.0473 -0.9238  0.0813
  106MOL0     H14298   4.601   9.043  10.601 -2.8384  1.0448 -0.8614
  106MOL0     H14299   4.751   9.203  10.725  0.3871  0.1473 -0.0876
  106MOL0     H14300   4.596   9.401  11.062  1.0870  0.9178 -1.6093
  106MOL0     H14301   4.681   9.274  11.166 -0.6266  0.0541 -0.2572
  106MOL0     H14302   4.782   9.516  11.029  0.8420 -0.4769 -0.3364
  106MOL0     H14303   4.898   9.410  11.101  0.1556 -1.1192  4.4912
  106MOL0     H14304   4.703   9.459  11.305  0.2757 -1.5290 -0.0362
  106MOL0     H14305   4.768   9.616  11.268 -1.1227 -1.0897  2.6317
  106MOL0     H14306   4.951   9.384  11.309  1.2648  0.5339 -0.4149
  106MOL0     H14307   4.889   9.495  11.434  0.9590  0.5981  0.1554
  106MOL0     H14308   5.181   9.729  11.249 -0.7948 -0.4738 -2.6294
  106MOL0     H14309   4.486   9.169  11.067 -0.5583 -0.7836 -0.1766
  106MOL0     H14310   4.358   9.004  10.965  0.4443  0.7816  0.4331
  107MOL0     O14311  10.369   6.427   8.010 -0.4337 -0.3253  0.2487
  107MOL0     C14312  10.463   6.354   7.978 -0.1619 -0.0737 -0.2277
  107MOL0     O14313  10.595   6.365   8.006  0.0160  0.0794 -0.2874
  107MOL0     C14314  10.623   6.463   8.103 -0.3844 -0.7151 -0.4619
  107MOL0     C14315  10.600   6.598   8.076 -0.2554  0.2094  0.0267
  107MOL0     C14316  10.649   6.693   8.164  0.4011 -0.6868  0.3124
  107MOL0     C14317  10.700   6.662   8.284 -0.3019  1.2454 -1.1521
  107MOL0     O14318  10.736   6.757   8.375 -0.5536  0.1092  0.1646
  107MOL0     C14319  10.631   6.779   8.467  0.3867 -0.2721 -0.6013
  107MOL0     C14320  10.683   6.864   8.585  0.3283 -0.1203 -0.8504
  107MOL0     C14321  10.579   6.927   8.681  0.0034  0.0942 -0.1916
  107MOL0     C14322  10.500   7.042   8.620 -0.6232 -0.6632 -0.6746
  107MOL0     C14323  10.400   7.094   8.723 -0.0930  0.9330 -0.4691
  107MOL0     C14324  10.270   7.012   8.724  0.5503  0.7121 -0.7486
  107MOL0     C14325  10.180   7.075   8.839  0.1475  0.4722  0.7392
  107MOL0     C14326  10.143   7.220   8.825  0.1749 -1.3059  0.6308
  107MOL0     N14327  10.090   7.255   8.694  0.0784 -0.3909 -0.3567
  107MOL0     C14328  10.118   7.373   8.630 -0.8544 -0.6469  0.4127
  107MOL0     C14329  10.027   7.384   8.530  0.3303 -0.4201  0.4028
  107MOL0     C14330  10.001   7.502   8.438 -0.2825 -0.3951 -0.1875
  107MOL0     C14331   9.885   7.582   8.504 -0.7376 -0.6894 -0.4733
  107MOL0     C14332   9.842   7.700   8.415  0.1682 -0.7689 -0.7608
  107MOL0     C14333   9.726   7.780   8.482  0.4790  0.1702  0.1916
  107MOL0     O14334   9.601   7.712   8.449  0.2363 -0.3555  0.6674
  107MOL0     C14335   9.491   7.788   8.419 -0.1355 -0.0167 -0.3817
  107MOL0     C14336   9.476   7.908   8.491  0.0575  1.0733 -0.8653
  107MOL0     C14337   9.362   7.985   8.476  0.0961 -0.9913 -0.2528
  107MOL0     C14338   9.369   8.124   8.539 -0.2669  0.0991 -0.2019
  107MOL0     C14339   9.253   7.937   8.400  0.0086 -0.5492 -0.2982
  107MOL0     C14340   9.116   8.004   8.385 -0.7491 -0.3627  0.5391
  107MOL0     O14341   9.044   7.990   8.270  0.1984  0.2965 -0.8913
  107MOL0     C14342   8.909   8.009   8.294  0.0691 -0.2449  0.0282
  107MOL0     C14343   8.838   7.919   8.378  0.2494  0.0742 -0.1252
  107MOL0     C14344   8.704   7.940   8.418  0.7935 -0.1720  0.3874
  107MOL0     C14345   8.637   8.039   8.354  0.7688 -0.8723 -0.5551
  107MOL0     O14346   8.510   8.070   8.388  0.1405  0.3338 -0.3344
  107MOL0     C14347   8.482   8.105   8.523  0.0486 -0.4482 -0.7305
  107MOL0     C14348   8.544   8.242   8.534 -0.4784 -0.3436  0.5131
  107MOL0     C14349   8.519   8.290   8.674 -0.1290  0.3852  0.0807
  107MOL0     C14350   8.605   8.412   8.703 -0.9625 -0.0752  0.5126
  107MOL0     C14351   8.593   8.445   8.849 -0.3687 -0.0376 -0.3644
  107MOL0     C14352   8.447   8.458   8.904  0.2359  0.3290 -0.1644
  107MOL0     C14353   8.362   8.567   8.843 -0.4010 -0.8393  0.2565
  107MOL0     C14354   8.242   8.602   8.922  0.3751  1.0715 -1.3025
  107MOL0    Cl14355   8.127   8.455   8.945  0.1873  0.3872  0.3221
  107MOL0     C14356   8.695   8.130   8.262  0.5591  0.1732  0.0203
  107MOL0     C14357   8.831   8.112   8.233 -0.0272 -0.2554 -0.3354
  107MOL0     O14358   9.086   8.088   8.473 -0.0913  1.0909 -0.1898
  107MOL0     C14359   9.269   7.816   8.339 -0.1155  0.1737  0.5496
  107MOL0     C14360   9.386   7.737   8.348 -0.8869 -0.3274  0.2044
  107MOL0     N14361   9.952   7.268   8.538  0.3153 -0.0735  0.4393
  107MOL0     N14362   9.983   7.196   8.632  0.7703  0.5572  0.1894
  107MOL0     C14363  10.730   6.529   8.313 -0.0961  0.7960  1.8166
  107MOL0     C14364  10.692   6.432   8.219  1.1991  0.8879  0.0416
  107MOL0     C14365  10.416   6.250   7.884  0.6747  0.1210  0.4755
  107MOL0     C14366  10.501   6.181   7.802 -0.7097 -0.5167  0.5175
  107MOL0     C14367  10.465   6.107   7.687  0.2211  0.3029  0.3474
  107MOL0     C14368  10.328   6.070   7.680 -0.2096  0.0666  0.1102
  107MOL0     O14369  10.289   5.978   7.580  0.0579 -0.9577 -0.6286
  107MOL0     C14370  10.149   5.977   7.530  0.7968  0.0979 -1.3469
  107MOL0     C14371  10.132   5.888   7.408 -0.5394  0.0992  0.6693
  107MOL0     C14372  10.171   5.964   7.290  0.1854 -0.3212  0.3861
  107MOL0     C14373  10.153   5.888   7.158  0.3607 -0.1421 -0.3777
  107MOL0     C14374  10.141   5.966   7.038 -0.3503 -0.1352  0.4006
  107MOL0     C14375  10.142   6.021   6.932  0.2428 -0.2121  0.1749
  107MOL0     C14376  10.237   6.125   7.775 -0.5794  0.6450 -0.3677
  107MOL0     C14377  10.279   6.219   7.871 -0.3588  0.6131  0.5351
  107MOL0     H14378  10.553   6.639   7.987  2.2554  0.7692 -1.1346
  107MOL0     H14379  10.644   6.794   8.125  1.6940 -0.6896  0.1195
  107MOL0     H14380  10.543   6.829   8.426 -1.6000 -3.5216 -0.5568
  107MOL0     H14381  10.592   6.686   8.508  2.5706 -2.0550 -2.3274
  107MOL0     H14382  10.751   6.805   8.647  0.4611 -0.8318 -1.6588
  107MOL0     H14383  10.741   6.946   8.542 -0.2933  1.0407  0.4822
  107MOL0     H14384  10.512   6.847   8.712  0.4082  0.7139  2.4807
  107MOL0     H14385  10.631   6.973   8.765  1.5702 -2.0981  0.1106
  107MOL0     H14386  10.555   7.133   8.596 -0.4383 -0.5846  0.0461
  107MOL0     H14387  10.445   7.008   8.531 -2.5896  1.2330 -0.2754
  107MOL0     H14388  10.447   7.104   8.821  1.3022  0.6053 -1.0717
  107MOL0     H14389  10.378   7.194   8.683  1.5331  0.9725 -1.3789
  107MOL0     H14390  10.221   6.997   8.627  1.3253 -1.3530 -0.8875
  107MOL0     H14391  10.281   6.911   8.765  3.0171  1.2683  0.1502
  107MOL0     H14392  10.086   7.020   8.839 -1.9435  3.5654 -3.0733
  107MOL0     H14393  10.219   7.068   8.942 -1.2171 -1.2402  1.1874
  107MOL0     H14394  10.233   7.275   8.854  0.2221 -2.2802  2.4813
  107MOL0     H14395  10.079   7.261   8.903 -0.0564 -1.7966  0.7019
  107MOL0     H14396  10.201   7.439   8.652 -1.3237  0.6841 -1.5574
  107MOL0     H14397  10.089   7.565   8.422 -2.6666  2.7538 -2.2244
  107MOL0     H14398   9.973   7.477   8.335 -1.2543  0.7690 -0.2361
  107MOL0     H14399   9.913   7.614   8.605 -0.0420  1.6713 -1.3396
  107MOL0     H14400   9.800   7.515   8.516  1.5944 -3.6053  1.4494
  107MOL0     H14401   9.811   7.660   8.318  1.9742 -1.9626 -0.8988
  107MOL0     H14402   9.919   7.777   8.402 -1.9258  1.5515 -0.2875
  107MOL0     H14403   9.724   7.880   8.438 -1.0155  0.4908  0.9111
  107MOL0     H14404   9.725   7.779   8.592 -1.5954 -1.2391  0.2147
  107MOL0     H14405   9.551   7.939   8.563  0.5581  1.4709 -1.5420
  107MOL0     H14406   9.299   8.182   8.479 -1.0157 -0.6374 -0.0544
  107MOL0     H14407   9.334   8.115   8.642  3.7526  0.0391  1.3721
  107MOL0     H14408   9.473   8.158   8.543 -0.1714  0.0300 -1.7478
  107MOL0     H14409   8.897   7.846   8.432 -0.9275 -0.9692 -0.1755
  107MOL0     H14410   8.653   7.874   8.488 -2.5642 -0.5442 -2.1567
  107MOL0     H14411   8.375   8.116   8.546  0.0566 -0.6214 -0.6069
  107MOL0     H14412   8.525   8.040   8.599  0.1876  2.5730  2.0045
  107MOL0     H14413   8.649   8.241   8.505 -0.8843  0.5936 -1.1045
  107MOL0     H14414   8.492   8.309   8.465 -4.0977 -2.9597  0.3945
  107MOL0     H14415   8.557   8.208   8.736  0.2755 -2.1885 -3.2642
  107MOL0     H14416   8.414   8.314   8.692 -0.4513 -0.2548 -0.8813
  107MOL0     H14417   8.706   8.379   8.680 -0.4471  0.7568  1.4819
  107MOL0     H14418   8.580   8.503   8.648  0.8287  0.1763  0.0459
  107MOL0     H14419   8.643   8.539   8.875  0.6979 -1.2619  2.3788
  107MOL0     H14420   8.651   8.365   8.896  2.8306  1.9016 -0.6937
  107MOL0     H14421   8.389   8.366   8.897  0.2766 -0.1138  3.3693
  107MOL0     H14422   8.453   8.473   9.012 -2.4172 -0.7721  0.2074
  107MOL0     H14423   8.328   8.537   8.743 -1.1842  0.6812  0.0436
  107MOL0     H14424   8.424   8.655   8.822 -0.9546 -0.8298 -1.5625
  107MOL0     H14425   8.193   8.691   8.882  1.8831  3.2155  1.2816
  107MOL0     H14426   8.279   8.631   9.021  0.2584  1.4034 -1.3530
  107MOL0     H14427   8.635   8.210   8.219 -1.6985 -1.4809 -0.0766
  107MOL0     H14428   8.884   8.183   8.171 -1.8643  1.1642 -0.3897
  107MOL0     H14429   9.186   7.781   8.278  1.0314  1.3449 -1.8373
  107MOL0     H14430   9.393   7.642   8.296  2.0649  0.1054 -0.3493
  107MOL0     H14431  10.780   6.505   8.406  2.5239  0.5395  0.4320
  107MOL0     H14432  10.707   6.329   8.250  0.7464  1.0413  0.7939
  107MOL0     H14433  10.607   6.199   7.821 -0.6157  0.7781 -1.0712
  107MOL0     H14434  10.539   6.055   7.627  2.4308  0.4251  2.7637
  107MOL0     H14435  10.084   5.935   7.608  3.5951 -4.0205 -0.9047
  107MOL0     H14436  10.111   6.075   7.501 -3.0516 -0.1070  1.9694
  107MOL0     H14437  10.030   5.850   7.393  0.3941 -1.4341 -2.5401
  107MOL0     H14438  10.199   5.803   7.422 -0.3970 -0.1366 -1.2169
  107MOL0     H14439  10.275   5.998   7.288  0.2599 -0.5627  0.0542
  107MOL0     H14440  10.107   6.053   7.291 -0.7803 -0.9054 -1.9432
  107MOL0     H14441  10.062   5.828   7.168 -0.6939  1.4930  0.2266
  107MOL0     H14442  10.235   5.817   7.140  1.8674  2.3149 -5.0611
  107MOL0     H14443  10.136   6.069   6.836  0.8703 -4.3621 -2.1626
  107MOL0     H14444  10.135   6.090   7.782  0.2047 -1.4601  1.4974
  107MOL0     H14445  10.201   6.262   7.933 -0.1325  0.0385  1.2351
  108MOL0     O14446   1.522   7.266   6.847  0.9342 -0.6529  0.3537
  108MOL0     C14447   1.458   7.301   6.743 -0.3408 -0.3806 -0.0193
  108MOL0     O14448   1.390   7.414   6.736 -0.1220 -0.2728 -0.2422
  108MOL0     C14449   1.378   7.482   6.854 -0.5125  0.3680 -0.0015
  108MOL0     C14450   1.447   7.598   6.877  0.2727  0.0688  0.0579
  108MOL0     C14451   1.434   7.670   7.000 -0.7122  0.7847  0.1153
  108MOL0     C14452   1.345   7.621   7.096  1.0776  0.5534 -0.2112
  108MOL0     O14453   1.324   7.678   7.222  0.9966  0.2117 -0.3350
  108MOL0     C14454   1.404   7.790   7.257  0.0105 -0.0034  0.5681
  108MOL0     C14455   1.366   7.848   7.388  1.1095 -0.6758 -0.5091
  108MOL0     C14456   1.255   7.955   7.378 -0.1218  0.2748  0.3169
  108MOL0     C14457   1.219   8.002   7.516 -0.4377  0.5940 -0.8816
  108MOL0     C14458   1.115   8.113   7.520 -0.0154 -0.5869 -1.0121
  108MOL0     C14459   1.125   8.183   7.656  0.4525 -1.1353  0.5791
  108MOL0     C14460   1.114   8.085   7.781 -0.6499 -0.2001  0.2502
  108MOL0     C14461   1.106   8.162   7.914 -0.1412  0.3913 -0.4746
  108MOL0     N14462   1.038   8.068   8.004  0.1719  0.0240  0.3108
  108MOL0     C14463   1.107   7.975   8.069 -0.1425  0.8797 -0.3805
  108MOL0     C14464   1.022   7.932   8.167 -1.0369 -0.8272 -0.5268
  108MOL0     C14465   1.066   7.835   8.272 -0.3421  0.1651 -0.0777
  108MOL0     C14466   0.963   7.806   8.372 -0.5213 -0.0848 -0.3845
  108MOL0     C14467   0.851   7.708   8.322 -0.3292 -0.4509 -0.1665
  108MOL0     C14468   0.732   7.708   8.428 -0.2338 -0.4560  0.0682
  108MOL0     O14469   0.779   7.681   8.559 -0.4349 -0.9936 -0.1170
  108MOL0     C14470   0.683   7.652   8.650 -0.5362  0.6306  0.7529
  108MOL0     C14471   0.544   7.662   8.641  0.7850  0.1139 -0.0193
  108MOL0     C14472   0.465   7.621   8.751 -0.3340 -0.5655  0.6579
  108MOL0     C14473   0.317   7.624   8.722  0.7482 -0.3034  0.8739
  108MOL0     C14474   0.511   7.573   8.868  1.0275  0.6638 -0.1673
  108MOL0     C14475   0.426   7.538   8.981  0.3646 -0.3694 -0.4443
  108MOL0     O14476   0.438   7.414   9.025  0.4656  0.0946  0.1775
  108MOL0     C14477   0.330   7.356   9.077  0.1832 -1.2794  0.0400
  108MOL0     C14478   0.212   7.338   9.008 -0.2587  0.2841  0.1667
  108MOL0     C14479   0.101   7.293   9.070  0.2512 -0.9418  0.6778
  108MOL0     C14480   0.106   7.242   9.196 -0.2043  0.0535 -0.0473
  108MOL0     O14481  -0.003   7.198   9.264  0.4068 -0.1298 -0.9418
  108MOL0     C14482  -0.111   7.297   9.291  0.1444 -1.1559  0.2084
  108MOL0     C14483  -0.046   7.419   9.372 -0.6152  0.5442 -0.2864
  108MOL0     C14484  -0.154   7.515   9.435  0.1998  0.4345  0.2552
  108MOL0     C14485  -0.096   7.609   9.535 -0.7378 -0.2146  0.7096
  108MOL0     C14486  -0.204   7.692   9.616 -1.2225 -0.2258 -0.2325
  108MOL0     C14487  -0.123   7.785   9.703  0.7221 -0.3610  0.1726
  108MOL0     C14488  -0.223   7.852   9.798  0.0378 -0.8463 -0.1557
  108MOL0     C14489  -0.135   7.927   9.904 -0.2630 -0.4478  0.6060
  108MOL0    Cl14490  -0.248   8.037   9.980  0.0756 -0.3964  0.2434
  108MOL0     C14491   0.233   7.240   9.264 -0.2615 -0.5603 -0.5943
  108MOL0     C14492   0.343   7.307   9.205 -0.4249  0.3384 -1.1104
  108MOL0     O14493   0.334   7.619   9.008  0.0143 -1.1818  0.5827
  108MOL0     C14494   0.646   7.565   8.884  0.2212  0.4439  0.0939
  108MOL0     C14495   0.732   7.609   8.781 -1.3649 -0.5103  0.0726
  108MOL0     N14496   0.906   8.007   8.158 -0.2502 -0.7898 -0.5787
  108MOL0     N14497   0.910   8.080   8.050 -0.5337 -0.4492 -1.0229
  108MOL0     C14498   1.270   7.513   7.064  0.4733  0.4854 -0.0080
  108MOL0     C14499   1.289   7.443   6.947 -0.6883  0.4614 -0.1380
  108MOL0     C14500   1.459   7.214   6.632 -0.8201  0.9045  0.1898
  108MOL0     C14501   1.371   7.238   6.520  0.1295 -0.1966  0.2092
  108MOL0     C14502   1.355   7.142   6.417 -0.5316 -0.5125 -0.7038
  108MOL0     C14503   1.440   7.027   6.417 -0.9773 -0.2856  0.1229
  108MOL0     O14504   1.436   6.944   6.307  0.0350 -0.0871 -0.3311
  108MOL0     C14505   1.492   6.818   6.304  0.2516  0.1244 -1.1597
  108MOL0     C14506   1.499   6.771   6.160  0.1977  0.3896  0.1718
  108MOL0     C14507   1.531   6.623   6.157  0.1207 -0.0799  0.4028
  108MOL0     C14508   1.630   6.594   6.044 -1.0209 -0.0010 -0.8282
  108MOL0     C14509   1.764   6.643   6.082 -0.2109 -0.1166  0.1638
  108MOL0     C14510   1.877   6.674   6.103  0.3078 -0.3587  0.2085
  108MOL0     C14511   1.533   7.009   6.521  0.2389 -0.6124  0.7621
  108MOL0     C14512   1.540   7.101   6.626 -0.2855 -0.3680  0.2304
  108MOL0     H14513   1.527   7.619   6.808 -0.1003 -1.8187 -1.0001
  108MOL0     H14514   1.488   7.764   7.009 -0.5450  0.8226 -1.0238
  108MOL0     H14515   1.508   7.756   7.268  0.2630  0.2423 -0.8758
  108MOL0     H14516   1.390   7.870   7.184 -1.5182  1.1882  2.1146
  108MOL0     H14517   1.332   7.759   7.442  0.0975 -2.0805 -3.2952
  108MOL0     H14518   1.451   7.904   7.429  0.3714  0.1491 -0.0625
  108MOL0     H14519   1.294   8.046   7.332  1.0121 -0.0613  0.5965
  108MOL0     H14520   1.168   7.926   7.318  2.0177 -1.2852 -2.2621
  108MOL0     H14521   1.163   7.920   7.561  0.9784 -0.7640 -1.4814
  108MOL0     H14522   1.312   8.024   7.571  0.3506 -0.5527 -1.7153
  108MOL0     H14523   1.126   8.181   7.435 -2.4684  1.5980  0.3074
  108MOL0     H14524   1.015   8.078   7.493 -1.4711 -0.3520  3.3697
  108MOL0     H14525   1.219   8.238   7.663  0.0480  0.0381 -1.9623
  108MOL0     H14526   1.042   8.252   7.675  1.2297 -0.3378  1.1077
  108MOL0     H14527   1.039   8.007   7.764  1.2428 -2.2512  0.7377
  108MOL0     H14528   1.207   8.028   7.794 -0.6936 -0.5830 -0.9961
  108MOL0     H14529   1.042   8.249   7.901 -2.0960 -0.5826  1.7816
  108MOL0     H14530   1.207   8.182   7.950  0.0917 -2.3999  0.7187
  108MOL0     H14531   1.212   7.947   8.062  0.0811  1.8530 -1.1045
  108MOL0     H14532   1.093   7.741   8.224 -0.6065 -0.1561  0.3932
  108MOL0     H14533   1.150   7.882   8.323 -0.6359  1.5087 -0.7708
  108MOL0     H14534   0.926   7.906   8.393 -0.5097 -0.2670  0.5544
  108MOL0     H14535   1.002   7.767   8.466  0.8754  1.5517 -0.2278
  108MOL0     H14536   0.891   7.607   8.311 -0.2071 -0.4121 -0.0717
  108MOL0     H14537   0.811   7.755   8.232 -2.3397 -0.3382  0.7252
  108MOL0     H14538   0.653   7.641   8.394 -1.9630  1.0584  0.9592
  108MOL0     H14539   0.688   7.808   8.426  0.1659 -0.2785 -0.0603
  108MOL0     H14540   0.503   7.711   8.554  0.7780  1.5943  0.7765
  108MOL0     H14541   0.281   7.522   8.743 -1.8577  0.0744 -1.1939
  108MOL0     H14542   0.260   7.687   8.792  1.3969 -0.0653  1.1958
  108MOL0     H14543   0.298   7.643   8.616 -0.9535 -3.8598  0.3702
  108MOL0     H14544   0.197   7.371   8.905 -0.4790  3.9211  1.2026
  108MOL0     H14545   0.005   7.297   9.019 -0.1098  0.4972  1.4342
  108MOL0     H14546  -0.150   7.335   9.196  3.6017  0.2340 -0.8048
  108MOL0     H14547  -0.195   7.266   9.354 -1.0726  2.0210  0.3542
  108MOL0     H14548   0.018   7.381   9.452 -0.5594 -0.2991 -0.7228
  108MOL0     H14549   0.028   7.464   9.304  0.1832 -2.1231 -1.3089
  108MOL0     H14550  -0.223   7.446   9.484  1.2600 -1.7598 -1.1934
  108MOL0     H14551  -0.196   7.574   9.353  0.2871  0.2291  0.0617
  108MOL0     H14552  -0.025   7.564   9.606 -0.2850  1.9233  1.7009
  108MOL0     H14553  -0.040   7.677   9.470 -4.9612 -1.5699 -5.1748
  108MOL0     H14554  -0.274   7.633   9.675 -1.2403  0.1439  0.1211
  108MOL0     H14555  -0.256   7.759   9.546  0.4715  2.4532  0.9263
  108MOL0     H14556  -0.038   7.740   9.755  2.0802  1.9336  0.0871
  108MOL0     H14557  -0.076   7.866   9.646 -0.8360  1.3466  1.1722
  108MOL0     H14558  -0.284   7.777   9.850 -0.7503  0.7319  1.2905
  108MOL0     H14559  -0.294   7.917   9.747  0.6236 -2.2308 -2.9462
  108MOL0     H14560  -0.064   7.985   9.845 -0.9125  0.8750  1.0917
  108MOL0     H14561  -0.071   7.861   9.963  2.5782  1.5240 -0.0518
  108MOL0     H14562   0.246   7.203   9.365  0.8165  1.5229  0.1161
  108MOL0     H14563   0.436   7.334   9.255  1.4716 -2.0370 -3.1128
  108MOL0     H14564   0.696   7.535   8.975 -0.9154  0.2741  0.6743
  108MOL0     H14565   0.837   7.606   8.808 -0.9542 -1.3610 -1.4874
  108MOL0     H14566   1.203   7.464   7.134 -1.9680  1.0682 -1.8276
  108MOL0     H14567   1.232   7.353   6.924  0.3107 -0.1317 -0.3537
  108MOL0     H14568   1.303   7.323   6.517  1.9941  1.4025 -2.9733
  108MOL0     H14569   1.269   7.155   6.352 -3.2339  1.0834  2.8068
  108MOL0     H14570   1.593   6.838   6.341 -0.0858  0.0168 -0.1742
  108MOL0     H14571   1.433   6.759   6.374  0.9253  1.2374  0.4210
  108MOL0     H14572   1.573   6.827   6.102  0.7567 -2.0023 -1.6190
  108MOL0     H14573   1.399   6.783   6.118  0.4718  1.6773 -0.1502
  108MOL0     H14574   1.442   6.560   6.154  1.8106 -2.6701  1.3412
  108MOL0     H14575   1.576   6.590   6.251  0.8406 -1.6152 -0.4449
  108MOL0     H14576   1.613   6.642   5.948  1.3248  2.9036  0.0473
  108MOL0     H14577   1.638   6.486   6.030  2.2723  0.1394 -0.8835
  108MOL0     H14578   1.977   6.706   6.125 -0.3101  2.7718 -0.9683
  108MOL0     H14579   1.610   6.933   6.519  1.7470  0.8609  0.5623
  108MOL0     H14580   1.609   7.072   6.704  2.3329 -0.1019 -1.8311
  109MOL0     O14581  10.183   0.009   0.052  0.4675 -0.9519  0.7022
  109MOL0     C14582  10.217  -0.095   0.110 -0.8160 -0.0673 -0.1372
  109MOL0     O14583  10.133  -0.180   0.177  0.0543 -0.6008  0.2867
  109MOL0     C14584   9.997  -0.178   0.140 -0.2751  0.3317  0.2041
  109MOL0     C14585   9.947  -0.188   0.010 -0.1703  0.8967 -0.8115
  109MOL0     C14586   9.810  -0.215  -0.009  0.4420 -0.3789  0.0362
  109MOL0     C14587   9.724  -0.235   0.100 -0.1593  0.7175  0.1652
  109MOL0     O14588   9.591  -0.252   0.086 -0.6299  0.5728  0.5462
  109MOL0     C14589   9.512  -0.217  -0.029  0.2718  0.2326 -0.0405
  109MOL0     C14590   9.359  -0.254  -0.021 -0.4063  0.3470 -0.5967
  109MOL0     C14591   9.283  -0.169   0.083 -0.9317 -0.5019 -0.2384
  109MOL0     C14592   9.130  -0.185   0.051  0.4619 -0.2175  0.2709
  109MOL0     C14593   9.073  -0.306   0.132 -0.1480 -0.3870 -0.8598
  109MOL0     C14594   9.003  -0.274   0.260 -0.6469  0.7174 -0.3971
  109MOL0     C14595   8.862  -0.217   0.236 -0.2528 -0.4683 -0.4509
  109MOL0     C14596   8.822  -0.131   0.350  0.0588  0.4429  0.2831
  109MOL0     N14597   8.682  -0.092   0.350 -0.1369 -0.4385 -0.3412
  109MOL0     C14598   8.585  -0.145   0.431  0.1530  0.6316 -0.4448
  109MOL0     C14599   8.471  -0.080   0.406 -0.2954  0.0919 -0.2896
  109MOL0     C14600   8.335  -0.124   0.466 -0.1207  0.2487  0.3519
  109MOL0     C14601   8.223  -0.018   0.450  0.0751 -0.0155  0.3013
  109MOL0     C14602   8.165  -0.025   0.310  0.1860 -0.1235  0.4484
  109MOL0     C14603   8.078   0.098   0.292 -0.2459  0.0961  0.5110
  109MOL0     O14604   8.024   0.101   0.166  0.3470  0.0359  0.6525
  109MOL0     C14605   7.891   0.128   0.161 -0.0058 -0.2890 -0.6712
  109MOL0     C14606   7.812   0.204   0.255 -0.0471  0.3298 -0.3217
  109MOL0     C14607   7.674   0.221   0.230 -0.6638 -0.2410 -0.0746
  109MOL0     C14608   7.609   0.314   0.337  0.1420 -0.2014  0.6784
  109MOL0     C14609   7.611   0.162   0.121  0.6549 -0.5486  0.8332
  109MOL0     C14610   7.465   0.168   0.095  0.2008 -0.1316 -0.0595
  109MOL0     O14611   7.419   0.080  -0.002 -0.3284 -0.3881 -0.2777
  109MOL0     C14612   7.302   0.107  -0.054 -0.4561  0.5502 -0.0853
  109MOL0     C14613   7.279   0.127  -0.192  0.2243  0.5576  0.6186
  109MOL0     C14614   7.149   0.160  -0.245  0.1218  0.3426 -1.1304
  109MOL0     C14615   7.040   0.150  -0.162 -0.0979  0.7523  0.7805
  109MOL0     O14616   6.916   0.190  -0.218 -1.1183  0.0171  0.5679
  109MOL0     C14617   6.802   0.195  -0.135  0.1323  0.6847 -0.0791
  109MOL0     C14618   6.687   0.245  -0.226  0.2142  0.5162 -0.6874
  109MOL0     C14619   6.549   0.226  -0.150 -0.3926 -0.4741  0.3734
  109MOL0     C14620   6.439   0.273  -0.231  1.1114 -0.1388  0.5472
  109MOL0     C14621   6.302   0.239  -0.166 -0.5021  0.9830  0.0404
  109MOL0     C14622   6.187   0.301  -0.260  0.4707 -0.8603  0.1553
  109MOL0     C14623   6.040   0.295  -0.203  0.1135 -0.5492 -0.3779
  109MOL0     C14624   5.951   0.404  -0.257  0.3023  0.8001 -0.6258
  109MOL0    Cl14625   5.949   0.398  -0.439  0.1470 -0.0474 -0.2068
  109MOL0     C14626   7.059   0.103  -0.029  0.3048  0.0145 -0.0139
  109MOL0     C14627   7.186   0.095   0.030 -0.4209  0.4302  0.4773
  109MOL0     O14628   7.398   0.255   0.148 -0.4665  0.5776 -0.4391
  109MOL0     C14629   7.692   0.094   0.029  0.3085 -0.1331 -1.1573
  109MOL0     C14630   7.826   0.072   0.053 -0.0518 -0.3364 -0.9240
  109MOL0     N14631   8.506   0.014   0.311 -0.5281 -0.3894  0.0772
  109MOL0     N14632   8.633   0.014   0.283  1.0902 -0.3392 -0.2882
  109MOL0     C14633   9.782  -0.252   0.222  0.2940  0.6251 -0.4309
  109MOL0     C14634   9.913  -0.219   0.246  0.2861 -0.3203  0.3799
  109MOL0     C14635  10.362  -0.131   0.096 -0.4062 -0.2600 -0.0858
  109MOL0     C14636  10.417  -0.258   0.116  0.6044 -0.2173  1.3499
  109MOL0     C14637  10.550  -0.280   0.096 -0.1105 -0.1769  0.2509
  109MOL0     C14638  10.642  -0.177   0.060  0.5169 -0.2665  0.3627
  109MOL0     O14639  10.780  -0.191   0.051  0.2842 -0.2490 -0.3924
  109MOL0     C14640  10.841  -0.308   0.085  0.1424 -0.5877 -0.0831
  109MOL0     C14641  10.984  -0.297   0.022 -0.2865 -0.9428  0.3092
  109MOL0     C14642  11.068  -0.404   0.076  0.7878  0.1140  0.1215
  109MOL0     C14643  11.203  -0.431   0.009 -0.0727  0.1482  0.7239
  109MOL0     C14644  11.318  -0.390   0.089 -0.7791  0.3827  0.1377
  109MOL0     C14645  11.415  -0.366   0.164 -0.2631 -0.0882 -0.6093
  109MOL0     C14646  10.585  -0.046   0.045  1.0946 -0.3297  0.0318
  109MOL0     C14647  10.447  -0.023   0.064  0.3959  0.3568  1.9818
  109MOL0     H14648  10.008  -0.171  -0.077  3.2345 -1.7826  0.8206
  109MOL0     H14649   9.782  -0.204  -0.113 -0.9677  2.3606  0.5904
  109MOL0     H14650   9.532  -0.109  -0.029  1.8605 -0.0135 -1.8080
  109MOL0     H14651   9.549  -0.240  -0.129 -1.0359  0.8011 -0.6761
  109MOL0     H14652   9.314  -0.235  -0.119  2.0131  0.2799 -1.8044
  109MOL0     H14653   9.339  -0.360  -0.000 -1.6802  0.5446 -0.7545
  109MOL0     H14654   9.312  -0.193   0.186  1.0144  4.0142  0.4890
  109MOL0     H14655   9.306  -0.065   0.062  1.6751 -1.1348 -0.8594
  109MOL0     H14656   9.082  -0.092   0.082  0.2416 -0.2135 -0.0821
  109MOL0     H14657   9.106  -0.185  -0.055 -1.6313  1.3467  0.6738
  109MOL0     H14658   8.993  -0.351   0.072 -0.6387 -2.4955  1.2514
  109MOL0     H14659   9.160  -0.370   0.150 -1.8788 -2.3094  1.2357
  109MOL0     H14660   8.993  -0.366   0.318  0.3333  0.7955 -0.0840
  109MOL0     H14661   9.056  -0.206   0.328 -2.9758 -0.9933  3.4915
  109MOL0     H14662   8.859  -0.157   0.144  1.3731  0.8009  0.2648
  109MOL0     H14663   8.797  -0.303   0.222 -1.7343  0.5907 -0.3240
  109MOL0     H14664   8.872  -0.033   0.347 -0.2992  0.6468  0.7679
  109MOL0     H14665   8.844  -0.173   0.448  2.4576  0.4118 -0.1963
  109MOL0     H14666   8.603  -0.236   0.488  2.3928  0.4990 -1.2528
  109MOL0     H14667   8.293  -0.208   0.409  0.8522  1.0615 -1.6518
  109MOL0     H14668   8.352  -0.150   0.571 -1.4340 -0.7249  0.3521
  109MOL0     H14669   8.271   0.079   0.467 -1.9383  1.5155 -1.9273
  109MOL0     H14670   8.133  -0.030   0.511 -1.3450 -3.3125 -2.1648
  109MOL0     H14671   8.112  -0.121   0.305  1.8336 -1.0120 -1.1189
  109MOL0     H14672   8.247  -0.035   0.239  0.9110  1.0243  1.0853
  109MOL0     H14673   8.140   0.188   0.304  0.3110 -0.4775  2.2646
  109MOL0     H14674   8.004   0.111   0.372  1.6245  0.9967  2.2075
  109MOL0     H14675   7.845   0.248   0.349 -1.8651 -1.2816  1.1614
  109MOL0     H14676   7.668   0.317   0.429 -0.4452  2.3560  1.0560
  109MOL0     H14677   7.596   0.413   0.293  0.7308  1.4239  3.8414
  109MOL0     H14678   7.507   0.286   0.367  0.4415 -1.8913  0.2008
  109MOL0     H14679   7.364   0.133  -0.260 -2.1052  1.6723 -2.4666
  109MOL0     H14680   7.141   0.184  -0.350  0.7512 -4.2667 -2.4436
  109MOL0     H14681   6.769   0.095  -0.104  0.0693  0.8779  0.4783
  109MOL0     H14682   6.812   0.260  -0.048 -2.8670  1.7372 -0.4199
  109MOL0     H14683   6.707   0.351  -0.244 -1.4569  1.2589  1.3825
  109MOL0     H14684   6.678   0.193  -0.321 -0.0241  0.6932 -0.7645
  109MOL0     H14685   6.541   0.290  -0.061 -1.4564 -0.8588  0.5713
  109MOL0     H14686   6.535   0.120  -0.124 -2.7540  0.2242  2.3217
  109MOL0     H14687   6.455   0.381  -0.233  1.7879 -0.2393  0.5090
  109MOL0     H14688   6.451   0.239  -0.334  0.8645  3.2183 -0.7070
  109MOL0     H14689   6.291   0.286  -0.068 -2.8204  4.0650 -1.4945
  109MOL0     H14690   6.299   0.131  -0.150 -2.6317  0.3020 -3.7354
  109MOL0     H14691   6.221   0.406  -0.260 -0.9638 -0.1924 -4.0729
  109MOL0     H14692   6.206   0.267  -0.362  2.6265  0.3411  0.0775
  109MOL0     H14693   6.032   0.309  -0.095 -0.9374 -3.6421  0.0442
  109MOL0     H14694   5.992   0.201  -0.230 -1.4088  0.3451 -0.9238
  109MOL0     H14695   5.979   0.504  -0.222  1.4502 -0.3343  1.9366
  109MOL0     H14696   5.850   0.380  -0.223  0.5696  0.4370 -0.0711
  109MOL0     H14697   6.973   0.067   0.026 -0.6214  0.2488 -1.2452
  109MOL0     H14698   7.194   0.040   0.123  1.9314 -0.5651 -0.2311
  109MOL0     H14699   7.650   0.050  -0.061 -2.3228  0.5233 -0.3370
  109MOL0     H14700   7.888   0.016  -0.016 -0.8312  1.9604 -3.7087
  109MOL0     H14701   9.718  -0.272   0.308  2.4194 -0.2973  1.0244
  109MOL0     H14702   9.953  -0.244   0.344 -3.0468 -1.0490  1.6913
  109MOL0     H14703  10.353  -0.332   0.163  0.7259  0.9745  3.5489
  109MOL0     H14704  10.579  -0.383   0.114  0.0465  0.0891  1.6767
  109MOL0     H14705  10.849  -0.313   0.194  0.3247  1.4986  0.0424
  109MOL0     H14706  10.780  -0.393   0.052 -0.1779 -0.7836  0.9632
  109MOL0     H14707  11.015  -0.195   0.048  0.1623 -0.2690 -2.5565
  109MOL0     H14708  10.981  -0.301  -0.087 -3.3362  2.0953  0.1299
  109MOL0     H14709  11.017  -0.501   0.079 -1.0983  1.0701  1.2258
  109MOL0     H14710  11.082  -0.381   0.182  0.1435  1.0082  0.0219
  109MOL0     H14711  11.206  -0.364  -0.078 -0.2404 -1.5988 -0.6822
  109MOL0     H14712  11.206  -0.535  -0.022 -2.5595  0.6126 -1.3842
  109MOL0     H14713  11.491  -0.340   0.234  1.4409  2.8690 -3.2940
  109MOL0     H14714  10.644   0.045   0.040 -1.4395  1.4020 -0.2600
  109MOL0     H14715  10.407   0.078   0.060 -1.5351 -0.4034 -1.7189
  110MOL0     O14716   4.266   9.960   6.975 -0.7694 -0.5975 -0.3914
  110MOL0     C14717   4.321  10.008   7.071  0.0977  0.0519 -0.5047
  110MOL0     O14718   4.252  10.074   7.171 -0.4344 -0.1565 -0.2327
  110MOL0     C14719   4.116  10.084   7.171 -0.2247  0.1684  0.1194
  110MOL0     C14720   4.031   9.965   7.155 -0.4463 -0.9144  0.0364
  110MOL0     C14721   3.894   9.984   7.159  0.1654  0.1294 -0.1991
  110MOL0     C14722   3.837  10.110   7.191 -0.1844  1.7921  0.2685
  110MOL0     O14723   3.697  10.120   7.195 -0.0043  0.1103  0.2184
  110MOL0     C14724   3.612  10.009   7.152 -1.4488 -0.3776  0.0157
  110MOL0     C14725   3.473  10.054   7.142  0.4039  0.0663 -0.4144
  110MOL0     C14726   3.384   9.929   7.135 -0.5594 -0.3762 -0.3458
  110MOL0     C14727   3.243   9.985   7.122 -0.8291  0.1036 -0.7027
  110MOL0     C14728   3.141   9.877   7.098 -0.0026  0.7170  0.7460
  110MOL0     C14729   3.002   9.925   7.082 -0.3584  1.0836  0.0793
  110MOL0     C14730   2.894   9.816   7.091  0.2099 -1.3016 -0.0512
  110MOL0     C14731   2.753   9.877   7.117 -0.3543  0.2741 -0.5037
  110MOL0     N14732   2.675   9.765   7.174  0.2426 -0.2368  0.4352
  110MOL0     C14733   2.622   9.771   7.301  0.3846  0.6412 -0.7936
  110MOL0     C14734   2.577   9.649   7.333  0.7339 -0.8065  0.2265
  110MOL0     C14735   2.489   9.619   7.451 -0.8857  0.2420  0.7757
  110MOL0     C14736   2.341   9.613   7.410  0.0299  0.0205 -0.1433
  110MOL0     C14737   2.248   9.637   7.531 -0.4758 -0.1817 -0.5795
  110MOL0     C14738   2.110   9.576   7.512  0.2572 -1.2077 -0.3808
  110MOL0     O14739   2.038   9.660   7.414 -0.4563  0.1428 -0.0483
  110MOL0     C14740   1.933   9.728   7.464 -0.0826  0.7044  0.3639
  110MOL0     C14741   1.946   9.846   7.526  0.0843  0.5039 -0.6633
  110MOL0     C14742   1.828   9.906   7.588 -1.4425  0.3143 -0.3324
  110MOL0     C14743   1.862  10.035   7.661 -0.2511 -1.2472  0.7861
  110MOL0     C14744   1.702   9.847   7.581  0.5267  0.9200 -0.4629
  110MOL0     C14745   1.581   9.901   7.646 -1.3402  0.7166  0.4201
  110MOL0     O14746   1.493   9.803   7.676 -0.2640 -1.2263 -0.3446
  110MOL0     C14747   1.367   9.835   7.715 -0.3828  0.4451 -0.0496
  110MOL0     C14748   1.281   9.929   7.654  1.0253 -1.6667  0.1273
  110MOL0     C14749   1.158   9.956   7.711 -0.2140 -0.4629 -0.0970
  110MOL0     C14750   1.117   9.872   7.820  0.1651 -1.2667  0.6929
  110MOL0     O14751   0.988   9.873   7.870 -0.3500 -0.0411 -0.2531
  110MOL0     C14752   0.883   9.941   7.794  0.3550 -0.2202  0.4008
  110MOL0     C14753   0.749   9.917   7.859  0.3700  0.3096 -1.0307
  110MOL0     C14754   0.642   9.921   7.750 -0.0087 -0.3772  0.3039
  110MOL0     C14755   0.518   9.894   7.822 -0.2862  0.1026 -0.2536
  110MOL0     C14756   0.399   9.867   7.734 -0.7742 -0.8991 -0.2727
  110MOL0     C14757   0.278   9.843   7.826  0.1730 -0.3552 -0.2167
  110MOL0     C14758   0.139   9.818   7.746  0.1575 -0.3304 -0.4670
  110MOL0     C14759   0.030   9.778   7.855  0.5814 -0.4120  0.0272
  110MOL0    Cl14760  -0.136   9.755   7.781 -0.2055  0.0848 -0.3307
  110MOL0     C14761   1.197   9.781   7.880  0.2783  0.1321  0.2455
  110MOL0     C14762   1.321   9.761   7.822 -0.4900  0.9318  0.1676
  110MOL0     O14763   1.563  10.020   7.655 -0.2784  0.0964  0.5918
  110MOL0     C14764   1.692   9.725   7.519  0.4126  1.0354  0.5183
  110MOL0     C14765   1.805   9.672   7.458  0.5386 -0.5495 -0.3414
  110MOL0     N14766   2.604   9.570   7.226  0.0894  0.6699  0.3666
  110MOL0     N14767   2.657   9.643   7.128  0.5713 -0.1587 -0.2833
  110MOL0     C14768   3.914  10.213   7.220 -0.4831 -0.0112 -0.6834
  110MOL0     C14769   4.055  10.204   7.208 -0.0077 -0.5064  0.3801
  110MOL0     C14770   4.462  10.008   7.068 -0.4882 -0.2549 -1.2959
  110MOL0     C14771   4.538   9.920   6.989 -0.3847 -0.0533  0.0277
  110MOL0     C14772   4.674   9.915   6.993 -0.0089  0.2215  0.2842
  110MOL0     C14773   4.749  10.000   7.080  0.2873  0.5502  0.3467
  110MOL0     O14774   4.883  10.006   7.087 -0.1857  0.2419 -0.1859
  110MOL0     C14775   4.969   9.929   6.993 -0.2703 -0.3309 -0.7265
  110MOL0     C14776   4.967   9.984   6.851 -0.5508  0.1567  0.3479
  110MOL0     C14777   5.030  10.123   6.837  0.5433 -1.1504  0.1068
  110MOL0     C14778   5.033  10.157   6.686  0.9511 -0.3317  0.3619
  110MOL0     C14779   4.924  10.246   6.654  0.3951  0.4944  1.0283
  110MOL0     C14780   4.836  10.334   6.643  0.7311 -0.0364  0.8298
  110MOL0     C14781   4.671  10.077   7.170  0.2080 -0.4576  0.6413
  110MOL0     C14782   4.532  10.083   7.170 -1.4343  1.1107 -0.1817
  110MOL0     H14783   4.077   9.867   7.144  1.9002  0.1351 -0.0397
  110MOL0     H14784   3.835   9.894   7.148 -0.2782  0.5849 -1.8912
  110MOL0     H14785   3.647   9.971   7.055  2.2474  0.6129  0.8332
  110MOL0     H14786   3.623   9.936   7.233 -0.2011 -0.3677 -0.1362
  110MOL0     H14787   3.445  10.101   7.236  0.6319  1.6559 -1.0919
  110MOL0     H14788   3.466  10.136   7.069 -1.5444  3.5298  3.2320
  110MOL0     H14789   3.411   9.884   7.038  1.2755 -0.3927  0.1273
  110MOL0     H14790   3.391   9.861   7.221 -0.5911  0.2868  0.1873
  110MOL0     H14791   3.222  10.040   7.214 -1.0450 -0.0763 -0.6439
  110MOL0     H14792   3.240  10.062   7.045 -1.1330 -2.0467 -2.9355
  110MOL0     H14793   3.162   9.818   7.008 -2.3314 -0.9449  1.1865
  110MOL0     H14794   3.148   9.809   7.183  1.0748 -0.1906 -0.0482
  110MOL0     H14795   2.983   9.992   7.167 -3.5297  0.1399  0.2318
  110MOL0     H14796   2.999   9.973   6.984  1.1222 -4.2340 -2.9504
  110MOL0     H14797   2.892   9.759   6.998  0.1339  0.0111 -0.8777
  110MOL0     H14798   2.919   9.749   7.174  2.0166  0.6593  1.1035
  110MOL0     H14799   2.713   9.908   7.020 -0.8266  0.7841 -0.1532
  110MOL0     H14800   2.758   9.960   7.188 -0.3606  1.1787 -1.5256
  110MOL0     H14801   2.614   9.864   7.358 -0.5904  0.0591  0.0734
  110MOL0     H14802   2.520   9.523   7.492 -2.4472  0.1736  1.8878
  110MOL0     H14803   2.506   9.684   7.537  2.7632 -1.2345  1.3272
  110MOL0     H14804   2.318   9.515   7.369 -0.1787 -0.2118  0.5132
  110MOL0     H14805   2.318   9.688   7.334 -1.4295 -1.6926 -1.4535
  110MOL0     H14806   2.246   9.742   7.563  0.8605 -0.4486  0.4617
  110MOL0     H14807   2.294   9.598   7.623 -1.4425 -0.8386 -0.3654
  110MOL0     H14808   2.055   9.577   7.607  0.8623 -0.9098 -0.0268
  110MOL0     H14809   2.133   9.478   7.471 -0.9656 -1.5429 -0.3194
  110MOL0     H14810   2.037   9.905   7.529  0.6234 -0.3318 -0.2241
  110MOL0     H14811   1.967  10.052   7.687 -0.2059  2.0402 -0.9251
  110MOL0     H14812   1.833  10.122   7.600  2.1257  0.5525  2.0484
  110MOL0     H14813   1.812  10.038   7.758 -0.7715  0.7354  0.5043
  110MOL0     H14814   1.310   9.989   7.567 -2.4518  0.1128 -0.0271
  110MOL0     H14815   1.096  10.031   7.663  1.2286  0.7116 -0.2268
  110MOL0     H14816   0.909  10.047   7.786  5.2324 -0.9453  2.5837
  110MOL0     H14817   0.881   9.895   7.695  4.6331  1.9079 -0.9103
  110MOL0     H14818   0.759   9.821   7.910 -0.9129  1.0410  0.6896
  110MOL0     H14819   0.739   9.992   7.937  0.3790 -0.7897  0.0543
  110MOL0     H14820   0.660   9.842   7.677 -0.5743  2.3055 -2.9801
  110MOL0     H14821   0.655  10.019   7.703 -1.1888 -0.1189  0.4716
  110MOL0     H14822   0.512   9.807   7.888 -5.2963  0.2852 -0.1037
  110MOL0     H14823   0.490   9.984   7.878 -1.1970  0.1732 -0.8150
  110MOL0     H14824   0.419   9.784   7.665  0.3244  0.2641 -1.4323
  110MOL0     H14825   0.385   9.964   7.686  4.4765 -0.2290 -1.0809
  110MOL0     H14826   0.309   9.757   7.885  0.8468  0.5787  0.8440
  110MOL0     H14827   0.254   9.929   7.890 -0.1120 -1.0501  0.6275
  110MOL0     H14828   0.148   9.739   7.671  0.7730  2.1874 -3.2203
  110MOL0     H14829   0.097   9.907   7.698  1.4280  0.9757  0.7133
  110MOL0     H14830   0.032   9.851   7.936 -0.2058 -0.1470 -0.1897
  110MOL0     H14831   0.072   9.683   7.890  0.3110 -0.3626  0.4862
  110MOL0     H14832   1.151   9.726   7.962  0.1455 -0.4192 -0.1893
  110MOL0     H14833   1.391   9.691   7.868  1.7485  1.7678 -1.7454
  110MOL0     H14834   1.602   9.670   7.494  0.4498  0.0230  2.4039
  110MOL0     H14835   1.798   9.573   7.413 -1.8528 -0.2803 -0.7197
  110MOL0     H14836   3.877  10.310   7.253 -0.3890 -0.0372 -0.4981
  110MOL0     H14837   4.104  10.301   7.217  0.2521 -0.5831 -0.1759
  110MOL0     H14838   4.495   9.859   6.911  0.3571 -2.8313  1.6715
  110MOL0     H14839   4.717   9.847   6.920 -2.1999  1.0954 -1.9374
  110MOL0     H14840   5.069   9.934   7.036 -1.9262  1.1240  3.5052
  110MOL0     H14841   4.941   9.824   7.003 -0.3131 -0.1618  1.3369
  110MOL0     H14842   4.868   9.983   6.805  0.4358 -0.1614 -1.8748
  110MOL0     H14843   5.023   9.912   6.790 -1.2889  0.4670 -0.7271
  110MOL0     H14844   5.133  10.124   6.874  0.8552  0.8667 -0.7170
  110MOL0     H14845   4.970  10.200   6.886  1.3399 -0.2457 -0.2938
  110MOL0     H14846   5.025  10.067   6.625  2.5873 -0.4171  0.2470
  110MOL0     H14847   5.127  10.200   6.653  0.5783  0.8753  0.8384
  110MOL0     H14848   4.762  10.411   6.628 -1.9040 -2.8998 -2.9078
  110MOL0     H14849   4.729  10.152   7.223  2.1928 -0.7274 -1.0095
  110MOL0     H14850   4.486  10.151   7.240  0.5148 -0.0916  2.4568
  111MOL0     O14851   1.214   2.754   0.518  0.4615 -0.4644  0.0445
  111MOL0     C14852   1.293   2.677   0.466 -0.0405  0.4227  0.1590
  111MOL0     O14853   1.289   2.621   0.341  0.2854 -0.8431  0.2752
  111MOL0     C14854   1.185   2.653   0.255 -0.9143 -0.4667 -0.6089
  111MOL0     C14855   1.076   2.580   0.274  0.2689 -0.4969 -0.6753
  111MOL0     C14856   0.961   2.606   0.187 -0.1258  0.5126  0.0204
  111MOL0     C14857   0.968   2.699   0.081 -0.2919 -0.5458  0.1480
  111MOL0     O14858   0.864   2.722  -0.012  0.0825  0.4245 -0.1314
  111MOL0     C14859   0.740   2.660   0.004  0.0140  0.0245  0.5953
  111MOL0     C14860   0.715   2.507  -0.041 -0.2369 -0.4580 -0.5663
  111MOL0     C14861   0.566   2.486  -0.044  0.4241 -0.2898  0.2386
  111MOL0     C14862   0.530   2.344  -0.084 -0.1132 -1.7739  0.6604
  111MOL0     C14863   0.380   2.319  -0.108 -0.3131  0.0109 -0.2768
  111MOL0     C14864   0.296   2.371   0.000 -0.3200 -0.2753  0.2731
  111MOL0     C14865   0.321   2.296   0.130  0.1699 -0.0330  0.0176
  111MOL0     C14866   0.214   2.283   0.242 -0.2202  0.5509  0.2342
  111MOL0     N14867   0.080   2.229   0.196 -0.1197 -0.0670  0.4496
  111MOL0     C14868  -0.035   2.309   0.193  0.5931  0.0871  0.3717
  111MOL0     C14869  -0.138   2.209   0.180 -1.2609 -0.3969 -0.0049
  111MOL0     C14870  -0.285   2.249   0.168 -0.2853 -0.5268  0.3320
  111MOL0     C14871  -0.374   2.217   0.287  0.2529 -0.0216  0.3610
  111MOL0     C14872  -0.530   2.219   0.251  0.7602  0.2408 -0.3363
  111MOL0     C14873  -0.577   2.359   0.225  0.0687 -0.3564 -0.1337
  111MOL0     O14874  -0.709   2.371   0.174 -0.1235  1.2453  0.0162
  111MOL0     C14875  -0.818   2.346   0.254  1.0260 -0.0770  0.4626
  111MOL0     C14876  -0.936   2.403   0.194  0.9133  0.2877  1.0839
  111MOL0     C14877  -1.059   2.380   0.246  0.4461  0.5390  0.5109
  111MOL0     C14878  -1.172   2.456   0.171  0.4451 -0.1893 -0.0242
  111MOL0     C14879  -1.078   2.308   0.365 -0.3863  1.3281 -0.1509
  111MOL0     C14880  -1.206   2.248   0.411  0.5077 -0.6813  0.5040
  111MOL0     O14881  -1.214   2.216   0.542  0.1012 -0.4914  0.3452
  111MOL0     C14882  -1.305   2.132   0.587  1.0440 -0.0667 -0.0332
  111MOL0     C14883  -1.412   2.186   0.656 -0.4661 -0.0260  0.1709
  111MOL0     C14884  -1.512   2.111   0.710 -0.6232  0.4771  0.0027
  111MOL0     C14885  -1.528   1.973   0.686  0.4582  0.1547  0.9123
  111MOL0     O14886  -1.632   1.892   0.720  0.9592 -0.4793 -0.3138
  111MOL0     C14887  -1.732   1.948   0.806 -0.2925 -0.8148  0.3680
  111MOL0     C14888  -1.833   2.030   0.728  1.1840 -0.5600  0.0797
  111MOL0     C14889  -1.953   2.082   0.812  0.3852 -0.5081  1.0245
  111MOL0     C14890  -1.919   2.192   0.913 -0.6903 -0.1587 -0.4838
  111MOL0     C14891  -2.040   2.218   1.019 -1.2793  0.0192  0.1383
  111MOL0     C14892  -2.179   2.235   0.970 -0.2663  0.1909 -0.3397
  111MOL0     C14893  -2.196   2.356   0.882  0.0002  0.3779 -0.1046
  111MOL0     C14894  -2.346   2.373   0.838  0.0907  0.4658  0.7544
  111MOL0    Cl14895  -2.355   2.473   0.687  0.0182  0.2435 -0.0068
  111MOL0     C14896  -1.414   1.916   0.622  0.4974  0.5585  0.5996
  111MOL0     C14897  -1.302   1.998   0.568 -0.6824  0.2267  0.3328
  111MOL0     O14898  -1.294   2.235   0.319  0.2817  0.3863 -0.1083
  111MOL0     C14899  -0.961   2.254   0.435 -0.3263  0.3919  0.4907
  111MOL0     C14900  -0.834   2.271   0.374 -0.5975 -0.6558  0.2586
  111MOL0     N14901  -0.075   2.081   0.161 -0.0581  0.6182 -0.4590
  111MOL0     N14902   0.048   2.099   0.158  0.3870 -1.3876  0.0151
  111MOL0     C14903   1.087   2.780   0.068  0.2814  0.5231 -0.7846
  111MOL0     C14904   1.190   2.754   0.155  0.4691 -0.2028  0.2405
  111MOL0     C14905   1.410   2.636   0.558  0.1966 -0.2974  0.5754
  111MOL0     C14906   1.492   2.520   0.533 -0.7023 -0.4423  0.1681
  111MOL0     C14907   1.606   2.500   0.619  0.0097  0.5724 -0.2660
  111MOL0     C14908   1.638   2.587   0.717 -0.8236 -0.2618 -0.3187
  111MOL0     O14909   1.746   2.560   0.793 -0.3952  0.4131 -0.5494
  111MOL0     C14910   1.729   2.584   0.934  0.1493  0.0116 -1.1001
  111MOL0     C14911   1.803   2.716   0.982 -0.5227 -0.4119 -0.2901
  111MOL0     C14912   1.919   2.757   0.881 -0.8894  0.6167 -0.2648
  111MOL0     C14913   2.038   2.838   0.941  0.2829  0.2809 -0.7728
  111MOL0     C14914   2.117   2.754   1.026 -0.8264  0.8158 -0.2570
  111MOL0     C14915   2.183   2.701   1.114 -0.5016  0.2279 -0.0524
  111MOL0     C14916   1.551   2.696   0.741  1.5533 -0.2714 -0.4970
  111MOL0     C14917   1.441   2.727   0.665  0.3418  0.7719 -0.0271
  111MOL0     H14918   1.082   2.503   0.351  2.0509 -3.5403 -3.5828
  111MOL0     H14919   0.878   2.536   0.194  2.7535 -3.5763 -2.7969
  111MOL0     H14920   0.701   2.684   0.104 -1.0930  0.6304  0.0309
  111MOL0     H14921   0.673   2.711  -0.066  0.0651 -1.7460 -0.8088
  111MOL0     H14922   0.755   2.490  -0.141 -1.5895 -1.9308 -0.8863
  111MOL0     H14923   0.771   2.442   0.027 -1.6052  0.6751  1.7494
  111MOL0     H14924   0.527   2.501   0.057 -1.1615 -3.0513  0.1485
  111MOL0     H14925   0.513   2.555  -0.109 -3.2499  0.4076  3.6105
  111MOL0     H14926   0.597   2.317  -0.167  0.8230 -0.6517  1.0257
  111MOL0     H14927   0.558   2.286   0.004  0.9774 -0.7348  1.0122
  111MOL0     H14928   0.358   2.372  -0.202 -0.5920  1.2198  0.4433
  111MOL0     H14929   0.364   2.213  -0.126  0.2564  0.3493 -3.4258
  111MOL0     H14930   0.297   2.479   0.017 -2.3843 -0.2104  0.1478
  111MOL0     H14931   0.194   2.343  -0.025 -1.5660  3.4486  0.6628
  111MOL0     H14932   0.351   2.192   0.114 -1.3699 -0.5074  0.1275
  111MOL0     H14933   0.410   2.347   0.168 -1.4843  1.8895  1.5163
  111MOL0     H14934   0.201   2.382   0.287  0.6792 -0.5822  3.2891
  111MOL0     H14935   0.249   2.222   0.326  0.2465  1.3347  0.6292
  111MOL0     H14936  -0.041   2.417   0.203  0.6236 -0.0118  1.7267
  111MOL0     H14937  -0.296   2.357   0.154 -2.1308 -0.7637 -0.2759
  111MOL0     H14938  -0.329   2.197   0.082  0.9059 -0.7106 -0.1867
  111MOL0     H14939  -0.359   2.277   0.378 -0.3714 -0.6490  0.8853
  111MOL0     H14940  -0.347   2.115   0.318  0.7012 -0.8533 -2.5098
  111MOL0     H14941  -0.576   2.179   0.342  0.3103 -1.5843 -1.3090
  111MOL0     H14942  -0.562   2.155   0.168  2.1960  1.0992 -1.6009
  111MOL0     H14943  -0.514   2.403   0.147  1.4458 -0.0947  1.0933
  111MOL0     H14944  -0.567   2.424   0.312  0.1967  0.7337 -0.9451
  111MOL0     H14945  -0.931   2.444   0.093 -2.8038 -4.0000 -1.1834
  111MOL0     H14946  -1.268   2.454   0.224  0.4359  4.1287  0.5340
  111MOL0     H14947  -1.151   2.563   0.157 -3.3713  0.6986 -0.2378
  111MOL0     H14948  -1.193   2.419   0.070  3.7082 -0.8295 -0.5658
  111MOL0     H14949  -1.393   2.292   0.665  0.3187 -0.1245 -0.2752
  111MOL0     H14950  -1.592   2.161   0.763  0.4380 -0.3900  2.6065
  111MOL0     H14951  -1.789   1.866   0.851 -0.7706 -1.2112 -0.9084
  111MOL0     H14952  -1.687   2.004   0.889 -0.7786  1.3304 -0.7409
  111MOL0     H14953  -1.800   2.110   0.662 -0.6041 -0.5306 -0.8536
  111MOL0     H14954  -1.867   1.969   0.644  2.1164 -0.2742 -0.5175
  111MOL0     H14955  -1.991   1.995   0.867 -0.0965 -1.3659 -0.6147
  111MOL0     H14956  -2.023   2.117   0.736 -0.3505 -2.0052  0.9624
  111MOL0     H14957  -1.831   2.158   0.970 -0.7838 -2.3916 -1.5544
  111MOL0     H14958  -1.897   2.291   0.873  0.0114  0.9913  2.4840
  111MOL0     H14959  -2.006   2.292   1.091 -4.4536  1.2309  0.5543
  111MOL0     H14960  -2.037   2.130   1.083  1.2288  0.8063  1.2052
  111MOL0     H14961  -2.213   2.150   0.909  0.9129 -2.9212  2.9380
  111MOL0     H14962  -2.250   2.246   1.053  0.0017  1.1037 -0.2196
  111MOL0     H14963  -2.141   2.347   0.788 -1.1854  0.3507 -0.8072
  111MOL0     H14964  -2.158   2.441   0.940 -2.0929  1.4018 -0.1546
  111MOL0     H14965  -2.408   2.416   0.917 -0.7807  4.2746 -1.7576
  111MOL0     H14966  -2.377   2.272   0.812 -1.4287  1.6903 -2.8260
  111MOL0     H14967  -1.413   1.809   0.603 -1.5090  0.7138 -0.6172
  111MOL0     H14968  -1.207   1.957   0.533 -1.1962  2.3879 -4.3035
  111MOL0     H14969  -0.969   2.195   0.526 -0.4386 -1.3549 -0.5945
  111MOL0     H14970  -0.743   2.240   0.424 -0.1711  1.0379  0.5807
  111MOL0     H14971   1.096   2.852  -0.013  1.7735 -0.5202 -1.5801
  111MOL0     H14972   1.280   2.810   0.135  0.3074 -0.6878 -2.1148
  111MOL0     H14973   1.495   2.450   0.451  3.7403 -0.1332 -0.1649
  111MOL0     H14974   1.662   2.408   0.609  0.9032  1.2372 -1.8140
  111MOL0     H14975   1.623   2.587   0.961  0.6532  3.2306  1.0760
  111MOL0     H14976   1.778   2.502   0.987  1.0927  1.1215 -0.2000
  111MOL0     H14977   1.851   2.704   1.080  1.4522  2.6504 -0.7315
  111MOL0     H14978   1.724   2.790   0.993 -1.9764 -1.3826 -3.2538
  111MOL0     H14979   1.876   2.808   0.795 -2.4556  1.3208  0.8890
  111MOL0     H14980   1.958   2.670   0.828 -0.1012  1.5459 -1.2614
  111MOL0     H14981   2.003   2.908   1.017 -0.7688  0.2365 -1.1925
  111MOL0     H14982   2.092   2.887   0.860  0.5353  0.6746 -0.3653
  111MOL0     H14983   2.234   2.643   1.189 -0.1892  1.6269  0.8649
  111MOL0     H14984   1.559   2.764   0.825 -2.0421 -0.8663  0.4838
  111MOL0     H14985   1.365   2.790   0.711 -0.3504 -1.0792  1.4840
  112MOL0     O14986   5.498   2.274   4.334  0.9678 -0.6265 -0.1754
  112MOL0     C14987   5.398   2.228   4.387  0.3584 -0.0983 -0.3207
  112MOL0     O14988   5.397   2.184   4.511  0.2149 -0.1570 -0.3589
  112MOL0     C14989   5.499   2.222   4.591 -0.5620 -0.5310 -0.5010
  112MOL0     C14990   5.484   2.328   4.686  1.1401 -0.1931  0.4621
  112MOL0     C14991   5.572   2.352   4.784  0.1208  0.1770 -0.2015
  112MOL0     C14992   5.688   2.265   4.804 -0.0289 -0.4336  0.3293
  112MOL0     O14993   5.768   2.300   4.907  0.1085  0.0230  0.3164
  112MOL0     C14994   5.895   2.234   4.937 -0.5200 -0.0807 -0.5178
  112MOL0     C14995   5.997   2.249   4.823 -0.8478  0.3119 -0.2544
  112MOL0     C14996   6.127   2.182   4.874  1.3659  0.4643  0.7346
  112MOL0     C14997   6.207   2.266   4.976 -0.1493  0.9508  0.5081
  112MOL0     C14998   6.335   2.190   5.018  0.1742 -0.2912 -0.6038
  112MOL0     C14999   6.448   2.237   4.926  0.4439  0.2721 -0.6219
  112MOL0     C15000   6.583   2.172   4.928 -0.2455  0.1232  0.3397
  112MOL0     C15001   6.639   2.168   5.070 -0.8145 -0.0707  0.3621
  112MOL0     N15002   6.761   2.089   5.082 -0.4375 -0.2537 -0.3383
  112MOL0     C15003   6.892   2.138   5.058  0.3611 -0.0792 -0.1742
  112MOL0     C15004   6.962   2.027   5.067 -0.6402  0.2407  0.0292
  112MOL0     C15005   7.108   2.012   5.071 -0.4402  0.2988  0.6163
  112MOL0     C15006   7.168   1.981   5.212 -0.2123  0.5230 -0.2291
  112MOL0     C15007   7.307   2.045   5.238  0.0779 -1.0533 -0.4662
  112MOL0     C15008   7.323   2.198   5.277 -0.2507 -0.8578  0.1071
  112MOL0     O15009   7.310   2.273   5.151 -0.7182 -1.3118 -0.6365
  112MOL0     C15010   7.198   2.348   5.129 -0.1108 -0.0531  0.2156
  112MOL0     C15011   7.181   2.390   4.999  0.2389 -0.5754 -1.0589
  112MOL0     C15012   7.070   2.463   4.962  0.8886  0.5460  0.0944
  112MOL0     C15013   7.052   2.483   4.813 -0.1118  0.1849  0.3308
  112MOL0     C15014   6.966   2.502   5.047 -0.7434  0.1071 -0.1943
  112MOL0     C15015   6.846   2.566   5.001  0.4959  0.2161 -0.3182
  112MOL0     O15016   6.745   2.483   4.966 -0.7180 -0.3733  0.6341
  112MOL0     C15017   6.629   2.543   4.935 -0.1469 -0.1936 -0.2262
  112MOL0     C15018   6.570   2.534   4.807 -0.1145 -0.7912 -0.0498
  112MOL0     C15019   6.441   2.587   4.785 -0.0189 -0.0637  0.1543
  112MOL0     C15020   6.367   2.645   4.887  0.5435  0.3210  0.3452
  112MOL0     O15021   6.244   2.689   4.853  0.1003  0.0815 -0.8103
  112MOL0     C15022   6.163   2.705   4.962  0.4837  0.0935  0.1600
  112MOL0     C15023   6.026   2.742   4.898 -0.4587  1.1217 -0.0190
  112MOL0     C15024   5.922   2.742   5.009 -0.1836 -0.1799 -0.1412
  112MOL0     C15025   5.884   2.611   5.076  1.3367 -0.0356 -0.3931
  112MOL0     C15026   5.766   2.636   5.168  0.2116 -0.8471 -0.4467
  112MOL0     C15027   5.626   2.628   5.107 -0.0621 -1.0079 -0.4397
  112MOL0     C15028   5.514   2.645   5.206 -0.1090  0.2885  0.4957
  112MOL0     C15029   5.387   2.703   5.150 -1.3360  0.7918  0.1361
  112MOL0    Cl15030   5.321   2.608   5.014 -0.5997  0.4931  0.2514
  112MOL0     C15031   6.421   2.638   5.016  0.2189  0.2406 -0.0467
  112MOL0     C15032   6.554   2.588   5.042  0.0677 -0.0880  0.0229
  112MOL0     O15033   6.851   2.691   4.990  0.2024  0.9698  0.5612
  112MOL0     C15034   6.984   2.462   5.186  0.7168  1.0923  1.1062
  112MOL0     C15035   7.098   2.391   5.223  0.1463 -0.7770  0.2439
  112MOL0     N15036   6.881   1.921   5.097 -0.6642 -0.3905 -0.8446
  112MOL0     N15037   6.755   1.960   5.110  0.2484  0.1360  0.2035
  112MOL0     C15038   5.705   2.159   4.710 -0.6615 -0.9116 -0.4433
  112MOL0     C15039   5.619   2.142   4.603  0.4479  0.4690 -0.9947
  112MOL0     C15040   5.270   2.264   4.323 -0.2458 -0.6496 -0.4421
  112MOL0     C15041   5.263   2.372   4.237  0.7338 -0.0726  0.0844
  112MOL0     C15042   5.144   2.431   4.207  0.7839  0.2397  0.0564
  112MOL0     C15043   5.022   2.378   4.245  0.4537 -0.5756 -0.4180
  112MOL0     O15044   4.898   2.424   4.223 -0.3462  0.3523 -0.1605
  112MOL0     C15045   4.889   2.541   4.141  0.0117  0.4445 -0.1467
  112MOL0     C15046   4.909   2.665   4.214 -0.1236 -0.9747 -0.5373
  112MOL0     C15047   4.811   2.668   4.328  0.3263  0.2601 -0.1445
  112MOL0     C15048   4.836   2.788   4.428 -0.0614 -0.2731 -0.0941
  112MOL0     C15049   4.750   2.791   4.541 -1.3165 -0.0728 -0.7778
  112MOL0     C15050   4.660   2.768   4.619  0.1184  0.4110  0.5848
  112MOL0     C15051   5.032   2.251   4.320  0.3172 -0.8870 -0.0324
  112MOL0     C15052   5.150   2.199   4.359  0.6708 -1.2732  0.7324
  112MOL0     H15053   5.389   2.380   4.684  1.1359 -0.2232 -1.2710
  112MOL0     H15054   5.568   2.442   4.844  1.7624  1.6712 -2.1777
  112MOL0     H15055   5.936   2.266   5.034  2.7306 -3.9624 -0.3646
  112MOL0     H15056   5.872   2.130   4.962  0.3315 -0.1180  0.1623
  112MOL0     H15057   5.960   2.201   4.733 -2.6601 -2.7093  1.9293
  112MOL0     H15058   6.010   2.356   4.804 -0.9921  0.1653 -1.2139
  112MOL0     H15059   6.083   2.088   4.909 -2.6258  2.0509  0.5692
  112MOL0     H15060   6.193   2.180   4.788  2.2570 -1.0262  1.4270
  112MOL0     H15061   6.227   2.368   4.944  0.2114  1.1568  1.3568
  112MOL0     H15062   6.145   2.280   5.065 -0.2044 -0.9365  0.8231
  112MOL0     H15063   6.372   2.216   5.117  0.1752 -1.3807 -0.2994
  112MOL0     H15064   6.317   2.082   5.026  0.1803 -0.4010 -1.9094
  112MOL0     H15065   6.416   2.240   4.822  0.0922  0.1932 -0.5154
  112MOL0     H15066   6.463   2.342   4.954 -1.5751  1.1726 -2.6551
  112MOL0     H15067   6.573   2.068   4.895  0.3633  0.9533 -2.8599
  112MOL0     H15068   6.650   2.221   4.856 -1.7264 -1.2134 -2.0899
  112MOL0     H15069   6.568   2.129   5.144  0.8575 -2.0649  1.0019
  112MOL0     H15070   6.666   2.267   5.108  0.1650 -1.0979  2.4679
  112MOL0     H15071   6.917   2.243   5.042  0.5763  0.0265  0.8192
  112MOL0     H15072   7.136   1.933   5.001 -1.5977  1.1426 -0.8469
  112MOL0     H15073   7.156   2.101   5.028 -0.3540 -0.7659 -1.6200
  112MOL0     H15074   7.168   1.872   5.223 -2.0888  0.4753 -0.3767
  112MOL0     H15075   7.096   2.032   5.276  0.8513  1.9389 -0.1278
  112MOL0     H15076   7.361   2.027   5.145 -0.4243  0.2102 -1.0238
  112MOL0     H15077   7.352   1.985   5.317 -0.4509 -0.3916  0.3578
  112MOL0     H15078   7.415   2.217   5.334  0.4441 -1.5695 -0.7423
  112MOL0     H15079   7.238   2.231   5.337  1.1272  2.6544  0.3841
  112MOL0     H15080   7.258   2.358   4.930 -0.5905  0.2274 -2.3825
  112MOL0     H15081   7.152   2.492   4.769  0.9910 -0.7067  2.4840
  112MOL0     H15082   6.996   2.403   4.763 -0.2253  0.6650 -0.3234
  112MOL0     H15083   7.007   2.580   4.790  1.5469  0.3574 -2.5992
  112MOL0     H15084   6.628   2.490   4.727  0.7520  1.0862 -0.4982
  112MOL0     H15085   6.401   2.589   4.685  0.8810  1.7944 -0.2158
  112MOL0     H15086   6.151   2.612   5.018 -0.4171  1.6189  2.6716
  112MOL0     H15087   6.193   2.785   5.031  2.9547 -1.0219  0.4788
  112MOL0     H15088   6.038   2.827   4.831  5.9734 -0.4498 -1.5979
  112MOL0     H15089   5.991   2.659   4.836  0.5320  1.9283 -1.7288
  112MOL0     H15090   5.826   2.786   4.981  1.0361  2.4264 -0.5598
  112MOL0     H15091   5.956   2.812   5.086  1.9142  0.3736 -1.4984
  112MOL0     H15092   5.846   2.541   5.001 -1.0725  1.1596 -0.3927
  112MOL0     H15093   5.962   2.555   5.128 -2.1706 -4.0119  1.1635
  112MOL0     H15094   5.782   2.734   5.214 -1.6834  0.2362 -1.9468
  112MOL0     H15095   5.771   2.565   5.252  1.4989 -0.8223 -0.4817
  112MOL0     H15096   5.622   2.705   5.029  0.4208  2.1074  2.3957
  112MOL0     H15097   5.621   2.529   5.061 -1.6383 -0.5262 -1.3799
  112MOL0     H15098   5.539   2.712   5.290  0.4118  1.8890 -0.8780
  112MOL0     H15099   5.489   2.544   5.240 -0.1064  0.0254 -0.2706
  112MOL0     H15100   5.404   2.808   5.122  1.2462  0.7927  1.4379
  112MOL0     H15101   5.304   2.717   5.221 -2.1648 -3.4883  0.2472
  112MOL0     H15102   6.366   2.668   5.105  0.5178  2.6316 -0.6158
  112MOL0     H15103   6.592   2.583   5.143 -0.1759 -0.6724  0.0892
  112MOL0     H15104   6.907   2.492   5.256  0.6421  1.3655  0.9075
  112MOL0     H15105   7.113   2.374   5.329 -0.5827 -1.7590  0.2010
  112MOL0     H15106   5.785   2.090   4.735  1.2014  1.4045  0.3699
  112MOL0     H15107   5.627   2.052   4.543  1.0155  1.2267 -2.0964
  112MOL0     H15108   5.351   2.422   4.197  0.3241  1.0319  0.5210
  112MOL0     H15109   5.159   2.527   4.157  2.7725 -0.6151 -1.1208
  112MOL0     H15110   4.950   2.532   4.051 -3.2744  2.5200 -2.8158
  112MOL0     H15111   4.790   2.551   4.095 -0.0281 -3.3452 -1.2094
  112MOL0     H15112   4.900   2.739   4.135  0.4972  0.3437  0.5910
  112MOL0     H15113   5.007   2.687   4.257 -1.2738 -0.4756  1.9990
  112MOL0     H15114   4.812   2.576   4.387 -1.7779 -0.6678 -1.4468
  112MOL0     H15115   4.710   2.668   4.285 -0.3896 -0.6403  1.4419
  112MOL0     H15116   4.818   2.884   4.378  1.6770  0.9707  1.5530
  112MOL0     H15117   4.944   2.786   4.440  0.1817 -3.3455 -1.7277
  112MOL0     H15118   4.572   2.746   4.677 -2.2666  1.0173 -2.5217
  112MOL0     H15119   4.941   2.200   4.350  0.0002 -0.8922 -0.9585
  112MOL0     H15120   5.149   2.112   4.423 -1.6404 -0.0541  2.4873
  113MOL0     O15121  11.237   8.709   4.469 -0.0627 -0.2747  0.1986
  113MOL0     C15122  11.268   8.601   4.509  1.0949 -0.3734 -0.1462
  113MOL0     O15123  11.222   8.536   4.628  1.1148 -0.8467  0.4620
  113MOL0     C15124  11.108   8.571   4.695  0.2371  0.3104  0.4315
  113MOL0     C15125  11.094   8.520   4.825 -0.1507  0.8614  0.2369
  113MOL0     C15126  10.988   8.558   4.907  0.1904  0.6869 -0.1095
  113MOL0     C15127  10.881   8.637   4.859 -0.2772  0.4817  0.1376
  113MOL0     O15128  10.772   8.662   4.940  0.6534  0.0283 -0.0143
  113MOL0     C15129  10.790   8.752   5.043  1.2389  0.5881  0.3432
  113MOL0     C15130  10.671   8.779   5.130  0.7075  0.2924  0.1505
  113MOL0     C15131  10.562   8.844   5.047 -0.1316 -0.0366  0.5935
  113MOL0     C15132  10.444   8.885   5.131 -0.1954  0.4619 -0.5095
  113MOL0     C15133  10.325   8.946   5.058  0.5739  0.6308 -0.5614
  113MOL0     C15134  10.351   9.100   5.033  1.2822  0.6981 -0.2191
  113MOL0     C15135  10.241   9.141   4.920  0.3928  0.8689  0.0838
  113MOL0     C15136  10.292   9.103   4.773 -0.4778  0.3064 -0.4924
  113MOL0     N15137  10.416   9.176   4.753  0.1902 -0.2463  1.1192
  113MOL0     C15138  10.534   9.118   4.701  0.5192  0.1979  0.1927
  113MOL0     C15139  10.622   9.212   4.688 -0.2384 -0.4532 -0.2439
  113MOL0     C15140  10.763   9.191   4.659 -0.9945  0.4819  0.7160
  113MOL0     C15141  10.854   9.202   4.782  0.3702 -0.1569 -0.1891
  113MOL0     C15142  10.989   9.150   4.747 -0.7674  0.3180 -0.0470
  113MOL0     C15143  11.096   9.246   4.700 -0.0981  0.1795 -0.7732
  113MOL0     O15144  11.075   9.275   4.563 -0.7869 -0.1059  0.2608
  113MOL0     C15145  11.175   9.253   4.475  0.2838  0.5902 -0.3816
  113MOL0     C15146  11.210   9.121   4.430  1.1134  0.0833  0.2408
  113MOL0     C15147  11.323   9.093   4.341  0.1888  0.5075 -0.9835
  113MOL0     C15148  11.338   8.952   4.308 -0.0070 -0.1564  0.1462
  113MOL0     C15149  11.404   9.196   4.303 -1.4330  1.0293  1.3281
  113MOL0     C15150  11.535   9.178   4.231  0.5126 -0.3914  0.2747
  113MOL0     O15151  11.583   9.297   4.176 -0.2663 -0.0839  0.0748
  113MOL0     C15152  11.716   9.320   4.128  0.0439 -0.1105 -0.2446
  113MOL0     C15153  11.813   9.214   4.098 -0.1406 -0.0156  0.2819
  113MOL0     C15154  11.939   9.256   4.060  0.2436 -0.1509  0.0267
  113MOL0     C15155  11.971   9.392   4.057 -0.8769  0.2976 -0.3586
  113MOL0     O15156  12.097   9.446   4.046 -0.5170 -0.3408 -0.4583
  113MOL0     C15157  12.228   9.371   4.061 -0.7875 -0.3719 -0.2494
  113MOL0     C15158  12.280   9.314   3.927  0.1438  0.5556  0.0706
  113MOL0     C15159  12.413   9.385   3.913  1.1288  0.2322  0.3923
  113MOL0     C15160  12.474   9.361   3.778  0.5520 -0.4591 -0.3295
  113MOL0     C15161  12.592   9.440   3.734  0.0382 -0.3638 -0.1250
  113MOL0     C15162  12.688   9.410   3.614  0.1547 -0.3903  0.0072
  113MOL0     C15163  12.618   9.359   3.494  0.1340 -0.6647  0.0370
  113MOL0     C15164  12.719   9.282   3.403 -0.8380  0.3755  0.4955
  113MOL0    Cl15165  12.635   9.239   3.257  0.2775 -0.3035 -0.3093
  113MOL0     C15166  11.876   9.490   4.076 -0.2257 -0.7085 -0.1111
  113MOL0     C15167  11.754   9.451   4.113 -0.2632 -0.5200 -0.6378
  113MOL0     O15168  11.600   9.076   4.239  0.1205 -0.0651  0.2685
  113MOL0     C15169  11.365   9.322   4.342  0.1951  0.4097 -0.0433
  113MOL0     C15170  11.263   9.356   4.443 -0.3618 -0.1766 -0.9170
  113MOL0     N15171  10.565   9.329   4.736  0.3228  0.3540  0.4735
  113MOL0     N15172  10.441   9.304   4.772 -0.5520 -0.9105  0.8455
  113MOL0     C15173  10.895   8.682   4.722 -0.0475  0.5075 -0.6026
  113MOL0     C15174  11.007   8.650   4.645 -0.3119  0.6018  0.4969
  113MOL0     C15175  11.375   8.532   4.425 -0.1779  0.2200 -0.1817
  113MOL0     C15176  11.399   8.567   4.299 -0.6757  0.1096  0.5525
  113MOL0     C15177  11.484   8.486   4.220  0.8543 -0.6711  0.4769
  113MOL0     C15178  11.550   8.372   4.267  0.8125 -0.1884  0.0644
  113MOL0     O15179  11.619   8.285   4.199 -0.1975 -0.1373  0.4668
  113MOL0     C15180  11.763   8.298   4.220  0.4530 -0.3259 -0.6230
  113MOL0     C15181  11.824   8.203   4.124  0.3399  0.1794  0.3231
  113MOL0     C15182  11.815   8.267   3.982 -0.1673  0.1216  0.9380
  113MOL0     C15183  11.878   8.167   3.886 -0.1148 -0.1745  0.3828
  113MOL0     C15184  12.023   8.170   3.899  0.7443  0.4030  0.1967
  113MOL0     C15185  12.139   8.172   3.932 -0.7211 -0.1331 -0.2848
  113MOL0     C15186  11.527   8.345   4.406 -0.1462  0.4939 -0.7621
  113MOL0     C15187  11.442   8.422   4.482  0.3874 -0.0528 -0.1493
  113MOL0     H15188  11.167   8.446   4.856 -1.0714 -0.9918 -1.7452
  113MOL0     H15189  10.986   8.519   5.009  0.3901  0.2632 -0.2644
  113MOL0     H15190  10.871   8.717   5.109 -0.6676 -1.6084  1.6690
  113MOL0     H15191  10.822   8.846   4.998  1.7393  0.3684  0.2319
  113MOL0     H15192  10.630   8.696   5.187  1.1922 -0.0133  0.0496
  113MOL0     H15193  10.702   8.858   5.199  1.4015 -0.9541  1.2935
  113MOL0     H15194  10.598   8.928   4.986  0.5056 -0.0397  0.9635
  113MOL0     H15195  10.525   8.764   4.982  0.2721  0.5233 -0.3418
  113MOL0     H15196  10.409   8.791   5.174 -0.1182  0.5057 -0.3506
  113MOL0     H15197  10.474   8.949   5.215 -1.2923  1.1237 -0.5999
  113MOL0     H15198  10.324   8.885   4.967  1.9127 -3.4268  1.8793
  113MOL0     H15199  10.232   8.937   5.115  0.2211  1.2038 -1.0301
  113MOL0     H15200  10.340   9.157   5.125  1.1854 -1.0227  0.8798
  113MOL0     H15201  10.455   9.116   5.001  0.9427  0.6434 -1.3828
  113MOL0     H15202  10.143   9.096   4.936 -0.1055  1.3401 -1.3966
  113MOL0     H15203  10.222   9.249   4.923 -0.1528  0.8887 -2.2607
  113MOL0     H15204  10.217   9.137   4.701 -0.5522  1.7806  0.2369
  113MOL0     H15205  10.313   8.996   4.761  0.3852  0.4354 -0.2289
  113MOL0     H15206  10.551   9.012   4.682 -0.3811  0.2792 -1.1229
  113MOL0     H15207  10.768   9.088   4.623 -0.8603 -0.1958  2.5533
  113MOL0     H15208  10.795   9.251   4.574 -0.5343 -0.5561  0.1367
  113MOL0     H15209  10.805   9.148   4.864 -0.7501 -2.2243 -2.0944
  113MOL0     H15210  10.862   9.306   4.814 -1.0261 -0.5989  1.7707
  113MOL0     H15211  10.979   9.056   4.692  2.4777 -1.0466  1.4279
  113MOL0     H15212  11.028   9.113   4.842 -1.9147  0.1714  0.3907
  113MOL0     H15213  11.199   9.225   4.732  0.0597  1.3379 -0.4751
  113MOL0     H15214  11.065   9.338   4.748 -0.0699  2.1506 -4.1720
  113MOL0     H15215  11.147   9.036   4.452  0.7431  0.6031  1.2510
  113MOL0     H15216  11.375   8.945   4.205 -0.2320  0.4197  0.0197
  113MOL0     H15217  11.407   8.890   4.366  1.2058 -1.8531 -2.8718
  113MOL0     H15218  11.241   8.903   4.320 -1.0493  1.8896  0.6288
  113MOL0     H15219  11.774   9.112   4.103 -0.6732  0.1009 -1.1606
  113MOL0     H15220  12.024   9.192   4.041  1.2607  2.1872 -5.0640
  113MOL0     H15221  12.295   9.444   4.107 -0.2881 -1.7080  1.2278
  113MOL0     H15222  12.208   9.294   4.136  0.7964 -0.5609  0.0049
  113MOL0     H15223  12.296   9.207   3.936 -2.2379 -0.0922 -2.3050
  113MOL0     H15224  12.211   9.332   3.844  0.6017 -1.4087 -0.7974
  113MOL0     H15225  12.477   9.358   3.998 -0.2104 -0.7787  1.1206
  113MOL0     H15226  12.390   9.490   3.929 -0.7480 -0.0762 -0.0654
  113MOL0     H15227  12.504   9.255   3.778  0.7468 -0.5981 -4.8663
  113MOL0     H15228  12.399   9.383   3.701  1.3738  1.5427 -0.5959
  113MOL0     H15229  12.659   9.440   3.820  0.1394 -1.5621 -0.1885
  113MOL0     H15230  12.552   9.539   3.710  0.1193 -1.0430 -3.6987
  113MOL0     H15231  12.754   9.494   3.590  0.1831 -0.2435  0.5857
  113MOL0     H15232  12.753   9.330   3.649  2.2266 -0.2522 -3.1951
  113MOL0     H15233  12.579   9.445   3.440  0.5669 -2.3133 -3.0995
  113MOL0     H15234  12.545   9.281   3.520 -1.3819  0.7033  0.0041
  113MOL0     H15235  12.752   9.191   3.454 -0.4706  0.1033 -0.2130
  113MOL0     H15236  12.806   9.344   3.378 -0.6429 -0.6970 -1.7037
  113MOL0     H15237  11.919   9.590   4.082 -3.6177  0.8104  0.8546
  113MOL0     H15238  11.678   9.521   4.147  0.4502 -0.7844  1.6321
  113MOL0     H15239  11.435   9.401   4.317  0.3854 -0.0535 -1.0228
  113MOL0     H15240  11.253   9.457   4.481 -0.2628 -0.5446  0.1244
  113MOL0     H15241  10.816   8.746   4.685 -1.5246 -0.4655  0.7322
  113MOL0     H15242  11.016   8.688   4.544  2.2201 -3.2659 -0.9689
  113MOL0     H15243  11.361   8.656   4.251  0.0256 -1.5314 -3.4893
  113MOL0     H15244  11.498   8.500   4.113 -0.0959 -1.5881  0.2107
  113MOL0     H15245  11.794   8.401   4.200  0.6332 -0.3322 -0.3835
  113MOL0     H15246  11.782   8.264   4.322  1.8353 -0.6442 -0.9668
  113MOL0     H15247  11.764   8.112   4.117 -1.7456  1.5082 -0.3414
  113MOL0     H15248  11.922   8.174   4.161  0.1864 -0.0753  0.5278
  113MOL0     H15249  11.859   8.367   3.978  2.7461 -1.0738 -2.2640
  113MOL0     H15250  11.716   8.296   3.947  0.2407  1.1320  0.5668
  113MOL0     H15251  11.842   8.187   3.785  0.9122 -1.7429 -0.3420
  113MOL0     H15252  11.839   8.068   3.913  1.4933 -0.6968  0.8971
  113MOL0     H15253  12.241   8.180   3.965 -1.3741  1.0376  1.6284
  113MOL0     H15254  11.589   8.265   4.446  0.8900  0.9393 -1.4313
  113MOL0     H15255  11.437   8.407   4.590 -1.2449  1.6163  0.0488
  114MOL0     O15256   4.468   9.330   0.644 -1.0290 -0.0023  0.0141
  114MOL0     C15257   4.431   9.449   0.647 -0.4890 -0.0448  0.3531
  114MOL0     O15258   4.482   9.555   0.578 -0.5600 -0.3814  0.3398
  114MOL0     C15259   4.609   9.531   0.531 -0.2327 -0.0061  0.8041
  114MOL0     C15260   4.727   9.509   0.609  0.8650  0.1076  0.9814
  114MOL0     C15261   4.844   9.486   0.537  0.0682 -0.0057 -0.7874
  114MOL0     C15262   4.860   9.503   0.405 -0.1092  0.5864  0.2608
  114MOL0     O15263   4.979   9.483   0.334 -0.4209 -0.0592  0.6184
  114MOL0     C15264   5.094   9.436   0.406 -0.4633  0.4401 -0.1454
  114MOL0     C15265   5.183   9.545   0.481 -0.1068  0.9230  0.3535
  114MOL0     C15266   5.270   9.481   0.590  0.2568  0.6201  0.0141
  114MOL0     C15267   5.383   9.406   0.524  0.0481  0.3859  0.1515
  114MOL0     C15268   5.474   9.308   0.599 -0.3721 -0.5919 -0.1872
  114MOL0     C15269   5.553   9.398   0.697 -0.5053  0.4783 -0.5635
  114MOL0     C15270   5.666   9.318   0.770  0.6529 -0.1556 -0.4622
  114MOL0     C15271   5.735   9.398   0.879 -0.1941  0.0428  1.0169
  114MOL0     N15272   5.800   9.311   0.975  0.3620 -0.0325 -0.6360
  114MOL0     C15273   5.918   9.243   0.962 -0.2250 -0.0134  0.2605
  114MOL0     C15274   5.951   9.206   1.086 -0.7964 -0.5539  0.2321
  114MOL0     C15275   6.074   9.121   1.125 -0.2402 -0.7806  0.0500
  114MOL0     C15276   6.041   8.986   1.181 -0.9026 -0.8677 -0.3332
  114MOL0     C15277   6.166   8.919   1.237  0.6954 -0.4295  0.1573
  114MOL0     C15278   6.150   8.806   1.338 -0.0899 -0.4473  0.2274
  114MOL0     O15279   6.049   8.715   1.313  0.0731  0.3582  0.2948
  114MOL0     C15280   6.084   8.583   1.353 -0.1819 -0.2364 -0.2885
  114MOL0     C15281   6.136   8.557   1.481 -0.0085  0.1331  0.0047
  114MOL0     C15282   6.140   8.426   1.529 -0.1774  0.3694 -0.3242
  114MOL0     C15283   6.178   8.429   1.676 -0.2742 -0.6360  0.4468
  114MOL0     C15284   6.114   8.314   1.449  0.3218 -0.1251 -0.1768
  114MOL0     C15285   6.131   8.168   1.482 -0.8747 -0.1295  0.0997
  114MOL0     O15286   6.101   8.071   1.386 -0.0332 -0.1929  0.5217
  114MOL0     C15287   6.090   7.945   1.444 -0.5171 -0.5174 -0.4218
  114MOL0     C15288   5.970   7.901   1.492 -0.3367 -0.3995  0.5253
  114MOL0     C15289   5.956   7.782   1.560 -0.1591  0.5391  0.3548
  114MOL0     C15290   6.065   7.697   1.582  0.3278  0.0964  1.2613
  114MOL0     O15291   6.047   7.576   1.630 -0.3042  0.2656 -0.1227
  114MOL0     C15292   6.152   7.480   1.635 -0.3776  0.6156  0.1179
  114MOL0     C15293   6.100   7.357   1.721  0.2796 -1.5060 -0.1042
  114MOL0     C15294   6.049   7.410   1.859  0.3036  0.6545  0.5527
  114MOL0     C15295   6.064   7.308   1.969  0.0437  0.3939 -0.0582
  114MOL0     C15296   6.006   7.351   2.105 -0.5575  0.0638  0.1363
  114MOL0     C15297   6.063   7.257   2.215 -1.0821  0.1311  0.6644
  114MOL0     C15298   6.016   7.300   2.365  0.5784  0.3965  0.7290
  114MOL0     C15299   6.066   7.190   2.451 -0.3104 -0.0507  0.7372
  114MOL0    Cl15300   6.243   7.198   2.465  0.1174  0.4502  0.1923
  114MOL0     C15301   6.187   7.741   1.531  0.0494 -0.4936  0.3159
  114MOL0     C15302   6.203   7.863   1.465 -0.3816 -1.0603  0.6919
  114MOL0     O15303   6.166   8.147   1.597  0.2428  0.8615 -0.4834
  114MOL0     C15304   6.073   8.350   1.322  0.0442  0.2433 -0.1407
  114MOL0     C15305   6.056   8.479   1.268  0.3426  0.1965  0.1500
  114MOL0     N15306   5.854   9.254   1.174 -0.7984 -0.1233 -0.1380
  114MOL0     N15307   5.778   9.327   1.105 -0.2785  0.2292  0.1239
  114MOL0     C15308   4.737   9.524   0.329  0.0490 -0.0123  0.5066
  114MOL0     C15309   4.617   9.544   0.394 -0.0663  0.3468  0.4287
  114MOL0     C15310   4.297   9.467   0.701  0.4775  0.2583 -0.6982
  114MOL0     C15311   4.216   9.567   0.655 -0.1273 -0.6029 -0.1954
  114MOL0     C15312   4.077   9.564   0.685  0.0368 -0.9932 -0.8013
  114MOL0     C15313   4.038   9.481   0.789 -0.0340 -0.1103  0.2940
  114MOL0     O15314   3.917   9.476   0.854  0.1351 -0.4851  0.1762
  114MOL0     C15315   3.804   9.551   0.809  0.7043  0.0831 -0.5763
  114MOL0     C15316   3.744   9.481   0.685  0.4819 -1.1787  0.1760
  114MOL0     C15317   3.726   9.329   0.702 -0.0970 -0.3669  0.0166
  114MOL0     C15318   3.680   9.258   0.574 -0.7037  0.1593 -0.1244
  114MOL0     C15319   3.542   9.295   0.539  0.5358 -0.5704 -0.9766
  114MOL0     C15320   3.432   9.328   0.499  0.4713  0.2071  1.0595
  114MOL0     C15321   4.122   9.390   0.846 -0.5120  0.3597  0.5345
  114MOL0     C15322   4.253   9.375   0.796 -0.7396 -1.4883 -0.8125
  114MOL0     H15323   4.725   9.486   0.715 -0.6031 -1.6719  0.6377
  114MOL0     H15324   4.920   9.444   0.602  0.7296  2.0750 -0.1504
  114MOL0     H15325   5.063   9.353   0.471 -2.9130  0.3013 -1.3543
  114MOL0     H15326   5.168   9.406   0.332  2.3214  1.6506  1.9898
  114MOL0     H15327   5.246   9.602   0.412  0.7074  0.6115  0.8360
  114MOL0     H15328   5.120   9.618   0.534 -1.9609 -0.9157  0.8000
  114MOL0     H15329   5.310   9.562   0.652 -2.9225  0.9139  1.9102
  114MOL0     H15330   5.202   9.415   0.644 -0.5728  2.6757  1.6353
  114MOL0     H15331   5.355   9.349   0.434  4.5744 -2.6669  0.3414
  114MOL0     H15332   5.443   9.480   0.471 -1.3966  1.6634  0.2321
  114MOL0     H15333   5.429   9.238   0.670  1.6959 -0.1125  1.7024
  114MOL0     H15334   5.541   9.255   0.531  0.8488 -1.3674  1.5399
  114MOL0     H15335   5.588   9.484   0.638  0.7134  0.1075 -0.4155
  114MOL0     H15336   5.489   9.432   0.779  0.0465 -0.3168  0.2152
  114MOL0     H15337   5.616   9.241   0.829 -2.7796  0.3542 -2.4205
  114MOL0     H15338   5.740   9.269   0.706  1.2891 -1.1484  0.9890
  114MOL0     H15339   5.662   9.463   0.927 -1.8753  1.1808 -2.7102
  114MOL0     H15340   5.804   9.471   0.836  0.8980 -0.1621  2.3377
  114MOL0     H15341   5.957   9.214   0.864 -1.5440  3.1354 -1.3453
  114MOL0     H15342   6.132   9.117   1.032 -1.5252 -1.3567 -0.7513
  114MOL0     H15343   6.119   9.187   1.200 -2.1047 -1.2976  1.7007
  114MOL0     H15344   5.997   8.929   1.099  1.0086 -1.1177 -1.2392
  114MOL0     H15345   5.965   8.992   1.260  0.3293  2.1248  0.7740
  114MOL0     H15346   6.235   8.991   1.282  1.7106 -0.7111 -0.8790
  114MOL0     H15347   6.217   8.879   1.148 -1.4874  2.4588 -2.6321
  114MOL0     H15348   6.127   8.853   1.434  2.2228 -2.9381  2.1607
  114MOL0     H15349   6.250   8.762   1.347 -0.3872 -0.8406  1.8228
  114MOL0     H15350   6.164   8.645   1.537 -1.3598  0.5109  0.1224
  114MOL0     H15351   6.137   8.339   1.723 -0.2248 -1.7849 -1.5573
  114MOL0     H15352   6.287   8.422   1.672 -0.1176  0.4988  2.1939
  114MOL0     H15353   6.137   8.514   1.730  0.0603  0.2936 -0.7041
  114MOL0     H15354   5.884   7.966   1.482  0.8085  1.1926  0.6289
  114MOL0     H15355   5.866   7.767   1.619 -0.4079  1.5683  0.2504
  114MOL0     H15356   6.174   7.448   1.533  0.0527 -1.8827  0.9079
  114MOL0     H15357   6.244   7.522   1.676 -0.9329  2.4438 -0.4199
  114MOL0     H15358   6.005   7.334   1.672 -0.7838  3.0480 -0.5983
  114MOL0     H15359   6.175   7.278   1.730 -0.1897 -1.7679  2.6207
  114MOL0     H15360   5.948   7.453   1.861  0.3483  0.7584  1.9334
  114MOL0     H15361   6.110   7.492   1.896  0.8861  0.9297 -0.9462
  114MOL0     H15362   6.004   7.220   1.942  0.0081  0.7659 -1.2581
  114MOL0     H15363   6.161   7.260   1.978 -1.5794 -2.7886  2.7258
  114MOL0     H15364   5.897   7.365   2.098 -0.2067  2.8831 -1.4322
  114MOL0     H15365   6.047   7.450   2.127  0.1939 -0.2239  0.0663
  114MOL0     H15366   6.029   7.155   2.192  3.4702 -1.2058 -1.4629
  114MOL0     H15367   6.172   7.264   2.222 -0.9290 -1.3364  0.1742
  114MOL0     H15368   5.907   7.311   2.361  0.4124 -0.7939  1.5018
  114MOL0     H15369   6.060   7.396   2.393 -1.7853  1.5732  0.6969
  114MOL0     H15370   6.035   7.091   2.418  0.7446 -1.2524  3.0726
  114MOL0     H15371   6.028   7.207   2.553 -2.0914  0.6259 -0.0029
  114MOL0     H15372   6.283   7.693   1.515  0.9334  1.5993 -1.2225
  114MOL0     H15373   6.300   7.891   1.423 -0.6944  2.0628  1.7511
  114MOL0     H15374   6.054   8.265   1.256 -0.7573 -1.0120  1.6284
  114MOL0     H15375   6.018   8.493   1.168 -1.4607  1.0249  0.9164
  114MOL0     H15376   4.745   9.517   0.221  2.0870  0.0849  0.6125
  114MOL0     H15377   4.525   9.561   0.339 -0.8920 -0.8516  1.4037
  114MOL0     H15378   4.256   9.650   0.597 -3.4011  1.0044 -0.3444
  114MOL0     H15379   4.013   9.644   0.647 -2.3208 -1.7471  1.2914
  114MOL0     H15380   3.730   9.567   0.887  1.7570  3.8654 -0.1597
  114MOL0     H15381   3.844   9.643   0.766 -0.3681 -0.4904 -2.9838
  114MOL0     H15382   3.802   9.508   0.597 -0.4364  2.4918  0.5247
  114MOL0     H15383   3.644   9.526   0.677  1.0718  0.9897  3.2014
  114MOL0     H15384   3.653   9.313   0.783 -0.7750  0.9071 -0.3146
  114MOL0     H15385   3.824   9.287   0.725 -0.6128 -0.6465  1.8225
  114MOL0     H15386   3.688   9.152   0.599 -0.5732  0.3728  0.8159
  114MOL0     H15387   3.746   9.291   0.493 -1.2242  0.7120 -0.3355
  114MOL0     H15388   3.332   9.360   0.481 -0.5812 -0.6600  4.4952
  114MOL0     H15389   4.106   9.314   0.922 -3.1186 -0.7820 -1.0040
  114MOL0     H15390   4.322   9.307   0.844  0.1855  0.9503  1.5354
  115MOL0     O15391   2.082   6.619   4.624 -0.1387 -0.9519  0.6715
  115MOL0     C15392   2.104   6.528   4.549  0.1997  0.3215 -0.7020
  115MOL0     O15393   2.027   6.416   4.534 -0.2697  0.3044 -0.3512
  115MOL0     C15394   1.945   6.367   4.625 -0.9789  0.8685  0.2631
  115MOL0     C15395   1.873   6.252   4.577 -0.5692  0.3150 -0.0930
  115MOL0     C15396   1.782   6.187   4.662 -0.7101  0.0842 -0.0515
  115MOL0     C15397   1.760   6.234   4.788 -0.5692  0.0047  0.1005
  115MOL0     O15398   1.663   6.176   4.857  0.4473  0.1932  0.4736
  115MOL0     C15399   1.548   6.249   4.896  0.2742  0.0106  0.8210
  115MOL0     C15400   1.422   6.198   4.820  0.0862 -0.4630 -0.0846
  115MOL0     C15401   1.306   6.266   4.889 -0.2871  0.6148  0.3789
  115MOL0     C15402   1.171   6.221   4.813 -0.4615 -0.2917 -0.2832
  115MOL0     C15403   1.043   6.294   4.878  0.1395 -0.1927 -0.5686
  115MOL0     C15404   0.917   6.266   4.791 -0.2568 -1.0527  0.0269
  115MOL0     C15405   0.815   6.355   4.846  0.5448 -0.1874 -1.1704
  115MOL0     C15406   0.761   6.334   4.988  0.5532 -0.2403  0.3608
  115MOL0     N15407   0.655   6.419   5.026 -0.1141  0.3519 -0.6975
  115MOL0     C15408   0.666   6.536   5.092  0.0859 -0.1547 -0.9199
  115MOL0     C15409   0.538   6.575   5.126  0.0301  0.6507 -0.0086
  115MOL0     C15410   0.507   6.692   5.207  1.4888 -0.5274 -0.1576
  115MOL0     C15411   0.484   6.835   5.133 -0.2229  0.1885  0.4362
  115MOL0     C15412   0.483   6.956   5.239 -0.3980  0.9098  0.4059
  115MOL0     C15413   0.425   7.082   5.182  0.4008 -1.1013  0.0384
  115MOL0     O15414   0.280   7.068   5.181  0.5595 -0.3649 -0.1314
  115MOL0     C15415   0.207   7.166   5.120  0.0511 -0.0089  0.8228
  115MOL0     C15416   0.239   7.292   5.072  0.6266 -0.1721 -0.3450
  115MOL0     C15417   0.149   7.388   5.015  0.2385  0.0149  0.8125
  115MOL0     C15418   0.204   7.522   4.973  0.3221  0.2277 -0.0951
  115MOL0     C15419   0.006   7.361   5.013 -0.3656  0.3698 -0.0123
  115MOL0     C15420  -0.096   7.456   4.970 -0.3084  0.1383 -0.0274
  115MOL0     O15421  -0.219   7.418   5.008 -0.7184  0.4190  0.0411
  115MOL0     C15422  -0.307   7.518   5.002 -0.8171 -0.0071  0.9416
  115MOL0     C15423  -0.367   7.568   5.117 -0.5819 -0.1486  1.0300
  115MOL0     C15424  -0.467   7.667   5.115 -0.1973 -0.3196 -0.0972
  115MOL0     C15425  -0.496   7.725   4.986 -0.5372 -1.7548 -0.0368
  115MOL0     O15426  -0.584   7.825   4.965 -0.6606 -0.0962  0.5783
  115MOL0     C15427  -0.605   7.922   5.068  0.2236  0.0710 -0.5540
  115MOL0     C15428  -0.712   8.018   5.035  1.2083 -0.4953 -0.1319
  115MOL0     C15429  -0.704   8.158   5.097 -0.1828 -0.6012  0.8294
  115MOL0     C15430  -0.831   8.234   5.119 -0.4363 -0.8304  0.2986
  115MOL0     C15431  -0.826   8.366   5.198 -0.2947 -0.1534  0.7649
  115MOL0     C15432  -0.833   8.346   5.351  0.3313 -0.4720 -0.3417
  115MOL0     C15433  -0.821   8.477   5.437 -0.5294  0.6196  0.0468
  115MOL0     C15434  -0.845   8.456   5.578  0.7272 -0.3272 -0.0543
  115MOL0    Cl15435  -0.701   8.362   5.643  0.0285  0.1805  0.7756
  115MOL0     C15436  -0.449   7.661   4.866  0.0791 -1.3783 -0.8333
  115MOL0     C15437  -0.349   7.564   4.877  0.7398  0.6891  0.3932
  115MOL0     O15438  -0.068   7.563   4.915  0.5990  0.5847 -0.3855
  115MOL0     C15439  -0.022   7.232   5.070  0.6523 -0.0644  0.0781
  115MOL0     C15440   0.072   7.139   5.118  1.0386 -0.4431 -0.1844
  115MOL0     N15441   0.464   6.471   5.098 -0.2572  0.4386  0.7097
  115MOL0     N15442   0.528   6.386   5.029 -0.9714  1.0133  0.7887
  115MOL0     C15443   1.842   6.334   4.837  0.1956  0.1671  0.1943
  115MOL0     C15444   1.939   6.403   4.761 -0.3842  0.4890  0.4911
  115MOL0     C15445   2.232   6.520   4.485 -0.4565 -0.8769 -0.3566
  115MOL0     C15446   2.265   6.408   4.403 -0.3625  0.0752  0.0093
  115MOL0     C15447   2.389   6.409   4.334  0.0286 -0.1055 -1.5162
  115MOL0     C15448   2.477   6.523   4.341  0.4049 -0.1200  0.0343
  115MOL0     O15449   2.596   6.536   4.279  0.0773  0.5357  0.7374
  115MOL0     C15450   2.641   6.428   4.184  0.2935 -0.7317 -0.2813
  115MOL0     C15451   2.796   6.429   4.161  0.7668 -0.4198 -0.0042
  115MOL0     C15452   2.873   6.412   4.293  0.5281 -0.0981  1.7012
  115MOL0     C15453   3.030   6.417   4.279 -0.4087 -0.2230  0.1750
  115MOL0     C15454   3.090   6.545   4.281  0.6754 -1.1276  0.4235
  115MOL0     C15455   3.146   6.652   4.303 -1.0020 -0.0871 -0.0424
  115MOL0     C15456   2.445   6.625   4.430 -0.5276  0.8051 -0.1249
  115MOL0     C15457   2.329   6.621   4.503  0.1409 -0.0608 -0.6724
  115MOL0     H15458   1.881   6.190   4.488 -0.8784  0.6435 -0.3538
  115MOL0     H15459   1.721   6.102   4.633 -0.4251  0.1753 -0.9365
  115MOL0     H15460   1.527   6.239   5.003 -2.8360  0.3034  0.3446
  115MOL0     H15461   1.558   6.354   4.868  0.3558 -0.5599 -1.5435
  115MOL0     H15462   1.408   6.216   4.713  0.3119  1.8839  0.2286
  115MOL0     H15463   1.411   6.091   4.840 -1.5179 -0.4709 -0.8816
  115MOL0     H15464   1.300   6.251   4.997 -1.7158  1.8496  0.5104
  115MOL0     H15465   1.323   6.372   4.868  4.1280 -0.3458 -2.2602
  115MOL0     H15466   1.190   6.250   4.709  0.0461 -0.1029 -0.1418
  115MOL0     H15467   1.152   6.115   4.829  1.6227 -0.4167  2.0626
  115MOL0     H15468   1.027   6.267   4.982  3.7041  1.6914  0.6425
  115MOL0     H15469   1.058   6.403   4.882  2.8728 -0.5291  1.2948
  115MOL0     H15470   0.938   6.296   4.688  1.2901  0.0355  0.6205
  115MOL0     H15471   0.893   6.159   4.785  2.8629 -1.8006 -5.0364
  115MOL0     H15472   0.852   6.458   4.842  2.9270 -0.9741 -1.0359
  115MOL0     H15473   0.723   6.337   4.790 -1.2461 -0.9155  1.7798
  115MOL0     H15474   0.848   6.336   5.054  1.1540  1.8367 -0.4262
  115MOL0     H15475   0.724   6.231   4.986 -0.4062 -0.0076  2.6210
  115MOL0     H15476   0.758   6.593   5.105  0.6939 -1.5446  1.3874
  115MOL0     H15477   0.410   6.667   5.252 -0.1055  3.9371 -0.6483
  115MOL0     H15478   0.568   6.704   5.297  0.7913 -1.1915  0.4318
  115MOL0     H15479   0.387   6.829   5.083  0.4857  2.1591 -1.3002
  115MOL0     H15480   0.568   6.852   5.066  0.4614  0.0561  1.2440
  115MOL0     H15481   0.581   6.982   5.278 -1.4732  4.3260  1.2064
  115MOL0     H15482   0.431   6.917   5.327 -0.0296 -1.6272 -0.4283
  115MOL0     H15483   0.463   7.099   5.081 -4.5895 -2.1212 -2.3565
  115MOL0     H15484   0.444   7.168   5.247 -1.7851 -0.3302 -0.2342
  115MOL0     H15485   0.337   7.336   5.079  1.5741 -2.4350  2.3590
  115MOL0     H15486   0.179   7.527   4.867  1.6720 -1.0134 -0.5118
  115MOL0     H15487   0.167   7.603   5.036  0.1097 -0.0347  0.1215
  115MOL0     H15488   0.313   7.537   4.976  0.3641  0.0303  2.5953
  115MOL0     H15489  -0.324   7.520   5.205 -0.2687 -2.3639 -0.2572
  115MOL0     H15490  -0.521   7.697   5.204 -0.7889  3.0245 -1.4076
  115MOL0     H15491  -0.626   7.890   5.171 -0.4448 -0.5098 -0.8632
  115MOL0     H15492  -0.513   7.981   5.072 -0.4082  1.0622 -0.0881
  115MOL0     H15493  -0.700   8.031   4.927  2.7756  1.8383  0.2484
  115MOL0     H15494  -0.808   7.968   5.047  1.2015  0.0242  2.5010
  115MOL0     H15495  -0.641   8.220   5.033 -0.7829  0.9168  1.6309
  115MOL0     H15496  -0.646   8.154   5.190  4.3707  1.0234 -1.6112
  115MOL0     H15497  -0.874   8.243   5.019 -2.5183  1.6462  1.3108
  115MOL0     H15498  -0.902   8.172   5.174  0.2415 -0.2526  1.8959
  115MOL0     H15499  -0.913   8.425   5.169 -1.0326  0.0968  3.2141
  115MOL0     H15500  -0.735   8.423   5.178 -1.4442  0.7541 -2.5372
  115MOL0     H15501  -0.927   8.295   5.376 -0.5754  2.0610  1.8329
  115MOL0     H15502  -0.744   8.283   5.364  2.8460  2.6143 -1.3855
  115MOL0     H15503  -0.891   8.550   5.394 -0.0500  0.5584 -0.8489
  115MOL0     H15504  -0.719   8.515   5.430  0.3284 -1.1386  1.8182
  115MOL0     H15505  -0.938   8.407   5.609  0.7053 -0.1725  0.1253
  115MOL0     H15506  -0.843   8.547   5.639  0.3152 -0.5925  0.3643
  115MOL0     H15507  -0.470   7.690   4.764 -2.8533 -0.2842 -0.0302
  115MOL0     H15508  -0.309   7.519   4.787  4.1575  0.6382  1.8118
  115MOL0     H15509  -0.121   7.188   5.061  1.0842 -0.6520 -3.2127
  115MOL0     H15510   0.042   7.044   5.161 -3.1197  0.8227  0.1378
  115MOL0     H15511   1.825   6.351   4.943 -0.7683  1.6801 -0.1562
  115MOL0     H15512   2.004   6.474   4.812  3.5846 -1.4069 -1.4934
  115MOL0     H15513   2.200   6.322   4.391 -1.6268  1.0499 -0.3656
  115MOL0     H15514   2.406   6.318   4.277 -0.8303 -2.3381  1.5187
  115MOL0     H15515   2.616   6.332   4.230 -0.4186 -0.0244  0.8609
  115MOL0     H15516   2.595   6.448   4.087  2.4521  2.4447 -0.7888
  115MOL0     H15517   2.821   6.531   4.130 -3.9649  1.1218  0.4029
  115MOL0     H15518   2.821   6.354   4.086 -0.0810 -0.0790 -0.6389
  115MOL0     H15519   2.837   6.319   4.338 -0.3697  0.7256  2.7586
  115MOL0     H15520   2.829   6.478   4.369 -0.4533  1.0898  0.1663
  115MOL0     H15521   3.070   6.361   4.194  1.1859  1.5121 -0.2787
  115MOL0     H15522   3.054   6.371   4.376 -0.9917  1.0369  0.9483
  115MOL0     H15523   3.197   6.740   4.337 -1.8738 -0.2350  1.7547
  115MOL0     H15524   2.506   6.713   4.446 -0.4080  0.9306 -1.2439
  115MOL0     H15525   2.307   6.701   4.572 -1.5437  0.1522 -1.4087
  116MOL0     O15526   8.304   8.540   0.616 -1.0384 -0.0288  0.0490
  116MOL0     C15527   8.339   8.424   0.596  0.0627  0.2355  0.4321
  116MOL0     O15528   8.264   8.313   0.630  0.4528  0.4119 -0.4719
  116MOL0     C15529   8.126   8.335   0.645 -0.6600  0.3423 -0.4391
  116MOL0     C15530   8.054   8.395   0.547  0.1509 -0.5909  0.2737
  116MOL0     C15531   7.912   8.407   0.564  0.8392  0.0504 -0.0432
  116MOL0     C15532   7.851   8.360   0.679 -0.7252  0.0440  0.2651
  116MOL0     O15533   7.718   8.387   0.693  0.4655 -0.6511 -0.0199
  116MOL0     C15534   7.669   8.427   0.824 -0.0451 -0.5573  0.4022
  116MOL0     C15535   7.522   8.451   0.819  0.3861 -0.9550  0.2811
  116MOL0     C15536   7.497   8.582   0.756 -0.0336 -0.7756 -0.5246
  116MOL0     C15537   7.347   8.610   0.736  0.1756 -0.5516 -0.5635
  116MOL0     C15538   7.325   8.752   0.668  0.2596 -0.4091  0.4595
  116MOL0     C15539   7.358   8.860   0.766 -0.1799  0.2316  0.3863
  116MOL0     C15540   7.331   8.997   0.707  0.5407 -1.2854 -0.5891
  116MOL0     C15541   7.342   9.101   0.814  0.5027  0.2335 -0.2789
  116MOL0     N15542   7.375   9.234   0.764  0.5545 -0.4036 -0.5885
  116MOL0     C15543   7.287   9.329   0.705 -0.7602  1.2236 -0.3605
  116MOL0     C15544   7.367   9.424   0.665 -1.0719 -1.3089 -0.8783
  116MOL0     C15545   7.307   9.557   0.614 -0.5540 -0.1697 -0.2215
  116MOL0     C15546   7.253   9.657   0.721  1.0308  0.1326  0.2619
  116MOL0     C15547   7.358   9.739   0.802 -0.2857  0.2418 -0.5211
  116MOL0     C15548   7.385   9.886   0.744  0.2299  0.2602  1.2634
  116MOL0     O15549   7.484   9.965   0.816  0.5650 -0.5669 -0.2030
  116MOL0     C15550   7.456  10.009   0.946  0.0953  0.0498  0.1654
  116MOL0     C15551   7.332  10.063   0.976  0.3288  0.4384 -0.3581
  116MOL0     C15552   7.301  10.102   1.098  0.0397  0.3775 -0.4425
  116MOL0     C15553   7.164  10.159   1.129 -0.1435  0.2341  0.0201
  116MOL0     C15554   7.396  10.093   1.205  0.5714 -0.1802 -0.2509
  116MOL0     C15555   7.369  10.146   1.341  0.5468 -0.2989  0.3544
  116MOL0     O15556   7.416  10.074   1.442  0.3835  0.4041 -1.1573
  116MOL0     C15557   7.391  10.110   1.574  0.1260 -0.2792 -0.4373
  116MOL0     C15558   7.267  10.116   1.625  1.0647 -0.1697  0.7241
  116MOL0     C15559   7.256  10.160   1.757  0.6770  0.5137 -0.1702
  116MOL0     C15560   7.371  10.199   1.830  0.2928  0.1278  0.8937
  116MOL0     O15561   7.365  10.268   1.950  0.1410 -0.2947  0.0400
  116MOL0     C15562   7.233  10.315   2.005 -0.5419 -0.0425  0.4899
  116MOL0     C15563   7.148  10.215   2.076 -0.0823 -0.3506 -0.0264
  116MOL0     C15564   7.016  10.285   2.093 -0.2331 -0.2124  0.4994
  116MOL0     C15565   6.920  10.191   2.172 -0.8444  0.3639 -0.1296
  116MOL0     C15566   6.785  10.246   2.184 -0.6675 -0.1209  0.2502
  116MOL0     C15567   6.683  10.157   2.260 -0.0064  0.2742  0.1808
  116MOL0     C15568   6.636  10.041   2.168 -0.3137  0.0956 -0.8417
  116MOL0     C15569   6.495   9.987   2.215 -0.0625  0.2386  0.4218
  116MOL0    Cl15570   6.427   9.873   2.095 -0.3377  0.1628 -0.6040
  116MOL0     C15571   7.497  10.181   1.780  0.5978 -0.2628  0.3136
  116MOL0     C15572   7.508  10.134   1.651  0.1776 -0.1746 -0.6328
  116MOL0     O15573   7.319  10.254   1.354 -0.3042 -0.5343  0.0282
  116MOL0     C15574   7.521  10.039   1.173 -0.0084 -1.0061  0.0677
  116MOL0     C15575   7.551  10.000   1.051  0.4806  0.3017 -0.4826
  116MOL0     N15576   7.500   9.396   0.697  0.3165  0.4503 -0.8895
  116MOL0     N15577   7.500   9.283   0.751  0.0624  0.2784 -0.6235
  116MOL0     C15578   7.928   8.301   0.776 -1.3728  0.6829 -0.3978
  116MOL0     C15579   8.067   8.281   0.758 -0.5990  0.0838 -0.1808
  116MOL0     C15580   8.469   8.401   0.532  0.6009 -0.5520  0.4594
  116MOL0     C15581   8.508   8.269   0.526  0.3784 -0.2481  0.4947
  116MOL0     C15582   8.637   8.245   0.478 -0.2218 -0.3430  0.1177
  116MOL0     C15583   8.721   8.346   0.430  0.3964 -0.6776  0.2687
  116MOL0     O15584   8.856   8.322   0.407 -0.2754 -0.4871 -0.0137
  116MOL0     C15585   8.894   8.184   0.382  0.7291  0.0972 -0.1795
  116MOL0     C15586   9.032   8.172   0.323  0.7389 -0.0575  0.6633
  116MOL0     C15587   9.086   8.025   0.332 -0.0319  0.3056 -0.1933
  116MOL0     C15588   8.999   7.911   0.279  0.3654  0.3208  0.2931
  116MOL0     C15589   9.081   7.792   0.314  0.0192  0.3321  0.3297
  116MOL0     C15590   9.156   7.699   0.333  1.0067  0.1406 -0.0858
  116MOL0     C15591   8.682   8.475   0.445 -0.0628 -0.4159  1.1173
  116MOL0     C15592   8.556   8.509   0.487  0.6912  0.2154  0.2357
  116MOL0     H15593   8.100   8.430   0.455  0.5891  0.6548  0.9321
  116MOL0     H15594   7.849   8.458   0.492  2.0976 -0.4178 -1.5456
  116MOL0     H15595   7.695   8.354   0.902 -0.5751 -0.8773  0.2865
  116MOL0     H15596   7.716   8.522   0.850 -1.4309  0.5969 -1.1014
  116MOL0     H15597   7.484   8.366   0.761 -0.7992  0.6920 -1.4409
  116MOL0     H15598   7.484   8.447   0.921  1.3299  0.7136  0.7390
  116MOL0     H15599   7.547   8.654   0.820 -1.1693 -0.0700 -0.3947
  116MOL0     H15600   7.551   8.595   0.661 -0.2261  0.2364 -0.5077
  116MOL0     H15601   7.305   8.528   0.678 -0.7452  0.0303 -0.7451
  116MOL0     H15602   7.293   8.624   0.830 -0.1259  0.8032 -0.9084
  116MOL0     H15603   7.388   8.755   0.579 -1.9712  1.4294 -1.1904
  116MOL0     H15604   7.222   8.760   0.632 -0.2060  1.1820  1.9888
  116MOL0     H15605   7.308   8.839   0.862 -0.1641 -1.0918  0.1222
  116MOL0     H15606   7.467   8.856   0.765 -0.2072 -0.7812 -1.3091
  116MOL0     H15607   7.408   9.020   0.633  0.5042  2.6463  0.3354
  116MOL0     H15608   7.236   8.999   0.653 -0.0710  1.1292  0.4300
  116MOL0     H15609   7.417   9.071   0.888 -1.3627 -2.2738  0.7139
  116MOL0     H15610   7.245   9.107   0.863 -0.3111  2.4182 -1.9695
  116MOL0     H15611   7.179   9.338   0.697 -0.8996  0.6352  0.6407
  116MOL0     H15612   7.362   9.602   0.531  0.1983 -2.3035 -0.9513
  116MOL0     H15613   7.221   9.518   0.558  1.1891 -1.3372 -2.2537
  116MOL0     H15614   7.202   9.595   0.795  1.3963 -3.3324 -2.1443
  116MOL0     H15615   7.179   9.717   0.667 -0.5879 -0.1645  2.0530
  116MOL0     H15616   7.454   9.688   0.793 -0.4738  0.1331 -2.1470
  116MOL0     H15617   7.319   9.748   0.904  0.4472  0.9028 -0.2940
  116MOL0     H15618   7.290   9.939   0.734  0.9097  1.4211  0.7814
  116MOL0     H15619   7.420   9.874   0.641  0.6183 -0.6982  1.4938
  116MOL0     H15620   7.265  10.071   0.891 -1.8880 -0.3171  1.2269
  116MOL0     H15621   7.092  10.138   1.049  0.0761 -3.4843  0.6352
  116MOL0     H15622   7.126  10.125   1.226 -1.1214 -2.0702 -1.0886
  116MOL0     H15623   7.165  10.266   1.149  0.4281  0.4264 -0.9854
  116MOL0     H15624   7.180  10.075   1.575  0.2922  0.7467  1.2755
  116MOL0     H15625   7.168  10.185   1.816  1.4853  3.0131  0.0950
  116MOL0     H15626   7.265  10.390   2.077  1.3406 -1.7030  1.4875
  116MOL0     H15627   7.185  10.359   1.917 -2.7303 -5.3921 -1.4535
  116MOL0     H15628   7.135  10.123   2.019  3.9949 -1.6733  0.8327
  116MOL0     H15629   7.191  10.191   2.174  1.9653  0.4345 -0.6816
  116MOL0     H15630   6.964  10.316   2.002 -0.0856  1.9749  1.1144
  116MOL0     H15631   7.036  10.369   2.159 -2.9832 -1.5837  3.3621
  116MOL0     H15632   6.914  10.093   2.124  1.2448  1.0892 -2.0226
  116MOL0     H15633   6.967  10.180   2.270  1.1413  0.2865 -1.0400
  116MOL0     H15634   6.746  10.266   2.084 -2.3739  0.7650  1.0322
  116MOL0     H15635   6.804  10.338   2.241  1.5316 -2.3484  3.4548
  116MOL0     H15636   6.720  10.118   2.355  1.6089  2.2893  0.4597
  116MOL0     H15637   6.600  10.223   2.288 -0.3193 -0.3340  0.7165
  116MOL0     H15638   6.704   9.956   2.174  1.6713  1.7033  1.7325
  116MOL0     H15639   6.632  10.064   2.061  1.8181  1.7698 -0.6568
  116MOL0     H15640   6.423  10.068   2.229  2.4934  2.8580 -0.6549
  116MOL0     H15641   6.517   9.925   2.303 -0.3300  0.7664  0.8699
  116MOL0     H15642   7.590  10.212   1.826 -0.0497 -0.3791  1.7395
  116MOL0     H15643   7.610  10.120   1.616 -0.0970  0.4737 -1.7494
  116MOL0     H15644   7.607  10.028   1.238  0.3398 -0.0742 -0.2165
  116MOL0     H15645   7.647   9.954   1.031 -0.3811 -1.5164 -0.5810
  116MOL0     H15646   7.888   8.265   0.871  1.7257 -2.1990  0.0001
  116MOL0     H15647   8.129   8.232   0.833 -0.4448 -0.0149 -0.3731
  116MOL0     H15648   8.462   8.190   0.584 -0.5981  0.1458  0.2648
  116MOL0     H15649   8.675   8.145   0.500 -0.3749  0.0422  2.2750
  116MOL0     H15650   8.891   8.137   0.481 -4.5845  0.3224  0.0324
  116MOL0     H15651   8.825   8.125   0.322  2.2486 -2.9105  0.7960
  116MOL0     H15652   9.106   8.236   0.373  0.6323 -0.2071  1.0140
  116MOL0     H15653   9.034   8.199   0.217  2.0143 -2.0072  0.1243
  116MOL0     H15654   9.090   8.008   0.440  1.8772  1.5127 -0.0307
  116MOL0     H15655   9.189   8.018   0.296 -0.1707  1.2663 -0.7987
  116MOL0     H15656   8.978   7.910   0.172 -1.7686 -0.6993  0.6638
  116MOL0     H15657   8.900   7.902   0.326 -0.0506  0.0614 -0.6215
  116MOL0     H15658   9.219   7.617   0.362  0.2339 -0.5337 -0.2696
  116MOL0     H15659   8.762   8.548   0.437 -0.6279  0.3995  2.4922
  116MOL0     H15660   8.539   8.614   0.507  0.0854  0.5714 -1.8861
  117MOL0     O15661   1.478   9.648   7.156  1.1886  0.5360 -0.0301
  117MOL0     C15662   1.519   9.537   7.122 -0.2050  0.5827  0.0158
  117MOL0     O15663   1.455   9.420   7.145 -0.1004 -0.3400 -0.3133
  117MOL0     C15664   1.337   9.435   7.218 -0.3822 -0.0520  0.9130
  117MOL0     C15665   1.331   9.416   7.360  0.7360 -0.4990  0.7502
  117MOL0     C15666   1.212   9.463   7.430  0.3350 -0.0081 -0.2563
  117MOL0     C15667   1.103   9.505   7.348  0.1864 -0.2525 -0.0893
  117MOL0     O15668   0.986   9.534   7.408 -0.3011 -1.1706 -0.7393
  117MOL0     C15669   0.979   9.588   7.547 -0.0700  0.1172 -0.7363
  117MOL0     C15670   0.845   9.631   7.586  0.4863  0.6626 -0.0906
  117MOL0     C15671   0.746   9.521   7.620 -0.2174 -0.3288  0.0233
  117MOL0     C15672   0.747   9.463   7.767 -1.3002 -0.1474 -0.4621
  117MOL0     C15673   0.621   9.394   7.807  0.3081 -0.1105 -0.0776
  117MOL0     C15674   0.519   9.497   7.846  0.6813  0.0047 -0.3815
  117MOL0     C15675   0.375   9.445   7.879 -0.2899 -1.2533 -0.2504
  117MOL0     C15676   0.304   9.349   7.781  0.4213  1.1022  0.5255
  117MOL0     N15677   0.260   9.418   7.660 -0.0880 -0.3711  0.1971
  117MOL0     C15678   0.333   9.465   7.555 -0.3789  0.0161 -0.1232
  117MOL0     C15679   0.241   9.511   7.468 -0.2024 -1.0750 -0.6815
  117MOL0     C15680   0.281   9.597   7.342 -0.2656  0.6217 -0.3007
  117MOL0     C15681   0.208   9.549   7.216  0.0831  0.2889  0.7241
  117MOL0     C15682   0.237   9.644   7.101  0.0452 -0.2347 -0.4235
  117MOL0     C15683   0.146   9.632   6.980  0.0139 -0.6688  0.1796
  117MOL0     O15684   0.197   9.727   6.883  0.2590  0.0416  0.5095
  117MOL0     C15685   0.153   9.713   6.758  0.5310 -0.2571 -0.8460
  117MOL0     C15686   0.236   9.758   6.656 -0.8027  0.3428 -0.6606
  117MOL0     C15687   0.195   9.744   6.518 -0.2457 -0.2673 -0.1013
  117MOL0     C15688   0.275   9.817   6.414  0.5386 -0.0292 -0.4236
  117MOL0     C15689   0.076   9.682   6.486  0.8843  0.7402 -0.9321
  117MOL0     C15690   0.017   9.684   6.351 -0.4748 -1.0661  0.2175
  117MOL0     O15691  -0.114   9.708   6.343 -0.2320  0.1736  0.9858
  117MOL0     C15692  -0.174   9.677   6.224  0.3916  0.0454 -0.4505
  117MOL0     C15693  -0.171   9.545   6.174  0.2626 -0.1171 -0.6394
  117MOL0     C15694  -0.219   9.516   6.043  0.6355 -0.1181 -0.0114
  117MOL0     C15695  -0.288   9.619   5.966  0.2246 -0.6352 -0.0231
  117MOL0     O15696  -0.340   9.583   5.845 -0.2414 -0.9028 -0.4748
  117MOL0     C15697  -0.414   9.464   5.831  0.6118  0.3708  0.2975
  117MOL0     C15698  -0.485   9.467   5.694  1.2728  0.2879 -0.2895
  117MOL0     C15699  -0.556   9.328   5.668 -0.4831 -0.1298  0.4936
  117MOL0     C15700  -0.574   9.310   5.508 -0.4782 -0.0563 -0.8686
  117MOL0     C15701  -0.640   9.183   5.459  0.3225  0.1159  0.2242
  117MOL0     C15702  -0.634   9.172   5.301 -0.0511 -0.9236 -0.8880
  117MOL0     C15703  -0.496   9.112   5.263  0.8435 -0.3512 -0.4345
  117MOL0     C15704  -0.364   9.197   5.272  0.6758  0.0763  0.0789
  117MOL0    Cl15705  -0.249   9.156   5.148  0.0874 -0.2373  0.5502
  117MOL0     C15706  -0.293   9.749   6.014 -1.0606  0.7663  0.0844
  117MOL0     C15707  -0.238   9.774   6.146  0.0490 -0.2676 -0.4058
  117MOL0     O15708   0.091   9.671   6.252  0.6654  0.3854  0.2607
  117MOL0     C15709  -0.012   9.638   6.591  0.1077 -0.9890  0.1947
  117MOL0     C15710   0.029   9.659   6.724 -0.3693 -0.2233 -0.0949
  117MOL0     N15711   0.120   9.506   7.534 -0.3142  0.3077 -0.7626
  117MOL0     N15712   0.132   9.452   7.642  0.5916 -0.0614  0.1836
  117MOL0     C15713   1.103   9.497   7.204  0.7246 -0.4619 -0.1212
  117MOL0     C15714   1.222   9.480   7.142 -0.6178  1.2129 -0.4815
  117MOL0     C15715   1.643   9.537   7.044  0.0566 -0.5538  0.9204
  117MOL0     C15716   1.694   9.411   6.988  1.0009 -1.0282 -0.9269
  117MOL0     C15717   1.808   9.399   6.918  0.2624 -0.1587 -0.4599
  117MOL0     C15718   1.880   9.517   6.885  0.1512  0.6942 -0.2015
  117MOL0     O15719   2.010   9.506   6.820  0.3076  1.0792  0.3203
  117MOL0     C15720   2.088   9.377   6.814 -1.1823 -0.2409  0.5394
  117MOL0     C15721   2.127   9.337   6.667  0.0216  0.1574 -0.4017
  117MOL0     C15722   2.195   9.443   6.572 -1.0113 -0.6021 -1.1563
  117MOL0     C15723   2.247   9.381   6.441  0.7495 -0.2141  0.2822
  117MOL0     C15724   2.136   9.324   6.369  0.1040  0.1132 -0.0908
  117MOL0     C15725   2.046   9.256   6.313  0.2415 -1.1406 -0.5689
  117MOL0     C15726   1.834   9.642   6.935 -0.2169  0.0484  0.1939
  117MOL0     C15727   1.718   9.658   7.021  0.0204  0.0724  0.8190
  117MOL0     H15728   1.422   9.378   7.405  2.2983  1.7345 -0.3356
  117MOL0     H15729   1.209   9.467   7.539  0.4977 -0.4136 -0.2342
  117MOL0     H15730   1.015   9.512   7.617 -1.0747 -1.0745 -1.4629
  117MOL0     H15731   1.034   9.682   7.558 -1.1483  0.5645  1.4001
  117MOL0     H15732   0.856   9.695   7.674  0.9483 -0.2129  0.5004
  117MOL0     H15733   0.795   9.684   7.504 -5.0110 -2.4888  0.6706
  117MOL0     H15734   0.647   9.567   7.607 -0.0292 -0.0400 -0.3864
  117MOL0     H15735   0.773   9.450   7.541  1.5908  1.9369 -1.4973
  117MOL0     H15736   0.823   9.385   7.775 -0.0632  1.0572 -0.1380
  117MOL0     H15737   0.777   9.540   7.838 -1.2711 -1.2869  0.8109
  117MOL0     H15738   0.604   9.330   7.721 -0.3331  1.2989 -1.0398
  117MOL0     H15739   0.648   9.340   7.898  1.2103  2.3954  1.2473
  117MOL0     H15740   0.550   9.536   7.943 -0.7372 -0.9886  0.5197
  117MOL0     H15741   0.505   9.583   7.780 -0.2732  1.5057  1.6763
  117MOL0     H15742   0.368   9.397   7.977  0.8183  2.2730  1.7325
  117MOL0     H15743   0.314   9.533   7.901 -0.6353 -1.7502  0.8236
  117MOL0     H15744   0.225   9.298   7.836 -0.5039 -0.3850 -2.0092
  117MOL0     H15745   0.380   9.273   7.759 -0.2794  0.6384 -0.3482
  117MOL0     H15746   0.441   9.476   7.546 -0.4434  0.1678 -0.7631
  117MOL0     H15747   0.256   9.701   7.363 -1.2004  0.3625 -0.0664
  117MOL0     H15748   0.389   9.592   7.323 -0.6411 -2.4867 -2.3160
  117MOL0     H15749   0.103   9.552   7.246 -0.0506  4.5829  0.4131
  117MOL0     H15750   0.225   9.443   7.195 -2.1256  0.0401 -0.0371
  117MOL0     H15751   0.341   9.629   7.072  0.6171 -0.0402  1.4203
  117MOL0     H15752   0.230   9.749   7.131  3.3274  0.4172 -1.5387
  117MOL0     H15753   0.046   9.652   7.018  1.7729  3.4391  3.4078
  117MOL0     H15754   0.146   9.528   6.946  0.6079 -0.8191  0.6229
  117MOL0     H15755   0.326   9.812   6.683 -1.8676  1.6221  0.4487
  117MOL0     H15756   0.217   9.901   6.374 -0.7076 -0.9301 -0.5501
  117MOL0     H15757   0.364   9.857   6.465 -0.6768 -0.3752  2.1402
  117MOL0     H15758   0.309   9.748   6.337  0.0966 -4.1655  2.7097
  117MOL0     H15759  -0.122   9.472   6.238 -0.9136  1.0221  1.6639
  117MOL0     H15760  -0.208   9.415   6.005  3.6633  0.6760 -1.5501
  117MOL0     H15761  -0.350   9.376   5.840  1.1007  0.7341  0.4257
  117MOL0     H15762  -0.499   9.459   5.899 -2.5200 -1.3964 -3.3589
  117MOL0     H15763  -0.570   9.536   5.701 -0.0031 -1.3595  2.3526
  117MOL0     H15764  -0.419   9.482   5.608 -0.0238  0.3827 -1.3134
  117MOL0     H15765  -0.647   9.342   5.726  0.1980 -0.6193  1.7217
  117MOL0     H15766  -0.500   9.244   5.711 -1.2444 -0.5931  0.5814
  117MOL0     H15767  -0.641   9.392   5.480 -1.0136  0.8642  2.6386
  117MOL0     H15768  -0.475   9.325   5.462 -0.8724 -1.3049 -2.1906
  117MOL0     H15769  -0.746   9.172   5.481  0.4129 -1.0237  0.1588
  117MOL0     H15770  -0.600   9.090   5.501  0.8810 -0.3191 -1.1978
  117MOL0     H15771  -0.710   9.104   5.261 -0.1430 -1.9785  0.9781
  117MOL0     H15772  -0.649   9.265   5.246 -2.3857 -1.2667 -0.9700
  117MOL0     H15773  -0.501   9.090   5.156 -1.1555  1.6259 -0.8164
  117MOL0     H15774  -0.480   9.016   5.313  2.9515  0.6079  0.8743
  117MOL0     H15775  -0.322   9.179   5.371  2.7313  2.2630 -0.3087
  117MOL0     H15776  -0.383   9.305   5.272 -1.0528 -0.1851  0.8783
  117MOL0     H15777  -0.332   9.833   5.957  0.5525 -0.2342 -2.6458
  117MOL0     H15778  -0.232   9.878   6.177  4.7696 -0.0224 -1.4433
  117MOL0     H15779  -0.114   9.606   6.568 -0.2974  0.7637 -0.6887
  117MOL0     H15780  -0.043   9.631   6.800  0.7678 -0.6943  0.8442
  117MOL0     H15781   1.009   9.527   7.158 -0.8878 -3.8855  0.6072
  117MOL0     H15782   1.228   9.495   7.035 -1.3795  0.5855 -0.6216
  117MOL0     H15783   1.626   9.327   7.001 -0.5051  0.2179 -0.5817
  117MOL0     H15784   1.820   9.299   6.877 -4.0972  0.2560 -3.4668
  117MOL0     H15785   2.183   9.392   6.867 -0.6609 -0.6676 -0.2522
  117MOL0     H15786   2.039   9.289   6.856 -0.7183 -1.6566 -1.7075
  117MOL0     H15787   2.033   9.312   6.617 -1.0054  4.3064 -0.9838
  117MOL0     H15788   2.192   9.250   6.681 -0.6387 -0.4148 -0.8514
  117MOL0     H15789   2.276   9.503   6.614 -0.7115 -1.2878 -0.7451
  117MOL0     H15790   2.118   9.513   6.538 -0.6798 -0.8583 -2.5145
  117MOL0     H15791   2.327   9.307   6.449  1.1720  0.0302 -1.3210
  117MOL0     H15792   2.282   9.468   6.384 -1.7344 -0.0271 -1.0829
  117MOL0     H15793   1.964   9.202   6.270 -2.2601  1.1269  0.9795
  117MOL0     H15794   1.906   9.723   6.925  1.4361 -0.7239  4.0261
  117MOL0     H15795   1.682   9.758   7.043 -0.1533  0.2423 -0.1786
  118MOL0     O15796   9.973  10.400   7.246  0.3390  0.6593  0.4747
  118MOL0     C15797  10.066  10.359   7.322  0.1563 -0.5848  0.5714
  118MOL0     O15798  10.067  10.377   7.456  0.6402  0.2292 -0.6038
  118MOL0     C15799   9.957  10.448   7.506  0.5401  0.0164 -0.3241
  118MOL0     C15800   9.956  10.573   7.560  0.3219  0.5542 -0.8075
  118MOL0     C15801   9.839  10.643   7.613 -1.0788 -0.2442 -0.3797
  118MOL0     C15802   9.726  10.568   7.626  0.0386  0.4592 -0.0554
  118MOL0     O15803   9.621  10.629   7.687  0.0993  0.0383  0.9396
  118MOL0     C15804   9.503  10.564   7.717 -0.4306 -0.4356 -0.9080
  118MOL0     C15805   9.435  10.640   7.826  0.2785 -0.3607 -0.4103
  118MOL0     C15806   9.420  10.792   7.811  0.0321  0.8775  0.0883
  118MOL0     C15807   9.369  10.855   7.938  0.3696 -0.2308  0.0309
  118MOL0     C15808   9.363  11.012   7.927 -0.5487 -0.9264  0.8128
  118MOL0     C15809   9.280  11.077   8.037 -0.6511 -0.5322  0.3348
  118MOL0     C15810   9.128  11.037   8.032 -1.0237  0.4037  0.1767
  118MOL0     C15811   9.050  11.138   8.115 -0.4856  0.1338 -0.0458
  118MOL0     N15812   8.905  11.131   8.086  0.2968  0.3409  0.6680
  118MOL0     C15813   8.809  11.175   8.171 -0.1536 -0.0624  0.5354
  118MOL0     C15814   8.709  11.085   8.162  0.5665  0.2607  0.4709
  118MOL0     C15815   8.598  11.089   8.261  0.2320 -0.9975 -0.7025
  118MOL0     C15816   8.487  11.001   8.197 -0.0645 -0.1638 -0.5224
  118MOL0     C15817   8.377  10.955   8.296  0.0498 -0.9349  0.3473
  118MOL0     C15818   8.284  11.061   8.353  0.7785 -0.0116 -0.3562
  118MOL0     O15819   8.365  11.150   8.421  0.2439  0.1403  0.0396
  118MOL0     C15820   8.323  11.191   8.553  1.4255 -0.5078 -0.1578
  118MOL0     C15821   8.200  11.260   8.562  0.4773  0.2073 -0.2422
  118MOL0     C15822   8.138  11.283   8.690  0.9457 -0.1892 -0.8870
  118MOL0     C15823   7.996  11.344   8.681  0.1122 -0.7456  1.0097
  118MOL0     C15824   8.200  11.238   8.808 -0.4525  0.0572 -0.3459
  118MOL0     C15825   8.155  11.253   8.950 -0.2807  0.1627  0.6886
  118MOL0     O15826   8.127  11.378   8.999 -0.6184  1.0283  0.9656
  118MOL0     C15827   8.065  11.385   9.121 -0.5664  0.6308  0.2243
  118MOL0     C15828   7.933  11.365   9.131 -0.1188 -0.1379  0.2425
  118MOL0     C15829   7.871  11.368   9.257  0.1088 -0.7007 -0.1245
  118MOL0     C15830   7.953  11.393   9.375  0.0161 -0.1916 -0.6719
  118MOL0     O15831   7.894  11.386   9.496 -0.6014 -0.5047  0.7854
  118MOL0     C15832   7.953  11.471   9.597 -0.4149 -0.2068 -0.5335
  118MOL0     C15833   7.846  11.467   9.718  0.5740  0.4806  0.7187
  118MOL0     C15834   7.698  11.481   9.689 -0.0368  0.5377  0.1458
  118MOL0     C15835   7.679  11.610   9.612  0.1633  0.1523 -0.4940
  118MOL0     C15836   7.539  11.652   9.624 -0.3468 -0.0081 -0.3241
  118MOL0     C15837   7.536  11.774   9.719  1.2890 -0.3991 -0.3827
  118MOL0     C15838   7.384  11.819   9.734 -0.5473 -0.6128 -0.2328
  118MOL0     C15839   7.363  11.910   9.851 -0.1202  0.4193  0.0531
  118MOL0    Cl15840   7.497  12.032   9.843 -0.0656  0.4598 -0.3459
  118MOL0     C15841   8.087  11.416   9.357  0.1974 -1.3038 -0.0178
  118MOL0     C15842   8.144  11.413   9.231  1.1717  0.5527  0.3449
  118MOL0     O15843   8.148  11.147   9.015  0.4018 -0.2520  0.2293
  118MOL0     C15844   8.320  11.163   8.794  0.3584  0.2921  0.3372
  118MOL0     C15845   8.382  11.147   8.672  0.1833  0.2989  0.2065
  118MOL0     N15846   8.735  11.006   8.048 -0.6639 -0.5461  0.2659
  118MOL0     N15847   8.852  11.038   7.996 -0.1411 -0.7800  0.0207
  118MOL0     C15848   9.722  10.436   7.573 -0.0078 -0.3943 -0.2053
  118MOL0     C15849   9.839  10.379   7.522  0.2000  0.7835  0.6116
  118MOL0     C15850  10.184  10.308   7.261 -0.3124  0.9760 -0.2500
  118MOL0     C15851  10.275  10.234   7.338  0.6312 -0.3363 -0.1023
  118MOL0     C15852  10.395  10.191   7.292 -0.2412 -0.8117 -0.5577
  118MOL0     C15853  10.438  10.225   7.162 -0.2766 -0.7896  0.0248
  118MOL0     O15854  10.562  10.174   7.121 -0.3894  0.2335 -0.2273
  118MOL0     C15855  10.648  10.225   7.015  0.4733 -0.2626  0.5818
  118MOL0     C15856  10.762  10.301   7.068 -0.1292 -0.3577  0.6900
  118MOL0     C15857  10.849  10.385   6.970  0.4105  0.2029 -0.2036
  118MOL0     C15858  10.972  10.447   7.038  1.2316  0.1978  0.7307
  118MOL0     C15859  11.070  10.514   6.949 -0.4237  0.4658 -0.3385
  118MOL0     C15860  11.130  10.585   6.870  0.6989 -0.0405  0.8312
  118MOL0     C15861  10.356  10.302   7.084 -0.2384  0.7976  0.0146
  118MOL0     C15862  10.224  10.341   7.132 -1.1338 -0.5634 -0.4253
  118MOL0     H15863  10.049  10.628   7.551 -0.3431  1.4338 -3.3196
  118MOL0     H15864   9.850  10.746   7.643  1.4753 -1.6257  4.6790
  118MOL0     H15865   9.444  10.554   7.626  1.3462 -2.8879 -1.9106
  118MOL0     H15866   9.536  10.467   7.755  1.2171 -0.2166 -1.6667
  118MOL0     H15867   9.332  10.605   7.822  0.4752 -1.2700  1.4438
  118MOL0     H15868   9.484  10.620   7.922 -0.6504  0.8462  0.3470
  118MOL0     H15869   9.518  10.835   7.791  1.6598 -1.3690  2.5098
  118MOL0     H15870   9.348  10.824   7.735 -1.7452  0.2216  1.4097
  118MOL0     H15871   9.268  10.813   7.943 -0.3816  1.3488 -1.0867
  118MOL0     H15872   9.435  10.820   8.019  0.4037 -1.0315 -0.3292
  118MOL0     H15873   9.466  11.051   7.927 -0.2322 -1.7434  0.1872
  118MOL0     H15874   9.336  11.035   7.824  0.6376 -2.2972  0.1623
  118MOL0     H15875   9.312  11.045   8.136  0.9219 -1.1167 -0.3276
  118MOL0     H15876   9.297  11.184   8.020 -2.9596 -0.5473 -2.9128
  118MOL0     H15877   9.097  11.035   7.927 -0.8495 -1.2528  0.1396
  118MOL0     H15878   9.121  10.939   8.079 -3.3761  1.7808  3.0315
  118MOL0     H15879   9.092  11.239   8.105  2.0905 -0.9638 -1.0765
  118MOL0     H15880   9.068  11.131   8.223 -0.4966  0.7774  0.0012
  118MOL0     H15881   8.813  11.259   8.240 -1.2066  0.3317  0.1401
  118MOL0     H15882   8.640  11.044   8.351  0.6273 -2.2367 -1.4882
  118MOL0     H15883   8.565  11.188   8.295  1.8379 -0.5672 -0.3158
  118MOL0     H15884   8.540  10.911   8.164  0.8993 -0.5109  1.8132
  118MOL0     H15885   8.443  11.045   8.107  0.3515 -2.5119 -1.9876
  118MOL0     H15886   8.419  10.907   8.385  1.1348 -0.9237 -0.1338
  118MOL0     H15887   8.324  10.873   8.247  3.5273 -2.3326 -1.4906
  118MOL0     H15888   8.213  11.004   8.414 -0.9091 -1.0785 -3.1179
  118MOL0     H15889   8.226  11.110   8.274  1.9740 -0.3434 -1.4931
  118MOL0     H15890   8.149  11.283   8.469  0.1050 -0.0211 -0.0981
  118MOL0     H15891   7.986  11.452   8.693 -0.2262 -0.2935 -2.4737
  118MOL0     H15892   7.959  11.328   8.579  0.2667  0.8469  0.6820
  118MOL0     H15893   7.930  11.288   8.748 -1.4694  0.4252  0.4687
  118MOL0     H15894   7.878  11.333   9.043  1.0451 -0.2315 -0.4656
  118MOL0     H15895   7.764  11.353   9.252  0.3045 -2.1182 -0.3966
  118MOL0     H15896   8.053  11.448   9.635 -1.0309  0.9275  2.0021
  118MOL0     H15897   7.961  11.575   9.565  5.0928 -0.4664 -0.7947
  118MOL0     H15898   7.853  11.367   9.761  1.2869 -0.4072 -1.3341
  118MOL0     H15899   7.863  11.550   9.787 -2.2017  3.3031 -1.6852
  118MOL0     H15900   7.656  11.473   9.790  2.4830  3.1080  1.5393
  118MOL0     H15901   7.664  11.401   9.622 -0.8413 -0.1498  1.3501
  118MOL0     H15902   7.745  11.687   9.654  2.0168 -1.2155 -0.7643
  118MOL0     H15903   7.711  11.593   9.508 -0.4130  1.5874 -0.9360
  118MOL0     H15904   7.482  11.573   9.674 -0.7362 -0.0284 -0.7904
  118MOL0     H15905   7.488  11.673   9.529  1.3985  1.5749 -0.9628
  118MOL0     H15906   7.597  11.750   9.806  1.6779 -2.1919 -1.0961
  118MOL0     H15907   7.582  11.860   9.670 -0.5843 -0.0221 -1.5824
  118MOL0     H15908   7.320  11.731   9.749 -1.8146  0.3993  0.4958
  118MOL0     H15909   7.364  11.873   9.641 -1.4605  0.8808  0.7946
  118MOL0     H15910   7.378  11.849   9.940 -0.5283  0.3670  0.0843
  118MOL0     H15911   7.264  11.956   9.844 -1.8295 -2.1802  3.8795
  118MOL0     H15912   8.155  11.449   9.436  0.7269  0.3837 -1.1344
  118MOL0     H15913   8.249  11.434   9.213  1.9714 -2.2695  1.2742
  118MOL0     H15914   8.360  11.116   8.883 -0.7454 -3.0132 -0.7627
  118MOL0     H15915   8.477  11.094   8.673 -0.9309 -1.7910  0.6938
  118MOL0     H15916   9.623  10.391   7.577 -0.0535 -0.7623 -3.2075
  118MOL0     H15917   9.839  10.277   7.486 -1.1912  1.8114 -2.6132
  118MOL0     H15918  10.242  10.205   7.437 -2.1629  0.1248 -0.8241
  118MOL0     H15919  10.462  10.131   7.351 -1.7043 -2.1322 -0.1832
  118MOL0     H15920  10.697  10.152   6.950  0.4278  0.6774 -0.5441
  118MOL0     H15921  10.583  10.275   6.943  0.6327 -3.0576 -1.6987
  118MOL0     H15922  10.825  10.231   7.123 -3.3826 -2.0328  2.5588
  118MOL0     H15923  10.712  10.362   7.143 -0.9893 -1.7811  1.3207
  118MOL0     H15924  10.795  10.466   6.920  1.5081  2.2999  1.8256
  118MOL0     H15925  10.884  10.311   6.898  1.8403  1.7116 -1.1203
  118MOL0     H15926  11.017  10.369   7.100 -0.9512 -0.4423  1.6361
  118MOL0     H15927  10.931  10.513   7.115 -0.3548 -1.7907  1.6859
  118MOL0     H15928  11.159  10.653   6.792 -2.7127  2.2331  1.3328
  118MOL0     H15929  10.383  10.317   6.980 -1.0907 -0.0847 -0.3533
  118MOL0     H15930  10.158  10.401   7.071 -1.0422  1.5157  1.4211
  119MOL0     O15931   7.430   6.199   1.257 -0.4608 -0.3390 -0.6911
  119MOL0     C15932   7.520   6.286   1.255 -0.1427  0.6053  0.3593
  119MOL0     O15933   7.503   6.419   1.252 -0.4798  0.4143  0.1054
  119MOL0     C15934   7.384   6.460   1.303 -0.5504  0.3623 -0.3935
  119MOL0     C15935   7.351   6.476   1.439 -0.8881  0.4157  0.3573
  119MOL0     C15936   7.230   6.533   1.483 -0.4509 -0.0768 -0.1203
  119MOL0     C15937   7.140   6.570   1.385 -0.0006  0.6676 -0.4036
  119MOL0     O15938   7.013   6.625   1.413  0.6203 -0.7130 -0.8410
  119MOL0     C15939   6.946   6.577   1.538  0.2353 -0.1987  0.0247
  119MOL0     C15940   6.795   6.597   1.528  0.0469  0.2950  0.1704
  119MOL0     C15941   6.738   6.512   1.415  0.5179  0.0877 -0.5256
  119MOL0     C15942   6.591   6.523   1.404  0.5414 -0.6652 -0.0216
  119MOL0     C15943   6.509   6.412   1.351  0.2123  0.2999  0.3529
  119MOL0     C15944   6.365   6.457   1.332 -0.3620 -0.0695  0.2614
  119MOL0     C15945   6.291   6.371   1.231  0.3552  0.1697  0.3295
  119MOL0     C15946   6.249   6.234   1.288 -1.1245 -0.0827  0.0355
  119MOL0     N15947   6.128   6.183   1.230  0.1103  0.0381 -0.2412
  119MOL0     C15948   5.993   6.191   1.279 -0.5065  0.0590  0.1262
  119MOL0     C15949   5.913   6.184   1.173 -0.2862 -0.2111  0.0344
  119MOL0     C15950   5.766   6.168   1.186 -0.4584  0.0756 -0.3326
  119MOL0     C15951   5.706   6.263   1.093  0.4343  0.6466  0.0934
  119MOL0     C15952   5.555   6.245   1.089 -0.6551  0.2595  0.1647
  119MOL0     C15953   5.468   6.208   1.216 -0.1373  0.4183 -0.4551
  119MOL0     O15954   5.468   6.325   1.305 -0.1726  0.0167 -0.2202
  119MOL0     C15955   5.354   6.406   1.305 -1.2123 -0.6407  0.4376
  119MOL0     C15956   5.226   6.353   1.303 -0.0912 -0.5042 -0.2086
  119MOL0     C15957   5.110   6.432   1.322  0.1420  0.4197 -0.4299
  119MOL0     C15958   4.981   6.361   1.360  0.4708 -0.4215  0.3104
  119MOL0     C15959   5.122   6.575   1.313  0.2164 -1.0713  0.2483
  119MOL0     C15960   5.006   6.671   1.319  0.1632 -0.2311 -0.6045
  119MOL0     O15961   5.029   6.809   1.346 -0.9178  0.1583 -0.6314
  119MOL0     C15962   4.919   6.880   1.359 -0.3806 -0.3028 -0.8991
  119MOL0     C15963   4.856   6.877   1.482  0.1994  0.3275 -0.1074
  119MOL0     C15964   4.730   6.935   1.515  0.4373  0.3859  0.8012
  119MOL0     C15965   4.667   7.014   1.418 -0.0507  0.4821 -0.0171
  119MOL0     O15966   4.561   7.100   1.428 -0.3330  0.0722  0.5711
  119MOL0     C15967   4.487   7.117   1.549  0.2887 -0.6489 -0.6163
  119MOL0     C15968   4.571   7.190   1.652 -0.2569 -0.1743 -0.3323
  119MOL0     C15969   4.644   7.306   1.598  0.4622  0.7915 -0.7013
  119MOL0     C15970   4.561   7.433   1.581 -0.3218  0.1894  0.1672
  119MOL0     C15971   4.505   7.484   1.711 -0.0520 -0.2945  0.0040
  119MOL0     C15972   4.467   7.629   1.710  0.3184 -0.5468  0.5427
  119MOL0     C15973   4.349   7.654   1.609 -0.3768 -0.1452  0.3363
  119MOL0     C15974   4.218   7.611   1.683 -0.7057  0.6426 -0.6720
  119MOL0    Cl15975   4.094   7.716   1.614  0.0080 -0.2349  0.2295
  119MOL0     C15976   4.726   7.011   1.289 -0.3883  0.2275  1.0441
  119MOL0     C15977   4.849   6.936   1.258  1.0182  0.5562  0.4022
  119MOL0     O15978   4.892   6.631   1.293  0.3708  0.1632  0.3602
  119MOL0     C15979   5.247   6.626   1.302  0.0972 -0.3195 -0.8969
  119MOL0     C15980   5.363   6.551   1.306 -0.5029  0.0562 -0.4686
  119MOL0     N15981   5.993   6.137   1.069 -0.0999 -0.5482 -0.2581
  119MOL0     N15982   6.119   6.129   1.103  0.5422  0.0712 -0.2332
  119MOL0     C15983   7.168   6.573   1.256  1.0645  0.3421 -0.5600
  119MOL0     C15984   7.293   6.518   1.215 -0.3723  0.1486 -0.1354
  119MOL0     C15985   7.659   6.249   1.220 -0.9434 -0.3737  0.1835
  119MOL0     C15986   7.766   6.344   1.231  0.6691  0.3192 -0.1427
  119MOL0     C15987   7.904   6.303   1.214 -0.1714  0.6234 -0.0696
  119MOL0     C15988   7.934   6.173   1.177 -0.0806 -0.1128  0.6139
  119MOL0     O15989   8.065   6.145   1.140  0.0604  0.3078 -0.1264
  119MOL0     C15990   8.102   6.014   1.095 -0.2901  0.8024 -0.1102
  119MOL0     C15991   8.256   5.990   1.102  0.7105 -0.8463 -0.5411
  119MOL0     C15992   8.345   6.112   1.068  0.3456 -0.4082 -0.0214
  119MOL0     C15993   8.498   6.076   1.046 -0.3452 -0.3178 -0.5249
  119MOL0     C15994   8.562   6.019   1.164 -0.3705 -0.7880  0.2293
  119MOL0     C15995   8.604   5.973   1.269  0.5538 -0.0695  0.1604
  119MOL0     C15996   7.830   6.077   1.165 -0.0593  0.7088 -0.5413
  119MOL0     C15997   7.701   6.118   1.177  0.0136  1.0578 -0.2428
  119MOL0     H15998   7.439   6.458   1.501  0.3190 -0.1974 -1.4627
  119MOL0     H15999   7.203   6.550   1.586 -2.3317  3.2876 -1.0203
  119MOL0     H16000   6.969   6.470   1.544  1.0689  0.0569  2.8670
  119MOL0     H16001   6.987   6.632   1.624 -1.1100  2.7483 -1.0910
  119MOL0     H16002   6.744   6.559   1.617 -2.1771  0.4465 -0.9613
  119MOL0     H16003   6.770   6.702   1.510 -0.9886 -0.0045 -0.2081
  119MOL0     H16004   6.782   6.535   1.318 -5.1857 -0.0228 -3.5745
  119MOL0     H16005   6.761   6.408   1.441 -0.1961 -0.1942 -1.0025
  119MOL0     H16006   6.552   6.547   1.504  0.1253  2.2130 -0.7885
  119MOL0     H16007   6.558   6.608   1.344 -0.0758 -0.4769  0.5728
  119MOL0     H16008   6.551   6.373   1.258 -1.9474 -3.6482  0.7939
  119MOL0     H16009   6.517   6.332   1.425  0.4403  0.2592  0.2833
  119MOL0     H16010   6.305   6.465   1.423 -1.4414  1.7955 -0.5466
  119MOL0     H16011   6.369   6.565   1.314  0.2884  0.0621  1.1568
  119MOL0     H16012   6.200   6.431   1.219 -0.6402 -1.4092 -0.3197
  119MOL0     H16013   6.327   6.344   1.131 -3.4647 -0.7785 -0.9753
  119MOL0     H16014   6.232   6.238   1.396 -3.0988  1.6792 -0.2664
  119MOL0     H16015   6.326   6.158   1.272 -2.1268 -0.8936 -1.2084
  119MOL0     H16016   5.973   6.208   1.385 -2.5456 -1.1255 -0.0152
  119MOL0     H16017   5.733   6.064   1.175 -0.9890 -0.0227  1.6950
  119MOL0     H16018   5.736   6.192   1.289  3.5606 -1.2018  1.3214
  119MOL0     H16019   5.745   6.249   0.992  1.3032 -0.3778  0.5466
  119MOL0     H16020   5.727   6.369   1.111 -4.0839  1.5524  1.2626
  119MOL0     H16021   5.523   6.176   1.010 -0.2603 -2.2717  2.0644
  119MOL0     H16022   5.517   6.344   1.062  1.9283  1.1505 -0.5056
  119MOL0     H16023   5.513   6.121   1.265  0.9821 -0.1466 -2.3895
  119MOL0     H16024   5.369   6.183   1.180 -0.1284  0.7019 -0.6751
  119MOL0     H16025   5.206   6.247   1.308 -0.7312 -0.3811  0.0399
  119MOL0     H16026   4.914   6.430   1.412  0.5988  2.9765 -3.5818
  119MOL0     H16027   4.918   6.322   1.280  1.4788  2.3013 -1.9710
  119MOL0     H16028   5.006   6.287   1.437  1.0938 -0.7854 -0.2316
  119MOL0     H16029   4.906   6.816   1.557 -2.2839 -2.4001 -0.4917
  119MOL0     H16030   4.704   6.922   1.619  2.5359 -1.1312  1.2076
  119MOL0     H16031   4.400   7.179   1.529 -0.6974 -1.9115 -0.3615
  119MOL0     H16032   4.454   7.021   1.589  1.6971 -0.0836  2.1638
  119MOL0     H16033   4.495   7.223   1.724 -1.1955  0.6672 -1.6552
  119MOL0     H16034   4.637   7.114   1.695  2.0382  0.6926 -2.1452
  119MOL0     H16035   4.689   7.269   1.505  0.9266  1.2181 -0.6479
  119MOL0     H16036   4.727   7.328   1.665 -0.0664  0.2027  0.1711
  119MOL0     H16037   4.621   7.509   1.529 -1.2994  0.8272 -0.0485
  119MOL0     H16038   4.479   7.406   1.514 -0.6870 -2.0994  1.4242
  119MOL0     H16039   4.581   7.476   1.789 -1.0291  1.5062  1.2155
  119MOL0     H16040   4.422   7.420   1.743 -2.3299  2.8968  0.9434
  119MOL0     H16041   4.455   7.662   1.814 -4.4496 -2.3389  0.8108
  119MOL0     H16042   4.545   7.692   1.667 -1.3899  0.8171 -0.6890
  119MOL0     H16043   4.341   7.607   1.511 -1.4118  2.4938 -0.9297
  119MOL0     H16044   4.353   7.761   1.589 -0.3061 -0.0723  0.7225
  119MOL0     H16045   4.226   7.626   1.791 -1.0061  4.0285 -1.0210
  119MOL0     H16046   4.192   7.506   1.671  2.5693 -0.6131  1.6918
  119MOL0     H16047   4.669   7.071   1.218 -3.4592 -1.3029  2.0152
  119MOL0     H16048   4.880   6.935   1.153  2.1529  4.2927  0.5419
  119MOL0     H16049   5.265   6.732   1.289  0.3635 -0.4878 -2.0824
  119MOL0     H16050   5.463   6.593   1.307 -0.2134 -0.5968  1.2393
  119MOL0     H16051   7.095   6.609   1.185  0.7101  0.8919  0.0757
  119MOL0     H16052   7.320   6.519   1.109 -2.7927 -0.3844 -0.8078
  119MOL0     H16053   7.755   6.451   1.249  1.4957  0.4718 -0.4676
  119MOL0     H16054   7.981   6.379   1.224  0.1619 -0.0020  3.9811
  119MOL0     H16055   8.053   5.934   1.151  0.2780 -2.1074 -3.3986
  119MOL0     H16056   8.071   6.010   0.990  0.7119  0.3367 -0.4004
  119MOL0     H16057   8.280   5.903   1.040  2.8277 -0.1926 -0.7377
  119MOL0     H16058   8.287   5.975   1.206  1.0181  2.3080 -0.0747
  119MOL0     H16059   8.333   6.180   1.153 -3.5683 -1.2438  0.3074
  119MOL0     H16060   8.309   6.148   0.971  2.0514 -3.2156 -1.8227
  119MOL0     H16061   8.553   6.170   1.035 -1.3913  0.3807  0.0173
  119MOL0     H16062   8.506   6.015   0.956 -0.7852 -0.0501 -0.7473
  119MOL0     H16063   8.646   5.943   1.363 -2.5171  2.0913  2.4172
  119MOL0     H16064   7.841   5.972   1.139 -1.7957  0.8147 -1.8499
  119MOL0     H16065   7.634   6.032   1.168  0.9242  0.4928 -2.0204
  120MOL0     O16066   9.798  11.313   9.304  1.1661  0.2721 -0.4473
  120MOL0     C16067   9.837  11.414   9.251 -0.7621  0.0433 -0.3541
  120MOL0     O16068   9.777  11.497   9.170 -0.4074 -0.0159  0.4024
  120MOL0     C16069   9.645  11.482   9.134  0.3273 -0.3117 -0.4655
  120MOL0     C16070   9.565  11.598   9.114 -0.8516 -0.1963 -1.3249
  120MOL0     C16071   9.439  11.594   9.062 -0.1202 -0.3105  0.3370
  120MOL0     C16072   9.369  11.469   9.045 -0.0749 -0.6103 -0.5425
  120MOL0     O16073   9.240  11.455   9.007  0.5301  0.4031 -0.8216
  120MOL0     C16074   9.138  11.512   9.090  0.8144 -0.6843  0.6114
  120MOL0     C16075   9.018  11.445   9.025 -0.2677  0.3070  0.3002
  120MOL0     C16076   8.928  11.536   8.941 -0.4706  0.0644  0.3963
  120MOL0     C16077   8.999  11.609   8.825  0.0200 -0.0024 -0.6007
  120MOL0     C16078   8.910  11.697   8.742 -0.0886 -0.7771  0.6061
  120MOL0     C16079   8.985  11.789   8.638 -0.5821 -0.1400  1.0915
  120MOL0     C16080   8.882  11.874   8.577 -0.5314 -1.0989  0.0753
  120MOL0     C16081   8.938  11.981   8.486 -0.2630 -0.0813 -1.4414
  120MOL0     N16082   8.841  12.052   8.416 -0.5860 -0.3582 -0.0231
  120MOL0     C16083   8.772  11.998   8.319 -0.4766 -0.3734  0.0619
  120MOL0     C16084   8.698  12.102   8.268  0.6673 -0.0805  0.8950
  120MOL0     C16085   8.605  12.103   8.145 -0.7632 -0.0720 -0.8452
  120MOL0     C16086   8.487  12.016   8.166  0.4590  0.1625  0.2044
  120MOL0     C16087   8.408  12.062   8.300  0.3894  0.5308  0.0967
  120MOL0     C16088   8.290  11.975   8.331 -0.4603  0.2953 -0.1460
  120MOL0     O16089   8.205  11.987   8.222 -0.0408 -0.1007  0.0720
  120MOL0     C16090   8.070  12.008   8.250 -0.0601  0.2941  0.0285
  120MOL0     C16091   7.975  11.962   8.165 -1.1086  0.3932 -0.4212
  120MOL0     C16092   7.842  12.000   8.175 -0.5626 -0.2547 -0.0343
  120MOL0     C16093   7.743  11.942   8.081 -0.2990  0.2975  0.3097
  120MOL0     C16094   7.798  12.091   8.265  0.4741  0.0608  0.7139
  120MOL0     C16095   7.663  12.138   8.275  0.7760  0.4216 -0.3120
  120MOL0     O16096   7.581  12.089   8.375 -0.6240 -0.7834  0.2441
  120MOL0     C16097   7.452  12.131   8.360  0.0992 -0.1775 -0.5258
  120MOL0     C16098   7.396  12.241   8.417  0.5937 -0.1243  0.7251
  120MOL0     C16099   7.256  12.278   8.410  0.3516 -0.1584  0.0885
  120MOL0     C16100   7.163  12.184   8.361  0.6050 -1.1711  0.1628
  120MOL0     O16101   7.031  12.182   8.397 -0.0959  0.3749 -0.0879
  120MOL0     C16102   6.959  12.304   8.368 -0.0809  0.1173 -0.0609
  120MOL0     C16103   6.805  12.281   8.380  0.9533 -0.3886 -0.0228
  120MOL0     C16104   6.748  12.175   8.282  0.3419  0.4335 -0.4723
  120MOL0     C16105   6.598  12.212   8.253  0.2724  0.4408  0.2147
  120MOL0     C16106   6.552  12.116   8.132 -0.0982  0.6090  0.5811
  120MOL0     C16107   6.500  11.977   8.189 -1.4659 -0.4837  0.2231
  120MOL0     C16108   6.500  11.875   8.075 -1.4109  0.1504  0.4024
  120MOL0     C16109   6.435  11.921   7.943  0.4400 -0.2745 -0.1604
  120MOL0    Cl16110   6.265  11.971   7.977  0.2825 -0.0469  0.3732
  120MOL0     C16111   7.224  12.070   8.318  0.2859  0.2989  0.3270
  120MOL0     C16112   7.361  12.041   8.309  0.1146 -0.5082  0.2915
  120MOL0     O16113   7.628  12.234   8.203  0.3713  0.1686 -0.1975
  120MOL0     C16114   7.890  12.141   8.357 -0.0223 -0.3147 -0.0788
  120MOL0     C16115   8.023  12.091   8.361 -0.7755 -0.0326 -0.0808
  120MOL0     N16116   8.727  12.219   8.336 -0.7039 -0.4362  0.2185
  120MOL0     N16117   8.815  12.184   8.429  0.7008 -0.3973 -0.2863
  120MOL0     C16118   9.438  11.351   9.079 -0.6988 -0.2489  0.1978
  120MOL0     C16119   9.576  11.358   9.126 -0.3276 -0.4906 -0.3725
  120MOL0     C16120   9.978  11.455   9.282 -0.4250  0.3432  0.2186
  120MOL0     C16121  10.057  11.370   9.364 -0.5200  0.0760 -0.2528
  120MOL0     C16122  10.182  11.413   9.411 -0.0151  0.3890  0.2780
  120MOL0     C16123  10.237  11.536   9.369 -0.4103  1.0802 -0.3241
  120MOL0     O16124  10.365  11.572   9.414  0.8031 -0.6613 -0.0072
  120MOL0     C16125  10.425  11.694   9.354  0.3518 -0.5622 -0.3612
  120MOL0     C16126  10.563  11.716   9.421 -0.1251  0.1795  0.1235
  120MOL0     C16127  10.648  11.805   9.332 -0.6109 -0.5232  0.1234
  120MOL0     C16128  10.737  11.730   9.229  0.4509  0.4214  0.4413
  120MOL0     C16129  10.848  11.656   9.292  0.1879  0.4891 -0.5454
  120MOL0     C16130  10.947  11.618   9.353  0.2593  0.7368 -0.5394
  120MOL0     C16131  10.171  11.607   9.273  0.7072  0.5963  0.5555
  120MOL0     C16132  10.042  11.567   9.236  0.1111  0.6417 -0.0821
  120MOL0     H16133   9.611  11.695   9.126  0.0632 -0.5777 -1.6422
  120MOL0     H16134   9.392  11.688   9.036  1.7684  0.0166 -2.1781
  120MOL0     H16135   9.130  11.498   9.198  0.1830  2.0027  0.9898
  120MOL0     H16136   9.133  11.620   9.070  0.6027 -0.8613 -0.3503
  120MOL0     H16137   9.045  11.354   8.970  0.5869  1.0450 -0.5359
  120MOL0     H16138   8.961  11.397   9.104 -1.4164  0.3587 -0.4742
  120MOL0     H16139   8.845  11.479   8.898  0.0589 -0.8618  0.5811
  120MOL0     H16140   8.889  11.613   9.008  1.8836  0.9645  0.8318
  120MOL0     H16141   9.059  11.682   8.881 -0.0576 -0.7654  0.5224
  120MOL0     H16142   9.057  11.553   8.751 -1.8189  0.0099 -2.1252
  120MOL0     H16143   8.843  11.631   8.686  1.1822 -2.4363  0.9660
  120MOL0     H16144   8.863  11.764   8.815  0.5739  0.0601  0.2827
  120MOL0     H16145   9.053  11.853   8.696 -0.5145  0.5151  0.3126
  120MOL0     H16146   9.032  11.725   8.564 -0.2584  0.8792  0.3958
  120MOL0     H16147   8.802  11.810   8.540  0.1716 -1.8372 -0.2055
  120MOL0     H16148   8.833  11.944   8.645  1.4296  0.3852  0.0721
  120MOL0     H16149   9.006  11.935   8.413 -0.1117  1.1532 -2.0998
  120MOL0     H16150   8.986  12.060   8.544 -0.1896 -0.1896 -1.3539
  120MOL0     H16151   8.799  11.904   8.271 -0.9109 -0.1559 -0.6337
  120MOL0     H16152   8.583  12.206   8.113 -0.4932 -0.0097 -0.8330
  120MOL0     H16153   8.662  12.065   8.061 -0.4175 -3.1192  0.6396
  120MOL0     H16154   8.513  11.910   8.173  2.5985  0.6969  1.1137
  120MOL0     H16155   8.426  12.025   8.075  1.7688  3.7754 -0.4926
  120MOL0     H16156   8.364  12.159   8.274  0.2855  0.1180 -1.3242
  120MOL0     H16157   8.464  12.062   8.394 -1.6329 -2.4014  1.4572
  120MOL0     H16158   8.234  11.994   8.423 -3.3641  2.4319 -2.1672
  120MOL0     H16159   8.330  11.874   8.336 -1.2142 -0.0086 -0.1538
  120MOL0     H16160   8.006  11.908   8.075  3.1004 -0.5414  1.3401
  120MOL0     H16161   7.755  11.995   7.986 -1.1995  1.7604  0.9607
  120MOL0     H16162   7.764  11.837   8.061  2.3065  0.9540 -0.8232
  120MOL0     H16163   7.637  11.953   8.107 -0.0136  1.1882  1.1743
  120MOL0     H16164   7.472  12.314   8.442  0.6151 -0.1623  0.7721
  120MOL0     H16165   7.210  12.368   8.448 -2.5509 -1.8436  0.9459
  120MOL0     H16166   6.978  12.383   8.441 -1.9072  1.1147 -0.6113
  120MOL0     H16167   6.976  12.354   8.273 -0.0230  2.3341  1.0568
  120MOL0     H16168   6.789  12.251   8.484 -0.3963 -0.3425 -0.2021
  120MOL0     H16169   6.754  12.378   8.370  2.2490  0.6598  2.5603
  120MOL0     H16170   6.756  12.073   8.320  1.2114  0.7595  0.2616
  120MOL0     H16171   6.808  12.186   8.191 -0.5173  3.4376 -0.8072
  120MOL0     H16172   6.540  12.192   8.343  0.9479  0.4000  0.6513
  120MOL0     H16173   6.580  12.315   8.221  1.8183  0.4676 -0.6978
  120MOL0     H16174   6.626  12.095   8.055  1.0362  0.6639  1.6307
  120MOL0     H16175   6.464  12.160   8.084 -2.6612 -3.2134  1.3209
  120MOL0     H16176   6.572  11.942   8.263  1.4708  3.2339 -0.5377
  120MOL0     H16177   6.399  11.994   8.229 -1.2147 -1.0849  1.1398
  120MOL0     H16178   6.452  11.789   8.123 -1.8281  1.7625  3.0701
  120MOL0     H16179   6.600  11.838   8.052 -0.9880  0.5105  1.6229
  120MOL0     H16180   6.440  11.846   7.863  0.1664  2.6044 -3.0784
  120MOL0     H16181   6.480  12.010   7.898  0.0350 -0.4128 -0.8581
  120MOL0     H16182   7.151  12.002   8.275  0.2731  0.9134 -0.6525
  120MOL0     H16183   7.412  11.954   8.271  1.5284 -0.4219  1.9048
  120MOL0     H16184   7.846  12.206   8.432  2.1693  0.3338  0.7525
  120MOL0     H16185   8.097  12.136   8.427 -0.8456  0.0445 -0.0525
  120MOL0     H16186   9.395  11.252   9.073  1.1700 -1.1965  1.5902
  120MOL0     H16187   9.635  11.270   9.150 -0.3038 -0.6719 -1.0762
  120MOL0     H16188  10.020  11.276   9.403  4.5307 -1.4589  1.7343
  120MOL0     H16189  10.234  11.352   9.485 -2.3688 -1.2899  0.6660
  120MOL0     H16190  10.432  11.688   9.245  0.6115 -1.4510 -0.3099
  120MOL0     H16191  10.362  11.777   9.386 -0.8494 -1.0129 -1.4561
  120MOL0     H16192  10.604  11.615   9.432 -1.7172 -0.2804  2.6692
  120MOL0     H16193  10.552  11.758   9.521  0.6719 -0.5390  0.5284
  120MOL0     H16194  10.711  11.863   9.400  0.2310 -0.2550 -0.8433
  120MOL0     H16195  10.586  11.878   9.279  0.9222 -0.5403 -1.8084
  120MOL0     H16196  10.785  11.790   9.151 -1.0904  0.0111 -0.8661
  120MOL0     H16197  10.672  11.663   9.172  0.9416 -2.4138  2.9841
  120MOL0     H16198  11.034  11.583   9.404  1.3700  1.2280 -2.0124
  120MOL0     H16199  10.223  11.690   9.226  0.4787  1.0772  1.1436
  120MOL0     H16200   9.999  11.621   9.152  2.0239  2.9549  0.3120
  121MOL0     O16201   3.884   2.907   9.610 -0.0586  0.3973  0.5613
  121MOL0     C16202   3.993   2.957   9.634 -0.2919  0.0819 -0.3843
  121MOL0     O16203   4.105   2.881   9.655 -0.0255  1.0480  0.3610
  121MOL0     C16204   4.087   2.752   9.622  0.6326 -0.5538  0.5322
  121MOL0     C16205   4.047   2.662   9.729  0.1901 -0.1872  0.1176
  121MOL0     C16206   4.025   2.526   9.694  0.0460 -0.9996 -0.5122
  121MOL0     C16207   4.043   2.469   9.560 -0.7621  0.6052 -0.4018
  121MOL0     O16208   4.047   2.334   9.531  0.2402  0.0398  0.9474
  121MOL0     C16209   3.997   2.255   9.638  0.6755 -1.0509 -0.4035
  121MOL0     C16210   3.970   2.108   9.589  0.5013 -0.7483 -0.1376
  121MOL0     C16211   4.105   2.032   9.636  0.6990  0.8974  0.1146
  121MOL0     C16212   4.082   1.882   9.641  0.6682 -0.3934 -0.1056
  121MOL0     C16213   4.165   1.818   9.751 -0.0708 -0.3746  0.1036
  121MOL0     C16214   4.325   1.839   9.752 -0.2499 -0.3304  0.4665
  121MOL0     C16215   4.381   1.802   9.616 -0.1502 -0.7736 -0.4469
  121MOL0     C16216   4.527   1.755   9.620 -0.1801  0.3024 -0.0695
  121MOL0     N16217   4.627   1.847   9.673  0.2380 -1.0636 -0.1179
  121MOL0     C16218   4.701   1.823   9.786 -0.4898  0.9171 -0.1186
  121MOL0     C16219   4.772   1.928   9.812  0.1167  1.0337 -0.5332
  121MOL0     C16220   4.878   1.933   9.911  0.1620  0.0133 -0.5930
  121MOL0     C16221   5.020   1.946   9.860 -0.2579  0.1470 -0.0910
  121MOL0     C16222   5.048   1.826   9.768 -0.3089  0.3417  0.1810
  121MOL0     C16223   5.197   1.801   9.733  0.5408 -0.9435  0.1451
  121MOL0     O16224   5.207   1.664   9.718 -0.2195 -0.2925  0.5208
  121MOL0     C16225   5.328   1.616   9.678  0.2536  0.3150 -0.2383
  121MOL0     C16226   5.454   1.675   9.713 -0.3368  0.4508 -0.3096
  121MOL0     C16227   5.574   1.616   9.674  1.3594 -0.1843 -0.0843
  121MOL0     C16228   5.704   1.687   9.714  0.8510 -0.5129  0.0738
  121MOL0     C16229   5.574   1.482   9.616 -0.0814  0.2053  0.3924
  121MOL0     C16230   5.700   1.421   9.563  0.7804  0.6594  0.2131
  121MOL0     O16231   5.684   1.321   9.470 -0.2336  0.7530  0.4686
  121MOL0     C16232   5.795   1.254   9.429 -0.3316  0.6731  0.3689
  121MOL0     C16233   5.831   1.232   9.288 -0.1501 -0.2012 -0.4942
  121MOL0     C16234   5.933   1.139   9.253  0.0673 -0.8284 -0.4683
  121MOL0     C16235   5.998   1.072   9.351  0.3579 -0.7069  0.2581
  121MOL0     O16236   6.094   0.982   9.303  0.6337  0.3746 -0.3456
  121MOL0     C16237   6.178   0.909   9.391  0.0829 -0.2179  0.3914
  121MOL0     C16238   6.244   0.812   9.293  0.4115 -0.6376  0.0341
  121MOL0     C16239   6.227   0.671   9.333 -0.2412  0.0793  0.2110
  121MOL0     C16240   6.082   0.615   9.323  0.3406  0.7180  0.8922
  121MOL0     C16241   6.070   0.470   9.368 -0.1510  0.6670  0.8062
  121MOL0     C16242   5.925   0.416   9.349  0.1269 -1.1071  0.1343
  121MOL0     C16243   5.822   0.508   9.415 -1.1860  0.1504  0.1191
  121MOL0     C16244   5.684   0.444   9.405 -0.8671  0.0433  0.1565
  121MOL0    Cl16245   5.655   0.336   9.541  0.4444  0.3638  0.0655
  121MOL0     C16246   5.973   1.101   9.489 -0.8017  0.3703  0.4534
  121MOL0     C16247   5.875   1.188   9.524 -0.0190  0.7165  0.7428
  121MOL0     O16248   5.809   1.463   9.610 -0.4152  0.0431  0.2813
  121MOL0     C16249   5.451   1.432   9.575  0.2970  0.0484  0.8861
  121MOL0     C16250   5.329   1.492   9.613 -0.3570  0.4805  0.4191
  121MOL0     N16251   4.738   2.025   9.718  0.0971  0.0591 -0.2476
  121MOL0     N16252   4.645   1.982   9.639 -0.3378 -1.1598  0.8762
  121MOL0     C16253   4.083   2.562   9.465  0.3600 -0.9526  0.4755
  121MOL0     C16254   4.107   2.700   9.496 -0.0667  0.3011  0.5107
  121MOL0     C16255   3.996   3.107   9.647  0.9182 -0.0886  0.4158
  121MOL0     C16256   3.881   3.190   9.604 -0.7565  0.8142  0.3189
  121MOL0     C16257   3.886   3.326   9.620 -0.7854 -0.8358  0.3541
  121MOL0     C16258   3.986   3.387   9.683 -0.1227 -0.2207  0.5429
  121MOL0     O16259   3.970   3.524   9.698  0.2943  0.6304  0.0714
  121MOL0     C16260   4.041   3.605   9.787  0.4329  0.1878 -0.3519
  121MOL0     C16261   4.110   3.712   9.700  0.5309 -0.2409  0.8677
  121MOL0     C16262   4.186   3.818   9.793  0.0170  0.3229  0.0668
  121MOL0     C16263   4.330   3.785   9.828 -0.3073 -0.1555 -0.5274
  121MOL0     C16264   4.419   3.812   9.712  0.9122 -1.1311 -0.3887
  121MOL0     C16265   4.480   3.822   9.607 -0.1854 -0.6931 -0.0893
  121MOL0     C16266   4.093   3.305   9.733 -0.0354  0.2644 -0.2147
  121MOL0     C16267   4.101   3.168   9.709 -0.1313 -0.0064 -1.0251
  121MOL0     H16268   4.020   2.696   9.828 -0.1157  0.6083 -0.2324
  121MOL0     H16269   4.000   2.462   9.777 -1.3511  0.0749 -0.0636
  121MOL0     H16270   4.061   2.257   9.727  2.3585 -0.2745 -1.5706
  121MOL0     H16271   3.900   2.297   9.664  1.3263 -0.0204  0.4323
  121MOL0     H16272   3.876   2.074   9.633  0.9843 -3.9942 -1.2925
  121MOL0     H16273   3.954   2.122   9.482 -0.1036  0.8945  0.1437
  121MOL0     H16274   4.170   2.054   9.551 -1.5508 -1.1029 -2.3107
  121MOL0     H16275   4.141   2.066   9.733  0.4794 -0.4485  0.6894
  121MOL0     H16276   3.979   1.858   9.669  1.1801  0.1264  2.4402
  121MOL0     H16277   4.094   1.834   9.544 -3.8423  0.0032 -1.0643
  121MOL0     H16278   4.113   1.840   9.845  1.2025 -0.4318  0.8393
  121MOL0     H16279   4.156   1.709   9.745  1.3460 -0.4335 -1.9162
  121MOL0     H16280   4.354   1.937   9.791 -1.9573  0.4801 -0.1605
  121MOL0     H16281   4.354   1.760   9.821 -2.0223 -3.4663 -2.0969
  121MOL0     H16282   4.319   1.713   9.601 -1.2199 -0.1993  0.4148
  121MOL0     H16283   4.352   1.877   9.542  0.2160 -1.2994 -1.1331
  121MOL0     H16284   4.559   1.725   9.520  0.5746 -0.4185  0.3809
  121MOL0     H16285   4.522   1.664   9.680  0.1325 -1.4485 -2.5167
  121MOL0     H16286   4.703   1.724   9.831  1.4911  1.1193  0.3615
  121MOL0     H16287   4.852   2.016   9.978  0.5918 -0.3023 -0.0208
  121MOL0     H16288   4.879   1.838   9.966 -2.6458 -0.8806 -1.8691
  121MOL0     H16289   5.080   1.948   9.952  0.7996 -0.0555 -0.7667
  121MOL0     H16290   5.033   2.035   9.799 -1.8748  0.1342 -0.4996
  121MOL0     H16291   4.991   1.836   9.675  3.0157 -0.4587 -2.0910
  121MOL0     H16292   5.015   1.739   9.826 -0.2667 -0.0170 -0.3323
  121MOL0     H16293   5.276   1.836   9.801  1.9558 -2.2815 -0.7458
  121MOL0     H16294   5.208   1.846   9.634 -0.6920  0.4740  0.6283
  121MOL0     H16295   5.465   1.757   9.783  1.9896 -0.2276  0.2026
  121MOL0     H16296   5.760   1.626   9.785  1.6556  1.2801  1.0395
  121MOL0     H16297   5.759   1.710   9.622  1.3941  0.6609  0.6742
  121MOL0     H16298   5.686   1.784   9.761  1.2372 -0.8312  0.8968
  121MOL0     H16299   5.794   1.298   9.210 -0.3004  0.7620  0.3688
  121MOL0     H16300   5.954   1.122   9.148 -0.8405 -0.2860 -0.7513
  121MOL0     H16301   6.252   0.976   9.435  0.8404  0.1833 -1.4114
  121MOL0     H16302   6.116   0.857   9.465 -0.8891 -0.3700 -0.5083
  121MOL0     H16303   6.204   0.818   9.191  0.9096 -3.3197 -0.3900
  121MOL0     H16304   6.351   0.832   9.283  0.5908 -0.6907  1.6383
  121MOL0     H16305   6.252   0.668   9.439 -3.5888 -0.4289  1.1252
  121MOL0     H16306   6.293   0.604   9.277 -1.4235 -0.6426 -0.3852
  121MOL0     H16307   6.020   0.679   9.387 -0.3594  2.3912 -1.2964
  121MOL0     H16308   6.052   0.621   9.218  2.0443 -0.3799  0.3147
  121MOL0     H16309   6.097   0.447   9.472  2.8050  1.4980  0.3199
  121MOL0     H16310   6.143   0.410   9.313 -1.7459  0.6489 -1.3998
  121MOL0     H16311   5.898   0.420   9.243  1.8996 -1.6453 -0.3574
  121MOL0     H16312   5.925   0.313   9.386 -2.5819 -0.9233  0.8837
  121MOL0     H16313   5.822   0.604   9.363  0.2131 -0.6722 -1.4931
  121MOL0     H16314   5.841   0.528   9.521 -1.4821 -1.0949  0.4213
  121MOL0     H16315   5.655   0.402   9.308 -1.0938 -0.9215  0.6330
  121MOL0     H16316   5.632   0.540   9.407 -1.6909 -0.3241 -1.8630
  121MOL0     H16317   6.024   1.050   9.570  0.8354  0.4920 -0.4716
  121MOL0     H16318   5.867   1.204   9.631  1.8502 -1.5894  1.3146
  121MOL0     H16319   5.443   1.347   9.508 -0.9689 -0.2025  1.3225
  121MOL0     H16320   5.242   1.436   9.582 -0.0996  0.5535 -0.4597
  121MOL0     H16321   4.099   2.529   9.363 -0.4373  0.3513 -0.0908
  121MOL0     H16322   4.123   2.766   9.411  0.4149 -0.1974  0.2146
  121MOL0     H16323   3.788   3.148   9.568 -0.8991  0.9007  0.5816
  121MOL0     H16324   3.794   3.379   9.599 -1.4116 -1.9260  0.2821
  121MOL0     H16325   3.968   3.640   9.860 -1.6945 -1.4547 -1.5817
  121MOL0     H16326   4.108   3.550   9.853  0.7808  3.1653  2.0228
  121MOL0     H16327   4.033   3.757   9.637 -0.4463 -0.4243  1.9085
  121MOL0     H16328   4.183   3.672   9.628  0.3503 -0.8436  1.0131
  121MOL0     H16329   4.128   3.839   9.882  0.2036 -1.1311  0.5639
  121MOL0     H16330   4.196   3.903   9.725 -1.0930 -0.7175 -1.4730
  121MOL0     H16331   4.332   3.679   9.856 -0.4219 -0.0133  0.0427
  121MOL0     H16332   4.363   3.836   9.919  0.6204 -2.4432  0.4932
  121MOL0     H16333   4.524   3.821   9.509 -1.9968  1.8577 -1.0279
  121MOL0     H16334   4.175   3.350   9.788  0.5682 -1.5477  0.4615
  121MOL0     H16335   4.181   3.110   9.756  0.0002  0.7491 -0.2837
  122MOL0     O16336   5.051  10.381   6.043  0.2980 -0.1088  0.3598
  122MOL0     C16337   5.095  10.282   5.987 -0.0003  0.9417 -0.4243
  122MOL0     O16338   5.054  10.223   5.873  0.6992  0.3451  0.1665
  122MOL0     C16339   4.944  10.265   5.799  0.5139 -0.3951  0.3165
  122MOL0     C16340   4.885  10.173   5.711  0.6033  0.5831 -0.3603
  122MOL0     C16341   4.768  10.200   5.640 -0.6174 -0.1641  0.1730
  122MOL0     C16342   4.704  10.324   5.652  1.3313  0.0293 -0.4781
  122MOL0     O16343   4.585  10.365   5.596  0.3009  0.8280 -0.0768
  122MOL0     C16344   4.515  10.278   5.500  0.5928  0.6081 -0.2262
  122MOL0     C16345   4.413  10.365   5.426 -0.8741  0.7868 -0.9349
  122MOL0     C16346   4.344  10.291   5.315 -0.1056  0.6975  0.3625
  122MOL0     C16347   4.281  10.384   5.208  0.3770  0.0406 -0.5161
  122MOL0     C16348   4.198  10.308   5.099  0.4576 -0.4598 -0.2175
  122MOL0     C16349   4.072  10.234   5.136  0.4836 -0.0644 -0.5640
  122MOL0     C16350   4.010  10.177   5.010 -0.1479  0.2551 -0.1629
  122MOL0     C16351   4.056  10.029   4.990 -0.8648  0.2205  0.3434
  122MOL0     N16352   3.976   9.969   4.887  0.0561 -0.5284  0.5485
  122MOL0     C16353   3.850   9.921   4.892 -0.1029 -0.6912  0.3905
  122MOL0     C16354   3.828   9.874   4.762 -0.7119 -0.5511  0.0935
  122MOL0     C16355   3.705   9.801   4.721  0.1789 -1.0038  0.3178
  122MOL0     C16356   3.639   9.873   4.614 -0.1971 -0.1037  0.0205
  122MOL0     C16357   3.600  10.022   4.642 -0.4174 -0.0628  0.6770
  122MOL0     C16358   3.532  10.040   4.780  0.2418  1.0785 -0.0224
  122MOL0     O16359   3.445  10.157   4.796 -0.6646  0.1687  0.3599
  122MOL0     C16360   3.334  10.156   4.728  0.4290 -0.5908  0.5677
  122MOL0     C16361   3.261  10.277   4.732 -0.2451  0.0958 -0.2099
  122MOL0     C16362   3.137  10.292   4.678  0.2571  0.4519  0.1378
  122MOL0     C16363   3.068  10.412   4.702  0.2347  0.0426  0.8050
  122MOL0     C16364   3.080  10.174   4.612 -0.0329 -0.1376  0.4948
  122MOL0     C16365   2.946  10.186   4.534 -0.5120  0.3866  0.2232
  122MOL0     O16366   2.861  10.284   4.561 -0.5667  0.3244 -0.3933
  122MOL0     C16367   2.772  10.314   4.459  0.4268 -0.7501  0.2780
  122MOL0     C16368   2.654  10.252   4.448  0.0110 -0.0479 -0.1790
  122MOL0     C16369   2.566  10.282   4.345 -0.2896  0.5123  1.1617
  122MOL0     C16370   2.596  10.375   4.239  0.9002 -0.1131  0.1403
  122MOL0     O16371   2.498  10.394   4.149 -0.7239 -0.3978  0.1902
  122MOL0     C16372   2.527  10.492   4.049 -0.2763 -0.5021 -0.1558
  122MOL0     C16373   2.476  10.629   4.089  0.6274 -0.2572 -0.4251
  122MOL0     C16374   2.333  10.614   4.136  0.5578  0.6878  0.2394
  122MOL0     C16375   2.275  10.748   4.164  0.5949 -0.0690 -0.1504
  122MOL0     C16376   2.151  10.760   4.247 -0.2066  0.2691 -0.5041
  122MOL0     C16377   2.024  10.736   4.165 -0.6619  0.6320  0.1926
  122MOL0     C16378   1.912  10.829   4.213  0.3427  0.0112  0.8653
  122MOL0     C16379   1.791  10.814   4.132 -0.9042 -0.7641  0.3077
  122MOL0    Cl16380   1.788  10.916   3.988  0.0084  0.1239 -0.2387
  122MOL0     C16381   2.725  10.436   4.254 -0.5299  0.1180  0.3969
  122MOL0     C16382   2.810  10.408   4.364  0.9027  0.2594 -0.7978
  122MOL0     O16383   2.931  10.094   4.452  0.2131  0.7040 -0.0661
  122MOL0     C16384   3.149  10.051   4.612  0.2571  0.0531  0.0531
  122MOL0     C16385   3.277  10.045   4.666  0.0956  0.6961  0.2371
  122MOL0     N16386   3.938   9.899   4.682  0.6408  0.1184  0.3495
  122MOL0     N16387   4.026   9.943   4.756  0.0488 -0.3328 -0.1046
  122MOL0     C16388   4.760  10.410   5.740  0.1314 -0.1555  0.0689
  122MOL0     C16389   4.876  10.382   5.813 -0.0342 -0.4074  0.3238
  122MOL0     C16390   5.209  10.210   6.054  0.2238  0.8040 -0.1942
  122MOL0     C16391   5.265  10.251   6.180  0.6080 -0.2401 -0.1468
  122MOL0     C16392   5.378  10.192   6.235 -0.7253 -0.3334  0.5131
  122MOL0     C16393   5.439  10.080   6.176 -0.1344  0.8357  0.0417
  122MOL0     O16394   5.562  10.019   6.220  0.2067 -0.6147  0.5826
  122MOL0     C16395   5.646  10.104   6.297  0.3166  1.4126 -1.6562
  122MOL0     C16396   5.778  10.014   6.310 -0.2069 -0.9097  0.3283
  122MOL0     C16397   5.746   9.883   6.390  0.1790 -0.0609  0.5105
  122MOL0     C16398   5.883   9.826   6.438 -0.0138 -0.1561 -0.0146
  122MOL0     C16399   5.845   9.714   6.531  0.1305  0.4683 -0.4726
  122MOL0     C16400   5.802   9.625   6.601  0.1349 -0.2198 -0.6570
  122MOL0     C16401   5.374  10.025   6.066  0.2358 -0.1410  0.8024
  122MOL0     C16402   5.267  10.091   6.005  1.2291 -0.0272 -0.0715
  122MOL0     H16403   4.915  10.069   5.711 -0.3609  0.2935  0.1526
  122MOL0     H16404   4.734  10.121   5.575 -2.1592  1.2270 -0.7811
  122MOL0     H16405   4.588  10.238   5.430 -0.7327  0.1721 -1.4102
  122MOL0     H16406   4.474  10.188   5.548 -2.1927  0.0938 -3.2131
  122MOL0     H16407   4.335  10.395   5.497 -1.4600  1.5262 -1.8528
  122MOL0     H16408   4.458  10.454   5.381  3.7812 -1.4795 -1.3126
  122MOL0     H16409   4.416  10.223   5.268 -1.9022  0.2000 -1.8809
  122MOL0     H16410   4.268  10.226   5.360 -0.9903  2.3583  1.3334
  122MOL0     H16411   4.202  10.444   5.255  1.2771  0.8700 -0.0286
  122MOL0     H16412   4.348  10.447   5.149 -4.2440  2.0650 -4.2758
  122MOL0     H16413   4.171  10.388   5.031  0.4935  0.2267  0.5563
  122MOL0     H16414   4.269  10.244   5.044  0.1744 -0.1786 -0.9146
  122MOL0     H16415   4.085  10.152   5.207 -2.9196  0.1856  0.5290
  122MOL0     H16416   4.001  10.307   5.177 -2.9085 -2.7095 -1.3301
  122MOL0     H16417   3.902  10.187   5.023 -0.3352 -1.8685  0.1395
  122MOL0     H16418   4.039  10.242   4.926 -1.4602  1.1881  0.0794
  122MOL0     H16419   4.041   9.971   5.081 -1.0205  1.0173  0.8395
  122MOL0     H16420   4.164  10.022   4.975 -0.6615  1.2756  1.2079
  122MOL0     H16421   3.786   9.921   4.980 -1.6751 -0.8559 -0.7047
  122MOL0     H16422   3.724   9.698   4.690  0.3615 -0.8588 -0.0557
  122MOL0     H16423   3.633   9.799   4.804 -3.1836 -0.5629 -2.3778
  122MOL0     H16424   3.548   9.819   4.589  0.1715 -0.1109 -1.4118
  122MOL0     H16425   3.703   9.867   4.525  0.4497 -1.1215  0.5286
  122MOL0     H16426   3.533  10.057   4.562  2.3644 -1.0020 -2.2713
  122MOL0     H16427   3.686  10.089   4.632  1.2734 -1.5960  3.6753
  122MOL0     H16428   3.613  10.041   4.854 -0.9349  1.5739  1.2852
  122MOL0     H16429   3.473   9.952   4.804 -3.1053  2.2354 -3.1516
  122MOL0     H16430   3.298  10.365   4.783 -3.7589  0.7688  1.5095
  122MOL0     H16431   2.982  10.387   4.765 -1.5249 -2.3500 -2.2542
  122MOL0     H16432   3.130  10.490   4.747 -1.5625  0.7833  2.1445
  122MOL0     H16433   3.029  10.447   4.606 -0.2326 -1.6319  0.3584
  122MOL0     H16434   2.629  10.180   4.525  3.1646  2.4324  3.5983
  122MOL0     H16435   2.476  10.224   4.327  0.3226  0.3434 -1.7658
  122MOL0     H16436   2.631  10.504   4.014 -1.3923  3.2250 -2.9511
  122MOL0     H16437   2.471  10.455   3.963 -0.7882 -2.8482  1.1222
  122MOL0     H16438   2.536  10.674   4.169 -0.3633  1.5544 -0.6464
  122MOL0     H16439   2.490  10.690   3.999 -0.9229  0.9323  0.1052
  122MOL0     H16440   2.341  10.555   4.228 -0.7422 -1.0582 -0.7105
  122MOL0     H16441   2.271  10.559   4.065 -2.2695  1.2365  2.1339
  122MOL0     H16442   2.348  10.787   4.235  1.6904  1.8947 -2.2401
  122MOL0     H16443   2.256  10.818   4.083  0.0093  0.4687  0.4343
  122MOL0     H16444   2.142  10.859   4.293  0.0806 -0.6236  1.5697
  122MOL0     H16445   2.154  10.691   4.332 -0.6238  0.0741 -0.6439
  122MOL0     H16446   2.039  10.758   4.059  0.2541 -0.2494  0.1232
  122MOL0     H16447   1.994  10.631   4.170 -0.2846  0.4830 -0.6529
  122MOL0     H16448   1.953  10.929   4.198  2.3443 -1.2160 -3.6537
  122MOL0     H16449   1.898  10.794   4.316 -0.5957 -3.6736 -0.3793
  122MOL0     H16450   1.709  10.847   4.198  1.1572 -1.3296  3.3570
  122MOL0     H16451   1.768  10.708   4.114 -2.1950 -1.0373  3.0536
  122MOL0     H16452   2.753  10.504   4.174 -3.3842 -1.2965 -2.0088
  122MOL0     H16453   2.904  10.462   4.372  0.4563  1.4719 -2.9476
  122MOL0     H16454   3.107   9.968   4.556  0.0146  0.3276 -0.1715
  122MOL0     H16455   3.323   9.948   4.654  0.8672  1.2149 -1.1900
  122MOL0     H16456   4.721  10.511   5.749  0.2010 -0.2382  1.4237
  122MOL0     H16457   4.926  10.463   5.865  1.4036  0.4907 -2.3069
  122MOL0     H16458   5.216  10.339   6.220 -0.1872 -0.0116 -1.5505
  122MOL0     H16459   5.422  10.230   6.327  1.7164  1.5477 -1.2955
  122MOL0     H16460   5.675  10.188   6.232 -2.8341  0.7706 -4.1492
  122MOL0     H16461   5.606  10.138   6.393  3.7389 -0.7014  0.7477
  122MOL0     H16462   5.841  10.078   6.373 -1.8253  2.4525 -1.1942
  122MOL0     H16463   5.825  10.005   6.212  1.9048  0.7906  1.1067
  122MOL0     H16464   5.702   9.810   6.323 -1.4852  1.3945 -0.0520
  122MOL0     H16465   5.679   9.912   6.471  0.7709  0.7429  0.7309
  122MOL0     H16466   5.947   9.903   6.483  0.2413 -0.0042 -0.6156
  122MOL0     H16467   5.938   9.784   6.353 -1.9392 -1.9868 -0.4413
  122MOL0     H16468   5.761   9.546   6.661  0.5214 -0.9061 -1.2855
  122MOL0     H16469   5.414   9.935   6.021  1.4792  0.3977  0.7744
  122MOL0     H16470   5.216  10.042   5.923  2.4301 -0.2540 -0.7060
  123MOL0     O16471   2.444   2.531   8.955 -0.4916 -0.3446 -0.5189
  123MOL0     C16472   2.516   2.583   8.876 -0.5142  0.0359  0.3699
  123MOL0     O16473   2.480   2.670   8.772  0.0693 -0.0023 -1.2312
  123MOL0     C16474   2.350   2.704   8.760 -0.7180  0.0570  0.2985
  123MOL0     C16475   2.255   2.610   8.731  0.5401  0.6748 -0.4285
  123MOL0     C16476   2.114   2.649   8.720  0.5030 -0.0321 -0.2504
  123MOL0     C16477   2.074   2.780   8.737  0.0769 -0.4487 -0.2766
  123MOL0     O16478   1.936   2.808   8.718 -0.9507 -0.4004  0.6477
  123MOL0     C16479   1.892   2.921   8.784  0.0466  1.0105  0.9810
  123MOL0     C16480   1.742   2.929   8.774 -0.0912  0.0373 -0.1436
  123MOL0     C16481   1.701   2.933   8.632 -0.2180  0.1096  0.3691
  123MOL0     C16482   1.555   2.982   8.621 -0.1366 -0.3606  0.0300
  123MOL0     C16483   1.523   3.019   8.477  1.5593  0.3938  0.4799
  123MOL0     C16484   1.380   3.072   8.469  0.0506 -0.9146 -0.4315
  123MOL0     C16485   1.263   2.973   8.464 -0.4359 -0.1079  0.8670
  123MOL0     C16486   1.133   3.036   8.515  0.2206 -0.6403 -1.1666
  123MOL0     N16487   1.152   3.067   8.661 -0.0751 -0.0530  1.1122
  123MOL0     C16488   1.166   2.960   8.744 -0.0005  0.6393  0.1088
  123MOL0     C16489   1.179   3.010   8.870  0.3144  0.1369  1.1340
  123MOL0     C16490   1.190   2.931   8.997 -0.2509 -0.1562  0.0314
  123MOL0     C16491   1.056   2.893   9.046 -0.5416  0.7583  0.2092
  123MOL0     C16492   1.076   2.787   9.157 -0.8705 -0.4883 -0.1749
  123MOL0     C16493   0.936   2.770   9.215  0.0519  0.6294 -0.0376
  123MOL0     O16494   0.922   2.647   9.298 -0.5397 -0.3494  0.7270
  123MOL0     C16495   0.811   2.605   9.353  0.9709 -0.2256  0.4591
  123MOL0     C16496   0.812   2.478   9.414  0.1493 -0.0047 -0.6922
  123MOL0     C16497   0.706   2.427   9.489  0.1391 -0.6849  0.0833
  123MOL0     C16498   0.723   2.283   9.547 -0.0931  0.5642  0.4345
  123MOL0     C16499   0.593   2.508   9.511 -0.3403  0.8311 -0.5575
  123MOL0     C16500   0.470   2.470   9.591  0.0799  1.5177  0.1214
  123MOL0     O16501   0.354   2.533   9.547  0.5678 -0.1774  0.0389
  123MOL0     C16502   0.227   2.511   9.596  0.1920 -0.2545  0.3141
  123MOL0     C16503   0.127   2.579   9.530  0.2642 -0.5018  0.5116
  123MOL0     C16504  -0.005   2.542   9.566 -0.1757 -0.0186 -0.4997
  123MOL0     C16505  -0.042   2.470   9.679 -0.3899  0.5249 -0.4006
  123MOL0     O16506  -0.167   2.455   9.730 -0.6215 -0.0779 -0.0125
  123MOL0     C16507  -0.279   2.520   9.665  0.2901  0.1835 -0.6659
  123MOL0     C16508  -0.412   2.476   9.710  0.1999 -0.2374  0.2469
  123MOL0     C16509  -0.437   2.321   9.695  0.7169 -0.9484 -0.3359
  123MOL0     C16510  -0.584   2.277   9.738  1.5758 -0.4421  0.0695
  123MOL0     C16511  -0.607   2.128   9.765 -0.5219 -0.3002  0.6002
  123MOL0     C16512  -0.755   2.109   9.803 -1.0539 -0.2392  0.2998
  123MOL0     C16513  -0.841   2.114   9.684  0.2063  0.6490  0.4019
  123MOL0     C16514  -0.987   2.121   9.719  1.1931 -0.0212 -0.5239
  123MOL0    Cl16515  -1.055   1.995   9.832 -0.6089 -0.0072 -0.0469
  123MOL0     C16516   0.057   2.412   9.755  0.1335 -0.2637  0.1729
  123MOL0     C16517   0.187   2.434   9.713 -0.0316  0.1945 -0.4810
  123MOL0     O16518   0.475   2.400   9.683 -0.3178 -0.4513  0.3715
  123MOL0     C16519   0.580   2.630   9.440 -0.2660 -0.4136 -0.7151
  123MOL0     C16520   0.690   2.676   9.366 -0.1411  0.5174 -0.3543
  123MOL0     N16521   1.162   3.150   8.850 -0.2237  0.0215  0.0110
  123MOL0     N16522   1.146   3.181   8.723  0.4624 -0.2759 -0.5016
  123MOL0     C16523   2.174   2.868   8.769 -0.3089 -0.0178  0.7311
  123MOL0     C16524   2.305   2.837   8.777 -1.0181  0.5304  0.1963
  123MOL0     C16525   2.659   2.585   8.905  1.2033 -1.0784 -0.0754
  123MOL0     C16526   2.718   2.517   9.018 -0.7103 -0.1461 -0.5181
  123MOL0     C16527   2.862   2.509   9.028  0.1687  0.0771 -0.3412
  123MOL0     C16528   2.951   2.555   8.930  0.2614  0.2231 -0.1572
  123MOL0     O16529   3.085   2.515   8.940  0.0078 -0.4767  0.2686
  123MOL0     C16530   3.190   2.554   8.848  0.3677  0.6157  0.4246
  123MOL0     C16531   3.327   2.557   8.911  0.9540  0.2756 -0.0300
  123MOL0     C16532   3.361   2.656   9.024 -0.3221 -0.4722  0.5810
  123MOL0     C16533   3.422   2.797   8.966  0.8076 -0.8493  0.4841
  123MOL0     C16534   3.568   2.788   8.918  0.2917  0.5153  0.8109
  123MOL0     C16535   3.678   2.775   8.879  0.8339  0.7194  0.0756
  123MOL0     C16536   2.897   2.636   8.830 -0.1374  1.1151 -1.1136
  123MOL0     C16537   2.752   2.650   8.817 -0.1980  0.6172  0.3878
  123MOL0     H16538   2.284   2.506   8.721  3.6200  1.1100  2.3580
  123MOL0     H16539   2.035   2.579   8.696 -0.6990  0.1328  2.7345
  123MOL0     H16540   1.919   2.921   8.890  1.0628 -2.8026  0.8793
  123MOL0     H16541   1.931   3.008   8.730 -1.3910  1.2834  0.3500
  123MOL0     H16542   1.680   2.857   8.827 -1.7819  0.5497 -1.3699
  123MOL0     H16543   1.722   3.029   8.813  5.6269  1.9443 -1.0418
  123MOL0     H16544   1.765   2.997   8.570  1.0700 -0.9176  0.5813
  123MOL0     H16545   1.716   2.829   8.599  2.3137 -0.0453  1.7772
  123MOL0     H16546   1.495   2.894   8.646  1.1016 -0.6632  2.2667
  123MOL0     H16547   1.547   3.064   8.693  1.0891 -0.8075  0.7126
  123MOL0     H16548   1.582   3.106   8.446  0.4282 -0.3288 -4.7745
  123MOL0     H16549   1.535   2.934   8.408  1.6230 -0.2240  1.2352
  123MOL0     H16550   1.367   3.142   8.552 -0.2077 -0.4073 -0.8913
  123MOL0     H16551   1.359   3.124   8.374 -1.8742  1.1504  1.0125
  123MOL0     H16552   1.257   2.933   8.362  0.8306 -1.3722  1.2606
  123MOL0     H16553   1.293   2.882   8.516  1.2180 -1.4070 -2.1304
  123MOL0     H16554   1.055   2.962   8.493  3.3909 -5.6575  2.1519
  123MOL0     H16555   1.115   3.139   8.483  3.8081  1.0694  1.5726
  123MOL0     H16556   1.181   2.861   8.703  1.0150  0.6529  0.4220
  123MOL0     H16557   1.245   2.839   8.972 -0.6437 -0.9374  1.8918
  123MOL0     H16558   1.243   2.992   9.071  1.1704  1.2709 -2.0375
  123MOL0     H16559   1.002   2.835   8.971  1.6576  0.1045 -0.9470
  123MOL0     H16560   0.997   2.980   9.077  1.7524  2.1144  1.0631
  123MOL0     H16561   1.153   2.809   9.231  1.3672 -1.9549 -1.8918
  123MOL0     H16562   1.125   2.703   9.106  1.3364  0.1240  0.8154
  123MOL0     H16563   0.867   2.754   9.132 -3.0259  2.1758  1.9973
  123MOL0     H16564   0.899   2.861   9.264  1.0316  1.2341 -0.3820
  123MOL0     H16565   0.909   2.429   9.407 -0.5587 -1.6410  0.2512
  123MOL0     H16566   0.825   2.250   9.526 -0.1360  1.8003 -2.0055
  123MOL0     H16567   0.718   2.285   9.657  1.3550 -0.8350  0.5594
  123MOL0     H16568   0.648   2.223   9.495  1.0836  1.3695 -2.3946
  123MOL0     H16569   0.143   2.635   9.439 -2.9390 -1.0144 -0.4912
  123MOL0     H16570  -0.085   2.564   9.496 -0.6057  3.0279  0.8015
  123MOL0     H16571  -0.274   2.629   9.677 -0.5177  0.0455  1.3616
  123MOL0     H16572  -0.285   2.495   9.559 -1.5929  2.0042 -1.0675
  123MOL0     H16573  -0.417   2.495   9.817  0.3332  1.4099 -0.0179
  123MOL0     H16574  -0.491   2.534   9.661 -0.6670 -0.4337  1.3748
  123MOL0     H16575  -0.375   2.279   9.775  0.0699  2.0573  1.9123
  123MOL0     H16576  -0.411   2.277   9.598 -0.5356  1.9976 -2.1340
  123MOL0     H16577  -0.604   2.336   9.828  1.5778  1.9687 -1.4274
  123MOL0     H16578  -0.653   2.315   9.662 -0.1980  0.1802  1.8910
  123MOL0     H16579  -0.551   2.100   9.854 -2.4407 -1.3499  1.5525
  123MOL0     H16580  -0.571   2.066   9.682 -2.4872 -0.4435 -0.2026
  123MOL0     H16581  -0.757   2.006   9.840  3.0244 -0.3561  0.6354
  123MOL0     H16582  -0.784   2.174   9.885  2.0614 -1.0207  2.1943
  123MOL0     H16583  -0.819   2.026   9.623 -0.1996  1.7958 -1.4720
  123MOL0     H16584  -0.811   2.187   9.609  2.8670 -0.7393 -0.0246
  123MOL0     H16585  -1.046   2.120   9.627  1.3747 -1.3128 -0.6436
  123MOL0     H16586  -0.994   2.218   9.770 -0.6084 -0.8606  0.9293
  123MOL0     H16587   0.041   2.343   9.837 -0.8153 -1.1032 -0.6877
  123MOL0     H16588   0.267   2.400   9.778  0.2748  1.1716 -0.3427
  123MOL0     H16589   0.492   2.691   9.453  0.3122  0.0089  1.6427
  123MOL0     H16590   0.688   2.772   9.314 -0.8809  1.0382  0.6046
  123MOL0     H16591   2.156   2.974   8.783 -0.1953  0.5650 -2.6135
  123MOL0     H16592   2.374   2.916   8.803 -1.2156 -0.4834  4.6014
  123MOL0     H16593   2.659   2.470   9.096 -1.9254  3.8536  1.2764
  123MOL0     H16594   2.901   2.460   9.117  0.2575  0.3632 -0.2193
  123MOL0     H16595   3.196   2.491   8.759 -4.2322  2.4924 -1.4857
  123MOL0     H16596   3.172   2.656   8.813  0.2983  0.1236 -1.0237
  123MOL0     H16597   3.398   2.576   8.830  2.4599  1.3482  1.4555
  123MOL0     H16598   3.340   2.455   8.948  0.4458  0.5331  0.8980
  123MOL0     H16599   3.442   2.617   9.087  0.5487  1.5760  0.8301
  123MOL0     H16600   3.268   2.674   9.078  0.2306  0.6386  1.2168
  123MOL0     H16601   3.424   2.870   9.047  1.4823 -0.4680  0.1279
  123MOL0     H16602   3.358   2.839   8.889  1.6100  3.3961  1.8791
  123MOL0     H16603   3.777   2.745   8.852  0.7326  2.3632 -2.4635
  123MOL0     H16604   2.955   2.666   8.743  2.3446  1.7140  0.6506
  123MOL0     H16605   2.717   2.703   8.730 -0.0433 -1.8964 -1.3269
  124MOL0     O16606   6.708   6.008  11.249  0.7353  0.0387  0.2104
  124MOL0     C16607   6.802   5.975  11.174  0.1768 -0.4829  0.0793
  124MOL0     O16608   6.824   5.845  11.134  0.2529  0.4549  0.4405
  124MOL0     C16609   6.738   5.741  11.183  0.4081  0.2758  0.7140
  124MOL0     C16610   6.776   5.664  11.293 -0.1763  0.5833  0.3210
  124MOL0     C16611   6.698   5.560  11.332  0.3029  0.1367  0.5214
  124MOL0     C16612   6.586   5.517  11.261  0.3145 -0.6560 -0.2506
  124MOL0     O16613   6.494   5.420  11.295  0.5770  0.4118  0.3566
  124MOL0     C16614   6.506   5.360  11.431  0.1488  0.6252 -0.5835
  124MOL0     C16615   6.410   5.247  11.456  0.2900 -0.1818  0.7790
  124MOL0     C16616   6.466   5.111  11.416  0.4188  0.1164  0.0153
  124MOL0     C16617   6.361   4.998  11.447 -0.0200  1.0935 -0.4174
  124MOL0     C16618   6.386   4.873  11.368  0.4478 -0.3269 -0.3784
  124MOL0     C16619   6.276   4.773  11.397 -0.4847  0.6313  0.9852
  124MOL0     C16620   6.318   4.702  11.532 -0.3166  1.0917 -0.5786
  124MOL0     C16621   6.203   4.612  11.578 -0.4748  0.7101  0.8343
  124MOL0     N16622   6.093   4.703  11.624  0.1327 -0.5133  0.6227
  124MOL0     C16623   6.103   4.784  11.731  0.5770 -0.4604  0.0554
  124MOL0     C16624   5.979   4.852  11.730 -0.5079  0.3551 -0.5913
  124MOL0     C16625   5.932   4.950  11.825 -0.2940  0.0828  0.0205
  124MOL0     C16626   5.922   4.892  11.971  0.6626 -0.0719  0.1582
  124MOL0     C16627   5.787   4.814  11.985  0.3292  1.0928  0.6617
  124MOL0     C16628   5.669   4.909  11.982  0.8232  0.2814  0.6642
  124MOL0     O16629   5.680   5.021  12.078 -0.1657 -0.2452 -0.5010
  124MOL0     C16630   5.577   5.109  12.101 -0.5399 -0.3654  0.4428
  124MOL0     C16631   5.597   5.211  12.192  0.4598 -0.0064  0.4570
  124MOL0     C16632   5.502   5.311  12.223  0.4376 -0.4418  0.0934
  124MOL0     C16633   5.539   5.423  12.314 -0.5875  0.5208 -0.1737
  124MOL0     C16634   5.372   5.296  12.167 -0.4058  0.1581 -0.0228
  124MOL0     C16635   5.257   5.391  12.192  0.3816 -0.1394  0.1238
  124MOL0     O16636   5.161   5.412  12.085 -0.1973  0.0175  0.4450
  124MOL0     C16637   5.053   5.486  12.112  0.7449  0.5808 -0.5020
  124MOL0     C16638   5.021   5.594  12.041  0.0500 -0.1222  0.1705
  124MOL0     C16639   4.902   5.668  12.062  0.8061 -0.2058 -0.4428
  124MOL0     C16640   4.802   5.619  12.151 -0.0577 -0.6989  0.2254
  124MOL0     O16641   4.694   5.710  12.185  0.3681  0.2033 -0.3952
  124MOL0     C16642   4.657   5.716  12.323  0.1470  0.7440  0.0480
  124MOL0     C16643   4.563   5.838  12.359 -0.4095  0.5596 -0.2612
  124MOL0     C16644   4.427   5.827  12.282 -0.2659  0.0293  0.0135
  124MOL0     C16645   4.334   5.945  12.328  0.0238  0.7421  0.4070
  124MOL0     C16646   4.196   5.924  12.249 -0.9065 -0.0361  0.3743
  124MOL0     C16647   4.127   6.053  12.204 -0.1043 -0.1150 -0.3105
  124MOL0     C16648   4.023   6.020  12.094  1.0490 -0.2060  0.3428
  124MOL0     C16649   3.922   6.134  12.063  0.1579  0.3606 -0.0230
  124MOL0    Cl16650   4.007   6.289  12.014 -0.0427 -0.2341  0.1549
  124MOL0     C16651   4.834   5.504  12.220  0.5390  0.2950  0.6491
  124MOL0     C16652   4.956   5.442  12.207 -0.0108 -0.0173  0.3545
  124MOL0     O16653   5.249   5.441  12.303  0.5021 -0.2430  0.1147
  124MOL0     C16654   5.354   5.192  12.075 -0.1534  0.4867 -0.0112
  124MOL0     C16655   5.450   5.095  12.053  0.6602  0.4505 -0.2794
  124MOL0     N16656   5.906   4.815  11.622  0.1423 -0.1224  0.7867
  124MOL0     N16657   5.977   4.727  11.556 -0.1032  0.6316 -0.3298
  124MOL0     C16658   6.548   5.599  11.152  0.1934  0.0598  1.4035
  124MOL0     C16659   6.621   5.711  11.118  0.1071  0.2286 -0.5136
  124MOL0     C16660   6.901   6.082  11.127 -0.3491  0.6890 -0.1962
  124MOL0     C16661   7.008   6.051  11.034  0.7242 -0.3940  0.0392
  124MOL0     C16662   7.100   6.142  10.994 -0.1346  0.3314  0.0674
  124MOL0     C16663   7.108   6.269  11.052  0.0647  0.6964 -0.2470
  124MOL0     O16664   7.201   6.368  11.025  0.5446  0.5170 -0.1512
  124MOL0     C16665   7.262   6.377  10.891  0.4628 -1.3575 -0.3442
  124MOL0     C16666   7.276   6.517  10.841 -0.2261 -0.2367 -0.8766
  124MOL0     C16667   7.354   6.608  10.936  1.0997  0.1278  0.1353
  124MOL0     C16668   7.496   6.562  10.984  0.1962 -0.6896 -0.8926
  124MOL0     C16669   7.599   6.517  10.890 -0.1044  1.3551 -0.1966
  124MOL0     C16670   7.685   6.482  10.814  0.4860  0.2082  0.6049
  124MOL0     C16671   7.016   6.302  11.144 -1.1108  0.5137  0.3059
  124MOL0     C16672   6.919   6.208  11.187  0.1736  0.6024  0.4874
  124MOL0     H16673   6.867   5.677  11.350  1.5368  0.6997 -2.2781
  124MOL0     H16674   6.740   5.504  11.415  1.7875 -1.8208 -1.4157
  124MOL0     H16675   6.608   5.323  11.444  0.1537  0.5921 -0.7184
  124MOL0     H16676   6.487   5.436  11.506 -1.0077  1.0698 -1.3134
  124MOL0     H16677   6.392   5.247  11.564  2.2778 -1.4615  1.1562
  124MOL0     H16678   6.312   5.274  11.415 -1.7134 -0.9765  4.5408
  124MOL0     H16679   6.495   5.105  11.311 -1.4195 -0.0534 -0.5311
  124MOL0     H16680   6.553   5.087  11.477  0.7030  0.1735 -0.3647
  124MOL0     H16681   6.371   4.970  11.552  0.8317 -4.0804 -1.5962
  124MOL0     H16682   6.261   5.026  11.414 -1.8286 -5.0057 -1.1985
  124MOL0     H16683   6.391   4.904  11.263  2.0418 -2.3378 -0.9551
  124MOL0     H16684   6.482   4.832  11.401  0.0638 -0.2096  0.9402
  124MOL0     H16685   6.177   4.816  11.412 -2.6028 -3.3579 -0.2762
  124MOL0     H16686   6.266   4.698  11.318 -1.1794 -1.1472  2.6863
  124MOL0     H16687   6.410   4.644  11.524  1.1132  2.4974  3.3498
  124MOL0     H16688   6.344   4.775  11.609 -0.8303  2.0996 -1.3322
  124MOL0     H16689   6.236   4.542  11.655  0.5961  2.6388  2.2067
  124MOL0     H16690   6.175   4.556  11.488  0.1445 -0.3722  1.3084
  124MOL0     H16691   6.173   4.779  11.813 -0.7889  0.4753  1.3426
  124MOL0     H16692   6.013   5.020  11.846  0.1714 -0.8918  1.6666
  124MOL0     H16693   5.845   5.000  11.780  0.9215 -0.5163 -3.2634
  124MOL0     H16694   5.926   4.977  12.040 -0.2480 -0.7142  1.0299
  124MOL0     H16695   6.005   4.820  11.977  0.9189  0.1029 -1.0588
  124MOL0     H16696   5.791   4.765  12.083  2.0356  0.0428  0.0998
  124MOL0     H16697   5.779   4.746  11.900 -0.8911  0.8150  0.9735
  124MOL0     H16698   5.579   4.851  12.006  0.9080 -0.3703 -0.5236
  124MOL0     H16699   5.656   4.958  11.885 -0.8951 -0.0407  0.6907
  124MOL0     H16700   5.696   5.219  12.236 -0.0833 -0.5294  1.8246
  124MOL0     H16701   5.558   5.519  12.264  2.9552 -0.1421 -0.3347
  124MOL0     H16702   5.465   5.436  12.394 -0.7119 -0.2031 -0.1644
  124MOL0     H16703   5.634   5.398  12.362  0.3352  0.7314 -1.8056
  124MOL0     H16704   5.091   5.637  11.969 -1.8991  0.3573 -1.5148
  124MOL0     H16705   4.892   5.766  12.017  0.4758  0.7290  1.5518
  124MOL0     H16706   4.598   5.628  12.351  1.6419 -0.7119 -1.1550
  124MOL0     H16707   4.741   5.724  12.392  0.9807  0.1367 -0.8674
  124MOL0     H16708   4.537   5.830  12.465  1.8784  1.4350  0.4417
  124MOL0     H16709   4.608   5.937  12.349  0.4837  0.4295  1.9008
  124MOL0     H16710   4.367   5.740  12.311  0.3309 -0.2540  0.4210
  124MOL0     H16711   4.455   5.825  12.176  2.2424 -1.1997  0.5993
  124MOL0     H16712   4.320   5.960  12.436 -1.6600 -0.3513  0.3730
  124MOL0     H16713   4.388   6.036  12.299  2.8121 -1.2836 -1.2178
  124MOL0     H16714   4.134   5.860  12.312  1.7799 -0.3418  2.9216
  124MOL0     H16715   4.215   5.868  12.157  0.6570 -0.6254  1.0178
  124MOL0     H16716   4.073   6.106  12.283 -1.0940  1.1131 -1.7278
  124MOL0     H16717   4.190   6.132  12.164 -0.8164 -0.8016 -3.0195
  124MOL0     H16718   3.962   5.936  12.125 -2.7529  1.5668 -1.6768
  124MOL0     H16719   4.077   5.997  12.001 -1.6144  2.0593 -1.9755
  124MOL0     H16720   3.872   6.150  12.159  1.3676 -3.9199  1.5372
  124MOL0     H16721   3.863   6.088  11.983  2.2935 -0.9825 -0.9017
  124MOL0     H16722   4.745   5.467  12.271  0.3439 -0.6138 -0.3001
  124MOL0     H16723   4.982   5.354  12.265 -1.6072 -3.2119 -3.2964
  124MOL0     H16724   5.253   5.172  12.041  0.4845 -1.5639 -0.8346
  124MOL0     H16725   5.413   5.007  12.000 -3.0282  1.1964  0.8229
  124MOL0     H16726   6.459   5.580  11.092 -0.3823 -0.8952  2.5240
  124MOL0     H16727   6.590   5.764  11.029  1.6235  0.4470 -0.9470
  124MOL0     H16728   7.021   5.951  10.994 -0.6349  0.2124 -2.0531
  124MOL0     H16729   7.173   6.112  10.919 -0.7397  0.9459 -0.7866
  124MOL0     H16730   7.360   6.328  10.900  1.7516  1.1376  0.0658
  124MOL0     H16731   7.218   6.314  10.813 -1.7789  1.2910 -1.3716
  124MOL0     H16732   7.177   6.564  10.836 -0.4850 -0.6644  0.0036
  124MOL0     H16733   7.332   6.514  10.747  1.2821  3.6749 -0.3193
  124MOL0     H16734   7.279   6.637  11.012 -0.3328 -2.1149 -0.3201
  124MOL0     H16735   7.377   6.698  10.880  2.7713  1.3870  2.6504
  124MOL0     H16736   7.469   6.488  11.061  1.0198 -0.4909 -0.4017
  124MOL0     H16737   7.536   6.647  11.039 -2.5747 -1.6821  3.1287
  124MOL0     H16738   7.764   6.442  10.754  2.4777  0.1290  3.0915
  124MOL0     H16739   7.021   6.400  11.189 -1.3490 -0.1127  1.7459
  124MOL0     H16740   6.845   6.229  11.263  0.1633  1.8515  0.1661
  125MOL0     O16741   6.541   5.202   1.655  0.5799  0.6097  0.0376
  125MOL0     C16742   6.541   5.085   1.625 -0.1858 -0.5196 -0.1434
  125MOL0     O16743   6.645   5.016   1.581 -0.5277 -0.1076  0.0743
  125MOL0     C16744   6.763   5.075   1.549 -0.7616  0.3860 -0.0255
  125MOL0     C16745   6.763   5.170   1.443  0.8877 -0.7336 -0.4310
  125MOL0     C16746   6.887   5.225   1.397  0.3865 -0.2844 -0.1039
  125MOL0     C16747   7.003   5.197   1.470 -0.0222 -0.4947 -0.0656
  125MOL0     O16748   7.130   5.248   1.435  0.4043 -0.4700  0.0316
  125MOL0     C16749   7.148   5.347   1.533 -0.8133 -1.1373  0.0190
  125MOL0     C16750   7.293   5.405   1.523  0.6551  0.3098 -0.4661
  125MOL0     C16751   7.402   5.299   1.527 -0.6924 -0.3070 -0.2838
  125MOL0     C16752   7.537   5.363   1.526 -1.0875 -0.0908 -0.0539
  125MOL0     C16753   7.646   5.262   1.564 -0.5231 -0.2062  0.3278
  125MOL0     C16754   7.769   5.278   1.478 -0.7231  0.3025 -0.3794
  125MOL0     C16755   7.825   5.422   1.484  0.3479 -0.6093  0.2349
  125MOL0     C16756   7.949   5.426   1.404  0.5207 -1.1478 -0.5980
  125MOL0     N16757   8.067   5.349   1.453  0.0395  0.2214  0.5021
  125MOL0     C16758   8.121   5.238   1.395 -0.3727 -0.8223 -0.1395
  125MOL0     C16759   8.216   5.197   1.477  0.5120  0.1230 -0.0463
  125MOL0     C16760   8.284   5.062   1.451 -0.7739  0.3205 -0.7396
  125MOL0     C16761   8.211   4.935   1.495  0.7853 -0.0110  0.2003
  125MOL0     C16762   8.176   4.937   1.645  0.2546 -0.0221  0.0756
  125MOL0     C16763   8.028   4.988   1.665 -0.2059  0.2333  0.2440
  125MOL0     O16764   7.990   4.966   1.804  0.5087 -0.3561 -0.1264
  125MOL0     C16765   7.855   4.943   1.834 -0.4370  0.0273  0.3369
  125MOL0     C16766   7.792   4.820   1.872  0.6187 -0.6027  0.3454
  125MOL0     C16767   7.651   4.813   1.888  0.6669 -0.5655  0.0020
  125MOL0     C16768   7.593   4.685   1.933 -0.1515  0.2225  0.5079
  125MOL0     C16769   7.576   4.931   1.863 -0.4376  0.4658 -0.2937
  125MOL0     C16770   7.424   4.925   1.842  0.0790  0.0901  0.2833
  125MOL0     O16771   7.374   4.802   1.802  0.1891 -0.2444 -0.7645
  125MOL0     C16772   7.243   4.767   1.779 -0.1013  0.4816  0.0886
  125MOL0     C16773   7.135   4.815   1.859  0.6687  0.5826  0.1133
  125MOL0     C16774   7.005   4.769   1.847 -1.0189 -0.8107 -0.3918
  125MOL0     C16775   6.971   4.677   1.746  0.3170 -0.2097 -0.6425
  125MOL0     O16776   6.841   4.631   1.723  0.0340  0.8608 -0.2640
  125MOL0     C16777   6.755   4.656   1.837 -0.3700 -0.4745  0.5563
  125MOL0     C16778   6.620   4.585   1.794 -0.6681 -0.1732 -0.6064
  125MOL0     C16779   6.548   4.521   1.921 -0.5681  0.1460  1.3955
  125MOL0     C16780   6.408   4.485   1.887  0.1691 -0.3970 -0.6015
  125MOL0     C16781   6.340   4.419   2.014  0.1139  0.0199 -0.7704
  125MOL0     C16782   6.216   4.349   1.968  0.5408  0.4390 -0.2116
  125MOL0     C16783   6.129   4.289   2.080  0.1072 -0.2112 -0.8287
  125MOL0     C16784   6.005   4.368   2.126  0.5762 -0.7904 -0.1390
  125MOL0    Cl16785   5.930   4.281   2.265 -0.2884  0.2292  0.0958
  125MOL0     C16786   7.076   4.628   1.666  0.2736 -1.0134  0.3447
  125MOL0     C16787   7.206   4.671   1.682  0.4002 -0.9191 -0.1269
  125MOL0     O16788   7.355   5.026   1.857 -0.4002  0.5304 -0.1631
  125MOL0     C16789   7.640   5.052   1.834  0.1860  0.2545  0.1291
  125MOL0     C16790   7.776   5.058   1.817 -0.0318 -0.0304  0.1097
  125MOL0     N16791   8.242   5.295   1.574  0.4080  0.0121  0.7857
  125MOL0     N16792   8.146   5.389   1.560 -0.7437 -0.3954  0.6017
  125MOL0     C16793   7.006   5.104   1.575  0.5806 -0.4363 -0.3827
  125MOL0     C16794   6.887   5.038   1.613  0.5590  0.5149  0.1097
  125MOL0     C16795   6.416   5.009   1.645  0.6998  0.7786 -0.2598
  125MOL0     C16796   6.305   5.072   1.713  0.2205  0.2504  0.0955
  125MOL0     C16797   6.190   4.993   1.728  0.1814 -0.3773  0.1750
  125MOL0     C16798   6.175   4.860   1.693 -0.8090  0.6215 -0.8345
  125MOL0     O16799   6.054   4.800   1.739 -0.2987  0.0223 -0.1819
  125MOL0     C16800   6.016   4.676   1.669  0.0555 -0.0466  0.2294
  125MOL0     C16801   5.870   4.658   1.657  0.5040  0.0081  0.2461
  125MOL0     C16802   5.799   4.631   1.790  0.3378  0.1080 -0.8338
  125MOL0     C16803   5.781   4.768   1.866 -0.4262  0.0381  0.6879
  125MOL0     C16804   5.637   4.783   1.898 -0.0034  0.3824  0.0876
  125MOL0     C16805   5.524   4.794   1.929  0.3068 -0.5926  0.3347
  125MOL0     C16806   6.280   4.804   1.621 -0.9747  0.1346  0.0163
  125MOL0     C16807   6.397   4.881   1.595  0.1039 -0.8347  0.1785
  125MOL0     H16808   6.668   5.202   1.400  0.6694 -0.4929  0.2156
  125MOL0     H16809   6.882   5.301   1.320 -1.5355 -0.7909 -0.5203
  125MOL0     H16810   7.082   5.434   1.519  1.5337  0.5670 -1.2558
  125MOL0     H16811   7.138   5.310   1.635 -2.7913  1.7741  1.0139
  125MOL0     H16812   7.298   5.449   1.423 -2.0027  0.7489 -0.4678
  125MOL0     H16813   7.320   5.483   1.595  4.6725  1.3808 -2.7775
  125MOL0     H16814   7.392   5.243   1.620 -0.4116  1.6149  0.9594
  125MOL0     H16815   7.395   5.232   1.441  0.7434 -0.0262 -0.6514
  125MOL0     H16816   7.561   5.393   1.424 -1.2445 -0.3292 -0.1612
  125MOL0     H16817   7.543   5.448   1.595  0.7815 -0.0429 -0.2279
  125MOL0     H16818   7.672   5.279   1.669  2.5900 -2.6330  0.0841
  125MOL0     H16819   7.610   5.161   1.543 -1.1415  0.1301 -0.2813
  125MOL0     H16820   7.829   5.192   1.510 -3.8259 -1.0360  2.5041
  125MOL0     H16821   7.744   5.272   1.372  2.1579 -0.3002 -1.1128
  125MOL0     H16822   7.760   5.492   1.431 -0.7188 -1.3818  0.4799
  125MOL0     H16823   7.835   5.450   1.589  2.0383 -0.5201  0.0809
  125MOL0     H16824   7.970   5.532   1.385 -0.7708 -0.9586 -1.0236
  125MOL0     H16825   7.918   5.395   1.304 -2.7816 -0.6464  0.1499
  125MOL0     H16826   8.090   5.182   1.308  4.8692 -1.9261 -1.6891
  125MOL0     H16827   8.316   5.048   1.348 -2.5391 -0.1894 -1.2516
  125MOL0     H16828   8.377   5.069   1.509 -1.4400 -0.6743  0.5217
  125MOL0     H16829   8.269   4.845   1.472 -0.6409 -0.9266  0.0450
  125MOL0     H16830   8.117   4.927   1.441  1.3068  2.1538 -1.1418
  125MOL0     H16831   8.251   4.998   1.696  2.5761 -1.5911 -1.3137
  125MOL0     H16832   8.184   4.834   1.681  1.7046  0.5093  1.3775
  125MOL0     H16833   7.965   4.933   1.595  1.5868 -4.7311  2.0734
  125MOL0     H16834   8.022   5.095   1.644  2.6443  1.1367  3.1808
  125MOL0     H16835   7.848   4.728   1.882 -0.0634 -1.5035 -3.0126
  125MOL0     H16836   7.659   4.618   1.991  0.4232 -0.9292 -1.3875
  125MOL0     H16837   7.505   4.704   1.996  1.0193  2.1907  1.6584
  125MOL0     H16838   7.562   4.635   1.841  1.7104 -0.6957  0.3408
  125MOL0     H16839   7.154   4.871   1.950  0.4330  1.2399 -0.2425
  125MOL0     H16840   6.934   4.807   1.919 -1.2489  1.0093 -1.5030
  125MOL0     H16841   6.777   4.605   1.932 -1.3469 -0.7930  0.6248
  125MOL0     H16842   6.729   4.760   1.859  0.8157  0.0960 -0.6467
  125MOL0     H16843   6.553   4.660   1.752 -1.0845  1.0944  2.1165
  125MOL0     H16844   6.642   4.504   1.723 -0.8173 -1.7698  1.0840
  125MOL0     H16845   6.560   4.586   2.009 -0.1985 -0.2414  1.6341
  125MOL0     H16846   6.617   4.438   1.938  0.3065  0.0072 -2.1610
  125MOL0     H16847   6.366   4.583   1.864  2.2082  0.2989 -1.5387
  125MOL0     H16848   6.408   4.425   1.796 -0.5078 -1.3372 -0.0019
  125MOL0     H16849   6.314   4.503   2.079 -1.6998 -1.6256  0.7318
  125MOL0     H16850   6.401   4.347   2.069 -2.8968 -1.8026  0.3958
  125MOL0     H16851   6.155   4.418   1.910 -0.2851  2.0324  2.3759
  125MOL0     H16852   6.236   4.263   1.903  1.1211  0.0496  0.4730
  125MOL0     H16853   6.189   4.266   2.169  1.5642  2.5833 -0.9917
  125MOL0     H16854   6.095   4.192   2.041  0.1403  0.7601 -3.4327
  125MOL0     H16855   5.926   4.384   2.052  0.7854  1.2674  0.0224
  125MOL0     H16856   6.033   4.466   2.165 -0.0888 -0.1957 -1.1045
  125MOL0     H16857   7.055   4.557   1.587 -0.4696 -1.7223  1.1543
  125MOL0     H16858   7.278   4.635   1.609  2.9539  2.5741  0.3870
  125MOL0     H16859   7.584   5.143   1.815  1.6036  1.2800  0.7285
  125MOL0     H16860   7.813   5.154   1.781  1.0854  0.3508  2.1207
  125MOL0     H16861   7.104   5.089   1.618  0.4966  3.8048  1.8985
  125MOL0     H16862   6.884   4.955   1.683  0.1801  0.0804 -0.4114
  125MOL0     H16863   6.313   5.172   1.752  1.1978  0.6276 -1.0052
  125MOL0     H16864   6.111   5.035   1.790 -0.1991 -0.7542 -0.0475
  125MOL0     H16865   6.053   4.663   1.567  1.0054  1.2317  0.3762
  125MOL0     H16866   6.052   4.596   1.733 -2.5283  0.7677  2.8966
  125MOL0     H16867   5.869   4.568   1.595 -1.0742  0.0166  0.2077
  125MOL0     H16868   5.833   4.737   1.591 -0.4483 -0.0658  0.6689
  125MOL0     H16869   5.845   4.553   1.852  0.2629 -2.2343 -3.5632
  125MOL0     H16870   5.699   4.597   1.762 -0.0979  1.4095 -0.9255
  125MOL0     H16871   5.802   4.853   1.800  0.4015 -0.3360  0.4581
  125MOL0     H16872   5.849   4.794   1.948  1.9347  1.8819 -1.6951
  125MOL0     H16873   5.419   4.814   1.941  0.2936 -1.2718  1.4723
  125MOL0     H16874   6.280   4.701   1.588  0.5413 -0.5934  2.1133
  125MOL0     H16875   6.474   4.837   1.532  1.6070 -0.1847  1.4593
  126MOL0     O16876   5.500   4.885   3.579  0.0054  0.1729  0.1742
  126MOL0     C16877   5.515   4.767   3.539 -0.7390 -0.3609  0.1261
  126MOL0     O16878   5.413   4.673   3.521  0.0928  0.3049  0.2078
  126MOL0     C16879   5.282   4.708   3.532 -0.0224 -0.3375  0.2409
  126MOL0     C16880   5.184   4.616   3.493  0.1944  0.1378 -0.3246
  126MOL0     C16881   5.046   4.642   3.484  0.1231  0.0193 -0.0282
  126MOL0     C16882   4.998   4.766   3.527 -0.4918 -0.6174 -0.6908
  126MOL0     O16883   4.862   4.787   3.535  0.2798  0.3693 -0.3024
  126MOL0     C16884   4.819   4.922   3.545 -0.3772  0.0512 -0.4154
  126MOL0     C16885   4.666   4.930   3.525  0.5168 -0.3198 -0.4439
  126MOL0     C16886   4.618   4.870   3.396 -0.1453  0.4406  0.0360
  126MOL0     C16887   4.471   4.884   3.386  0.6769  0.5616 -0.1860
  126MOL0     C16888   4.413   4.792   3.276 -0.1028  0.2595 -0.4848
  126MOL0     C16889   4.261   4.840   3.261  0.4055 -0.0246  0.1684
  126MOL0     C16890   4.204   4.780   3.135  0.1382  0.1427  1.2026
  126MOL0     C16891   4.111   4.660   3.169  0.6986  1.0454  1.0160
  126MOL0     N16892   4.005   4.632   3.059 -0.3003  1.0856  0.4220
  126MOL0     C16893   4.012   4.524   2.979  0.5355  0.5636 -0.0652
  126MOL0     C16894   3.889   4.513   2.928  0.0648 -0.2254 -0.4538
  126MOL0     C16895   3.868   4.421   2.820 -0.4898  0.1099  0.5013
  126MOL0     C16896   3.949   4.435   2.687 -0.4746 -0.5164 -0.6451
  126MOL0     C16897   3.902   4.352   2.567  0.3587 -0.0921  0.1495
  126MOL0     C16898   3.846   4.205   2.603 -0.2263 -0.2981  0.6394
  126MOL0     O16899   3.848   4.126   2.482 -0.4664  0.0846 -0.1935
  126MOL0     C16900   3.757   4.022   2.478  0.5244  0.4603  0.3740
  126MOL0     C16901   3.689   3.956   2.581  0.2703 -0.3770 -0.0570
  126MOL0     C16902   3.582   3.868   2.550 -0.4595 -0.0409  0.2590
  126MOL0     C16903   3.505   3.811   2.664  0.1270 -0.5682  0.6084
  126MOL0     C16904   3.566   3.828   2.412  0.2310  0.3575 -0.6120
  126MOL0     C16905   3.463   3.724   2.373  0.4873 -0.8336  0.2657
  126MOL0     O16906   3.504   3.620   2.301  0.7824 -0.2831 -0.6412
  126MOL0     C16907   3.417   3.518   2.281 -0.4546 -0.1477  0.1372
  126MOL0     C16908   3.359   3.440   2.381  0.0459 -0.2765 -0.6153
  126MOL0     C16909   3.284   3.323   2.335  0.0991  0.0239 -0.4616
  126MOL0     C16910   3.253   3.300   2.204 -0.2496  0.9841 -0.4087
  126MOL0     O16911   3.159   3.208   2.164  0.4683  0.8991 -0.6289
  126MOL0     C16912   3.054   3.213   2.255  0.6696 -0.2522 -0.1599
  126MOL0     C16913   2.942   3.166   2.163  0.2124 -0.0352  0.3403
  126MOL0     C16914   2.822   3.122   2.254 -0.0732  0.4571  0.3373
  126MOL0     C16915   2.723   3.245   2.262 -0.1482 -0.4928 -0.6777
  126MOL0     C16916   2.607   3.207   2.361 -0.2164  0.0499 -0.5478
  126MOL0     C16917   2.535   3.330   2.409 -0.4696 -0.5138  0.6214
  126MOL0     C16918   2.464   3.309   2.536 -0.3742 -0.2924 -0.5340
  126MOL0     C16919   2.413   3.439   2.602  0.2842  0.3379  0.3234
  126MOL0    Cl16920   2.276   3.415   2.717 -0.1233  0.0131  0.1374
  126MOL0     C16921   3.305   3.387   2.110  0.4380 -0.0407 -0.5686
  126MOL0     C16922   3.392   3.487   2.145  0.4953 -0.0565  0.2126
  126MOL0     O16923   3.345   3.742   2.407 -0.0754 -0.3120 -0.2399
  126MOL0     C16924   3.648   3.877   2.312  0.7444  0.1952 -0.4599
  126MOL0     C16925   3.727   3.985   2.343  0.5718  0.0831 -0.3060
  126MOL0     N16926   3.806   4.607   2.984  0.0799  0.1587  0.2741
  126MOL0     N16927   3.873   4.669   3.065 -0.9774 -0.0185  0.8435
  126MOL0     C16928   5.095   4.864   3.573  0.4534  0.2022  0.1423
  126MOL0     C16929   5.229   4.834   3.571  0.3534  1.2119  0.7895
  126MOL0     C16930   5.653   4.729   3.507  0.5552 -0.4827  0.4601
  126MOL0     C16931   5.765   4.808   3.515 -0.3675 -0.0028  0.6388
  126MOL0     C16932   5.891   4.768   3.464 -0.6112 -0.3263 -0.7573
  126MOL0     C16933   5.904   4.638   3.423  0.6723  0.3507 -0.0696
  126MOL0     O16934   6.023   4.587   3.378  0.6326 -0.0766 -0.1406
  126MOL0     C16935   6.107   4.521   3.473  0.1446  0.6807 -0.4400
  126MOL0     C16936   6.250   4.582   3.463 -0.6834  0.7926  0.3952
  126MOL0     C16937   6.322   4.515   3.579 -0.1546  0.0371 -0.2275
  126MOL0     C16938   6.467   4.574   3.602 -0.6440  0.2573 -0.0419
  126MOL0     C16939   6.566   4.540   3.495 -0.3590 -0.4723  0.1354
  126MOL0     C16940   6.659   4.513   3.423  0.6871 -0.6209  0.3449
  126MOL0     C16941   5.796   4.548   3.441  1.1243 -0.1681  0.4936
  126MOL0     C16942   5.669   4.589   3.477 -0.4011 -0.3606 -0.8470
  126MOL0     H16943   5.223   4.517   3.470  4.0572  1.1505  1.0312
  126MOL0     H16944   4.987   4.556   3.451  0.9781 -1.1845  1.4715
  126MOL0     H16945   4.852   4.966   3.639  0.5715 -0.2489 -0.5942
  126MOL0     H16946   4.865   4.985   3.468  1.2949  1.1109  1.3763
  126MOL0     H16947   4.617   4.869   3.602 -1.2882  2.2505  0.5748
  126MOL0     H16948   4.641   5.036   3.523  2.4840  0.1736 -1.8842
  126MOL0     H16949   4.666   4.923   3.312  0.1728  2.1104  1.2126
  126MOL0     H16950   4.638   4.763   3.394  1.5241  0.6126 -4.1828
  126MOL0     H16951   4.424   4.856   3.481  1.3621 -1.7488 -0.4751
  126MOL0     H16952   4.455   4.991   3.366 -1.5815  0.3728  0.3872
  126MOL0     H16953   4.464   4.807   3.181  3.9994 -2.2968  1.0020
  126MOL0     H16954   4.425   4.687   3.304 -0.7549  0.3780  0.2697
  126MOL0     H16955   4.207   4.810   3.351  0.3228 -2.0171 -0.5031
  126MOL0     H16956   4.252   4.949   3.251  0.9363 -0.2041 -4.1672
  126MOL0     H16957   4.159   4.870   3.092  1.5139  0.9640  1.4016
  126MOL0     H16958   4.282   4.754   3.062  0.8965 -2.7327  2.8654
  126MOL0     H16959   4.056   4.679   3.261 -0.5738 -1.5117  0.8675
  126MOL0     H16960   4.169   4.571   3.195 -0.6199 -0.2801 -0.3325
  126MOL0     H16961   4.095   4.459   2.954 -2.6967 -3.4643 -1.5459
  126MOL0     H16962   3.881   4.323   2.867  0.5647  0.4953  1.0378
  126MOL0     H16963   3.762   4.427   2.793 -0.1076  2.1306 -0.8229
  126MOL0     H16964   4.050   4.398   2.706 -0.6342 -2.0492 -2.5021
  126MOL0     H16965   3.956   4.540   2.658 -1.7668 -0.8816 -2.4676
  126MOL0     H16966   3.994   4.345   2.507  1.3469  0.4357  1.5444
  126MOL0     H16967   3.828   4.405   2.506  2.9577 -1.3555 -4.6228
  126MOL0     H16968   3.745   4.209   2.644 -0.8548 -0.5045 -0.8402
  126MOL0     H16969   3.914   4.160   2.677 -1.5055 -1.0136  1.4050
  126MOL0     H16970   3.715   3.984   2.683  1.4495 -0.2546 -0.3809
  126MOL0     H16971   3.457   3.718   2.632  0.9160 -0.4364 -1.0633
  126MOL0     H16972   3.566   3.792   2.753 -0.9731  0.3937  1.6004
  126MOL0     H16973   3.427   3.884   2.687  0.3216 -0.2487  0.2622
  126MOL0     H16974   3.380   3.467   2.484 -1.4670  2.6761 -0.9782
  126MOL0     H16975   3.259   3.259   2.419 -1.4862  2.4767  1.0582
  126MOL0     H16976   3.072   3.145   2.338 -0.9902  0.9755  1.2784
  126MOL0     H16977   3.029   3.313   2.293  1.3599 -0.7957  1.8485
  126MOL0     H16978   2.908   3.247   2.098  0.3085 -0.9504 -0.8690
  126MOL0     H16979   2.977   3.078   2.109 -1.0450 -0.1498 -0.3236
  126MOL0     H16980   2.864   3.103   2.353  1.5918 -1.7395 -0.6911
  126MOL0     H16981   2.783   3.025   2.221  0.5706  0.9240 -2.0035
  126MOL0     H16982   2.775   3.337   2.291 -1.4513 -0.2404  1.0201
  126MOL0     H16983   2.682   3.271   2.164  0.3414 -0.4022 -0.8606
  126MOL0     H16984   2.657   3.155   2.443  0.3694 -0.0675 -0.9732
  126MOL0     H16985   2.544   3.135   2.308  0.5833  0.1166 -1.6438
  126MOL0     H16986   2.616   3.403   2.413  0.3328 -1.2657 -1.0050
  126MOL0     H16987   2.464   3.371   2.336 -1.5155  0.1734  1.9835
  126MOL0     H16988   2.509   3.253   2.618 -4.3461  1.5575  3.3320
  126MOL0     H16989   2.373   3.257   2.504 -0.0134 -0.4550 -1.3046
  126MOL0     H16990   2.366   3.511   2.534 -0.1898  3.1114  3.3380
  126MOL0     H16991   2.485   3.509   2.646  0.8478  1.0709 -1.6621
  126MOL0     H16992   3.285   3.368   2.005 -0.0702  2.6536 -1.0294
  126MOL0     H16993   3.443   3.546   2.070 -0.0641  0.5204  0.2758
  126MOL0     H16994   3.642   3.849   2.207  4.6460  0.1804 -0.8607
  126MOL0     H16995   3.760   4.045   2.259 -2.6118  3.6022  0.6474
  126MOL0     H16996   5.065   4.964   3.602 -0.0604 -0.1187  0.7446
  126MOL0     H16997   5.275   4.923   3.614 -4.2413  2.9729  2.7372
  126MOL0     H16998   5.763   4.916   3.528 -1.0257  0.2094 -0.9633
  126MOL0     H16999   5.980   4.831   3.457 -0.2118 -0.8533 -0.4851
  126MOL0     H17000   6.062   4.526   3.572 -0.9146  0.3581 -0.8811
  126MOL0     H17001   6.115   4.414   3.450  2.9711  0.6380  0.4514
  126MOL0     H17002   6.251   4.690   3.474  1.2553  0.8981 -0.4091
  126MOL0     H17003   6.299   4.564   3.367  0.0846  0.9151  0.7537
  126MOL0     H17004   6.335   4.407   3.568 -0.7283  0.1159 -1.9952
  126MOL0     H17005   6.263   4.519   3.671 -1.3056 -2.4089 -0.7764
  126MOL0     H17006   6.501   4.514   3.687  1.0211  2.2565  0.8074
  126MOL0     H17007   6.473   4.679   3.634 -0.9431 -0.0350  1.0321
  126MOL0     H17008   6.750   4.498   3.368  1.7016  4.5784  0.0683
  126MOL0     H17009   5.812   4.446   3.406 -0.2168  0.8300 -3.6666
  126MOL0     H17010   5.580   4.527   3.469 -0.9090  0.2086  0.1990
  127MOL0     O17011   6.709   7.990   9.084  0.3633 -0.0886 -0.0993
  127MOL0     C17012   6.782   8.078   9.034 -0.1328  1.0855  0.0590
  127MOL0     O17013   6.804   8.193   9.087 -0.0841  0.2860  0.6299
  127MOL0     C17014   6.720   8.249   9.177 -0.4647  0.1588 -0.0422
  127MOL0     C17015   6.768   8.298   9.300  0.0574 -0.4062  1.1351
  127MOL0     C17016   6.677   8.350   9.389 -1.2364  0.3224 -0.2385
  127MOL0     C17017   6.545   8.347   9.370  0.6885 -0.4538  0.4737
  127MOL0     O17018   6.471   8.408   9.466 -0.0698  0.2243 -1.0048
  127MOL0     C17019   6.327   8.430   9.453  0.0676  0.2576  0.4372
  127MOL0     C17020   6.265   8.287   9.477 -0.8665  0.4596  0.1497
  127MOL0     C17021   6.110   8.288   9.459 -0.3246 -0.2364 -0.2288
  127MOL0     C17022   6.052   8.157   9.523  0.0534 -0.9025 -0.4878
  127MOL0     C17023   5.907   8.136   9.507  0.7822  0.0589 -0.2977
  127MOL0     C17024   5.862   7.984   9.542 -0.2877  0.3141  0.3490
  127MOL0     C17025   5.853   7.969   9.699 -0.2941  0.3982  0.8123
  127MOL0     C17026   5.723   8.022   9.754 -0.0239 -1.2268  0.8573
  127MOL0     N17027   5.612   7.937   9.708  0.4465 -0.9629  0.0778
  127MOL0     C17028   5.528   7.970   9.596 -0.5887 -0.5707 -0.3127
  127MOL0     C17029   5.424   7.886   9.608 -0.4014  0.0448  1.0226
  127MOL0     C17030   5.314   7.867   9.510 -0.7900 -0.2389  0.2341
  127MOL0     C17031   5.347   7.756   9.405  0.3528  0.1946 -0.7381
  127MOL0     C17032   5.235   7.667   9.389  0.5029  0.2645  0.3933
  127MOL0     C17033   5.124   7.712   9.291 -0.1939 -0.0990 -0.1827
  127MOL0     O17034   5.088   7.844   9.320 -0.0406 -0.8979 -0.6637
  127MOL0     C17035   4.965   7.888   9.283  1.2758  1.0602  0.1226
  127MOL0     C17036   4.915   7.990   9.344  0.5417 -0.0937  0.9860
  127MOL0     C17037   4.793   8.047   9.318 -0.0968 -0.1890  0.5679
  127MOL0     C17038   4.745   8.158   9.408  0.3048 -0.7146  0.7239
  127MOL0     C17039   4.712   7.989   9.210 -0.0947  0.2713  0.2252
  127MOL0     C17040   4.578   8.052   9.154 -0.4159 -0.1764 -0.5172
  127MOL0     O17041   4.516   8.151   9.232 -0.0254  0.1952 -0.4698
  127MOL0     C17042   4.382   8.179   9.227  0.0061  0.6173 -0.6012
  127MOL0     C17043   4.286   8.083   9.270  0.2159  0.0720  0.7672
  127MOL0     C17044   4.145   8.115   9.254 -0.5841 -0.4022 -0.1840
  127MOL0     C17045   4.108   8.240   9.197 -0.0467  0.3471  0.3402
  127MOL0     O17046   3.970   8.263   9.198 -0.1937  0.0325  0.6142
  127MOL0     C17047   3.921   8.363   9.111 -0.2447 -0.4554 -0.1833
  127MOL0     C17048   3.773   8.357   9.112  0.1644 -0.7480  1.0518
  127MOL0     C17049   3.717   8.359   8.962  0.2712  0.1961  0.0600
  127MOL0     C17050   3.566   8.398   8.967 -0.7206  0.4367 -0.5128
  127MOL0     C17051   3.528   8.432   8.817 -0.2958 -0.3990 -1.0081
  127MOL0     C17052   3.380   8.451   8.782 -0.0010 -0.6029  0.3106
  127MOL0     C17053   3.370   8.527   8.654  0.2085 -0.2685 -0.6801
  127MOL0     C17054   3.218   8.556   8.629  0.3830  0.0383  0.8837
  127MOL0    Cl17055   3.182   8.642   8.474 -0.2720 -0.5912 -0.4397
  127MOL0     C17056   4.203   8.333   9.154  0.0708  0.6463 -0.0682
  127MOL0     C17057   4.340   8.301   9.166 -0.3089 -0.3152  0.5999
  127MOL0     O17058   4.519   7.999   9.059  0.5673  0.0161  0.2500
  127MOL0     C17059   4.773   7.890   9.133 -1.4714 -0.3742 -0.2092
  127MOL0     C17060   4.892   7.834   9.175  0.0384  0.5069  0.1068
  127MOL0     N17061   5.438   7.812   9.720 -0.5301  0.3694  0.1692
  127MOL0     N17062   5.550   7.843   9.778 -0.6551 -0.2292 -0.1820
  127MOL0     C17063   6.490   8.314   9.244 -0.0223 -0.2300 -0.0026
  127MOL0     C17064   6.575   8.258   9.154  0.2132 -0.1961  0.3687
  127MOL0     C17065   6.868   8.048   8.914  0.8136 -0.2961 -0.1347
  127MOL0     C17066   6.957   8.155   8.872 -0.6397 -0.5962 -0.1622
  127MOL0     C17067   7.030   8.147   8.748  0.9369 -0.1604  0.9330
  127MOL0     C17068   7.024   8.017   8.686  0.1152 -1.2449 -0.2412
  127MOL0     O17069   7.099   7.988   8.573  0.0355  0.0753  0.3337
  127MOL0     C17070   7.241   8.024   8.590 -0.6446  0.0672  0.1960
  127MOL0     C17071   7.300   8.133   8.492  0.4064 -0.2878  0.4191
  127MOL0     C17072   7.280   8.086   8.353  0.3102  0.2372  0.5953
  127MOL0     C17073   7.342   8.165   8.231  0.4868 -0.9394 -0.1165
  127MOL0     C17074   7.481   8.185   8.254  0.1691 -0.8260  0.9473
  127MOL0     C17075   7.583   8.238   8.293 -0.0156 -0.0186 -0.0446
  127MOL0     C17076   6.949   7.909   8.738 -0.7945 -0.4422  0.1228
  127MOL0     C17077   6.865   7.928   8.849 -0.3042  0.5190 -0.5417
  127MOL0     H17078   6.873   8.285   9.322  0.7018  1.1951 -0.6797
  127MOL0     H17079   6.718   8.390   9.481  2.1637 -0.4454 -1.3101
  127MOL0     H17080   6.294   8.494   9.535  1.6960 -0.9819  2.1166
  127MOL0     H17081   6.305   8.463   9.351  1.0067 -1.9873 -0.5559
  127MOL0     H17082   6.312   8.212   9.412 -0.9731 -0.4821  1.1201
  127MOL0     H17083   6.295   8.249   9.575  0.9838  0.2901 -0.4498
  127MOL0     H17084   6.072   8.376   9.511 -0.9228 -0.4024 -0.3766
  127MOL0     H17085   6.075   8.299   9.356 -4.9495  4.4797  1.3770
  127MOL0     H17086   6.117   8.084   9.472  0.6791  0.3674 -1.5729
  127MOL0     H17087   6.077   8.164   9.629  3.0380 -1.2457 -1.0592
  127MOL0     H17088   5.852   8.207   9.571 -0.2347 -1.4246  0.5452
  127MOL0     H17089   5.871   8.149   9.405  0.4483 -2.0274 -0.4895
  127MOL0     H17090   5.772   7.965   9.482  1.1083 -1.3824 -1.3370
  127MOL0     H17091   5.944   7.917   9.517  1.5424  2.0523  1.4358
  127MOL0     H17092   5.866   7.863   9.720  1.9478  0.2825 -0.7776
  127MOL0     H17093   5.937   8.019   9.750  3.0590 -0.1589 -3.5332
  127MOL0     H17094   5.716   8.127   9.724  3.1789 -1.2870 -0.4854
  127MOL0     H17095   5.722   8.016   9.864 -0.8745 -4.0127  0.7704
  127MOL0     H17096   5.531   8.053   9.525 -1.4166  0.6673  1.0310
  127MOL0     H17097   5.228   7.835   9.570 -0.7745 -2.2414 -0.7394
  127MOL0     H17098   5.290   7.954   9.448  1.3115 -0.3376 -0.7889
  127MOL0     H17099   5.444   7.711   9.425  2.8420  4.1891 -2.4805
  127MOL0     H17100   5.369   7.794   9.305  4.5710  0.0920 -0.0296
  127MOL0     H17101   5.183   7.645   9.483  0.1611  0.7842  0.3319
  127MOL0     H17102   5.262   7.565   9.362 -1.2425 -0.8359  2.4309
  127MOL0     H17103   5.044   7.636   9.290 -1.4014  1.1354 -0.2406
  127MOL0     H17104   5.165   7.719   9.190 -2.9782  3.2049 -1.2682
  127MOL0     H17105   4.959   8.029   9.435 -0.7319  1.8311  0.8222
  127MOL0     H17106   4.655   8.128   9.464  1.6406  0.2043  3.5415
  127MOL0     H17107   4.808   8.176   9.496  2.6225  0.8840 -1.1438
  127MOL0     H17108   4.733   8.249   9.349  0.8591 -1.8318 -1.2067
  127MOL0     H17109   4.313   7.987   9.312  2.3303  0.1665 -0.2579
  127MOL0     H17110   4.058   8.056   9.281  0.4498 -0.5154  3.4597
  127MOL0     H17111   3.948   8.464   9.145 -0.0740 -0.7962  0.7227
  127MOL0     H17112   3.951   8.356   9.007 -4.0339  3.6382 -1.8874
  127MOL0     H17113   3.740   8.257   9.144 -2.4215  0.2041  1.5752
  127MOL0     H17114   3.732   8.433   9.179  0.3756 -0.9701  1.4404
  127MOL0     H17115   3.724   8.260   8.917  0.5194 -0.0199  0.5577
  127MOL0     H17116   3.767   8.432   8.897 -3.2752  1.7238 -1.1940
  127MOL0     H17117   3.506   8.312   9.000  1.3622 -0.4133  1.2925
  127MOL0     H17118   3.545   8.476   9.040  0.9525 -0.2576  0.7948
  127MOL0     H17119   3.566   8.349   8.757  1.6619 -2.1535  2.3381
  127MOL0     H17120   3.585   8.521   8.790 -2.0206  0.3955 -2.2076
  127MOL0     H17121   3.330   8.354   8.772 -0.9216  0.1165 -3.8299
  127MOL0     H17122   3.333   8.512   8.860  1.8732  2.3170 -0.6652
  127MOL0     H17123   3.410   8.477   8.565 -1.2845  2.2431 -2.9413
  127MOL0     H17124   3.431   8.618   8.653  0.7498 -0.6189 -1.6934
  127MOL0     H17125   3.173   8.610   8.713 -1.8222 -0.1792 -0.0879
  127MOL0     H17126   3.167   8.459   8.629 -0.9231  0.6929  2.0370
  127MOL0     H17127   4.181   8.433   9.116  1.3617  0.8107 -0.4174
  127MOL0     H17128   4.418   8.368   9.132 -1.6514  1.8362  1.5808
  127MOL0     H17129   4.722   7.835   9.054  1.4561 -1.6102 -1.4076
  127MOL0     H17130   4.922   7.744   9.123 -0.7300 -0.7923  1.8289
  127MOL0     H17131   6.386   8.331   9.217 -0.2957 -0.2376  1.0129
  127MOL0     H17132   6.543   8.235   9.052  1.2704  1.0579 -0.2652
  127MOL0     H17133   6.957   8.255   8.915 -2.2698 -0.6160 -0.0434
  127MOL0     H17134   7.096   8.230   8.726  2.9268 -1.5295  1.4728
  127MOL0     H17135   7.270   8.041   8.694  0.0846 -0.1177  0.0295
  127MOL0     H17136   7.300   7.936   8.563 -2.5139 -1.7170  1.5908
  127MOL0     H17137   7.406   8.138   8.519  0.1049 -1.0180  1.8605
  127MOL0     H17138   7.255   8.228   8.523 -0.8242 -0.8526  0.3949
  127MOL0     H17139   7.172   8.082   8.338  0.5746 -1.8197 -1.1587
  127MOL0     H17140   7.329   7.988   8.349  0.2122  0.2288 -1.8701
  127MOL0     H17141   7.294   8.262   8.216  1.3507 -0.6589 -1.2356
  127MOL0     H17142   7.330   8.104   8.141  0.2863 -1.1035  0.0233
  127MOL0     H17143   7.681   8.270   8.325 -0.8931  1.1442  1.6144
  127MOL0     H17144   6.959   7.816   8.682  1.2233 -1.9636  2.7650
  127MOL0     H17145   6.800   7.845   8.878  0.7458 -0.1591 -0.0782
  128MOL0     O17146   0.333  10.413   2.178 -0.3246  1.0170  0.6384
  128MOL0     C17147   0.324  10.499   2.265 -0.7014 -0.3631  0.7440
  128MOL0     O17148   0.227  10.507   2.361  0.4432  0.5211  0.6646
  128MOL0     C17149   0.109  10.440   2.340 -0.3226 -0.3102 -1.0573
  128MOL0     C17150   0.103  10.297   2.347  0.2705 -0.5618 -0.5709
  128MOL0     C17151  -0.019  10.240   2.309  0.0660 -0.3495 -0.0274
  128MOL0     C17152  -0.132  10.315   2.276  0.2809 -0.2375  0.0435
  128MOL0     O17153  -0.249  10.250   2.245  0.1920 -0.4440 -0.4008
  128MOL0     C17154  -0.236  10.142   2.152  0.3381  0.4045  0.3532
  128MOL0     C17155  -0.369  10.100   2.114 -0.5094 -0.1868 -0.8549
  128MOL0     C17156  -0.367   9.978   2.017  0.9990  0.3326  0.5475
  128MOL0     C17157  -0.506   9.936   1.989 -0.5240 -0.2175 -0.0630
  128MOL0     C17158  -0.512   9.813   1.894  0.6952  0.0331 -0.4141
  128MOL0     C17159  -0.647   9.738   1.910  0.5573  0.8127 -0.1514
  128MOL0     C17160  -0.629   9.607   1.820  0.1803 -0.3569 -0.0816
  128MOL0     C17161  -0.755   9.520   1.823  1.1418 -0.6564 -0.2205
  128MOL0     N17162  -0.770   9.420   1.716 -0.6762 -0.1775 -0.2742
  128MOL0     C17163  -0.711   9.423   1.594  0.4313 -1.2315 -0.1728
  128MOL0     C17164  -0.778   9.328   1.526  0.1614 -0.2586  0.3175
  128MOL0     C17165  -0.742   9.288   1.388  0.2399  0.0998  0.4130
  128MOL0     C17166  -0.818   9.361   1.282 -0.9709 -0.5718  0.7215
  128MOL0     C17167  -0.753   9.368   1.147  0.2192  0.7376 -0.1385
  128MOL0     C17168  -0.633   9.463   1.133  0.1969  0.8405  0.2422
  128MOL0     O17169  -0.555   9.415   1.026  0.0212  0.6502  0.0187
  128MOL0     C17170  -0.469   9.494   0.964 -0.2799 -0.2510  0.2675
  128MOL0     C17171  -0.423   9.454   0.837 -0.4094 -0.3253 -0.2233
  128MOL0     C17172  -0.335   9.532   0.760 -0.2215 -0.3634  0.3349
  128MOL0     C17173  -0.337   9.519   0.606 -0.3213 -0.2400 -0.5068
  128MOL0     C17174  -0.249   9.623   0.832  0.2495  0.0762  0.2527
  128MOL0     C17175  -0.135   9.693   0.778 -0.2886 -0.6053  0.7696
  128MOL0     O17176  -0.095   9.653   0.650 -0.6512  0.3971 -0.1643
  128MOL0     C17177   0.011   9.708   0.579  1.5098  0.6184  0.2250
  128MOL0     C17178   0.079   9.630   0.491 -0.3804 -0.2312  0.6985
  128MOL0     C17179   0.181   9.683   0.411  0.0613  0.3297 -0.6949
  128MOL0     C17180   0.204   9.821   0.410 -0.0780  0.6122 -0.7639
  128MOL0     O17181   0.311   9.873   0.339  0.4285  0.7692  0.1077
  128MOL0     C17182   0.436   9.887   0.410  0.4176  0.5284  0.2153
  128MOL0     C17183   0.541   9.845   0.314  0.2942 -0.0712  0.0466
  128MOL0     C17184   0.681   9.865   0.370 -0.0250 -0.4368  0.8651
  128MOL0     C17185   0.732  10.010   0.381 -1.0491 -1.0160 -0.2663
  128MOL0     C17186   0.872  10.012   0.446  0.2498  0.5528 -0.1591
  128MOL0     C17187   0.978  10.049   0.343 -0.0514 -0.2572  0.3242
  128MOL0     C17188   1.101  10.109   0.412 -0.3433  0.1008 -0.5255
  128MOL0     C17189   1.089  10.262   0.420  0.2036 -0.0017  0.4748
  128MOL0    Cl17190   0.980  10.311   0.573 -0.3569 -0.5571 -0.3333
  128MOL0     C17191   0.136   9.903   0.496  0.3425 -0.0571  0.0649
  128MOL0     C17192   0.040   9.844   0.582 -0.5544 -0.3348  0.1130
  128MOL0     O17193  -0.089   9.784   0.832  0.7319  0.0622 -0.4431
  128MOL0     C17194  -0.304   9.671   0.960 -0.6345  0.0457  0.9389
  128MOL0     C17195  -0.406   9.608   1.023  0.9491 -0.0920  1.2723
  128MOL0     N17196  -0.869   9.265   1.611 -0.5136  1.0499 -0.8485
  128MOL0     N17197  -0.858   9.318   1.735 -0.5104 -0.2242  0.2707
  128MOL0     C17198  -0.121  10.452   2.257 -0.0350 -0.4652  0.5184
  128MOL0     C17199   0.004  10.516   2.283  0.3427  1.3548 -0.0002
  128MOL0     C17200   0.439  10.586   2.276  0.4272  0.6671 -1.2605
  128MOL0     C17201   0.559  10.545   2.217  0.6622 -0.4901 -0.6127
  128MOL0     C17202   0.674  10.618   2.251  0.5268 -0.3761  0.6117
  128MOL0     C17203   0.664  10.750   2.309  0.4578  0.6940  0.0921
  128MOL0     O17204   0.770  10.834   2.330  0.4482 -0.7971 -0.3474
  128MOL0     C17205   0.896  10.792   2.286  0.4189  0.8463  0.2611
  128MOL0     C17206   1.004  10.899   2.327 -0.5351 -0.4261  0.2678
  128MOL0     C17207   1.087  10.863   2.455 -0.1436  0.6037 -0.4379
  128MOL0     C17208   1.119  10.984   2.546 -0.5096  0.4681  0.7479
  128MOL0     C17209   1.000  11.050   2.579  0.5847 -0.2590  0.8459
  128MOL0     C17210   0.918  11.137   2.590  1.0513 -0.6129 -0.3694
  128MOL0     C17211   0.538  10.788   2.345  1.5162  0.8389 -0.3979
  128MOL0     C17212   0.424  10.709   2.334 -0.9426  0.0526  0.3759
  128MOL0     H17213   0.195  10.243   2.363  1.8761  1.8254 -1.1713
  128MOL0     H17214  -0.026  10.134   2.331  0.7403 -0.1633  1.1358
  128MOL0     H17215  -0.194  10.169   2.055 -2.2590 -2.6487 -1.8569
  128MOL0     H17216  -0.195  10.048   2.191  0.5601 -0.4194 -1.7260
  128MOL0     H17217  -0.428  10.083   2.205 -1.5559  0.9708 -1.2919
  128MOL0     H17218  -0.415  10.187   2.067 -2.4236 -0.8963 -0.4158
  128MOL0     H17219  -0.315   9.996   1.922  1.3125  1.7741  0.9616
  128MOL0     H17220  -0.312   9.905   2.076  0.7883 -1.3190 -1.2183
  128MOL0     H17221  -0.553   9.911   2.084 -0.6133  4.9487  1.5762
  128MOL0     H17222  -0.564  10.019   1.947  0.3756  1.5116  1.9532
  128MOL0     H17223  -0.491   9.829   1.788 -1.6970 -1.0461 -1.1200
  128MOL0     H17224  -0.426   9.749   1.914  1.6526  1.3661 -0.0763
  128MOL0     H17225  -0.675   9.706   2.010  1.4580 -1.4815 -0.5859
  128MOL0     H17226  -0.721   9.803   1.861  0.6495 -0.5482 -2.2614
  128MOL0     H17227  -0.599   9.642   1.720 -1.0270  0.5636 -0.1512
  128MOL0     H17228  -0.550   9.539   1.852  0.1422 -0.1236  0.5222
  128MOL0     H17229  -0.839   9.589   1.835 -0.3208 -2.1777 -1.1847
  128MOL0     H17230  -0.761   9.460   1.915 -1.3229  1.2074  0.9797
  128MOL0     H17231  -0.621   9.469   1.553  1.9050 -5.3774 -2.1140
  128MOL0     H17232  -0.634   9.294   1.374  0.6149 -3.9845  0.2082
  128MOL0     H17233  -0.745   9.178   1.390  0.4693  0.1054  1.9326
  128MOL0     H17234  -0.850   9.463   1.305 -1.8459 -0.1495 -2.0603
  128MOL0     H17235  -0.913   9.306   1.281 -0.1650 -2.0220  0.4241
  128MOL0     H17236  -0.829   9.401   1.076 -0.4687 -1.2093 -0.3687
  128MOL0     H17237  -0.722   9.268   1.116  0.2609  1.5738 -3.0899
  128MOL0     H17238  -0.571   9.458   1.223  0.1388  3.3328  0.4818
  128MOL0     H17239  -0.673   9.564   1.118  0.3090  0.9905  0.9340
  128MOL0     H17240  -0.462   9.362   0.794  1.8332 -2.1487  1.3811
  128MOL0     H17241  -0.322   9.611   0.550  2.7606 -0.6510 -0.5410
  128MOL0     H17242  -0.252   9.458   0.574  1.7721  1.7906  0.8841
  128MOL0     H17243  -0.426   9.471   0.564  0.4215  0.0316 -2.4457
  128MOL0     H17244   0.060   9.524   0.478  1.9143 -0.4588 -1.5577
  128MOL0     H17245   0.232   9.602   0.360  1.1196  0.6758 -0.2319
  128MOL0     H17246   0.451   9.987   0.452  1.0552  1.1361 -1.3969
  128MOL0     H17247   0.439   9.814   0.491 -0.5097 -0.9584 -1.0241
  128MOL0     H17248   0.525   9.738   0.294  3.9180 -1.0526  1.4047
  128MOL0     H17249   0.534   9.905   0.224 -2.2464 -3.5276 -2.3352
  128MOL0     H17250   0.744   9.809   0.299  0.5225 -2.0828  2.5748
  128MOL0     H17251   0.698   9.811   0.464 -0.5307 -2.8422 -0.3399
  128MOL0     H17252   0.734  10.058   0.282  2.1613  2.5777  1.2699
  128MOL0     H17253   0.670  10.076   0.441  3.0827  2.1315  1.0519
  128MOL0     H17254   0.881   9.909   0.481 -2.1790 -0.7566 -2.9015
  128MOL0     H17255   0.874  10.086   0.526 -0.7813  2.6711 -1.9950
  128MOL0     H17256   1.008   9.959   0.289  0.3451 -0.9155  1.6007
  128MOL0     H17257   0.934  10.121   0.273  0.9132  1.2257  1.1733
  128MOL0     H17258   1.192  10.099   0.352  0.7089  2.3588  0.5845
  128MOL0     H17259   1.127  10.060   0.506 -0.6963  2.3320  0.7986
  128MOL0     H17260   1.054  10.300   0.323 -1.8323 -1.4719  0.5831
  128MOL0     H17261   1.188  10.307   0.432  0.3883  0.3844 -1.8747
  128MOL0     H17262   0.153  10.010   0.507  1.5263 -0.3485  1.5496
  128MOL0     H17263  -0.010   9.903   0.658 -0.6189 -1.3945  0.9212
  128MOL0     H17264  -0.255   9.757   1.004  1.1302  0.2325 -1.1989
  128MOL0     H17265  -0.428   9.658   1.116  1.2234  0.7725  0.8813
  128MOL0     H17266  -0.197  10.505   2.200 -0.9426 -3.9870 -1.8783
  128MOL0     H17267   0.017  10.622   2.262  2.7986  1.2803  0.8421
  128MOL0     H17268   0.574  10.455   2.158 -0.7039  0.0039 -1.7522
  128MOL0     H17269   0.763  10.585   2.198 -1.4353  0.7767 -3.8355
  128MOL0     H17270   0.919  10.695   2.330  3.8674  1.4764  0.1341
  128MOL0     H17271   0.913  10.778   2.179  2.1202 -1.5612  0.7775
  128MOL0     H17272   0.945  10.991   2.339 -2.4782 -1.2856 -1.9370
  128MOL0     H17273   1.072  10.902   2.241 -0.2124 -1.0511  0.4981
  128MOL0     H17274   1.177  10.806   2.428 -2.2672 -3.0929 -0.4230
  128MOL0     H17275   1.020  10.798   2.513  1.5700 -3.6920 -2.7739
  128MOL0     H17276   1.185  11.056   2.496  1.9587 -0.8931  1.8084
  128MOL0     H17277   1.170  10.958   2.640 -1.2274 -0.7443  0.8078
  128MOL0     H17278   0.856  11.224   2.594  1.1341 -0.5754  0.1324
  128MOL0     H17279   0.527  10.889   2.383  2.6180  0.0457  2.2144
  128MOL0     H17280   0.333  10.754   2.372 -0.5322  0.6288  0.6998
  129MOL0     O17281   2.912   3.506  11.024  0.5319 -0.4542 -0.0772
  129MOL0     C17282   2.909   3.422  11.113 -0.0973 -0.3084 -0.2188
  129MOL0     O17283   2.803   3.341  11.141 -0.6120  0.2803 -0.4908
  129MOL0     C17284   2.688   3.362  11.084 -0.4246 -0.1465 -0.6853
  129MOL0     C17285   2.622   3.484  11.075  0.0083  0.5272 -0.5904
  129MOL0     C17286   2.491   3.493  11.033  0.6944 -0.6344 -0.6961
  129MOL0     C17287   2.418   3.378  11.024 -0.6620 -0.5722  0.2391
  129MOL0     O17288   2.289   3.401  10.991 -0.5349  0.5390  0.3161
  129MOL0     C17289   2.191   3.297  10.974 -0.3883 -0.4621 -0.1633
  129MOL0     C17290   2.049   3.347  11.029 -1.5168  0.3552 -0.0585
  129MOL0     C17291   1.969   3.407  10.923  0.0977 -1.0430  1.2067
  129MOL0     C17292   2.041   3.514  10.827 -0.4483  0.4685 -1.0669
  129MOL0     C17293   1.947   3.579  10.718  1.2996 -0.5633  0.0448
  129MOL0     C17294   2.017   3.644  10.600 -0.0309 -0.8703  0.2078
  129MOL0     C17295   1.926   3.666  10.486 -0.0249  0.8643 -0.0681
  129MOL0     C17296   1.999   3.744  10.385  0.5625 -0.4552  0.6783
  129MOL0     N17297   1.921   3.807  10.281  0.2089 -0.4986  0.5484
  129MOL0     C17298   1.910   3.946  10.261 -0.2282  0.3927 -1.0084
  129MOL0     C17299   1.823   3.956  10.153 -0.5420  0.4346  0.5173
  129MOL0     C17300   1.816   4.086  10.068  0.5536 -0.1256 -0.3702
  129MOL0     C17301   1.678   4.162  10.068 -0.0779  0.4683 -0.2524
  129MOL0     C17302   1.696   4.305  10.011 -0.0605  0.5650  0.6138
  129MOL0     C17303   1.553   4.362  10.002  0.2619 -0.8961 -0.2162
  129MOL0     O17304   1.507   4.368  10.141 -0.5061 -0.2579 -0.0272
  129MOL0     C17305   1.393   4.443  10.176  0.5464  0.3977  0.3785
  129MOL0     C17306   1.287   4.448  10.080  0.2272 -0.9166 -0.6323
  129MOL0     C17307   1.182   4.533  10.111  0.3593  0.1402 -0.1908
  129MOL0     C17308   1.066   4.523  10.010 -0.6151 -0.0269 -0.0069
  129MOL0     C17309   1.172   4.601  10.241  0.0147  0.6328  0.6195
  129MOL0     C17310   1.065   4.705  10.280 -0.1011  0.2080  1.0186
  129MOL0     O17311   1.050   4.736  10.411  0.6625  0.5041  0.4765
  129MOL0     C17312   0.936   4.804  10.442 -0.3426 -0.1556  0.3906
  129MOL0     C17313   0.839   4.738  10.532  0.8546  0.3213 -0.2867
  129MOL0     C17314   0.724   4.809  10.568 -0.3271  0.1858  0.3425
  129MOL0     C17315   0.699   4.940  10.529  0.2713 -0.2843  0.2475
  129MOL0     O17316   0.597   5.016  10.569  0.3021 -0.7358  0.4211
  129MOL0     C17317   0.550   5.001  10.703  0.1461  1.1109  0.4383
  129MOL0     C17318   0.399   4.985  10.703  1.0163 -0.1837 -0.2710
  129MOL0     C17319   0.337   5.124  10.694  0.1029  0.2113 -0.6057
  129MOL0     C17320   0.190   5.108  10.714 -0.6006 -0.1972 -0.2956
  129MOL0     C17321   0.136   5.060  10.580 -0.0512 -0.4516  0.5547
  129MOL0     C17322  -0.012   5.049  10.590 -0.2867 -0.0068  0.4000
  129MOL0     C17323  -0.073   5.018  10.452  0.1848  0.4216  0.6602
  129MOL0     C17324  -0.227   5.046  10.465 -0.5872  0.7195 -0.5901
  129MOL0    Cl17325  -0.314   4.897  10.539  0.0995 -0.5871 -0.1406
  129MOL0     C17326   0.781   4.988  10.426  0.0385 -0.1171  0.4746
  129MOL0     C17327   0.900   4.922  10.387 -0.6053 -0.9144 -0.3750
  129MOL0     O17328   1.002   4.759  10.187 -0.6527  0.8039 -0.3137
  129MOL0     C17329   1.281   4.584  10.333 -0.3894  0.5184 -0.3054
  129MOL0     C17330   1.397   4.509  10.295  1.6886 -0.0370  0.3172
  129MOL0     N17331   1.788   3.830  10.116  1.4774 -0.1496 -0.5491
  129MOL0     N17332   1.842   3.744  10.187 -0.7585 -0.1522  0.1617
  129MOL0     C17333   2.478   3.248  11.045  0.6046  0.4916  0.0307
  129MOL0     C17334   2.610   3.247  11.077  0.5897 -0.5087 -0.1072
  129MOL0     C17335   3.030   3.417  11.200 -0.9146 -0.2417 -0.2685
  129MOL0     C17336   3.156   3.487  11.177 -0.9618  0.2133 -0.3205
  129MOL0     C17337   3.266   3.471  11.262  0.2047  0.6588  0.1259
  129MOL0     C17338   3.248   3.414  11.389 -0.2908 -0.8749 -0.7517
  129MOL0     O17339   3.336   3.425  11.495 -0.3407 -0.5035  0.2208
  129MOL0     C17340   3.454   3.502  11.482 -0.2910  0.3623  0.0934
  129MOL0     C17341   3.425   3.640  11.544 -0.6125 -0.7898 -0.0677
  129MOL0     C17342   3.380   3.616  11.692 -0.2006  0.3895  0.2930
  129MOL0     C17343   3.366   3.752  11.766 -0.4553 -0.4263 -0.6974
  129MOL0     C17344   3.492   3.826  11.789  0.2478 -0.2819  0.5278
  129MOL0     C17345   3.603   3.872  11.794  0.7727  1.1833 -0.4260
  129MOL0     C17346   3.129   3.357  11.413  0.0926 -0.2733  1.2721
  129MOL0     C17347   3.020   3.353  11.323 -0.2642 -0.0791 -0.5938
  129MOL0     H17348   2.676   3.574  11.103  4.4303 -2.7564  2.9872
  129MOL0     H17349   2.444   3.589  11.013  2.5467  0.2330 -1.1759
  129MOL0     H17350   2.184   3.275  10.868  0.0261 -0.7214 -0.1376
  129MOL0     H17351   2.219   3.201  11.018  1.6182 -2.2850 -4.8220
  129MOL0     H17352   1.997   3.264  11.079  2.3548 -1.4326  1.3522
  129MOL0     H17353   2.070   3.424  11.103  1.4492  0.6520 -1.0898
  129MOL0     H17354   1.933   3.326  10.860  2.4045  0.8903 -3.0415
  129MOL0     H17355   1.875   3.453  10.957  1.2681  3.6055 -1.0220
  129MOL0     H17356   2.093   3.582  10.895 -1.1503 -1.3366  1.4419
  129MOL0     H17357   2.125   3.469  10.773  2.0572  1.9538  1.3384
  129MOL0     H17358   1.881   3.504  10.673 -0.9083  0.3999  1.5320
  129MOL0     H17359   1.873   3.642  10.767  1.0142  0.2152 -1.3377
  129MOL0     H17360   2.058   3.740  10.633 -3.0547  0.1750  1.2574
  129MOL0     H17361   2.100   3.579  10.571  0.2509 -0.8102  0.8560
  129MOL0     H17362   1.891   3.573  10.440  0.2971  0.4753  0.4485
  129MOL0     H17363   1.839   3.721  10.524 -1.6962  0.5540 -3.1763
  129MOL0     H17364   2.073   3.683  10.332  1.0822  1.5734 -1.0965
  129MOL0     H17365   2.049   3.822  10.442 -2.4170  1.6246  0.6649
  129MOL0     H17366   1.963   4.028  10.306  0.4753 -0.2985 -0.5487
  129MOL0     H17367   1.895   4.157  10.095 -0.7199  1.0281  0.4305
  129MOL0     H17368   1.830   4.058   9.963 -0.4776  0.7518 -0.7554
  129MOL0     H17369   1.641   4.159  10.171 -0.4176 -2.6856 -0.3671
  129MOL0     H17370   1.604   4.109  10.007 -0.6113  2.0921 -1.0645
  129MOL0     H17371   1.750   4.305   9.915 -0.6907 -1.6889  0.2131
  129MOL0     H17372   1.753   4.350  10.092 -0.0149 -2.6873  2.5228
  129MOL0     H17373   1.481   4.311   9.938 -1.2796  1.7698 -0.7523
  129MOL0     H17374   1.562   4.466   9.968 -1.5221 -0.4221  0.6619
  129MOL0     H17375   1.286   4.395   9.986  0.2609 -0.6494 -0.7840
  129MOL0     H17376   0.972   4.515  10.065 -1.6392  0.3194 -1.6507
  129MOL0     H17377   1.061   4.599   9.932 -0.7707 -1.5950 -1.6024
  129MOL0     H17378   1.075   4.428   9.956 -0.4078  0.4536 -0.8333
  129MOL0     H17379   0.882   4.649  10.577  0.2052 -0.6965 -1.6126
  129MOL0     H17380   0.663   4.758  10.642 -0.3503 -1.4641 -0.7415
  129MOL0     H17381   0.591   4.907  10.741 -0.1727  0.4405 -0.8255
  129MOL0     H17382   0.584   5.082  10.769 -1.0620  0.6235  1.7184
  129MOL0     H17383   0.371   4.904  10.634  1.4765  0.6312 -1.4490
  129MOL0     H17384   0.362   4.945  10.798  1.3651  0.3155  0.0766
  129MOL0     H17385   0.353   5.175  10.598 -0.2638  1.2857 -0.1075
  129MOL0     H17386   0.380   5.187  10.772  0.8586  0.4693 -1.2204
  129MOL0     H17387   0.170   5.033  10.791  0.1048  0.6522  0.7432
  129MOL0     H17388   0.143   5.204  10.736 -3.5177 -1.4481 -0.6041
  129MOL0     H17389   0.169   4.960  10.553  0.8361 -0.0982  0.2888
  129MOL0     H17390   0.161   5.137  10.506 -1.1039  0.6959  1.3415
  129MOL0     H17391  -0.036   4.967  10.658 -0.0068 -0.6951 -0.3114
  129MOL0     H17392  -0.045   5.149  10.619  1.5510  0.0394  2.7006
  129MOL0     H17393  -0.053   4.922  10.404  0.6606  1.1133 -0.5580
  129MOL0     H17394  -0.026   5.095  10.390 -1.1613  0.8232  0.1001
  129MOL0     H17395  -0.260   5.064  10.362  0.9054 -0.2275 -1.2710
  129MOL0     H17396  -0.245   5.134  10.526  0.7367  1.7011 -1.5607
  129MOL0     H17397   0.767   5.083  10.377  0.6169  0.2556  1.0068
  129MOL0     H17398   0.967   4.968  10.315 -0.4440  1.9369  1.4488
  129MOL0     H17399   1.288   4.631  10.430 -0.4500 -0.4051  0.1560
  129MOL0     H17400   1.479   4.496  10.365  1.7464 -0.8111  0.1075
  129MOL0     H17401   2.425   3.154  11.053  1.4330  0.0314  0.2653
  129MOL0     H17402   2.656   3.154  11.111  0.0958  0.0462  2.1893
  129MOL0     H17403   3.159   3.556  11.092 -0.7351  1.5457  0.7333
  129MOL0     H17404   3.349   3.530  11.227 -1.5104  3.1209 -0.0314
  129MOL0     H17405   3.534   3.450  11.535 -0.4647 -1.6903 -1.5165
  129MOL0     H17406   3.500   3.518  11.384 -0.2276  0.1113  0.0814
  129MOL0     H17407   3.339   3.684  11.495  0.0692 -0.9602 -1.4595
  129MOL0     H17408   3.516   3.701  11.535 -1.7604  1.6317  2.8384
  129MOL0     H17409   3.460   3.555  11.734  1.0726  0.2909 -2.0799
  129MOL0     H17410   3.288   3.558  11.698 -0.0288  0.1953  1.2027
  129MOL0     H17411   3.319   3.718  11.859  1.0873 -0.5819  0.0427
  129MOL0     H17412   3.298   3.810  11.702 -0.2548 -1.0285 -1.4857
  129MOL0     H17413   3.705   3.905  11.786  1.0027  0.1904 -2.2326
  129MOL0     H17414   3.125   3.306  11.509  1.1845 -1.5367  0.6782
  129MOL0     H17415   2.931   3.302  11.358  1.0671 -0.3085  2.9078
  130MOL0     O17416  10.211   2.433   7.433 -0.0922  0.0948  0.2403
  130MOL0     C17417  10.247   2.555   7.433 -0.5087  0.3417 -0.3173
  130MOL0     O17418  10.160   2.658   7.448 -0.8239  0.3584 -0.5592
  130MOL0     C17419  10.034   2.621   7.460  0.4336 -0.2432  0.3779
  130MOL0     C17420   9.971   2.572   7.573  0.0158 -0.1312  0.0469
  130MOL0     C17421   9.835   2.551   7.570 -0.0611 -0.3799  0.0454
  130MOL0     C17422   9.747   2.569   7.457  0.6027  0.1124  0.6191
  130MOL0     O17423   9.614   2.538   7.467 -0.2868 -0.6110  1.5197
  130MOL0     C17424   9.551   2.484   7.349 -0.6531 -0.4217 -0.3472
  130MOL0     C17425   9.399   2.481   7.367  0.0951 -0.5710  0.2948
  130MOL0     C17426   9.351   2.409   7.484 -0.3407 -0.7943 -0.5015
  130MOL0     C17427   9.213   2.447   7.544 -0.5970  0.1131  0.1595
  130MOL0     C17428   9.088   2.416   7.451 -0.0141 -0.6396 -0.6233
  130MOL0     C17429   8.946   2.438   7.504 -0.4368  0.0424 -0.1021
  130MOL0     C17430   8.934   2.581   7.553  0.4173  0.0946  0.3169
  130MOL0     C17431   8.803   2.606   7.622 -0.4626  0.7641  0.6630
  130MOL0     N17432   8.797   2.551   7.756  0.0265  0.2218  0.4322
  130MOL0     C17433   8.881   2.462   7.823 -0.1131 -0.2744  0.6769
  130MOL0     C17434   8.816   2.424   7.927  0.0140 -0.9353 -0.8777
  130MOL0     C17435   8.883   2.326   8.031  0.2366  0.2903 -0.2102
  130MOL0     C17436   8.944   2.401   8.150 -0.3342 -1.3823  0.5110
  130MOL0     C17437   8.858   2.416   8.280 -0.1914 -0.3294 -0.0888
  130MOL0     C17438   8.711   2.459   8.262 -0.1759 -0.0956  0.4325
  130MOL0     O17439   8.641   2.429   8.385  0.2612 -0.2839  0.4804
  130MOL0     C17440   8.512   2.472   8.394  0.9659  0.3192  0.1895
  130MOL0     C17441   8.449   2.438   8.516 -0.0286  0.8068  0.6556
  130MOL0     C17442   8.315   2.465   8.546  1.0106  0.3049 -0.6418
  130MOL0     C17443   8.263   2.463   8.695  0.0908  0.4916  0.3210
  130MOL0     C17444   8.241   2.533   8.443  0.3442 -0.0775  0.9535
  130MOL0     C17445   8.092   2.572   8.461 -0.9081  0.5703  0.2109
  130MOL0     O17446   8.041   2.651   8.365  0.3299  0.3815 -0.7076
  130MOL0     C17447   7.909   2.699   8.382 -0.0503 -0.1941  0.1379
  130MOL0     C17448   7.876   2.834   8.351 -0.3272  0.4189  0.3890
  130MOL0     C17449   7.743   2.890   8.363 -0.2096 -1.1074  0.1452
  130MOL0     C17450   7.646   2.818   8.415 -0.1818 -0.3288 -0.0959
  130MOL0     O17451   7.524   2.881   8.414  0.5616 -0.1164 -0.1243
  130MOL0     C17452   7.422   2.844   8.512  0.3668  0.0233 -1.2473
  130MOL0     C17453   7.467   2.868   8.662 -0.5375  1.0671 -0.4121
  130MOL0     C17454   7.498   3.013   8.678 -0.8870  0.1550 -0.5553
  130MOL0     C17455   7.505   3.055   8.832  0.9034 -0.3199  0.3320
  130MOL0     C17456   7.527   3.204   8.859 -0.2273 -1.1633 -0.0956
  130MOL0     C17457   7.438   3.297   8.773  0.4778  0.4516  0.3725
  130MOL0     C17458   7.439   3.442   8.830  0.0918  0.0826 -0.6038
  130MOL0     C17459   7.342   3.524   8.754 -0.1429 -0.2388 -0.5014
  130MOL0    Cl17460   7.348   3.703   8.825 -0.0004  0.4059 -0.2765
  130MOL0     C17461   7.670   2.683   8.435 -0.0366  0.5425  0.4593
  130MOL0     C17462   7.796   2.625   8.411 -0.2105 -0.8451  0.5489
  130MOL0     O17463   8.029   2.543   8.562  0.2120 -0.3860  0.3164
  130MOL0     C17464   8.299   2.565   8.317 -0.5189 -0.6881 -0.3623
  130MOL0     C17465   8.435   2.529   8.299  0.1545 -0.6445 -0.4042
  130MOL0     N17466   8.683   2.469   7.913  0.0528  1.3733 -0.0499
  130MOL0     N17467   8.676   2.543   7.811 -0.1311  0.3267 -0.1384
  130MOL0     C17468   9.814   2.617   7.343  0.8269  0.6856 -0.0153
  130MOL0     C17469   9.953   2.649   7.345 -0.5940 -0.5432  0.5960
  130MOL0     C17470  10.390   2.593   7.408 -0.7464  0.7412 -0.0569
  130MOL0     C17471  10.504   2.497   7.420  0.3404 -0.3825  0.0214
  130MOL0     C17472  10.641   2.526   7.402  0.0121 -1.0347 -0.1152
  130MOL0     C17473  10.682   2.658   7.377  0.0574  0.0931 -0.0402
  130MOL0     O17474  10.818   2.697   7.362  0.2924 -0.1053  0.0716
  130MOL0     C17475  10.844   2.768   7.243 -0.9376 -0.7450  0.1241
  130MOL0     C17476  10.970   2.724   7.165  0.6883  0.3464  0.3563
  130MOL0     C17477  11.005   2.574   7.198 -0.6161 -0.0375 -0.1433
  130MOL0     C17478  11.109   2.510   7.108  0.6980  0.1616  0.0183
  130MOL0     C17479  11.240   2.587   7.103 -0.3118  0.8716  0.3012
  130MOL0     C17480  11.344   2.651   7.114 -0.3003  0.1138  0.7304
  130MOL0     C17481  10.571   2.755   7.369 -0.3565 -0.8409 -0.3213
  130MOL0     C17482  10.437   2.720   7.388 -0.1015  0.0021  1.4293
  130MOL0     H17483  10.033   2.559   7.662  3.5374 -3.2869 -2.5102
  130MOL0     H17484   9.782   2.513   7.657  0.8576  0.4947  1.0224
  130MOL0     H17485   9.581   2.542   7.262  5.3039 -0.1202  1.4420
  130MOL0     H17486   9.586   2.380   7.344  4.1395  0.9148  0.5314
  130MOL0     H17487   9.362   2.584   7.365 -0.3314 -0.7145  0.6999
  130MOL0     H17488   9.352   2.440   7.278 -1.3566  3.2527 -0.9186
  130MOL0     H17489   9.367   2.302   7.467  1.1570 -0.5391 -0.8220
  130MOL0     H17490   9.420   2.422   7.568 -1.1173 -0.6088  0.1193
  130MOL0     H17491   9.196   2.396   7.639  0.2449  1.5316  1.1000
  130MOL0     H17492   9.212   2.552   7.576 -0.9253  1.0711 -2.6756
  130MOL0     H17493   9.108   2.485   7.369  3.8355  1.1370  1.5387
  130MOL0     H17494   9.098   2.311   7.423  0.5526 -0.3710 -1.4566
  130MOL0     H17495   8.884   2.419   7.417 -3.6662 -0.9620  2.2433
  130MOL0     H17496   8.925   2.357   7.574  2.5893  0.5899  1.6293
  130MOL0     H17497   9.015   2.590   7.626  2.1068 -4.4419 -0.6811
  130MOL0     H17498   8.940   2.651   7.469  1.3552 -0.8109 -0.3998
  130MOL0     H17499   8.713   2.566   7.574  1.1897  0.1880 -2.2366
  130MOL0     H17500   8.801   2.715   7.624 -4.6526  0.8706 -0.5703
  130MOL0     H17501   8.987   2.439   7.814  0.4594  2.1732  0.6843
  130MOL0     H17502   8.812   2.252   8.070 -1.4088  0.6653 -2.2816
  130MOL0     H17503   8.961   2.267   7.983 -0.2612 -0.3836 -0.1961
  130MOL0     H17504   8.975   2.501   8.117 -2.6855 -0.5459  0.6721
  130MOL0     H17505   9.035   2.347   8.178  0.5019  0.5588  1.7168
  130MOL0     H17506   8.900   2.488   8.350 -1.6320  0.0961  0.3845
  130MOL0     H17507   8.857   2.318   8.328 -3.1556  0.0267  0.8121
  130MOL0     H17508   8.667   2.401   8.180  0.7829  0.7683 -0.7306
  130MOL0     H17509   8.697   2.563   8.232  1.3667  0.4209  1.4193
  130MOL0     H17510   8.508   2.381   8.587 -3.0548 -0.8155  2.0544
  130MOL0     H17511   8.350   2.435   8.755  1.9753  3.2112 -0.9275
  130MOL0     H17512   8.233   2.562   8.729  0.6025  0.6638  0.2892
  130MOL0     H17513   8.187   2.385   8.698  1.1797 -0.5756  1.1765
  130MOL0     H17514   7.959   2.895   8.316  0.4209 -1.4247 -1.2124
  130MOL0     H17515   7.712   2.990   8.337 -0.5654 -1.8249 -2.5042
  130MOL0     H17516   7.323   2.887   8.490 -1.3199 -3.1786 -0.5309
  130MOL0     H17517   7.395   2.738   8.508 -4.3420  1.0157 -2.6487
  130MOL0     H17518   7.395   2.825   8.732  1.8060 -1.9616  0.3454
  130MOL0     H17519   7.559   2.809   8.663 -0.4434  0.7913 -4.9392
  130MOL0     H17520   7.419   3.062   8.621 -1.2964 -1.2699 -1.2268
  130MOL0     H17521   7.590   3.046   8.628  0.0024 -2.4391 -0.7740
  130MOL0     H17522   7.408   3.034   8.876  0.0402  4.7462  1.3780
  130MOL0     H17523   7.570   2.997   8.898  2.9210  0.2115 -1.0567
  130MOL0     H17524   7.631   3.229   8.834 -1.1336  0.2959 -2.8067
  130MOL0     H17525   7.510   3.218   8.966 -1.8790  1.2386 -0.5991
  130MOL0     H17526   7.473   3.298   8.669 -0.1775  0.3723  0.1479
  130MOL0     H17527   7.337   3.256   8.781  0.7353  0.0038  1.5256
  130MOL0     H17528   7.539   3.485   8.824  0.9259 -1.9343 -2.9817
  130MOL0     H17529   7.415   3.436   8.937  1.0700  1.7320 -0.2579
  130MOL0     H17530   7.236   3.495   8.757 -0.2908  0.1432 -1.5530
  130MOL0     H17531   7.366   3.527   8.648  1.8898  2.0617 -0.0486
  130MOL0     H17532   7.583   2.625   8.463  0.4409 -0.6596 -0.4721
  130MOL0     H17533   7.808   2.519   8.435 -0.9656 -0.5073  2.6280
  130MOL0     H17534   8.236   2.607   8.239 -0.8707 -1.5306 -0.5479
  130MOL0     H17535   8.475   2.552   8.201 -1.2931 -1.6491 -1.2757
  130MOL0     H17536   9.770   2.626   7.245 -0.0058  1.1397  0.3843
  130MOL0     H17537  10.000   2.695   7.259  0.9024 -1.7257  0.7426
  130MOL0     H17538  10.475   2.394   7.437 -6.1394  1.1519  0.9261
  130MOL0     H17539  10.714   2.448   7.421  0.2275 -0.2145  2.8682
  130MOL0     H17540  10.760   2.763   7.172 -0.8776 -1.3338  0.0909
  130MOL0     H17541  10.874   2.863   7.287 -0.6278 -1.2693  1.0744
  130MOL0     H17542  11.060   2.782   7.191 -0.8104  2.0281  2.0673
  130MOL0     H17543  10.949   2.734   7.058  2.0497 -0.6320 -0.0287
  130MOL0     H17544  10.912   2.516   7.191 -1.0301 -0.1474  4.0227
  130MOL0     H17545  11.032   2.568   7.304  0.9306 -1.0640 -0.5570
  130MOL0     H17546  11.070   2.494   7.007  1.6284 -3.0476  0.0699
  130MOL0     H17547  11.128   2.410   7.148 -1.7888 -1.3026 -2.0917
  130MOL0     H17548  11.433   2.706   7.135  0.1020  0.4702 -1.6389
  130MOL0     H17549  10.585   2.861   7.347 -1.9756 -0.2259  1.3329
  130MOL0     H17550  10.358   2.795   7.388 -0.1667 -0.0432  0.2989
  131MOL0     O17551   8.889   4.775  10.620  0.5666 -0.1384 -0.3797
  131MOL0     C17552   9.014   4.769  10.617  0.2460 -0.5004  0.2543
  131MOL0     O17553   9.098   4.814  10.712 -0.5461 -0.6935  0.3195
  131MOL0     C17554   9.047   4.887  10.818 -0.2141 -0.2505  0.2035
  131MOL0     C17555   8.953   4.991  10.806 -0.2695 -0.1926  0.8825
  131MOL0     C17556   8.922   5.072  10.922  0.4670  0.1762  0.7850
  131MOL0     C17557   8.983   5.051  11.046  0.3886 -0.0870  0.0062
  131MOL0     O17558   8.946   5.143  11.143  0.5907 -0.1071 -0.4059
  131MOL0     C17559   9.005   5.116  11.270 -0.4154  0.6539 -0.0829
  131MOL0     C17560   8.964   5.213  11.378  0.7271  0.0210 -0.7378
  131MOL0     C17561   9.027   5.348  11.376 -0.4346 -0.6198 -0.3450
  131MOL0     C17562   8.953   5.443  11.473  0.3682  0.3997  0.3151
  131MOL0     C17563   9.049   5.565  11.503  0.6488 -0.4661 -0.8409
  131MOL0     C17564   9.183   5.552  11.566 -0.8260  0.2888 -0.1214
  131MOL0     C17565   9.185   5.455  11.681 -0.9653 -0.4398 -0.1102
  131MOL0     C17566   9.314   5.472  11.754 -0.2509  0.0803  0.6995
  131MOL0     N17567   9.331   5.592  11.828  0.2381  0.5215 -0.4688
  131MOL0     C17568   9.230   5.662  11.893  0.3617 -0.1498  0.6742
  131MOL0     C17569   9.277   5.792  11.901 -0.3359 -0.2189 -0.0113
  131MOL0     C17570   9.217   5.917  11.972 -0.4750  0.2796 -0.1290
  131MOL0     C17571   9.078   5.953  11.913 -0.4217  0.5397  0.1120
  131MOL0     C17572   9.069   5.972  11.757 -0.0334 -0.0262 -0.2202
  131MOL0     C17573   8.926   5.949  11.709  0.5776 -0.1662  0.1182
  131MOL0     O17574   8.842   6.068  11.727 -0.3987  0.0896 -0.3112
  131MOL0     C17575   8.718   6.069  11.678  0.3521 -0.3455 -0.1855
  131MOL0     C17576   8.672   6.011  11.560  0.0479 -0.4845  0.4731
  131MOL0     C17577   8.545   6.014  11.503  0.0606 -0.0143 -0.6339
  131MOL0     C17578   8.502   5.938  11.385 -0.1354  0.2232  0.1659
  131MOL0     C17579   8.456   6.099  11.584  0.5280  0.7905  0.0791
  131MOL0     C17580   8.307   6.117  11.547  0.0488  1.2985 -0.6069
  131MOL0     O17581   8.238   6.211  11.618 -0.0031  0.6514  0.1366
  131MOL0     C17582   8.103   6.230  11.605 -0.0437  0.3144 -0.4131
  131MOL0     C17583   8.021   6.197  11.489 -0.6853 -0.1012 -0.3473
  131MOL0     C17584   7.881   6.208  11.507  0.2263  0.6922 -0.3174
  131MOL0     C17585   7.824   6.225  11.634 -0.4420  0.5288  0.3001
  131MOL0     O17586   7.691   6.242  11.626  0.2026 -0.4335  0.5829
  131MOL0     C17587   7.605   6.243  11.742  0.1134  0.8441 -0.5400
  131MOL0     C17588   7.477   6.166  11.703  0.1468 -0.5849  0.5209
  131MOL0     C17589   7.397   6.117  11.820  0.3150 -1.0668 -0.4416
  131MOL0     C17590   7.264   6.074  11.784 -0.0741  0.3308 -0.7001
  131MOL0     C17591   7.200   6.009  11.911  0.0489 -0.8444 -1.2781
  131MOL0     C17592   7.074   5.927  11.884 -0.4754  0.3746  0.2602
  131MOL0     C17593   7.031   5.855  12.011  0.4633 -0.1767  0.0796
  131MOL0     C17594   6.876   5.853  12.019 -0.3028  0.4985 -0.4112
  131MOL0    Cl17595   6.781   5.992  12.084 -0.3533 -0.1300  0.7052
  131MOL0     C17596   7.899   6.258  11.740  0.0459  0.1200  0.1390
  131MOL0     C17597   8.035   6.257  11.734 -0.3884 -0.5321  0.2014
  131MOL0     O17598   8.254   6.041  11.466  0.2240 -0.4614  0.2425
  131MOL0     C17599   8.502   6.161  11.699 -0.3084 -0.7910 -0.3772
  131MOL0     C17600   8.627   6.150  11.748 -1.5407  0.7997  1.3993
  131MOL0     N17601   9.413   5.787  11.867  0.0224  0.2594 -0.1436
  131MOL0     N17602   9.445   5.674  11.817  0.9013 -0.8217  0.1508
  131MOL0     C17603   9.090   4.955  11.049 -1.1522  0.4740  0.3144
  131MOL0     C17604   9.115   4.877  10.937 -0.6070 -0.2607  0.2502
  131MOL0     C17605   9.068   4.736  10.475  0.8576  0.1334 -1.7283
  131MOL0     C17606   9.196   4.770  10.454 -0.0222  0.8123 -0.2207
  131MOL0     C17607   9.247   4.737  10.329 -0.3449  0.5345  0.0203
  131MOL0     C17608   9.178   4.681  10.226 -0.3927  0.0933 -0.0864
  131MOL0     O17609   9.225   4.667  10.102 -0.2252  0.2920  0.0333
  131MOL0     C17610   9.327   4.561  10.094 -0.0813 -0.0051 -0.2529
  131MOL0     C17611   9.285   4.460   9.986  0.6762  0.7847 -0.0598
  131MOL0     C17612   9.313   4.522   9.852  0.3071 -0.6477 -0.7644
  131MOL0     C17613   9.250   4.436   9.741  0.2072  0.7474  0.6450
  131MOL0     C17614   9.327   4.308   9.742  0.0102  0.2972 -0.2900
  131MOL0     C17615   9.385   4.202   9.747 -0.2376  0.1652 -0.3821
  131MOL0     C17616   9.045   4.656  10.247 -0.5163  0.5076  0.2146
  131MOL0     C17617   8.989   4.673  10.374 -0.7689 -0.1678 -0.1391
  131MOL0     H17618   8.903   5.007  10.711 -0.0654 -0.0446  0.7999
  131MOL0     H17619   8.852   5.155  10.913  1.7995  1.2635  0.1763
  131MOL0     H17620   8.968   5.018  11.301 -3.6019  0.8769 -2.6825
  131MOL0     H17621   9.114   5.110  11.258 -0.5002 -1.0807 -0.3443
  131MOL0     H17622   8.855   5.225  11.383  0.8630  1.7243 -1.2453
  131MOL0     H17623   9.007   5.161  11.464 -1.1474 -3.5360 -1.7679
  131MOL0     H17624   9.131   5.344  11.407 -0.3100  0.3404 -0.5959
  131MOL0     H17625   9.021   5.388  11.274 -0.2588 -1.6227 -0.7594
  131MOL0     H17626   8.857   5.474  11.431  0.8047  0.8599 -0.3655
  131MOL0     H17627   8.929   5.373  11.554  0.4007 -0.8056 -0.6717
  131MOL0     H17628   9.072   5.619  11.410  1.6819  0.5362 -0.0350
  131MOL0     H17629   8.985   5.633  11.559  2.3172 -1.3179  2.3849
  131MOL0     H17630   9.259   5.520  11.495 -0.0579 -0.2688  0.9155
  131MOL0     H17631   9.211   5.650  11.605  2.4203 -1.2482  1.8418
  131MOL0     H17632   9.101   5.480  11.746  0.7470  2.1714  1.2894
  131MOL0     H17633   9.167   5.353  11.647 -3.0827 -0.7984  1.8024
  131MOL0     H17634   9.400   5.447  11.691  1.2842 -2.3377  3.5105
  131MOL0     H17635   9.309   5.394  11.831 -0.1858 -0.6027  0.0284
  131MOL0     H17636   9.127   5.632  11.907  1.0445 -3.5864 -0.5398
  131MOL0     H17637   9.202   5.895  12.078 -1.5644 -2.2176 -0.7212
  131MOL0     H17638   9.289   5.999  11.964  0.6798 -0.8091 -1.6907
  131MOL0     H17639   9.027   6.038  11.959  1.1469  0.9586  1.1470
  131MOL0     H17640   9.006   5.871  11.921 -1.9039  1.6154 -1.4082
  131MOL0     H17641   9.132   5.902  11.702  0.1645  1.6683 -2.2925
  131MOL0     H17642   9.107   6.064  11.712 -1.3822  1.3599  1.3311
  131MOL0     H17643   8.884   5.865  11.765  0.8394 -0.9374 -0.7966
  131MOL0     H17644   8.943   5.924  11.604  0.4177 -0.9358  0.2655
  131MOL0     H17645   8.745   5.947  11.511 -0.7324 -0.8717 -0.1842
  131MOL0     H17646   8.443   6.000  11.318 -2.1853 -0.0492  1.6153
  131MOL0     H17647   8.589   5.893  11.337 -0.1164 -0.3606  0.7384
  131MOL0     H17648   8.442   5.850  11.409  0.5068  0.4043  2.8397
  131MOL0     H17649   8.060   6.169  11.392  1.9744 -1.9724  1.1146
  131MOL0     H17650   7.813   6.196  11.423  0.2603  0.3316 -0.2962
  131MOL0     H17651   7.654   6.198  11.829  2.2184  1.2078 -1.4707
  131MOL0     H17652   7.584   6.347  11.767 -1.8287  1.2908 -3.5557
  131MOL0     H17653   7.421   6.230  11.634  2.9374 -1.0173 -2.3839
  131MOL0     H17654   7.495   6.075  11.645 -1.4397 -1.5124  1.4199
  131MOL0     H17655   7.384   6.199  11.892  1.7028  0.0632 -1.4291
  131MOL0     H17656   7.445   6.030  11.866 -0.3600 -1.3879 -0.3309
  131MOL0     H17657   7.200   6.158  11.757 -1.9638  0.6273  3.8070
  131MOL0     H17658   7.276   6.005  11.700  2.0244  0.2930 -0.4200
  131MOL0     H17659   7.163   6.079  11.987 -2.6987 -4.4272  0.9571
  131MOL0     H17660   7.274   5.943  11.956  0.7503  1.2388  0.8761
  131MOL0     H17661   6.995   5.986  11.836 -0.6568  1.2128  1.5337
  131MOL0     H17662   7.102   5.849  11.812 -0.7203  0.4799  0.0465
  131MOL0     H17663   7.073   5.898  12.102  1.3919 -0.8579 -0.0166
  131MOL0     H17664   7.074   5.755  12.014  0.0133 -0.3419  1.4091
  131MOL0     H17665   6.863   5.776  12.096  0.8040 -0.5060 -1.1831
  131MOL0     H17666   6.842   5.824  11.919 -1.2803  2.7849 -0.7875
  131MOL0     H17667   7.849   6.274  11.836  1.4282  0.6877  0.7849
  131MOL0     H17668   8.101   6.269  11.820 -0.5942  2.1854  0.0535
  131MOL0     H17669   8.434   6.217  11.761  0.3787  1.7428 -1.7634
  131MOL0     H17670   8.643   6.202  11.843  1.0968  2.0828  0.3592
  131MOL0     H17671   9.146   4.949  11.142  3.8938  0.3657 -2.4093
  131MOL0     H17672   9.194   4.802  10.937  0.7085  1.0383  1.8609
  131MOL0     H17673   9.269   4.803  10.526  0.2917 -2.4246  1.1436
  131MOL0     H17674   9.349   4.766  10.308  0.1921 -1.3078 -0.0831
  131MOL0     H17675   9.429   4.599  10.083 -0.2625 -0.1291 -3.2797
  131MOL0     H17676   9.315   4.513  10.191 -2.5627  0.5643 -0.2114
  131MOL0     H17677   9.180   4.436  10.000  1.4876 -1.7165  2.5784
  131MOL0     H17678   9.340   4.366   9.994  2.1461  1.4743 -1.3590
  131MOL0     H17679   9.420   4.536   9.841 -0.1465  2.2683 -2.2803
  131MOL0     H17680   9.265   4.620   9.841 -1.9024 -1.9352 -4.6001
  131MOL0     H17681   9.264   4.478   9.641  0.7484  0.5378  0.6321
  131MOL0     H17682   9.142   4.423   9.755  0.0338  0.0117 -1.0958
  131MOL0     H17683   9.428   4.104   9.752 -0.6994  0.0094  0.5565
  131MOL0     H17684   8.982   4.611  10.172 -1.7763  0.1052  1.4600
  131MOL0     H17685   8.892   4.637  10.408 -1.0051  1.8545  1.5568
  132MOL0     O17686   6.693   9.011   5.647  0.6452  0.5403 -0.2462
  132MOL0     C17687   6.759   9.069   5.727  0.6088  0.4084 -0.4974
  132MOL0     O17688   6.712   9.148   5.830  0.2882 -0.5447 -0.2240
  132MOL0     C17689   6.574   9.165   5.836 -0.3152  0.1534 -0.0132
  132MOL0     C17690   6.487   9.063   5.886 -0.1611 -0.6345 -0.0886
  132MOL0     C17691   6.350   9.081   5.861 -0.3124 -0.2426 -0.6432
  132MOL0     C17692   6.297   9.188   5.787  0.6153  0.0716 -0.6368
  132MOL0     O17693   6.164   9.212   5.762  0.0899 -0.5396 -0.1877
  132MOL0     C17694   6.072   9.102   5.743 -0.6393 -0.4952  0.8279
  132MOL0     C17695   5.934   9.146   5.771 -0.2878  0.6336  0.1866
  132MOL0     C17696   5.931   9.201   5.923 -0.4855 -0.2796 -0.0821
  132MOL0     C17697   5.804   9.290   5.945  0.1919 -0.0733 -0.3583
  132MOL0     C17698   5.802   9.375   6.067  0.5894  0.3037 -0.3274
  132MOL0     C17699   5.843   9.292   6.186  0.2275  0.3064 -0.7164
  132MOL0     C17700   5.823   9.353   6.335 -0.2652  0.1500  0.1671
  132MOL0     C17701   5.675   9.405   6.362  0.1406  0.3130 -0.6595
  132MOL0     N17702   5.578   9.297   6.382  0.4542 -0.1129  0.3480
  132MOL0     C17703   5.526   9.223   6.277  0.3959  0.1788  0.5585
  132MOL0     C17704   5.443   9.138   6.341 -0.3226  0.1545  0.6847
  132MOL0     C17705   5.348   9.037   6.277 -0.8788 -0.8576 -0.6224
  132MOL0     C17706   5.262   9.100   6.169  0.1759  1.2244  0.2998
  132MOL0     C17707   5.149   9.015   6.121 -0.5290 -0.4846 -0.0540
  132MOL0     C17708   5.044   9.080   6.031  0.2150  0.3774  0.0451
  132MOL0     O17709   5.107   9.140   5.916 -0.1767  0.2033  0.0042
  132MOL0     C17710   5.026   9.227   5.847  0.2912 -0.7024 -0.7469
  132MOL0     C17711   5.086   9.310   5.753  0.0748  0.0856 -0.4748
  132MOL0     C17712   5.016   9.388   5.658 -0.2947  0.2004 -0.1203
  132MOL0     C17713   5.101   9.468   5.561  0.0131  0.5293 -0.1728
  132MOL0     C17714   4.877   9.390   5.663 -0.4786  1.2213  0.0954
  132MOL0     C17715   4.789   9.449   5.557  0.3499  0.4839  0.1177
  132MOL0     O17716   4.702   9.369   5.494 -1.1257  0.4016 -1.1814
  132MOL0     C17717   4.624   9.407   5.391 -0.7756 -0.0265 -0.2997
  132MOL0     C17718   4.516   9.496   5.409 -0.1167 -0.3285  0.5556
  132MOL0     C17719   4.434   9.526   5.298  0.7000 -0.1382  0.2863
  132MOL0     C17720   4.475   9.485   5.167 -0.0910  0.4246  0.4245
  132MOL0     O17721   4.418   9.530   5.053  0.1661 -0.1972 -0.1078
  132MOL0     C17722   4.330   9.639   5.048  0.1730 -0.3062 -0.1182
  132MOL0     C17723   4.311   9.650   4.896  0.4641  0.4661 -0.4052
  132MOL0     C17724   4.178   9.579   4.854  1.1264 -0.4222 -0.5397
  132MOL0     C17725   4.153   9.591   4.700  0.4407 -0.6195 -1.5516
  132MOL0     C17726   4.019   9.534   4.667  1.3746  0.2783  0.3879
  132MOL0     C17727   3.999   9.525   4.509 -0.1532  0.4557  0.2563
  132MOL0     C17728   3.980   9.666   4.454 -0.3415 -0.3116 -0.8657
  132MOL0     C17729   3.963   9.667   4.306  0.5432  0.4249  0.1551
  132MOL0    Cl17730   3.810   9.597   4.262  0.4268 -0.4878 -0.2235
  132MOL0     C17731   4.593   9.414   5.158 -0.5288 -0.1674 -0.5765
  132MOL0     C17732   4.660   9.359   5.272 -0.4621 -0.5591  0.7408
  132MOL0     O17733   4.788   9.568   5.539 -0.3403  0.9509 -0.0640
  132MOL0     C17734   4.815   9.313   5.757  0.8336  0.5092 -0.6385
  132MOL0     C17735   4.886   9.232   5.847  0.0325  0.0388 -0.1709
  132MOL0     N17736   5.458   9.150   6.478  0.3318  0.9056 -0.5732
  132MOL0     N17737   5.539   9.242   6.499  0.0546  0.0695  1.1437
  132MOL0     C17738   6.384   9.297   5.756  0.5031 -0.3870 -0.6869
  132MOL0     C17739   6.520   9.276   5.772  0.2714 -0.4687 -0.6399
  132MOL0     C17740   6.901   9.057   5.733  0.5040 -0.1975 -0.0293
  132MOL0     C17741   6.979   9.173   5.749 -0.0858  0.1855  0.4735
  132MOL0     C17742   7.120   9.169   5.740  0.1895  0.3136  0.6909
  132MOL0     C17743   7.188   9.048   5.716 -0.1884 -0.1557  0.4440
  132MOL0     O17744   7.321   9.049   5.708  0.0365  0.0248  0.2533
  132MOL0     C17745   7.410   8.938   5.691  0.2270  0.2761  0.0102
  132MOL0     C17746   7.547   8.996   5.657  0.5833 -0.1099 -0.0884
  132MOL0     C17747   7.565   9.036   5.507 -0.6740  0.0630 -0.4018
  132MOL0     C17748   7.684   9.125   5.479  0.6327 -0.5655  0.3103
  132MOL0     C17749   7.660   9.169   5.343 -0.1347  0.2505  0.8341
  132MOL0     C17750   7.649   9.215   5.226  0.2452  0.7816 -0.5302
  132MOL0     C17751   7.108   8.934   5.707  0.6847  0.2899  1.1644
  132MOL0     C17752   6.961   8.938   5.705  0.6732  1.2444  0.0640
  132MOL0     H17753   6.520   8.980   5.948  0.8934  1.1994  1.9451
  132MOL0     H17754   6.294   8.994   5.897  1.7807 -1.3812  0.0120
  132MOL0     H17755   6.084   9.060   5.644 -2.8314 -1.3893  0.8921
  132MOL0     H17756   6.084   9.018   5.811 -0.4388 -0.6288  0.6262
  132MOL0     H17757   5.906   9.220   5.695 -0.9657 -1.5032 -1.7313
  132MOL0     H17758   5.872   9.057   5.759 -0.2464  0.1652  2.8295
  132MOL0     H17759   5.937   9.115   5.991 -0.0112  0.1866  0.4717
  132MOL0     H17760   6.020   9.260   5.943 -0.1193 -0.3440 -1.3828
  132MOL0     H17761   5.783   9.352   5.857  3.1171 -0.7114 -1.6183
  132MOL0     H17762   5.733   9.208   5.951  1.3994 -1.1584 -0.4277
  132MOL0     H17763   5.872   9.458   6.056  3.6293 -2.2288 -1.6206
  132MOL0     H17764   5.697   9.399   6.084  0.4653 -0.7174  0.4508
  132MOL0     H17765   5.789   9.197   6.190  0.5888  0.0659 -1.3026
  132MOL0     H17766   5.950   9.267   6.184  0.3039  0.7064 -1.8136
  132MOL0     H17767   5.855   9.274   6.403 -0.3124  0.1347  0.1723
  132MOL0     H17768   5.873   9.449   6.351 -1.0447  0.5451  0.2722
  132MOL0     H17769   5.644   9.480   6.288  0.3427 -0.2381 -1.3185
  132MOL0     H17770   5.682   9.461   6.455 -0.6050 -2.8668  1.4415
  132MOL0     H17771   5.544   9.228   6.170  1.5993  0.7210  0.7647
  132MOL0     H17772   5.412   8.955   6.245  0.6087 -0.6990  1.7204
  132MOL0     H17773   5.292   8.995   6.361 -1.4104 -0.5949 -0.8403
  132MOL0     H17774   5.326   9.099   6.081 -0.8462 -1.3752 -0.5079
  132MOL0     H17775   5.232   9.199   6.205  0.1237  1.9828 -1.7313
  132MOL0     H17776   5.096   8.969   6.205 -2.4038 -1.4918 -1.7063
  132MOL0     H17777   5.207   8.945   6.061  0.6090 -0.6363  1.1738
  132MOL0     H17778   4.980   9.150   6.085  0.4414  0.9314 -0.3939
  132MOL0     H17779   4.968   9.017   5.983  1.3576 -0.5744 -0.5607
  132MOL0     H17780   5.195   9.314   5.753  0.1257 -0.9027 -1.1311
  132MOL0     H17781   5.201   9.425   5.547 -0.9857 -1.5583 -1.3722
  132MOL0     H17782   5.049   9.467   5.464  1.1448  1.5561 -0.8225
  132MOL0     H17783   5.103   9.572   5.595  0.4768  0.1201  1.1085
  132MOL0     H17784   4.507   9.536   5.509  0.5349 -1.9654  1.3035
  132MOL0     H17785   4.344   9.582   5.323 -0.8930 -1.6707 -1.6837
  132MOL0     H17786   4.240   9.610   5.103  0.6402  1.7310  1.8462
  132MOL0     H17787   4.373   9.733   5.082  0.4955  0.0785 -1.5180
  132MOL0     H17788   4.307   9.759   4.888 -2.3194  0.4420 -0.1929
  132MOL0     H17789   4.392   9.618   4.830 -0.9932 -2.1340 -1.0519
  132MOL0     H17790   4.107   9.628   4.922 -0.5080  0.9623 -3.1085
  132MOL0     H17791   4.182   9.476   4.890 -1.0478 -0.1583  0.6510
  132MOL0     H17792   4.152   9.699   4.685 -0.7253 -0.3727 -0.0108
  132MOL0     H17793   4.228   9.544   4.636  0.7387 -0.8589 -1.0337
  132MOL0     H17794   3.933   9.585   4.710 -1.5394 -3.1021 -0.8788
  132MOL0     H17795   4.010   9.431   4.703  1.1165  0.2430  0.2214
  132MOL0     H17796   4.074   9.462   4.459 -1.4614  0.8069 -2.3019
  132MOL0     H17797   3.900   9.484   4.489  0.0217  0.2685 -0.2361
  132MOL0     H17798   4.073   9.720   4.472 -1.3520  0.9854  0.8008
  132MOL0     H17799   3.898   9.712   4.509  3.2431  0.8744  4.2009
  132MOL0     H17800   4.036   9.605   4.254  0.0856  1.7115 -2.1646
  132MOL0     H17801   3.970   9.770   4.268 -1.2528  0.4499 -0.1931
  132MOL0     H17802   4.626   9.394   5.056 -2.1279 -1.7865 -0.8142
  132MOL0     H17803   4.746   9.298   5.248 -1.1676 -0.3565 -2.8607
  132MOL0     H17804   4.708   9.293   5.763  0.7342  1.0485 -0.5440
  132MOL0     H17805   4.834   9.164   5.913  1.5612 -2.7344 -1.6235
  132MOL0     H17806   6.334   9.386   5.717 -1.0281  0.5750  2.9811
  132MOL0     H17807   6.587   9.357   5.748  0.7900 -1.0491 -1.2037
  132MOL0     H17808   6.926   9.266   5.759 -0.0430  0.3685 -0.8128
  132MOL0     H17809   7.175   9.263   5.738 -1.1772  1.1696 -2.0396
  132MOL0     H17810   7.412   8.869   5.776 -1.7000  1.4636  1.0793
  132MOL0     H17811   7.392   8.873   5.605 -0.8081 -0.4282  0.7430
  132MOL0     H17812   7.631   8.937   5.696  1.9798  1.8894  0.0562
  132MOL0     H17813   7.549   9.092   5.709  2.1344 -0.3535  0.3590
  132MOL0     H17814   7.469   9.079   5.477 -2.1191 -2.1888  0.7472
  132MOL0     H17815   7.577   8.949   5.441 -0.8631 -1.1212  1.0692
  132MOL0     H17816   7.780   9.076   5.467  0.3030 -0.6301 -3.4823
  132MOL0     H17817   7.684   9.213   5.544  0.5061  0.5771 -1.1637
  132MOL0     H17818   7.639   9.262   5.130  2.7443  4.0366  0.6304
  132MOL0     H17819   7.155   8.841   5.678 -1.4845  0.0309 -2.0175
  132MOL0     H17820   6.909   8.844   5.688 -0.2783  1.5420  1.1943
  133MOL0     O17821  11.145   1.512   9.362  0.2384  0.4676 -0.0275
  133MOL0     C17822  11.202   1.464   9.261  0.8787  0.6898  0.5686
  133MOL0     O17823  11.140   1.388   9.168 -0.3182  0.1189  0.1518
  133MOL0     C17824  10.999   1.357   9.164  0.0508  0.3867  0.5444
  133MOL0     C17825  10.904   1.443   9.224  1.0062 -0.2299  0.1895
  133MOL0     C17826  10.761   1.410   9.224 -0.0310  0.5748  0.9373
  133MOL0     C17827  10.729   1.301   9.152  0.5515  0.6071  0.1116
  133MOL0     O17828  10.600   1.277   9.164 -0.4547  0.3574  0.2577
  133MOL0     C17829  10.527   1.195   9.067  0.1544 -0.5772  0.4625
  133MOL0     C17830  10.380   1.167   9.119 -0.0921  0.2086 -0.4132
  133MOL0     C17831  10.295   1.060   9.045  0.3288  0.1572 -0.6385
  133MOL0     C17832  10.155   1.124   8.998 -0.4573 -0.6486 -0.6774
  133MOL0     C17833  10.065   1.005   8.940  0.5351  0.3446  0.1001
  133MOL0     C17834   9.936   1.046   8.871 -0.1206 -0.2633 -0.3771
  133MOL0     C17835   9.835   0.939   8.825  0.1351 -0.1837 -0.6607
  133MOL0     C17836   9.791   0.844   8.936  0.9662  0.8744  0.3863
  133MOL0     N17837   9.706   0.742   8.868  0.4653  0.3639  0.1259
  133MOL0     C17838   9.753   0.622   8.819 -0.3272  0.3700  0.3216
  133MOL0     C17839   9.653   0.530   8.827 -0.5969  0.2520  1.0394
  133MOL0     C17840   9.671   0.398   8.754  0.3274 -0.2351 -0.0491
  133MOL0     C17841   9.765   0.307   8.827 -0.5367 -0.3189 -0.3218
  133MOL0     C17842   9.767   0.169   8.767 -0.2020  1.0453 -0.0221
  133MOL0     C17843   9.871   0.065   8.810  0.2222 -0.1268  0.3663
  133MOL0     O17844  10.004   0.133   8.837  0.7079 -0.7723 -1.0108
  133MOL0     C17845  10.100   0.069   8.915  0.2479  0.5365  0.1549
  133MOL0     C17846  10.083  -0.053   8.981 -0.1155 -0.0957 -0.0732
  133MOL0     C17847  10.183  -0.115   9.061 -1.0023  0.5919 -1.3532
  133MOL0     C17848  10.142  -0.253   9.102 -0.7278  0.5456  0.8083
  133MOL0     C17849  10.303  -0.047   9.082  0.4499 -0.4714 -0.6791
  133MOL0     C17850  10.410  -0.096   9.174  0.7793  1.0122 -0.1042
  133MOL0     O17851  10.389  -0.209   9.247 -0.3250 -0.1673 -0.1819
  133MOL0     C17852  10.489  -0.249   9.340 -0.9193 -0.5180  0.1707
  133MOL0     C17853  10.454  -0.243   9.482  0.6865  0.4044  1.1542
  133MOL0     C17854  10.547  -0.277   9.579 -0.0035  0.3230  0.4313
  133MOL0     C17855  10.683  -0.300   9.549 -0.6496 -0.3170  0.7024
  133MOL0     O17856  10.765  -0.327   9.651  0.6791 -0.0630 -0.5429
  133MOL0     C17857  10.900  -0.277   9.641  0.1113 -0.1827  0.8644
  133MOL0     C17858  10.960  -0.257   9.780 -0.6987 -0.3257 -0.2056
  133MOL0     C17859  11.104  -0.208   9.768  0.1995 -0.3235 -0.9417
  133MOL0     C17860  11.193  -0.218   9.888  0.5470  0.6356 -0.3641
  133MOL0     C17861  11.312  -0.119   9.862 -0.0939  0.1477  0.4671
  133MOL0     C17862  11.418  -0.131   9.972 -0.8663 -0.1061 -0.0161
  133MOL0     C17863  11.514  -0.019   9.986  0.9376 -0.0716  0.1261
  133MOL0     C17864  11.641  -0.052  10.071  0.1720  0.5075 -0.5979
  133MOL0    Cl17865  11.583  -0.079  10.235 -0.0414 -0.4335  0.3934
  133MOL0     C17866  10.717  -0.300   9.411 -0.3478  0.4922  0.5267
  133MOL0     C17867  10.623  -0.277   9.306  0.4233 -0.0798  0.0252
  133MOL0     O17868  10.507  -0.018   9.190 -0.3091  0.1611 -0.4184
  133MOL0     C17869  10.321   0.076   9.021 -0.2197 -0.6854  0.1236
  133MOL0     C17870  10.230   0.127   8.931 -0.3155  1.0830 -0.4049
  133MOL0     N17871   9.543   0.604   8.872 -0.3945 -0.1313  0.3862
  133MOL0     N17872   9.575   0.725   8.897  0.1102 -0.7001 -0.7644
  133MOL0     C17873  10.820   1.212   9.101 -0.2707  0.0069 -0.2088
  133MOL0     C17874  10.951   1.247   9.094  0.8607 -0.4221  0.7104
  133MOL0     C17875  11.338   1.521   9.229 -0.2632  1.0937  0.1294
  133MOL0     C17876  11.415   1.470   9.128  0.8490  0.5172  0.3623
  133MOL0     C17877  11.537   1.538   9.095 -0.5608  0.3819  0.6718
  133MOL0     C17878  11.584   1.652   9.160  0.7277  0.3022  0.3326
  133MOL0     O17879  11.699   1.713   9.124  0.3893 -0.0106 -0.0682
  133MOL0     C17880  11.782   1.756   9.234 -0.0962 -0.0219  0.6527
  133MOL0     C17881  11.926   1.778   9.164  0.1272  0.2869  0.2624
  133MOL0     C17882  12.038   1.812   9.260  0.5048 -0.0117  0.1421
  133MOL0     C17883  12.167   1.826   9.185 -0.3102 -0.2317 -0.3606
  133MOL0     C17884  12.158   1.935   9.086 -0.4687 -0.1249  0.1889
  133MOL0     C17885  12.131   2.012   8.995 -0.3848 -0.1144 -0.3683
  133MOL0     C17886  11.500   1.684   9.274  0.2142  0.5751  0.5492
  133MOL0     C17887  11.381   1.633   9.299 -0.0151  0.0420  0.3387
  133MOL0     H17888  10.929   1.532   9.281  1.0401  2.0136 -3.0701
  133MOL0     H17889  10.695   1.486   9.265 -1.1377  1.3424 -2.0506
  133MOL0     H17890  10.513   1.264   8.983 -0.7290 -0.2931  0.8264
  133MOL0     H17891  10.580   1.105   9.035  0.8941 -0.7908  2.1740
  133MOL0     H17892  10.388   1.120   9.217 -3.1401 -1.2580 -0.7677
  133MOL0     H17893  10.325   1.260   9.138 -2.7256 -1.0327 -1.4910
  133MOL0     H17894  10.340   1.008   8.960 -0.1080 -0.9454 -0.2178
  133MOL0     H17895  10.260   0.981   9.113 -1.9040  0.3426 -1.4738
  133MOL0     H17896  10.100   1.173   9.079 -0.3318 -0.8473 -0.4700
  133MOL0     H17897  10.175   1.193   8.915 -2.0972  0.4913 -0.1753
  133MOL0     H17898  10.118   0.937   8.872 -0.1496 -2.5219  2.2661
  133MOL0     H17899  10.033   0.938   9.020 -1.0448  0.7142 -0.1852
  133MOL0     H17900   9.902   1.115   8.949  1.4482  0.1314  0.0023
  133MOL0     H17901   9.972   1.101   8.783 -0.4779  0.3673 -0.1371
  133MOL0     H17902   9.752   0.994   8.780  1.3071  0.9118 -1.5750
  133MOL0     H17903   9.883   0.888   8.742 -0.6235  1.7032 -2.3560
  133MOL0     H17904   9.730   0.891   9.013  0.5514  1.1721 -0.1133
  133MOL0     H17905   9.874   0.791   8.983 -1.0562 -1.7779  1.2059
  133MOL0     H17906   9.854   0.606   8.781  0.7657  2.4113  2.2057
  133MOL0     H17907   9.574   0.350   8.744 -1.5562  2.8641  1.7373
  133MOL0     H17908   9.716   0.418   8.657 -0.6730  0.9119 -0.2909
  133MOL0     H17909   9.738   0.307   8.933 -4.1771 -0.7135 -1.1362
  133MOL0     H17910   9.869   0.340   8.817 -0.5745 -0.1181 -0.0678
  133MOL0     H17911   9.761   0.170   8.658 -3.1640  0.0485  0.0511
  133MOL0     H17912   9.670   0.130   8.797 -1.1228  2.1075 -1.5031
  133MOL0     H17913   9.889  -0.015   8.736  0.1921  1.2106 -1.1381
  133MOL0     H17914   9.837   0.018   8.902 -1.8960 -0.1151 -0.3649
  133MOL0     H17915   9.987  -0.101   8.966  0.4798 -1.6312  0.8379
  133MOL0     H17916  10.106  -0.305   9.013  1.2165 -0.0663  0.3389
  133MOL0     H17917  10.224  -0.315   9.139 -0.4236  1.4398  1.6952
  133MOL0     H17918  10.074  -0.240   9.187 -0.6180 -2.0578  1.3660
  133MOL0     H17919  10.349  -0.218   9.496  0.0122 -2.5843  2.2274
  133MOL0     H17920  10.520  -0.273   9.684 -0.4570  0.7373  0.3027
  133MOL0     H17921  10.951  -0.340   9.567 -1.7137 -0.4635 -0.2204
  133MOL0     H17922  10.899  -0.177   9.598  4.2478  0.5958  2.1381
  133MOL0     H17923  10.902  -0.184   9.838 -0.8818 -2.1859  2.1003
  133MOL0     H17924  10.956  -0.350   9.837 -2.3659  1.6106  3.1875
  133MOL0     H17925  11.091  -0.106   9.730 -2.8003 -0.6203 -0.9002
  133MOL0     H17926  11.158  -0.254   9.684  0.3890 -1.1598 -0.3743
  133MOL0     H17927  11.137  -0.205   9.981 -2.6710 -2.5286 -1.6553
  133MOL0     H17928  11.240  -0.317   9.888  0.6902  0.6111  2.6761
  133MOL0     H17929  11.264  -0.021   9.863  0.1606  0.2760  0.9806
  133MOL0     H17930  11.361  -0.142   9.767  1.3695  2.8509  0.4538
  133MOL0     H17931  11.360  -0.144  10.064  0.4916 -0.8247  0.7663
  133MOL0     H17932  11.469  -0.225   9.951 -1.7196 -0.2032 -1.8886
  133MOL0     H17933  11.453   0.062  10.028  0.0068 -1.6776  1.9974
  133MOL0     H17934  11.543   0.003   9.883 -2.3730 -2.0690 -1.3685
  133MOL0     H17935  11.706   0.036  10.065  0.3322  0.3947 -0.5316
  133MOL0     H17936  11.684  -0.145  10.033 -2.7581 -0.1237 -2.6970
  133MOL0     H17937  10.814  -0.325   9.369  0.1063  0.5626  1.5289
  133MOL0     H17938  10.645  -0.287   9.200 -0.7089  3.4377 -0.6672
  133MOL0     H17939  10.405   0.142   9.036 -0.4366 -0.4696  0.3905
  133MOL0     H17940  10.241   0.214   8.868  1.4338 -0.3721 -2.2318
  133MOL0     H17941  10.788   1.115   9.064 -1.6149 -0.4748  2.0289
  133MOL0     H17942  11.007   1.166   9.047 -2.5762 -1.4470 -2.1045
  133MOL0     H17943  11.395   1.377   9.076 -1.0824  0.2287  1.5171
  133MOL0     H17944  11.593   1.492   9.014 -1.4593  0.4591 -0.0201
  133MOL0     H17945  11.750   1.854   9.273  1.8678  0.6126  0.7620
  133MOL0     H17946  11.798   1.673   9.303  0.5555 -0.9228 -0.5556
  133MOL0     H17947  11.921   1.848   9.081 -1.0257 -0.5231 -0.3715
  133MOL0     H17948  11.938   1.678   9.121 -0.3247  1.4003 -2.6530
  133MOL0     H17949  12.046   1.737   9.339 -1.1745  0.1272  0.4794
  133MOL0     H17950  12.011   1.904   9.312 -1.1780  0.1768 -0.9810
  133MOL0     H17951  12.187   1.739   9.122  3.7526  1.5253 -1.8512
  133MOL0     H17952  12.251   1.833   9.254  0.2259  2.7785 -1.1834
  133MOL0     H17953  12.120   2.077   8.911  0.2494  0.0974 -0.2891
  133MOL0     H17954  11.539   1.762   9.338  1.6032 -2.7999  4.1573
  133MOL0     H17955  11.321   1.681   9.376  1.8884  4.3561 -0.6214
  134MOL0     O17956   0.403   7.270  10.006 -0.7198  0.6815 -0.0911
  134MOL0     C17957   0.443   7.385   9.970 -0.2097  0.1329 -0.5462
  134MOL0     O17958   0.362   7.485   9.921  0.4689 -0.0597  0.2803
  134MOL0     C17959   0.232   7.454   9.916  0.7733 -0.1141  0.4162
  134MOL0     C17960   0.191   7.380   9.802  0.1932 -0.5170 -0.8758
  134MOL0     C17961   0.063   7.335   9.793  1.0280 -0.5018  0.1331
  134MOL0     C17962  -0.036   7.358   9.894 -1.0850 -1.1218  0.8551
  134MOL0     O17963  -0.153   7.298   9.886  0.1497  0.0992 -0.0612
  134MOL0     C17964  -0.212   7.286   9.757 -0.2610 -0.5633 -0.1655
  134MOL0     C17965  -0.360   7.260   9.774 -0.8161 -0.6978  0.0302
  134MOL0     C17966  -0.390   7.120   9.831  0.0989 -0.3396 -0.4036
  134MOL0     C17967  -0.542   7.082   9.826  0.0320  0.4659  0.3382
  134MOL0     C17968  -0.573   6.947   9.890 -1.0230  0.4622 -0.6542
  134MOL0     C17969  -0.713   6.873   9.901 -0.4508  0.5405 -0.3381
  134MOL0     C17970  -0.811   6.964   9.971  0.0081 -0.0345  0.3984
  134MOL0     C17971  -0.958   6.921   9.939 -1.0487  0.4526  1.1389
  134MOL0     N17972  -1.053   6.972  10.034 -0.3993  1.2961 -0.4627
  134MOL0     C17973  -1.041   6.961  10.176  0.2713 -0.2464 -0.4496
  134MOL0     C17974  -1.155   7.022  10.225 -0.8861 -0.6842 -0.0319
  134MOL0     C17975  -1.188   7.036  10.374 -0.1559  0.3300 -0.5570
  134MOL0     C17976  -1.324   7.050  10.437 -0.5377 -0.3246  0.1975
  134MOL0     C17977  -1.385   7.191  10.405  0.1928  0.4448 -0.3782
  134MOL0     C17978  -1.537   7.196  10.432  0.4915  0.5043  1.1521
  134MOL0     O17979  -1.593   7.119  10.534 -0.2419  0.1726  0.8274
  134MOL0     C17980  -1.598   7.162  10.666  0.1966  0.3592 -0.0995
  134MOL0     C17981  -1.700   7.110  10.744  0.0294 -0.1509  0.4232
  134MOL0     C17982  -1.699   7.140  10.881 -0.6627 -1.2905  0.1188
  134MOL0     C17983  -1.818   7.097  10.965  0.5126  0.2316 -0.3421
  134MOL0     C17984  -1.591   7.224  10.942 -0.2858  0.2755 -0.3686
  134MOL0     C17985  -1.565   7.241  11.089  0.3832 -0.4094 -0.7687
  134MOL0     O17986  -1.630   7.164  11.176  0.1298  0.2162  0.0166
  134MOL0     C17987  -1.645   7.187  11.307  1.0459  0.9516  0.0431
  134MOL0     C17988  -1.708   7.300  11.359 -1.2364  0.2584  0.6073
  134MOL0     C17989  -1.729   7.313  11.492 -0.0037  0.5777 -0.2810
  134MOL0     C17990  -1.687   7.207  11.579  1.1426 -0.0050  0.2416
  134MOL0     O17991  -1.724   7.213  11.711  0.2384 -0.6733  0.1719
  134MOL0     C17992  -1.618   7.205  11.802 -0.0522  0.0370  1.3489
  134MOL0     C17993  -1.667   7.188  11.942 -1.0337 -0.3329 -0.4882
  134MOL0     C17994  -1.737   7.311  11.985 -0.1542  0.6521  0.0855
  134MOL0     C17995  -1.714   7.346  12.144  0.1944  0.6028 -0.7878
  134MOL0     C17996  -1.810   7.456  12.196  0.1030  1.3063  0.0549
  134MOL0     C17997  -1.806   7.579  12.105 -1.5372 -0.5409 -0.4961
  134MOL0     C17998  -1.878   7.695  12.185 -0.2431  0.5603 -0.4182
  134MOL0     C17999  -1.904   7.823  12.105 -0.0960  0.7522 -0.7277
  134MOL0    Cl18000  -1.758   7.874  12.012 -0.0427 -0.0155  0.4323
  134MOL0     C18001  -1.626   7.094  11.528  0.1154 -0.1389  0.5498
  134MOL0     C18002  -1.592   7.089  11.390  0.1011 -0.3394 -0.6600
  134MOL0     O18003  -1.511   7.351  11.124  0.7333 -0.3992 -0.1793
  134MOL0     C18004  -1.503   7.284  10.850  0.5503  0.3730 -0.2439
  134MOL0     C18005  -1.506   7.250  10.716  0.4611  0.3812 -0.1196
  134MOL0     N18006  -1.221   7.067  10.115 -0.0242 -0.0329  0.4561
  134MOL0     N18007  -1.164   7.039  10.001  0.4193  0.7454 -0.4052
  134MOL0     C18008   0.004   7.430  10.009  0.0830  0.3943 -0.6407
  134MOL0     C18009   0.135   7.481  10.016  0.3105  0.2915  0.0721
  134MOL0     C18010   0.575   7.424  10.016  0.4764  0.0130 -0.2364
  134MOL0     C18011   0.654   7.328  10.072  0.1599  0.7066 -0.1654
  134MOL0     C18012   0.760   7.371  10.153 -0.2780 -0.8881  0.2775
  134MOL0     C18013   0.808   7.510  10.160 -0.6790 -0.0652 -0.2065
  134MOL0     O18014   0.932   7.555  10.206 -0.3761  0.4379  0.1503
  134MOL0     C18015   1.020   7.458  10.278  0.1983 -0.1288 -0.0157
  134MOL0     C18016   1.160   7.440  10.207 -0.0110 -0.5567 -0.0225
  134MOL0     C18017   1.135   7.382  10.068  1.0305  1.1471 -0.6106
  134MOL0     C18018   1.138   7.234  10.079  0.3760  0.0510  0.5280
  134MOL0     C18019   1.270   7.168  10.086 -0.4020 -0.4454 -0.0447
  134MOL0     C18020   1.378   7.118  10.084  0.5264 -0.0293 -0.1415
  134MOL0     C18021   0.726   7.605  10.093 -0.3139  1.0472 -0.0538
  134MOL0     C18022   0.608   7.557  10.034 -1.1738  1.1796 -0.0607
  134MOL0     H18023   0.266   7.367   9.725  0.0198 -2.6695 -0.7344
  134MOL0     H18024   0.043   7.267   9.712  0.3707 -0.7975  0.5385
  134MOL0     H18025  -0.201   7.383   9.708  0.6332  0.3985  1.8111
  134MOL0     H18026  -0.159   7.216   9.691 -0.1542  1.4284 -2.2892
  134MOL0     H18027  -0.403   7.330   9.847  0.2848 -1.1593  1.1572
  134MOL0     H18028  -0.411   7.271   9.678 -2.2227  2.9461  1.0417
  134MOL0     H18029  -0.328   7.048   9.778  1.4216  0.3292  0.1807
  134MOL0     H18030  -0.370   7.116   9.938 -1.2741  3.5148  0.1493
  134MOL0     H18031  -0.596   7.158   9.884 -3.7332 -2.2433  0.7456
  134MOL0     H18032  -0.569   7.076   9.720 -1.4721 -0.2545  0.7352
  134MOL0     H18033  -0.489   6.887   9.852  0.0006  1.5015 -0.0953
  134MOL0     H18034  -0.541   6.964   9.993  0.8123  0.0931 -1.1248
  134MOL0     H18035  -0.744   6.841   9.801  0.4529  1.2396 -0.8602
  134MOL0     H18036  -0.693   6.777   9.948 -2.2879  1.1224  1.8187
  134MOL0     H18037  -0.797   6.971  10.079  4.9416 -1.2925  0.0738
  134MOL0     H18038  -0.785   7.064   9.936  0.3575  0.1405  1.1502
  134MOL0     H18039  -0.965   6.812   9.944  0.4824  0.3653  1.9976
  134MOL0     H18040  -0.988   6.955   9.839 -0.5995 -2.5101 -0.1252
  134MOL0     H18041  -0.969   6.903  10.233  0.2244  2.2888  2.5064
  134MOL0     H18042  -1.142   6.947  10.418 -0.4422 -0.8979 -2.6178
  134MOL0     H18043  -1.123   7.117  10.408  0.5984 -0.4379 -0.1110
  134MOL0     H18044  -1.321   7.040  10.546 -1.9288  1.4085  0.4450
  134MOL0     H18045  -1.369   6.956  10.404  3.3561 -2.0438 -0.7186
  134MOL0     H18046  -1.371   7.218  10.300  0.9501  2.4128  0.1805
  134MOL0     H18047  -1.331   7.270  10.459  0.8512 -1.0359  1.2320
  134MOL0     H18048  -1.591   7.156  10.346  0.8381  1.9871  0.2050
  134MOL0     H18049  -1.569   7.300  10.447  0.6108  0.5191  1.3098
  134MOL0     H18050  -1.768   7.047  10.688  1.5523 -0.9555 -0.5759
  134MOL0     H18051  -1.803   7.009  11.029  1.4548 -1.1962 -2.3870
  134MOL0     H18052  -1.850   7.179  11.029  0.7829 -1.1820  1.7048
  134MOL0     H18053  -1.897   7.065  10.896 -1.6607  0.9371  1.6970
  134MOL0     H18054  -1.734   7.371  11.282 -2.0877  1.0065  1.5623
  134MOL0     H18055  -1.790   7.389  11.540 -0.4519 -0.3872  0.7231
  134MOL0     H18056  -1.547   7.125  11.781 -1.5603 -1.1804  0.7296
  134MOL0     H18057  -1.557   7.296  11.799 -0.3669  0.2799  2.0011
  134MOL0     H18058  -1.726   7.098  11.961 -1.1756  0.1154  1.4992
  134MOL0     H18059  -1.582   7.194  12.012 -0.9980  1.2507 -0.6321
  134MOL0     H18060  -1.844   7.307  11.963 -0.2968  1.9745  0.4094
  134MOL0     H18061  -1.699   7.404  11.939 -0.7084  1.9928  2.1848
  134MOL0     H18062  -1.727   7.255  12.203  3.9357 -1.5439 -2.9131
  134MOL0     H18063  -1.612   7.384  12.154 -0.3676  2.0681 -0.3761
  134MOL0     H18064  -1.771   7.481  12.296  2.0210 -1.1329  0.0106
  134MOL0     H18065  -1.910   7.419  12.219  0.4900 -0.1417 -0.5265
  134MOL0     H18066  -1.703   7.609  12.084 -0.1201 -3.5915  1.4575
  134MOL0     H18067  -1.862   7.564  12.012 -1.7752  0.8826 -0.6126
  134MOL0     H18068  -1.811   7.721  12.268  0.0413 -1.8703  0.2140
  134MOL0     H18069  -1.973   7.658  12.225 -0.2403  1.5163  0.5050
  134MOL0     H18070  -1.946   7.897  12.174 -0.1481  0.7062 -0.7100
  134MOL0     H18071  -1.984   7.802  12.034 -1.7727  2.1023  0.6613
  134MOL0     H18072  -1.597   7.008  11.588  0.3633 -0.5149 -0.0941
  134MOL0     H18073  -1.551   6.999  11.345  1.3212 -0.3630  0.4333
  134MOL0     H18074  -1.426   7.347  10.895 -0.9685  2.1327  0.0106
  134MOL0     H18075  -1.433   7.301  10.654  0.2606  2.3998  1.2073
  134MOL0     H18076  -0.072   7.457  10.081  1.5318  0.0169  1.1125
  134MOL0     H18077   0.175   7.551  10.089 -0.0237 -2.8579  3.5867
  134MOL0     H18078   0.642   7.221  10.072 -0.2203  0.7482  0.0081
  134MOL0     H18079   0.815   7.297  10.209  1.4445  0.2907  0.2049
  134MOL0     H18080   1.041   7.504  10.376 -1.5728  1.1046 -0.1679
  134MOL0     H18081   0.979   7.358  10.295  2.0471 -1.3627 -2.2720
  134MOL0     H18082   1.239   7.389  10.264  1.2297  0.7691 -0.4771
  134MOL0     H18083   1.211   7.534  10.182  1.1223 -1.4957 -1.3540
  134MOL0     H18084   1.212   7.394   9.991  2.3410 -0.5825  0.3716
  134MOL0     H18085   1.042   7.427  10.031 -0.5739  1.5254  3.3869
  134MOL0     H18086   1.074   7.193  10.000 -3.5184  0.0869  3.3299
  134MOL0     H18087   1.084   7.206  10.170 -0.6801 -0.6089 -0.2794
  134MOL0     H18088   1.473   7.069  10.079  0.9049  0.5517  0.9788
  134MOL0     H18089   0.747   7.710  10.113  0.8001  1.0677 -1.1773
  134MOL0     H18090   0.535   7.627   9.995 -0.6450 -0.1017 -3.7786
  135MOL0     O18091  10.340   5.474   9.760  0.6838  0.8336  0.1149
  135MOL0     C18092  10.327   5.372   9.832 -0.5907  0.5056 -0.5440
  135MOL0     O18093  10.254   5.368   9.947 -0.4742 -0.0919 -0.2722
  135MOL0     C18094  10.173   5.472   9.981 -1.0378  0.4819  0.5337
  135MOL0     C18095  10.208   5.603  10.024 -0.1551  0.5364 -0.0866
  135MOL0     C18096  10.117   5.700  10.062  0.4987 -0.4972 -0.9352
  135MOL0     C18097   9.980   5.672  10.062  0.1961  0.2224  0.6415
  135MOL0     O18098   9.897   5.772  10.104  0.8471  0.5081  0.0819
  135MOL0     C18099   9.820   5.744  10.217 -0.1269  0.1968  0.5624
  135MOL0     C18100   9.769   5.882  10.256  0.1909 -0.0875  0.0355
  135MOL0     C18101   9.698   5.874  10.388  0.2439 -0.4266 -0.3995
  135MOL0     C18102   9.796   5.930  10.494  0.5537 -0.6853  1.1360
  135MOL0     C18103   9.736   5.925  10.633 -0.0156  0.6483  0.3223
  135MOL0     C18104   9.844   5.961  10.731 -0.9416 -0.5146 -0.1612
  135MOL0     C18105   9.806   6.083  10.822 -0.3281  0.7612  0.7872
  135MOL0     C18106   9.855   6.217  10.760 -0.6570 -0.5891  0.4959
  135MOL0     N18107   9.825   6.331  10.852 -0.0310 -0.0636  0.3888
  135MOL0     C18108   9.853   6.349  10.986 -0.3480  0.4968  0.1887
  135MOL0     C18109   9.798   6.469  11.020  0.2470 -0.4430 -0.1161
  135MOL0     C18110   9.810   6.528  11.163 -0.3514 -1.3747  0.1893
  135MOL0     C18111   9.685   6.620  11.178  0.3287  0.8393 -0.0795
  135MOL0     C18112   9.700   6.695  11.320 -0.0951  0.4888 -0.2125
  135MOL0     C18113   9.592   6.783  11.361 -0.0339  0.2692  0.9252
  135MOL0     O18114   9.503   6.724  11.455 -0.1818 -0.3809 -0.0216
  135MOL0     C18115   9.372   6.769  11.470 -0.6570 -0.9349 -0.1460
  135MOL0     C18116   9.336   6.898  11.465 -0.0390 -0.2285 -0.1576
  135MOL0     C18117   9.206   6.941  11.487 -0.2283  0.9417 -0.4285
  135MOL0     C18118   9.180   7.086  11.472 -0.2729 -0.1980  0.3813
  135MOL0     C18119   9.105   6.848  11.514  0.8572  0.6007  0.5202
  135MOL0     C18120   8.963   6.868  11.544  1.0246 -0.9494  0.0668
  135MOL0     O18121   8.918   6.997  11.535 -0.1904  0.3522 -1.0755
  135MOL0     C18122   8.789   7.025  11.561  0.0468 -0.0958 -0.1593
  135MOL0     C18123   8.719   6.972  11.675  0.0123  0.2143  0.2256
  135MOL0     C18124   8.604   7.028  11.718  0.1054  0.8398 -0.5937
  135MOL0     C18125   8.543   7.124  11.639 -0.1710  0.1653 -0.0398
  135MOL0     O18126   8.424   7.183  11.693  0.0030  0.0079  0.0741
  135MOL0     C18127   8.376   7.324  11.668  0.0381  0.1106  0.0284
  135MOL0     C18128   8.271   7.342  11.780 -0.9158  0.6363 -0.3917
  135MOL0     C18129   8.343   7.322  11.914  0.8221  0.1549  0.1186
  135MOL0     C18130   8.253   7.377  12.027 -0.7202  0.0046  0.5377
  135MOL0     C18131   8.299   7.345  12.171  0.8136 -0.2115  0.2501
  135MOL0     C18132   8.455   7.353  12.200  0.8128  0.4251 -0.3264
  135MOL0     C18133   8.486   7.332  12.350  0.6862 -0.2820  0.5456
  135MOL0     C18134   8.604   7.409  12.409  0.0311  0.1606  0.2199
  135MOL0    Cl18135   8.738   7.342  12.321  0.6749 -0.2654 -0.3353
  135MOL0     C18136   8.595   7.164  11.521 -0.5420 -0.2302  1.1323
  135MOL0     C18137   8.723   7.125  11.484  0.1717 -0.0440 -0.0460
  135MOL0     O18138   8.887   6.770  11.553  0.1768  0.6030  0.1079
  135MOL0     C18139   9.143   6.708  11.520 -0.6931 -0.8084  0.0290
  135MOL0     C18140   9.277   6.679  11.505 -0.4042 -0.4268 -0.2271
  135MOL0     N18141   9.721   6.513  10.913 -0.0621 -0.0181  0.2216
  135MOL0     N18142   9.742   6.433  10.812  0.2366  0.0836  0.1720
  135MOL0     C18143   9.946   5.543  10.035  0.5869  0.6901 -0.0177
  135MOL0     C18144  10.037   5.443   9.997  0.6301 -0.2459 -0.3768
  135MOL0     C18145  10.405   5.252   9.793  0.3983 -0.2488 -0.2628
  135MOL0     C18146  10.361   5.127   9.836 -0.0268 -0.4230  0.0829
  135MOL0     C18147  10.435   5.010   9.805  0.9773 -0.1440  0.5307
  135MOL0     C18148  10.551   5.026   9.724 -0.8154 -0.3014  0.0875
  135MOL0     O18149  10.616   4.910   9.688 -0.6645 -0.2396  0.3277
  135MOL0     C18150  10.738   4.922   9.611  0.7702  0.6443 -0.0888
  135MOL0     C18151  10.785   4.774   9.587  0.2014  0.0903 -0.3447
  135MOL0     C18152  10.677   4.670   9.529 -0.3577 -0.0092 -0.0076
  135MOL0     C18153  10.763   4.536   9.532 -0.1692  0.2113  0.3234
  135MOL0     C18154  10.709   4.436   9.442 -0.3055 -0.2187 -0.2535
  135MOL0     C18155  10.655   4.362   9.366  0.6177 -0.1596  0.3394
  135MOL0     C18156  10.596   5.155   9.686 -0.6112  0.0253  0.0776
  135MOL0     C18157  10.518   5.270   9.718 -0.1554  0.1424 -0.4322
  135MOL0     H18158  10.316   5.620  10.024 -0.2214  1.0347  0.9220
  135MOL0     H18159  10.162   5.791  10.102 -1.2869 -0.8620  2.2011
  135MOL0     H18160   9.737   5.674  10.213  0.1000 -0.0902  0.7987
  135MOL0     H18161   9.893   5.705  10.290  0.7836  0.4027 -0.2150
  135MOL0     H18162   9.849   5.956  10.266 -2.0760  2.2872  1.7280
  135MOL0     H18163   9.689   5.912  10.189  0.3761 -0.3449 -0.3039
  135MOL0     H18164   9.606   5.931  10.398  0.0053 -1.0503  1.4623
  135MOL0     H18165   9.679   5.770  10.417 -0.2790  0.1531  1.5128
  135MOL0     H18166   9.884   5.865  10.503  0.2912 -1.2244 -0.0105
  135MOL0     H18167   9.811   6.035  10.467 -3.2115 -0.5520 -1.1703
  135MOL0     H18168   9.641   5.978  10.646 -1.6431 -2.4252  1.8211
  135MOL0     H18169   9.716   5.819  10.647  0.7476  0.4541 -0.0102
  135MOL0     H18170   9.854   5.882  10.806  2.9371 -0.4248 -0.3969
  135MOL0     H18171   9.940   5.984  10.683 -2.4879  1.2710 -2.6284
  135MOL0     H18172   9.697   6.072  10.834 -0.0490 -1.5433  1.7867
  135MOL0     H18173   9.852   6.068  10.920  0.1123 -0.6727  0.3843
  135MOL0     H18174   9.803   6.238  10.667  0.5603 -3.3111 -0.9092
  135MOL0     H18175   9.962   6.217  10.736 -0.6629  1.6320  0.2497
  135MOL0     H18176   9.917   6.287  11.048  2.2308  1.4232 -1.4317
  135MOL0     H18177   9.813   6.443  11.231  0.6370 -1.6284 -0.1534
  135MOL0     H18178   9.898   6.594  11.165 -1.6737  0.4530  0.3875
  135MOL0     H18179   9.591   6.562  11.176  0.1659  1.1151 -0.9729
  135MOL0     H18180   9.677   6.680  11.087 -0.2827  1.7030  0.5250
  135MOL0     H18181   9.792   6.753  11.307  0.0795  0.3077  0.1986
  135MOL0     H18182   9.730   6.623  11.397 -2.9910 -3.6956 -2.6019
  135MOL0     H18183   9.540   6.826  11.275 -0.4696 -1.1201  0.4749
  135MOL0     H18184   9.633   6.867  11.419  2.1542  1.3159 -1.8579
  135MOL0     H18185   9.416   6.969  11.446 -1.1274  0.4154 -2.6456
  135MOL0     H18186   9.180   7.142  11.566  0.9286 -0.0864  0.3341
  135MOL0     H18187   9.264   7.128  11.415 -0.0527 -1.8795 -0.5934
  135MOL0     H18188   9.089   7.100  11.414 -0.3878 -0.9977  0.3626
  135MOL0     H18189   8.764   6.890  11.730 -0.9937 -0.1679  0.5044
  135MOL0     H18190   8.564   6.998  11.815 -0.2495  1.7159 -0.4564
  135MOL0     H18191   8.461   7.392  11.675  2.0960 -1.5271 -4.6463
  135MOL0     H18192   8.322   7.332  11.574  1.0287  1.4344 -0.4558
  135MOL0     H18193   8.228   7.442  11.771 -2.0090  0.4134  1.7296
  135MOL0     H18194   8.201   7.259  11.775  0.3053 -0.8995  3.7205
  135MOL0     H18195   8.436   7.378  11.911 -1.1533  4.0178  2.4407
  135MOL0     H18196   8.365   7.216  11.921 -0.0743  0.0875  2.9980
  135MOL0     H18197   8.265   7.484  12.010  1.6571 -0.3274 -0.2303
  135MOL0     H18198   8.152   7.341  12.004 -0.4809 -1.6974  1.9277
  135MOL0     H18199   8.273   7.240  12.189  1.2764 -0.3079  0.3769
  135MOL0     H18200   8.254   7.409  12.247 -0.9588 -2.2679  1.0396
  135MOL0     H18201   8.507   7.282  12.134 -1.2868 -0.2704 -1.3022
  135MOL0     H18202   8.490   7.453  12.171  2.2761 -0.4868 -1.8870
  135MOL0     H18203   8.498   7.224  12.365 -0.3892 -0.5435 -0.4017
  135MOL0     H18204   8.399   7.370  12.405 -0.1593  0.9615 -1.5541
  135MOL0     H18205   8.602   7.390  12.517 -1.0801  1.1659  0.3975
  135MOL0     H18206   8.599   7.517  12.400 -1.1285  0.1187  0.2385
  135MOL0     H18207   8.554   7.241  11.456  1.8155  0.1119 -0.0624
  135MOL0     H18208   8.769   7.176  11.400  0.0278 -1.7534 -1.2023
  135MOL0     H18209   9.068   6.632  11.541 -1.2378 -0.4532 -0.5787
  135MOL0     H18210   9.312   6.582  11.539  1.1995  0.9364  2.3626
  135MOL0     H18211   9.842   5.513  10.042  0.3633  1.5626  0.4419
  135MOL0     H18212  10.006   5.344   9.965 -1.1353  1.3236 -4.0488
  135MOL0     H18213  10.263   5.118   9.884 -0.7554 -0.7409 -1.4099
  135MOL0     H18214  10.401   4.915   9.845  0.5281 -0.2974 -0.1916
  135MOL0     H18215  10.719   4.969   9.514  0.0659 -0.0205 -0.2784
  135MOL0     H18216  10.817   4.972   9.669 -1.5499 -0.0068  3.9905
  135MOL0     H18217  10.825   4.758   9.688 -0.7567  1.6151  0.3160
  135MOL0     H18218  10.869   4.783   9.517  1.3010 -0.0309  0.9022
  135MOL0     H18219  10.646   4.693   9.426  3.4619 -1.8708 -1.7996
  135MOL0     H18220  10.593   4.667   9.598 -1.2102 -2.5419 -1.0305
  135MOL0     H18221  10.759   4.489   9.631  2.7931  2.4577  1.6461
  135MOL0     H18222  10.861   4.571   9.501 -2.1345  6.7381  0.0259
  135MOL0     H18223  10.586   4.318   9.297  0.4823  0.8007 -0.1597
  135MOL0     H18224  10.686   5.162   9.626 -0.1479  1.4787  0.9098
  135MOL0     H18225  10.563   5.364   9.689 -0.3917  0.7650  1.1672
  136MOL0     O18226   3.511   9.740   2.027  1.4533  0.1610  0.1860
  136MOL0     C18227   3.619   9.688   2.033 -0.3931  0.2754  0.1845
  136MOL0     O18228   3.656   9.566   2.091 -0.0124 -0.5919 -0.1344
  136MOL0     C18229   3.554   9.506   2.164 -0.0243 -0.1208 -0.2364
  136MOL0     C18230   3.487   9.560   2.277 -1.1770 -0.7336  0.6798
  136MOL0     C18231   3.385   9.499   2.353 -0.3262 -0.8529 -0.0845
  136MOL0     C18232   3.358   9.366   2.327  0.3426 -0.6551 -0.1426
  136MOL0     O18233   3.266   9.297   2.407 -0.2464  0.3667  0.5943
  136MOL0     C18234   3.128   9.338   2.381  0.1209  0.9168 -0.2918
  136MOL0     C18235   3.087   9.424   2.500  0.4096 -0.4904  0.3999
  136MOL0     C18236   2.956   9.387   2.561 -0.1262 -0.3076  0.1844
  136MOL0     C18237   2.852   9.430   2.461  0.1137  0.3555 -0.2657
  136MOL0     C18238   2.711   9.370   2.487  0.0079 -1.0843 -0.4507
  136MOL0     C18239   2.664   9.383   2.643  0.4984  0.0052  0.4470
  136MOL0     C18240   2.518   9.360   2.661  0.5248 -0.0348  0.6647
  136MOL0     C18241   2.479   9.376   2.806  0.3398 -0.2481  0.7933
  136MOL0     N18242   2.348   9.321   2.826  0.6056  0.3432 -0.0148
  136MOL0     C18243   2.227   9.378   2.785 -0.8126 -0.2582 -0.2609
  136MOL0     C18244   2.134   9.283   2.813 -0.4027 -0.2881 -0.6876
  136MOL0     C18245   1.990   9.277   2.781 -0.3422  0.0903  0.3934
  136MOL0     C18246   1.904   9.321   2.900  0.4580  0.1469 -0.5768
  136MOL0     C18247   1.765   9.333   2.841  0.3414  0.0983  0.0446
  136MOL0     C18248   1.663   9.383   2.942  0.3686 -0.7234  0.3318
  136MOL0     O18249   1.538   9.408   2.877 -0.3073  0.8995 -0.1165
  136MOL0     C18250   1.442   9.470   2.956  0.8491 -0.1234 -0.1045
  136MOL0     C18251   1.459   9.523   3.090 -0.0139  0.7096  0.5342
  136MOL0     C18252   1.361   9.605   3.149 -0.4692  0.0637 -0.1383
  136MOL0     C18253   1.397   9.684   3.276 -0.0638 -0.2528 -0.1932
  136MOL0     C18254   1.234   9.607   3.091  0.2064  1.0205  0.2280
  136MOL0     C18255   1.115   9.677   3.150  1.0780  0.0040  0.9092
  136MOL0     O18256   1.097   9.680   3.283 -0.6661 -0.2605  0.5612
  136MOL0     C18257   0.972   9.710   3.335  0.0729  0.3190  0.9736
  136MOL0     C18258   0.937   9.843   3.363  0.3409  0.6322  0.2752
  136MOL0     C18259   0.818   9.865   3.418  0.0360 -0.0432  0.0600
  136MOL0     C18260   0.733   9.766   3.470  0.7605  0.1680  1.5490
  136MOL0     O18261   0.610   9.794   3.529 -0.0289 -0.1150  0.0654
  136MOL0     C18262   0.515   9.828   3.427 -0.3628  0.0029 -0.3859
  136MOL0     C18263   0.375   9.767   3.459 -0.8407  0.2559 -1.2494
  136MOL0     C18264   0.271   9.796   3.355 -0.1857  0.3944  0.4697
  136MOL0     C18265   0.127   9.744   3.374  0.6816 -0.0970  1.0123
  136MOL0     C18266   0.039   9.796   3.265  0.2954 -0.6043 -0.4840
  136MOL0     C18267  -0.105   9.739   3.279 -0.6034  0.2515  0.5413
  136MOL0     C18268  -0.189   9.812   3.173 -0.2835 -0.8045 -0.1584
  136MOL0     C18269  -0.351   9.791   3.169 -0.8399 -0.3228  0.4078
  136MOL0    Cl18270  -0.435   9.917   3.077 -0.2247  0.9103 -0.0945
  136MOL0     C18271   0.766   9.635   3.437 -0.0865 -0.2553  0.1058
  136MOL0     C18272   0.892   9.601   3.373  0.1243  0.4324 -0.4809
  136MOL0     O18273   1.029   9.707   3.064  0.1011 -0.9681 -0.6466
  136MOL0     C18274   1.214   9.537   2.975  1.2782 -0.5878  0.0204
  136MOL0     C18275   1.317   9.475   2.902 -0.4041 -0.6760  0.0152
  136MOL0     N18276   2.195   9.174   2.860  0.1294  0.5090  0.2503
  136MOL0     N18277   2.316   9.201   2.884  0.5992  0.2728  0.2804
  136MOL0     C18278   3.435   9.300   2.223 -0.6950 -0.0416  0.3023
  136MOL0     C18279   3.527   9.366   2.143  0.1521 -0.0816  1.0731
  136MOL0     C18280   3.724   9.750   1.945  0.2885 -1.0067  0.9394
  136MOL0     C18281   3.697   9.882   1.910  0.6349  0.6164 -0.5346
  136MOL0     C18282   3.796   9.953   1.843  0.7924 -0.2150 -0.8306
  136MOL0     C18283   3.910   9.881   1.789  0.2512 -0.2467 -0.1073
  136MOL0     O18284   4.006   9.933   1.707  0.1035 -0.3929 -0.3797
  136MOL0     C18285   3.965   9.994   1.583  0.1826 -0.9996  0.9647
  136MOL0     C18286   3.957   9.897   1.467 -0.3456 -0.4324  0.4085
  136MOL0     C18287   3.839   9.799   1.473  0.0558  0.0937 -0.0787
  136MOL0     C18288   3.837   9.705   1.353  0.0597  0.4449 -0.3940
  136MOL0     C18289   3.815   9.778   1.227  0.5108 -0.3069  0.1825
  136MOL0     C18290   3.801   9.830   1.123 -0.0265  0.4747  0.6295
  136MOL0     C18291   3.933   9.753   1.835 -0.4334 -1.0266 -0.1438
  136MOL0     C18292   3.849   9.688   1.921 -0.4109 -0.0999 -0.6350
  136MOL0     H18293   3.520   9.661   2.302 -2.3636 -0.0155 -0.5239
  136MOL0     H18294   3.333   9.531   2.442  0.8625  0.6872  0.0989
  136MOL0     H18295   3.109   9.391   2.287  0.3494  0.6184 -0.5095
  136MOL0     H18296   3.070   9.245   2.378  2.7752 -0.8509 -0.8359
  136MOL0     H18297   3.152   9.403   2.585 -2.5301  1.0531  3.2046
  136MOL0     H18298   3.089   9.530   2.473  2.1662 -0.2817  1.1643
  136MOL0     H18299   2.953   9.279   2.575  2.4400 -1.2105 -4.2406
  136MOL0     H18300   2.945   9.440   2.656  1.4853 -0.8186  0.6788
  136MOL0     H18301   2.841   9.538   2.471 -3.1938  0.1837 -0.9053
  136MOL0     H18302   2.871   9.388   2.362  0.5320 -3.7915  1.3399
  136MOL0     H18303   2.642   9.412   2.413 -2.8218 -2.9026  0.9918
  136MOL0     H18304   2.718   9.266   2.453  0.5560 -1.1369 -0.1933
  136MOL0     H18305   2.710   9.296   2.690  1.9581 -0.2182 -1.2800
  136MOL0     H18306   2.687   9.483   2.681 -1.2964  1.8454 -2.8150
  136MOL0     H18307   2.464   9.431   2.598  0.5120  0.4541  1.2066
  136MOL0     H18308   2.487   9.260   2.631  0.2011  0.5911 -1.2164
  136MOL0     H18309   2.482   9.482   2.834  1.3037 -0.8482  3.1912
  136MOL0     H18310   2.552   9.321   2.866  1.2988  0.3511  0.2084
  136MOL0     H18311   2.217   9.476   2.741  2.2048 -0.1832 -0.9956
  136MOL0     H18312   1.951   9.335   2.696 -1.5300  3.2226  2.8572
  136MOL0     H18313   1.963   9.176   2.748  1.1024 -0.5503  1.0858
  136MOL0     H18314   1.949   9.415   2.933  1.0247 -0.0469 -0.7895
  136MOL0     H18315   1.912   9.243   2.976  0.5756 -2.2184 -2.9099
  136MOL0     H18316   1.733   9.233   2.809  1.7917 -0.4072  0.1050
  136MOL0     H18317   1.765   9.406   2.759 -0.4441  2.1605  1.7880
  136MOL0     H18318   1.688   9.482   2.981  0.1026 -0.6514  0.3222
  136MOL0     H18319   1.653   9.317   3.029 -0.9054 -0.6929  0.2380
  136MOL0     H18320   1.555   9.510   3.140 -0.3349  1.2801  1.3164
  136MOL0     H18321   1.337   9.640   3.356 -0.6410 -1.8139 -1.4400
  136MOL0     H18322   1.501   9.668   3.305  0.1380  0.8067 -0.2974
  136MOL0     H18323   1.381   9.790   3.256 -0.0421  0.2423  2.1236
  136MOL0     H18324   0.989   9.926   3.316 -0.0429 -0.1703 -1.6813
  136MOL0     H18325   0.789   9.969   3.434 -0.9347 -0.2903 -0.0378
  136MOL0     H18326   0.508   9.937   3.424  2.6330  0.4153  2.1014
  136MOL0     H18327   0.546   9.806   3.324 -0.2787 -2.3926  0.1074
  136MOL0     H18328   0.396   9.661   3.474  1.3079  0.6609 -1.0907
  136MOL0     H18329   0.350   9.805   3.559 -2.1574 -3.5711  0.0788
  136MOL0     H18330   0.307   9.767   3.256  0.3403 -0.0937  0.7991
  136MOL0     H18331   0.254   9.904   3.361 -3.4747  0.1122 -1.3650
  136MOL0     H18332   0.122   9.637   3.398 -0.2463  0.6638  4.6986
  136MOL0     H18333   0.095   9.784   3.470  0.6988  0.3257  0.8425
  136MOL0     H18334   0.074   9.770   3.164  0.8997 -0.6195 -0.2726
  136MOL0     H18335   0.036   9.905   3.270 -2.6012 -0.6604  2.8256
  136MOL0     H18336  -0.102   9.630   3.267  2.4868  0.3177  0.0697
  136MOL0     H18337  -0.139   9.762   3.380  2.5497  1.5874  1.4239
  136MOL0     H18338  -0.147   9.796   3.073 -1.7538 -3.7062 -0.4361
  136MOL0     H18339  -0.176   9.917   3.198  0.8795 -0.4100 -2.2331
  136MOL0     H18340  -0.391   9.811   3.269 -4.2286  2.5107 -1.2905
  136MOL0     H18341  -0.372   9.693   3.125  2.5043 -0.6811 -0.6951
  136MOL0     H18342   0.686   9.562   3.436 -4.1036  3.6954  0.7467
  136MOL0     H18343   0.906   9.505   3.324 -0.8471  1.0284 -2.0195
  136MOL0     H18344   1.116   9.534   2.929 -0.3182 -1.5093  3.1771
  136MOL0     H18345   1.301   9.430   2.804 -0.6410  2.6443 -1.6111
  136MOL0     H18346   3.439   9.192   2.222  0.7196 -0.0718  2.5059
  136MOL0     H18347   3.582   9.316   2.064 -0.3261 -0.1075  0.7533
  136MOL0     H18348   3.610   9.935   1.947 -0.2631 -2.2119  1.6845
  136MOL0     H18349   3.784  10.061   1.835 -5.1401 -0.4404  0.4858
  136MOL0     H18350   3.874  10.054   1.589 -0.0896 -1.5646  3.2604
  136MOL0     H18351   4.042  10.069   1.563 -0.8059 -0.0137  0.7954
  136MOL0     H18352   4.052   9.842   1.465  0.6616  1.2566 -1.1433
  136MOL0     H18353   3.963   9.953   1.373  0.9066 -1.2961 -0.0564
  136MOL0     H18354   3.744   9.853   1.481 -1.6814 -2.7562 -0.2231
  136MOL0     H18355   3.841   9.738   1.564 -0.0290  2.8942  1.9505
  136MOL0     H18356   3.756   9.633   1.360 -2.0127  2.6441 -0.6195
  136MOL0     H18357   3.932   9.650   1.351  0.8263  1.5944  1.5088
  136MOL0     H18358   3.784   9.887   1.034  0.0063 -1.7606 -0.9046
  136MOL0     H18359   4.011   9.694   1.786 -1.2892 -1.3151 -1.1911
  136MOL0     H18360   3.866   9.590   1.966 -3.2070 -0.3416  0.0730
  137MOL0     O18361   5.505   2.881   7.714 -0.4046 -0.8335  0.1752
  137MOL0     C18362   5.594   2.797   7.738  0.0693  0.6559 -0.6450
  137MOL0     O18363   5.577   2.660   7.754 -0.1528 -0.1631  0.0667
  137MOL0     C18364   5.448   2.620   7.780 -0.2516  0.0398 -0.6474
  137MOL0     C18365   5.336   2.641   7.698 -0.6310 -0.5630 -0.2173
  137MOL0     C18366   5.212   2.590   7.741  0.3925  0.3253  1.1329
  137MOL0     C18367   5.195   2.533   7.863 -0.3710  0.3733 -0.4498
  137MOL0     O18368   5.081   2.490   7.911  1.1683 -0.5473  0.4544
  137MOL0     C18369   5.001   2.400   7.825  0.2151 -0.0323  0.6898
  137MOL0     C18370   4.904   2.326   7.918  0.5105 -0.0663  0.4603
  137MOL0     C18371   4.974   2.282   8.051  0.3622  0.1879  0.3481
  137MOL0     C18372   4.881   2.196   8.136 -0.2214 -0.6242 -0.6663
  137MOL0     C18373   4.944   2.127   8.257  0.4821 -0.1183 -0.2810
  137MOL0     C18374   4.828   2.072   8.344  0.4583  0.1458  0.1566
  137MOL0     C18375   4.741   1.967   8.271 -0.6873  0.0188 -0.7084
  137MOL0     C18376   4.673   1.853   8.353 -0.3013 -0.2111  0.4252
  137MOL0     N18377   4.540   1.899   8.378  0.7469  0.1612 -0.8339
  137MOL0     C18378   4.505   1.991   8.467 -0.2584 -0.2234 -0.1516
  137MOL0     C18379   4.368   1.997   8.454 -0.0356 -1.2613  0.0502
  137MOL0     C18380   4.263   2.095   8.509  0.0885 -0.5229 -0.5877
  137MOL0     C18381   4.267   2.087   8.657 -0.3267  0.2152 -0.2480
  137MOL0     C18382   4.222   1.947   8.707  0.1461 -0.6682  0.5881
  137MOL0     C18383   4.224   1.932   8.861  0.0257  1.5807 -0.8909
  137MOL0     O18384   4.352   1.962   8.919  0.2805 -0.1729  0.1423
  137MOL0     C18385   4.395   1.883   9.020  0.1895 -0.6098  0.6290
  137MOL0     C18386   4.310   1.804   9.106  0.1352  0.1561 -0.4997
  137MOL0     C18387   4.350   1.708   9.190  0.5677  0.0074  0.4169
  137MOL0     C18388   4.249   1.650   9.276 -0.0328 -1.0063 -0.2279
  137MOL0     C18389   4.487   1.671   9.189 -0.8291  1.1913  0.7670
  137MOL0     C18390   4.553   1.570   9.281  0.3945  0.0853  0.4599
  137MOL0     O18391   4.693   1.569   9.294  0.0304 -0.1207 -0.6138
  137MOL0     C18392   4.752   1.497   9.390 -0.4516  0.3717 -1.1199
  137MOL0     C18393   4.856   1.555   9.465  0.3531 -0.1955 -0.1620
  137MOL0     C18394   4.918   1.485   9.558 -0.3734  0.1354  0.7284
  137MOL0     C18395   4.890   1.351   9.579 -0.5714  0.7063  0.1233
  137MOL0     O18396   4.960   1.289   9.680 -0.4399 -0.2959  0.2354
  137MOL0     C18397   4.957   1.152   9.698  0.1393  1.0072 -0.3674
  137MOL0     C18398   5.041   1.119   9.817  0.8155  0.4031  1.1478
  137MOL0     C18399   5.183   1.178   9.808 -0.1925 -1.0643 -0.1486
  137MOL0     C18400   5.263   1.098   9.700  0.2386 -0.1643  0.6468
  137MOL0     C18401   5.411   1.103   9.734  0.1556  0.0134 -0.5019
  137MOL0     C18402   5.489   1.046   9.610  0.3132 -0.6570 -0.4914
  137MOL0     C18403   5.452   0.896   9.609 -0.2112  0.0026 -0.7939
  137MOL0     C18404   5.558   0.823   9.529 -0.1536  0.1648  0.4029
  137MOL0    Cl18405   5.559   0.889   9.357  0.3404 -0.1124  0.0718
  137MOL0     C18406   4.788   1.282   9.505 -1.0539 -0.9046  0.3412
  137MOL0     C18407   4.720   1.359   9.405 -0.4468  0.4215 -0.2992
  137MOL0     O18408   4.475   1.506   9.352 -0.6478  0.0480  0.8453
  137MOL0     C18409   4.578   1.741   9.099  0.7295  1.0607 -0.4597
  137MOL0     C18410   4.530   1.852   9.028 -0.1105 -0.9324 -0.1348
  137MOL0     N18411   4.324   1.916   8.349  0.3991  0.4016 -1.0150
  137MOL0     N18412   4.433   1.852   8.312 -0.0272 -0.0152  0.0195
  137MOL0     C18413   5.307   2.512   7.943 -0.3376  0.3701  0.1738
  137MOL0     C18414   5.433   2.550   7.903  0.3946 -0.0839  0.0232
  137MOL0     C18415   5.737   2.825   7.702  0.0074 -0.3978  0.2565
  137MOL0     C18416   5.770   2.938   7.618 -0.4984  0.0550  0.1643
  137MOL0     C18417   5.902   2.963   7.580 -1.0950 -0.1886 -0.7723
  137MOL0     C18418   5.997   2.871   7.612  0.0045  0.8831  0.7104
  137MOL0     O18419   6.130   2.879   7.580  0.2837  0.0276  0.3787
  137MOL0     C18420   6.178   2.993   7.510 -0.1071 -0.5450  0.9125
  137MOL0     C18421   6.334   2.972   7.510  0.5079 -0.0878 -0.3021
  137MOL0     C18422   6.384   2.839   7.450  0.3516 -0.1283  0.3554
  137MOL0     C18423   6.523   2.775   7.477 -0.5398 -0.0419  0.0596
  137MOL0     C18424   6.625   2.853   7.413 -1.2840 -0.4150  0.3309
  137MOL0     C18425   6.714   2.914   7.364 -0.6794 -0.1462 -0.9065
  137MOL0     C18426   5.968   2.763   7.690  0.8248  0.3766  0.2491
  137MOL0     C18427   5.839   2.738   7.741  0.5405 -0.7508  0.6860
  137MOL0     H18428   5.340   2.704   7.610 -1.3824  1.8527  1.3821
  137MOL0     H18429   5.133   2.601   7.668  1.1615 -0.0233  0.2326
  137MOL0     H18430   4.950   2.446   7.740  0.3433 -0.0602  0.5974
  137MOL0     H18431   5.074   2.341   7.768  1.0879 -0.0984  1.8538
  137MOL0     H18432   4.812   2.383   7.935 -0.5442 -1.3234 -0.7339
  137MOL0     H18433   4.875   2.235   7.863  0.0132  0.9448 -0.9991
  137MOL0     H18434   5.069   2.231   8.034  1.1619  2.5708 -3.8796
  137MOL0     H18435   5.002   2.370   8.111  0.9202  0.3939 -0.2007
  137MOL0     H18436   4.793   2.251   8.173  1.2563  0.3753  1.6363
  137MOL0     H18437   4.844   2.118   8.069 -0.4028 -0.3352 -0.9050
  137MOL0     H18438   5.014   2.045   8.238  1.6650  0.8486 -0.1832
  137MOL0     H18439   4.998   2.198   8.320  1.7709  2.1087 -3.5978
  137MOL0     H18440   4.875   2.013   8.423  1.7053 -2.2410 -2.1946
  137MOL0     H18441   4.767   2.155   8.381  1.7925  1.8143 -1.2217
  137MOL0     H18442   4.662   2.025   8.221 -1.2446  4.0581  4.0687
  137MOL0     H18443   4.803   1.926   8.191  0.4458 -0.7062  0.5038
  137MOL0     H18444   4.728   1.827   8.444 -0.0921 -0.3016  0.2725
  137MOL0     H18445   4.679   1.772   8.280  1.9735  0.7770 -0.5571
  137MOL0     H18446   4.566   2.055   8.531  1.0644 -2.2204  0.6932
  137MOL0     H18447   4.289   2.198   8.484 -0.8958 -0.3534 -0.9665
  137MOL0     H18448   4.159   2.079   8.477 -0.6944  1.2905  0.8520
  137MOL0     H18449   4.199   2.160   8.702 -1.6330 -1.2872  0.2962
  137MOL0     H18450   4.368   2.104   8.695  0.5185 -2.2532 -1.1763
  137MOL0     H18451   4.285   1.870   8.661  1.5971  1.0705 -0.4737
  137MOL0     H18452   4.116   1.941   8.680  0.1655  1.1320 -0.0377
  137MOL0     H18453   4.202   1.827   8.884 -1.3816  2.4676  2.5304
  137MOL0     H18454   4.143   1.983   8.915  1.6844  2.6331  0.7250
  137MOL0     H18455   4.205   1.830   9.104 -0.1341 -0.9202 -0.7230
  137MOL0     H18456   4.225   1.549   9.241 -0.2218 -1.6844  1.7471
  137MOL0     H18457   4.278   1.639   9.381  0.9176 -3.0798 -0.6445
  137MOL0     H18458   4.156   1.708   9.270 -1.4510 -3.1554 -0.2503
  137MOL0     H18459   4.883   1.659   9.450 -0.2422  0.0928  0.6774
  137MOL0     H18460   5.005   1.533   9.604  1.1450 -0.2474 -1.5968
  137MOL0     H18461   4.854   1.128   9.724  0.5935  1.3632  1.9774
  137MOL0     H18462   5.000   1.092   9.617 -0.7348  1.1541 -0.9509
  137MOL0     H18463   4.996   1.166   9.905 -0.5877  0.1671  0.5827
  137MOL0     H18464   5.028   1.015   9.848  0.5055  0.7454  2.2114
  137MOL0     H18465   5.234   1.160   9.903  0.2133  1.2813  0.1304
  137MOL0     H18466   5.174   1.286   9.797 -0.5294 -1.0170  0.5605
  137MOL0     H18467   5.229   0.994   9.698  1.1041 -0.4447 -0.2995
  137MOL0     H18468   5.243   1.139   9.601 -3.8162  1.0931  1.7697
  137MOL0     H18469   5.434   1.035   9.816 -1.5411 -2.3927 -1.8824
  137MOL0     H18470   5.445   1.204   9.758  0.2377  0.0078 -0.5939
  137MOL0     H18471   5.458   1.102   9.521 -1.2083  0.8786  0.9398
  137MOL0     H18472   5.597   1.051   9.625  0.2415 -3.2840  1.7192
  137MOL0     H18473   5.359   0.868   9.558 -0.2220 -0.9836 -0.2454
  137MOL0     H18474   5.452   0.856   9.711  2.2045 -0.0835 -0.7717
  137MOL0     H18475   5.543   0.714   9.530 -0.5343  0.1858 -1.0073
  137MOL0     H18476   5.655   0.838   9.577  2.0018 -0.0988 -3.4408
  137MOL0     H18477   4.776   1.174   9.515 -2.9107 -0.6139  1.7439
  137MOL0     H18478   4.646   1.303   9.348 -0.5662  1.4745 -1.2107
  137MOL0     H18479   4.682   1.722   9.076  1.1486  2.7634 -0.0995
  137MOL0     H18480   4.603   1.912   8.976  0.7579  0.2097  2.2807
  137MOL0     H18481   5.283   2.466   8.039 -0.5811  0.0687 -0.0283
  137MOL0     H18482   5.522   2.542   7.964 -0.5903 -1.2687  1.3747
  137MOL0     H18483   5.687   2.999   7.583 -0.3812  0.0070 -0.2064
  137MOL0     H18484   5.931   3.051   7.524  1.6031 -0.7890 -0.4305
  137MOL0     H18485   6.146   2.994   7.406  0.9178 -0.7521  0.5893
  137MOL0     H18486   6.149   3.090   7.552  3.2489  0.9335  0.1355
  137MOL0     H18487   6.377   2.986   7.610  2.4768  0.9824 -1.2304
  137MOL0     H18488   6.369   3.055   7.448 -1.8178  0.4593 -0.9793
  137MOL0     H18489   6.378   2.847   7.341  1.3301  0.0838  0.3131
  137MOL0     H18490   6.305   2.772   7.486 -2.5157  2.2309 -1.0510
  137MOL0     H18491   6.516   2.675   7.433 -4.8911 -1.3222  2.9208
  137MOL0     H18492   6.536   2.761   7.585  3.1679 -0.0224 -0.2644
  137MOL0     H18493   6.799   2.954   7.311 -0.9673  0.6346 -0.7890
  137MOL0     H18494   6.040   2.700   7.741 -0.0957 -1.7517 -0.9219
  137MOL0     H18495   5.816   2.660   7.812 -0.0526  1.1778  2.7062
  138MOL0     O18496   6.589   4.766   2.863  0.6252 -0.4221 -0.1387
  138MOL0     C18497   6.651   4.743   2.964 -0.0135  0.0621  0.7718
  138MOL0     O18498   6.619   4.657   3.066 -0.5756 -0.2317 -0.6128
  138MOL0     C18499   6.501   4.585   3.070 -0.1246 -0.3511 -0.1122
  138MOL0     C18500   6.372   4.632   3.051 -0.0872 -0.2540  0.0453
  138MOL0     C18501   6.255   4.546   3.065  0.5243  0.3870 -0.4491
  138MOL0     C18502   6.278   4.408   3.095 -0.0295 -0.2522  0.0262
  138MOL0     O18503   6.182   4.310   3.107  0.0306 -0.5106  0.0912
  138MOL0     C18504   6.046   4.352   3.103  0.0081 -0.5894  0.1721
  138MOL0     C18505   5.955   4.226   3.077  0.0847 -0.2348 -0.1925
  138MOL0     C18506   5.958   4.175   2.932 -0.3442  0.0897 -0.4591
  138MOL0     C18507   5.835   4.079   2.923 -0.6678 -0.0858 -0.1163
  138MOL0     C18508   5.818   4.030   2.778 -0.1966 -0.7354 -1.0888
  138MOL0     C18509   5.892   3.895   2.774 -0.0679  0.4815 -0.4827
  138MOL0     C18510   5.915   3.856   2.627 -0.0063 -0.7887 -0.6725
  138MOL0     C18511   6.010   3.746   2.613 -0.3411 -0.1342 -0.0024
  138MOL0     N18512   5.940   3.621   2.625 -0.0848 -0.7830 -1.5226
  138MOL0     C18513   5.866   3.544   2.540 -0.0425  0.3301  0.4297
  138MOL0     C18514   5.819   3.437   2.605  0.8200  1.1201  0.1958
  138MOL0     C18515   5.712   3.334   2.555 -0.3570  0.4603  0.2466
  138MOL0     C18516   5.590   3.321   2.634 -0.1888 -0.8119 -0.4414
  138MOL0     C18517   5.521   3.450   2.620  0.3675 -0.6728  0.4853
  138MOL0     C18518   5.369   3.434   2.667 -0.0727  0.1456 -0.5463
  138MOL0     O18519   5.298   3.401   2.546 -0.1971  0.1633 -0.8716
  138MOL0     C18520   5.173   3.344   2.552  0.3550 -0.0353  0.7110
  138MOL0     C18521   5.113   3.301   2.438 -0.4963 -0.7042  0.3911
  138MOL0     C18522   4.994   3.225   2.434  0.0297  0.7409 -0.1968
  138MOL0     C18523   4.946   3.193   2.292  0.0739 -0.0655  0.1191
  138MOL0     C18524   4.923   3.208   2.555 -0.6242  0.9988 -0.8064
  138MOL0     C18525   4.784   3.148   2.573  0.0968  0.0674 -1.0737
  138MOL0     O18526   4.733   3.124   2.698  0.1172  0.4428  0.0834
  138MOL0     C18527   4.599   3.100   2.705  0.0780 -1.2953  0.1014
  138MOL0     C18528   4.554   2.974   2.671  1.0485 -0.9121  0.6442
  138MOL0     C18529   4.420   2.942   2.691 -0.3516  0.6859 -0.4778
  138MOL0     C18530   4.336   3.031   2.762  0.5665 -0.6223  0.3834
  138MOL0     O18531   4.194   3.015   2.766  0.1175  0.7018 -0.6042
  138MOL0     C18532   4.145   2.883   2.751  0.0589  0.9704  0.8919
  138MOL0     C18533   3.997   2.889   2.793  0.6409 -0.0406 -0.2230
  138MOL0     C18534   3.891   2.947   2.691  0.5940 -0.2404 -0.5194
  138MOL0     C18535   3.947   3.034   2.587  0.0828 -0.6871  0.4128
  138MOL0     C18536   3.841   3.104   2.507  0.9871 -0.5459 -0.4668
  138MOL0     C18537   3.755   2.992   2.437 -1.1862 -0.3871  0.0619
  138MOL0     C18538   3.673   3.062   2.323 -0.3355  0.3564  0.0830
  138MOL0     C18539   3.602   2.959   2.225  0.1117 -0.4680  0.1018
  138MOL0    Cl18540   3.472   3.041   2.136  0.2641  0.4094  0.1362
  138MOL0     C18541   4.382   3.158   2.809 -0.2768  0.4308  0.8386
  138MOL0     C18542   4.514   3.193   2.778 -0.1835  0.9713  0.1902
  138MOL0     O18543   4.719   3.139   2.474  0.4794  0.1804 -0.2607
  138MOL0     C18544   4.974   3.271   2.669 -0.6774  0.1695 -0.2912
  138MOL0     C18545   5.103   3.330   2.673  0.0595  0.3451 -0.8642
  138MOL0     N18546   5.882   3.437   2.730  0.0743 -0.2733  0.5679
  138MOL0     N18547   5.948   3.548   2.740 -0.1688 -1.0730  0.1346
  138MOL0     C18548   6.413   4.365   3.100 -0.4571  0.5093 -0.5087
  138MOL0     C18549   6.518   4.453   3.099  0.1867 -0.4048 -0.2247
  138MOL0     C18550   6.787   4.795   2.961  0.3731 -0.5583 -0.3687
  138MOL0     C18551   6.848   4.805   2.838 -0.7820 -0.1292  0.2541
  138MOL0     C18552   6.976   4.861   2.822 -0.4058  0.4342 -0.1390
  138MOL0     C18553   7.042   4.901   2.934  0.4602  0.3330 -0.0657
  138MOL0     O18554   7.165   4.945   2.909  0.3595  0.0665 -0.5966
  138MOL0     C18555   7.231   5.041   2.986  0.0165  0.2338 -0.3259
  138MOL0     C18556   7.156   5.170   3.000 -0.4316  0.3003  0.4309
  138MOL0     C18557   7.156   5.250   2.870  0.5266 -0.2500  0.2467
  138MOL0     C18558   7.273   5.294   2.801 -0.9902 -0.2609  0.1176
  138MOL0     C18559   7.351   5.395   2.883  0.0791 -0.4508 -0.1119
  138MOL0     C18560   7.418   5.470   2.955  0.7257  0.2673 -0.1705
  138MOL0     C18561   6.975   4.896   3.066 -0.0852  0.2597  0.2806
  138MOL0     C18562   6.851   4.838   3.076  0.0085 -0.1342 -0.1530
  138MOL0     H18563   6.348   4.735   3.028  1.1542 -0.2077 -1.1217
  138MOL0     H18564   6.157   4.591   3.053  0.8289  0.7746 -1.7318
  138MOL0     H18565   6.022   4.385   3.205 -0.2492 -0.0634 -0.0545
  138MOL0     H18566   6.017   4.433   3.035 -0.8747  1.3161  2.6380
  138MOL0     H18567   5.973   4.144   3.148  3.7208  1.6740  1.3327
  138MOL0     H18568   5.851   4.250   3.099 -0.4612 -2.0467 -0.5935
  138MOL0     H18569   5.936   4.257   2.864  1.8786  2.0479  1.0219
  138MOL0     H18570   6.047   4.121   2.899  0.4673  1.9220 -1.4329
  138MOL0     H18571   5.845   3.994   2.991  0.4400 -0.0789 -0.2543
  138MOL0     H18572   5.744   4.127   2.959 -0.7186 -1.3214  1.5198
  138MOL0     H18573   5.711   4.006   2.776 -0.8987  2.0327 -0.3891
  138MOL0     H18574   5.854   4.104   2.706 -0.2560 -0.2028 -0.5774
  138MOL0     H18575   5.983   3.904   2.833 -2.4211  0.5641  3.4633
  138MOL0     H18576   5.835   3.811   2.815  1.1136  0.3953  1.0576
  138MOL0     H18577   5.821   3.836   2.575 -1.9068  0.7576  1.9383
  138MOL0     H18578   5.957   3.945   2.579  0.9850  0.4699  2.3265
  138MOL0     H18579   6.079   3.769   2.694  0.2051  1.6048 -0.9072
  138MOL0     H18580   6.060   3.759   2.516  0.1349 -0.7908  0.1407
  138MOL0     H18581   5.840   3.582   2.442 -3.1629 -0.0065  1.0023
  138MOL0     H18582   5.697   3.356   2.449 -1.5253  0.7811  0.4642
  138MOL0     H18583   5.752   3.233   2.559  0.7444  0.6503 -2.9412
  138MOL0     H18584   5.616   3.299   2.738  2.1760  3.2997  0.0454
  138MOL0     H18585   5.528   3.238   2.599 -0.8341  0.1660 -1.6956
  138MOL0     H18586   5.525   3.477   2.514 -1.0512  0.9950  0.8125
  138MOL0     H18587   5.573   3.529   2.675  0.5485  0.9430 -1.8607
  138MOL0     H18588   5.320   3.522   2.711 -0.0090 -1.7956  3.8552
  138MOL0     H18589   5.363   3.358   2.745  2.5401  2.1823  1.8223
  138MOL0     H18590   5.163   3.304   2.342  0.0916 -4.2901  0.4563
  138MOL0     H18591   5.025   3.213   2.219 -1.8473  1.0561 -1.7727
  138MOL0     H18592   4.924   3.087   2.277 -1.8708 -0.0615  2.3728
  138MOL0     H18593   4.863   3.257   2.262 -0.3497  0.0708  1.5009
  138MOL0     H18594   4.612   2.889   2.637 -0.8974 -2.0191 -0.0591
  138MOL0     H18595   4.384   2.844   2.661  0.5686  0.3092 -0.3936
  138MOL0     H18596   4.146   2.846   2.648  1.4598  1.9293  0.5324
  138MOL0     H18597   4.203   2.815   2.815  1.1471 -1.4227 -2.3464
  138MOL0     H18598   3.971   2.783   2.802  0.0856  0.2098  1.4591
  138MOL0     H18599   3.991   2.933   2.893 -1.8825 -1.9570  0.5797
  138MOL0     H18600   3.811   2.995   2.749 -0.4322 -3.5633  1.0285
  138MOL0     H18601   3.840   2.862   2.645 -0.6927  0.9793 -1.4460
  138MOL0     H18602   4.016   3.104   2.636 -0.9492  0.4644  0.2561
  138MOL0     H18603   4.023   2.983   2.527  2.0730 -0.8279  2.8851
  138MOL0     H18604   3.886   3.175   2.437  0.2545  1.1109  0.6726
  138MOL0     H18605   3.780   3.171   2.569  0.5753 -1.9479  0.6874
  138MOL0     H18606   3.820   2.912   2.401  2.7122  3.4535 -2.2819
  138MOL0     H18607   3.688   2.948   2.512 -1.7710  1.0811  0.4351
  138MOL0     H18608   3.750   3.114   2.265  0.1914 -0.3473  0.1303
  138MOL0     H18609   3.599   3.122   2.376 -1.2574  0.1740 -0.9623
  138MOL0     H18610   3.549   2.892   2.294 -2.4180  0.8709 -0.4162
  138MOL0     H18611   3.669   2.902   2.160  1.8435 -0.2369  1.5806
  138MOL0     H18612   4.317   3.226   2.862 -0.9201  0.8126 -0.4082
  138MOL0     H18613   4.555   3.287   2.811 -1.1624  0.9257  1.6315
  138MOL0     H18614   4.923   3.267   2.765  0.8920 -2.0218  0.5282
  138MOL0     H18615   5.146   3.378   2.761  1.7570 -2.1988 -0.2132
  138MOL0     H18616   6.423   4.258   3.117 -0.0625  0.4628 -1.0054
  138MOL0     H18617   6.616   4.413   3.125  0.7073  2.2800  2.5802
  138MOL0     H18618   6.804   4.757   2.751  0.9213  2.0693 -1.9969
  138MOL0     H18619   7.023   4.868   2.724  3.5752 -0.9979  1.4752
  138MOL0     H18620   7.248   5.000   3.086  0.8373  0.3143 -0.4214
  138MOL0     H18621   7.324   5.053   2.928  0.5407 -0.1947  0.4115
  138MOL0     H18622   7.202   5.227   3.081  2.1680  1.2499 -1.5519
  138MOL0     H18623   7.050   5.151   3.022 -0.8208  1.9681  0.1332
  138MOL0     H18624   7.098   5.338   2.901  1.0289  0.9237 -1.9416
  138MOL0     H18625   7.092   5.196   2.799  2.8719 -0.1453 -2.1161
  138MOL0     H18626   7.246   5.333   2.702 -1.1370  0.9978  0.6386
  138MOL0     H18627   7.325   5.204   2.767 -2.5375 -0.9518 -0.5127
  138MOL0     H18628   7.462   5.517   3.041  0.3616 -0.1066  0.2250
  138MOL0     H18629   7.025   4.909   3.162  2.2644 -0.2099 -0.8087
  138MOL0     H18630   6.804   4.825   3.173  0.7687 -1.1127  0.0946
  139MOL0     O18631   5.287   9.876   6.702  0.1908  0.2761  0.6008
  139MOL0     C18632   5.326   9.779   6.640  0.9211  1.2469 -0.5918
  139MOL0     O18633   5.279   9.729   6.521 -0.1321 -0.0676  0.3548
  139MOL0     C18634   5.180   9.805   6.471  0.2459  0.4511 -0.7473
  139MOL0     C18635   5.191   9.866   6.345  0.5303  0.0687 -0.0073
  139MOL0     C18636   5.076   9.934   6.290  0.4367 -0.3602  0.5130
  139MOL0     C18637   4.962   9.958   6.364  0.2438 -0.7346 -0.4622
  139MOL0     O18638   4.857  10.037   6.321 -0.5070  0.2221 -0.4112
  139MOL0     C18639   4.898  10.160   6.280 -0.0997 -0.3668 -0.2329
  139MOL0     C18640   4.762  10.247   6.280 -0.2146  0.3724 -0.5679
  139MOL0     C18641   4.691  10.244   6.142 -0.0997  0.6549  0.2166
  139MOL0     C18642   4.595  10.353   6.103 -0.4007  1.0838 -0.4297
  139MOL0     C18643   4.465  10.345   6.180  0.8906  0.5211 -0.2512
  139MOL0     C18644   4.367  10.240   6.115  0.2256 -0.4945 -0.3775
  139MOL0     C18645   4.266  10.285   6.001 -0.6607 -0.5604  0.1398
  139MOL0     C18646   4.324  10.249   5.855 -0.0337 -0.7689 -0.3372
  139MOL0     N18647   4.224  10.293   5.753  0.2352  0.7887  0.3821
  139MOL0     C18648   4.174  10.214   5.662 -0.2138 -0.6079  0.5542
  139MOL0     C18649   4.088  10.292   5.597  0.0069  1.1012 -0.2616
  139MOL0     C18650   3.995  10.257   5.489  0.6887 -0.0546  0.9162
  139MOL0     C18651   3.856  10.214   5.539  0.2636 -0.5849  0.2626
  139MOL0     C18652   3.802  10.299   5.653  0.3738  0.4261 -0.2688
  139MOL0     C18653   3.752  10.440   5.609 -0.4616 -0.1749 -0.3790
  139MOL0     O18654   3.635  10.418   5.526 -0.0477  0.8684 -0.2815
  139MOL0     C18655   3.513  10.443   5.584  0.4183 -0.5796 -0.6413
  139MOL0     C18656   3.483  10.428   5.723 -0.6895  0.3412 -0.3309
  139MOL0     C18657   3.353  10.442   5.770  0.5404  0.2980 -0.8088
  139MOL0     C18658   3.348  10.420   5.924  0.1927  0.4063 -0.2356
  139MOL0     C18659   3.244  10.474   5.689  0.3426  0.5986  0.2794
  139MOL0     C18660   3.106  10.489   5.749  0.2775  0.3185  1.2323
  139MOL0     O18661   3.020  10.482   5.653 -0.1149 -1.0394  0.1796
  139MOL0     C18662   2.911  10.560   5.629 -0.3159  0.1400 -0.0747
  139MOL0     C18663   2.866  10.658   5.712 -0.0767  0.9633 -1.0370
  139MOL0     C18664   2.750  10.728   5.681 -0.2459  0.2281  0.2398
  139MOL0     C18665   2.668  10.697   5.567 -0.5638  0.7162 -0.0595
  139MOL0     O18666   2.567  10.781   5.538  0.1832 -0.0158 -0.2212
  139MOL0     C18667   2.486  10.746   5.423  0.1325 -0.1633 -0.3376
  139MOL0     C18668   2.359  10.824   5.432 -0.0347  0.4464  0.5019
  139MOL0     C18669   2.277  10.787   5.551 -1.0614  0.2234  0.9629
  139MOL0     C18670   2.141  10.849   5.538 -0.4449  0.2779  0.3811
  139MOL0     C18671   2.039  10.784   5.626 -0.1670  0.4653 -0.1343
  139MOL0     C18672   1.921  10.866   5.656  0.2353 -0.5451 -0.2573
  139MOL0     C18673   1.797  10.822   5.569 -0.4200  0.2438 -0.8714
  139MOL0     C18674   1.666  10.894   5.609  0.3888  0.4840 -0.6036
  139MOL0    Cl18675   1.626  10.867   5.776 -0.0111 -0.3893  0.2347
  139MOL0     C18676   2.721  10.594   5.482 -0.7275  1.1600  0.1120
  139MOL0     C18677   2.834  10.520   5.511 -0.2331 -0.8001 -0.6273
  139MOL0     O18678   3.077  10.506   5.869  0.0794 -0.2067 -0.1563
  139MOL0     C18679   3.267  10.475   5.548  0.4904 -0.2353 -1.1065
  139MOL0     C18680   3.395  10.455   5.499  0.2696 -0.5432 -0.0840
  139MOL0     N18681   4.095  10.411   5.647  0.9117 -0.4337  0.4811
  139MOL0     N18682   4.179  10.418   5.739  0.3449 -0.0060  0.2153
  139MOL0     C18683   4.948   9.882   6.483 -1.4400 -0.7192  0.2792
  139MOL0     C18684   5.054   9.809   6.532  0.3388  0.6996  0.1096
  139MOL0     C18685   5.413   9.681   6.720  0.5691 -0.1000  0.5235
  139MOL0     C18686   5.456   9.714   6.850 -0.3297  0.1252  0.8604
  139MOL0     C18687   5.528   9.616   6.928  0.0445 -0.4144 -0.1554
  139MOL0     C18688   5.576   9.494   6.885  0.8107 -0.3253  0.7549
  139MOL0     O18689   5.629   9.398   6.968 -0.4818  0.1001 -0.2235
  139MOL0     C18690   5.744   9.445   7.048  0.2777  0.6780 -0.2076
  139MOL0     C18691   5.850   9.542   6.998 -0.1538 -0.2677 -0.4816
  139MOL0     C18692   5.988   9.480   7.041  0.7577 -0.1402 -0.0267
  139MOL0     C18693   6.098   9.577   6.995 -0.3189 -0.0181  1.3587
  139MOL0     C18694   6.128   9.682   7.092  1.0081 -1.0006  0.1348
  139MOL0     C18695   6.164   9.767   7.173  0.6332 -0.3102  0.3900
  139MOL0     C18696   5.524   9.454   6.755 -0.0477  0.7226  0.2217
  139MOL0     C18697   5.445   9.542   6.676  0.1647  0.1845 -1.3025
  139MOL0     H18698   5.283   9.871   6.289 -1.0469 -1.4123 -2.9929
  139MOL0     H18699   5.084   9.993   6.199 -2.5921 -0.0408  0.3697
  139MOL0     H18700   4.976  10.203   6.343  0.8677 -0.9844 -0.9769
  139MOL0     H18701   4.922  10.154   6.173 -3.5353 -0.6404 -1.1075
  139MOL0     H18702   4.699  10.206   6.359  0.7348 -0.5682 -0.2660
  139MOL0     H18703   4.801  10.348   6.301  1.4554 -0.5373  1.0163
  139MOL0     H18704   4.773  10.229   6.071  0.2213 -2.6114  1.0969
  139MOL0     H18705   4.633  10.151   6.147 -0.1513  0.6937  0.3444
  139MOL0     H18706   4.650  10.447   6.115 -0.0718  0.6704  1.6636
  139MOL0     H18707   4.563  10.351   5.998  0.4643  0.3148 -0.6900
  139MOL0     H18708   4.481  10.317   6.285 -0.0788  2.6899  0.5451
  139MOL0     H18709   4.409  10.438   6.173  0.5549  0.2808 -0.8932
  139MOL0     H18710   4.435  10.171   6.064  1.4211  0.6589 -0.4200
  139MOL0     H18711   4.313  10.185   6.193 -0.8978  2.8055  1.3662
  139MOL0     H18712   4.172  10.232   6.021 -0.3744 -0.8481  0.7681
  139MOL0     H18713   4.238  10.390   6.006 -1.0696 -0.5900 -1.0916
  139MOL0     H18714   4.342  10.142   5.851  1.3469 -0.6428  1.2204
  139MOL0     H18715   4.418  10.303   5.840 -0.6801  0.8721  1.1294
  139MOL0     H18716   4.193  10.108   5.648  1.8039 -0.2164 -0.0034
  139MOL0     H18717   4.000  10.344   5.424  1.0116 -0.1109  0.8659
  139MOL0     H18718   4.039  10.174   5.433  1.4544 -0.4174  2.0284
  139MOL0     H18719   3.864  10.112   5.578  0.5395 -1.9804 -3.0611
  139MOL0     H18720   3.789  10.209   5.453  1.7056 -0.1559 -0.9242
  139MOL0     H18721   3.879  10.307   5.730  0.6064  0.9468 -0.5542
  139MOL0     H18722   3.722  10.243   5.702 -0.5581 -0.7638 -2.9308
  139MOL0     H18723   3.833  10.484   5.551 -1.3675  2.5581  0.2933
  139MOL0     H18724   3.739  10.511   5.691  3.1550  0.7152 -0.4212
  139MOL0     H18725   3.565  10.406   5.790 -0.8030 -1.3133 -0.6826
  139MOL0     H18726   3.281  10.493   5.969  0.2135 -0.0262  0.5226
  139MOL0     H18727   3.312  10.322   5.959 -1.4379  1.3389  0.8013
  139MOL0     H18728   3.444  10.435   5.976  1.4988  1.5000 -2.7813
  139MOL0     H18729   2.912  10.699   5.802  0.6584 -0.0766 -0.9272
  139MOL0     H18730   2.713  10.803   5.751 -0.1012 -0.5820  1.2089
  139MOL0     H18731   2.547  10.786   5.342  2.4056 -3.0037 -0.2012
  139MOL0     H18732   2.474  10.637   5.414 -0.7735 -0.3675  2.3838
  139MOL0     H18733   2.378  10.931   5.437  1.3500  0.1885  1.1872
  139MOL0     H18734   2.296  10.800   5.346 -0.7564  0.3270  1.0514
  139MOL0     H18735   2.325  10.817   5.644 -1.7170 -4.0211  2.9063
  139MOL0     H18736   2.274  10.677   5.553 -5.1817 -0.0140 -2.4441
  139MOL0     H18737   2.142  10.957   5.554 -3.3393  0.3756  0.3069
  139MOL0     H18738   2.098  10.849   5.438 -1.7595  5.5630  0.6439
  139MOL0     H18739   2.089  10.746   5.716 -1.8766 -1.1587  0.1994
  139MOL0     H18740   1.998  10.701   5.567  0.8108  2.0030 -3.1901
  139MOL0     H18741   1.895  10.856   5.762 -1.7736 -1.3476 -0.7820
  139MOL0     H18742   1.954  10.968   5.634  0.5862 -0.0218  2.3528
  139MOL0     H18743   1.785  10.715   5.587  2.0170  0.1595  0.6275
  139MOL0     H18744   1.804  10.841   5.461  1.9549  2.2951 -0.4562
  139MOL0     H18745   1.585  10.875   5.538 -0.3124 -0.9206  0.5080
  139MOL0     H18746   1.665  11.002   5.596 -1.1549  0.4085 -1.4432
  139MOL0     H18747   2.680  10.558   5.388  0.8084  0.4104 -0.3071
  139MOL0     H18748   2.881  10.445   5.449 -0.4306  0.0714 -1.8596
  139MOL0     H18749   3.193  10.491   5.471  1.0922 -3.0188 -2.3756
  139MOL0     H18750   3.404  10.453   5.391 -0.1687  5.3906 -0.5943
  139MOL0     H18751   4.860   9.896   6.544 -1.4332  0.0281  0.1303
  139MOL0     H18752   5.038   9.759   6.628  1.3037  0.6928  0.2775
  139MOL0     H18753   5.451   9.816   6.886 -1.7074  0.3316  0.1408
  139MOL0     H18754   5.560   9.641   7.028  0.7595  3.4192 -1.2045
  139MOL0     H18755   5.717   9.487   7.146 -0.2449  0.4155 -0.2356
  139MOL0     H18756   5.779   9.347   7.081  1.6443  1.6462  1.3757
  139MOL0     H18757   5.834   9.636   7.052  1.0630  1.0029 -2.2231
  139MOL0     H18758   5.843   9.568   6.892  1.3342  1.2270 -0.2496
  139MOL0     H18759   5.996   9.377   7.004 -1.0652 -0.4592  0.3785
  139MOL0     H18760   5.987   9.474   7.150  2.0078  2.2580  0.2011
  139MOL0     H18761   6.077   9.620   6.896 -0.1353  1.2022  1.8384
  139MOL0     H18762   6.188   9.516   7.006  0.5513  1.5028  3.0307
  139MOL0     H18763   6.197   9.838   7.246  1.1900  0.7748 -0.8816
  139MOL0     H18764   5.550   9.354   6.720  3.5870  1.6275 -0.0442
  139MOL0     H18765   5.398   9.504   6.586 -0.5683  0.6699 -1.1434
  140MOL0     O18766  10.222   9.859   8.830  0.1658  0.1816  0.4668
  140MOL0     C18767  10.223   9.892   8.712 -0.0836 -0.3503  0.1843
  140MOL0     O18768  10.113   9.904   8.635  0.5068  0.3492 -0.4008
  140MOL0     C18769   9.992   9.918   8.699 -0.3318  0.4948  0.4945
  140MOL0     C18770   9.904   9.810   8.706  0.8175 -0.4230  0.9270
  140MOL0     C18771   9.771   9.822   8.750 -0.4946  0.8185 -0.0765
  140MOL0     C18772   9.727   9.948   8.783  0.5242 -0.0849 -0.4753
  140MOL0     O18773   9.588   9.971   8.834  0.5654 -0.7158 -0.1554
  140MOL0     C18774   9.574  10.060   8.951  0.3941 -0.2379 -0.4142
  140MOL0     C18775   9.429  10.110   8.974 -0.1313  0.6910  0.6821
  140MOL0     C18776   9.314  10.008   8.937  0.3847 -0.2648  0.6530
  140MOL0     C18777   9.183  10.050   9.007  0.1668 -0.1177 -0.3073
  140MOL0     C18778   9.077   9.945   8.970  0.6655 -0.0894  0.7251
  140MOL0     C18779   8.937   9.983   9.007  0.1134  0.6199  0.4141
  140MOL0     C18780   8.830   9.890   8.944  0.0262  0.0166  0.1730
  140MOL0     C18781   8.697   9.927   9.013 -0.4740  0.2787 -0.5389
  140MOL0     N18782   8.672   9.861   9.147 -0.0889 -1.0540  0.1282
  140MOL0     C18783   8.652   9.729   9.180  0.1164 -0.5485  1.0381
  140MOL0     C18784   8.644   9.726   9.317 -0.5969 -0.6397  0.6713
  140MOL0     C18785   8.627   9.606   9.417  0.3846 -0.5852  0.1081
  140MOL0     C18786   8.478   9.599   9.443  0.4616  0.6328  0.0009
  140MOL0     C18787   8.438   9.689   9.567 -0.1786  0.0013  0.7025
  140MOL0     C18788   8.291   9.697   9.610 -0.2591  0.0349  0.9117
  140MOL0     O18789   8.286   9.782   9.717 -0.3721  0.0591  0.2130
  140MOL0     C18790   8.166   9.799   9.775 -0.0648 -0.5294  0.0355
  140MOL0     C18791   8.175   9.892   9.883 -0.1682  0.4806 -0.5265
  140MOL0     C18792   8.059   9.930   9.960  0.0884 -0.2838  0.7553
  140MOL0     C18793   8.084  10.022  10.074  0.3439 -0.1989 -0.5710
  140MOL0     C18794   7.938   9.873   9.927  0.5867  0.4899 -0.6930
  140MOL0     C18795   7.822   9.894  10.009 -0.4898 -0.2013  0.5496
  140MOL0     O18796   7.833   9.952  10.129  0.4033  0.0986 -0.0106
  140MOL0     C18797   7.721   9.946  10.206 -0.0475 -0.0907 -0.6453
  140MOL0     C18798   7.609  10.028  10.188  0.1508  0.7950  0.3853
  140MOL0     C18799   7.504  10.025  10.274 -0.5967  0.0497 -0.0027
  140MOL0     C18800   7.495   9.930  10.376 -0.5322 -0.3863 -0.4166
  140MOL0     O18801   7.380   9.916  10.449  0.3800  0.4261  0.3307
  140MOL0     C18802   7.350   9.802  10.536 -0.0426 -0.2291  0.3680
  140MOL0     C18803   7.199   9.788  10.550 -0.0779  0.5314 -0.1793
  140MOL0     C18804   7.138   9.868  10.665  0.8859  0.3878 -1.1359
  140MOL0     C18805   6.990   9.843  10.682 -0.1655 -0.1510  0.4491
  140MOL0     C18806   6.940   9.910  10.810 -0.8375  0.0483 -0.0052
  140MOL0     C18807   6.791   9.870  10.852  0.9996 -0.0805 -0.2392
  140MOL0     C18808   6.769   9.955  10.972  0.0343  0.7195 -0.3094
  140MOL0     C18809   6.628   9.915  11.023 -0.1123  0.5072  0.0494
  140MOL0    Cl18810   6.574  10.022  11.158  0.1354  0.3285 -0.0279
  140MOL0     C18811   7.605   9.851  10.397 -0.1023 -0.1864 -0.1502
  140MOL0     C18812   7.719   9.864  10.311  0.0644 -0.2170  0.2920
  140MOL0     O18813   7.718   9.841   9.965 -0.1413 -0.0588  0.2596
  140MOL0     C18814   7.932   9.779   9.822  0.5808  0.3577 -0.4706
  140MOL0     C18815   8.044   9.733   9.752  0.4711 -0.3612  0.0849
  140MOL0     N18816   8.665   9.855   9.358 -0.0083 -0.0949 -0.8352
  140MOL0     N18817   8.682   9.934   9.258 -0.1556 -0.1745  0.3474
  140MOL0     C18818   9.813  10.053   8.782 -0.9038  0.3267 -0.3728
  140MOL0     C18819   9.948  10.042   8.735 -0.4739  0.3583 -0.2187
  140MOL0     C18820  10.360   9.927   8.663 -0.2885  0.0307  0.7294
  140MOL0     C18821  10.469   9.914   8.741 -0.0679  0.3410 -0.5737
  140MOL0     C18822  10.599   9.947   8.699  0.7271  0.2197 -0.2100
  140MOL0     C18823  10.619   9.996   8.573 -0.4929 -0.2816 -0.0423
  140MOL0     O18824  10.743  10.042   8.534  0.0682  0.3008  1.0017
  140MOL0     C18825  10.757  10.105   8.400 -0.4557 -0.2225  0.1592
  140MOL0     C18826  10.901  10.097   8.348 -0.2318  0.0070 -0.5548
  140MOL0     C18827  10.996  10.175   8.442  0.1020  1.0434 -0.1255
  140MOL0     C18828  11.144  10.139   8.397  0.6922  0.1907 -0.3181
  140MOL0     C18829  11.250  10.216   8.468 -0.1300 -1.0112  0.3007
  140MOL0     C18830  11.340  10.276   8.530 -0.5230 -0.8122  0.3486
  140MOL0     C18831  10.511  10.018   8.493  0.1918  0.0111  0.0457
  140MOL0     C18832  10.380   9.989   8.537  0.6417 -0.1463  0.6667
  140MOL0     H18833   9.938   9.709   8.683  0.4639  0.2549 -3.3708
  140MOL0     H18834   9.722   9.726   8.758  2.1651 -0.6935 -0.7150
  140MOL0     H18835   9.604  10.007   9.042 -4.4438 -1.9999  0.4252
  140MOL0     H18836   9.636  10.150   8.955 -0.7206  0.5156  0.7609
  140MOL0     H18837   9.414  10.139   9.079  0.9908  0.1674  1.0102
  140MOL0     H18838   9.422  10.197   8.909 -3.5268 -0.2823 -0.4405
  140MOL0     H18839   9.292  10.006   8.830 -1.2144 -3.3270  0.9342
  140MOL0     H18840   9.337   9.905   8.967  1.3690 -0.7018 -1.4179
  140MOL0     H18841   9.197  10.045   9.115  1.8636 -0.8340 -0.5323
  140MOL0     H18842   9.142  10.146   8.974  1.5969 -0.0832 -2.1577
  140MOL0     H18843   9.079   9.941   8.860 -3.0494 -2.6112  0.5432
  140MOL0     H18844   9.107   9.848   9.011  1.3922 -0.2016 -0.0489
  140MOL0     H18845   8.937   9.985   9.116  1.4036 -0.8016  0.4717
  140MOL0     H18846   8.918  10.083   8.965 -1.9409 -1.6928 -5.0587
  140MOL0     H18847   8.822   9.913   8.837  2.6483  5.0211  0.7952
  140MOL0     H18848   8.856   9.787   8.973 -1.3939 -0.0947  1.1490
  140MOL0     H18849   8.623   9.892   8.941  1.6265 -0.2941 -2.5489
  140MOL0     H18850   8.673  10.034   9.021 -1.9197 -0.1257  1.1474
  140MOL0     H18851   8.629   9.649   9.109  0.2575 -1.1338  1.6377
  140MOL0     H18852   8.660   9.520   9.358  4.1147  0.7973 -0.0747
  140MOL0     H18853   8.694   9.608   9.503  1.4100  1.2893 -0.6703
  140MOL0     H18854   8.445   9.496   9.460 -2.0087  0.6717 -3.4150
  140MOL0     H18855   8.420   9.630   9.355  2.7577 -3.9495 -3.5368
  140MOL0     H18856   8.465   9.789   9.530 -2.4139  0.3471 -0.1324
  140MOL0     H18857   8.503   9.654   9.647 -0.0779 -0.7760  0.2902
  140MOL0     H18858   8.257   9.596   9.636 -2.3590  0.7719  1.2334
  140MOL0     H18859   8.237   9.729   9.521  1.4952  0.0655 -0.1903
  140MOL0     H18860   8.265   9.936   9.924 -0.4747  1.3181 -0.7236
  140MOL0     H18861   8.083   9.954  10.159 -1.5190  1.3847  0.7746
  140MOL0     H18862   8.175  10.080  10.060 -0.8537  1.7529 -0.6830
  140MOL0     H18863   8.006  10.098  10.088  2.2982  1.8009  0.0672
  140MOL0     H18864   7.608  10.108  10.115 -2.2548 -0.2547 -0.8460
  140MOL0     H18865   7.417  10.084  10.248 -2.6247 -2.5745  0.3654
  140MOL0     H18866   7.379   9.706  10.492  0.3460 -0.4280  1.0462
  140MOL0     H18867   7.394   9.814  10.636  0.4084  0.1863  0.1188
  140MOL0     H18868   7.158   9.820  10.454 -2.3361  2.4836  1.3250
  140MOL0     H18869   7.173   9.682  10.554  0.4628  0.3329 -1.5286
  140MOL0     H18870   7.152   9.976  10.652 -0.8343  0.9604  1.1644
  140MOL0     H18871   7.187   9.855  10.762  1.4936  2.0697 -1.1710
  140MOL0     H18872   6.945   9.883  10.591  1.3894 -1.1583 -0.8257
  140MOL0     H18873   6.965   9.737  10.680 -2.1056  0.2230  1.9638
  140MOL0     H18874   6.949  10.016  10.784  2.4689 -0.4371 -1.2287
  140MOL0     H18875   7.010   9.879  10.888  0.3950 -0.2991 -1.2228
  140MOL0     H18876   6.716   9.881  10.773 -0.8457  1.1828  1.6082
  140MOL0     H18877   6.796   9.764  10.879 -0.2439  0.3190  1.7915
  140MOL0     H18878   6.769  10.056  10.930 -1.1093  0.0276 -2.0935
  140MOL0     H18879   6.839   9.934  11.054 -0.1225 -1.2682 -0.6401
  140MOL0     H18880   6.638   9.808  11.043  3.4438  0.0073 -3.2671
  140MOL0     H18881   6.546   9.932  10.953 -0.1863 -0.3198 -0.0743
  140MOL0     H18882   7.604   9.789  10.486 -0.0583  2.0035  1.4456
  140MOL0     H18883   7.803   9.795  10.312 -0.8022 -1.3278 -0.4932
  140MOL0     H18884   7.837   9.730   9.802  2.5398 -3.2489 -1.9434
  140MOL0     H18885   8.035   9.659   9.673 -0.9014  1.6117 -1.7124
  140MOL0     H18886   9.789  10.154   8.812  3.5695  1.8179 -1.1429
  140MOL0     H18887  10.030  10.113   8.731 -0.5376  0.5278  1.0900
  140MOL0     H18888  10.461   9.880   8.844  2.6696 -2.8626 -1.2556
  140MOL0     H18889  10.681   9.938   8.769 -0.6321  0.5905  1.4909
  140MOL0     H18890  10.699  10.046   8.327 -0.0466 -1.1322  0.5580
  140MOL0     H18891  10.729  10.210   8.411 -0.4093  0.0749 -2.0840
  140MOL0     H18892  10.913  10.150   8.252  2.8855  2.2221  0.8887
  140MOL0     H18893  10.933   9.995   8.328 -1.1632  0.1357 -3.0706
  140MOL0     H18894  10.972  10.152   8.546 -1.6699 -0.0634 -0.7424
  140MOL0     H18895  10.974  10.281   8.428 -0.4147  1.1454  1.2771
  140MOL0     H18896  11.144  10.152   8.289  0.8908  0.2487 -0.3121
  140MOL0     H18897  11.158  10.031   8.410 -3.0228 -0.4179 -0.1473
  140MOL0     H18898  11.420  10.320   8.588  1.5246  1.3764 -3.7050
  140MOL0     H18899  10.512  10.051   8.390  0.3335 -0.7805 -0.2141
  140MOL0     H18900  10.302  10.009   8.464  0.9145  2.8950  1.0787
  141MOL0     O18901   1.102   5.830  10.868  0.3597  0.4326  0.6863
  141MOL0     C18902   1.092   5.758  10.769  0.5871 -1.2906  0.0961
  141MOL0     O18903   0.975   5.720  10.717 -0.2688  0.0813  0.1018
  141MOL0     C18904   0.853   5.746  10.769  0.6804 -0.2210  0.7438
  141MOL0     C18905   0.814   5.747  10.903 -0.4831  0.4947  0.2923
  141MOL0     C18906   0.686   5.752  10.940  0.1082 -0.2002  0.9285
  141MOL0     C18907   0.588   5.774  10.838 -0.7439  0.3806 -0.5440
  141MOL0     O18908   0.472   5.803  10.894  0.3518  0.3137  0.6849
  141MOL0     C18909   0.380   5.877  10.809  0.2401 -0.4271  0.0823
  141MOL0     C18910   0.283   5.950  10.920  0.1636  0.1201  0.7834
  141MOL0     C18911   0.343   6.079  10.978 -0.1745 -0.1149  0.1095
  141MOL0     C18912   0.224   6.178  10.995 -0.7337 -0.5518 -0.6338
  141MOL0     C18913   0.282   6.289  11.086 -0.4758 -0.0539  0.0962
  141MOL0     C18914   0.276   6.263  11.239  0.3880 -0.0857 -0.3504
  141MOL0     C18915   0.349   6.374  11.309  0.2156  0.3506  0.5101
  141MOL0     C18916   0.320   6.364  11.457  0.5189  0.2572 -0.6129
  141MOL0     N18917   0.345   6.232  11.513  0.2798  0.3298 -0.3698
  141MOL0     C18918   0.257   6.147  11.576 -0.2245  0.0316 -0.1346
  141MOL0     C18919   0.332   6.035  11.597 -0.1974 -0.0728 -0.0660
  141MOL0     C18920   0.284   5.896  11.643 -1.4943 -0.6962  0.0161
  141MOL0     C18921   0.132   5.880  11.625 -0.5598 -0.4170  0.5945
  141MOL0     C18922   0.083   5.736  11.655 -0.6086 -0.7705  0.9063
  141MOL0     C18923   0.092   5.698  11.805 -0.7679  0.3810 -0.1561
  141MOL0     O18924   0.039   5.566  11.837 -0.0919 -0.3836  0.1233
  141MOL0     C18925  -0.090   5.552  11.874 -0.3969  0.0376 -0.2698
  141MOL0     C18926  -0.137   5.421  11.884 -0.1542 -0.2504  0.9684
  141MOL0     C18927  -0.266   5.387  11.923  0.4531  0.8410  0.6455
  141MOL0     C18928  -0.304   5.241  11.921  0.9049  0.1740  0.7376
  141MOL0     C18929  -0.352   5.501  11.959 -0.8691  0.9639  0.0188
  141MOL0     C18930  -0.495   5.478  12.013  0.2556 -0.3855  0.4879
  141MOL0     O18931  -0.579   5.591  12.028  0.1950  0.5402 -0.3941
  141MOL0     C18932  -0.705   5.572  12.084  0.5831  0.0393 -0.1029
  141MOL0     C18933  -0.731   5.507  12.208  0.3076 -0.0905  0.1054
  141MOL0     C18934  -0.860   5.485  12.253  0.3934 -1.1019 -0.2659
  141MOL0     C18935  -0.971   5.535  12.186  0.2081  0.4914  0.1049
  141MOL0     O18936  -1.101   5.530  12.232  0.1576 -0.2501 -0.3563
  141MOL0     C18937  -1.128   5.433  12.329  0.6356  0.7187 -0.4019
  141MOL0     C18938  -1.279   5.443  12.369  0.1048  1.0423  0.1624
  141MOL0     C18939  -1.373   5.401  12.251  0.4191  0.0025 -0.0764
  141MOL0     C18940  -1.518   5.401  12.308  0.5319 -0.5598 -0.5729
  141MOL0     C18941  -1.617   5.327  12.227 -0.6084 -0.5437  0.4370
  141MOL0     C18942  -1.619   5.393  12.086  0.5180  0.4010  0.1879
  141MOL0     C18943  -1.744   5.340  12.006 -0.1980 -0.4078  0.3938
  141MOL0     C18944  -1.743   5.354  11.852  0.4121 -0.3229 -0.5294
  141MOL0    Cl18945  -1.623   5.253  11.772 -0.3710 -0.6908  0.2244
  141MOL0     C18946  -0.946   5.594  12.066  0.0256  0.0976  0.8181
  141MOL0     C18947  -0.816   5.607  12.006 -0.4637 -0.3818 -0.2950
  141MOL0     O18948  -0.517   5.366  12.058  0.5058  0.0538 -0.0481
  141MOL0     C18949  -0.310   5.629  11.929  0.1940  0.6976 -0.9833
  141MOL0     C18950  -0.181   5.656  11.899 -0.1452  0.1455 -0.5997
  141MOL0     N18951   0.470   6.057  11.557  0.8637 -0.2284  0.6120
  141MOL0     N18952   0.475   6.181  11.503 -0.0292  0.0619 -0.2249
  141MOL0     C18953   0.623   5.785  10.701  0.0550  0.6218  0.1368
  141MOL0     C18954   0.759   5.768  10.671  0.9418  0.5267  0.3271
  141MOL0     C18955   1.211   5.713  10.697  0.1281 -0.2976  0.0963
  141MOL0     C18956   1.336   5.770  10.703  0.3215  0.0775  0.3212
  141MOL0     C18957   1.445   5.716  10.631 -0.1867  0.3412 -0.3169
  141MOL0     C18958   1.430   5.602  10.549  1.0015  0.0622 -0.3702
  141MOL0     O18959   1.540   5.544  10.487  1.0267  0.6180  0.8301
  141MOL0     C18960   1.568   5.411  10.526  0.0935 -0.1071  0.0605
  141MOL0     C18961   1.699   5.366  10.497 -0.2402 -0.8439  1.0940
  141MOL0     C18962   1.812   5.446  10.562  0.1970  0.2554  0.6448
  141MOL0     C18963   1.853   5.402  10.702  0.3118  0.4849  0.1679
  141MOL0     C18964   1.975   5.465  10.735 -0.3596  0.3331  0.3161
  141MOL0     C18965   2.074   5.522  10.774 -0.3109 -0.3160 -0.2113
  141MOL0     C18966   1.306   5.539  10.539  0.6257 -0.6680 -0.1118
  141MOL0     C18967   1.200   5.594  10.611  1.1082  0.2892 -0.7221
  141MOL0     H18968   0.892   5.723  10.974 -1.1653  1.8579  1.5686
  141MOL0     H18969   0.664   5.748  11.047 -3.6022  2.3711  0.4413
  141MOL0     H18970   0.421   5.939  10.729  0.8845 -0.1218  0.6451
  141MOL0     H18971   0.327   5.794  10.761 -0.4140 -1.7290  2.8392
  141MOL0     H18972   0.184   5.969  10.877  0.8449  1.6470 -0.1711
  141MOL0     H18973   0.257   5.882  11.002 -1.5601  0.8736  0.9075
  141MOL0     H18974   0.395   6.051  11.070 -1.5469  0.9323  1.2527
  141MOL0     H18975   0.417   6.123  10.911  2.4554 -1.6029  1.8396
  141MOL0     H18976   0.201   6.228  10.901  0.7583 -0.1890 -0.8302
  141MOL0     H18977   0.128   6.141  11.034 -0.2078 -2.2603 -0.8667
  141MOL0     H18978   0.386   6.316  11.065  0.4645 -1.1374  2.8101
  141MOL0     H18979   0.223   6.374  11.052 -0.9333 -1.3648 -2.5985
  141MOL0     H18980   0.174   6.241  11.270  0.7782 -2.9497 -0.8113
  141MOL0     H18981   0.331   6.171  11.260 -0.3201 -0.1087  1.5236
  141MOL0     H18982   0.457   6.372  11.290 -0.0814  2.4278 -1.8098
  141MOL0     H18983   0.314   6.467  11.265 -1.7949 -0.6276 -0.0723
  141MOL0     H18984   0.220   6.406  11.467  0.7314  0.6192  0.0113
  141MOL0     H18985   0.381   6.440  11.506  0.1408 -1.5337  3.0165
  141MOL0     H18986   0.155   6.174  11.598 -1.1048 -0.6631 -2.8895
  141MOL0     H18987   0.342   5.826  11.582 -1.9680  0.2918 -1.6459
  141MOL0     H18988   0.317   5.879  11.746  0.6659  0.8419 -0.3567
  141MOL0     H18989   0.112   5.900  11.520 -1.5225  0.1525  0.8851
  141MOL0     H18990   0.084   5.961  11.681 -1.3588  0.9748 -1.9929
  141MOL0     H18991   0.128   5.660  11.591 -1.2383 -2.2100  2.1038
  141MOL0     H18992  -0.020   5.732  11.619 -0.1194 -2.0015 -0.4281
  141MOL0     H18993   0.042   5.781  11.855 -5.1824 -1.9279 -0.2255
  141MOL0     H18994   0.199   5.701  11.827 -0.7627  0.5520 -0.1979
  141MOL0     H18995  -0.068   5.342  11.855  1.1803  1.2581 -0.1679
  141MOL0     H18996  -0.311   5.200  12.022  0.0256 -2.2395 -0.2499
  141MOL0     H18997  -0.399   5.231  11.868  0.9337  0.9884  0.5171
  141MOL0     H18998  -0.223   5.184  11.874  0.3417 -2.0344  2.2913
  141MOL0     H18999  -0.651   5.477  12.274  0.2535  0.5674  0.4852
  141MOL0     H19000  -0.870   5.446  12.354 -0.9444 -1.3115 -0.4522
  141MOL0     H19001  -1.108   5.333  12.290  2.7394  1.6066 -1.8254
  141MOL0     H19002  -1.068   5.443  12.420 -0.9209 -2.0804  1.0662
  141MOL0     H19003  -1.293   5.382  12.459  1.2659  1.9224  0.9556
  141MOL0     H19004  -1.299   5.547  12.394 -0.7436  1.1406 -0.8226
  141MOL0     H19005  -1.343   5.300  12.224  1.1264  0.5332 -1.3572
  141MOL0     H19006  -1.364   5.467  12.164  1.6701  1.3214  1.0044
  141MOL0     H19007  -1.527   5.348  12.404  0.4206 -1.0196 -0.8343
  141MOL0     H19008  -1.551   5.504  12.323  2.3804 -0.2595  2.1717
  141MOL0     H19009  -1.717   5.341  12.269 -0.2906  0.8146  0.7906
  141MOL0     H19010  -1.577   5.226  12.222  0.1925 -0.2830  1.3301
  141MOL0     H19011  -1.617   5.501  12.102  0.8614  0.1652  1.9499
  141MOL0     H19012  -1.531   5.359  12.031 -0.1961 -3.0923  0.9269
  141MOL0     H19013  -1.838   5.386  12.036 -0.2899  1.1682 -2.0439
  141MOL0     H19014  -1.748   5.233  12.027 -0.2576 -0.7865 -1.3878
  141MOL0     H19015  -1.720   5.460  11.835  0.5969 -0.0443  1.3093
  141MOL0     H19016  -1.837   5.320  11.807 -0.3074  0.3427  0.4550
  141MOL0     H19017  -1.027   5.620  12.000 -1.4091 -0.8218  2.1549
  141MOL0     H19018  -0.819   5.634  11.901  0.9885 -1.2456 -0.5874
  141MOL0     H19019  -0.373   5.716  11.948  1.2108  1.2607 -0.0534
  141MOL0     H19020  -0.163   5.762  11.883 -1.8793  0.2437 -2.3011
  141MOL0     H19021   0.548   5.810  10.626  0.3609 -0.6325 -0.6215
  141MOL0     H19022   0.790   5.752  10.568  3.5823 -2.2412  1.3875
  141MOL0     H19023   1.358   5.859  10.760  0.1641 -0.2741  0.9335
  141MOL0     H19024   1.543   5.758  10.649 -0.7358  0.4549  2.9092
  141MOL0     H19025   1.544   5.385  10.630 -2.4652 -2.1672 -0.9253
  141MOL0     H19026   1.515   5.336  10.466 -0.6585  0.4263  0.0486
  141MOL0     H19027   1.719   5.359  10.390 -2.2309 -1.3370  0.7156
  141MOL0     H19028   1.700   5.263  10.533 -3.3221 -0.9107  1.2503
  141MOL0     H19029   1.789   5.551  10.580  0.1212  0.1754  1.0178
  141MOL0     H19030   1.892   5.433  10.488 -0.3365  4.5933 -0.9775
  141MOL0     H19031   1.857   5.293  10.706  0.4790  0.4554 -0.6221
  141MOL0     H19032   1.777   5.433  10.775 -0.3769  1.5737 -0.9558
  141MOL0     H19033   2.156   5.574  10.820  0.0329 -1.4552  0.5045
  141MOL0     H19034   1.288   5.459  10.467  0.8196 -0.7804 -0.0365
  141MOL0     H19035   1.108   5.537  10.605  1.4499 -0.4263  0.5910
  142MOL0     O19036   0.311   3.368   9.611 -0.5869 -0.0156 -0.3104
  142MOL0     C19037   0.248   3.415   9.703 -0.3405  1.4257 -0.3752
  142MOL0     O19038   0.299   3.476   9.817 -0.2975  0.3941  0.1585
  142MOL0     C19039   0.434   3.495   9.830 -0.0395  0.2426  0.6147
  142MOL0     C19040   0.519   3.595   9.779 -0.3220 -0.0375  1.3748
  142MOL0     C19041   0.655   3.576   9.778  0.2815 -0.9595  0.6155
  142MOL0     C19042   0.715   3.479   9.852  0.7573 -0.1508  0.3415
  142MOL0     O19043   0.844   3.484   9.820  0.3203 -0.0792  0.9651
  142MOL0     C19044   0.934   3.419   9.909  0.3986 -0.9253  0.1212
  142MOL0     C19045   1.082   3.451   9.874  0.1154 -0.2587 -0.2853
  142MOL0     C19046   1.125   3.360   9.761 -0.9000  0.0188  0.0570
  142MOL0     C19047   1.235   3.419   9.663  0.0599  0.2663 -0.5543
  142MOL0     C19048   1.289   3.305   9.575  0.5198 -0.8228 -0.3666
  142MOL0     C19049   1.392   3.352   9.479 -0.3661 -0.1882  0.1648
  142MOL0     C19050   1.495   3.246   9.440  0.4873  0.8261 -0.1850
  142MOL0     C19051   1.426   3.120   9.372 -0.1794 -0.4679 -0.7940
  142MOL0     N19052   1.517   3.042   9.294 -0.3861 -0.4699  0.1566
  142MOL0     C19053   1.653   3.034   9.317  0.2150  0.6297  0.0663
  142MOL0     C19054   1.694   2.950   9.218 -0.3204  0.2341 -0.5897
  142MOL0     C19055   1.825   2.892   9.187 -0.3878 -0.5287 -0.0884
  142MOL0     C19056   1.831   2.733   9.191  0.0171  0.0978 -0.0961
  142MOL0     C19057   1.938   2.663   9.111  0.0608 -0.0536 -0.2230
  142MOL0     C19058   2.083   2.702   9.127  0.1138  0.7165 -0.0604
  142MOL0     O19059   2.107   2.820   9.065  0.1427 -0.1392  0.0078
  142MOL0     C19060   2.227   2.888   9.088  0.4416 -0.2237 -0.0442
  142MOL0     C19061   2.232   3.022   9.051 -0.1455 -0.3572 -0.1462
  142MOL0     C19062   2.354   3.090   9.044 -0.8531 -0.4717 -0.5451
  142MOL0     C19063   2.358   3.239   9.011 -0.0860 -0.0402 -0.9462
  142MOL0     C19064   2.478   3.026   9.073 -1.3960  1.3030 -0.8988
  142MOL0     C19065   2.620   3.085   9.073  0.1865 -0.7793  0.7146
  142MOL0     O19066   2.721   3.022   9.130 -0.3549 -0.0467  0.0424
  142MOL0     C19067   2.851   3.051   9.102  0.2724  0.5719 -0.4931
  142MOL0     C19068   2.930   2.943   9.078  0.2138  1.2647  0.0122
  142MOL0     C19069   3.070   2.949   9.064 -0.5227 -0.3779  0.0658
  142MOL0     C19070   3.133   3.080   9.062  0.8909  0.1931  0.1568
  142MOL0     O19071   3.260   3.087   9.021 -0.0453  0.8157  0.3985
  142MOL0     C19072   3.332   3.197   9.075 -0.3477  0.5755  0.0114
  142MOL0     C19073   3.483   3.185   9.056  0.0503  0.1238  0.8571
  142MOL0     C19074   3.535   3.182   8.913 -0.9438 -0.4808  0.3983
  142MOL0     C19075   3.685   3.148   8.918 -0.4499 -0.3006 -0.6406
  142MOL0     C19076   3.749   3.116   8.779  0.3000 -0.1533  0.1231
  142MOL0     C19077   3.896   3.101   8.790 -0.3425  0.0662 -0.3672
  142MOL0     C19078   3.983   3.095   8.665  0.5366 -0.9558  0.1539
  142MOL0     C19079   4.126   3.040   8.687  0.2340  0.6055 -0.0590
  142MOL0    Cl19080   4.234   3.144   8.789  0.2250 -0.1162 -0.2086
  142MOL0     C19081   3.051   3.194   9.077  0.2101  0.0163 -0.6004
  142MOL0     C19082   2.913   3.176   9.093  0.0151 -1.2564 -0.0620
  142MOL0     O19083   2.633   3.198   9.029 -0.2571  0.5611  0.1169
  142MOL0     C19084   2.469   2.893   9.110 -0.0407  0.3316  0.0749
  142MOL0     C19085   2.344   2.824   9.116 -0.8532 -0.3808  0.6427
  142MOL0     N19086   1.588   2.914   9.138 -0.2178  0.4000  0.3137
  142MOL0     N19087   1.482   2.976   9.182  0.4558 -0.0196  0.2104
  142MOL0     C19088   0.637   3.385   9.922 -0.6574 -0.4071 -0.2723
  142MOL0     C19089   0.500   3.398   9.911  0.3032 -0.3010  0.5922
  142MOL0     C19090   0.102   3.402   9.709 -0.4170  0.1384  1.1902
  142MOL0     C19091   0.032   3.414   9.831 -0.0416 -0.0512 -1.1884
  142MOL0     C19092  -0.112   3.413   9.823  0.0971 -0.2880  0.1570
  142MOL0     C19093  -0.188   3.402   9.701  0.6657 -0.3485  0.2159
  142MOL0     O19094  -0.327   3.410   9.695 -0.0319  0.2893  0.0560
  142MOL0     C19095  -0.407   3.395   9.576  0.1405 -0.2052 -0.2141
  142MOL0     C19096  -0.552   3.390   9.629  0.2398  0.3908 -0.0732
  142MOL0     C19097  -0.647   3.337   9.520 -0.0954  0.1929  0.0320
  142MOL0     C19098  -0.793   3.369   9.554  0.3111  0.2049 -0.2552
  142MOL0     C19099  -0.839   3.316   9.681 -0.5101  0.2959  0.4348
  142MOL0     C19100  -0.896   3.275   9.785 -0.4521  0.2738  0.3405
  142MOL0     C19101  -0.109   3.398   9.586  0.2640  0.5677  0.7129
  142MOL0     C19102   0.028   3.400   9.587  0.7639 -0.2130  1.0107
  142MOL0     H19103   0.468   3.677   9.729 -0.1313 -1.0125 -0.5083
  142MOL0     H19104   0.707   3.652   9.721  0.2740  1.3500  3.4546
  142MOL0     H19105   0.915   3.460  10.009  0.9874  1.6743 -0.7602
  142MOL0     H19106   0.906   3.314   9.906  0.6553 -1.4815  5.7158
  142MOL0     H19107   1.083   3.559   9.853  0.0294 -0.1907  0.0592
  142MOL0     H19108   1.137   3.433   9.966 -1.5042  1.1183  1.0215
  142MOL0     H19109   1.162   3.269   9.809  1.5945 -0.7883 -3.1115
  142MOL0     H19110   1.040   3.331   9.698 -1.1335 -0.1404  0.4440
  142MOL0     H19111   1.190   3.499   9.603  2.1330  2.4212  0.5828
  142MOL0     H19112   1.320   3.466   9.714 -1.2753  0.1751  1.9065
  142MOL0     H19113   1.332   3.233   9.644 -0.3231  0.5653  1.7029
  142MOL0     H19114   1.215   3.246   9.520 -0.4962 -0.0667  0.1446
  142MOL0     H19115   1.351   3.393   9.386  0.0448  1.9868  0.8654
  142MOL0     H19116   1.445   3.426   9.540 -0.2280 -1.1930  1.2985
  142MOL0     H19117   1.564   3.272   9.359  4.0230 -2.3700  1.4771
  142MOL0     H19118   1.547   3.201   9.525 -1.0314 -1.5237 -0.3892
  142MOL0     H19119   1.349   3.155   9.303 -0.5990  1.9078  0.7698
  142MOL0     H19120   1.369   3.061   9.443  2.1794  0.5753  2.1905
  142MOL0     H19121   1.710   3.077   9.399 -0.0166  3.3215 -1.0866
  142MOL0     H19122   1.851   2.935   9.090  0.0548 -1.7587 -0.5334
  142MOL0     H19123   1.900   2.932   9.257  0.2408 -2.6391  0.5125
  142MOL0     H19124   1.732   2.690   9.172  0.9035 -0.5453 -4.0787
  142MOL0     H19125   1.844   2.699   9.294 -1.8607 -1.3400 -0.2977
  142MOL0     H19126   1.904   2.684   9.009 -4.0227 -4.3355 -0.1205
  142MOL0     H19127   1.929   2.555   9.130 -4.0765  0.0730 -0.4189
  142MOL0     H19128   2.134   2.623   9.072  2.1048 -2.2357  5.2524
  142MOL0     H19129   2.118   2.688   9.230 -0.8113 -1.8114 -0.0151
  142MOL0     H19130   2.143   3.074   9.017 -1.1889 -0.7482  1.8719
  142MOL0     H19131   2.405   3.304   9.086  2.5063 -1.4766 -1.2093
  142MOL0     H19132   2.404   3.253   8.913 -2.4544 -0.1050 -2.1420
  142MOL0     H19133   2.258   3.281   8.999 -0.3007 -0.1644  0.2510
  142MOL0     H19134   2.885   2.844   9.079  1.8344  0.4876  0.0523
  142MOL0     H19135   3.120   2.855   9.045 -2.9090 -1.7693  0.2841
  142MOL0     H19136   3.317   3.294   9.028 -0.3998 -0.2235 -1.6722
  142MOL0     H19137   3.315   3.223   9.180 -0.2698 -0.5872  0.3305
  142MOL0     H19138   3.524   3.278   9.097 -0.7824 -1.1533  5.0765
  142MOL0     H19139   3.517   3.098   9.112 -1.3723 -1.2640 -0.3401
  142MOL0     H19140   3.525   3.278   8.862  0.2982  0.5214  1.9228
  142MOL0     H19141   3.475   3.112   8.854 -1.8045  0.6257 -0.0938
  142MOL0     H19142   3.737   3.233   8.963  1.7130 -2.4931  1.3233
  142MOL0     H19143   3.698   3.067   8.991  1.2953  1.1464  0.7593
  142MOL0     H19144   3.717   3.192   8.707  1.4013 -1.4087 -1.7905
  142MOL0     H19145   3.701   3.025   8.742 -1.4032  0.8262 -0.1530
  142MOL0     H19146   3.926   3.195   8.837 -1.0101 -0.3177  0.8836
  142MOL0     H19147   3.915   3.014   8.855 -0.9609  0.4055  0.2839
  142MOL0     H19148   3.993   3.194   8.620  0.0663 -2.4737 -3.7041
  142MOL0     H19149   3.930   3.038   8.588 -1.9392  3.1434 -1.5349
  142MOL0     H19150   4.172   3.032   8.588 -1.5098  5.9336 -1.6582
  142MOL0     H19151   4.102   2.945   8.736  2.3894 -0.3022 -0.6383
  142MOL0     H19152   3.099   3.291   9.076 -0.5416  0.4605  1.4786
  142MOL0     H19153   2.852   3.262   9.120  1.2651 -1.1742  2.8604
  142MOL0     H19154   2.555   2.833   9.138  0.4337  1.6682  1.6781
  142MOL0     H19155   2.343   2.718   9.140 -1.5007  0.1624  3.4143
  142MOL0     H19156   0.694   3.308   9.972 -0.1293 -0.8553 -1.5194
  142MOL0     H19157   0.448   3.313   9.952  0.1365 -0.7331 -0.4742
  142MOL0     H19158   0.066   3.416   9.934  1.8708 -2.0585 -1.7050
  142MOL0     H19159  -0.161   3.409   9.920  2.1711 -2.1567  1.2408
  142MOL0     H19160  -0.388   3.483   9.513 -0.1568  1.3429  1.7680
  142MOL0     H19161  -0.374   3.300   9.531  0.9870  0.5833 -1.3316
  142MOL0     H19162  -0.587   3.487   9.667  0.9572 -0.0385  1.8388
  142MOL0     H19163  -0.559   3.328   9.719 -1.4818 -0.5171 -0.7962
  142MOL0     H19164  -0.642   3.228   9.525 -1.8877  0.1427  3.0709
  142MOL0     H19165  -0.629   3.379   9.420  0.7515  1.0887  0.5505
  142MOL0     H19166  -0.860   3.321   9.482 -2.9966 -1.3125  3.4884
  142MOL0     H19167  -0.810   3.477   9.554 -1.6870 -0.0319 -2.1134
  142MOL0     H19168  -0.942   3.239   9.875 -0.4857 -3.0473 -0.8907
  142MOL0     H19169  -0.164   3.402   9.493 -0.6585 -1.7285  1.0884
  142MOL0     H19170   0.084   3.413   9.494 -3.0619 -1.1894 -1.6681
  143MOL0     O19171   3.563  10.778   0.834 -0.0481  0.8584  0.0062
  143MOL0     C19172   3.545  10.850   0.935 -0.2531  0.4110 -0.4278
  143MOL0     O19173   3.643  10.880   1.029 -0.5715  0.4356  0.9783
  143MOL0     C19174   3.771  10.838   1.013 -0.2473  0.3948  0.2180
  143MOL0     C19175   3.868  10.932   1.034 -0.0226  0.4955 -0.0244
  143MOL0     C19176   4.011  10.902   1.035  0.1397 -0.1978 -0.5493
  143MOL0     C19177   4.061  10.765   1.009  0.8509 -1.0228 -0.5627
  143MOL0     O19178   4.188  10.709   1.005 -0.1986 -0.0340  0.6519
  143MOL0     C19179   4.294  10.795   0.956  0.2901  0.4037 -0.6476
  143MOL0     C19180   4.371  10.737   0.843  0.5917 -0.2228 -1.3095
  143MOL0     C19181   4.277  10.699   0.722  0.3773  0.1369  0.0677
  143MOL0     C19182   4.336  10.593   0.628  0.4083 -0.3252 -0.0695
  143MOL0     C19183   4.224  10.560   0.535  0.6190  0.6213 -1.2336
  143MOL0     C19184   4.277  10.472   0.427  0.9463  0.0632  0.6025
  143MOL0     C19185   4.141  10.416   0.343  0.0181  0.6259 -0.1912
  143MOL0     C19186   4.060  10.513   0.262  0.9525 -0.0851 -0.1559
  143MOL0     N19187   3.935  10.449   0.208  0.9221  0.4443  1.1014
  143MOL0     C19188   3.855  10.504   0.106 -0.4298  0.0358  0.1058
  143MOL0     C19189   3.745  10.428   0.111  0.6117 -1.3014 -0.5124
  143MOL0     C19190   3.629  10.452   0.024 -1.4336 -0.7385  0.3596
  143MOL0     C19191   3.520  10.511   0.113 -1.4027 -0.2807  0.9574
  143MOL0     C19192   3.410  10.568   0.035 -0.5968  0.7697 -0.3470
  143MOL0     C19193   3.348  10.687   0.108 -0.2485 -0.0040  0.2225
  143MOL0     O19194   3.230  10.733   0.027 -0.1531  0.0305  0.4328
  143MOL0     C19195   3.112  10.683   0.080  0.2645  0.1493 -0.0465
  143MOL0     C19196   3.097  10.560   0.152 -0.9469  0.7051  0.7094
  143MOL0     C19197   2.977  10.536   0.208  0.2194  0.4251 -0.5495
  143MOL0     C19198   2.976  10.413   0.287 -0.9225 -0.4014  0.0361
  143MOL0     C19199   2.863  10.615   0.201 -0.9471  0.3834  0.2882
  143MOL0     C19200   2.732  10.579   0.261 -0.1936 -0.0552 -0.0450
  143MOL0     O19201   2.739  10.529   0.385  0.2993  0.1056 -0.4652
  143MOL0     C19202   2.619  10.477   0.437 -0.7184  0.0960 -0.4017
  143MOL0     C19203   2.618  10.339   0.485 -0.2137 -0.5208 -0.2690
  143MOL0     C19204   2.504  10.290   0.543  0.6514  0.5627 -0.7887
  143MOL0     C19205   2.392  10.368   0.564  1.0800 -1.2642  0.3983
  143MOL0     O19206   2.288  10.308   0.634 -0.2029 -0.7424 -0.5478
  143MOL0     C19207   2.150  10.365   0.635 -0.3762 -0.5973 -0.6094
  143MOL0     C19208   2.076  10.245   0.678  0.7416  1.0156 -0.7673
  143MOL0     C19209   1.934  10.287   0.720 -0.6587  0.7175 -0.3109
  143MOL0     C19210   1.871  10.180   0.804  0.0778 -0.5020  0.7684
  143MOL0     C19211   1.734  10.234   0.847  1.4679 -0.7638 -0.4415
  143MOL0     C19212   1.636  10.261   0.731 -0.3277 -0.0796 -0.1915
  143MOL0     C19213   1.519  10.333   0.782 -0.2199 -0.0845 -0.6167
  143MOL0     C19214   1.394  10.341   0.688 -0.4563  0.1950  0.0652
  143MOL0    Cl19215   1.316  10.176   0.653 -0.3051 -0.0589  0.2284
  143MOL0     C19216   2.397  10.507   0.519  0.8526 -0.0726 -0.0361
  143MOL0     C19217   2.507  10.554   0.458 -1.0393 -0.6706 -0.2651
  143MOL0     O19218   2.632  10.593   0.193  0.3363 -0.5757 -0.0221
  143MOL0     C19219   2.874  10.731   0.126 -0.0136  0.2266 -0.6684
  143MOL0     C19220   2.999  10.763   0.074  0.2839 -0.0593  0.1134
  143MOL0     N19221   3.758  10.325   0.202 -0.6283  0.3350  0.3049
  143MOL0     N19222   3.876  10.331   0.249 -1.1537  0.0497  0.3539
  143MOL0     C19223   3.954  10.675   0.977  0.3414  0.2841  0.3191
  143MOL0     C19224   3.818  10.710   0.979  0.2684 -0.5871 -0.0087
  143MOL0     C19225   3.405  10.892   0.960  0.1366 -0.3204 -0.0299
  143MOL0     C19226   3.366  10.935   1.092  0.4156  0.5589  0.9011
  143MOL0     C19227   3.229  10.971   1.100  0.6103 -0.4680  0.1271
  143MOL0     C19228   3.135  10.973   0.995  0.4462 -0.6188  0.3684
  143MOL0     O19229   2.997  10.994   1.007 -0.2207  0.3231 -0.1995
  143MOL0     C19230   2.939  10.987   1.138 -0.2130  0.2534 -0.0707
  143MOL0     C19231   2.935  11.127   1.205  0.4569 -0.0056  0.9018
  143MOL0     C19232   2.876  11.121   1.344  0.0930 -0.6225 -0.4207
  143MOL0     C19233   2.900  11.264   1.415 -0.6438 -0.2962 -0.3098
  143MOL0     C19234   2.838  11.297   1.544 -0.1610 -0.6933  0.0266
  143MOL0     C19235   2.778  11.339   1.640  0.9878  0.4813  0.5192
  143MOL0     C19236   3.184  10.952   0.872 -0.6408 -0.4023  0.0455
  143MOL0     C19237   3.313  10.902   0.847 -0.2755 -0.4376 -0.4744
  143MOL0     H19238   3.852  11.033   1.069  1.1434  0.4788  0.6293
  143MOL0     H19239   4.072  10.983   1.073 -0.7838  0.6803 -0.8894
  143MOL0     H19240   4.253  10.893   0.929  2.8681  1.4967 -0.8476
  143MOL0     H19241   4.367  10.811   1.036 -0.7966 -2.2401  1.0110
  143MOL0     H19242   4.444  10.809   0.806  2.6675 -2.3821 -1.6341
  143MOL0     H19243   4.425  10.655   0.891 -1.1235 -1.8930 -2.0858
  143MOL0     H19244   4.186  10.653   0.762  1.9553 -1.8272  1.6204
  143MOL0     H19245   4.273  10.791   0.664  2.5466  0.2456 -0.0057
  143MOL0     H19246   4.425  10.614   0.566 -1.1813 -0.3851 -2.5264
  143MOL0     H19247   4.368  10.515   0.697 -0.3373 -0.5298  0.0478
  143MOL0     H19248   4.137  10.516   0.584  0.1351  1.2056 -1.5616
  143MOL0     H19249   4.178  10.644   0.482 -0.1041 -1.7296 -4.5898
  143MOL0     H19250   4.353  10.522   0.364  0.6486 -1.8804 -1.4396
  143MOL0     H19251   4.336  10.393   0.474  0.8311 -1.2077 -1.2942
  143MOL0     H19252   4.175  10.333   0.280 -0.6006 -0.4011  0.7753
  143MOL0     H19253   4.086  10.367   0.424  2.3997  0.3060  1.3578
  143MOL0     H19254   4.131  10.559   0.192  1.7666 -0.9731  0.0620
  143MOL0     H19255   4.031  10.592   0.331 -0.2281 -0.9802  0.3926
  143MOL0     H19256   3.875  10.594   0.049  1.4424 -1.2952 -1.4285
  143MOL0     H19257   3.638  10.517  -0.063 -3.2265  2.9842  2.7153
  143MOL0     H19258   3.592  10.355  -0.012 -1.9453  0.5423 -2.9247
  143MOL0     H19259   3.578  10.588   0.164  2.1027 -0.9272 -1.6309
  143MOL0     H19260   3.486  10.440   0.190 -1.1116  0.0703  1.4139
  143MOL0     H19261   3.332  10.492   0.023 -1.8763  2.1225 -0.9692
  143MOL0     H19262   3.444  10.603  -0.063  0.9327 -0.3231 -0.2396
  143MOL0     H19263   3.427  10.761   0.120 -0.1990 -0.3233  2.2572
  143MOL0     H19264   3.323  10.664   0.212  1.1370 -3.0744 -0.0019
  143MOL0     H19265   3.183  10.495   0.168  0.6523  1.6869 -2.8537
  143MOL0     H19266   3.059  10.348   0.257 -2.8315 -2.8100 -0.3722
  143MOL0     H19267   2.984  10.444   0.392  1.5665  0.4095 -0.3156
  143MOL0     H19268   2.889  10.352   0.260 -0.4719 -0.5112 -1.2241
  143MOL0     H19269   2.707  10.278   0.477  1.1818  1.3925  0.0651
  143MOL0     H19270   2.508  10.186   0.575 -0.8382  0.4296 -0.9336
  143MOL0     H19271   2.128  10.450   0.701 -2.5878 -0.4816 -1.4101
  143MOL0     H19272   2.109  10.388   0.537  0.3212 -3.1775 -1.5793
  143MOL0     H19273   2.062  10.174   0.597  0.1912  0.3153 -0.0713
  143MOL0     H19274   2.120  10.191   0.762  1.2178  1.1633 -0.9206
  143MOL0     H19275   1.881  10.295   0.625 -0.2803 -2.8356 -0.9390
  143MOL0     H19276   1.936  10.385   0.768 -0.6228  0.0665  1.0656
  143MOL0     H19277   1.860  10.087   0.747  0.7103 -0.3703  0.4187
  143MOL0     H19278   1.930  10.159   0.894  0.2446 -0.1610  0.7408
  143MOL0     H19279   1.745  10.323   0.909 -2.2035  0.5262 -1.3603
  143MOL0     H19280   1.694  10.150   0.905 -1.6748  0.0595 -1.1954
  143MOL0     H19281   1.678  10.323   0.651  2.0497 -0.3856  0.7514
  143MOL0     H19282   1.606  10.162   0.694  0.4060 -1.4452  2.6115
  143MOL0     H19283   1.558  10.434   0.793  0.6463 -0.6751  2.8254
  143MOL0     H19284   1.489  10.296   0.880 -1.7686 -0.3395 -1.1564
  143MOL0     H19285   1.415  10.393   0.594  1.1359 -0.7856 -0.1596
  143MOL0     H19286   1.333  10.412   0.744 -0.5996 -0.8428  1.2485
  143MOL0     H19287   2.317  10.580   0.515  0.7151 -0.2831 -3.4914
  143MOL0     H19288   2.520  10.656   0.422  1.1418 -1.4185 -1.8106
  143MOL0     H19289   2.793  10.803   0.119 -1.6339 -1.5769 -1.2827
  143MOL0     H19290   3.021  10.859   0.030  5.0895 -1.2102 -0.5055
  143MOL0     H19291   3.980  10.574   0.948 -2.1274 -0.7020  1.2528
  143MOL0     H19292   3.742  10.636   0.954 -0.9414  1.4925 -3.1164
  143MOL0     H19293   3.422  10.940   1.185  0.9926 -2.1501  0.7819
  143MOL0     H19294   3.195  11.004   1.198  1.3168  1.1319 -0.1400
  143MOL0     H19295   2.843  10.935   1.136 -0.4560  0.6059  1.2397
  143MOL0     H19296   3.002  10.924   1.202 -1.8130  0.4871  1.8273
  143MOL0     H19297   2.856  11.179   1.150 -0.7122 -2.8143 -0.2806
  143MOL0     H19298   3.025  11.189   1.192 -0.6925  1.6399  0.3912
  143MOL0     H19299   2.928  11.038   1.392  3.0873  1.4068  0.1357
  143MOL0     H19300   2.771  11.094   1.329  0.5340 -2.4400 -0.4638
  143MOL0     H19301   2.863  11.345   1.352 -0.6084  1.9675  2.3746
  143MOL0     H19302   3.007  11.284   1.431 -0.5686  2.4491 -3.2501
  143MOL0     H19303   2.727  11.363   1.732 -1.3132  0.9079 -0.7849
  143MOL0     H19304   3.108  10.968   0.796 -1.3836  0.8476  1.0259
  143MOL0     H19305   3.332  10.844   0.757 -2.2000 -2.6509  0.4235
  144MOL0     O19306   1.232   6.810   8.362  0.5227  0.0233  0.2178
  144MOL0     C19307   1.253   6.903   8.284  0.0840 -1.0871  0.3570
  144MOL0     O19308   1.155   6.986   8.232 -0.5677  0.5122  0.4411
  144MOL0     C19309   1.030   6.928   8.204  0.0949 -0.7661 -0.1920
  144MOL0     C19310   0.929   7.028   8.196 -0.4318  0.1470 -0.0403
  144MOL0     C19311   0.799   6.999   8.198  0.4019  0.2527 -0.2556
  144MOL0     C19312   0.759   6.865   8.203 -0.7679  0.8037  0.4433
  144MOL0     O19313   0.626   6.846   8.186 -0.3187  0.3323  0.4825
  144MOL0     C19314   0.573   6.732   8.243 -0.8834  0.5605 -0.2330
  144MOL0     C19315   0.421   6.761   8.213  0.0909  0.3286  0.6577
  144MOL0     C19316   0.395   6.733   8.063  0.6627  0.4068 -0.4563
  144MOL0     C19317   0.278   6.805   7.998  0.3446  0.1282  0.1379
  144MOL0     C19318   0.147   6.720   7.997  0.2772 -0.2628 -0.4139
  144MOL0     C19319   0.051   6.784   7.896 -0.0560 -0.4767  0.2352
  144MOL0     C19320  -0.077   6.708   7.882 -1.1459  0.1111 -0.3585
  144MOL0     C19321  -0.188   6.725   7.990  0.4789 -0.0071  0.6626
  144MOL0     N19322  -0.311   6.668   7.921  0.6526 -0.1666 -0.5304
  144MOL0     C19323  -0.328   6.535   7.891  0.1919  0.2410 -0.0257
  144MOL0     C19324  -0.461   6.523   7.855 -0.4817  0.2994 -0.6623
  144MOL0     C19325  -0.546   6.411   7.815 -0.0256 -0.0875 -0.1622
  144MOL0     C19326  -0.489   6.318   7.705  0.0405 -0.0622  0.1770
  144MOL0     C19327  -0.441   6.386   7.576 -0.5567 -0.1308  0.1764
  144MOL0     C19328  -0.554   6.469   7.512 -0.0771  0.1497  0.3471
  144MOL0     O19329  -0.659   6.392   7.464  0.0971 -0.1759  0.2750
  144MOL0     C19330  -0.779   6.447   7.430  0.1029 -0.8289  0.2026
  144MOL0     C19331  -0.888   6.361   7.421  1.0130  1.0304 -0.2629
  144MOL0     C19332  -1.009   6.408   7.366 -0.1192 -0.3579  0.6109
  144MOL0     C19333  -1.124   6.309   7.367  0.1077 -0.1374  0.1611
  144MOL0     C19334  -1.027   6.543   7.326  0.2123  1.0416 -0.2771
  144MOL0     C19335  -1.150   6.598   7.263  0.9851 -0.5175 -0.6327
  144MOL0     O19336  -1.269   6.544   7.299 -0.1482  0.7302 -0.4345
  144MOL0     C19337  -1.371   6.571   7.212 -0.3991  0.3199 -0.6374
  144MOL0     C19338  -1.389   6.495   7.092 -0.2133 -0.9274 -0.4595
  144MOL0     C19339  -1.488   6.532   6.999 -0.7307  0.8456 -1.0630
  144MOL0     C19340  -1.574   6.645   7.031 -0.2915 -0.3036  0.2496
  144MOL0     O19341  -1.660   6.696   6.939 -0.2744 -0.4644  0.9487
  144MOL0     C19342  -1.791   6.725   6.990  0.2322 -0.8021 -0.0928
  144MOL0     C19343  -1.887   6.727   6.873 -0.5995 -0.4581  1.2603
  144MOL0     C19344  -2.031   6.705   6.933  0.0905 -0.0360  0.1765
  144MOL0     C19345  -2.135   6.780   6.850 -0.9681 -0.6078  0.1315
  144MOL0     C19346  -2.277   6.732   6.890 -0.5724  0.6502  0.1656
  144MOL0     C19347  -2.394   6.801   6.823 -0.1699 -0.2190  0.1957
  144MOL0     C19348  -2.519   6.807   6.920 -1.5367 -0.3634 -0.0826
  144MOL0     C19349  -2.634   6.872   6.845  0.1609 -0.0119 -0.0622
  144MOL0    Cl19350  -2.775   6.873   6.962 -0.2569 -0.1804 -0.1595
  144MOL0     C19351  -1.543   6.725   7.145  0.6989 -0.2871  0.2081
  144MOL0     C19352  -1.451   6.679   7.240  0.2889 -0.7305  0.9628
  144MOL0     O19353  -1.132   6.692   7.189 -0.2331  0.2414  0.5084
  144MOL0     C19354  -0.921   6.627   7.349  0.1261 -1.2678 -0.3043
  144MOL0     C19355  -0.801   6.579   7.394  0.0993 -0.2336 -0.2665
  144MOL0     N19356  -0.510   6.653   7.859 -0.3572  0.5136  0.8184
  144MOL0     N19357  -0.424   6.735   7.887 -0.0433 -0.1920 -0.2995
  144MOL0     C19358   0.856   6.765   8.198  0.5270 -0.3182  0.1044
  144MOL0     C19359   0.989   6.799   8.215  0.3298 -0.0480 -0.0428
  144MOL0     C19360   1.402   6.942   8.251  0.6667  0.0320  0.4687
  144MOL0     C19361   1.508   6.877   8.311 -0.8490  0.0443 -0.6914
  144MOL0     C19362   1.636   6.919   8.300  1.1736  0.3401  0.6543
  144MOL0     C19363   1.671   7.018   8.210  0.5059 -0.5791 -0.1266
  144MOL0     O19364   1.793   7.077   8.183 -0.1348 -0.3549  0.8374
  144MOL0     C19365   1.920   7.022   8.222  0.0769 -0.4857  0.6851
  144MOL0     C19366   1.981   6.926   8.118  0.0503  0.1294 -0.4917
  144MOL0     C19367   1.895   6.793   8.111  0.3539  0.1401 -0.0160
  144MOL0     C19368   1.941   6.710   7.992 -0.4478  0.2872  0.6467
  144MOL0     C19369   2.076   6.657   8.016  0.5629  0.5511 -0.5027
  144MOL0     C19370   2.179   6.611   8.049 -0.0865 -0.6553  0.3925
  144MOL0     C19371   1.565   7.075   8.139  0.0422  0.3466  0.3346
  144MOL0     C19372   1.429   7.036   8.153 -1.2469  0.9153  0.5144
  144MOL0     H19373   0.955   7.132   8.212  1.2263 -0.3565  0.8085
  144MOL0     H19374   0.730   7.082   8.202 -0.0730 -0.0824 -1.0970
  144MOL0     H19375   0.617   6.639   8.205  2.1564  1.2287  1.3003
  144MOL0     H19376   0.611   6.732   8.345  0.2186  0.3594 -0.6216
  144MOL0     H19377   0.372   6.695   8.285 -0.2803  0.0781  0.1807
  144MOL0     H19378   0.398   6.864   8.239  0.4525  1.2886 -2.4156
  144MOL0     H19379   0.474   6.774   7.999 -0.2809  0.9226 -1.3347
  144MOL0     H19380   0.390   6.630   8.026  0.1798  1.1338 -2.5362
  144MOL0     H19381   0.262   6.902   8.046 -2.4331  1.1835 -2.5900
  144MOL0     H19382   0.314   6.817   7.895 -2.2174 -2.2981 -1.1950
  144MOL0     H19383   0.173   6.621   7.959 -1.9822 -1.6698  1.4506
  144MOL0     H19384   0.113   6.709   8.100 -0.2940  1.0308 -0.4429
  144MOL0     H19385   0.023   6.886   7.923  1.7708  0.1357  0.0062
  144MOL0     H19386   0.101   6.802   7.800  1.3517  2.2353  1.3811
  144MOL0     H19387  -0.115   6.747   7.787 -1.7104 -0.6209 -0.4440
  144MOL0     H19388  -0.039   6.606   7.874  0.0040  0.4279  0.7492
  144MOL0     H19389  -0.210   6.832   8.004  1.8987  0.3976  0.0226
  144MOL0     H19390  -0.162   6.677   8.084 -0.9430 -0.0191  1.0659
  144MOL0     H19391  -0.260   6.451   7.882 -1.4100 -0.8357 -3.9714
  144MOL0     H19392  -0.550   6.356   7.909 -0.6277  1.5576  0.8129
  144MOL0     H19393  -0.643   6.450   7.783  1.7027  1.7442 -3.8424
  144MOL0     H19394  -0.570   6.248   7.684 -1.4728  2.3412 -2.9288
  144MOL0     H19395  -0.397   6.272   7.742  0.3532 -0.2816 -0.8626
  144MOL0     H19396  -0.407   6.302   7.514 -1.0488 -0.1170 -0.1144
  144MOL0     H19397  -0.356   6.454   7.591 -0.9248  0.1885  0.8685
  144MOL0     H19398  -0.503   6.516   7.428  3.6129 -2.0429  1.1511
  144MOL0     H19399  -0.598   6.538   7.585 -0.5543 -0.8238  0.9983
  144MOL0     H19400  -0.876   6.258   7.454 -0.0969  1.1089  0.4439
  144MOL0     H19401  -1.100   6.203   7.359 -1.4608 -0.6156  1.1981
  144MOL0     H19402  -1.191   6.320   7.454  1.0512 -0.4520  0.9382
  144MOL0     H19403  -1.177   6.329   7.273  1.5194 -0.0442 -0.6458
  144MOL0     H19404  -1.327   6.408   7.072 -0.2463 -0.3534 -3.4454
  144MOL0     H19405  -1.495   6.473   6.908 -2.9446 -2.2698  0.9351
  144MOL0     H19406  -1.812   6.638   7.054  1.8060  0.7680  2.7426
  144MOL0     H19407  -1.800   6.810   7.058  1.8152  1.0942 -2.1049
  144MOL0     H19408  -1.881   6.820   6.816 -0.7692  1.1493  3.7585
  144MOL0     H19409  -1.859   6.643   6.808  0.3749  0.6027  0.2650
  144MOL0     H19410  -2.042   6.737   7.037  1.8933 -0.5508  0.5501
  144MOL0     H19411  -2.067   6.602   6.925 -2.0822  0.6933 -0.0378
  144MOL0     H19412  -2.127   6.886   6.873  0.4628 -1.2851  3.1559
  144MOL0     H19413  -2.124   6.773   6.741 -1.7017 -0.3979  0.0386
  144MOL0     H19414  -2.295   6.755   6.996 -3.1242 -1.1837  0.2365
  144MOL0     H19415  -2.293   6.624   6.880 -3.4800  1.1593 -2.2115
  144MOL0     H19416  -2.373   6.907   6.807 -0.0169 -0.2962 -0.1206
  144MOL0     H19417  -2.432   6.748   6.736 -1.3650 -0.2124  0.6908
  144MOL0     H19418  -2.491   6.863   7.010 -1.7571  2.4110 -1.6449
  144MOL0     H19419  -2.551   6.709   6.958 -1.8910  0.6819  2.5162
  144MOL0     H19420  -2.674   6.829   6.753  2.9025  1.3783 -2.0606
  144MOL0     H19421  -2.615   6.978   6.825  0.8794 -0.4751 -2.1057
  144MOL0     H19422  -1.599   6.814   7.171 -1.4269 -1.0264 -1.6063
  144MOL0     H19423  -1.429   6.739   7.327  3.7852 -1.7345  0.9104
  144MOL0     H19424  -0.933   6.733   7.334  0.3097 -1.1040  0.6236
  144MOL0     H19425  -0.723   6.655   7.403  0.3506 -0.7399  2.8638
  144MOL0     H19426   0.820   6.663   8.203  1.3825 -0.5759  1.9260
  144MOL0     H19427   1.066   6.723   8.219  0.2536 -0.1289 -0.1193
  144MOL0     H19428   1.482   6.795   8.378 -0.5379  1.2818  1.0036
  144MOL0     H19429   1.711   6.869   8.361  0.4088 -1.4691  0.1728
  144MOL0     H19430   1.987   7.107   8.235 -2.9701  2.6250 -2.1365
  144MOL0     H19431   1.907   6.978   8.322 -1.3211  0.2744  0.8579
  144MOL0     H19432   2.086   6.912   8.145 -0.8064 -0.5487  2.9604
  144MOL0     H19433   1.980   6.978   8.022 -1.3569  0.1285 -0.4968
  144MOL0     H19434   1.788   6.818   8.109  0.7906  2.3705  1.1311
  144MOL0     H19435   1.923   6.738   8.200  0.3886  0.4802  0.1859
  144MOL0     H19436   1.927   6.769   7.901 -0.2560  0.6316  0.8383
  144MOL0     H19437   1.874   6.624   7.985 -0.7294  0.6297 -1.5845
  144MOL0     H19438   2.270   6.564   8.081  1.9660  1.3200 -2.0337
  144MOL0     H19439   1.570   7.158   8.069  1.6485 -1.2348 -1.5419
  144MOL0     H19440   1.354   7.089   8.096 -0.8606  0.0089 -0.8787
  145MOL0     O19441   4.824   3.858   2.634 -0.2000  0.0095 -0.0045
  145MOL0     C19442   4.851   3.736   2.622  0.0261 -0.3691  0.1412
  145MOL0     O19443   4.972   3.676   2.638  0.3915 -0.6709 -0.1482
  145MOL0     C19444   5.082   3.756   2.604 -0.2018 -0.4927 -0.4192
  145MOL0     C19445   5.091   3.844   2.493  0.2873 -0.0050  0.0557
  145MOL0     C19446   5.213   3.911   2.458  0.6869  0.8864 -0.6947
  145MOL0     C19447   5.325   3.898   2.545  0.6933 -0.1983  0.1086
  145MOL0     O19448   5.442   3.980   2.509  0.1866  0.1334 -0.0072
  145MOL0     C19449   5.412   4.110   2.464 -0.5226 -0.4284  0.5099
  145MOL0     C19450   5.533   4.198   2.466 -1.1064  0.2745  0.2050
  145MOL0     C19451   5.502   4.324   2.380 -0.0044 -0.0137 -0.2136
  145MOL0     C19452   5.604   4.445   2.386  0.4436  0.4484  0.4543
  145MOL0     C19453   5.561   4.565   2.298 -0.9199  0.6795  0.6177
  145MOL0     C19454   5.681   4.666   2.281 -0.5044 -0.2885  0.0218
  145MOL0     C19455   5.691   4.760   2.403  0.3951 -0.2828 -0.6033
  145MOL0     C19456   5.807   4.868   2.396 -0.4531  0.2300  0.0810
  145MOL0     N19457   5.763   4.996   2.330  1.3222  1.4875 -0.5648
  145MOL0     C19458   5.787   5.027   2.204 -0.1522 -0.7220 -0.6731
  145MOL0     C19459   5.767   5.163   2.200  0.8176 -0.4011 -0.4689
  145MOL0     C19460   5.766   5.262   2.090  0.6922 -0.3763 -0.0764
  145MOL0     C19461   5.699   5.219   1.959  0.9054 -0.1958  0.3613
  145MOL0     C19462   5.566   5.149   1.984  0.5179  0.4988  0.0263
  145MOL0     C19463   5.475   5.148   1.862 -0.3550  0.1395  0.6846
  145MOL0     O19464   5.348   5.115   1.913  0.2327  0.6564 -0.5057
  145MOL0     C19465   5.252   5.084   1.820  0.9773 -0.2301  0.3335
  145MOL0     C19466   5.237   5.161   1.707 -0.3080 -0.2071  0.6914
  145MOL0     C19467   5.133   5.154   1.620 -0.1727  0.7305 -0.1473
  145MOL0     C19468   5.155   5.252   1.501 -0.1855  0.0624  0.2908
  145MOL0     C19469   5.033   5.058   1.646 -0.0288 -0.0567  0.4315
  145MOL0     C19470   4.922   5.031   1.551  0.4192 -1.0587  0.4385
  145MOL0     O19471   4.823   4.952   1.607 -0.7516 -0.5671 -0.2801
  145MOL0     C19472   4.715   4.916   1.540 -0.4617 -0.8671  0.1616
  145MOL0     C19473   4.616   5.016   1.516  0.5535  0.3704  0.1337
  145MOL0     C19474   4.501   4.991   1.441 -0.7952  0.8927  1.5757
  145MOL0     C19475   4.483   4.851   1.395  0.5909 -0.3004 -0.1548
  145MOL0     O19476   4.392   4.833   1.297 -0.0497  0.8763  0.4127
  145MOL0     C19477   4.316   4.715   1.299 -0.0183 -0.1358 -0.0194
  145MOL0     C19478   4.182   4.746   1.223 -0.0560 -0.0950  0.8731
  145MOL0     C19479   4.119   4.880   1.253 -0.9204  1.0631 -0.5819
  145MOL0     C19480   3.967   4.870   1.205  0.0931  0.0392 -0.0094
  145MOL0     C19481   3.889   5.000   1.241 -0.3932  0.4880  0.7323
  145MOL0     C19482   3.764   5.017   1.153 -0.7667 -0.6559 -0.5833
  145MOL0     C19483   3.670   5.121   1.213  0.7650 -0.0284 -0.3526
  145MOL0     C19484   3.558   5.156   1.117  0.3970 -1.1888  0.0143
  145MOL0    Cl19485   3.474   5.308   1.185 -0.0841  0.2179  0.1612
  145MOL0     C19486   4.591   4.760   1.410  0.2722  0.1325 -0.1261
  145MOL0     C19487   4.701   4.791   1.489 -0.3090  0.7172 -0.2354
  145MOL0     O19488   4.921   5.092   1.442 -0.0602  0.2896 -0.3299
  145MOL0     C19489   5.035   4.985   1.762 -1.6253  0.0266 -0.4163
  145MOL0     C19490   5.139   5.004   1.852 -0.1700  0.5711  0.3490
  145MOL0     N19491   5.721   5.196   2.318 -0.1144  0.9319 -0.5013
  145MOL0     N19492   5.712   5.094   2.398 -0.0926  0.0677  0.2338
  145MOL0     C19493   5.322   3.817   2.663  0.1870  0.8342 -0.1859
  145MOL0     C19494   5.198   3.745   2.688  0.1919 -0.1864  0.1734
  145MOL0     C19495   4.730   3.652   2.597 -0.4383  0.1854 -0.4395
  145MOL0     C19496   4.735   3.534   2.530  0.0010  0.2425  0.1727
  145MOL0     C19497   4.611   3.472   2.491 -0.0726  0.6205 -0.4074
  145MOL0     C19498   4.486   3.524   2.541 -0.1532 -0.3066 -0.0506
  145MOL0     O19499   4.359   3.469   2.520 -0.6564  0.5048 -0.2014
  145MOL0     C19500   4.333   3.359   2.423 -0.3918 -0.0917 -0.2517
  145MOL0     C19501   4.186   3.340   2.397 -0.3341 -1.3210 -1.3493
  145MOL0     C19502   4.149   3.243   2.286 -1.0544 -0.1434 -0.2629
  145MOL0     C19503   4.213   3.103   2.311  0.1993 -0.3302  0.0002
  145MOL0     C19504   4.138   2.993   2.241 -0.7213 -0.2248  0.1021
  145MOL0     C19505   4.081   2.895   2.186 -0.0010 -0.2553 -0.1039
  145MOL0     C19506   4.487   3.640   2.625 -0.2649  0.9276  0.3804
  145MOL0     C19507   4.607   3.702   2.650 -0.4119  0.5930 -0.2547
  145MOL0     H19508   5.005   3.845   2.427  1.3746  1.7011 -1.4104
  145MOL0     H19509   5.216   3.969   2.367 -0.3877  0.4994 -0.9911
  145MOL0     H19510   5.366   4.110   2.365 -2.5343  0.3230  1.3743
  145MOL0     H19511   5.339   4.156   2.531 -2.4728 -0.0035 -1.7589
  145MOL0     H19512   5.558   4.220   2.570 -0.6276 -0.8813  0.3475
  145MOL0     H19513   5.616   4.146   2.418 -2.3216  0.3374 -2.0895
  145MOL0     H19514   5.476   4.285   2.281  0.8061 -0.1200 -0.3939
  145MOL0     H19515   5.411   4.372   2.416  0.7307 -0.3741  2.2851
  145MOL0     H19516   5.606   4.477   2.490 -2.5870 -0.7061  0.9620
  145MOL0     H19517   5.706   4.412   2.364 -0.3550 -1.6304 -0.4732
  145MOL0     H19518   5.530   4.517   2.205 -2.5110  1.9887  0.4255
  145MOL0     H19519   5.472   4.615   2.339  2.5876  4.1202  5.1288
  145MOL0     H19520   5.773   4.608   2.271 -0.3149 -0.2779  1.5265
  145MOL0     H19521   5.669   4.708   2.180  1.2929 -1.7318 -0.8491
  145MOL0     H19522   5.591   4.801   2.417 -0.7156 -2.5510 -1.4633
  145MOL0     H19523   5.701   4.689   2.486 -3.4718 -2.2365 -1.5754
  145MOL0     H19524   5.887   4.820   2.339 -0.9687  1.6518 -1.9685
  145MOL0     H19525   5.841   4.889   2.498 -0.2309 -0.5733  0.1772
  145MOL0     H19526   5.804   4.960   2.120 -0.9422 -1.2173 -0.4445
  145MOL0     H19527   5.712   5.351   2.123  0.1379  0.6521 -3.3540
  145MOL0     H19528   5.871   5.293   2.080  0.7273  0.1643  1.6607
  145MOL0     H19529   5.771   5.161   1.901  2.1224 -0.0209  1.6244
  145MOL0     H19530   5.675   5.308   1.900  1.3015  1.3713  2.3973
  145MOL0     H19531   5.510   5.207   2.058 -0.7443 -0.7790  0.1315
  145MOL0     H19532   5.578   5.044   2.011  0.4333  0.2973 -0.6937
  145MOL0     H19533   5.512   5.068   1.797  1.8659  0.9270  0.9030
  145MOL0     H19534   5.469   5.249   1.823  1.4165  0.3281  0.8447
  145MOL0     H19535   5.322   5.225   1.687 -0.0379 -0.9457 -0.6386
  145MOL0     H19536   5.066   5.313   1.484 -1.0003 -1.6922 -2.1871
  145MOL0     H19537   5.238   5.321   1.518 -1.2420  0.5682  4.5588
  145MOL0     H19538   5.171   5.198   1.407  2.4344 -0.3920  0.9267
  145MOL0     H19539   4.616   5.119   1.550 -1.2029  0.0592  1.1816
  145MOL0     H19540   4.425   5.064   1.415 -1.6411 -0.9884 -1.9318
  145MOL0     H19541   4.366   4.639   1.238  0.6060  1.8900 -2.1977
  145MOL0     H19542   4.311   4.688   1.405  4.2813  2.2202  1.0083
  145MOL0     H19543   4.202   4.740   1.115 -1.2799 -0.5605  0.6508
  145MOL0     H19544   4.113   4.663   1.243  0.8263 -1.5416 -1.6522
  145MOL0     H19545   4.182   4.953   1.200 -0.1112  0.6065 -0.2573
  145MOL0     H19546   4.127   4.909   1.358 -1.0550 -0.8244 -0.0198
  145MOL0     H19547   3.964   4.846   1.098  0.9796 -0.7841  0.1392
  145MOL0     H19548   3.912   4.782   1.240  0.5471  0.5699  2.1517
  145MOL0     H19549   3.951   5.087   1.217 -2.7530  1.9782 -0.1962
  145MOL0     H19550   3.854   5.008   1.344 -1.0804 -2.1053  0.7663
  145MOL0     H19551   3.799   5.053   1.055 -0.5227  1.1495  0.1324
  145MOL0     H19552   3.718   4.921   1.131 -0.1581 -1.1758  0.3417
  145MOL0     H19553   3.723   5.215   1.230 -0.8311  1.0793 -1.1472
  145MOL0     H19554   3.625   5.087   1.306 -2.1920 -0.2299 -1.7446
  145MOL0     H19555   3.488   5.072   1.115 -0.8344 -0.1969 -0.4588
  145MOL0     H19556   3.604   5.176   1.019 -1.3799 -0.9758 -0.8257
  145MOL0     H19557   4.573   4.668   1.356 -1.2891 -0.6336  1.5842
  145MOL0     H19558   4.785   4.726   1.511  2.1342  4.2818  2.0296
  145MOL0     H19559   4.962   4.908   1.786 -0.2327 -1.7030 -1.4152
  145MOL0     H19560   5.128   4.943   1.941  0.5712 -0.6753 -0.3763
  145MOL0     H19561   5.405   3.812   2.732 -1.5541  0.6049  2.0244
  145MOL0     H19562   5.178   3.677   2.770 -0.4888 -0.7811 -0.4745
  145MOL0     H19563   4.827   3.486   2.497 -1.2161 -2.7448  0.8129
  145MOL0     H19564   4.609   3.380   2.433 -0.7914 -0.2161  0.9019
  145MOL0     H19565   4.384   3.375   2.328 -2.9623  0.8531 -1.5694
  145MOL0     H19566   4.371   3.272   2.478 -1.1227  0.9805  2.1031
  145MOL0     H19567   4.127   3.429   2.376  1.1844 -0.1196 -0.6911
  145MOL0     H19568   4.146   3.301   2.491  0.3956  0.3993 -0.2788
  145MOL0     H19569   4.184   3.283   2.190 -0.4819  0.7481  0.3100
  145MOL0     H19570   4.040   3.249   2.289 -1.0315  0.1168  0.0990
  145MOL0     H19571   4.215   3.073   2.416 -0.6416 -2.0443 -0.4443
  145MOL0     H19572   4.318   3.103   2.281  0.0280 -1.7822 -0.6743
  145MOL0     H19573   4.040   2.805   2.146  0.2772  0.6580 -2.6401
  145MOL0     H19574   4.394   3.684   2.657  0.2303  1.6396  0.8707
  145MOL0     H19575   4.610   3.789   2.715 -3.3353  0.9308 -0.4088
  146MOL0     O19576   8.083   6.585   1.088  0.0445  0.4432 -0.0416
  146MOL0     C19577   8.077   6.702   1.064 -0.9778  0.2337  0.9702
  146MOL0     O19578   7.990   6.757   0.976 -0.1706 -1.0167 -0.5864
  146MOL0     C19579   7.910   6.688   0.892  0.9912  0.4738 -0.2366
  146MOL0     C19580   7.959   6.602   0.792  0.2441 -0.5238 -0.6831
  146MOL0     C19581   7.864   6.546   0.700  0.2229  0.3663 -0.8938
  146MOL0     C19582   7.722   6.575   0.701 -0.9389 -0.4344  0.2737
  146MOL0     O19583   7.643   6.540   0.598 -0.3338 -0.0496  0.3606
  146MOL0     C19584   7.661   6.637   0.489  0.2343  0.6397  0.3821
  146MOL0     C19585   7.530   6.664   0.409  0.2740  0.5308  0.2197
  146MOL0     C19586   7.403   6.692   0.497 -0.0613  0.0235 -0.1986
  146MOL0     C19587   7.331   6.556   0.515 -0.2150  0.0480 -0.1744
  146MOL0     C19588   7.223   6.559   0.622 -0.0618  0.2158  0.8791
  146MOL0     C19589   7.164   6.417   0.664  0.2575 -0.4163  0.4776
  146MOL0     C19590   7.061   6.434   0.775  0.1879 -0.1760  0.1774
  146MOL0     C19591   6.952   6.530   0.746  0.3986  0.2776  0.9483
  146MOL0     N19592   6.832   6.494   0.828 -0.2737  1.2415  0.6683
  146MOL0     C19593   6.738   6.410   0.790 -0.1431  0.5030 -0.0253
  146MOL0     C19594   6.651   6.432   0.889  0.1151  0.4493 -0.8617
  146MOL0     C19595   6.511   6.376   0.907  0.5896 -0.1938 -0.3387
  146MOL0     C19596   6.435   6.381   0.774  0.1404 -0.4501  0.3684
  146MOL0     C19597   6.298   6.321   0.798  0.8312 -0.3225  0.7699
  146MOL0     C19598   6.202   6.318   0.681  0.5298 -0.6010  0.5711
  146MOL0     O19599   6.109   6.217   0.706 -1.0342 -0.8033  0.1901
  146MOL0     C19600   5.995   6.207   0.635  0.3178  0.6302  0.3622
  146MOL0     C19601   5.968   6.264   0.510  0.6234  0.3085  0.3381
  146MOL0     C19602   5.840   6.249   0.449 -0.5588 -0.4202 -1.1099
  146MOL0     C19603   5.816   6.299   0.312 -0.9657 -0.7287  0.0190
  146MOL0     C19604   5.738   6.175   0.516  0.5112 -0.4148  0.2744
  146MOL0     C19605   5.603   6.155   0.465  0.3461 -0.0244 -1.2215
  146MOL0     O19606   5.532   6.057   0.537  0.2600  0.5729  0.2566
  146MOL0     C19607   5.403   6.036   0.513  0.3231  0.3299 -0.3579
  146MOL0     C19608   5.369   5.904   0.488 -1.0636  0.6327 -0.3849
  146MOL0     C19609   5.232   5.858   0.456  0.5593 -0.0822 -0.1894
  146MOL0     C19610   5.132   5.945   0.480  0.4487  0.4673 -0.5917
  146MOL0     O19611   4.995   5.904   0.469  0.3259 -0.4171 -0.3393
  146MOL0     C19612   4.891   6.003   0.481  0.4319 -1.1788 -0.0154
  146MOL0     C19613   4.764   5.928   0.433  0.3903 -0.1460  0.6707
  146MOL0     C19614   4.641   6.021   0.429  0.2719  0.4829  0.3364
  146MOL0     C19615   4.624   6.091   0.556  0.0513  0.7124 -0.5129
  146MOL0     C19616   4.484   6.145   0.572  0.7450 -0.0829 -0.5270
  146MOL0     C19617   4.449   6.242   0.460  0.2867 -0.8859  0.4233
  146MOL0     C19618   4.305   6.276   0.461 -0.0694 -0.5848 -0.2160
  146MOL0     C19619   4.267   6.338   0.326  0.9141 -0.4967 -0.1968
  146MOL0    Cl19620   4.096   6.415   0.350 -0.3077 -0.3175  0.0145
  146MOL0     C19621   5.172   6.075   0.514  0.5530 -0.1313  0.1108
  146MOL0     C19622   5.300   6.119   0.528 -0.5566  0.5967  1.0428
  146MOL0     O19623   5.549   6.227   0.384 -0.2700  0.2431  0.6697
  146MOL0     C19624   5.762   6.122   0.641  0.5918 -0.7593 -0.2873
  146MOL0     C19625   5.889   6.134   0.699 -0.6975 -0.1044 -0.4143
  146MOL0     N19626   6.710   6.494   0.990  0.5837  0.7612  0.3002
  146MOL0     N19627   6.819   6.540   0.952 -0.2901  0.1031 -0.8726
  146MOL0     C19628   7.676   6.667   0.799  0.1098  0.1873 -0.0556
  146MOL0     C19629   7.771   6.720   0.895 -0.5534 -0.3230  0.9447
  146MOL0     C19630   8.185   6.787   1.122 -1.0992 -0.1527  0.1637
  146MOL0     C19631   8.287   6.740   1.208 -0.2660  0.3869  0.0585
  146MOL0     C19632   8.390   6.822   1.253 -0.1410  0.4951  0.9320
  146MOL0     C19633   8.399   6.963   1.213  0.2674  1.2694 -0.3661
  146MOL0     O19634   8.507   7.044   1.243 -0.0217  0.2932  0.1994
  146MOL0     C19635   8.604   7.000   1.341  0.2797 -0.9886  0.0515
  146MOL0     C19636   8.708   7.110   1.359 -1.3706 -1.1979  0.2891
  146MOL0     C19637   8.791   7.136   1.229  0.1924  1.0882 -0.0163
  146MOL0     C19638   8.910   7.231   1.238 -0.0264 -0.2950 -0.2441
  146MOL0     C19639   9.030   7.167   1.284  0.6339  0.0073 -0.9157
  146MOL0     C19640   9.140   7.125   1.319 -0.3606 -0.3233 -0.1479
  146MOL0     C19641   8.302   7.006   1.126 -0.4717 -0.1389 -0.7845
  146MOL0     C19642   8.196   6.924   1.085  0.9966  0.5020  0.3928
  146MOL0     H19643   8.065   6.585   0.775 -0.2677 -1.1650 -4.0161
  146MOL0     H19644   7.900   6.477   0.624  0.0855 -1.0243  0.2602
  146MOL0     H19645   7.699   6.735   0.520  0.1604  1.6422 -2.3763
  146MOL0     H19646   7.733   6.610   0.412  0.2251  1.6609 -0.0020
  146MOL0     H19647   7.550   6.756   0.353  0.0680  0.9370  0.7979
  146MOL0     H19648   7.506   6.594   0.328 -4.1486  2.3608 -0.3533
  146MOL0     H19649   7.448   6.730   0.589 -2.3360 -0.3473  1.1127
  146MOL0     H19650   7.340   6.769   0.452  0.4129  0.5857  0.0730
  146MOL0     H19651   7.287   6.523   0.421  0.0042 -1.7055  0.3097
  146MOL0     H19652   7.403   6.485   0.557  0.7348  1.0019 -0.1301
  146MOL0     H19653   7.258   6.615   0.709 -2.2974  1.7765  0.8882
  146MOL0     H19654   7.142   6.624   0.587  2.0365  2.9735  0.8549
  146MOL0     H19655   7.114   6.387   0.572 -0.2567  0.7287  0.3652
  146MOL0     H19656   7.241   6.349   0.700  1.5797  0.7247 -0.1088
  146MOL0     H19657   7.013   6.338   0.794  0.2732 -0.3767 -0.6231
  146MOL0     H19658   7.121   6.475   0.858  1.3492 -1.1799 -0.1410
  146MOL0     H19659   6.932   6.523   0.638  1.7150 -0.9728  0.7552
  146MOL0     H19660   6.991   6.630   0.765  2.1074  1.0520 -4.6953
  146MOL0     H19661   6.717   6.355   0.699  0.9771 -0.2705  0.1553
  146MOL0     H19662   6.504   6.278   0.955  1.4519 -1.1410 -2.0732
  146MOL0     H19663   6.457   6.451   0.967 -0.8835  0.5373 -2.4756
  146MOL0     H19664   6.475   6.310   0.702  0.1061 -1.1482  1.0295
  146MOL0     H19665   6.431   6.484   0.737  1.2118 -0.1855  0.9547
  146MOL0     H19666   6.249   6.383   0.873  0.5836  0.0122  0.3379
  146MOL0     H19667   6.315   6.221   0.838 -0.6576 -0.9270  0.0016
  146MOL0     H19668   6.252   6.283   0.590 -0.5572 -0.0350 -0.2701
  146MOL0     H19669   6.148   6.413   0.681 -2.0804 -1.9935  0.2608
  146MOL0     H19670   6.044   6.321   0.457 -0.9010  2.7904  0.6406
  146MOL0     H19671   5.907   6.327   0.258 -1.5579  3.5816  0.9140
  146MOL0     H19672   5.772   6.224   0.245  0.1772 -0.9039 -0.5675
  146MOL0     H19673   5.757   6.391   0.311 -0.0383  0.0354 -4.2465
  146MOL0     H19674   5.451   5.833   0.477 -1.6599  0.1437 -2.0002
  146MOL0     H19675   5.208   5.756   0.430 -0.2190 -0.5208  2.0337
  146MOL0     H19676   4.889   6.050   0.580  0.2985  2.7605 -1.6818
  146MOL0     H19677   4.911   6.086   0.412  0.7485  0.3831  1.8647
  146MOL0     H19678   4.780   5.885   0.334  0.8695  1.3744  0.0535
  146MOL0     H19679   4.737   5.852   0.506 -1.4732 -0.0834  0.1029
  146MOL0     H19680   4.564   5.948   0.401  1.2696 -0.7712  0.7916
  146MOL0     H19681   4.639   6.095   0.348 -1.6999  0.3704  0.2327
  146MOL0     H19682   4.645   6.013   0.631 -0.4111 -0.1995 -1.3203
  146MOL0     H19683   4.696   6.172   0.574  2.7900 -1.8160  0.7976
  146MOL0     H19684   4.470   6.181   0.674 -0.6901 -1.3730 -0.2471
  146MOL0     H19685   4.415   6.062   0.554 -0.0187  0.6260 -0.9330
  146MOL0     H19686   4.501   6.338   0.460 -0.4727 -0.4627  1.1407
  146MOL0     H19687   4.467   6.193   0.363  1.1031 -0.0664  0.1487
  146MOL0     H19688   4.294   6.344   0.545 -0.6453 -1.5345  0.5076
  146MOL0     H19689   4.241   6.187   0.475  2.0025 -2.2012 -0.5569
  146MOL0     H19690   4.255   6.265   0.246 -1.1925 -2.0910  1.4249
  146MOL0     H19691   4.334   6.421   0.304  1.0754 -0.5299  0.1617
  146MOL0     H19692   5.103   6.146   0.558 -0.6640 -1.5193  0.5251
  146MOL0     H19693   5.317   6.220   0.566  1.3721  0.9273 -0.5217
  146MOL0     H19694   5.687   6.070   0.700  1.1680 -3.3522 -1.6960
  146MOL0     H19695   5.912   6.101   0.800  3.9488 -1.5033 -1.6757
  146MOL0     H19696   7.571   6.696   0.800 -0.3066 -1.2264 -0.8079
  146MOL0     H19697   7.743   6.789   0.973 -2.9480 -1.2569  0.9898
  146MOL0     H19698   8.283   6.637   1.240 -0.4678  0.5473  0.5568
  146MOL0     H19699   8.460   6.776   1.322 -1.1844 -2.6941  0.0278
  146MOL0     H19700   8.557   6.975   1.437  0.4280 -1.7155 -0.0581
  146MOL0     H19701   8.648   6.904   1.312  1.0284 -0.3361 -1.0748
  146MOL0     H19702   8.785   7.067   1.424  1.0683 -1.1630 -2.4071
  146MOL0     H19703   8.676   7.203   1.406 -1.5370 -0.9836 -0.2388
  146MOL0     H19704   8.725   7.181   1.154 -0.9745  0.4794  0.6340
  146MOL0     H19705   8.817   7.040   1.185  0.4034  0.2803  1.7952
  146MOL0     H19706   8.886   7.324   1.291  1.6786  0.2983 -0.4491
  146MOL0     H19707   8.933   7.256   1.134 -1.7939 -0.9332 -0.8185
  146MOL0     H19708   9.227   7.073   1.354 -0.2320 -0.2873 -0.4139
  146MOL0     H19709   8.296   7.104   1.078  0.8374  2.0024  3.0318
  146MOL0     H19710   8.111   6.958   1.028  0.9911 -1.0387 -0.5939
  147MOL0     O19711   6.575   8.659   1.874 -0.4126 -0.3466 -0.3214
  147MOL0     C19712   6.591   8.583   1.778  0.2316 -0.1473 -0.7187
  147MOL0     O19713   6.547   8.597   1.653  0.1217  0.2387 -0.5357
  147MOL0     C19714   6.461   8.704   1.626  0.2549  0.3666 -0.7139
  147MOL0     C19715   6.467   8.780   1.509 -1.2456  0.4223 -0.7711
  147MOL0     C19716   6.403   8.906   1.502  0.7001 -0.3265 -0.5684
  147MOL0     C19717   6.303   8.939   1.596  0.1017 -0.0129  0.1475
  147MOL0     O19718   6.241   9.061   1.553  0.1870  0.1341 -0.3496
  147MOL0     C19719   6.147   9.102   1.661 -0.0162  0.0330  0.1731
  147MOL0     C19720   6.063   9.217   1.600 -0.2456 -0.4576 -0.8055
  147MOL0     C19721   5.935   9.252   1.685 -1.8615  0.4439 -0.0639
  147MOL0     C19722   5.818   9.156   1.659 -0.1411  0.2123 -0.5001
  147MOL0     C19723   5.694   9.219   1.739 -0.4326 -0.4115  0.1448
  147MOL0     C19724   5.588   9.110   1.772 -0.9682  0.7300  0.3921
  147MOL0     C19725   5.471   9.179   1.823  0.5785 -0.0300 -0.1015
  147MOL0     C19726   5.349   9.086   1.830 -0.1295  0.5812  0.9435
  147MOL0     N19727   5.244   9.124   1.921  0.2198  0.0864 -0.0081
  147MOL0     C19728   5.249   9.191   2.040  0.1889  0.9177 -0.6318
  147MOL0     C19729   5.121   9.193   2.086  0.1125  0.1771 -0.2948
  147MOL0     C19730   5.078   9.255   2.223 -0.9677 -0.4086 -0.1867
  147MOL0     C19731   5.062   9.412   2.218  1.2078  0.2011  0.1790
  147MOL0     C19732   4.981   9.454   2.091 -0.4135  0.4623 -0.2680
  147MOL0     C19733   4.839   9.409   2.089  0.0025  0.1576 -0.6642
  147MOL0     O19734   4.772   9.469   2.207  0.1053 -0.2586  0.4101
  147MOL0     C19735   4.695   9.587   2.189 -1.1073 -0.4938 -0.2149
  147MOL0     C19736   4.711   9.685   2.089  0.3894 -1.0829 -0.0458
  147MOL0     C19737   4.630   9.798   2.079  0.1362 -0.2283  0.4227
  147MOL0     C19738   4.658   9.886   1.960  0.2990  0.8686 -0.0421
  147MOL0     C19739   4.519   9.796   2.164 -0.2605 -0.1683 -0.2811
  147MOL0     C19740   4.406   9.899   2.157 -0.4917  0.0680 -0.8223
  147MOL0     O19741   4.311   9.895   2.261 -0.0299  0.0917  0.4807
  147MOL0     C19742   4.198   9.969   2.257 -0.1265 -0.1072 -0.2940
  147MOL0     C19743   4.160  10.045   2.375  0.1731  0.0613 -0.6117
  147MOL0     C19744   4.047  10.120   2.368 -0.4933  0.7333  0.4972
  147MOL0     C19745   3.967  10.135   2.254  0.9492 -0.2596  0.1167
  147MOL0     O19746   3.856  10.211   2.260 -0.3687 -0.6460  0.0521
  147MOL0     C19747   3.865  10.323   2.344  0.4955  0.1054  0.0482
  147MOL0     C19748   3.736  10.409   2.326 -0.4140  0.6073 -0.0576
  147MOL0     C19749   3.744  10.527   2.422 -0.0470 -0.3083 -0.1003
  147MOL0     C19750   3.642  10.638   2.392  0.1899 -0.0904  0.3445
  147MOL0     C19751   3.715  10.761   2.319  0.1256  0.5868 -0.3628
  147MOL0     C19752   3.615  10.839   2.233 -0.0424 -0.3367  0.1539
  147MOL0     C19753   3.518  10.920   2.310  0.0520  0.0082  0.3859
  147MOL0     C19754   3.443  11.012   2.208 -0.0287  0.7134 -0.9476
  147MOL0    Cl19755   3.378  11.155   2.285  0.0134 -0.0366 -0.1167
  147MOL0     C19756   4.006  10.067   2.139 -0.2404  0.0502  0.0076
  147MOL0     C19757   4.120   9.984   2.145 -0.4041  0.5657 -0.2412
  147MOL0     O19758   4.421   9.992   2.074 -0.0062  0.7542 -0.0050
  147MOL0     C19759   4.502   9.695   2.266  0.6037  0.5922 -0.4127
  147MOL0     C19760   4.596   9.594   2.283  0.0166 -0.0356 -0.0514
  147MOL0     N19761   5.040   9.137   1.990  0.0113 -1.2264  0.1768
  147MOL0     N19762   5.114   9.097   1.896  0.9716  0.8229  0.4901
  147MOL0     C19763   6.281   8.857   1.701 -0.3556 -0.2988 -0.8514
  147MOL0     C19764   6.362   8.745   1.728 -0.5015  0.5301  0.1756
  147MOL0     C19765   6.673   8.470   1.808 -0.2429  0.4686  0.7567
  147MOL0     C19766   6.697   8.428   1.942  0.0821  0.1256  0.1112
  147MOL0     C19767   6.787   8.322   1.960  1.1156 -0.5764 -1.0733
  147MOL0     C19768   6.846   8.243   1.853  0.4202  0.6234  0.2578
  147MOL0     O19769   6.919   8.139   1.886 -0.0868  0.5850  0.0162
  147MOL0     C19770   6.988   8.056   1.779  0.0718 -0.6355 -0.2660
  147MOL0     C19771   7.092   7.961   1.842 -0.0306 -0.9050  0.3416
  147MOL0     C19772   7.188   7.903   1.739  0.5146  0.0594 -0.1630
  147MOL0     C19773   7.304   7.831   1.793 -0.2837 -0.0494  0.7226
  147MOL0     C19774   7.274   7.720   1.880  0.2465 -0.2911 -0.6010
  147MOL0     C19775   7.253   7.625   1.958 -0.4208 -0.6504  0.2631
  147MOL0     C19776   6.826   8.290   1.724  0.1210 -0.8470  0.0837
  147MOL0     C19777   6.740   8.404   1.702 -0.4008  0.9503 -1.1799
  147MOL0     H19778   6.538   8.739   1.438  1.4571  2.9015  0.2979
  147MOL0     H19779   6.403   8.978   1.421 -1.2681 -0.4228 -0.7046
  147MOL0     H19780   6.079   9.018   1.680  0.6746 -0.1709  1.9669
  147MOL0     H19781   6.186   9.134   1.757  0.5910  0.8738 -0.3460
  147MOL0     H19782   6.128   9.305   1.598  0.1758 -0.6379  1.8794
  147MOL0     H19783   6.029   9.188   1.500 -1.7470  0.4299 -0.5820
  147MOL0     H19784   5.955   9.258   1.792  1.7829 -0.5914 -0.5349
  147MOL0     H19785   5.902   9.349   1.648 -0.8568 -0.4631 -3.8035
  147MOL0     H19786   5.792   9.164   1.553 -1.4690  0.9053 -0.1325
  147MOL0     H19787   5.833   9.054   1.694 -4.4808 -0.8124 -1.1277
  147MOL0     H19788   5.725   9.267   1.833 -2.7056  1.7405 -0.1092
  147MOL0     H19789   5.649   9.298   1.678 -2.4090  0.7791  2.9226
  147MOL0     H19790   5.568   9.063   1.675  1.9083  3.6939 -1.9035
  147MOL0     H19791   5.615   9.033   1.844 -2.3255 -0.8412 -0.6917
  147MOL0     H19792   5.499   9.217   1.922  2.9866  1.3705 -1.2323
  147MOL0     H19793   5.447   9.269   1.766 -1.5221  0.6276  1.6783
  147MOL0     H19794   5.374   8.982   1.855 -3.2786 -0.8925 -1.3129
  147MOL0     H19795   5.295   9.084   1.735 -1.4837  1.0690  1.6753
  147MOL0     H19796   5.340   9.230   2.084  0.5507 -0.0212 -0.5472
  147MOL0     H19797   4.978   9.227   2.256 -1.1620 -1.5564 -1.6639
  147MOL0     H19798   5.151   9.233   2.301  0.4763  2.4961 -0.5744
  147MOL0     H19799   5.159   9.463   2.219  2.2273 -1.6376  0.2138
  147MOL0     H19800   5.004   9.450   2.302 -0.6272  1.7337 -1.6694
  147MOL0     H19801   5.021   9.415   1.997  0.2160 -0.8133  0.5037
  147MOL0     H19802   4.975   9.563   2.088 -1.6973  0.4490  0.7918
  147MOL0     H19803   4.821   9.302   2.103  0.2596  0.1240 -0.5782
  147MOL0     H19804   4.791   9.421   1.991  1.3196 -4.3602 -2.0995
  147MOL0     H19805   4.798   9.676   2.024  0.0455  0.5396 -0.7778
  147MOL0     H19806   4.645   9.988   1.997  0.5281  0.0415  2.5219
  147MOL0     H19807   4.754   9.865   1.911  1.4263  2.1538  1.5202
  147MOL0     H19808   4.576   9.876   1.888  1.6674  0.8987 -1.6615
  147MOL0     H19809   4.220  10.043   2.466 -0.9857 -3.3580  0.2116
  147MOL0     H19810   4.025  10.160   2.466  0.6504 -2.1431  2.0438
  147MOL0     H19811   3.862  10.294   2.450 -1.9666  0.9130  0.2613
  147MOL0     H19812   3.948  10.392   2.323 -1.0068  1.6309 -1.0806
  147MOL0     H19813   3.732  10.444   2.222  1.5306 -1.7430 -1.0307
  147MOL0     H19814   3.644  10.354   2.349  1.4425 -2.2775  1.0147
  147MOL0     H19815   3.842  10.572   2.402 -0.0274 -0.3886 -0.1849
  147MOL0     H19816   3.741  10.508   2.530 -0.4757  2.4435  0.4632
  147MOL0     H19817   3.571  10.589   2.325  3.3082 -1.4820 -2.2420
  147MOL0     H19818   3.580  10.661   2.479  1.4976 -1.9211  1.8411
  147MOL0     H19819   3.798  10.720   2.261  0.4328 -0.0612  0.5047
  147MOL0     H19820   3.766  10.826   2.392  2.2571 -0.5604 -0.7526
  147MOL0     H19821   3.668  10.901   2.160 -0.8845 -0.5258 -0.6407
  147MOL0     H19822   3.569  10.764   2.168 -0.5453 -1.4830  1.7534
  147MOL0     H19823   3.582  10.988   2.368  2.6805  1.2499 -3.5823
  147MOL0     H19824   3.446  10.867   2.372 -0.8797  2.7786  1.8573
  147MOL0     H19825   3.362  10.948   2.172  1.1893 -1.0745 -0.6509
  147MOL0     H19826   3.516  11.044   2.133 -0.9041  0.3526 -1.9785
  147MOL0     H19827   3.951  10.082   2.046  0.8975 -0.4788 -0.7780
  147MOL0     H19828   4.143   9.927   2.055  2.0934  1.1937 -0.0814
  147MOL0     H19829   4.415   9.681   2.330  3.0208 -1.9347  2.6572
  147MOL0     H19830   4.589   9.519   2.361  2.6457  1.8685  2.2103
  147MOL0     H19831   6.223   8.883   1.789  2.5480 -1.8454  1.7010
  147MOL0     H19832   6.356   8.697   1.825  1.3372 -0.4507 -0.1366
  147MOL0     H19833   6.655   8.482   2.026 -2.2867  2.0898 -2.1817
  147MOL0     H19834   6.801   8.282   2.060  3.4371 -0.5706 -1.3462
  147MOL0     H19835   6.910   8.009   1.718 -0.1487  1.3034 -1.5794
  147MOL0     H19836   7.043   8.130   1.721  0.6405  2.8104  4.1790
  147MOL0     H19837   7.048   7.879   1.898  0.5256 -1.7852 -0.4870
  147MOL0     H19838   7.156   8.027   1.900  1.0299  0.3348 -2.0960
  147MOL0     H19839   7.223   7.984   1.673 -0.2698  0.6067  0.0834
  147MOL0     H19840   7.138   7.819   1.690 -0.6779 -0.2468  1.5150
  147MOL0     H19841   7.369   7.911   1.828  0.7360  0.1570 -1.4632
  147MOL0     H19842   7.359   7.790   1.708 -0.8742 -1.9029  1.1682
  147MOL0     H19843   7.228   7.544   2.024 -5.0919  1.4938  1.5599
  147MOL0     H19844   6.857   8.248   1.629  1.8391  1.5384 -0.5010
  147MOL0     H19845   6.727   8.432   1.598  2.0796  1.3033 -1.4552
  148MOL0     O19846   3.015   8.127   4.690  0.3885 -0.1264 -0.0847
  148MOL0     C19847   3.108   8.047   4.704 -0.0073  0.3840 -0.1682
  148MOL0     O19848   3.114   7.958   4.821 -0.1254  0.1068  0.4052
  148MOL0     C19849   3.019   7.950   4.923  0.2816  0.6346  0.0095
  148MOL0     C19850   3.015   7.823   4.989 -0.8063 -0.1917 -0.6675
  148MOL0     C19851   2.917   7.792   5.079  0.3337  0.3067 -0.9360
  148MOL0     C19852   2.826   7.892   5.113 -1.0465 -0.3990 -0.5247
  148MOL0     O19853   2.745   7.865   5.218  0.5348  0.8785  1.5163
  148MOL0     C19854   2.621   7.941   5.224 -0.5496 -0.2432  0.7505
  148MOL0     C19855   2.533   7.868   5.329  0.9717 -0.2691  0.0137
  148MOL0     C19856   2.400   7.937   5.381  1.5673 -0.0506  0.0553
  148MOL0     C19857   2.294   7.938   5.264 -0.5175  0.2934  0.0860
  148MOL0     C19858   2.148   7.951   5.307  0.1715 -0.7186 -0.2258
  148MOL0     C19859   2.123   8.075   5.400  0.5663 -0.3651 -1.4866
  148MOL0     C19860   1.985   8.074   5.466 -0.4443 -0.5385  0.4780
  148MOL0     C19861   1.952   7.967   5.574 -0.0782 -0.4915  0.7939
  148MOL0     N19862   1.804   7.959   5.599 -0.1500  0.5816 -1.0723
  148MOL0     C19863   1.728   8.070   5.629 -0.2019 -0.1839 -0.0517
  148MOL0     C19864   1.600   8.035   5.600 -0.1578 -0.6887  0.4224
  148MOL0     C19865   1.484   8.122   5.613  0.7786 -0.2922 -0.6990
  148MOL0     C19866   1.357   8.080   5.545  1.6868 -0.4420  0.3906
  148MOL0     C19867   1.246   8.188   5.566 -0.1721 -0.7992  0.4961
  148MOL0     C19868   1.114   8.163   5.491 -0.4710 -0.7842  0.2077
  148MOL0     O19869   1.021   8.269   5.506  0.1387  0.2710  0.0508
  148MOL0     C19870   0.937   8.259   5.615 -0.2177 -0.1288  0.5350
  148MOL0     C19871   0.852   8.358   5.642 -0.4395  0.3638  0.1190
  148MOL0     C19872   0.753   8.366   5.747  0.3901  0.6610 -0.1004
  148MOL0     C19873   0.642   8.473   5.726  0.1101  0.3003 -0.9534
  148MOL0     C19874   0.739   8.257   5.831 -0.8647 -0.3426 -0.4465
  148MOL0     C19875   0.638   8.228   5.933  0.1430  0.3895 -1.0245
  148MOL0     O19876   0.529   8.310   5.943 -0.2886 -0.4312 -0.0856
  148MOL0     C19877   0.429   8.287   6.031  0.3265  0.4582  0.7586
  148MOL0     C19878   0.373   8.161   6.072 -0.0319 -0.0407  0.5465
  148MOL0     C19879   0.280   8.161   6.170 -0.4794  1.1325 -0.1231
  148MOL0     C19880   0.227   8.277   6.229  0.1852  0.0926  0.2185
  148MOL0     O19881   0.134   8.271   6.323  0.5576 -0.2805 -0.2447
  148MOL0     C19882   0.077   8.145   6.368 -0.1821  0.0940  0.5398
  148MOL0     C19883   0.008   8.166   6.504  0.1249  0.3824  0.7229
  148MOL0     C19884  -0.071   8.037   6.553 -0.1940  0.2340  0.2249
  148MOL0     C19885   0.016   7.920   6.607  0.4279 -0.1562  0.0251
  148MOL0     C19886  -0.071   7.813   6.656  0.2249 -0.1211 -0.8007
  148MOL0     C19887  -0.121   7.718   6.557  0.1591 -0.2663 -0.5124
  148MOL0     C19888  -0.216   7.612   6.623  0.3774 -1.4339 -0.2923
  148MOL0     C19889  -0.341   7.680   6.690 -0.4074 -0.5147  0.2778
  148MOL0    Cl19890  -0.441   7.770   6.573 -0.4532 -0.8399 -0.3454
  148MOL0     C19891   0.264   8.402   6.170  0.1027 -0.5270 -1.6098
  148MOL0     C19892   0.372   8.403   6.075  0.4292  1.1517 -0.7411
  148MOL0     O19893   0.667   8.141   6.020  0.0690  0.2194  0.2717
  148MOL0     C19894   0.834   8.157   5.816 -0.0964 -0.4920  0.2339
  148MOL0     C19895   0.923   8.149   5.703 -1.2191 -1.0538 -0.4365
  148MOL0     N19896   1.604   7.906   5.557 -0.1238  0.2225 -0.1093
  148MOL0     N19897   1.723   7.858   5.562 -0.2013 -0.8820 -0.2145
  148MOL0     C19898   2.832   8.023   5.062  0.5590  0.3299 -0.1109
  148MOL0     C19899   2.925   8.054   4.959 -0.1088  1.1749  0.6865
  148MOL0     C19900   3.235   8.062   4.610 -1.0443  0.3152  0.0663
  148MOL0     C19901   3.230   8.152   4.500 -0.3212 -0.3397 -0.0131
  148MOL0     C19902   3.347   8.176   4.431  0.1819 -0.0046 -0.4345
  148MOL0     C19903   3.461   8.106   4.462 -0.5617 -0.6136  1.0262
  148MOL0     O19904   3.568   8.116   4.378  0.6815  0.4181  0.8066
  148MOL0     C19905   3.658   8.216   4.422  0.0375 -0.0214 -0.0299
  148MOL0     C19906   3.687   8.306   4.299 -0.1562  0.6164 -1.3818
  148MOL0     C19907   3.826   8.362   4.305 -0.8215  0.1112  0.1321
  148MOL0     C19908   3.889   8.424   4.182 -0.9300 -0.3056  0.4254
  148MOL0     C19909   4.037   8.448   4.190  0.4348 -0.6263  0.5653
  148MOL0     C19910   4.158   8.466   4.188  0.1795 -0.3558  0.1560
  148MOL0     C19911   3.463   8.026   4.578  0.2163  0.1654  0.3683
  148MOL0     C19912   3.352   8.000   4.651 -0.8825  0.0208 -0.6288
  148MOL0     H19913   3.086   7.744   4.971 -0.3049 -0.2930  1.4381
  148MOL0     H19914   2.926   7.697   5.130  0.9438  1.5242  1.3732
  148MOL0     H19915   2.642   8.043   5.258  0.0866 -0.6053  1.4723
  148MOL0     H19916   2.585   7.936   5.121  0.9605 -1.2230  0.2371
  148MOL0     H19917   2.513   7.766   5.294  0.0938 -0.6162  1.4714
  148MOL0     H19918   2.601   7.863   5.414  1.6218 -0.3256 -0.4985
  148MOL0     H19919   2.373   7.869   5.462  1.8070 -1.1854 -0.7879
  148MOL0     H19920   2.422   8.041   5.410  0.4308  1.1114 -2.8401
  148MOL0     H19921   2.329   8.016   5.196  1.8586  0.1141  1.0115
  148MOL0     H19922   2.285   7.846   5.206 -3.0166 -0.0953  0.9619
  148MOL0     H19923   2.092   7.964   5.214 -0.9534  0.9300  0.6419
  148MOL0     H19924   2.111   7.857   5.347  1.4210 -0.5324  1.4851
  148MOL0     H19925   2.190   8.073   5.486 -1.9571  0.9493  0.6892
  148MOL0     H19926   2.133   8.167   5.342 -1.0841 -0.3686 -1.8205
  148MOL0     H19927   1.977   8.171   5.514  4.5708 -0.4688  1.7575
  148MOL0     H19928   1.921   8.069   5.377  0.9568  0.8172 -0.6742
  148MOL0     H19929   1.995   7.992   5.672  1.2146  2.9234 -0.4998
  148MOL0     H19930   1.982   7.870   5.534 -1.7907 -1.4040  1.6146
  148MOL0     H19931   1.764   8.169   5.655  2.3561 -1.0608  0.0379
  148MOL0     H19932   1.462   8.148   5.717  0.5579  4.5057 -1.6764
  148MOL0     H19933   1.513   8.219   5.570 -1.1917  2.0717  2.7679
  148MOL0     H19934   1.332   7.983   5.589  2.1415 -1.2713 -1.1341
  148MOL0     H19935   1.381   8.074   5.439 -1.2964  2.9803 -0.7047
  148MOL0     H19936   1.290   8.285   5.541 -1.2847 -0.4433 -0.1311
  148MOL0     H19937   1.229   8.188   5.674  1.0566 -1.7270  0.7114
  148MOL0     H19938   1.073   8.064   5.516 -2.8734 -0.3130 -1.4716
  148MOL0     H19939   1.139   8.167   5.385 -1.7306  0.8614 -0.0651
  148MOL0     H19940   0.869   8.449   5.586 -1.0780  0.0513 -0.5950
  148MOL0     H19941   0.669   8.556   5.661  1.8908 -1.2790 -2.3510
  148MOL0     H19942   0.553   8.428   5.682  0.1154  1.8128 -2.6276
  148MOL0     H19943   0.617   8.512   5.826 -1.0113 -0.5386 -0.8874
  148MOL0     H19944   0.408   8.072   6.021 -1.9502  0.4047 -1.7506
  148MOL0     H19945   0.255   8.057   6.191  3.6215 -0.0011  0.2069
  148MOL0     H19946   0.003   8.108   6.296 -0.4239  0.6881  0.4704
  148MOL0     H19947   0.157   8.073   6.384  1.4238  1.7634  0.3939
  148MOL0     H19948   0.076   8.184   6.588 -0.5087 -3.9799  2.4177
  148MOL0     H19949  -0.060   8.252   6.499 -1.3356 -0.7464  0.5909
  148MOL0     H19950  -0.129   7.992   6.472  0.3094  0.8767 -0.5075
  148MOL0     H19951  -0.132   8.073   6.636  0.8371  1.0135  0.6764
  148MOL0     H19952   0.076   7.875   6.527 -3.4464 -2.5878 -1.8278
  148MOL0     H19953   0.066   7.967   6.692  1.3392 -1.0077 -0.0242
  148MOL0     H19954  -0.159   7.859   6.703 -0.4914  1.0586 -3.1149
  148MOL0     H19955  -0.009   7.751   6.721  1.3780  1.9918  0.2210
  148MOL0     H19956  -0.174   7.775   6.481  0.8069  1.1642  0.0750
  148MOL0     H19957  -0.032   7.667   6.520  0.8098 -0.1675  0.8332
  148MOL0     H19958  -0.157   7.555   6.695 -2.7032 -0.6425  3.2039
  148MOL0     H19959  -0.250   7.554   6.537  0.2375  1.6940 -2.5456
  148MOL0     H19960  -0.316   7.744   6.775 -0.6266  0.9190 -0.7046
  148MOL0     H19961  -0.399   7.596   6.731 -1.0874 -0.2963 -0.2150
  148MOL0     H19962   0.217   8.495   6.203 -2.6010 -1.5065 -2.3978
  148MOL0     H19963   0.403   8.499   6.035  1.0775 -0.5057 -4.6417
  148MOL0     H19964   0.837   8.061   5.867  0.8560  0.1133  1.3604
  148MOL0     H19965   0.996   8.068   5.703  2.5684  1.9989  2.1754
  148MOL0     H19966   2.769   8.104   5.098 -0.4960  0.1029 -1.3502
  148MOL0     H19967   2.930   8.151   4.911 -2.1760 -0.5003 -3.3270
  148MOL0     H19968   3.144   8.215   4.481 -0.2645  0.0495  0.9658
  148MOL0     H19969   3.352   8.250   4.351 -0.4799 -1.1052 -1.5199
  148MOL0     H19970   3.621   8.268   4.510 -1.3884 -1.5283  0.3271
  148MOL0     H19971   3.743   8.165   4.469  0.2599  0.3158 -0.0684
  148MOL0     H19972   3.615   8.387   4.303 -1.7091 -0.7244 -0.9395
  148MOL0     H19973   3.683   8.260   4.199 -2.2205  0.2759 -1.1882
  148MOL0     H19974   3.896   8.289   4.348  0.1509  3.0284  4.0790
  148MOL0     H19975   3.836   8.439   4.382 -1.4273 -0.7539  1.1148
  148MOL0     H19976   3.842   8.522   4.168 -2.3275 -0.8897  0.8615
  148MOL0     H19977   3.861   8.354   4.103 -1.7109  4.0147 -3.5925
  148MOL0     H19978   4.264   8.478   4.187  0.3530 -1.6829  0.4383
  148MOL0     H19979   3.554   7.973   4.604 -0.8960 -2.5928 -0.9002
  148MOL0     H19980   3.359   7.945   4.744  3.6272  0.8731 -0.2561
  149MOL0     O19981   1.226   5.602   9.147  0.2299  0.2307  0.3791
  149MOL0     C19982   1.224   5.508   9.222 -0.3817 -0.0992 -0.5029
  149MOL0     O19983   1.114   5.458   9.288 -1.2597  0.5359 -0.6500
  149MOL0     C19984   0.985   5.505   9.266 -0.2543  0.4189 -0.0169
  149MOL0     C19985   0.936   5.625   9.217 -0.0014  0.4305 -0.3852
  149MOL0     C19986   0.798   5.644   9.199  0.3468  0.5973 -0.7994
  149MOL0     C19987   0.710   5.532   9.211 -0.5708 -0.3058 -0.3880
  149MOL0     O19988   0.574   5.522   9.190  0.6680  0.2407 -0.2473
  149MOL0     C19989   0.493   5.637   9.164  0.3377 -1.2300  0.6034
  149MOL0     C19990   0.357   5.592   9.105 -0.0267 -0.7820 -0.1690
  149MOL0     C19991   0.280   5.496   9.188  0.5729 -0.3127  0.9722
  149MOL0     C19992   0.240   5.543   9.325 -0.1539  0.5978  0.0533
  149MOL0     C19993   0.088   5.566   9.326 -0.3850  0.0765 -0.9073
  149MOL0     C19994   0.009   5.435   9.330 -0.2891 -0.0403 -0.5289
  149MOL0     C19995  -0.141   5.469   9.359 -0.2093 -0.7106  0.3837
  149MOL0     C19996  -0.236   5.339   9.360  0.0037  0.5083  0.9936
  149MOL0     N19997  -0.385   5.361   9.377 -0.5213  0.0771 -0.2761
  149MOL0     C19998  -0.470   5.420   9.288 -0.5457  0.7278  0.3674
  149MOL0     C19999  -0.600   5.397   9.337  0.3163 -0.7322 -0.7081
  149MOL0     C20000  -0.721   5.446   9.264 -0.5024 -1.0213 -0.2903
  149MOL0     C20001  -0.847   5.428   9.354 -0.8093  0.0227 -0.3396
  149MOL0     C20002  -0.900   5.288   9.379  0.3860  0.9106 -0.4877
  149MOL0     C20003  -1.034   5.281   9.449 -0.2680 -0.1741  1.0471
  149MOL0     O20004  -1.136   5.317   9.352 -0.3687  0.2744  0.1150
  149MOL0     C20005  -1.264   5.305   9.395  0.2465  0.0400  0.3916
  149MOL0     C20006  -1.305   5.275   9.523  0.1387  0.1226 -0.2614
  149MOL0     C20007  -1.444   5.275   9.556 -0.0721  0.0568  0.6413
  149MOL0     C20008  -1.478   5.256   9.704 -0.1595 -0.0784  1.1391
  149MOL0     C20009  -1.539   5.287   9.458 -0.0375 -0.7970 -0.9380
  149MOL0     C20010  -1.691   5.283   9.484 -0.0676 -0.2889 -0.3281
  149MOL0     O20011  -1.772   5.313   9.375  0.4934 -0.0708 -0.2882
  149MOL0     C20012  -1.899   5.281   9.392 -0.2496  0.4211  0.4937
  149MOL0     C20013  -1.983   5.379   9.447 -1.0221 -0.0797  0.2774
  149MOL0     C20014  -2.119   5.346   9.472 -0.6308 -0.1901  0.5046
  149MOL0     C20015  -2.166   5.219   9.436  0.0257  0.4836 -0.3974
  149MOL0     O20016  -2.299   5.182   9.446  0.6023  0.7676 -0.3380
  149MOL0     C20017  -2.394   5.277   9.492  0.6153  0.4447  1.1470
  149MOL0     C20018  -2.534   5.217   9.503 -0.0511  0.0057  0.1994
  149MOL0     C20019  -2.583   5.159   9.372  0.4956  0.2873  1.3592
  149MOL0     C20020  -2.661   5.255   9.290 -0.0335 -0.4426  0.1795
  149MOL0     C20021  -2.704   5.199   9.163  1.0723  0.1674 -0.8287
  149MOL0     C20022  -2.841   5.251   9.099  0.2048 -0.0289 -0.0099
  149MOL0     C20023  -2.823   5.395   9.036  1.0231  0.4534 -0.9442
  149MOL0     C20024  -2.965   5.445   8.980 -0.0602  0.1446 -0.1280
  149MOL0    Cl20025  -3.002   5.379   8.810 -0.3363  0.1745 -0.2403
  149MOL0     C20026  -2.081   5.122   9.393  0.7759  0.1782 -0.0438
  149MOL0     C20027  -1.946   5.150   9.368  0.6798  0.1869  0.2356
  149MOL0     O20028  -1.725   5.237   9.593 -0.3313  0.0814  0.0003
  149MOL0     C20029  -1.500   5.310   9.326  0.1285  0.6104 -0.3511
  149MOL0     C20030  -1.363   5.321   9.295  0.0023  0.1505  0.8304
  149MOL0     N20031  -0.591   5.328   9.455  0.3409  0.3329 -0.7100
  149MOL0     N20032  -0.464   5.309   9.480 -0.3120 -0.3377 -0.0856
  149MOL0     C20033   0.763   5.408   9.239 -0.2690 -0.2346  0.0616
  149MOL0     C20034   0.898   5.399   9.274  0.7620  0.4263  0.5741
  149MOL0     C20035   1.349   5.437   9.253 -0.2400 -0.3865  0.9760
  149MOL0     C20036   1.464   5.490   9.205 -0.9920  0.3865 -0.1806
  149MOL0     C20037   1.595   5.439   9.237  0.6778 -0.6846 -0.2880
  149MOL0     C20038   1.598   5.322   9.313  0.2939  0.2977 -0.0630
  149MOL0     O20039   1.718   5.278   9.358 -0.0558 -0.5758 -0.2388
  149MOL0     C20040   1.738   5.142   9.387  0.0516  0.2794  0.3589
  149MOL0     C20041   1.702   5.045   9.274  0.6240 -0.5803 -0.5626
  149MOL0     C20042   1.779   4.920   9.258  0.1515  0.9063  0.2753
  149MOL0     C20043   1.746   4.813   9.362  0.2147  0.6212  0.8486
  149MOL0     C20044   1.616   4.746   9.348 -0.0181 -0.4917 -0.3606
  149MOL0     C20045   1.523   4.675   9.338 -0.2623  0.0041  0.0260
  149MOL0     C20046   1.477   5.257   9.345 -1.5715  0.0839 -0.2379
  149MOL0     C20047   1.351   5.317   9.321  0.0304 -0.0310  0.0558
  149MOL0     H20048   0.997   5.712   9.196  0.5473 -0.4678 -2.8650
  149MOL0     H20049   0.756   5.741   9.176 -0.7380  0.1498 -0.7963
  149MOL0     H20050   0.459   5.697   9.249 -2.0881 -1.6676  0.0063
  149MOL0     H20051   0.542   5.705   9.094 -0.3700  0.0396  1.3034
  149MOL0     H20052   0.295   5.681   9.090  0.7475 -0.6832 -3.6757
  149MOL0     H20053   0.369   5.545   9.007 -2.3260 -1.1800 -0.3131
  149MOL0     H20054   0.196   5.469   9.123  1.0145 -0.1687  0.3321
  149MOL0     H20055   0.332   5.400   9.195  1.0810 -0.2371 -1.2469
  149MOL0     H20056   0.273   5.462   9.390 -0.4467 -0.4876 -1.1177
  149MOL0     H20057   0.288   5.637   9.356  2.1435 -0.1501 -0.9504
  149MOL0     H20058   0.067   5.611   9.424  0.3565 -0.7032 -0.3717
  149MOL0     H20059   0.052   5.633   9.248 -1.1540 -0.3198 -0.9026
  149MOL0     H20060   0.023   5.361   9.251 -1.7591 -0.5821 -0.3275
  149MOL0     H20061   0.043   5.388   9.423 -2.4329  2.1710  1.5210
  149MOL0     H20062  -0.149   5.526   9.452 -0.0237 -1.4580  0.8662
  149MOL0     H20063  -0.183   5.533   9.280 -3.3004 -0.6940  1.9012
  149MOL0     H20064  -0.216   5.276   9.447  1.6939 -0.0235  0.2643
  149MOL0     H20065  -0.208   5.266   9.284 -1.7771 -0.7305  1.4801
  149MOL0     H20066  -0.435   5.473   9.200  2.6879  0.9942  1.6718
  149MOL0     H20067  -0.714   5.554   9.246  0.6623 -1.2883 -1.5888
  149MOL0     H20068  -0.733   5.390   9.171  1.2596 -3.1702  0.7030
  149MOL0     H20069  -0.938   5.474   9.314 -1.3641  0.8481  1.7029
  149MOL0     H20070  -0.841   5.488   9.446 -1.9207  0.2544 -0.4001
  149MOL0     H20071  -0.834   5.230   9.444 -0.8697  2.2605  2.1138
  149MOL0     H20072  -0.912   5.228   9.288 -3.3231 -2.0062  1.6400
  149MOL0     H20073  -1.028   5.348   9.535 -1.6592  0.5691  0.5979
  149MOL0     H20074  -1.049   5.182   9.492 -0.5867 -0.1522  0.9857
  149MOL0     H20075  -1.238   5.257   9.606  0.1002 -0.1318 -0.2856
  149MOL0     H20076  -1.385   5.257   9.762  2.4379 -2.6879 -2.4821
  149MOL0     H20077  -1.541   5.336   9.742 -0.8669 -1.8385  3.9430
  149MOL0     H20078  -1.529   5.162   9.726 -0.5063  0.1357  1.2558
  149MOL0     H20079  -1.947   5.478   9.471 -1.4417  0.5381 -1.4986
  149MOL0     H20080  -2.187   5.414   9.522 -1.4518 -1.3983  1.0688
  149MOL0     H20081  -2.364   5.307   9.593 -0.2119  1.4107  1.1307
  149MOL0     H20082  -2.404   5.360   9.421 -2.2357 -1.1389 -0.4580
  149MOL0     H20083  -2.531   5.139   9.580 -0.1396 -0.4270 -0.2305
  149MOL0     H20084  -2.610   5.287   9.539  1.3440  0.1342  3.2227
  149MOL0     H20085  -2.658   5.085   9.401 -0.1597  0.0529 -0.7166
  149MOL0     H20086  -2.499   5.117   9.315  0.3033 -0.9360  1.9346
  149MOL0     H20087  -2.746   5.288   9.351 -0.4938 -3.2354  1.1939
  149MOL0     H20088  -2.601   5.344   9.270  2.2171 -1.4438  1.9946
  149MOL0     H20089  -2.725   5.091   9.168 -2.5448  0.7555 -0.7539
  149MOL0     H20090  -2.628   5.212   9.086  3.5869  0.0322  1.4402
  149MOL0     H20091  -2.881   5.192   9.017 -0.8861  1.2518 -0.4347
  149MOL0     H20092  -2.915   5.242   9.179  0.7249 -0.4485  0.4272
  149MOL0     H20093  -2.739   5.391   8.966  2.1964  0.2976  0.4439
  149MOL0     H20094  -2.789   5.457   9.119  0.3490 -1.5127  0.9012
  149MOL0     H20095  -2.969   5.555   8.976  0.4731  0.2011  0.6608
  149MOL0     H20096  -3.050   5.414   9.043  0.1026 -0.1295 -0.0424
  149MOL0     H20097  -2.110   5.021   9.363  0.6888 -0.1260  1.0171
  149MOL0     H20098  -1.870   5.081   9.334 -0.7265 -0.9905 -0.5891
  149MOL0     H20099  -1.577   5.340   9.255  0.6760  1.4345 -0.6033
  149MOL0     H20100  -1.337   5.341   9.192  0.2691 -2.2566  0.3655
  149MOL0     H20101   0.701   5.319   9.247  0.7487 -1.0516 -0.8592
  149MOL0     H20102   0.939   5.306   9.311  2.3030  1.4949  1.6709
  149MOL0     H20103   1.463   5.580   9.144  1.9209  1.2893  0.9407
  149MOL0     H20104   1.691   5.481   9.210 -0.4734  2.4929  0.0181
  149MOL0     H20105   1.845   5.124   9.403  1.0377  3.2853 -1.9129
  149MOL0     H20106   1.680   5.109   9.475  0.0022  1.4006  0.7607
  149MOL0     H20107   1.698   5.107   9.185 -1.0705  1.3701  0.7784
  149MOL0     H20108   1.597   5.017   9.289  0.5525  0.5156  1.3980
  149MOL0     H20109   1.887   4.933   9.253  0.3933 -1.3687 -2.8058
  149MOL0     H20110   1.747   4.882   9.161 -0.1493 -0.3473  0.8468
  149MOL0     H20111   1.762   4.852   9.463 -2.2897  0.5039  1.3560
  149MOL0     H20112   1.820   4.735   9.343 -1.4434 -0.1875 -3.6010
  149MOL0     H20113   1.444   4.604   9.324 -1.1925  1.0495 -0.0921
  149MOL0     H20114   1.483   5.163   9.400 -1.4197  1.1799  1.7023
  149MOL0     H20115   1.261   5.269   9.359  0.9263 -0.3018  1.9762
  150MOL0     O20116   0.563   5.849   9.849  0.3544 -0.3011  0.4598
  150MOL0     C20117   0.599   5.783   9.753 -0.4550  0.1773  0.1822
  150MOL0     O20118   0.517   5.721   9.661  0.1240 -0.2347 -0.7064
  150MOL0     C20119   0.384   5.767   9.669  0.6776  0.4587 -0.7136
  150MOL0     C20120   0.281   5.670   9.650  1.1384 -0.1973  0.5827
  150MOL0     C20121   0.146   5.711   9.666 -0.4078 -0.1589 -0.2652
  150MOL0     C20122   0.102   5.844   9.668 -1.2890  0.0053  0.4807
  150MOL0     O20123  -0.026   5.892   9.674 -1.0455 -0.0030  0.0166
  150MOL0     C20124  -0.092   5.890   9.796  0.6120 -0.9099 -0.2605
  150MOL0     C20125  -0.206   5.995   9.787  0.4012  0.1683  0.7161
  150MOL0     C20126  -0.317   5.964   9.691 -0.0252 -1.0526  0.0839
  150MOL0     C20127  -0.279   5.995   9.539  0.8019  0.7579 -0.1430
  150MOL0     C20128  -0.407   5.984   9.455 -0.4217 -0.1442 -0.2813
  150MOL0     C20129  -0.463   5.839   9.440 -0.0103 -0.1605  0.8853
  150MOL0     C20130  -0.591   5.833   9.349 -0.0426 -0.2097  0.3416
  150MOL0     C20131  -0.692   5.940   9.404  0.4005  0.2224  0.0522
  150MOL0     N20132  -0.836   5.913   9.392 -0.3923  1.1914 -0.5266
  150MOL0     C20133  -0.915   5.829   9.477  0.6069  0.9455 -0.2132
  150MOL0     C20134  -1.031   5.805   9.414  0.1271 -0.6560  0.3789
  150MOL0     C20135  -1.149   5.724   9.453  0.7706 -0.7196  0.4200
  150MOL0     C20136  -1.212   5.769   9.590  0.2204 -0.2490 -0.8487
  150MOL0     C20137  -1.311   5.670   9.651  0.4727  0.4182 -0.2569
  150MOL0     C20138  -1.422   5.635   9.552  0.5255  0.0627 -0.2009
  150MOL0     O20139  -1.512   5.747   9.556 -0.1557  0.1227 -0.5241
  150MOL0     C20140  -1.642   5.731   9.602  0.6672  0.5325  0.0398
  150MOL0     C20141  -1.690   5.629   9.684  0.5227 -0.5516 -0.5629
  150MOL0     C20142  -1.825   5.608   9.713 -0.5290 -0.1151  0.9565
  150MOL0     C20143  -1.865   5.494   9.798  0.3511  0.0579 -0.4771
  150MOL0     C20144  -1.923   5.704   9.672  1.1550  0.3033 -0.1898
  150MOL0     C20145  -2.077   5.688   9.701 -0.3917  0.5462  0.2921
  150MOL0     O20146  -2.152   5.790   9.665 -0.8219  0.7046  0.3600
  150MOL0     C20147  -2.285   5.787   9.678  0.0851  0.7572 -0.0035
  150MOL0     C20148  -2.361   5.700   9.602  0.2977  0.0714  0.4747
  150MOL0     C20149  -2.497   5.696   9.608 -0.1438 -0.7319  0.6294
  150MOL0     C20150  -2.567   5.795   9.693  0.2455  0.7309  0.7617
  150MOL0     O20151  -2.700   5.816   9.695 -0.1187  0.7365 -0.4370
  150MOL0     C20152  -2.785   5.709   9.645  0.5699 -0.9962  0.1236
  150MOL0     C20153  -2.924   5.740   9.718  0.4094  0.5323 -0.9682
  150MOL0     C20154  -2.998   5.872   9.691  0.2292 -0.2215  0.4985
  150MOL0     C20155  -3.106   5.900   9.795  0.1443  0.2642  0.0849
  150MOL0     C20156  -3.191   6.023   9.758  0.8308 -0.7773 -0.1093
  150MOL0     C20157  -3.292   5.993   9.648  0.6834 -0.1814  0.5363
  150MOL0     C20158  -3.353   6.116   9.571  0.2599  0.2940 -0.2242
  150MOL0     C20159  -3.486   6.074   9.504  0.0778  0.1107 -0.8611
  150MOL0    Cl20160  -3.465   5.951   9.377 -0.0414  0.1593 -0.4793
  150MOL0     C20161  -2.493   5.871   9.775 -0.3923  0.0333 -0.4549
  150MOL0     C20162  -2.354   5.863   9.777 -0.1954  0.2141  0.8159
  150MOL0     O20163  -2.121   5.583   9.751  0.0346  0.1123  0.3417
  150MOL0     C20164  -1.878   5.810   9.596 -0.1603  0.4134  0.1649
  150MOL0     C20165  -1.742   5.822   9.557 -0.0659 -1.0537  0.0183
  150MOL0     N20166  -1.037   5.871   9.295 -0.7621 -0.3467 -0.2195
  150MOL0     N20167  -0.920   5.928   9.280  0.0903 -0.1238 -0.3099
  150MOL0     C20168   0.204   5.946   9.680  0.4668  0.3099 -0.4949
  150MOL0     C20169   0.342   5.903   9.684  0.0251 -1.3258 -0.5314
  150MOL0     C20170   0.746   5.757   9.748 -0.1057 -0.5297  0.6590
  150MOL0     C20171   0.826   5.743   9.856 -0.2872 -0.3244 -0.1300
  150MOL0     C20172   0.959   5.724   9.842 -0.2532  0.9085  0.0780
  150MOL0     C20173   1.021   5.702   9.718 -0.0537 -0.0876 -0.3400
  150MOL0     O20174   1.154   5.675   9.718 -0.1163 -0.2739  0.3575
  150MOL0     C20175   1.227   5.686   9.598 -0.2695 -0.1408  0.0007
  150MOL0     C20176   1.370   5.654   9.641 -0.0905  0.9688  0.1895
  150MOL0     C20177   1.467   5.673   9.526  1.1625 -0.1590 -0.8178
  150MOL0     C20178   1.601   5.607   9.543 -0.1427  0.2155  0.1253
  150MOL0     C20179   1.693   5.674   9.631 -0.5269  0.3990  0.1755
  150MOL0     C20180   1.770   5.736   9.699  0.5790 -0.2122 -0.1918
  150MOL0     C20181   0.932   5.695   9.608 -0.5282 -0.5915  0.3965
  150MOL0     C20182   0.799   5.736   9.614  0.7449 -0.4658 -0.3753
  150MOL0     H20183   0.284   5.566   9.621  0.7692  0.3031 -1.4241
  150MOL0     H20184   0.068   5.636   9.666 -1.8728  1.2672  1.3296
  150MOL0     H20185  -0.149   5.800   9.822  0.5651 -0.3622  1.6464
  150MOL0     H20186  -0.015   5.909   9.871  2.4575 -3.9731 -1.1764
  150MOL0     H20187  -0.252   6.026   9.881  1.7866  1.6052  0.9614
  150MOL0     H20188  -0.158   6.084   9.745 -0.4148  0.1120 -0.3759
  150MOL0     H20189  -0.359   5.864   9.709 -0.7344 -0.5487  1.3466
  150MOL0     H20190  -0.397   6.027   9.730  1.9856  0.0021  2.8999
  150MOL0     H20191  -0.243   6.099   9.540 -0.4297  1.2115 -1.0976
  150MOL0     H20192  -0.191   5.936   9.512  1.7383  0.9628  2.1484
  150MOL0     H20193  -0.478   6.056   9.496  2.1261  1.0494  2.3249
  150MOL0     H20194  -0.384   6.013   9.352  3.9192 -1.0978  0.2156
  150MOL0     H20195  -0.391   5.767   9.399 -0.7582  0.8804 -2.5657
  150MOL0     H20196  -0.492   5.798   9.537 -0.2057 -2.6918 -0.1412
  150MOL0     H20197  -0.563   5.839   9.243 -1.3409 -0.7855 -0.0610
  150MOL0     H20198  -0.629   5.730   9.357 -0.1752 -0.0465  1.9929
  150MOL0     H20199  -0.668   6.038   9.362 -0.1333 -0.4192 -1.8709
  150MOL0     H20200  -0.683   5.944   9.513 -3.0896  1.0263  0.4108
  150MOL0     H20201  -0.892   5.784   9.572  0.1547 -1.1239 -1.0423
  150MOL0     H20202  -1.222   5.742   9.373 -0.6831  2.3120  2.2608
  150MOL0     H20203  -1.129   5.616   9.461 -2.5623 -1.3038  2.8213
  150MOL0     H20204  -1.267   5.861   9.571 -1.9114 -1.0946  0.8525
  150MOL0     H20205  -1.133   5.792   9.662 -1.1440 -1.2330  1.0447
  150MOL0     H20206  -1.345   5.711   9.747  1.1968 -2.9456  1.6149
  150MOL0     H20207  -1.257   5.576   9.670 -1.1013 -0.6401 -0.8359
  150MOL0     H20208  -1.480   5.551   9.592 -3.6211  1.8066 -2.0507
  150MOL0     H20209  -1.389   5.604   9.452 -0.2977  0.5407 -0.6332
  150MOL0     H20210  -1.619   5.567   9.738  0.4832  0.7132  1.0416
  150MOL0     H20211  -1.914   5.421   9.733 -0.1087 -1.3463  1.3859
  150MOL0     H20212  -1.775   5.444   9.834  0.8256  0.5140 -1.0059
  150MOL0     H20213  -1.926   5.521   9.884 -0.3638 -0.3577 -0.8449
  150MOL0     H20214  -2.305   5.629   9.541  1.3484 -0.8966  2.4347
  150MOL0     H20215  -2.552   5.616   9.560  1.1624 -0.1177 -2.0407
  150MOL0     H20216  -2.808   5.710   9.538 -2.2917 -1.0822  0.6767
  150MOL0     H20217  -2.737   5.613   9.669  0.7360 -0.3644  2.5675
  150MOL0     H20218  -2.987   5.656   9.688 -0.1538  0.1547  1.0681
  150MOL0     H20219  -2.890   5.724   9.821  4.0822  1.1658 -1.9498
  150MOL0     H20220  -3.034   5.870   9.588  0.4546  2.6228  0.2885
  150MOL0     H20221  -2.919   5.947   9.688 -0.8018  0.9229 -3.4407
  150MOL0     H20222  -3.166   5.810   9.810 -0.9040  1.2359  1.9972
  150MOL0     H20223  -3.050   5.929   9.884 -1.4248 -0.5176  1.3688
  150MOL0     H20224  -3.127   6.107   9.728  0.7842 -0.8118 -0.3066
  150MOL0     H20225  -3.245   6.068   9.842 -0.2748  0.8222 -1.6134
  150MOL0     H20226  -3.248   5.923   9.577 -1.5036 -1.4365  0.3509
  150MOL0     H20227  -3.377   5.938   9.689  1.7121 -1.4210  1.0599
  150MOL0     H20228  -3.282   6.171   9.508 -0.7307  1.5503 -0.2900
  150MOL0     H20229  -3.393   6.188   9.643  1.2064 -2.4971  3.3689
  150MOL0     H20230  -3.535   6.169   9.478  0.7643  1.8031  3.1859
  150MOL0     H20231  -3.549   6.041   9.587  0.7540 -0.2795 -0.4970
  150MOL0     H20232  -2.550   5.933   9.844 -2.3743  0.1470 -2.1088
  150MOL0     H20233  -2.302   5.928   9.846 -0.0727  0.3814  0.5651
  150MOL0     H20234  -1.948   5.883   9.555  0.0212  0.9572  0.8107
  150MOL0     H20235  -1.713   5.902   9.490 -1.9203  1.4592  1.9863
  150MOL0     H20236   0.182   6.052   9.690 -1.1421  0.0579 -1.0481
  150MOL0     H20237   0.418   5.981   9.685 -0.4583 -0.8475 -0.5725
  150MOL0     H20238   0.789   5.759   9.956  4.3403  0.0512  1.7999
  150MOL0     H20239   1.028   5.718   9.926 -0.5635  2.4006  0.4759
  150MOL0     H20240   1.192   5.610   9.528 -3.5618  0.8216  0.4258
  150MOL0     H20241   1.219   5.791   9.567  0.4716 -0.2498 -0.6107
  150MOL0     H20242   1.369   5.548   9.671 -1.0597  0.8681 -0.1440
  150MOL0     H20243   1.417   5.700   9.729  0.4281  2.1345 -0.6804
  150MOL0     H20244   1.482   5.781   9.514  3.8775 -0.6402 -2.9124
  150MOL0     H20245   1.425   5.628   9.436  1.7044 -0.7676 -0.7782
  150MOL0     H20246   1.645   5.606   9.443  2.9949 -1.3572  1.3808
  150MOL0     H20247   1.592   5.501   9.567 -1.0526  0.2861  0.1256
  150MOL0     H20248   1.829   5.789   9.772  1.1923 -0.4028 -0.5454
  150MOL0     H20249   0.978   5.672   9.512  3.1571 -2.7433  2.4853
  150MOL0     H20250   0.741   5.740   9.523 -1.0002 -0.9964  0.6684
  151MOL0     O20251   5.996   7.383   3.553 -0.1721  0.5514  0.2783
  151MOL0     C20252   5.887   7.449   3.565  0.0906 -0.3400  0.3391
  151MOL0     O20253   5.793   7.453   3.467  0.6000  0.9805 -0.2993
  151MOL0     C20254   5.790   7.351   3.376  0.3164  0.5365  0.4485
  151MOL0     C20255   5.872   7.360   3.262 -0.1524  0.3632 -0.0622
  151MOL0     C20256   5.866   7.261   3.167  0.3348 -0.2950  0.6875
  151MOL0     C20257   5.782   7.147   3.185  0.2021 -0.5572 -0.5891
  151MOL0     O20258   5.767   7.047   3.093  0.1347 -0.4292  0.1822
  151MOL0     C20259   5.813   7.068   2.959 -0.2828 -0.2725  1.0140
  151MOL0     C20260   5.712   7.163   2.886  0.0603 -0.4087 -0.1187
  151MOL0     C20261   5.574   7.099   2.874  0.0769 -0.2794  0.4970
  151MOL0     C20262   5.494   7.196   2.782  0.3497 -0.4227 -0.2450
  151MOL0     C20263   5.349   7.144   2.741 -0.4172 -0.1119 -0.0190
  151MOL0     C20264   5.355   7.003   2.679  0.0894  0.0503 -0.7464
  151MOL0     C20265   5.219   6.966   2.619  0.5775 -0.8750  0.1178
  151MOL0     C20266   5.136   6.881   2.722  0.2784 -0.2206 -0.8807
  151MOL0     N20267   5.006   6.832   2.675  0.4273 -0.6136  0.4562
  151MOL0     C20268   4.991   6.709   2.624  0.0985  0.3374 -0.4232
  151MOL0     C20269   4.859   6.689   2.608  0.3702 -1.1081  0.0164
  151MOL0     C20270   4.797   6.579   2.525 -0.0555  0.4871 -0.4336
  151MOL0     C20271   4.767   6.462   2.616  0.4441 -0.5554 -0.3420
  151MOL0     C20272   4.652   6.497   2.714 -0.1526  0.8962 -0.4665
  151MOL0     C20273   4.519   6.530   2.652 -0.5473  0.6355  0.1495
  151MOL0     O20274   4.460   6.419   2.582  0.5017 -0.4645 -0.0554
  151MOL0     C20275   4.339   6.433   2.519  0.6454 -0.3278 -0.5102
  151MOL0     C20276   4.253   6.545   2.529 -0.2214 -0.2203 -0.1307
  151MOL0     C20277   4.127   6.545   2.473  0.3226 -0.6906  0.8245
  151MOL0     C20278   4.065   6.682   2.463 -0.2574  0.0828  0.5078
  151MOL0     C20279   4.072   6.429   2.423  1.3114  0.6076 -1.2268
  151MOL0     C20280   3.930   6.415   2.365 -0.2022  0.4420 -0.1561
  151MOL0     O20281   3.847   6.516   2.393 -0.3098  0.2571 -0.2955
  151MOL0     C20282   3.724   6.517   2.328 -0.8173 -0.4018  0.7414
  151MOL0     C20283   3.610   6.437   2.367  0.1477  0.2433 -0.4420
  151MOL0     C20284   3.485   6.445   2.303  0.2131  0.9519  0.1204
  151MOL0     C20285   3.474   6.531   2.190  0.7660 -1.0860  0.8877
  151MOL0     O20286   3.351   6.538   2.132 -0.4495  0.2546 -0.3669
  151MOL0     C20287   3.259   6.624   2.196  0.5792  0.5972  0.0511
  151MOL0     C20288   3.114   6.576   2.156  0.2613  0.8621 -0.4189
  151MOL0     C20289   3.014   6.695   2.164  0.4580  0.2557  0.4469
  151MOL0     C20290   2.868   6.684   2.111 -0.2564  0.5302 -0.1100
  151MOL0     C20291   2.765   6.637   2.224  0.3290 -0.0920 -0.8569
  151MOL0     C20292   2.813   6.514   2.306  0.2506  0.4373  0.1983
  151MOL0     C20293   2.691   6.488   2.406  0.2111 -0.0744  0.2952
  151MOL0     C20294   2.696   6.349   2.468  0.0763  0.1389 -0.5430
  151MOL0    Cl20295   2.841   6.357   2.592  0.0160  0.2746  0.4621
  151MOL0     C20296   3.592   6.598   2.143 -0.5208  0.3453  0.8574
  151MOL0     C20297   3.715   6.599   2.216 -0.6205  0.1239 -0.2187
  151MOL0     O20298   3.897   6.312   2.306 -0.1397 -0.0161  0.3334
  151MOL0     C20299   4.153   6.318   2.415 -0.0500  0.8582 -0.1153
  151MOL0     C20300   4.289   6.316   2.457 -0.6213 -0.2113  0.2065
  151MOL0     N20301   4.795   6.809   2.647  0.3398  1.3568 -0.2005
  151MOL0     N20302   4.879   6.877   2.705 -0.5904 -0.0041  0.6267
  151MOL0     C20303   5.701   7.141   3.303  0.1817  0.2849 -1.0135
  151MOL0     C20304   5.706   7.240   3.404 -0.2281 -0.5093  0.7706
  151MOL0     C20305   5.857   7.524   3.689  0.4726  0.5778  0.5294
  151MOL0     C20306   5.760   7.626   3.693  0.4369 -0.8362 -0.3353
  151MOL0     C20307   5.740   7.710   3.808  0.5146  0.0049  0.4370
  151MOL0     C20308   5.825   7.698   3.919 -0.7445  0.3886 -0.2593
  151MOL0     O20309   5.818   7.764   4.040 -0.0196  0.2176  0.1579
  151MOL0     C20310   5.726   7.876   4.057 -0.0248  0.1868 -0.2268
  151MOL0     C20311   5.798   8.005   4.004 -0.3075  0.4951  0.5632
  151MOL0     C20312   5.949   8.024   4.040  0.0029 -0.5744  0.4315
  151MOL0     C20313   5.989   8.169   3.995  0.0985 -1.0929  0.2604
  151MOL0     C20314   5.978   8.174   3.849 -0.6532  0.1144  0.4366
  151MOL0     C20315   5.951   8.201   3.732  0.6702 -0.3233 -0.1819
  151MOL0     C20316   5.924   7.599   3.915 -0.0983 -0.1936 -0.2918
  151MOL0     C20317   5.938   7.516   3.808 -0.5958 -0.0369  0.1239
  151MOL0     H20318   5.943   7.440   3.243  1.4016 -1.4309 -2.2900
  151MOL0     H20319   5.929   7.277   3.080  1.3639 -3.9244  0.6143
  151MOL0     H20320   5.916   7.107   2.959 -0.4716  0.2540  0.4663
  151MOL0     H20321   5.838   6.980   2.899 -4.3413 -0.0166 -1.3922
  151MOL0     H20322   5.712   7.265   2.926  0.8936 -0.8689  1.1339
  151MOL0     H20323   5.768   7.160   2.793 -0.8895 -1.2444 -0.6858
  151MOL0     H20324   5.588   7.007   2.817  1.4695  0.4027 -0.2995
  151MOL0     H20325   5.516   7.080   2.965 -3.1097 -0.4436 -1.4296
  151MOL0     H20326   5.474   7.293   2.828  2.5263  0.5604 -1.2328
  151MOL0     H20327   5.552   7.216   2.691  1.2765  0.9511  0.6057
  151MOL0     H20328   5.282   7.149   2.827  0.5901  3.7863  0.6988
  151MOL0     H20329   5.310   7.213   2.666  0.4691  2.8052  2.0636
  151MOL0     H20330   5.426   7.032   2.601 -0.4753  2.5285 -0.4402
  151MOL0     H20331   5.389   6.940   2.762  0.5423  0.7847 -0.3615
  151MOL0     H20332   5.155   7.053   2.603 -1.8069 -2.2741  1.4666
  151MOL0     H20333   5.233   6.922   2.519  0.8831  1.5453 -0.9655
  151MOL0     H20334   5.115   6.934   2.816  0.5759 -2.3467  0.4589
  151MOL0     H20335   5.196   6.795   2.754 -1.3874 -1.1402 -0.0933
  151MOL0     H20336   5.065   6.632   2.608 -0.5815 -0.1260 -1.4754
  151MOL0     H20337   4.707   6.612   2.472  0.7065  1.3981 -1.1886
  151MOL0     H20338   4.868   6.552   2.447 -0.6689  0.9684 -1.1682
  151MOL0     H20339   4.855   6.432   2.674  0.0451  1.7320  1.5700
  151MOL0     H20340   4.718   6.395   2.545  2.5112 -1.3516 -1.0817
  151MOL0     H20341   4.688   6.575   2.782  1.6862 -0.3048  0.0039
  151MOL0     H20342   4.628   6.408   2.774 -0.0680  1.3743  0.2960
  151MOL0     H20343   4.529   6.624   2.597 -1.3961  0.3454 -0.5065
  151MOL0     H20344   4.448   6.549   2.734 -0.0070  0.4644  0.6671
  151MOL0     H20345   4.273   6.632   2.591 -1.4254 -0.5934  0.8135
  151MOL0     H20346   3.983   6.697   2.534  0.0694  0.7546  0.7567
  151MOL0     H20347   4.147   6.754   2.476  0.9262 -0.9162 -1.0512
  151MOL0     H20348   4.026   6.684   2.361 -1.9759 -3.2929  0.9566
  151MOL0     H20349   3.609   6.361   2.445  0.0704 -0.7849 -1.4168
  151MOL0     H20350   3.391   6.397   2.327  0.1699  0.0601 -1.6513
  151MOL0     H20351   3.267   6.610   2.304 -1.0815  0.3705  0.1620
  151MOL0     H20352   3.270   6.731   2.174 -1.7593  0.9312  0.2649
  151MOL0     H20353   3.118   6.538   2.053 -5.1574 -0.3094 -0.4590
  151MOL0     H20354   3.089   6.491   2.219  2.7045  0.5042  0.1692
  151MOL0     H20355   3.056   6.779   2.108 -1.7884  0.8972 -0.3789
  151MOL0     H20356   3.003   6.731   2.267  2.2704 -0.0184  0.7719
  151MOL0     H20357   2.827   6.777   2.072 -0.7858  0.6845  0.7875
  151MOL0     H20358   2.862   6.613   2.028 -0.6389 -2.6037  2.3695
  151MOL0     H20359   2.682   6.615   2.156 -0.9657  0.8761  0.3427
  151MOL0     H20360   2.733   6.721   2.287 -0.4326 -1.0404  0.0459
  151MOL0     H20361   2.824   6.426   2.243  0.3001  2.7284 -3.2193
  151MOL0     H20362   2.903   6.536   2.364  1.4221 -2.3737 -0.4058
  151MOL0     H20363   2.593   6.484   2.357 -0.2753  2.2632  0.9785
  151MOL0     H20364   2.695   6.572   2.475  3.9624  0.3652 -0.2620
  151MOL0     H20365   2.702   6.264   2.400  4.8089 -2.3495  2.4678
  151MOL0     H20366   2.604   6.337   2.526 -0.9906  1.4983 -1.8342
  151MOL0     H20367   3.592   6.657   2.052 -0.7858  0.9522  1.2424
  151MOL0     H20368   3.798   6.659   2.183 -1.4661  2.2113  1.2758
  151MOL0     H20369   4.116   6.234   2.357 -3.0982  1.5212  0.6935
  151MOL0     H20370   4.355   6.230   2.456 -1.7215 -1.1180  0.9861
  151MOL0     H20371   5.633   7.058   3.321  0.4853  0.4411  1.0010
  151MOL0     H20372   5.645   7.248   3.494  0.1862 -4.0578  1.5495
  151MOL0     H20373   5.703   7.643   3.603 -3.0171 -2.7398  1.3259
  151MOL0     H20374   5.675   7.797   3.798 -0.4512 -0.8300 -0.9256
  151MOL0     H20375   5.635   7.871   3.997 -1.5511 -0.6078  2.0370
  151MOL0     H20376   5.702   7.878   4.164  0.5413 -0.1173 -0.0859
  151MOL0     H20377   5.741   8.094   4.034 -0.2131  0.6559  0.2612
  151MOL0     H20378   5.802   7.999   3.895  1.6345  0.8529  0.5888
  151MOL0     H20379   6.000   7.950   3.978  0.5595  1.4910 -1.7474
  151MOL0     H20380   5.974   8.004   4.145  2.2291 -3.2703 -0.5007
  151MOL0     H20381   6.089   8.198   4.029 -1.0458  2.4410  1.0067
  151MOL0     H20382   5.917   8.234   4.045 -2.0626 -4.6049  2.1243
  151MOL0     H20383   5.930   8.229   3.631  0.6873 -1.2445 -0.4509
  151MOL0     H20384   5.981   7.581   4.005  0.2565  0.9356 -0.2831
  151MOL0     H20385   6.026   7.453   3.811  0.0563  0.8481  3.5846
  152MOL0     O20386   0.982   8.332   0.307 -1.1216  0.1531  0.1712
  152MOL0     C20387   0.962   8.315   0.189  0.2406  0.2630 -0.4981
  152MOL0     O20388   0.841   8.294   0.131  0.1402 -0.0620 -0.4341
  152MOL0     C20389   0.726   8.337   0.197 -0.0188  0.4831 -0.1113
  152MOL0     C20390   0.720   8.439   0.301  0.1972  0.4031  0.8040
  152MOL0     C20391   0.595   8.466   0.361 -0.0517  1.0151 -0.2345
  152MOL0     C20392   0.479   8.401   0.329 -0.6302 -0.1979  0.7830
  152MOL0     O20393   0.360   8.432   0.401  0.1454  0.1540  0.4683
  152MOL0     C20394   0.247   8.346   0.391 -0.6346 -1.1582 -0.6117
  152MOL0     C20395   0.154   8.396   0.500  0.3318  0.0253 -1.2639
  152MOL0     C20396   0.060   8.277   0.540  0.4992  0.0104  0.2060
  152MOL0     C20397  -0.042   8.325   0.647  0.8424  0.2944  0.6061
  152MOL0     C20398  -0.157   8.411   0.579  0.0449 -0.5974 -0.4760
  152MOL0     C20399  -0.258   8.335   0.490 -0.5323  0.5288  0.1784
  152MOL0     C20400  -0.341   8.432   0.409  0.0492 -1.4822 -0.3339
  152MOL0     C20401  -0.287   8.472   0.274  0.3316  0.9384  0.3202
  152MOL0     N20402  -0.223   8.371   0.198 -0.7983 -0.1417  0.1208
  152MOL0     C20403  -0.292   8.276   0.134  0.0813 -0.0611  0.3798
  152MOL0     C20404  -0.204   8.194   0.084 -0.1529 -0.5494  0.1579
  152MOL0     C20405  -0.257   8.069   0.010  0.1846  0.2258 -0.5967
  152MOL0     C20406  -0.196   8.037  -0.126 -0.6671  0.3162 -0.5834
  152MOL0     C20407  -0.261   7.913  -0.189  0.6534 -0.2520  0.3054
  152MOL0     C20408  -0.398   7.934  -0.231  0.1504  0.2341 -1.0248
  152MOL0     O20409  -0.455   7.838  -0.327 -0.3293  0.3185 -0.5455
  152MOL0     C20410  -0.457   7.709  -0.292  1.0844  0.5806 -0.1529
  152MOL0     C20411  -0.502   7.628  -0.400 -0.0418 -0.0478 -0.5336
  152MOL0     C20412  -0.543   7.495  -0.371  0.2941 -0.2589  0.6138
  152MOL0     C20413  -0.590   7.414  -0.486  0.0860 -0.5852  0.7913
  152MOL0     C20414  -0.546   7.442  -0.236 -0.5954 -0.0559  1.2825
  152MOL0     C20415  -0.579   7.300  -0.198  0.6842  0.8569  0.4470
  152MOL0     O20416  -0.547   7.273  -0.066  0.2066  0.3968  0.1296
  152MOL0     C20417  -0.608   7.174   0.002 -0.0481 -0.0313  0.0675
  152MOL0     C20418  -0.537   7.086   0.072 -0.7554  0.0150 -0.7000
  152MOL0     C20419  -0.588   6.985   0.158  0.3515  0.0473  0.1513
  152MOL0     C20420  -0.728   6.977   0.176 -0.5667 -0.6779  0.0664
  152MOL0     O20421  -0.769   6.871   0.259  0.5456 -0.2634  0.4318
  152MOL0     C20422  -0.891   6.806   0.216 -0.5965 -0.2694  0.9307
  152MOL0     C20423  -0.927   6.698   0.316  0.0114  0.4330 -0.6619
  152MOL0     C20424  -0.943   6.766   0.454 -0.4546  0.7769  0.6680
  152MOL0     C20425  -1.026   6.671   0.544 -0.1736  0.2037 -0.3653
  152MOL0     C20426  -1.029   6.720   0.693  0.1178 -0.3786 -0.0246
  152MOL0     C20427  -1.114   6.620   0.781  0.3568  0.4135  0.3680
  152MOL0     C20428  -1.093   6.630   0.934  0.1490  0.6772 -0.1172
  152MOL0     C20429  -1.183   6.544   1.017 -0.2382 -0.2243 -0.6454
  152MOL0    Cl20430  -1.346   6.597   0.991  0.1240  0.2508 -0.3738
  152MOL0     C20431  -0.804   7.078   0.109  1.2581 -0.0947 -0.0589
  152MOL0     C20432  -0.741   7.176   0.036  0.6104  0.0714  0.2788
  152MOL0     O20433  -0.638   7.223  -0.270 -0.3473  0.2920 -0.0348
  152MOL0     C20434  -0.484   7.525  -0.142 -0.3631  0.0108  1.1230
  152MOL0     C20435  -0.451   7.658  -0.158 -0.2265 -0.2296 -0.1359
  152MOL0     N20436  -0.077   8.249   0.110 -0.0433  0.5640 -0.0505
  152MOL0     N20437  -0.090   8.358   0.183  0.0084 -0.1327  0.3032
  152MOL0     C20438   0.491   8.307   0.223 -0.3971  0.2945  0.2437
  152MOL0     C20439   0.611   8.281   0.151  0.9407  0.6006 -0.2209
  152MOL0     C20440   1.082   8.313   0.090 -0.3081 -0.3078 -1.2663
  152MOL0     C20441   1.059   8.306  -0.047 -0.3857 -0.1357 -0.2554
  152MOL0     C20442   1.166   8.327  -0.129  0.0427  0.2295  0.2049
  152MOL0     C20443   1.300   8.356  -0.088  0.8808  0.1651  0.9386
  152MOL0     O20444   1.410   8.359  -0.170 -0.2495 -0.1466  0.5518
  152MOL0     C20445   1.388   8.343  -0.313 -0.8075  0.6009 -0.2490
  152MOL0     C20446   1.503   8.358  -0.398 -0.1201 -0.9450 -0.0419
  152MOL0     C20447   1.607   8.252  -0.355 -0.4448  0.0362 -0.0737
  152MOL0     C20448   1.743   8.253  -0.425  0.8368  0.3400  0.0352
  152MOL0     C20449   1.726   8.260  -0.571  0.1750 -0.6853 -0.2731
  152MOL0     C20450   1.718   8.237  -0.691  0.1275 -0.1166 -0.0878
  152MOL0     C20451   1.321   8.356   0.052 -0.2271 -0.4964  0.3986
  152MOL0     C20452   1.215   8.328   0.143  0.7806 -0.3904 -0.3766
  152MOL0     H20453   0.808   8.494   0.333  1.7463 -1.4765  0.0554
  152MOL0     H20454   0.595   8.540   0.441 -1.9304  0.2512  0.5250
  152MOL0     H20455   0.205   8.329   0.292 -1.3198 -0.4403 -0.4562
  152MOL0     H20456   0.291   8.247   0.406  1.3707 -0.6270 -2.5560
  152MOL0     H20457   0.219   8.421   0.585  0.6388 -0.4502 -1.3561
  152MOL0     H20458   0.097   8.482   0.463  0.8756  1.3494  0.8520
  152MOL0     H20459   0.013   8.225   0.456  2.4761 -1.5794 -0.0068
  152MOL0     H20460   0.098   8.188   0.590 -1.4320 -0.9224  0.0876
  152MOL0     H20461  -0.091   8.241   0.697  1.6233 -0.2465  0.4781
  152MOL0     H20462   0.013   8.371   0.729  1.2935 -2.7591  2.1604
  152MOL0     H20463  -0.218   8.456   0.659 -1.4623  2.0501 -2.9290
  152MOL0     H20464  -0.112   8.498   0.531  0.7287 -0.0595  1.0750
  152MOL0     H20465  -0.210   8.271   0.415 -2.4399 -0.6839 -0.0635
  152MOL0     H20466  -0.319   8.264   0.547  0.0876  0.8983  1.3459
  152MOL0     H20467  -0.438   8.382   0.401  0.5926 -2.3602 -1.7177
  152MOL0     H20468  -0.355   8.524   0.468 -0.6243 -0.3390 -2.1801
  152MOL0     H20469  -0.216   8.555   0.279  1.2494  0.6651 -4.0517
  152MOL0     H20470  -0.370   8.513   0.215  0.5720 -1.7977 -2.1628
  152MOL0     H20471  -0.399   8.286   0.119  0.6669  3.6405 -2.9805
  152MOL0     H20472  -0.237   7.987   0.079  0.2807 -0.2822 -1.2261
  152MOL0     H20473  -0.366   8.064   0.005  0.0444 -1.7153  2.0912
  152MOL0     H20474  -0.092   8.015  -0.101 -1.2454  0.3796  2.1962
  152MOL0     H20475  -0.198   8.123  -0.194  0.5116 -0.4047 -1.5662
  152MOL0     H20476  -0.249   7.825  -0.126  2.0606  1.2767  2.2957
  152MOL0     H20477  -0.210   7.905  -0.286 -2.0499  1.5736 -1.4059
  152MOL0     H20478  -0.411   8.030  -0.282  3.7543  0.4088 -1.9036
  152MOL0     H20479  -0.467   7.939  -0.146  2.4797  0.6975  0.9658
  152MOL0     H20480  -0.503   7.673  -0.499  0.3382  0.5616 -0.2672
  152MOL0     H20481  -0.531   7.323  -0.469  1.1765  0.2552  1.6609
  152MOL0     H20482  -0.697   7.393  -0.489 -0.3873  1.3647  1.8958
  152MOL0     H20483  -0.554   7.446  -0.585  1.6563 -4.4580 -0.0662
  152MOL0     H20484  -0.432   7.076   0.048 -0.9762 -2.8734 -0.8050
  152MOL0     H20485  -0.515   6.911   0.191  0.6828 -0.2473 -1.1527
  152MOL0     H20486  -0.971   6.880   0.217 -0.2522  0.1564 -0.6449
  152MOL0     H20487  -0.882   6.759   0.118 -5.1804 -1.6151  0.8977
  152MOL0     H20488  -1.019   6.644   0.291 -0.7276  1.6088 -0.5612
  152MOL0     H20489  -0.845   6.626   0.305  1.9523  2.4658 -0.1791
  152MOL0     H20490  -0.987   6.864   0.436 -1.8787 -0.1201 -1.1743
  152MOL0     H20491  -0.844   6.776   0.499  0.6647 -1.8668 -0.8999
  152MOL0     H20492  -1.130   6.649   0.518  0.3762 -2.8158 -0.3884
  152MOL0     H20493  -0.970   6.579   0.528  0.0877  0.6532 -2.3854
  152MOL0     H20494  -1.079   6.817   0.696  1.4997  0.3491  2.6129
  152MOL0     H20495  -0.928   6.732   0.733 -0.2234  0.9937  0.4745
  152MOL0     H20496  -1.220   6.627   0.753  0.1029  0.6760  1.3636
  152MOL0     H20497  -1.074   6.523   0.751  1.7531  1.6848 -2.2450
  152MOL0     H20498  -1.122   6.734   0.951 -0.7560  0.5478 -0.7955
  152MOL0     H20499  -0.987   6.611   0.955  0.1977 -1.7246 -2.1407
  152MOL0     H20500  -1.155   6.554   1.122  1.9912 -1.1943 -1.0939
  152MOL0     H20501  -1.169   6.441   0.982 -0.4937  0.5199 -3.1212
  152MOL0     H20502  -0.912   7.089   0.121  1.0773 -2.0076  0.3843
  152MOL0     H20503  -0.804   7.256  -0.002  0.6062  0.7152  1.5913
  152MOL0     H20504  -0.472   7.490  -0.040  0.0113  1.5437  1.6361
  152MOL0     H20505  -0.446   7.726  -0.074 -2.4964  1.6029 -1.3555
  152MOL0     H20506   0.408   8.243   0.193  1.3378 -1.7417 -0.5142
  152MOL0     H20507   0.621   8.202   0.078  2.5613 -0.8558  1.4698
  152MOL0     H20508   0.962   8.283  -0.089  0.4325 -3.2530 -0.7490
  152MOL0     H20509   1.138   8.331  -0.234 -0.5610 -1.5031  0.2622
  152MOL0     H20510   1.341   8.246  -0.332 -0.4170  0.0338  1.5442
  152MOL0     H20511   1.323   8.426  -0.342 -0.5353  0.6802 -0.6358
  152MOL0     H20512   1.551   8.457  -0.388  0.8738 -1.4137 -0.0296
  152MOL0     H20513   1.475   8.348  -0.503  0.6601  0.0908 -0.3736
  152MOL0     H20514   1.566   8.152  -0.368 -1.2607  0.2265  0.8552
  152MOL0     H20515   1.622   8.270  -0.248 -2.5823 -0.2400  0.3124
  152MOL0     H20516   1.800   8.165  -0.394  4.0545  2.2962  0.1020
  152MOL0     H20517   1.803   8.336  -0.389 -1.7884  2.2181  0.3439
  152MOL0     H20518   1.714   8.233  -0.798  0.3432  0.1642 -0.1101
  152MOL0     H20519   1.417   8.388   0.090  0.5249 -1.3336 -0.7412
  152MOL0     H20520   1.236   8.311   0.248 -3.6635 -0.0622  0.7667
  153MOL0     O20521   7.907   8.086   1.124  0.6639 -0.4478  0.4889
  153MOL0     C20522   7.890   8.104   1.248 -0.4629  0.5033  0.3370
  153MOL0     O20523   7.769   8.116   1.317  0.4559  0.9434 -0.2357
  153MOL0     C20524   7.649   8.143   1.265  0.8469  0.0954  0.1669
  153MOL0     C20525   7.609   8.128   1.136  0.5789 -0.7195 -0.5438
  153MOL0     C20526   7.479   8.172   1.100  0.5807 -0.4024  0.0195
  153MOL0     C20527   7.387   8.232   1.184  0.4741 -0.3902 -0.9462
  153MOL0     O20528   7.273   8.286   1.138 -0.4086 -0.5368 -0.2506
  153MOL0     C20529   7.187   8.380   1.215 -0.7680 -0.5334  0.4579
  153MOL0     C20530   7.068   8.415   1.129  0.7254 -0.7980  0.3842
  153MOL0     C20531   7.094   8.501   1.002  0.1831  0.2734 -0.3441
  153MOL0     C20532   6.969   8.568   0.955 -0.0228 -0.2271  0.3039
  153MOL0     C20533   7.004   8.690   0.861 -0.6469  0.2738 -0.5732
  153MOL0     C20534   6.875   8.756   0.820  0.2111  0.1462 -0.8830
  153MOL0     C20535   6.890   8.878   0.727  0.3391 -0.6018 -0.6546
  153MOL0     C20536   6.931   8.847   0.584 -0.3971 -0.2310 -0.5203
  153MOL0     N20537   6.813   8.820   0.506  0.4982 -0.3144  0.1845
  153MOL0     C20538   6.717   8.896   0.454 -0.3910 -0.1813  0.1059
  153MOL0     C20539   6.646   8.817   0.373 -0.4047 -0.4326 -0.3953
  153MOL0     C20540   6.533   8.863   0.286 -0.2155  0.4155 -0.4755
  153MOL0     C20541   6.406   8.796   0.333 -0.0918  1.1632  0.4089
  153MOL0     C20542   6.293   8.855   0.252 -0.1168  0.0927  0.8484
  153MOL0     C20543   6.161   8.783   0.268  0.5406 -0.4521 -0.6663
  153MOL0     O20544   6.056   8.856   0.202  0.4673 -0.3670 -0.1079
  153MOL0     C20545   5.930   8.801   0.212  0.9817  0.0103  1.0254
  153MOL0     C20546   5.890   8.686   0.276 -0.4223  0.4154 -0.2134
  153MOL0     C20547   5.755   8.641   0.287  0.1670 -0.4691 -0.8303
  153MOL0     C20548   5.726   8.509   0.353  0.8354  0.4914  0.3767
  153MOL0     C20549   5.652   8.726   0.226  0.0482  0.5700  0.4283
  153MOL0     C20550   5.512   8.682   0.205  0.1136  0.2623  0.3225
  153MOL0     O20551   5.430   8.781   0.170 -0.1269 -0.3567 -0.1204
  153MOL0     C20552   5.297   8.745   0.140  0.8390 -0.3144 -1.2936
  153MOL0     C20553   5.198   8.800   0.219  0.3493 -0.1814 -0.0392
  153MOL0     C20554   5.060   8.763   0.190 -0.2367  0.3354  0.1321
  153MOL0     C20555   5.026   8.690   0.080 -0.6846  0.6422 -0.0454
  153MOL0     O20556   4.892   8.678   0.052  0.5763  0.0309  0.2493
  153MOL0     C20557   4.852   8.621  -0.072  0.5821 -0.2790 -0.1888
  153MOL0     C20558   4.700   8.627  -0.074  0.4966 -0.8371  0.0107
  153MOL0     C20559   4.643   8.558  -0.193 -0.6419 -0.2607 -0.0314
  153MOL0     C20560   4.497   8.540  -0.183  0.3976  0.1038 -0.4965
  153MOL0     C20561   4.443   8.465  -0.293  0.1085 -0.3417  0.3989
  153MOL0     C20562   4.295   8.480  -0.299  0.0188  0.9015 -0.4540
  153MOL0     C20563   4.240   8.391  -0.414  0.4086  0.2102  0.2834
  153MOL0     C20564   4.088   8.378  -0.393  0.4072  0.2584  0.0766
  153MOL0    Cl20565   4.024   8.546  -0.423 -0.3262  0.1531 -0.3652
  153MOL0     C20566   5.130   8.643  -0.005 -0.0113  0.0646 -0.4245
  153MOL0     C20567   5.262   8.669   0.032 -0.3185 -0.5038  0.7054
  153MOL0     O20568   5.482   8.568   0.213  0.6230  0.1670 -0.7269
  153MOL0     C20569   5.688   8.853   0.181 -0.0223  0.7399 -0.2941
  153MOL0     C20570   5.826   8.890   0.173 -0.5294 -0.1518 -0.2093
  153MOL0     N20571   6.684   8.690   0.390 -0.1833 -0.4618  0.1273
  153MOL0     N20572   6.783   8.689   0.469  0.0597 -0.4771  0.6764
  153MOL0     C20573   7.434   8.245   1.314  0.6540 -0.4988 -0.5658
  153MOL0     C20574   7.558   8.204   1.356  0.0694 -0.6602 -0.5668
  153MOL0     C20575   8.023   8.105   1.332 -0.0828  1.1422 -0.0021
  153MOL0     C20576   8.150   8.077   1.269 -0.2006  0.1731 -0.2536
  153MOL0     C20577   8.263   8.082   1.340  0.7377 -0.6567  0.3654
  153MOL0     C20578   8.264   8.112   1.476 -0.3591 -0.6440 -0.0140
  153MOL0     O20579   8.381   8.117   1.545 -1.0384  0.3747 -0.6195
  153MOL0     C20580   8.431   8.251   1.580 -0.1775 -0.0064 -0.5680
  153MOL0     C20581   8.539   8.234   1.675  0.6346 -0.1417 -1.0616
  153MOL0     C20582   8.626   8.365   1.684  0.8981  0.0040 -0.8130
  153MOL0     C20583   8.769   8.353   1.735  0.0532 -0.7864  0.4388
  153MOL0     C20584   8.860   8.266   1.662 -0.5921 -0.7903  0.4710
  153MOL0     C20585   8.944   8.207   1.600  0.7932 -0.1258 -1.0019
  153MOL0     C20586   8.142   8.144   1.538  0.7884 -0.3162 -0.7870
  153MOL0     C20587   8.021   8.130   1.468 -0.1925  0.0814 -0.0873
  153MOL0     H20588   7.676   8.079   1.066  1.5820 -0.2297  0.0451
  153MOL0     H20589   7.437   8.168   0.999  0.7096 -0.8598 -0.0198
  153MOL0     H20590   7.153   8.337   1.310 -1.7306  0.1418  0.4343
  153MOL0     H20591   7.229   8.480   1.227 -0.2714 -0.3166 -2.3382
  153MOL0     H20592   7.017   8.325   1.094 -1.2828  0.0060  1.1017
  153MOL0     H20593   7.003   8.470   1.198 -0.5653 -1.3667 -0.3306
  153MOL0     H20594   7.176   8.570   1.020 -0.6146  1.0706  0.3615
  153MOL0     H20595   7.120   8.433   0.921  1.4080  2.5596 -1.9606
  153MOL0     H20596   6.905   8.492   0.909 -1.7023  2.0737 -1.4563
  153MOL0     H20597   6.915   8.602   1.043  1.6790 -2.8363  2.5009
  153MOL0     H20598   7.073   8.752   0.918  2.3861 -0.9578 -2.5887
  153MOL0     H20599   7.056   8.645   0.776  0.1816 -1.0279  0.5846
  153MOL0     H20600   6.804   8.683   0.781  0.1968 -1.1521  1.4157
  153MOL0     H20601   6.822   8.783   0.912  2.1693 -2.8977  1.3143
  153MOL0     H20602   6.794   8.930   0.726  0.5271 -0.2137 -2.6825
  153MOL0     H20603   6.962   8.946   0.773 -0.1914  0.4851 -1.3819
  153MOL0     H20604   7.006   8.767   0.578 -3.0265 -2.7490 -3.5859
  153MOL0     H20605   6.986   8.926   0.531 -1.6028 -1.3680 -3.7291
  153MOL0     H20606   6.705   9.004   0.447  1.0634 -0.0052 -0.0062
  153MOL0     H20607   6.522   8.971   0.283 -0.1764  0.4761  0.9232
  153MOL0     H20608   6.560   8.825   0.187  2.8120 -0.1543  0.4610
  153MOL0     H20609   6.395   8.801   0.441 -0.9967 -2.7995  0.6547
  153MOL0     H20610   6.416   8.689   0.310 -0.2140  1.7134 -2.6348
  153MOL0     H20611   6.321   8.858   0.146  2.8400 -0.8962  1.4955
  153MOL0     H20612   6.300   8.959   0.285  1.7257 -0.0540  1.0257
  153MOL0     H20613   6.131   8.771   0.373 -0.8239  0.7761 -0.8762
  153MOL0     H20614   6.166   8.683   0.225 -0.8234 -0.5527 -0.6379
  153MOL0     H20615   5.961   8.613   0.314 -0.9872  0.9410  1.9738
  153MOL0     H20616   5.638   8.514   0.419  1.6478 -0.1549  1.5547
  153MOL0     H20617   5.697   8.438   0.276  1.4194 -0.2847  0.8565
  153MOL0     H20618   5.802   8.465   0.418 -1.3489  1.8852  4.2395
  153MOL0     H20619   5.234   8.866   0.298  1.7783  0.7179 -1.3889
  153MOL0     H20620   4.977   8.795   0.252 -0.2616  0.4641  0.0325
  153MOL0     H20621   4.901   8.669  -0.158 -0.4719 -0.6866 -1.0323
  153MOL0     H20622   4.893   8.519  -0.077  1.0339 -0.1513  0.7946
  153MOL0     H20623   4.666   8.598   0.026  1.8555  1.2825  1.1738
  153MOL0     H20624   4.669   8.732  -0.075 -1.4548 -1.2853  2.6020
  153MOL0     H20625   4.690   8.459  -0.196 -0.0626  0.0306 -0.7700
  153MOL0     H20626   4.670   8.618  -0.280  0.9504 -2.5829 -1.2506
  153MOL0     H20627   4.472   8.491  -0.088 -1.1074  1.0494 -0.3700
  153MOL0     H20628   4.451   8.640  -0.181  0.7914  0.2812  0.5346
  153MOL0     H20629   4.485   8.364  -0.292  1.4633  0.1893  0.2226
  153MOL0     H20630   4.483   8.518  -0.380 -0.7008  1.1157  0.8848
  153MOL0     H20631   4.250   8.458  -0.201  0.0893  3.1412  0.1374
  153MOL0     H20632   4.261   8.583  -0.313  0.4163  1.4031  1.8142
  153MOL0     H20633   4.293   8.296  -0.404  0.3002  0.3200  2.2638
  153MOL0     H20634   4.248   8.448  -0.507  0.2846  0.8065  0.6382
  153MOL0     H20635   4.068   8.351  -0.288 -0.0181 -0.6191 -0.2198
  153MOL0     H20636   4.044   8.307  -0.463  0.9638  0.5918 -0.6233
  153MOL0     H20637   5.111   8.570  -0.083 -3.6659 -1.9131  1.9968
  153MOL0     H20638   5.337   8.635  -0.039  0.9959  4.3120 -0.5497
  153MOL0     H20639   5.614   8.926   0.151 -0.0444  0.7929 -0.1120
  153MOL0     H20640   5.860   8.979   0.120 -1.0449  0.1937  0.0276
  153MOL0     H20641   7.385   8.297   1.396  0.3720  2.7406 -2.6016
  153MOL0     H20642   7.593   8.231   1.455  1.4925 -0.2601 -1.1654
  153MOL0     H20643   8.157   8.037   1.168  0.5094 -2.8433  0.8909
  153MOL0     H20644   8.359   8.066   1.291  1.5761 -0.1256  1.7772
  153MOL0     H20645   8.470   8.290   1.486  1.6907  0.9984  0.5643
  153MOL0     H20646   8.353   8.311   1.626  0.0240 -0.4945  0.4440
  153MOL0     H20647   8.597   8.147   1.643 -0.9810 -0.5639 -3.0968
  153MOL0     H20648   8.526   8.201   1.778  2.6807  1.3757 -0.2521
  153MOL0     H20649   8.566   8.427   1.752  1.1945 -0.8079  0.2118
  153MOL0     H20650   8.620   8.412   1.585 -0.4261  0.4420 -0.5469
  153MOL0     H20651   8.768   8.320   1.840 -0.9929 -0.3839  0.5653
  153MOL0     H20652   8.808   8.455   1.742 -2.5502  0.5923 -2.6956
  153MOL0     H20653   9.013   8.154   1.538  1.0492  0.8516 -1.5634
  153MOL0     H20654   8.154   8.179   1.640  2.5264 -0.3778 -0.9367
  153MOL0     H20655   7.918   8.139   1.502 -1.5960 -1.7281 -3.3437
  154MOL0     O20656   9.009  11.114   8.489  0.7953  0.2731 -0.5335
  154MOL0     C20657   9.091  11.201   8.512  0.0315 -0.0084  0.3904
  154MOL0     O20658   9.070  11.340   8.485 -0.7082 -0.6638 -0.1294
  154MOL0     C20659   8.946  11.381   8.448  0.3362  0.6189 -0.9782
  154MOL0     C20660   8.932  11.483   8.359 -0.4892 -0.1662 -0.7230
  154MOL0     C20661   8.817  11.540   8.314 -0.1289  0.4848 -0.0750
  154MOL0     C20662   8.693  11.488   8.352  0.0293 -0.3362 -0.8110
  154MOL0     O20663   8.579  11.550   8.311  0.2020  0.6155 -0.7688
  154MOL0     C20664   8.466  11.463   8.279 -0.3467 -0.1605  0.0422
  154MOL0     C20665   8.347  11.543   8.233 -0.2478  0.4732  0.7318
  154MOL0     C20666   8.243  11.454   8.161 -0.0366 -0.4083  0.0260
  154MOL0     C20667   8.141  11.555   8.098 -0.4089  0.0680  0.4023
  154MOL0     C20668   8.012  11.485   8.054 -0.1865 -1.3055  0.3606
  154MOL0     C20669   7.888  11.540   8.131  0.0577 -0.0001 -0.6210
  154MOL0     C20670   7.770  11.475   8.063  0.7972  0.3422  0.2178
  154MOL0     C20671   7.640  11.548   8.102 -0.2086  0.8050 -0.7099
  154MOL0     N20672   7.635  11.577   8.251 -0.2142  0.3072 -0.3315
  154MOL0     C20673   7.619  11.485   8.348  0.4362  0.2770 -0.4521
  154MOL0     C20674   7.611  11.546   8.468  0.3853 -0.7742 -0.2028
  154MOL0     C20675   7.599  11.474   8.600 -0.3555  0.8075  0.5308
  154MOL0     C20676   7.480  11.524   8.682 -0.1876  0.2651  0.5350
  154MOL0     C20677   7.510  11.630   8.790 -0.2639 -0.3220 -0.1825
  154MOL0     C20678   7.389  11.704   8.854  0.7260  0.2024  0.0452
  154MOL0     O20679   7.355  11.615   8.964 -0.6319 -0.1480 -0.2268
  154MOL0     C20680   7.264  11.665   9.056 -1.1841  0.2158 -0.0607
  154MOL0     C20681   7.264  11.609   9.184  0.9954  0.3662 -0.2886
  154MOL0     C20682   7.189  11.673   9.289  0.8396 -0.2155  0.0233
  154MOL0     C20683   7.170  11.593   9.414 -0.2262 -0.6814  0.2009
  154MOL0     C20684   7.116  11.793   9.263 -0.0176  0.6154 -0.6327
  154MOL0     C20685   7.045  11.867   9.372  0.8040 -0.3279  0.1202
  154MOL0     O20686   7.109  11.885   9.492 -0.2967 -0.2019 -0.1701
  154MOL0     C20687   7.029  11.938   9.592 -0.6935  0.5716 -0.6574
  154MOL0     C20688   6.922  11.865   9.646  0.4876 -0.8148  0.0917
  154MOL0     C20689   6.854  11.914   9.754  1.2503  0.1163  0.8217
  154MOL0     C20690   6.901  12.025   9.815 -0.1643 -0.5628 -0.0905
  154MOL0     O20691   6.841  12.080   9.928  0.5997 -0.8131  0.6898
  154MOL0     C20692   6.699  12.091   9.923 -0.5478 -0.4502 -0.1209
  154MOL0     C20693   6.652  12.202  10.012 -0.2815  0.8704 -0.0911
  154MOL0     C20694   6.657  12.169  10.163  0.8296  0.1630  0.8767
  154MOL0     C20695   6.572  12.035  10.201  0.4532  1.1011 -0.3869
  154MOL0     C20696   6.524  12.035  10.345 -0.3213 -0.5354 -0.2077
  154MOL0     C20697   6.445  11.909  10.379 -0.2636 -0.0426 -0.0475
  154MOL0     C20698   6.394  11.913  10.525 -0.1446 -0.3360  0.9123
  154MOL0     C20699   6.307  11.796  10.554  0.9542  0.8322 -0.6352
  154MOL0    Cl20700   6.232  11.809  10.721  0.4951 -0.4717 -0.1196
  154MOL0     C20701   7.014  12.094   9.766  1.1141 -0.3994 -0.7090
  154MOL0     C20702   7.074  12.049   9.656  0.3795 -0.3004  0.2294
  154MOL0     O20703   6.930  11.898   9.352  0.1436 -0.2219  0.8095
  154MOL0     C20704   7.107  11.841   9.130 -0.2876 -0.2898  0.3067
  154MOL0     C20705   7.184  11.776   9.033 -0.2366 -0.4362  0.3320
  154MOL0     N20706   7.637  11.675   8.450  0.4206 -0.3322  0.6765
  154MOL0     N20707   7.643  11.697   8.319  0.5619 -0.4278  0.2708
  154MOL0     C20708   8.697  11.379   8.450  0.4605 -0.7990 -0.5089
  154MOL0     C20709   8.821  11.333   8.498 -0.0193  0.2819 -0.5374
  154MOL0     C20710   9.226  11.165   8.570  0.2624  0.6554 -0.6451
  154MOL0     C20711   9.293  11.266   8.641 -0.2052 -0.5762 -0.5302
  154MOL0     C20712   9.410  11.236   8.712 -0.2308  0.5822  0.6326
  154MOL0     C20713   9.474  11.109   8.712  0.3125 -0.4489 -0.1611
  154MOL0     O20714   9.591  11.112   8.784 -0.3278  0.7193  0.4295
  154MOL0     C20715   9.669  10.993   8.794 -1.0691  0.4306  0.0458
  154MOL0     C20716   9.780  11.006   8.903 -0.0789  0.1817  0.8602
  154MOL0     C20717   9.734  11.023   9.051 -0.0113 -0.4794  0.8462
  154MOL0     C20718   9.730  10.890   9.129 -0.1443  0.9124  0.5485
  154MOL0     C20719   9.860  10.819   9.130  0.1186 -0.0605  0.7833
  154MOL0     C20720   9.972  10.763   9.138  0.6115  0.1255 -1.0162
  154MOL0     C20721   9.416  11.014   8.634 -0.2402 -0.3119 -0.3190
  154MOL0     C20722   9.296  11.038   8.557 -0.4325  0.2539 -0.7918
  154MOL0     H20723   9.026  11.533   8.333 -0.4210  0.2978  0.3360
  154MOL0     H20724   8.827  11.627   8.250  0.4379  0.0917 -0.5398
  154MOL0     H20725   8.503  11.386   8.212  1.1965  0.6903 -0.1478
  154MOL0     H20726   8.428  11.416   8.370 -0.5092 -0.6578 -0.2859
  154MOL0     H20727   8.301  11.582   8.324  0.5628  1.9565  0.5482
  154MOL0     H20728   8.387  11.628   8.176  0.8969 -1.6636 -1.8802
  154MOL0     H20729   8.283  11.390   8.082  3.2345  2.2673 -0.7106
  154MOL0     H20730   8.187  11.387   8.227 -1.2963  0.4194 -0.1576
  154MOL0     H20731   8.115  11.638   8.164 -1.1728  0.6371 -0.5867
  154MOL0     H20732   8.197  11.602   8.016  0.5713 -0.9015  0.4849
  154MOL0     H20733   8.010  11.496   7.945 -0.7725  2.2584  0.6167
  154MOL0     H20734   8.013  11.376   8.058  2.2941 -1.3515 -0.0448
  154MOL0     H20735   7.891  11.511   8.236 -1.0659  0.8572 -0.3272
  154MOL0     H20736   7.879  11.649   8.123 -0.1072  0.2786  2.3827
  154MOL0     H20737   7.776  11.457   7.955 -5.1711 -1.2143 -0.2122
  154MOL0     H20738   7.752  11.374   8.101 -2.8859 -0.2126 -2.3976
  154MOL0     H20739   7.556  11.484   8.075 -1.2508  2.3912 -1.3691
  154MOL0     H20740   7.633  11.641   8.045 -1.1705 -0.5012 -2.8059
  154MOL0     H20741   7.610  11.377   8.339  0.6987  0.1146  1.0884
  154MOL0     H20742   7.584  11.367   8.581  0.7609  0.6012  0.7348
  154MOL0     H20743   7.695  11.485   8.651 -0.9110  0.2185  1.7545
  154MOL0     H20744   7.447  11.432   8.731  3.7269 -1.8200 -0.3124
  154MOL0     H20745   7.396  11.544   8.615 -2.7102 -0.0245  3.4029
  154MOL0     H20746   7.569  11.703   8.735 -1.0154 -1.0500 -2.0377
  154MOL0     H20747   7.569  11.592   8.874  0.4953  4.4501  1.7797
  154MOL0     H20748   7.304  11.697   8.786  2.3384 -3.2118 -1.9233
  154MOL0     H20749   7.415  11.808   8.875  1.2859  0.3677 -1.3054
  154MOL0     H20750   7.305  11.513   9.213 -3.1799 -1.4413  0.3436
  154MOL0     H20751   7.251  11.530   9.451 -0.6703  1.0142  4.6771
  154MOL0     H20752   7.170  11.673   9.489  0.0478 -0.1874 -0.3261
  154MOL0     H20753   7.076  11.539   9.429 -1.6272  1.9674  1.7079
  154MOL0     H20754   6.894  11.776   9.591 -0.5593  0.9451 -2.4076
  154MOL0     H20755   6.760  11.861   9.768  0.5141 -0.0625 -3.3926
  154MOL0     H20756   6.671  12.120   9.822  1.4753  0.5058 -0.4576
  154MOL0     H20757   6.656  11.992   9.944  0.3808 -0.8884 -0.2226
  154MOL0     H20758   6.696  12.300   9.990  1.0369  0.1891 -0.5465
  154MOL0     H20759   6.547  12.228   9.993 -1.2778 -0.0999  3.3661
  154MOL0     H20760   6.625  12.260  10.215  0.4962  0.0386  0.8973
  154MOL0     H20761   6.762  12.153  10.188  1.9608  2.9058 -1.6064
  154MOL0     H20762   6.489  12.024  10.131  2.3586 -1.6891 -2.4669
  154MOL0     H20763   6.634  11.950  10.169 -0.3354  1.0406 -1.8297
  154MOL0     H20764   6.466  12.127  10.354  0.0937 -0.4462  2.3338
  154MOL0     H20765   6.609  12.034  10.414 -0.2596 -2.3803 -0.2644
  154MOL0     H20766   6.360  11.908  10.310 -1.5323  2.0340  1.3651
  154MOL0     H20767   6.504  11.817  10.377 -0.6047 -0.2519 -1.1617
  154MOL0     H20768   6.334  12.003  10.536  1.0924  0.5032  1.0481
  154MOL0     H20769   6.479  11.913  10.595  0.2274  3.7570  0.6944
  154MOL0     H20770   6.363  11.704  10.533  0.4633  0.7961 -1.9125
  154MOL0     H20771   6.226  11.804  10.481 -2.1987 -2.5946  2.0824
  154MOL0     H20772   7.053  12.184   9.813  1.2158 -0.5536 -0.4974
  154MOL0     H20773   7.165  12.093   9.617  0.2423 -0.1910  0.0281
  154MOL0     H20774   7.036  11.922   9.114 -1.0244 -1.0162 -0.1206
  154MOL0     H20775   7.175  11.822   8.935  0.4432 -1.8311 -0.4144
  154MOL0     H20776   8.610  11.358   8.512  1.1558  2.5851  1.9336
  154MOL0     H20777   8.818  11.261   8.579 -3.3375 -0.9442 -1.5850
  154MOL0     H20778   9.256  11.367   8.651 -1.4967 -1.1351  0.7746
  154MOL0     H20779   9.468  11.316   8.757  2.7305 -0.8052 -0.4591
  154MOL0     H20780   9.610  10.905   8.821 -0.0183 -0.4936 -0.6060
  154MOL0     H20781   9.710  10.964   8.697  1.5242 -1.3817  1.5442
  154MOL0     H20782   9.834  11.097   8.875 -1.8851  1.6327  1.8390
  154MOL0     H20783   9.854  10.927   8.889  1.5263  2.1364 -3.6482
  154MOL0     H20784   9.635  11.069   9.055  0.7180  1.1137  2.0426
  154MOL0     H20785   9.807  11.093   9.094 -0.1614  1.3034 -1.5389
  154MOL0     H20786   9.650  10.835   9.078  1.2812  0.3142 -1.1687
  154MOL0     H20787   9.693  10.909   9.230 -2.7879  2.1216 -0.5373
  154MOL0     H20788  10.072  10.728   9.150  0.1470 -0.7263  0.7739
  154MOL0     H20789   9.468  10.920   8.624 -0.6803 -0.5440 -0.4148
  154MOL0     H20790   9.257  10.964   8.488 -1.9942 -0.2040  0.5285
  155MOL0     O20791   9.946   7.347   4.476  0.0565 -0.1040  0.3658
  155MOL0     C20792   9.947   7.325   4.598 -0.6259  0.2967  0.0311
  155MOL0     O20793   9.847   7.369   4.689 -0.2440 -0.0499 -0.4006
  155MOL0     C20794   9.735   7.419   4.634  0.5657  0.9430  1.1221
  155MOL0     C20795   9.728   7.535   4.563  0.4182 -1.2515 -0.3192
  155MOL0     C20796   9.601   7.579   4.517 -0.1183  0.9141  0.7509
  155MOL0     C20797   9.484   7.506   4.540  0.3328  0.1337  0.2243
  155MOL0     O20798   9.352   7.533   4.500  0.1819 -0.0309  0.1511
  155MOL0     C20799   9.339   7.665   4.438 -0.0192 -0.2445  0.1045
  155MOL0     C20800   9.189   7.696   4.427 -0.3808  0.0130 -0.8660
  155MOL0     C20801   9.153   7.821   4.346  0.4223  0.9171  0.2612
  155MOL0     C20802   9.186   7.807   4.192  0.0555  0.6363 -0.0142
  155MOL0     C20803   9.136   7.927   4.118 -0.1073  1.1788 -0.3473
  155MOL0     C20804   9.181   7.920   3.969  0.0003  0.0891  0.2048
  155MOL0     C20805   9.154   8.053   3.904  0.6261 -0.1299  0.4177
  155MOL0     C20806   9.156   8.040   3.754 -0.6987  0.1672 -0.6993
  155MOL0     N20807   9.147   8.169   3.684 -0.4994  0.3327  0.8776
  155MOL0     C20808   9.041   8.263   3.687 -0.5383  0.1015  0.3054
  155MOL0     C20809   9.088   8.368   3.617  0.7688  0.6478 -0.2154
  155MOL0     C20810   9.026   8.501   3.594  0.3682  0.5649 -0.2141
  155MOL0     C20811   8.870   8.488   3.560 -0.3524 -0.0723  0.0539
  155MOL0     C20812   8.854   8.405   3.433 -1.0550 -0.9203 -1.0233
  155MOL0     C20813   8.713   8.390   3.385 -0.1132  0.2823 -0.3793
  155MOL0     O20814   8.638   8.509   3.404  0.6275 -0.9091  0.3179
  155MOL0     C20815   8.514   8.501   3.474 -0.2674 -0.2605  1.0679
  155MOL0     C20816   8.499   8.438   3.601 -0.1719 -0.0346  0.2122
  155MOL0     C20817   8.368   8.408   3.642 -0.3162  0.0471 -0.4371
  155MOL0     C20818   8.356   8.336   3.774  0.5129  0.7358 -0.2175
  155MOL0     C20819   8.256   8.447   3.567 -0.0783 -0.2654  0.9506
  155MOL0     C20820   8.114   8.428   3.603  0.1061 -0.3389  0.2069
  155MOL0     O20821   8.083   8.468   3.729  0.4348 -0.5656 -0.2416
  155MOL0     C20822   7.963   8.429   3.783  0.9793  1.0076  0.4479
  155MOL0     C20823   7.947   8.303   3.842 -0.9488  0.3872 -0.3860
  155MOL0     C20824   7.821   8.256   3.868 -0.6435 -0.9796  0.2032
  155MOL0     C20825   7.709   8.335   3.853 -0.6036 -0.5995  0.3835
  155MOL0     O20826   7.581   8.298   3.867 -0.3691 -0.1893 -0.2484
  155MOL0     C20827   7.560   8.170   3.906  0.2997  0.1819  0.5127
  155MOL0     C20828   7.416   8.124   3.932 -0.4912  0.2678  1.0684
  155MOL0     C20829   7.350   8.191   4.061  0.3921 -0.3039 -0.3264
  155MOL0     C20830   7.203   8.163   4.066  0.3772  0.1029  0.8808
  155MOL0     C20831   7.136   8.263   4.176 -0.2491 -0.3484 -0.1959
  155MOL0     C20832   6.988   8.235   4.214  0.1946  0.1012 -0.8913
  155MOL0     C20833   6.954   8.299   4.362 -1.0148 -0.3798  0.4121
  155MOL0     C20834   6.809   8.308   4.381 -0.3150  0.3559 -0.2954
  155MOL0    Cl20835   6.728   8.152   4.376  0.3519  0.1077 -0.1633
  155MOL0     C20836   7.726   8.467   3.819 -0.0399 -0.1504  0.2505
  155MOL0     C20837   7.852   8.508   3.780  0.0648  0.5228 -0.0401
  155MOL0     O20838   8.037   8.397   3.519 -0.2579 -0.3713 -0.0149
  155MOL0     C20839   8.272   8.511   3.439 -0.7023 -0.5090  0.4905
  155MOL0     C20840   8.405   8.531   3.396 -0.0494 -0.3122 -0.3321
  155MOL0     N20841   9.210   8.329   3.562 -0.0223 -0.4703  0.1550
  155MOL0     N20842   9.246   8.209   3.599 -1.2825  0.5145 -0.4913
  155MOL0     C20843   9.494   7.383   4.607  0.2439 -0.0083 -0.2154
  155MOL0     C20844   9.617   7.344   4.653 -0.5257  0.4812 -0.4056
  155MOL0     C20845  10.063   7.256   4.658  0.8774  0.3087  0.4192
  155MOL0     C20846  10.072   7.256   4.798 -0.1699  0.7579 -0.1195
  155MOL0     C20847  10.165   7.190   4.873  0.9181 -0.7067  0.2023
  155MOL0     C20848  10.265   7.123   4.805  0.8403 -0.1862 -0.8397
  155MOL0     O20849  10.363   7.061   4.886 -0.2794 -0.5079 -0.3668
  155MOL0     C20850  10.498   7.121   4.884  0.6771 -0.6359  0.1761
  155MOL0     C20851  10.581   7.080   5.006 -0.8396 -0.1790 -0.7040
  155MOL0     C20852  10.594   6.926   5.010 -0.1948  0.4239  0.4378
  155MOL0     C20853  10.684   6.855   5.110 -0.7819  0.5460 -0.3857
  155MOL0     C20854  10.723   6.941   5.216 -0.6739 -0.0283  0.4659
  155MOL0     C20855  10.761   7.006   5.309 -0.2776  0.2036 -0.7758
  155MOL0     C20856  10.265   7.117   4.665  0.1062  0.0322 -0.3921
  155MOL0     C20857  10.157   7.180   4.588 -0.0756 -0.1168  0.6220
  155MOL0     H20858   9.819   7.592   4.549  0.4046 -1.2067 -0.2242
  155MOL0     H20859   9.604   7.670   4.459  0.7008 -0.6391 -1.8124
  155MOL0     H20860   9.388   7.743   4.496  0.4569 -1.1273  0.9201
  155MOL0     H20861   9.381   7.666   4.337  0.0155  0.0944  0.1236
  155MOL0     H20862   9.135   7.611   4.384  2.1857 -2.6846  0.8005
  155MOL0     H20863   9.147   7.700   4.527  4.2575  1.2350  1.2836
  155MOL0     H20864   9.045   7.834   4.359  0.2691  0.7681 -0.7505
  155MOL0     H20865   9.204   7.914   4.373  0.5912  1.0235 -0.3997
  155MOL0     H20866   9.294   7.791   4.193  0.2337  1.8060  1.2312
  155MOL0     H20867   9.137   7.717   4.152  0.6069  0.3814 -0.1304
  155MOL0     H20868   9.027   7.930   4.133 -0.2214 -0.9827 -0.4119
  155MOL0     H20869   9.183   8.014   4.164  1.5484 -0.8622  2.0975
  155MOL0     H20870   9.289   7.901   3.971  0.4809  2.5950  1.4939
  155MOL0     H20871   9.121   7.842   3.920 -2.4360  1.4780  0.7995
  155MOL0     H20872   9.059   8.100   3.932 -0.2559 -0.5769 -1.6429
  155MOL0     H20873   9.228   8.127   3.936  1.0702 -0.9337  1.3104
  155MOL0     H20874   9.081   7.974   3.710 -0.2877  0.3153 -1.6605
  155MOL0     H20875   9.249   7.989   3.729 -0.4067 -1.3534  2.8832
  155MOL0     H20876   8.944   8.248   3.735  1.1521 -1.2951  3.5750
  155MOL0     H20877   9.034   8.539   3.696  0.4623 -3.2698  1.3681
  155MOL0     H20878   9.085   8.560   3.523  0.7551  1.2337  0.6507
  155MOL0     H20879   8.828   8.589   3.555  0.6159  0.3020 -1.2039
  155MOL0     H20880   8.824   8.434   3.643  0.8361 -1.8402 -0.3613
  155MOL0     H20881   8.897   8.305   3.440  1.2719 -0.0300 -1.8386
  155MOL0     H20882   8.918   8.450   3.357  0.3944  0.5699  0.9517
  155MOL0     H20883   8.678   8.299   3.436  6.5341 -1.7128  1.7100
  155MOL0     H20884   8.709   8.374   3.277  2.7175  2.1794 -0.8488
  155MOL0     H20885   8.593   8.415   3.651 -0.1651  0.3794  0.4039
  155MOL0     H20886   8.430   8.259   3.798  2.2847  2.4554  0.1465
  155MOL0     H20887   8.344   8.412   3.852 -0.2337 -0.8522  1.2877
  155MOL0     H20888   8.266   8.276   3.764 -0.0272  1.2441  1.3155
  155MOL0     H20889   8.040   8.249   3.860 -1.5296  0.0496  1.9863
  155MOL0     H20890   7.813   8.151   3.895  5.0680 -1.5101  1.2276
  155MOL0     H20891   7.593   8.112   3.819 -2.3346  0.1021 -0.5507
  155MOL0     H20892   7.613   8.132   3.993 -2.0406 -0.7359  1.6375
  155MOL0     H20893   7.363   8.119   3.837  1.9186 -0.8552 -0.3144
  155MOL0     H20894   7.429   8.018   3.959  0.5992 -0.5433 -2.2496
  155MOL0     H20895   7.372   8.296   4.040  1.2929 -0.3153  0.4891
  155MOL0     H20896   7.397   8.161   4.155  0.6269  0.7844 -0.0842
  155MOL0     H20897   7.158   8.180   3.967  0.7635  1.7002  0.9440
  155MOL0     H20898   7.183   8.058   4.088 -0.7507 -0.6456 -2.9680
  155MOL0     H20899   7.145   8.367   4.143 -0.7217  0.1256  1.1240
  155MOL0     H20900   7.191   8.244   4.269 -2.2580 -0.2442  1.0879
  155MOL0     H20901   6.930   8.275   4.131 -1.1915  3.2024  1.3419
  155MOL0     H20902   6.960   8.130   4.226  1.1140 -0.1841 -1.1801
  155MOL0     H20903   6.994   8.401   4.360 -0.0421 -0.5814  3.5148
  155MOL0     H20904   7.003   8.248   4.446 -1.1846  0.3564  0.9745
  155MOL0     H20905   6.777   8.378   4.304 -0.6802  3.2664  2.2957
  155MOL0     H20906   6.789   8.353   4.479 -2.2121 -0.5189 -0.2327
  155MOL0     H20907   7.641   8.532   3.800  0.8055  0.6566 -0.9170
  155MOL0     H20908   7.858   8.611   3.745  0.3507  1.6544  3.0370
  155MOL0     H20909   8.186   8.532   3.375 -1.9263  0.5137  2.3796
  155MOL0     H20910   8.435   8.569   3.299 -0.9912 -0.0240 -0.5150
  155MOL0     H20911   9.407   7.320   4.624  0.5976 -0.2243  0.8563
  155MOL0     H20912   9.623   7.248   4.703  1.3643  1.4218  1.3578
  155MOL0     H20913  10.003   7.313   4.860 -1.4771 -1.2263  0.3293
  155MOL0     H20914  10.159   7.194   4.981 -2.1293  0.2905  0.1033
  155MOL0     H20915  10.552   7.094   4.793 -0.3660 -3.0898  0.1869
  155MOL0     H20916  10.479   7.228   4.887 -0.5019 -0.8458  2.0237
  155MOL0     H20917  10.539   7.119   5.099  2.1176 -2.0171  1.6029
  155MOL0     H20918  10.682   7.123   5.004 -0.3969 -1.1285  0.0311
  155MOL0     H20919  10.620   6.894   4.909 -0.0924  2.0532 -0.0646
  155MOL0     H20920  10.494   6.882   5.023  0.7088 -2.1365 -0.5218
  155MOL0     H20921  10.776   6.824   5.060  2.9890 -0.9134  6.3065
  155MOL0     H20922  10.642   6.761   5.147 -0.8233 -0.5147 -2.9533
  155MOL0     H20923  10.803   7.052   5.396 -0.0360 -0.7874 -0.3535
  155MOL0     H20924  10.350   7.068   4.618  0.6768 -0.1048  0.7416
  155MOL0     H20925  10.161   7.170   4.480  2.5155  0.0694  0.6411
  156MOL0     O20926   2.368   4.607   2.344 -0.3229  0.4380  0.4358
  156MOL0     C20927   2.388   4.731   2.322  0.5754  0.7151 -0.8937
  156MOL0     O20928   2.321   4.835   2.378  0.2547 -0.2375 -0.2846
  156MOL0     C20929   2.199   4.812   2.438  0.1981 -0.1095 -0.1559
  156MOL0     C20930   2.089   4.783   2.347  0.0248  0.3162  0.0109
  156MOL0     C20931   1.964   4.756   2.396 -0.2511 -0.1481  0.3009
  156MOL0     C20932   1.937   4.756   2.530  0.6091  0.2041  0.2991
  156MOL0     O20933   1.810   4.746   2.583  0.2989 -0.5975  0.0970
  156MOL0     C20934   1.691   4.716   2.505 -0.2269 -0.6459  1.1196
  156MOL0     C20935   1.597   4.649   2.603 -0.5300  0.0961  0.2470
  156MOL0     C20936   1.470   4.599   2.526  0.0592 -0.3948  0.0991
  156MOL0     C20937   1.354   4.561   2.616  0.5151 -0.0395 -0.6804
  156MOL0     C20938   1.242   4.500   2.531 -0.1901 -0.1812 -0.1014
  156MOL0     C20939   1.115   4.466   2.619 -0.5676 -0.4234  0.5034
  156MOL0     C20940   1.026   4.360   2.554 -0.4727  0.6390 -0.4204
  156MOL0     C20941   0.941   4.272   2.652  0.9544  0.5190  0.0581
  156MOL0     N20942   0.812   4.330   2.676  0.0211 -0.2063  0.4159
  156MOL0     C20943   0.768   4.344   2.810 -0.0037  0.1820  1.1922
  156MOL0     C20944   0.637   4.385   2.796 -0.9790  0.0249  0.2557
  156MOL0     C20945   0.535   4.404   2.904  0.6866 -0.2561  0.1167
  156MOL0     C20946   0.384   4.398   2.853  0.7644  0.4079 -0.3102
  156MOL0     C20947   0.325   4.536   2.866  0.6062  0.2329  0.1606
  156MOL0     C20948   0.170   4.528   2.865 -0.0680 -0.8233 -0.1014
  156MOL0     O20949   0.124   4.559   2.740 -0.0978 -0.4396  0.0612
  156MOL0     C20950  -0.009   4.591   2.721 -0.8020 -0.3751  0.0451
  156MOL0     C20951  -0.100   4.605   2.824  0.2854  0.3479  0.3913
  156MOL0     C20952  -0.234   4.640   2.798 -0.7848  0.3021  0.9118
  156MOL0     C20953  -0.311   4.667   2.925  0.7434  0.0216 -0.1953
  156MOL0     C20954  -0.279   4.651   2.664 -0.5368 -0.0808  0.4855
  156MOL0     C20955  -0.416   4.672   2.613  0.3893 -0.1137 -0.1066
  156MOL0     O20956  -0.444   4.651   2.485  0.1045  0.1258 -0.1095
  156MOL0     C20957  -0.580   4.654   2.448 -0.2731 -0.9845 -0.4860
  156MOL0     C20958  -0.654   4.531   2.439 -0.3203  0.2412 -0.1780
  156MOL0     C20959  -0.791   4.528   2.408  0.4294 -0.3499  0.6120
  156MOL0     C20960  -0.854   4.649   2.396 -0.7671 -0.9424  0.6489
  156MOL0     O20961  -0.984   4.665   2.353  0.2618  0.4457 -0.7015
  156MOL0     C20962  -1.074   4.552   2.333 -0.9700 -0.6080 -0.0380
  156MOL0     C20963  -1.216   4.612   2.298 -0.1772 -0.3865 -0.1293
  156MOL0     C20964  -1.304   4.486   2.281 -0.2987  0.3188  0.1594
  156MOL0     C20965  -1.449   4.543   2.248 -0.1425  0.2998 -0.2615
  156MOL0     C20966  -1.536   4.423   2.184 -0.7757  0.1971 -0.5404
  156MOL0     C20967  -1.679   4.460   2.153  0.9309 -0.5315  0.0686
  156MOL0     C20968  -1.753   4.334   2.105 -0.2567  0.2822 -0.2451
  156MOL0     C20969  -1.892   4.362   2.050 -0.0031  0.7707  0.8751
  156MOL0    Cl20970  -2.007   4.391   2.190 -0.0071 -0.0144  0.2207
  156MOL0     C20971  -0.776   4.772   2.403  0.2726 -0.0585  0.2337
  156MOL0     C20972  -0.642   4.779   2.441 -0.0722  1.3300  0.3386
  156MOL0     O20973  -0.487   4.739   2.690  0.5713 -0.1972  0.2248
  156MOL0     C20974  -0.177   4.652   2.560  0.4547  0.0884 -0.7054
  156MOL0     C20975  -0.043   4.616   2.589 -0.1952  0.3898 -0.3394
  156MOL0     N20976   0.598   4.392   2.662 -0.4336  0.7914  0.2368
  156MOL0     N20977   0.702   4.352   2.592 -0.0263  0.4500 -0.1254
  156MOL0     C20978   2.049   4.759   2.621 -0.2684 -0.0753 -0.7365
  156MOL0     C20979   2.177   4.785   2.578 -1.5915 -0.7276  0.9869
  156MOL0     C20980   2.510   4.770   2.252  1.3875 -0.3122  1.1462
  156MOL0     C20981   2.527   4.900   2.201  0.7895  0.3860  0.3896
  156MOL0     C20982   2.636   4.938   2.123 -0.5992 -0.5557  0.7019
  156MOL0     C20983   2.734   4.846   2.110 -0.3281  0.0833 -0.3597
  156MOL0     O20984   2.850   4.890   2.049  0.1246 -0.3285 -0.0113
  156MOL0     C20985   2.975   4.830   2.084 -1.0219 -0.9546 -0.7448
  156MOL0     C20986   3.085   4.930   2.044 -0.5598  0.5924 -0.8258
  156MOL0     C20987   3.060   5.069   2.102  0.3999  0.1434  0.0515
  156MOL0     C20988   3.167   5.175   2.076  0.5605  0.2489  0.2438
  156MOL0     C20989   3.159   5.263   2.191 -0.4547 -0.3902  0.2357
  156MOL0     C20990   3.158   5.339   2.274  0.1518  0.1064 -0.0730
  156MOL0     C20991   2.713   4.716   2.147 -0.1008 -0.6679  0.0504
  156MOL0     C20992   2.608   4.677   2.219 -0.5540  0.0797  0.3087
  156MOL0     H20993   2.107   4.797   2.241  0.3352  2.7816  0.3300
  156MOL0     H20994   1.885   4.755   2.322 -2.6716 -0.5142  2.7231
  156MOL0     H20995   1.650   4.809   2.464  0.1109 -0.6188  0.8420
  156MOL0     H20996   1.714   4.644   2.426 -0.9383 -0.5521  0.8151
  156MOL0     H20997   1.652   4.567   2.648  1.4817 -0.2791 -2.6469
  156MOL0     H20998   1.569   4.724   2.677 -6.3223  0.6131 -1.9411
  156MOL0     H20999   1.442   4.679   2.456 -0.6369 -1.3605 -0.7485
  156MOL0     H21000   1.493   4.509   2.468  2.3476 -0.3929  0.9224
  156MOL0     H21001   1.371   4.489   2.696 -0.4204 -1.1731 -1.4783
  156MOL0     H21002   1.316   4.649   2.669  1.0631  1.5198 -2.7583
  156MOL0     H21003   1.214   4.566   2.448 -0.9282 -0.9715 -0.4953
  156MOL0     H21004   1.281   4.407   2.489 -2.2854 -0.6408 -1.1357
  156MOL0     H21005   1.151   4.436   2.718  0.7720  0.6318  0.3525
  156MOL0     H21006   1.056   4.556   2.637 -0.7554 -0.2672 -0.8281
  156MOL0     H21007   0.950   4.410   2.493 -0.2287 -0.2209 -1.4592
  156MOL0     H21008   1.091   4.294   2.496 -1.4027 -0.7404  0.0530
  156MOL0     H21009   0.984   4.250   2.750  1.3380 -0.8612 -0.4049
  156MOL0     H21010   0.923   4.174   2.606 -0.4681 -1.3427  4.1568
  156MOL0     H21011   0.821   4.305   2.895  0.5975 -2.4162 -0.2649
  156MOL0     H21012   0.554   4.319   2.971  0.8465 -0.7244 -0.5098
  156MOL0     H21013   0.557   4.493   2.964  4.7146 -0.1145 -1.2717
  156MOL0     H21014   0.344   4.324   2.922  1.7082 -0.0395 -0.2190
  156MOL0     H21015   0.368   4.361   2.751 -0.9634 -3.8606  1.2883
  156MOL0     H21016   0.365   4.602   2.789 -0.3776  2.9784  1.8608
  156MOL0     H21017   0.367   4.594   2.949  1.0808 -0.5208  0.4614
  156MOL0     H21018   0.128   4.605   2.930  1.1372  0.1336 -0.4258
  156MOL0     H21019   0.133   4.428   2.892 -1.1631 -0.6839 -1.0327
  156MOL0     H21020  -0.074   4.601   2.930 -1.1822 -0.2085  0.7564
  156MOL0     H21021  -0.251   4.677   3.016 -0.3314 -3.2415  1.0209
  156MOL0     H21022  -0.372   4.757   2.914  0.9734  0.3668  1.1105
  156MOL0     H21023  -0.372   4.578   2.943  4.6624 -3.1430 -1.1972
  156MOL0     H21024  -0.601   4.442   2.471  0.2041  1.0085  1.2128
  156MOL0     H21025  -0.846   4.434   2.400  1.4733 -0.8072 -3.9702
  156MOL0     H21026  -1.034   4.490   2.252 -0.9995 -0.5414 -0.1039
  156MOL0     H21027  -1.074   4.496   2.427  4.4053  0.1452  0.7189
  156MOL0     H21028  -1.247   4.675   2.382  1.2435  0.9358 -0.5495
  156MOL0     H21029  -1.220   4.669   2.204 -0.2362  2.3892  1.4351
  156MOL0     H21030  -1.291   4.438   2.378  0.2798  3.5947  1.8478
  156MOL0     H21031  -1.271   4.430   2.192 -2.0592 -1.2156  0.4185
  156MOL0     H21032  -1.487   4.580   2.344 -0.4069  1.5744 -0.8308
  156MOL0     H21033  -1.452   4.632   2.185  3.6435  0.7876  0.0589
  156MOL0     H21034  -1.537   4.332   2.245  0.7625  0.2871 -0.3355
  156MOL0     H21035  -1.481   4.395   2.093  2.7923  2.6693  0.6153
  156MOL0     H21036  -1.730   4.501   2.240  1.2020  4.4882 -1.7964
  156MOL0     H21037  -1.690   4.534   2.073 -1.5108 -0.1486  0.6683
  156MOL0     H21038  -1.766   4.264   2.189  0.0143  1.4906  0.8234
  156MOL0     H21039  -1.694   4.295   2.022 -1.6337 -3.7283  0.3814
  156MOL0     H21040  -1.919   4.285   1.978 -1.4343  1.9365  0.1278
  156MOL0     H21041  -1.894   4.449   1.985  3.6032  1.1175  1.0192
  156MOL0     H21042  -0.818   4.869   2.379  1.1910 -0.3678 -3.0305
  156MOL0     H21043  -0.594   4.875   2.454  1.3282  0.7699 -0.4253
  156MOL0     H21044  -0.211   4.679   2.460 -1.4970  1.2983  0.2111
  156MOL0     H21045   0.039   4.620   2.518  2.4727  2.3361  2.5782
  156MOL0     H21046   2.038   4.730   2.725  1.1778 -0.4303 -0.6605
  156MOL0     H21047   2.260   4.790   2.648  0.2500 -3.1812 -0.8473
  156MOL0     H21048   2.451   4.976   2.214 -1.1361 -1.3960  0.0243
  156MOL0     H21049   2.652   5.038   2.085  0.8536 -0.9626  0.1769
  156MOL0     H21050   2.983   4.819   2.193  3.1037 -1.7087 -0.9693
  156MOL0     H21051   2.979   4.731   2.037  0.7959 -2.1705  1.7169
  156MOL0     H21052   3.100   4.949   1.937 -1.5767  0.5404 -0.9804
  156MOL0     H21053   3.180   4.887   2.076 -1.1544  0.4190  0.7659
  156MOL0     H21054   3.036   5.058   2.208  0.7598 -1.1583  0.0176
  156MOL0     H21055   2.970   5.113   2.057 -0.1060 -1.3874 -0.4940
  156MOL0     H21056   3.144   5.237   1.989 -1.1258  2.9493  2.4383
  156MOL0     H21057   3.266   5.131   2.063  0.6378  0.0932  1.2719
  156MOL0     H21058   3.147   5.404   2.358 -0.1581  1.5121 -1.1622
  156MOL0     H21059   2.780   4.634   2.125 -1.2796 -2.0545  1.4454
  156MOL0     H21060   2.587   4.576   2.252 -0.8897  0.2884  0.7568
  157MOL0     O21061  10.226   3.731   8.324 -0.4773 -0.4662 -0.1425
  157MOL0     C21062  10.249   3.740   8.203  0.1800 -0.0760 -0.1981
  157MOL0     O21063  10.156   3.695   8.099 -0.3333 -0.3279  0.1796
  157MOL0     C21064  10.035   3.643   8.131  0.0280 -0.3935  0.1947
  157MOL0     C21065   9.922   3.674   8.051 -0.3419 -0.4788  0.8301
  157MOL0     C21066   9.796   3.609   8.073 -0.5610 -0.4083  0.3415
  157MOL0     C21067   9.782   3.519   8.184 -0.4125  0.1246 -0.0247
  157MOL0     O21068   9.670   3.458   8.221  0.5994 -0.3337 -0.4290
  157MOL0     C21069   9.591   3.535   8.318  0.5683 -0.1938 -0.2689
  157MOL0     C21070   9.505   3.447   8.402 -0.6087 -0.2941 -0.8369
  157MOL0     C21071   9.379   3.378   8.342  0.0198 -0.4801  0.0053
  157MOL0     C21072   9.269   3.486   8.319 -0.9020  0.1473 -0.5567
  157MOL0     C21073   9.134   3.425   8.294 -0.1045  0.5401  0.2625
  157MOL0     C21074   9.028   3.535   8.256  0.5593 -0.0814 -0.8948
  157MOL0     C21075   8.895   3.469   8.206 -0.3995 -0.1734 -0.2501
  157MOL0     C21076   8.819   3.585   8.142  0.6977 -0.3292 -0.7246
  157MOL0     N21077   8.725   3.541   8.039  0.7073 -0.0316  0.0747
  157MOL0     C21078   8.669   3.416   8.027  0.3318  0.0514  0.1805
  157MOL0     C21079   8.602   3.412   7.910  0.5333  0.1409 -0.2028
  157MOL0     C21080   8.533   3.297   7.845  0.7513  0.2594  0.3808
  157MOL0     C21081   8.427   3.337   7.732 -0.1845 -0.1200 -0.0515
  157MOL0     C21082   8.334   3.227   7.691 -0.1025  0.8884 -0.4916
  157MOL0     C21083   8.199   3.269   7.665  0.7246 -1.0398  0.7793
  157MOL0     O21084   8.127   3.160   7.617  0.2249  0.3310  0.0650
  157MOL0     C21085   7.999   3.169   7.567 -0.3604 -0.6890 -0.4880
  157MOL0     C21086   7.947   3.293   7.546 -0.0468 -0.6715 -0.3294
  157MOL0     C21087   7.827   3.315   7.480  0.4111  0.3292  0.9288
  157MOL0     C21088   7.795   3.453   7.417  0.9138 -0.1455 -0.1559
  157MOL0     C21089   7.752   3.201   7.442  0.8443 -0.6451  0.3831
  157MOL0     C21090   7.621   3.208   7.359 -0.1745  0.7165 -0.0464
  157MOL0     O21091   7.580   3.093   7.290  0.0975 -0.5002 -0.0676
  157MOL0     C21092   7.452   3.078   7.263  0.5395  0.7692 -0.3832
  157MOL0     C21093   7.383   3.147   7.168 -0.2758  0.2363  0.1286
  157MOL0     C21094   7.258   3.090   7.124 -1.1216 -1.3599  0.7529
  157MOL0     C21095   7.208   2.977   7.186  0.5382 -0.9447  0.0998
  157MOL0     O21096   7.095   2.935   7.137 -0.5169 -0.2050  0.6841
  157MOL0     C21097   7.032   2.806   7.176 -0.4809  0.0218  0.5768
  157MOL0     C21098   6.908   2.787   7.097 -1.3262 -0.3522  0.3529
  157MOL0     C21099   6.827   2.659   7.143 -0.3001  0.4570 -0.6077
  157MOL0     C21100   6.701   2.615   7.069  1.6375 -1.2309  0.8040
  157MOL0     C21101   6.628   2.491   7.117 -1.0185 -0.7473 -0.2255
  157MOL0     C21102   6.532   2.443   7.016  0.1431 -0.0550 -0.2874
  157MOL0     C21103   6.396   2.517   7.031 -0.9418 -0.8905  0.1702
  157MOL0     C21104   6.291   2.455   6.940 -0.0360 -0.0067  1.1505
  157MOL0    Cl21105   6.338   2.453   6.769  0.0905 -0.6262 -0.4775
  157MOL0     C21106   7.274   2.925   7.301  0.3580 -0.5724 -0.0678
  157MOL0     C21107   7.388   2.979   7.344 -1.2600 -1.3717  0.6334
  157MOL0     O21108   7.547   3.311   7.367  0.6379  0.4355  0.1639
  157MOL0     C21109   7.804   3.068   7.467 -0.8065 -0.4110 -0.1780
  157MOL0     C21110   7.929   3.055   7.528 -0.2624  0.0456  0.7166
  157MOL0     N21111   8.624   3.538   7.850  0.0181  0.1284  0.7453
  157MOL0     N21112   8.686   3.617   7.932  0.1457  0.0410  0.2603
  157MOL0     C21113   9.889   3.475   8.248  0.0336  0.5681 -0.5870
  157MOL0     C21114  10.013   3.540   8.224 -0.3425 -0.7148  0.1285
  157MOL0     C21115  10.371   3.815   8.171 -0.2855 -0.3472 -1.2701
  157MOL0     C21116  10.389   3.856   8.037 -0.0387  0.5982  0.2677
  157MOL0     C21117  10.519   3.910   8.001  1.2769 -0.4212  0.0910
  157MOL0     C21118  10.615   3.934   8.098 -0.1140  0.4712  0.0026
  157MOL0     O21119  10.732   4.003   8.090 -0.0698 -0.4225  0.5812
  157MOL0     C21120  10.754   4.078   7.965  0.5174 -0.0492 -1.0242
  157MOL0     C21121  10.797   3.984   7.848 -0.9223  0.4304 -0.4061
  157MOL0     C21122  10.794   4.043   7.701 -0.1027 -0.0582 -0.3332
  157MOL0     C21123  10.922   4.105   7.657 -0.3870  0.2358 -0.0622
  157MOL0     C21124  10.911   4.167   7.520 -0.7203 -0.8976 -1.2202
  157MOL0     C21125  10.916   4.211   7.405  0.1890  0.3449 -0.3050
  157MOL0     C21126  10.597   3.882   8.235  0.6609 -0.2472  0.4371
  157MOL0     C21127  10.472   3.831   8.268  0.6704  0.9665 -0.2622
  157MOL0     H21128   9.935   3.741   7.967  1.3848  0.8620  2.1093
  157MOL0     H21129   9.702   3.627   8.021 -0.8955 -1.5561  0.5272
  157MOL0     H21130   9.667   3.577   8.386  3.4043 -0.3100 -3.1516
  157MOL0     H21131   9.536   3.617   8.270 -1.5699 -1.4561 -0.1055
  157MOL0     H21132   9.573   3.374   8.447 -1.3702 -0.2074  0.5371
  157MOL0     H21133   9.481   3.518   8.482  3.0110  2.1393 -1.6679
  157MOL0     H21134   9.410   3.334   8.247 -2.3972  0.3249 -1.2437
  157MOL0     H21135   9.346   3.296   8.406  1.4709  0.5095  2.1663
  157MOL0     H21136   9.253   3.541   8.413 -2.0070  1.2557 -1.3550
  157MOL0     H21137   9.302   3.547   8.235  2.4910 -1.5867 -0.6430
  157MOL0     H21138   9.137   3.339   8.227 -0.7963  0.0987  0.7914
  157MOL0     H21139   9.112   3.383   8.392  1.8166 -1.5448 -0.1077
  157MOL0     H21140   9.018   3.606   8.339  1.9577 -0.8070 -0.0706
  157MOL0     H21141   9.069   3.596   8.174 -1.6518  2.0771 -0.5314
  157MOL0     H21142   8.921   3.388   8.138  0.1139 -1.8050  1.7988
  157MOL0     H21143   8.836   3.415   8.281 -0.4027 -3.5506 -2.4682
  157MOL0     H21144   8.881   3.669   8.110  1.0019  0.2881  1.3597
  157MOL0     H21145   8.759   3.615   8.228 -0.1269 -1.3563 -0.9196
  157MOL0     H21146   8.700   3.339   8.097 -0.8664  0.0415  0.7229
  157MOL0     H21147   8.613   3.237   7.801 -0.4560  0.2879 -2.0234
  157MOL0     H21148   8.493   3.244   7.932 -1.3692  3.0446  1.2585
  157MOL0     H21149   8.482   3.365   7.641  4.1172  1.5569  2.6959
  157MOL0     H21150   8.371   3.421   7.773 -1.4139 -1.7465  1.7414
  157MOL0     H21151   8.321   3.169   7.783 -2.9450  0.6459 -0.9699
  157MOL0     H21152   8.370   3.182   7.598 -1.7099  2.3070 -1.8726
  157MOL0     H21153   8.204   3.335   7.578  3.3189 -0.4541  1.2767
  157MOL0     H21154   8.158   3.329   7.747 -1.2257  1.4132 -1.8183
  157MOL0     H21155   7.994   3.386   7.575 -1.7233  0.0450  0.2645
  157MOL0     H21156   7.695   3.487   7.446  1.8508  3.6032 -0.7551
  157MOL0     H21157   7.862   3.523   7.468  2.3524 -1.1672 -0.5769
  157MOL0     H21158   7.814   3.461   7.310  1.6084  0.9314  0.0311
  157MOL0     H21159   7.429   3.234   7.124  0.5000  0.5272  1.4359
  157MOL0     H21160   7.207   3.138   7.042  2.5232 -0.7029 -1.3633
  157MOL0     H21161   7.096   2.721   7.152  1.2308  1.0749  1.1884
  157MOL0     H21162   6.994   2.803   7.279 -3.2517  1.0607 -0.3127
  157MOL0     H21163   6.847   2.878   7.094  0.3519  0.8027 -0.8062
  157MOL0     H21164   6.928   2.766   6.991 -0.6758 -2.5891  0.8669
  157MOL0     H21165   6.800   2.661   7.249 -1.4335 -1.8816 -0.7872
  157MOL0     H21166   6.903   2.581   7.134 -0.5633  0.3301 -1.8916
  157MOL0     H21167   6.640   2.706   7.070  2.2366 -0.7899 -0.2989
  157MOL0     H21168   6.721   2.595   6.963  2.8354 -0.2269  0.8118
  157MOL0     H21169   6.581   2.515   7.213 -0.9126  1.1160 -0.6028
  157MOL0     H21170   6.705   2.418   7.145 -0.0809  0.9877  2.0593
  157MOL0     H21171   6.570   2.450   6.913  2.3829 -0.2807  0.4644
  157MOL0     H21172   6.511   2.338   7.039  1.3568  0.0812  1.7097
  157MOL0     H21173   6.423   2.615   6.992 -0.5832 -0.8721  0.4610
  157MOL0     H21174   6.364   2.524   7.135 -2.2368 -0.9795 -0.2021
  157MOL0     H21175   6.197   2.510   6.945 -1.6773 -2.3835 -1.1669
  157MOL0     H21176   6.258   2.357   6.977 -1.9701 -0.3412 -1.1891
  157MOL0     H21177   7.237   2.841   7.358 -1.3983  0.8260  0.9585
  157MOL0     H21178   7.432   2.928   7.429 -1.2053 -2.0998  0.1774
  157MOL0     H21179   7.752   2.982   7.427 -6.0923  2.2784 -0.0324
  157MOL0     H21180   7.975   2.957   7.533  0.0834 -0.1067 -2.9245
  157MOL0     H21181   9.871   3.417   8.338  2.0492  2.4135  1.1380
  157MOL0     H21182  10.088   3.501   8.292 -0.8596  0.4780  1.4531
  157MOL0     H21183  10.302   3.843   7.974  1.0868  0.7469 -1.3884
  157MOL0     H21184  10.529   3.928   7.894 -1.2128 -2.1533 -0.5266
  157MOL0     H21185  10.662   4.129   7.935  0.0025 -1.7665 -2.6072
  157MOL0     H21186  10.822   4.161   7.985 -2.0868  1.7653  1.1318
  157MOL0     H21187  10.737   3.893   7.853 -1.7503  1.0310  1.8462
  157MOL0     H21188  10.897   3.946   7.870 -0.7001  0.6224 -1.0557
  157MOL0     H21189  10.716   4.119   7.706  0.5379  0.5520  2.0710
  157MOL0     H21190  10.766   3.965   7.630 -1.5612  0.6880 -0.6039
  157MOL0     H21191  11.010   4.041   7.669  1.0635  2.3241  1.2468
  157MOL0     H21192  10.952   4.186   7.724 -1.9043  0.1055  0.8111
  157MOL0     H21193  10.914   4.259   7.310  1.1777  0.8362 -0.0854
  157MOL0     H21194  10.689   3.875   8.293  0.8884 -1.5109 -0.0416
  157MOL0     H21195  10.456   3.792   8.369  1.8299  1.3101  0.0655
  158MOL0     O21196   7.418   1.470   9.663  0.3368 -0.0798 -0.3570
  158MOL0     C21197   7.482   1.573   9.681 -0.6713  0.1605 -0.8248
  158MOL0     O21198   7.431   1.694   9.717 -0.1579 -0.0473  0.1558
  158MOL0     C21199   7.297   1.705   9.724  0.5579 -0.5586  1.0857
  158MOL0     C21200   7.224   1.800   9.649  0.2867 -0.2648 -1.2487
  158MOL0     C21201   7.084   1.823   9.658  0.4920  0.1676 -0.5287
  158MOL0     C21202   7.009   1.737   9.752 -0.1769  1.0381  0.7097
  158MOL0     O21203   6.873   1.733   9.779  0.1057 -0.2198 -0.5686
  158MOL0     C21204   6.775   1.778   9.684  0.6732 -0.3371 -0.3818
  158MOL0     C21205   6.643   1.777   9.757  0.2770 -0.1041 -0.0165
  158MOL0     C21206   6.570   1.637   9.787  0.2148 -1.2102  0.0891
  158MOL0     C21207   6.417   1.657   9.820 -0.6007  0.7625 -0.5588
  158MOL0     C21208   6.340   1.519   9.841 -0.0985  0.5194 -0.4323
  158MOL0     C21209   6.190   1.541   9.852 -0.2710 -0.0002  1.0620
  158MOL0     C21210   6.121   1.416   9.905  0.1946 -0.8596  0.0426
  158MOL0     C21211   6.125   1.285   9.828 -0.1986  0.5567 -0.4644
  158MOL0     N21212   6.199   1.174   9.889 -0.5841  0.3494  0.3879
  158MOL0     C21213   6.184   1.122  10.017 -0.1814  0.5249 -0.1825
  158MOL0     C21214   6.275   1.018  10.027 -0.3580 -0.0360  0.4784
  158MOL0     C21215   6.297   0.924  10.140 -0.8881 -0.2532 -1.0280
  158MOL0     C21216   6.188   0.820  10.146 -0.1144 -0.4365  0.1730
  158MOL0     C21217   6.041   0.876  10.172  0.2896  0.3175 -0.4336
  158MOL0     C21218   5.945   0.758  10.209 -0.8235  0.9850  0.1544
  158MOL0     O21219   5.987   0.669  10.315  0.1708  0.3186  0.0812
  158MOL0     C21220   5.911   0.554  10.341 -0.2930 -0.1956 -0.2697
  158MOL0     C21221   5.930   0.478  10.460  1.4010  0.1272 -0.8995
  158MOL0     C21222   5.847   0.369  10.494 -0.3772 -0.3394 -0.3542
  158MOL0     C21223   5.873   0.288  10.621 -0.0131 -0.3134  0.1799
  158MOL0     C21224   5.737   0.328  10.413 -0.8383  0.2432  1.5124
  158MOL0     C21225   5.653   0.210  10.439  0.8404  0.2503  0.3408
  158MOL0     O21226   5.612   0.138  10.319 -0.4139  0.1767 -1.0817
  158MOL0     C21227   5.517   0.033  10.336 -0.3817 -0.5211  0.1402
  158MOL0     C21228   5.552  -0.095  10.285  1.0349 -0.3110 -0.4810
  158MOL0     C21229   5.464  -0.206  10.297 -0.4846 -0.3996 -0.5164
  158MOL0     C21230   5.337  -0.185  10.352  0.1900 -0.1187  0.5035
  158MOL0     O21231   5.244  -0.287  10.369 -0.9470  0.1331  0.5136
  158MOL0     C21232   5.287  -0.424  10.367  0.2137  0.1738  0.4656
  158MOL0     C21233   5.189  -0.515  10.444 -0.9861 -0.6477  0.2985
  158MOL0     C21234   5.246  -0.651  10.474 -0.6221  0.8177 -0.0309
  158MOL0     C21235   5.351  -0.656  10.593 -0.2648 -0.7379 -0.8389
  158MOL0     C21236   5.417  -0.783  10.599 -0.5504 -0.2966 -0.8596
  158MOL0     C21237   5.526  -0.808  10.705 -0.0326 -0.5502  0.3550
  158MOL0     C21238   5.613  -0.931  10.687  0.3556  0.5711  0.1936
  158MOL0     C21239   5.701  -0.923  10.554  0.1183 -0.1389 -0.5702
  158MOL0    Cl21240   5.720  -1.086  10.486 -0.3909  0.3150  0.6713
  158MOL0     C21241   5.306  -0.061  10.405 -0.1641  0.2215 -0.7520
  158MOL0     C21242   5.397   0.045  10.410 -0.1387  0.4468  0.3287
  158MOL0     O21243   5.608   0.184  10.555  0.8816 -0.1655  0.1091
  158MOL0     C21244   5.712   0.409  10.296  1.0855  0.0930  0.5555
  158MOL0     C21245   5.803   0.510  10.263  0.1557 -0.2126  0.2013
  158MOL0     N21246   6.354   1.028   9.912  0.9041 -0.1268  0.1332
  158MOL0     N21247   6.306   1.109   9.825  1.0463 -0.1024 -0.4696
  158MOL0     C21248   7.079   1.645   9.827  0.0615 -0.5453 -0.3460
  158MOL0     C21249   7.220   1.633   9.820  0.9224 -0.9187 -0.9212
  158MOL0     C21250   7.624   1.568   9.656 -0.4033 -0.3631  0.0113
  158MOL0     C21251   7.688   1.453   9.616  0.1107  0.0852  0.1212
  158MOL0     C21252   7.824   1.443   9.595 -0.6323 -1.2809  0.7426
  158MOL0     C21253   7.908   1.562   9.613  0.0054 -0.4140  0.3117
  158MOL0     O21254   8.046   1.564   9.608  0.3023 -0.5664  0.6643
  158MOL0     C21255   8.106   1.432   9.630 -0.4662  0.3944 -0.5174
  158MOL0     C21256   8.258   1.443   9.650  0.8725  0.7115  0.2417
  158MOL0     C21257   8.337   1.437   9.532  0.2719 -0.3243  0.1952
  158MOL0     C21258   8.303   1.537   9.425  0.3597  0.1856  0.9053
  158MOL0     C21259   8.213   1.485   9.315  0.0418 -0.7763  0.2538
  158MOL0     C21260   8.157   1.443   9.220  0.4772  0.7748 -0.5406
  158MOL0     C21261   7.843   1.679   9.641 -0.3471 -0.7261 -1.0288
  158MOL0     C21262   7.707   1.682   9.658 -0.4548 -0.0274 -0.2648
  158MOL0     H21263   7.289   1.860   9.585  1.7052 -2.1442 -1.6651
  158MOL0     H21264   7.016   1.893   9.609 -2.6877 -2.5805 -0.4381
  158MOL0     H21265   6.793   1.883   9.659 -0.1611  0.2761  1.4071
  158MOL0     H21266   6.763   1.727   9.588 -2.3932 -0.1205 -0.2282
  158MOL0     H21267   6.658   1.825   9.854 -0.8946  3.5244 -1.4583
  158MOL0     H21268   6.577   1.842   9.699  1.9646  0.6267 -1.2144
  158MOL0     H21269   6.585   1.570   9.702  1.0098 -2.3688  1.1032
  158MOL0     H21270   6.622   1.593   9.873  0.2836  0.0314  0.7053
  158MOL0     H21271   6.407   1.726   9.904  2.2135  0.9227 -0.2461
  158MOL0     H21272   6.367   1.711   9.740  1.0648  2.9172 -0.2308
  158MOL0     H21273   6.359   1.452   9.757  1.4693 -0.3867  0.6196
  158MOL0     H21274   6.389   1.462   9.920 -0.3502  0.6183 -0.2016
  158MOL0     H21275   6.166   1.625   9.917 -0.8316  0.4067  0.3514
  158MOL0     H21276   6.154   1.558   9.750 -0.0656 -1.1833  0.7721
  158MOL0     H21277   6.161   1.393  10.004 -0.1674 -1.2349  0.1083
  158MOL0     H21278   6.014   1.438   9.912  0.2627  0.9634 -2.7551
  158MOL0     H21279   6.149   1.303   9.723 -0.5281  0.2117 -0.6026
  158MOL0     H21280   6.025   1.239   9.827 -0.3535  0.6506  2.2828
  158MOL0     H21281   6.115   1.154  10.094 -1.5744  1.4060 -1.7456
  158MOL0     H21282   6.396   0.879  10.133 -1.2022 -0.8834 -1.6769
  158MOL0     H21283   6.290   0.982  10.232 -1.3688 -2.3244  0.3230
  158MOL0     H21284   6.217   0.749  10.224 -1.0430 -0.1974  0.7549
  158MOL0     H21285   6.184   0.752  10.061 -0.2205 -1.2712  0.8358
  158MOL0     H21286   6.003   0.919  10.079 -0.0277  0.1722 -0.3735
  158MOL0     H21287   6.036   0.938  10.262  1.5132  0.3280 -0.3502
  158MOL0     H21288   5.934   0.694  10.120 -0.9659  2.1280 -0.6736
  158MOL0     H21289   5.843   0.793  10.228 -1.2797 -1.3821  2.6190
  158MOL0     H21290   6.017   0.508  10.517  2.1367 -2.8147 -0.2743
  158MOL0     H21291   5.972   0.308  10.662  2.0070 -1.6968 -3.6078
  158MOL0     H21292   5.797   0.293  10.700 -1.5828 -2.7566 -1.0600
  158MOL0     H21293   5.865   0.183  10.591 -5.5152 -0.9352  2.5584
  158MOL0     H21294   5.650  -0.100  10.238  1.0059  1.1403 -0.7301
  158MOL0     H21295   5.502  -0.301  10.260 -1.0777 -0.7754 -0.1889
  158MOL0     H21296   5.303  -0.467  10.267 -0.3103 -0.0367  0.4731
  158MOL0     H21297   5.381  -0.433  10.422  0.6896 -0.6537 -0.4639
  158MOL0     H21298   5.160  -0.458  10.534  1.3007  1.2759 -0.0792
  158MOL0     H21299   5.100  -0.524  10.381 -0.3891 -1.2776 -0.4733
  158MOL0     H21300   5.300  -0.690  10.387  1.8155  1.7451  0.9707
  158MOL0     H21301   5.155  -0.709  10.492 -2.4242  2.5858 -2.7615
  158MOL0     H21302   5.432  -0.585  10.572  0.8218 -1.4570  0.7756
  158MOL0     H21303   5.297  -0.635  10.685 -1.9782 -0.9533 -1.7543
  158MOL0     H21304   5.456  -0.789  10.497 -0.9088  1.4089 -1.1215
  158MOL0     H21305   5.338  -0.858  10.611  0.6593 -1.3721  0.8956
  158MOL0     H21306   5.587  -0.717  10.704 -1.8140  0.7556 -2.6897
  158MOL0     H21307   5.488  -0.823  10.807  1.8182 -4.5452  0.6567
  158MOL0     H21308   5.547  -1.018  10.678  1.0659  0.0195  0.2714
  158MOL0     H21309   5.684  -0.943  10.770 -0.8196 -0.0790  1.1436
  158MOL0     H21310   5.802  -0.886  10.571  0.5100 -0.4733 -1.9859
  158MOL0     H21311   5.647  -0.871  10.474  0.5215 -0.0298 -0.7744
  158MOL0     H21312   5.211  -0.060  10.458  1.1139  1.9388  1.6590
  158MOL0     H21313   5.369   0.134  10.466 -0.8664  0.5238 -0.1366
  158MOL0     H21314   5.632   0.379  10.229  0.8138 -0.7797  1.2587
  158MOL0     H21315   5.780   0.565  10.172  2.2903  2.0183  0.8978
  158MOL0     H21316   7.016   1.571   9.876 -1.1058  0.8245  0.2799
  158MOL0     H21317   7.265   1.556   9.882  1.0001 -2.5279 -2.8857
  158MOL0     H21318   7.624   1.367   9.602 -2.6740  1.5669  2.5399
  158MOL0     H21319   7.853   1.346   9.556  0.3557 -0.0976 -1.7155
  158MOL0     H21320   8.069   1.394   9.726 -1.4676  0.7233 -0.7540
  158MOL0     H21321   8.077   1.359   9.554  0.6519 -0.4333 -0.1668
  158MOL0     H21322   8.290   1.354   9.706  1.2861  0.5153 -0.3038
  158MOL0     H21323   8.269   1.538   9.704 -1.6384 -0.3295  2.8749
  158MOL0     H21324   8.328   1.335   9.494  0.1735 -0.4584  0.5801
  158MOL0     H21325   8.437   1.470   9.562  0.7271  0.0031 -1.5498
  158MOL0     H21326   8.397   1.562   9.377 -0.9396  2.4947 -0.6245
  158MOL0     H21327   8.258   1.632   9.457 -1.8302 -0.5379  0.1853
  158MOL0     H21328   8.107   1.399   9.136  0.1427  0.9057 -0.4119
  158MOL0     H21329   7.902   1.768   9.657 -2.0159 -0.2999  4.8707
  158MOL0     H21330   7.661   1.779   9.668 -2.0305 -0.6047 -1.4404
  159MOL0     O21331   2.600   3.575   6.577 -0.4923 -0.8006 -0.2622
  159MOL0     C21332   2.611   3.626   6.468  0.0687  0.3592  0.5402
  159MOL0     O21333   2.506   3.693   6.408 -0.6068  0.5824 -0.8294
  159MOL0     C21334   2.376   3.684   6.450 -0.6308  0.2511  0.0145
  159MOL0     C21335   2.318   3.570   6.510 -0.6059 -0.3148  0.2800
  159MOL0     C21336   2.178   3.573   6.541 -1.0251  0.2856 -0.1348
  159MOL0     C21337   2.106   3.695   6.528 -0.3049 -0.2031 -0.9743
  159MOL0     O21338   1.980   3.707   6.571 -0.9524 -0.0660 -0.3960
  159MOL0     C21339   1.948   3.673   6.710 -0.1934  0.2013  0.0539
  159MOL0     C21340   1.800   3.720   6.736 -0.0916 -0.5795 -0.1236
  159MOL0     C21341   1.693   3.628   6.676 -0.8586 -0.5052  0.3519
  159MOL0     C21342   1.686   3.632   6.523 -0.4393  0.1202  0.4561
  159MOL0     C21343   1.562   3.567   6.470 -0.0623  0.5132 -0.4259
  159MOL0     C21344   1.564   3.586   6.322  0.3136 -0.6835 -0.1948
  159MOL0     C21345   1.469   3.475   6.265 -0.9903 -0.3620 -1.0052
  159MOL0     C21346   1.486   3.476   6.112  0.5691  0.3480  0.1676
  159MOL0     N21347   1.436   3.599   6.040 -0.7566  0.1492 -0.7828
  159MOL0     C21348   1.310   3.645   6.067 -0.0855  0.5532  0.4313
  159MOL0     C21349   1.266   3.708   5.960  0.3291  0.5071  0.1940
  159MOL0     C21350   1.124   3.759   5.941  0.2866 -0.9012  0.2765
  159MOL0     C21351   1.070   3.831   6.070  0.0670  0.4900  0.2430
  159MOL0     C21352   0.936   3.895   6.042 -0.6158  0.4226  0.5129
  159MOL0     C21353   0.886   3.982   6.161 -0.2540  1.3912  0.6863
  159MOL0     O21354   0.851   3.903   6.271 -0.5173 -0.2189 -0.1339
  159MOL0     C21355   0.730   3.856   6.297 -0.0325 -0.8328 -0.3627
  159MOL0     C21356   0.629   3.834   6.207  0.1503 -0.5733 -1.2774
  159MOL0     C21357   0.511   3.766   6.248  0.2619  0.3459 -0.0450
  159MOL0     C21358   0.421   3.754   6.130 -0.2589  0.4405  0.0050
  159MOL0     C21359   0.498   3.704   6.374  0.7850  0.1585  0.0684
  159MOL0     C21360   0.376   3.618   6.412  0.2220 -0.2038 -0.1659
  159MOL0     O21361   0.269   3.600   6.325 -0.7799  0.8317  1.1065
  159MOL0     C21362   0.161   3.543   6.370  0.2034 -0.1001 -0.5719
  159MOL0     C21363   0.060   3.624   6.421 -1.0239 -0.3852  0.1005
  159MOL0     C21364  -0.055   3.579   6.474 -0.4118  0.1602 -0.3811
  159MOL0     C21365  -0.077   3.436   6.478 -0.0932  0.6819 -0.3386
  159MOL0     O21366  -0.172   3.375   6.550  0.5590 -0.2610 -0.2993
  159MOL0     C21367  -0.311   3.405   6.517  0.8533  1.3535  0.2714
  159MOL0     C21368  -0.386   3.273   6.553 -0.1257 -0.0516 -0.7408
  159MOL0     C21369  -0.522   3.278   6.488 -0.2297 -0.4621  0.3989
  159MOL0     C21370  -0.611   3.154   6.525 -0.1231  0.0934  0.1905
  159MOL0     C21371  -0.727   3.126   6.429  0.8196 -0.0924  0.6701
  159MOL0     C21372  -0.815   3.012   6.489 -0.2656  0.4343  0.9733
  159MOL0     C21373  -0.959   2.999   6.428 -0.1325 -0.7235 -0.4623
  159MOL0     C21374  -1.040   2.903   6.514 -0.0557 -0.1210 -0.1718
  159MOL0    Cl21375  -1.205   2.892   6.452  0.2071  0.0562 -0.2673
  159MOL0     C21376   0.023   3.353   6.426 -0.1289 -0.3182  0.2807
  159MOL0     C21377   0.139   3.406   6.366  0.3653 -1.0410 -0.5418
  159MOL0     O21378   0.378   3.570   6.523 -0.0984 -0.0847  0.2177
  159MOL0     C21379   0.599   3.732   6.458 -0.3681  0.2480  0.0186
  159MOL0     C21380   0.716   3.803   6.420 -0.0214 -0.7907 -0.2715
  159MOL0     N21381   1.368   3.724   5.876 -0.1308 -0.3882 -0.5313
  159MOL0     N21382   1.470   3.660   5.924 -0.8004  0.2224 -0.8921
  159MOL0     C21383   2.161   3.800   6.469 -0.7370 -1.2695  0.5317
  159MOL0     C21384   2.299   3.799   6.421  0.1239  0.3891 -1.2596
  159MOL0     C21385   2.744   3.654   6.428 -0.2815  0.1854  0.2248
  159MOL0     C21386   2.851   3.586   6.492 -0.1899  0.1732 -0.5465
  159MOL0     C21387   2.986   3.623   6.469  0.9443 -0.1847 -0.5081
  159MOL0     C21388   3.009   3.727   6.381 -0.7950 -0.9505  0.2769
  159MOL0     O21389   3.132   3.773   6.358 -0.2916 -0.8115  0.0839
  159MOL0     C21390   3.192   3.730   6.236  0.2111 -0.0142  0.5079
  159MOL0     C21391   3.348   3.710   6.238 -0.9366 -0.0860  0.3022
  159MOL0     C21392   3.411   3.852   6.257 -0.6369  0.4377 -0.8265
  159MOL0     C21393   3.573   3.846   6.302  0.7939  0.8257  0.9935
  159MOL0     C21394   3.623   3.987   6.318  0.4537  0.4032  1.4679
  159MOL0     C21395   3.648   4.104   6.329  0.5455 -0.0668  0.7074
  159MOL0     C21396   2.905   3.798   6.313 -0.2780 -0.1817 -0.0322
  159MOL0     C21397   2.772   3.768   6.339  0.6269 -0.5212  0.2525
  159MOL0     H21398   2.373   3.478   6.521  0.6593  0.3691 -0.1030
  159MOL0     H21399   2.134   3.480   6.575 -2.2363 -0.5911 -3.6989
  159MOL0     H21400   1.945   3.565   6.721 -0.1941  0.2190  0.2315
  159MOL0     H21401   2.029   3.720   6.767  1.7968  0.8275 -3.0407
  159MOL0     H21402   1.784   3.724   6.844 -1.3155  0.8431 -0.3176
  159MOL0     H21403   1.786   3.826   6.712 -2.4502 -0.7524  0.2917
  159MOL0     H21404   1.694   3.522   6.703 -0.0753 -1.4798 -3.0985
  159MOL0     H21405   1.599   3.661   6.722 -0.7430  0.5273 -0.1197
  159MOL0     H21406   1.694   3.736   6.491  4.5783 -0.1143  0.2658
  159MOL0     H21407   1.772   3.581   6.479  0.1154  0.3800  1.2031
  159MOL0     H21408   1.573   3.464   6.506  2.1115  0.2752 -1.5759
  159MOL0     H21409   1.473   3.606   6.521  0.4002 -0.5843  1.3105
  159MOL0     H21410   1.521   3.683   6.297  0.2990 -0.5722  0.2598
  159MOL0     H21411   1.664   3.585   6.278  0.6272 -2.1388  0.4888
  159MOL0     H21412   1.492   3.372   6.294 -1.3595  0.2462  1.7403
  159MOL0     H21413   1.369   3.485   6.307 -0.0264 -1.2147  1.7095
  159MOL0     H21414   1.435   3.394   6.060  0.9268  1.6413 -2.3734
  159MOL0     H21415   1.588   3.460   6.076 -0.7516 -0.9549 -3.5217
  159MOL0     H21416   1.246   3.623   6.151  0.8059 -0.9527  0.7432
  159MOL0     H21417   1.116   3.837   5.864  0.8357 -0.5313  0.5917
  159MOL0     H21418   1.053   3.681   5.911  0.6544 -0.8877 -0.6849
  159MOL0     H21419   1.142   3.910   6.091 -0.2325  0.2786  2.3187
  159MOL0     H21420   1.060   3.765   6.157  0.8361 -0.3506 -0.2756
  159MOL0     H21421   0.856   3.822   6.027 -1.2837  1.3776 -0.8677
  159MOL0     H21422   0.943   3.961   5.955  2.2587 -1.4408 -0.8289
  159MOL0     H21423   0.804   4.048   6.131  1.0567  2.7638 -0.0410
  159MOL0     H21424   0.967   4.046   6.196  0.9056 -1.1117  2.9617
  159MOL0     H21425   0.641   3.859   6.102 -0.2277  0.7596 -1.0315
  159MOL0     H21426   0.444   3.807   6.037  1.6426 -1.2353 -0.5534
  159MOL0     H21427   0.401   3.648   6.107 -1.1714  1.0122 -2.0744
  159MOL0     H21428   0.319   3.789   6.152 -0.4969 -1.0859  1.5575
  159MOL0     H21429   0.073   3.732   6.417  2.9134 -0.7151 -0.6972
  159MOL0     H21430  -0.127   3.650   6.513  2.5199  2.3788  1.3663
  159MOL0     H21431  -0.351   3.485   6.580  0.3752 -0.6421  2.6762
  159MOL0     H21432  -0.326   3.432   6.412  0.9791  2.6821  0.5775
  159MOL0     H21433  -0.339   3.185   6.508 -1.0764 -1.3805  0.7849
  159MOL0     H21434  -0.407   3.261   6.659  1.0676 -0.6028 -0.5550
  159MOL0     H21435  -0.512   3.283   6.379  1.7345 -2.6560  0.4072
  159MOL0     H21436  -0.576   3.367   6.520 -3.2000 -1.9688 -0.0460
  159MOL0     H21437  -0.551   3.064   6.509 -2.1962 -0.7100 -4.7211
  159MOL0     H21438  -0.641   3.154   6.630 -0.9417  1.0041 -0.0269
  159MOL0     H21439  -0.709   3.118   6.322  2.0990  4.4558  0.3605
  159MOL0     H21440  -0.792   3.212   6.447  1.4229  0.1421  1.8467
  159MOL0     H21441  -0.760   2.919   6.471  1.2823  1.1510  1.8718
  159MOL0     H21442  -0.810   3.024   6.598 -0.1303 -0.5253  1.0819
  159MOL0     H21443  -0.947   2.945   6.334  1.1783 -1.7384  0.2635
  159MOL0     H21444  -1.011   3.094   6.412 -0.8753 -1.2240 -1.1113
  159MOL0     H21445  -1.034   2.930   6.620  1.5007 -1.3874  0.0986
  159MOL0     H21446  -0.995   2.804   6.522 -0.7100 -0.3633  0.7012
  159MOL0     H21447   0.010   3.245   6.431 -0.9400 -0.2152  0.5244
  159MOL0     H21448   0.202   3.334   6.315 -0.3398  0.0741 -3.1430
  159MOL0     H21449   0.596   3.703   6.563 -1.6281 -1.0168 -0.3350
  159MOL0     H21450   0.796   3.818   6.492  0.0657 -2.7815  0.1200
  159MOL0     H21451   2.109   3.892   6.442 -0.1984 -0.5401  1.8651
  159MOL0     H21452   2.343   3.889   6.378  0.5208 -0.3259 -2.4005
  159MOL0     H21453   2.839   3.511   6.570  0.6216 -1.8073 -2.2298
  159MOL0     H21454   3.049   3.546   6.513  0.2703 -0.2181  0.4032
  159MOL0     H21455   3.154   3.629   6.215  3.9311 -1.2987 -0.8407
  159MOL0     H21456   3.172   3.795   6.150  1.5040 -0.7030 -0.3422
  159MOL0     H21457   3.378   3.668   6.141  0.8571  0.4740  0.5765
  159MOL0     H21458   3.370   3.649   6.325  0.5209  1.6870  1.2453
  159MOL0     H21459   3.356   3.895   6.341 -0.0155  0.4049 -0.3903
  159MOL0     H21460   3.382   3.921   6.177 -2.9279  0.6376  0.1159
  159MOL0     H21461   3.630   3.792   6.226 -1.5302 -0.6410  0.1953
  159MOL0     H21462   3.582   3.793   6.397  1.5097  3.1745  2.3340
  159MOL0     H21463   3.672   4.207   6.339  0.4174  0.1215 -0.6591
  159MOL0     H21464   2.930   3.870   6.236  1.8129 -2.1196 -1.3240
  159MOL0     H21465   2.693   3.828   6.295  0.0577 -1.7729 -0.4921
  160MOL0     O21466   3.501   8.089   9.807 -0.0271  0.2904  0.0292
  160MOL0     C21467   3.527   8.091   9.923  0.1686  0.3818 -0.6784
  160MOL0     O21468   3.434   8.080  10.033  0.3550 -0.1065 -1.2120
  160MOL0     C21469   3.296   8.059  10.028 -1.3313 -0.5794  0.7451
  160MOL0     C21470   3.223   8.051   9.907 -0.3278 -0.2174 -1.0131
  160MOL0     C21471   3.091   8.009   9.918 -0.1960 -0.0323 -0.4909
  160MOL0     C21472   3.027   7.955  10.029 -0.7193 -0.1996 -0.5461
  160MOL0     O21473   2.913   7.877  10.032  1.3142 -0.9059  0.2814
  160MOL0     C21474   2.816   7.919   9.941 -0.0115  0.4609 -0.7885
  160MOL0     C21475   2.683   7.871   9.978 -0.7637  0.8346  0.1610
  160MOL0     C21476   2.567   7.937   9.911 -0.6903 -0.0660  0.3089
  160MOL0     C21477   2.447   7.964  10.000  0.6712 -0.1098  0.0217
  160MOL0     C21478   2.377   7.838  10.037 -0.0385  0.3044  0.0526
  160MOL0     C21479   2.296   7.858  10.172 -0.5785 -0.2755  0.2940
  160MOL0     C21480   2.373   7.890  10.294 -1.1507  1.0944  0.5174
  160MOL0     C21481   2.285   7.944  10.404 -0.9195 -0.5501  0.2522
  160MOL0     N21482   2.364   7.978  10.521  0.4255  0.1727 -0.4220
  160MOL0     C21483   2.422   8.094  10.555  0.3884 -0.3733 -0.4265
  160MOL0     C21484   2.492   8.060  10.670  0.2248 -0.5688  0.1569
  160MOL0     C21485   2.558   8.155  10.762 -0.1409 -0.2437  0.8348
  160MOL0     C21486   2.468   8.229  10.860  0.1520 -0.0633 -0.8930
  160MOL0     C21487   2.364   8.143  10.935  0.0448 -0.0699  0.3600
  160MOL0     C21488   2.253   8.222  10.986  0.3493  0.2987 -0.1168
  160MOL0     O21489   2.184   8.134  11.068 -0.5818  0.3672 -0.0430
  160MOL0     C21490   2.083   8.172  11.151 -0.2621 -1.0395 -0.2372
  160MOL0     C21491   2.042   8.309  11.154 -0.1204 -0.2901  0.6356
  160MOL0     C21492   1.930   8.347  11.230 -1.0719  0.5696 -1.1275
  160MOL0     C21493   1.887   8.500  11.239 -0.6490 -0.2405  0.0799
  160MOL0     C21494   1.866   8.249  11.315 -0.4966  0.3935  0.1181
  160MOL0     C21495   1.754   8.268  11.414 -0.0824  0.0333 -0.5269
  160MOL0     O21496   1.760   8.197  11.533 -0.4163 -0.0710 -0.6735
  160MOL0     C21497   1.658   8.216  11.619  0.8604 -0.1096  0.1759
  160MOL0     C21498   1.570   8.107  11.640 -0.4483  0.3325  0.3243
  160MOL0     C21499   1.460   8.119  11.730 -0.4345  0.4306  0.3842
  160MOL0     C21500   1.443   8.230  11.810  0.0915 -0.6231 -0.1410
  160MOL0     O21501   1.342   8.221  11.907  0.1934 -0.1186 -0.2356
  160MOL0     C21502   1.340   8.306  12.024  0.3001  0.1352 -0.3612
  160MOL0     C21503   1.205   8.288  12.100 -0.6242  0.2919 -0.0499
  160MOL0     C21504   1.091   8.338  12.006 -0.4950 -0.5019  0.8153
  160MOL0     C21505   0.970   8.371  12.096 -0.2377 -0.7764 -0.6982
  160MOL0     C21506   0.838   8.430  12.013  0.1012 -0.1070 -0.0557
  160MOL0     C21507   0.735   8.474  12.120 -0.1012 -0.1702 -0.1984
  160MOL0     C21508   0.653   8.351  12.166  0.6956 -0.3974  0.2355
  160MOL0     C21509   0.523   8.332  12.086 -0.1092  0.9363 -0.6345
  160MOL0    Cl21510   0.420   8.240  12.199  0.1261 -0.6772  0.0795
  160MOL0     C21511   1.533   8.338  11.792 -0.0323  0.4708 -0.7439
  160MOL0     C21512   1.634   8.332  11.691 -0.3392  0.8097 -0.2713
  160MOL0     O21513   1.660   8.351  11.382 -0.1230  0.7632  0.1968
  160MOL0     C21514   1.915   8.113  11.310 -0.1305 -0.9233 -0.2583
  160MOL0     C21515   2.020   8.077  11.231  0.1548  0.0755 -0.0477
  160MOL0     N21516   2.473   7.927  10.704  0.3008 -0.1618 -0.4539
  160MOL0     N21517   2.386   7.886  10.624  1.4269  0.1702 -0.1621
  160MOL0     C21518   3.106   7.974  10.148 -0.1185 -0.1777  0.9298
  160MOL0     C21519   3.240   8.022  10.150  0.8959  0.8890  0.4923
  160MOL0     C21520   3.665   8.126   9.970  0.9158  0.2536  0.0680
  160MOL0     C21521   3.690   8.153  10.102  0.0843 -0.0247  0.0225
  160MOL0     C21522   3.823   8.175  10.146  0.2973  0.0312 -0.5287
  160MOL0     C21523   3.916   8.191  10.049 -0.7485  0.3179  0.9268
  160MOL0     O21524   4.049   8.208  10.077  0.3919 -0.1687  0.4987
  160MOL0     C21525   4.089   8.251  10.203 -0.2210 -0.0909 -0.0568
  160MOL0     C21526   4.244   8.279  10.195  0.6195 -0.3258 -0.2623
  160MOL0     C21527   4.322   8.153  10.133  0.2397  0.8165 -0.1282
  160MOL0     C21528   4.456   8.194  10.063  0.7741  0.2594  0.9682
  160MOL0     C21529   4.528   8.069  10.029  0.5004 -0.0056  0.3512
  160MOL0     C21530   4.586   7.969  10.031 -0.1279 -0.1440 -0.0280
  160MOL0     C21531   3.892   8.170   9.911 -0.0384 -0.3698 -0.2004
  160MOL0     C21532   3.760   8.138   9.870  0.4993 -0.1932 -0.6261
  160MOL0     H21533   3.263   8.074   9.809  1.5483  0.0025 -0.2267
  160MOL0     H21534   3.042   7.989   9.823 -0.3560 -3.0834  0.1283
  160MOL0     H21535   2.798   8.026   9.944  0.9444  0.6196  1.3898
  160MOL0     H21536   2.832   7.874   9.843 -2.0153 -1.0020 -0.5226
  160MOL0     H21537   2.676   7.764   9.957 -1.3705  1.1740 -1.5611
  160MOL0     H21538   2.667   7.881  10.086 -1.6421 -0.8081  0.2140
  160MOL0     H21539   2.597   8.030   9.860  0.6336 -0.5107  0.2315
  160MOL0     H21540   2.541   7.867   9.831  0.6559  0.9470 -1.1040
  160MOL0     H21541   2.485   8.014  10.090 -0.2785 -0.9643  0.9274
  160MOL0     H21542   2.373   8.033   9.958  0.9145 -0.2656 -0.6663
  160MOL0     H21543   2.320   7.801   9.951  1.2697 -2.8106  0.3624
  160MOL0     H21544   2.453   7.763  10.064 -0.1752  1.1741  3.2247
  160MOL0     H21545   2.240   7.952  10.164 -0.5054 -0.2105  0.5338
  160MOL0     H21546   2.235   7.768  10.191 -2.1867  1.2552  3.1081
  160MOL0     H21547   2.424   7.801  10.330  0.5547  1.5113 -0.7661
  160MOL0     H21548   2.460   7.954  10.273 -0.2241 -0.2735  0.0621
  160MOL0     H21549   2.204   7.875  10.431 -3.8656  1.3228 -2.9225
  160MOL0     H21550   2.235   8.036  10.370 -0.4335 -1.7686 -4.3897
  160MOL0     H21551   2.418   8.189  10.503  0.8596  0.1498  0.4637
  160MOL0     H21552   2.634   8.104  10.821  2.0451  2.5326  0.6555
  160MOL0     H21553   2.619   8.226  10.705 -2.6409  1.9894  0.7822
  160MOL0     H21554   2.422   8.303  10.794 -1.3589 -0.7737 -0.7005
  160MOL0     H21555   2.531   8.285  10.929 -0.4185  1.5707 -1.6593
  160MOL0     H21556   2.418   8.119  11.026  0.5891  0.9518  0.3217
  160MOL0     H21557   2.321   8.067  10.868  1.0168 -0.0250 -0.3404
  160MOL0     H21558   2.178   8.235  10.907 -2.1348  0.3758  2.0935
  160MOL0     H21559   2.275   8.318  11.033  1.0140  0.6466 -1.0979
  160MOL0     H21560   2.083   8.391  11.097 -0.4701  0.6753  1.7294
  160MOL0     H21561   1.953   8.566  11.182 -0.8380  0.2778  0.4381
  160MOL0     H21562   1.796   8.504  11.179 -1.0636 -2.4094  0.4883
  160MOL0     H21563   1.890   8.531  11.344 -0.7311  0.1668 -0.0352
  160MOL0     H21564   1.595   8.020  11.581  1.0786  0.5570  0.6067
  160MOL0     H21565   1.400   8.029  11.726  0.1144  0.0939 -0.7047
  160MOL0     H21566   1.426   8.291  12.090  2.1387  0.5664 -2.5062
  160MOL0     H21567   1.344   8.409  11.989 -1.1633 -0.0670 -1.2078
  160MOL0     H21568   1.193   8.183  12.129  0.1343  0.6570  1.6799
  160MOL0     H21569   1.207   8.343  12.194  0.8707  2.2468 -1.1619
  160MOL0     H21570   1.064   8.261  11.933 -1.7101 -2.4935  3.2254
  160MOL0     H21571   1.125   8.421  11.942  3.1100 -2.6414 -0.3868
  160MOL0     H21572   0.944   8.276  12.143  0.1193  0.0097  1.1730
  160MOL0     H21573   0.998   8.444  12.173 -2.2072 -0.7791  0.0863
  160MOL0     H21574   0.793   8.354  11.948 -1.6587  0.7707  0.0700
  160MOL0     H21575   0.879   8.513  11.955  2.3244  1.2931  3.1870
  160MOL0     H21576   0.788   8.518  12.205  0.4208 -0.4520 -0.3681
  160MOL0     H21577   0.662   8.542  12.075 -0.1904  0.0874  0.3228
  160MOL0     H21578   0.628   8.384  12.267  3.1430  0.9802  0.4693
  160MOL0     H21579   0.711   8.258  12.168  0.1335 -0.7616 -0.0158
  160MOL0     H21580   0.535   8.267  11.999 -1.2754 -0.7002  0.3477
  160MOL0     H21581   0.462   8.419  12.060 -0.2352  2.0970  2.9191
  160MOL0     H21582   1.524   8.433  11.843 -3.5387  0.2275 -0.6605
  160MOL0     H21583   1.702   8.414  11.671  0.6975 -0.1767 -0.8729
  160MOL0     H21584   1.858   8.037  11.362  2.7524 -2.3832  0.9914
  160MOL0     H21585   2.033   7.971  11.212 -3.1635 -0.3583 -0.4975
  160MOL0     H21586   3.070   7.939  10.244 -1.6280 -0.8587  0.1475
  160MOL0     H21587   3.300   8.011  10.240 -0.2841 -1.7925  1.0488
  160MOL0     H21588   3.619   8.138  10.182  1.6292 -1.9017  1.1425
  160MOL0     H21589   3.843   8.184  10.252 -2.6149 -0.9703  0.2164
  160MOL0     H21590   4.036   8.339  10.242  0.6306 -1.5484  5.2846
  160MOL0     H21591   4.077   8.164  10.269  2.0246  0.1097  0.7093
  160MOL0     H21592   4.274   8.282  10.300 -1.6631 -3.4591  0.6202
  160MOL0     H21593   4.265   8.374  10.143 -2.2911 -0.8550 -2.6841
  160MOL0     H21594   4.276   8.093  10.053  2.0305 -1.2031  0.2627
  160MOL0     H21595   4.348   8.080  10.211  1.4816  1.0367 -0.3289
  160MOL0     H21596   4.518   8.264  10.120  0.5359 -0.0830  1.6566
  160MOL0     H21597   4.429   8.248   9.972 -3.3159 -1.7850  0.7437
  160MOL0     H21598   4.658   7.891  10.047  1.3594  1.3711  1.0011
  160MOL0     H21599   3.975   8.176   9.842  1.2493  0.9524  1.3950
  160MOL0     H21600   3.730   8.123   9.768 -0.4933 -0.9202 -0.2370
  161MOL0     O21601   9.027   9.645   0.230  0.2469  0.8011 -0.3235
  161MOL0     C21602   9.115   9.709   0.279  0.4694  0.2659  0.9519
  161MOL0     O21603   9.102   9.847   0.303  0.4558  0.3812  0.1524
  161MOL0     C21604   8.982   9.912   0.268 -0.5229 -0.1593  0.0845
  161MOL0     C21605   8.960   9.943   0.132  0.0245 -0.1520  0.4778
  161MOL0     C21606   8.839  10.011   0.110 -0.6811 -0.4556  0.1399
  161MOL0     C21607   8.748  10.057   0.205 -0.0294  0.2025 -0.5100
  161MOL0     O21608   8.639  10.131   0.175 -0.4931 -0.0184 -0.6221
  161MOL0     C21609   8.531  10.146   0.272 -0.3526  0.2525  0.3958
  161MOL0     C21610   8.539  10.279   0.337  1.3988 -0.2591 -0.7817
  161MOL0     C21611   8.391  10.334   0.373 -0.5169 -0.8505  1.3348
  161MOL0     C21612   8.365  10.309   0.519  0.5641 -0.3549  0.4612
  161MOL0     C21613   8.219  10.326   0.541  0.9828  0.2420 -0.2490
  161MOL0     C21614   8.168  10.263   0.668  0.6213  0.7773 -0.4551
  161MOL0     C21615   8.017  10.270   0.675 -0.6414 -0.9304  0.3067
  161MOL0     C21616   7.958  10.404   0.702  0.0867 -0.5389  0.1155
  161MOL0     N21617   7.806  10.411   0.697 -0.8272  0.8513  0.1044
  161MOL0     C21618   7.705  10.317   0.709 -0.1409 -0.4920  0.2565
  161MOL0     C21619   7.586  10.389   0.725  0.9009 -0.3841  0.0102
  161MOL0     C21620   7.450  10.333   0.751 -0.3637  0.0778  0.6655
  161MOL0     C21621   7.368  10.424   0.846 -0.0693 -0.0837  0.4586
  161MOL0     C21622   7.310  10.538   0.763  0.0568  0.1666 -0.4367
  161MOL0     C21623   7.225  10.625   0.856  0.6142  0.3862  0.7299
  161MOL0     O21624   7.147  10.694   0.765  0.0994  0.0932  0.1921
  161MOL0     C21625   7.055  10.791   0.804 -0.4938 -0.3125 -0.2408
  161MOL0     C21626   7.009  10.881   0.711 -0.5905 -0.9679 -0.3746
  161MOL0     C21627   6.929  10.989   0.739  0.2222  0.4019 -0.0393
  161MOL0     C21628   6.879  11.066   0.619 -0.2981 -0.4758  0.6303
  161MOL0     C21629   6.890  11.018   0.870 -0.4900 -0.2575  0.1164
  161MOL0     C21630   6.809  11.137   0.918  0.1236  0.3786  0.4888
  161MOL0     O21631   6.805  11.159   1.056  0.4528  0.3991  0.4974
  161MOL0     C21632   6.744  11.266   1.114  0.0653 -0.6419 -0.5754
  161MOL0     C21633   6.807  11.340   1.213 -0.1505 -0.2777  0.2523
  161MOL0     C21634   6.749  11.455   1.275 -0.1691  1.4708  0.7230
  161MOL0     C21635   6.620  11.496   1.249 -0.1389 -0.3509 -0.1550
  161MOL0     O21636   6.558  11.592   1.321 -0.2374 -0.1577 -0.1812
  161MOL0     C21637   6.493  11.684   1.237  0.3083 -0.0450  0.2649
  161MOL0     C21638   6.508  11.831   1.284  0.0556  0.3055  0.2033
  161MOL0     C21639   6.650  11.880   1.279 -0.3003 -0.9213 -0.9997
  161MOL0     C21640   6.702  11.927   1.144 -0.5046 -0.0735  0.5295
  161MOL0     C21641   6.863  11.913   1.132  0.0146  0.2852 -0.8258
  161MOL0     C21642   6.910  11.958   0.999  0.0782 -0.1359  0.4100
  161MOL0     C21643   7.061  11.966   1.002  0.0988 -0.3521 -0.5801
  161MOL0     C21644   7.112  11.984   0.858  0.4031 -0.1119 -0.2713
  161MOL0    Cl21645   7.296  12.008   0.867  0.0358  0.3500 -0.6768
  161MOL0     C21646   6.549  11.411   1.163  0.1715  0.4853 -0.7059
  161MOL0     C21647   6.614  11.308   1.088 -0.0756  0.3222  0.1951
  161MOL0     O21648   6.739  11.207   0.844 -0.3280 -0.4151  0.5727
  161MOL0     C21649   6.934  10.928   0.974  0.2537 -0.1862  0.0894
  161MOL0     C21650   7.018  10.817   0.937 -0.3354 -0.0357 -0.4597
  161MOL0     N21651   7.622  10.523   0.731 -0.5074 -1.0790 -0.4043
  161MOL0     N21652   7.749  10.535   0.713 -0.4328  0.7148  0.1732
  161MOL0     C21653   8.778  10.029   0.338 -0.5968  0.0154 -0.8173
  161MOL0     C21654   8.882   9.940   0.371 -0.0474 -0.2592 -0.2238
  161MOL0     C21655   9.239   9.639   0.307  0.1150  0.3135 -0.6105
  161MOL0     C21656   9.249   9.493   0.305 -0.1673 -0.1476 -0.1883
  161MOL0     C21657   9.369   9.431   0.336  0.0959 -0.1152  0.0015
  161MOL0     C21658   9.477   9.505   0.383 -0.5952  0.0919  0.1750
  161MOL0     O21659   9.594   9.433   0.412  0.1198 -0.4150  0.3876
  161MOL0     C21660   9.722   9.486   0.425  0.3134  0.5155  0.3397
  161MOL0     C21661   9.779   9.569   0.302 -0.0261 -0.2570 -0.0986
  161MOL0     C21662   9.920   9.613   0.326  0.5698 -0.0444  0.7526
  161MOL0     C21663   9.926   9.728   0.417  0.2177  0.6162  0.1266
  161MOL0     C21664   9.867   9.845   0.361  0.4024  0.0726  0.3544
  161MOL0     C21665   9.805   9.941   0.311  0.1423  0.3380 -1.0719
  161MOL0     C21666   9.464   9.642   0.404 -0.1361  0.2119 -0.4311
  161MOL0     C21667   9.344   9.703   0.372 -0.9172 -0.1894  0.0697
  161MOL0     H21668   9.029   9.909   0.054 -0.6231 -0.2793 -0.0460
  161MOL0     H21669   8.806  10.022   0.007 -2.0639 -0.6629  0.5371
  161MOL0     H21670   8.449  10.138   0.200  0.8678 -0.1782 -0.9963
  161MOL0     H21671   8.515  10.065   0.344  0.3876 -0.8400 -0.6261
  161MOL0     H21672   8.609  10.297   0.419  1.6649  3.0874 -1.5820
  161MOL0     H21673   8.594  10.345   0.269  2.5405 -0.8064 -0.4246
  161MOL0     H21674   8.388  10.443   0.359 -1.3666 -1.1007 -0.6467
  161MOL0     H21675   8.321  10.292   0.301 -0.0164  0.1299  0.2290
  161MOL0     H21676   8.389  10.205   0.543  0.4518 -0.5579 -0.2932
  161MOL0     H21677   8.417  10.387   0.576 -0.0589  0.4765 -0.0747
  161MOL0     H21678   8.199  10.434   0.549  1.8848  0.5079 -1.2125
  161MOL0     H21679   8.157  10.282   0.463  0.0079 -0.4151  0.8672
  161MOL0     H21680   8.197  10.157   0.672 -4.5391 -0.8761  0.3990
  161MOL0     H21681   8.210  10.308   0.759 -3.4744 -1.7229  3.0849
  161MOL0     H21682   7.970  10.239   0.582 -0.4302  0.5795 -0.3317
  161MOL0     H21683   7.982  10.193   0.744  0.2475 -1.0389  0.6634
  161MOL0     H21684   7.996  10.474   0.628 -3.0086  2.4489  1.1147
  161MOL0     H21685   7.988  10.437   0.802 -0.4208 -0.0118  0.1005
  161MOL0     H21686   7.731  10.213   0.695 -1.8866 -1.2347  2.0925
  161MOL0     H21687   7.389  10.310   0.663 -2.6014 -1.4423  2.4825
  161MOL0     H21688   7.477  10.236   0.794  4.5482 -0.0926 -2.1422
  161MOL0     H21689   7.427  10.468   0.927  1.2040 -2.0184  0.6448
  161MOL0     H21690   7.295  10.369   0.906 -1.3954  0.6628 -0.4391
  161MOL0     H21691   7.247  10.493   0.686 -1.2449  1.7006 -0.3255
  161MOL0     H21692   7.384  10.603   0.715  0.2807  0.6844  0.5678
  161MOL0     H21693   7.298  10.673   0.923  3.9869  0.8604 -2.9192
  161MOL0     H21694   7.159  10.563   0.917 -1.2401 -0.3069 -1.8180
  161MOL0     H21695   7.059  10.881   0.615  3.5673 -2.1499  1.5710
  161MOL0     H21696   6.846  11.169   0.636  0.2409 -0.3357  0.8570
  161MOL0     H21697   6.962  11.067   0.548 -0.0503 -0.7717  0.9109
  161MOL0     H21698   6.797  11.007   0.577 -0.2300  1.4813 -2.5572
  161MOL0     H21699   6.904  11.299   1.240 -0.9192 -2.9664 -0.8107
  161MOL0     H21700   6.810  11.504   1.350 -1.4091  3.6408  0.4126
  161MOL0     H21701   6.542  11.689   1.139  0.8518  2.1136  0.5785
  161MOL0     H21702   6.390  11.650   1.222 -0.4854  1.8941  0.9259
  161MOL0     H21703   6.452  11.891   1.212 -0.0719  1.4075  1.1799
  161MOL0     H21704   6.469  11.834   1.387  1.9752  1.1476  0.9482
  161MOL0     H21705   6.722  11.812   1.326  1.3187 -1.3060 -3.7944
  161MOL0     H21706   6.654  11.966   1.347  5.0340 -0.9733 -0.8559
  161MOL0     H21707   6.658  11.868   1.063  1.6827 -1.8155  0.4928
  161MOL0     H21708   6.660  12.023   1.115  0.6957 -0.1276 -1.5964
  161MOL0     H21709   6.900  11.812   1.151  1.9330  0.6274 -2.4520
  161MOL0     H21710   6.916  11.974   1.206  2.1726 -2.0933 -0.2732
  161MOL0     H21711   6.885  11.877   0.930  3.7035 -2.8812  2.0359
  161MOL0     H21712   6.859  12.049   0.966 -4.8774 -3.0553 -1.0151
  161MOL0     H21713   7.094  11.867   1.036  0.9215  0.6474  1.7575
  161MOL0     H21714   7.102  12.033   1.078 -1.5798  1.7679 -1.4616
  161MOL0     H21715   7.068  12.073   0.813 -3.9987 -2.4927 -1.2794
  161MOL0     H21716   7.092  11.900   0.790  1.7981  2.0623 -3.6648
  161MOL0     H21717   6.444  11.428   1.140 -2.1143 -3.2892  4.7138
  161MOL0     H21718   6.556  11.256   1.013 -1.4475  3.3144 -0.9919
  161MOL0     H21719   6.912  10.938   1.080 -1.5102  0.3051 -0.2896
  161MOL0     H21720   7.057  10.757   1.018  2.0337  1.5054 -0.3536
  161MOL0     H21721   8.717  10.065   0.421  3.4510  1.7916  1.6664
  161MOL0     H21722   8.892   9.903   0.472 -2.1836  0.0569  0.1408
  161MOL0     H21723   9.166   9.432   0.271  0.2932 -0.9948  0.1884
  161MOL0     H21724   9.381   9.325   0.312 -0.4951  0.2597 -2.1609
  161MOL0     H21725   9.731   9.554   0.510  3.2759  2.6329 -1.4573
  161MOL0     H21726   9.790   9.403   0.448 -1.4280 -1.3624 -0.8977
  161MOL0     H21727   9.719   9.655   0.269 -0.6030 -1.5975 -2.8972
  161MOL0     H21728   9.782   9.519   0.204 -0.0872  3.4123 -2.1770
  161MOL0     H21729   9.968   9.640   0.231  0.8919 -0.6847  0.7227
  161MOL0     H21730   9.974   9.530   0.371  0.8184 -0.9031 -1.0409
  161MOL0     H21731  10.031   9.753   0.434  0.4870 -0.6942  0.4985
  161MOL0     H21732   9.874   9.698   0.508  1.8126  0.2155  0.9326
  161MOL0     H21733   9.727  10.009   0.285 -0.2613  1.2139  2.0238
  161MOL0     H21734   9.550   9.694   0.443  0.1851  2.6050 -3.8929
  161MOL0     H21735   9.336   9.810   0.386 -0.5646 -0.0900 -0.4527
  162MOL0     O21736   4.335   5.646   4.492 -0.5234  0.0910 -0.4826
  162MOL0     C21737   4.397   5.617   4.594 -0.3726 -0.0102  0.2265
  162MOL0     O21738   4.341   5.601   4.715  0.6588  0.3117  0.9555
  162MOL0     C21739   4.205   5.627   4.723 -0.2048 -0.4821  0.1820
  162MOL0     C21740   4.167   5.763   4.703 -0.8078 -0.5327  0.8901
  162MOL0     C21741   4.030   5.789   4.699 -0.9457 -0.0472 -0.0151
  162MOL0     C21742   3.940   5.694   4.734 -0.3388 -0.6580 -0.2283
  162MOL0     O21743   3.801   5.699   4.728  0.0145  0.1007 -0.5908
  162MOL0     C21744   3.734   5.822   4.697 -0.3374 -0.4116 -0.5960
  162MOL0     C21745   3.592   5.829   4.762 -0.3427 -0.5780  0.3852
  162MOL0     C21746   3.496   5.937   4.712  0.1812  0.1261 -0.0836
  162MOL0     C21747   3.361   5.920   4.785  0.7804  0.4439 -0.2852
  162MOL0     C21748   3.235   5.966   4.705 -0.3879 -0.8731  0.3425
  162MOL0     C21749   3.105   5.952   4.799 -0.9066 -0.0660  0.0008
  162MOL0     C21750   2.995   6.009   4.712  0.5891 -0.1381 -0.0545
  162MOL0     C21751   2.854   5.946   4.745  0.0250 -0.4547  1.0334
  162MOL0     N21752   2.818   5.986   4.879  0.3187  0.0017 -0.1773
  162MOL0     C21753   2.754   6.112   4.897  0.2471  0.5798  1.0614
  162MOL0     C21754   2.701   6.096   5.027  0.2501 -0.6585  0.5627
  162MOL0     C21755   2.630   6.209   5.108  0.2511 -0.5847 -0.1142
  162MOL0     C21756   2.475   6.182   5.137  0.2360  0.2007  0.0398
  162MOL0     C21757   2.397   6.309   5.148 -1.1888  0.4919 -0.5805
  162MOL0     C21758   2.254   6.272   5.207 -0.2242 -1.2755 -0.1441
  162MOL0     O21759   2.159   6.368   5.141 -0.8529 -0.4048  0.2678
  162MOL0     C21760   2.027   6.386   5.185  0.5139 -0.1617  0.9028
  162MOL0     C21761   1.954   6.297   5.264 -0.7103 -0.6141  0.5195
  162MOL0     C21762   1.818   6.318   5.293 -0.3596 -0.2185 -0.1184
  162MOL0     C21763   1.749   6.216   5.390 -0.0144 -0.0564  0.4148
  162MOL0     C21764   1.753   6.440   5.246 -0.2487  1.0342 -0.3827
  162MOL0     C21765   1.614   6.454   5.265 -0.1311 -0.5005 -0.0218
  162MOL0     O21766   1.540   6.337   5.238  0.2992 -0.1814 -0.6627
  162MOL0     C21767   1.407   6.355   5.260 -0.1640 -0.8860 -0.0398
  162MOL0     C21768   1.331   6.454   5.185  0.0417 -0.4903  0.0870
  162MOL0     C21769   1.191   6.453   5.199 -0.0978 -0.4417 -0.3279
  162MOL0     C21770   1.128   6.368   5.287  0.6519 -0.1481 -0.0276
  162MOL0     O21771   0.990   6.370   5.273 -0.0264  0.6975 -0.2000
  162MOL0     C21772   0.901   6.267   5.324 -0.3546  1.0746 -0.2312
  162MOL0     C21773   0.792   6.348   5.400  0.1492  0.0278  0.6082
  162MOL0     C21774   0.658   6.267   5.411 -0.4892 -1.2457 -0.6663
  162MOL0     C21775   0.565   6.334   5.511  0.4639 -0.2856 -0.3245
  162MOL0     C21776   0.464   6.417   5.436 -1.3066  0.1033  1.1012
  162MOL0     C21777   0.350   6.476   5.515  0.0460  0.0898  0.7500
  162MOL0     C21778   0.382   6.553   5.656  0.2835  0.4057  0.2827
  162MOL0     C21779   0.288   6.664   5.702 -0.6565 -0.7721 -0.4187
  162MOL0    Cl21780   0.262   6.792   5.579 -0.0503 -0.0972  0.1344
  162MOL0     C21781   1.199   6.282   5.361  0.7009  0.2588  0.3708
  162MOL0     C21782   1.338   6.281   5.355 -0.6111  0.1003 -0.4507
  162MOL0     O21783   1.565   6.560   5.297 -0.0454  0.0209  0.6116
  162MOL0     C21784   1.826   6.518   5.155 -0.5506  0.0546 -0.6890
  162MOL0     C21785   1.955   6.497   5.137 -0.4052  0.2734  0.3420
  162MOL0     N21786   2.754   5.975   5.089  0.4948  0.3386  0.7961
  162MOL0     N21787   2.813   5.912   4.994  0.0718  1.0074  0.4235
  162MOL0     C21788   3.982   5.569   4.761  0.5197  0.0249 -0.4385
  162MOL0     C21789   4.117   5.532   4.759  0.2710 -0.2804 -0.0528
  162MOL0     C21790   4.546   5.632   4.591 -1.3577 -0.0133  0.6504
  162MOL0     C21791   4.625   5.663   4.702  0.5255  0.3304 -0.4068
  162MOL0     C21792   4.763   5.678   4.693  0.2747  0.2261 -0.7731
  162MOL0     C21793   4.817   5.685   4.571 -0.0353  0.1565 -0.3297
  162MOL0     O21794   4.947   5.737   4.542  0.0042 -0.0632  0.3642
  162MOL0     C21795   5.031   5.773   4.652 -0.1660 -0.4009 -1.2819
  162MOL0     C21796   5.161   5.839   4.621  0.5548  0.5418  0.0608
  162MOL0     C21797   5.274   5.739   4.608 -0.3441  0.7278 -0.0094
  162MOL0     C21798   5.258   5.626   4.502  0.2902  0.2335  0.3781
  162MOL0     C21799   5.385   5.549   4.483 -0.4653 -0.5094  0.0750
  162MOL0     C21800   5.502   5.521   4.463 -0.1511  0.8678 -0.3208
  162MOL0     C21801   4.749   5.634   4.463 -1.0479  1.2518  0.5618
  162MOL0     C21802   4.613   5.610   4.473  0.5954 -0.3824  0.1266
  162MOL0     H21803   4.241   5.840   4.682 -1.0757 -0.0780  1.5885
  162MOL0     H21804   4.005   5.891   4.669  0.8070  0.0166 -1.4256
  162MOL0     H21805   3.780   5.901   4.757 -1.2755 -0.9234  0.8607
  162MOL0     H21806   3.748   5.856   4.594  1.1090  3.8250  0.8166
  162MOL0     H21807   3.547   5.733   4.734  0.1152 -0.2532 -1.7039
  162MOL0     H21808   3.596   5.839   4.870  0.0827 -3.6801  0.7354
  162MOL0     H21809   3.540   6.034   4.736 -2.3367  1.2268  0.3914
  162MOL0     H21810   3.473   5.937   4.605 -1.8997  3.9125  0.1862
  162MOL0     H21811   3.353   5.817   4.823 -0.1938  0.1670 -1.1797
  162MOL0     H21812   3.362   5.979   4.877 -2.2856  0.5441 -0.2095
  162MOL0     H21813   3.254   6.066   4.665  1.2378 -0.4440  2.0241
  162MOL0     H21814   3.225   5.906   4.615  0.8382 -1.3404  0.4984
  162MOL0     H21815   3.100   5.845   4.820 -0.2184  0.0426  0.7817
  162MOL0     H21816   3.128   6.002   4.894 -1.3029  2.1285 -0.9893
  162MOL0     H21817   2.998   6.116   4.732  3.3498 -0.3341  0.9887
  162MOL0     H21818   3.000   6.001   4.603  2.6485 -4.2544  0.1668
  162MOL0     H21819   2.850   5.840   4.720 -0.3405 -0.3206  0.4935
  162MOL0     H21820   2.786   5.985   4.668  0.1097 -2.6306 -0.2138
  162MOL0     H21821   2.728   6.194   4.830 -2.0112  0.2459  1.4623
  162MOL0     H21822   2.679   6.224   5.205 -1.2190 -1.9568  0.9041
  162MOL0     H21823   2.645   6.294   5.042  2.2266 -0.9298 -0.1559
  162MOL0     H21824   2.473   6.125   5.229 -0.0522  0.2734  0.0788
  162MOL0     H21825   2.424   6.119   5.064 -1.2019 -1.8920  2.6961
  162MOL0     H21826   2.388   6.363   5.053 -1.2289  2.0352  0.2601
  162MOL0     H21827   2.455   6.383   5.204  0.6090  2.0277 -4.1628
  162MOL0     H21828   2.254   6.284   5.315 -1.6501  2.2344 -0.3770
  162MOL0     H21829   2.230   6.168   5.182  3.0419 -2.4825  1.2194
  162MOL0     H21830   2.012   6.214   5.304  1.3561  0.6821  0.3638
  162MOL0     H21831   1.681   6.262   5.463 -1.4782 -0.7626 -0.4636
  162MOL0     H21832   1.688   6.148   5.330  1.5805 -2.6710  1.6272
  162MOL0     H21833   1.829   6.162   5.441 -1.3310 -2.7008 -0.1542
  162MOL0     H21834   1.372   6.517   5.107 -1.9761 -0.2448 -0.8506
  162MOL0     H21835   1.135   6.522   5.137  0.3065 -0.2389 -0.4688
  162MOL0     H21836   0.853   6.200   5.252 -1.5074  1.9860 -0.3387
  162MOL0     H21837   0.939   6.194   5.396 -1.4427  0.2402 -0.4650
  162MOL0     H21838   0.818   6.372   5.503 -1.2933  1.3448  0.6972
  162MOL0     H21839   0.762   6.443   5.355  0.3677  0.7547  1.9531
  162MOL0     H21840   0.667   6.163   5.444 -1.8104 -1.6771 -1.5574
  162MOL0     H21841   0.621   6.260   5.308 -1.7267 -0.4200 -0.3036
  162MOL0     H21842   0.509   6.267   5.577  2.8500 -0.4354  1.6872
  162MOL0     H21843   0.621   6.397   5.581 -0.5073  1.7496 -1.2972
  162MOL0     H21844   0.433   6.360   5.348 -1.0586  2.2281 -0.4216
  162MOL0     H21845   0.530   6.496   5.399  1.2556 -2.2377  0.3565
  162MOL0     H21846   0.287   6.536   5.448  1.5340 -0.6863 -1.4497
  162MOL0     H21847   0.292   6.388   5.546 -0.5996 -1.3614 -3.8635
  162MOL0     H21848   0.485   6.588   5.640  0.7172 -1.1335 -0.5993
  162MOL0     H21849   0.392   6.477   5.734 -1.0771 -2.5920 -2.2422
  162MOL0     H21850   0.333   6.719   5.785 -1.6298 -2.1148  1.0657
  162MOL0     H21851   0.193   6.636   5.750 -0.5188 -0.3468  0.1206
  162MOL0     H21852   1.149   6.221   5.436 -1.3028  0.5053 -0.6853
  162MOL0     H21853   1.394   6.225   5.430 -0.4620  0.8911  0.0341
  162MOL0     H21854   1.775   6.602   5.108  2.3992  0.5687 -3.3146
  162MOL0     H21855   2.009   6.557   5.065  0.2723  1.0158  1.4506
  162MOL0     H21856   3.914   5.485   4.770  0.9058 -0.6696 -3.0863
  162MOL0     H21857   4.137   5.426   4.770  0.2264 -0.2318  0.5293
  162MOL0     H21858   4.577   5.683   4.797  0.6507 -1.7347  0.1476
  162MOL0     H21859   4.826   5.692   4.781 -1.7720 -3.6171  1.6154
  162MOL0     H21860   4.979   5.845   4.716  2.1239 -0.3507  0.6719
  162MOL0     H21861   5.046   5.689   4.721 -0.0651  1.0300  0.4981
  162MOL0     H21862   5.192   5.913   4.696 -0.4812  0.7989  0.2533
  162MOL0     H21863   5.143   5.892   4.527 -4.9503 -1.7327 -0.5520
  162MOL0     H21864   5.288   5.690   4.705 -0.8634 -2.9921 -1.6118
  162MOL0     H21865   5.360   5.804   4.593  0.8237 -0.9836 -1.0460
  162MOL0     H21866   5.212   5.667   4.412  2.0495  1.3487 -0.0669
  162MOL0     H21867   5.183   5.558   4.542 -0.3335 -0.1654 -1.4149
  162MOL0     H21868   5.604   5.494   4.446 -0.4775 -1.6969  1.3381
  162MOL0     H21869   4.810   5.626   4.373  0.0498  1.9762  1.2180
  162MOL0     H21870   4.547   5.579   4.393  0.0056 -0.7167  0.7341
  163MOL0     O21871   5.626  10.778   9.632 -0.3853 -0.8460  0.1403
  163MOL0     C21872   5.703  10.857   9.570 -0.5342 -0.7712 -0.1542
  163MOL0     O21873   5.673  10.926   9.458 -0.2013 -0.9840  0.6274
  163MOL0     C21874   5.552  10.901   9.402  0.0887  0.2239  0.3936
  163MOL0     C21875   5.436  10.925   9.465  0.1129 -0.7048 -1.0327
  163MOL0     C21876   5.307  10.923   9.408 -0.3465 -0.0704  0.4802
  163MOL0     C21877   5.295  10.892   9.272 -1.2979  0.5762 -0.3991
  163MOL0     O21878   5.176  10.895   9.202 -0.1788  0.8903  0.6662
  163MOL0     C21879   5.118  11.028   9.213 -0.0888 -0.7978 -0.3391
  163MOL0     C21880   5.184  11.145   9.128 -0.2182 -1.0021 -0.0068
  163MOL0     C21881   5.155  11.137   8.980  0.0022  0.2201 -0.1243
  163MOL0     C21882   5.270  11.201   8.891 -1.3543  0.2134 -0.0859
  163MOL0     C21883   5.231  11.196   8.738  0.1014  0.7371 -0.0982
  163MOL0     C21884   5.251  11.051   8.686  0.1283 -0.3571  0.1127
  163MOL0     C21885   5.264  11.039   8.536 -0.5792  0.2745 -0.2272
  163MOL0     C21886   5.268  10.888   8.490  0.4037 -0.4639 -0.0113
  163MOL0     N21887   5.298  10.882   8.337 -0.1657 -0.4208  0.1436
  163MOL0     C21888   5.334  10.986   8.250  0.2120  1.5795 -0.0993
  163MOL0     C21889   5.351  10.932   8.125  0.2493 -0.2651 -0.0809
  163MOL0     C21890   5.390  11.019   8.002  0.1996 -0.1786  0.0264
  163MOL0     C21891   5.269  11.085   7.934  0.4776 -0.3408  0.5266
  163MOL0     C21892   5.169  10.976   7.894 -0.0458 -0.1025  0.2331
  163MOL0     C21893   5.079  11.021   7.780  0.3869 -0.4827  0.0093
  163MOL0     O21894   4.981  10.910   7.766 -0.2572 -0.1624 -0.1566
  163MOL0     C21895   4.879  10.896   7.675 -0.0158 -1.1046  0.6506
  163MOL0     C21896   4.811  10.782   7.661 -0.2486 -0.2076 -1.2655
  163MOL0     C21897   4.692  10.772   7.577  0.3104  0.7567  0.2432
  163MOL0     C21898   4.627  10.632   7.581  0.1679 -0.2180  0.1850
  163MOL0     C21899   4.656  10.882   7.495 -0.4390  0.0647 -0.3466
  163MOL0     C21900   4.544  10.878   7.401 -0.2533  0.4486 -0.3611
  163MOL0     O21901   4.504  10.996   7.347 -0.0532 -0.1392 -0.3494
  163MOL0     C21902   4.391  10.985   7.268 -0.9817  0.5921 -0.8603
  163MOL0     C21903   4.266  11.014   7.319 -0.1881  0.1438  0.5108
  163MOL0     C21904   4.163  10.995   7.230  0.4599  0.2528 -0.4949
  163MOL0     C21905   4.174  10.956   7.093 -0.0136 -1.2231 -0.3058
  163MOL0     O21906   4.057  10.945   7.026  0.3286 -0.2100  0.1034
  163MOL0     C21907   4.045  10.878   6.903 -0.3189  0.1127  0.1711
  163MOL0     C21908   3.891  10.852   6.872  0.4237  0.3007  0.2175
  163MOL0     C21909   3.797  10.968   6.902 -0.0685 -0.0151  0.2315
  163MOL0     C21910   3.654  10.948   6.858 -0.4450 -0.0969  0.2725
  163MOL0     C21911   3.560  11.071   6.862  0.6460  0.8302  0.0020
  163MOL0     C21912   3.575  11.166   6.737  0.3233 -0.0365 -1.0352
  163MOL0     C21913   3.712  11.230   6.719  0.0890 -0.0576  0.0267
  163MOL0     C21914   3.703  11.346   6.619 -0.1570 -0.7409  0.3417
  163MOL0    Cl21915   3.682  11.275   6.449  0.0247  0.1214 -0.4822
  163MOL0     C21916   4.304  10.935   7.045 -0.1110 -0.8415 -0.7432
  163MOL0     C21917   4.412  10.956   7.132 -0.2899 -0.3115  0.5018
  163MOL0     O21918   4.490  10.770   7.381 -0.1259  0.0641  0.2919
  163MOL0     C21919   4.736  11.000   7.500  0.2564 -0.7674 -0.2331
  163MOL0     C21920   4.845  11.002   7.594 -0.3426  0.0571 -0.2227
  163MOL0     N21921   5.317  10.800   8.132  0.4981 -0.0377  0.2261
  163MOL0     N21922   5.281  10.777   8.254  0.4565  0.2526  0.1746
  163MOL0     C21923   5.419  10.874   9.202  0.3663 -0.1681 -0.0875
  163MOL0     C21924   5.546  10.875   9.265 -0.3411  0.0835 -0.3148
  163MOL0     C21925   5.830  10.889   9.636 -0.5368  1.6966 -0.0961
  163MOL0     C21926   5.884  10.789   9.718  0.5324 -0.7071 -1.1086
  163MOL0     C21927   6.004  10.811   9.784  0.0117 -0.0062 -0.9529
  163MOL0     C21928   6.075  10.933   9.770 -0.2795 -0.2346 -0.0903
  163MOL0     O21929   6.196  10.947   9.841  0.6219  0.0618  0.5066
  163MOL0     C21930   6.262  11.077   9.843 -0.1923  0.3088 -0.6191
  163MOL0     C21931   6.382  11.092   9.743 -0.5562  0.2572  0.9073
  163MOL0     C21932   6.494  10.987   9.760 -0.5684 -0.1973 -0.9539
  163MOL0     C21933   6.624  11.002   9.669  0.3521 -0.0161  0.3303
  163MOL0     C21934   6.688  10.873   9.678 -0.6105  0.1203  0.3546
  163MOL0     C21935   6.744  10.762   9.697  0.2656 -0.4376  0.5661
  163MOL0     C21936   6.026  11.029   9.680  0.0264  0.5162 -0.2448
  163MOL0     C21937   5.904  11.005   9.622  0.4150 -0.1350  0.1311
  163MOL0     H21938   5.455  10.957   9.567  1.8888 -1.8610 -0.9570
  163MOL0     H21939   5.221  10.945   9.470 -1.0199 -1.0205 -0.0850
  163MOL0     H21940   5.013  11.014   9.183 -0.1786 -2.7541  0.7284
  163MOL0     H21941   5.110  11.051   9.320 -4.7579 -1.9745 -0.2179
  163MOL0     H21942   5.152  11.241   9.170  2.2372  0.0132 -0.2957
  163MOL0     H21943   5.291  11.130   9.143 -0.0904  0.8792  1.2805
  163MOL0     H21944   5.144  11.030   8.960 -3.0807  0.5395 -0.6066
  163MOL0     H21945   5.056  11.181   8.968 -0.1246 -0.2181 -0.7665
  163MOL0     H21946   5.279  11.304   8.925 -1.7964 -0.9246  4.0139
  163MOL0     H21947   5.356  11.140   8.919 -1.1863  1.5780  2.6149
  163MOL0     H21948   5.133  11.241   8.718 -0.1253 -1.0137 -3.6465
  163MOL0     H21949   5.315  11.255   8.699  0.8846 -0.2421  0.0609
  163MOL0     H21950   5.341  11.023   8.740  1.0726  2.4029  0.1165
  163MOL0     H21951   5.174  10.980   8.720  0.7634  0.4311  3.5386
  163MOL0     H21952   5.173  11.080   8.490 -0.4948  0.0159 -0.6338
  163MOL0     H21953   5.346  11.102   8.501 -0.8488 -0.3222 -2.0651
  163MOL0     H21954   5.179  10.831   8.518  1.8368 -1.7273  2.4001
  163MOL0     H21955   5.338  10.834   8.555 -2.2232 -0.3245  3.2007
  163MOL0     H21956   5.359  11.090   8.271  3.2706  0.9208 -0.0217
  163MOL0     H21957   5.450  11.103   8.038 -0.4672 -0.3161  1.5345
  163MOL0     H21958   5.451  10.975   7.923  0.5474 -0.4567  0.4484
  163MOL0     H21959   5.289  11.157   7.854 -2.7178 -0.1763 -0.2958
  163MOL0     H21960   5.215  11.150   8.004  0.8206 -2.6479  3.0800
  163MOL0     H21961   5.099  10.951   7.975 -0.5850 -1.3803 -0.6035
  163MOL0     H21962   5.219  10.881   7.879  1.5540  0.5359  1.2817
  163MOL0     H21963   5.143  11.036   7.692  0.6987  0.5034  0.3850
  163MOL0     H21964   5.033  11.116   7.809  0.0957 -0.2864 -1.0348
  163MOL0     H21965   4.852  10.694   7.710  0.4570  1.6258  1.7755
  163MOL0     H21966   4.523  10.648   7.608  0.8393  1.0756  2.2035
  163MOL0     H21967   4.634  10.579   7.485 -0.5237  1.5845 -0.9011
  163MOL0     H21968   4.655  10.560   7.659 -0.6634  0.2106  0.8987
  163MOL0     H21969   4.248  11.043   7.422 -2.1013 -1.9315  0.8377
  163MOL0     H21970   4.061  11.012   7.265 -0.8747  2.3851 -4.7999
  163MOL0     H21971   4.084  10.946   6.828  0.8531 -2.0555 -1.2861
  163MOL0     H21972   4.092  10.779   6.907 -3.2326 -1.3510  1.9216
  163MOL0     H21973   3.895  10.824   6.766  0.1319 -0.4587  0.3966
  163MOL0     H21974   3.852  10.765   6.926  0.7044 -2.8141 -4.0860
  163MOL0     H21975   3.844  11.059   6.864 -0.4838  0.0257 -0.1986
  163MOL0     H21976   3.789  10.972   7.011 -0.7316 -1.2544  0.2442
  163MOL0     H21977   3.657  10.905   6.757  2.7205 -3.5122  1.5605
  163MOL0     H21978   3.607  10.873   6.922 -3.9656  1.6421 -0.0238
  163MOL0     H21979   3.571  11.127   6.956  0.1787  2.7511 -1.0373
  163MOL0     H21980   3.458  11.033   6.850  1.6589 -1.3909 -2.8554
  163MOL0     H21981   3.557  11.114   6.643 -3.2715  1.6611 -1.4717
  163MOL0     H21982   3.502  11.247   6.752  2.1207  1.5055 -0.1993
  163MOL0     H21983   3.781  11.160   6.672 -0.8708 -1.8247  1.1441
  163MOL0     H21984   3.759  11.259   6.813 -2.2172  0.5507  1.0669
  163MOL0     H21985   3.802  11.393   6.620 -1.3088  2.3197 -3.4360
  163MOL0     H21986   3.622  11.418   6.638 -0.4578 -0.6158 -1.2597
  163MOL0     H21987   4.318  10.905   6.942  4.3618 -2.2711  0.0507
  163MOL0     H21988   4.512  10.946   7.091 -1.0637 -2.0940 -1.0487
  163MOL0     H21989   4.715  11.083   7.433 -1.1004  1.1405  2.3856
  163MOL0     H21990   4.897  11.097   7.603 -0.4823  0.3864 -2.3845
  163MOL0     H21991   5.415  10.878   9.093  1.2664  1.5959 -0.0976
  163MOL0     H21992   5.637  10.855   9.209  0.4487 -0.8417  1.2188
  163MOL0     H21993   5.836  10.691   9.719 -0.9901 -0.0609 -3.4983
  163MOL0     H21994   6.055  10.736   9.844  0.8172  0.8213 -0.5828
  163MOL0     H21995   6.184  11.154   9.846  0.1131  0.5824  0.5749
  163MOL0     H21996   6.310  11.078   9.941  0.5546  3.1452 -0.9408
  163MOL0     H21997   6.434  11.185   9.766 -3.7136  1.7442  2.5144
  163MOL0     H21998   6.355  11.091   9.637 -1.2283  1.8841  1.0442
  163MOL0     H21999   6.446  10.889   9.749 -1.2905  0.0803 -0.3578
  163MOL0     H22000   6.528  10.990   9.864  0.3217 -3.9440 -0.9903
  163MOL0     H22001   6.696  11.079   9.698  2.1025 -1.5053  0.1911
  163MOL0     H22002   6.594  11.013   9.564  0.5674  2.0738  0.4544
  163MOL0     H22003   6.796  10.670   9.713  2.1210  0.6513  1.0267
  163MOL0     H22004   6.084  11.118   9.659  3.3255 -1.4543 -0.1862
  163MOL0     H22005   5.863  11.072   9.547  1.2372 -1.6096 -1.7350
  164MOL0     O22006   6.449   8.244   9.806 -0.7454  0.0322 -0.2617
  164MOL0     C22007   6.523   8.190   9.722 -0.7875 -0.9787 -0.0800
  164MOL0     O22008   6.658   8.221   9.701  0.4627 -1.2251  0.0814
  164MOL0     C22009   6.737   8.312   9.765  0.2385  0.3800 -0.4617
  164MOL0     C22010   6.702   8.430   9.825 -0.0242 -0.2902  0.0531
  164MOL0     C22011   6.797   8.517   9.888  0.9867 -0.0114 -0.2453
  164MOL0     C22012   6.933   8.489   9.882 -0.1386 -0.3185 -0.6144
  164MOL0     O22013   7.021   8.572   9.932 -0.1561 -0.1945  0.2375
  164MOL0     C22014   7.119   8.506  10.016 -0.6276 -0.9814  0.3738
  164MOL0     C22015   7.104   8.555  10.164  0.1277 -0.0388  0.8903
  164MOL0     C22016   7.234   8.585  10.229 -0.1414 -0.3188 -0.6729
  164MOL0     C22017   7.321   8.457  10.259 -0.6900 -0.4510 -0.2165
  164MOL0     C22018   7.433   8.493  10.356 -0.0657 -0.1390 -0.0871
  164MOL0     C22019   7.519   8.372  10.374 -0.6418 -0.3086 -0.4033
  164MOL0     C22020   7.622   8.362  10.494  0.3792  0.7363  0.4219
  164MOL0     C22021   7.688   8.224  10.504 -0.5543 -0.8909 -0.3186
  164MOL0     N22022   7.590   8.136  10.567 -0.1616  0.3887 -0.1409
  164MOL0     C22023   7.488   8.065  10.501 -0.3159  0.6119  0.5631
  164MOL0     C22024   7.452   7.968  10.585  0.3437  0.1225 -0.1079
  164MOL0     C22025   7.321   7.889  10.560 -0.6680  0.5877 -1.0288
  164MOL0     C22026   7.198   7.986  10.570 -0.5685 -0.5748 -0.3683
  164MOL0     C22027   7.078   7.918  10.635 -1.0074 -0.7288  0.4645
  164MOL0     C22028   6.951   8.006  10.656  0.2098 -0.0673 -0.0235
  164MOL0     O22029   6.892   8.004  10.526  0.0445 -0.4062  0.1703
  164MOL0     C22030   6.757   7.990  10.535  0.4858  0.1417  0.5244
  164MOL0     C22031   6.708   7.862  10.520 -0.5225 -0.3219 -0.4398
  164MOL0     C22032   6.569   7.839  10.523  0.6260  0.2556 -0.5422
  164MOL0     C22033   6.529   7.697  10.487 -0.7380  1.0751  0.5823
  164MOL0     C22034   6.473   7.939  10.547 -0.0584 -0.4289 -0.9989
  164MOL0     C22035   6.329   7.920  10.545  0.0858 -0.7352 -0.6912
  164MOL0     O22036   6.285   7.802  10.596  0.3345  0.4197 -0.5754
  164MOL0     C22037   6.153   7.790  10.597  1.2068  0.5985  0.0803
  164MOL0     C22038   6.090   7.708  10.508 -0.0202 -0.3098 -0.7118
  164MOL0     C22039   5.947   7.717  10.497 -0.2508  0.6704 -0.6251
  164MOL0     C22040   5.865   7.792  10.577  0.9100  0.4259  0.1123
  164MOL0     O22041   5.732   7.782  10.555 -0.1971 -0.3134 -0.6183
  164MOL0     C22042   5.634   7.856  10.620 -0.0889  0.1199  0.3201
  164MOL0     C22043   5.590   7.757  10.730 -0.0216  0.8168  0.2964
  164MOL0     C22044   5.511   7.826  10.842  0.1280  0.4187  0.3321
  164MOL0     C22045   5.430   7.938  10.793 -0.1408 -0.0299  0.6691
  164MOL0     C22046   5.341   8.004  10.898  0.6340 -1.2097  0.1156
  164MOL0     C22047   5.266   8.134  10.845 -0.0368  0.8143  0.2677
  164MOL0     C22048   5.320   8.266  10.907  0.9245 -0.0981  0.8283
  164MOL0     C22049   5.285   8.281  11.059  0.0219  0.1506 -0.0561
  164MOL0    Cl22050   5.228   8.447  11.098 -0.7247  0.4078  0.2751
  164MOL0     C22051   5.935   7.857  10.677  0.2660 -0.2434 -0.8202
  164MOL0     C22052   6.074   7.862  10.683  0.1350  0.1760 -0.0507
  164MOL0     O22053   6.250   8.015  10.513 -1.1456  0.7782  0.2844
  164MOL0     C22054   6.530   8.067  10.547 -0.0769  0.0935  0.2384
  164MOL0     C22055   6.668   8.094  10.545 -0.4641 -0.1652  0.2151
  164MOL0     N22056   7.517   7.978  10.703  0.8015  1.1241 -0.0853
  164MOL0     N22057   7.607   8.063  10.690  0.1345  0.7827  0.7330
  164MOL0     C22058   6.961   8.366   9.810  0.5533 -0.1861 -0.1034
  164MOL0     C22059   6.863   8.274   9.771  0.2036 -0.3001  0.3580
  164MOL0     C22060   6.470   8.079   9.646 -0.1638  0.1775  0.0205
  164MOL0     C22061   6.361   8.004   9.673  0.2363  0.3063 -0.3204
  164MOL0     C22062   6.314   7.898   9.598 -0.3372 -0.3977  0.0622
  164MOL0     C22063   6.365   7.856   9.483 -1.0259 -0.0905  0.3763
  164MOL0     O22064   6.315   7.760   9.401 -0.0714  0.1794 -0.8683
  164MOL0     C22065   6.191   7.795   9.327  0.5440 -0.6380  0.3193
  164MOL0     C22066   6.239   7.880   9.209  0.0860 -0.8004  0.5685
  164MOL0     C22067   6.122   7.959   9.138 -0.5437  0.8176 -0.4877
  164MOL0     C22068   6.176   8.083   9.061  0.2995  0.3563  0.4182
  164MOL0     C22069   6.283   8.063   8.958  0.5186  0.0157 -0.3515
  164MOL0     C22070   6.371   8.035   8.878  0.1409  0.0223 -0.2668
  164MOL0     C22071   6.486   7.925   9.452  0.1193  0.2453  0.6243
  164MOL0     C22072   6.534   8.028   9.529  0.7690 -1.1254 -0.2147
  164MOL0     H22073   6.601   8.464   9.805 -0.3477 -1.0373  0.3788
  164MOL0     H22074   6.769   8.607   9.942  2.0959  0.2023 -0.0155
  164MOL0     H22075   7.112   8.397  10.012  1.1440 -1.0927 -1.4607
  164MOL0     H22076   7.218   8.536   9.980 -0.9983  2.8628  2.0780
  164MOL0     H22077   7.054   8.652  10.165  1.8894  0.9186  1.2703
  164MOL0     H22078   7.044   8.481  10.218 -0.6951  0.7465  1.0766
  164MOL0     H22079   7.291   8.650  10.162  1.0678  0.2971  0.8862
  164MOL0     H22080   7.229   8.636  10.326  2.1257  1.5001 -1.4438
  164MOL0     H22081   7.255   8.374  10.288  0.3226 -2.0489 -2.2009
  164MOL0     H22082   7.374   8.416  10.172  1.0736  0.3897  0.4199
  164MOL0     H22083   7.488   8.581  10.322 -2.7863  0.5150 -3.2038
  164MOL0     H22084   7.397   8.524  10.455 -1.8742 -2.0107 -0.0753
  164MOL0     H22085   7.453   8.285  10.378 -0.1847 -0.6091  1.4292
  164MOL0     H22086   7.578   8.351  10.285 -1.4911  0.8967 -1.2847
  164MOL0     H22087   7.698   8.439  10.472  3.2116 -2.0034 -0.1089
  164MOL0     H22088   7.571   8.376  10.589  0.6007  1.6598  0.4202
  164MOL0     H22089   7.783   8.226  10.558  1.5196 -1.7633 -3.6712
  164MOL0     H22090   7.710   8.194  10.401  0.0593  0.2468 -0.5384
  164MOL0     H22091   7.442   8.084  10.405  0.9714  3.7641  0.4814
  164MOL0     H22092   7.331   7.842  10.462 -1.4897  0.2925 -0.9764
  164MOL0     H22093   7.312   7.808  10.634  2.2296 -0.1387 -1.3341
  164MOL0     H22094   7.160   8.008  10.469  1.4562 -1.3741 -1.3613
  164MOL0     H22095   7.223   8.082  10.617  2.8261 -0.6423 -1.7964
  164MOL0     H22096   7.106   7.889  10.737  0.4590  0.4370  0.4193
  164MOL0     H22097   7.058   7.824  10.583  0.7494  0.0760 -1.8235
  164MOL0     H22098   6.973   8.112  10.674 -3.6832  0.8546  0.0894
  164MOL0     H22099   6.875   7.970  10.725 -0.7083  0.0692 -0.9473
  164MOL0     H22100   6.774   7.780  10.498  1.0422  1.0484 -1.0484
  164MOL0     H22101   6.440   7.649  10.529 -1.3590  0.5008 -1.2856
  164MOL0     H22102   6.513   7.689  10.379  0.7291 -1.5011  0.4928
  164MOL0     H22103   6.614   7.634  10.514  0.1903 -0.3555 -4.6111
  164MOL0     H22104   6.139   7.641  10.438  0.3294 -2.1382  1.1952
  164MOL0     H22105   5.885   7.647  10.442  1.8319 -0.9529 -1.0597
  164MOL0     H22106   5.671   7.950  10.662 -2.3135  0.4233  1.7460
  164MOL0     H22107   5.556   7.885  10.549  1.3541 -1.6134 -2.1331
  164MOL0     H22108   5.528   7.677  10.689  1.1756  0.2333 -0.4374
  164MOL0     H22109   5.680   7.720  10.780 -0.2204 -0.0987 -0.0042
  164MOL0     H22110   5.582   7.861  10.917 -0.7495  1.3177  0.7660
  164MOL0     H22111   5.453   7.752  10.899  0.3903 -0.3893 -0.4139
  164MOL0     H22112   5.492   8.019  10.754 -0.0122  0.6281  2.1753
  164MOL0     H22113   5.352   7.895  10.729 -2.5236 -0.0385  3.4107
  164MOL0     H22114   5.419   8.027  10.971  1.6139  0.5760 -1.4484
  164MOL0     H22115   5.266   7.936  10.941  0.8944 -1.6061 -0.0500
  164MOL0     H22116   5.278   8.141  10.737 -1.4376  0.6122  0.0790
  164MOL0     H22117   5.163   8.130  10.881  0.4465  0.9260  1.7264
  164MOL0     H22118   5.286   8.354  10.851  1.8564 -0.1164  0.2172
  164MOL0     H22119   5.429   8.266  10.894  0.6621  2.3313 -3.0301
  164MOL0     H22120   5.379   8.248  11.106  1.2297  1.0980 -1.6752
  164MOL0     H22121   5.202   8.211  11.076  0.1728  0.0555  0.3211
  164MOL0     H22122   5.877   7.908  10.754  1.2020  0.4729 -0.5573
  164MOL0     H22123   6.114   7.932  10.755 -1.8353  1.5323 -0.1891
  164MOL0     H22124   6.462   8.151  10.554  0.7288  0.6218  3.2438
  164MOL0     H22125   6.705   8.196  10.542  3.3109 -1.3607  0.9798
  164MOL0     H22126   7.062   8.330   9.796  0.2630 -0.5089 -1.5103
  164MOL0     H22127   6.897   8.179   9.732 -2.2948 -0.6782 -1.1929
  164MOL0     H22128   6.302   8.017   9.763 -3.2349 -4.1903 -1.5902
  164MOL0     H22129   6.221   7.847   9.622 -0.0896 -0.3290  1.2474
  164MOL0     H22130   6.147   7.702   9.289  1.4269 -2.2379  2.9160
  164MOL0     H22131   6.119   7.847   9.390  1.0363  0.8522 -0.3167
  164MOL0     H22132   6.275   7.805   9.138 -0.5431 -0.8426  0.2885
  164MOL0     H22133   6.326   7.938   9.241  1.5531 -2.1175 -0.8243
  164MOL0     H22134   6.055   8.011   9.208  1.7411  0.7005  1.9461
  164MOL0     H22135   6.060   7.893   9.077 -2.7336  0.6789  1.6920
  164MOL0     H22136   6.211   8.165   9.125  1.9624  0.3293 -0.4005
  164MOL0     H22137   6.082   8.107   9.010 -0.2955 -0.5521  1.0456
  164MOL0     H22138   6.451   8.019   8.808  0.0713  1.6732 -0.7685
  164MOL0     H22139   6.533   7.916   9.355  1.4431 -0.2884  1.2881
  164MOL0     H22140   6.618   8.087   9.491  1.4884 -0.3487  2.3358
  165MOL0     O22141   0.337   7.196   7.819 -0.4536  0.1738 -0.6763
  165MOL0     C22142   0.289   7.132   7.734  0.8270 -0.0643  0.3414
  165MOL0     O22143   0.359   7.060   7.636 -0.4280 -0.1954 -0.4782
  165MOL0     C22144   0.493   7.042   7.657  0.7910  0.1748 -0.4678
  165MOL0     C22145   0.577   7.010   7.544  0.7264 -1.4568  0.4562
  165MOL0     C22146   0.711   6.963   7.560 -0.0506 -0.1546  0.4615
  165MOL0     C22147   0.761   6.936   7.685 -0.8147  0.1916 -0.1430
  165MOL0     O22148   0.896   6.904   7.697  0.2727 -1.1264  0.4663
  165MOL0     C22149   0.935   6.817   7.808  0.2789  1.5385  0.1022
  165MOL0     C22150   1.083   6.768   7.786 -0.7291  0.1637  0.2978
  165MOL0     C22151   1.116   6.639   7.854 -0.4191  0.1846  0.5854
  165MOL0     C22152   1.117   6.521   7.755  0.2671  0.2084  0.0546
  165MOL0     C22153   1.144   6.385   7.840  0.3065 -0.9075 -0.0613
  165MOL0     C22154   1.157   6.261   7.751 -0.4087 -0.4649 -0.3923
  165MOL0     C22155   1.034   6.206   7.672  0.2052 -0.0502 -0.6771
  165MOL0     C22156   1.072   6.059   7.624 -1.0479  0.4973 -0.1142
  165MOL0     N22157   0.981   5.980   7.543 -0.2156  0.4846  0.5337
  165MOL0     C22158   0.840   5.981   7.554 -0.3658 -0.5944 -0.6637
  165MOL0     C22159   0.800   5.890   7.466 -0.4269 -0.3101  1.1795
  165MOL0     C22160   0.664   5.855   7.416  0.8585 -0.5092 -0.1424
  165MOL0     C22161   0.616   5.720   7.486  0.1464  0.0412 -0.7967
  165MOL0     C22162   0.477   5.691   7.477  0.4314  0.5787  1.0456
  165MOL0     C22163   0.398   5.749   7.588  0.2662  0.1285 -0.7840
  165MOL0     O22164   0.381   5.889   7.559 -0.1584 -0.2848 -0.8821
  165MOL0     C22165   0.298   5.960   7.641  0.3489  0.2234 -0.2979
  165MOL0     C22166   0.166   5.977   7.611  0.5418  0.4900 -0.1221
  165MOL0     C22167   0.080   6.056   7.690 -0.6973 -0.4612  0.3304
  165MOL0     C22168  -0.067   6.048   7.649  0.0280 -0.3176 -0.3051
  165MOL0     C22169   0.140   6.121   7.802  0.2822 -0.6597 -0.5282
  165MOL0     C22170   0.063   6.237   7.870  0.2018  0.9367 -0.3672
  165MOL0     O22171   0.101   6.239   8.004  0.1009  0.4695  0.2780
  165MOL0     C22172   0.038   6.318   8.090  0.8451 -0.1908  0.8016
  165MOL0     C22173   0.110   6.405   8.168  0.1354  1.3647  0.3049
  165MOL0     C22174   0.046   6.483   8.267 -0.3677 -0.0640  0.4469
  165MOL0     C22175  -0.092   6.473   8.280  0.2772 -0.5924 -0.9150
  165MOL0     O22176  -0.158   6.559   8.368 -0.3737  0.3769  0.0788
  165MOL0     C22177  -0.298   6.580   8.376 -0.0947  0.3280 -0.5133
  165MOL0     C22178  -0.326   6.718   8.416 -0.3244 -0.0308  0.6745
  165MOL0     C22179  -0.268   6.811   8.312 -0.9697 -0.1117 -0.2261
  165MOL0     C22180  -0.253   6.954   8.373 -0.2178  0.7780  0.3817
  165MOL0     C22181  -0.202   7.046   8.273  0.5234 -0.1912  0.8442
  165MOL0     C22182  -0.312   7.160   8.238 -0.1213  0.4086  0.6770
  165MOL0     C22183  -0.258   7.261   8.141 -1.1479 -0.5470  0.5317
  165MOL0     C22184  -0.362   7.360   8.094  0.7009  0.4158 -0.0367
  165MOL0    Cl22185  -0.406   7.469   8.230  0.2332 -0.9823 -0.5547
  165MOL0     C22186  -0.171   6.384   8.198 -0.2110 -0.0844 -1.4025
  165MOL0     C22187  -0.104   6.295   8.113 -0.3056 -0.0163  0.0961
  165MOL0     O22188  -0.027   6.303   7.828 -0.3687  0.1021  0.3255
  165MOL0     C22189   0.277   6.101   7.831  1.4289  0.8020 -0.2116
  165MOL0     C22190   0.356   6.017   7.749  0.0122 -0.6484 -0.2235
  165MOL0     N22191   0.906   5.842   7.403  0.4713  0.8026 -0.1290
  165MOL0     N22192   1.015   5.894   7.447 -1.1262  0.4012  0.0947
  165MOL0     C22193   0.675   6.962   7.796  0.1430 -0.1495  0.1471
  165MOL0     C22194   0.553   7.021   7.784 -0.0699 -0.0158 -0.9255
  165MOL0     C22195   0.142   7.146   7.719 -1.0200  0.7517  0.2690
  165MOL0     C22196   0.071   7.251   7.785 -0.3261 -0.3356 -0.1855
  165MOL0     C22197  -0.069   7.259   7.802  0.0110  0.3440  0.2947
  165MOL0     C22198  -0.143   7.167   7.730  1.1329 -1.0214  0.6313
  165MOL0     O22199  -0.279   7.165   7.760  0.0287  0.0380  0.5577
  165MOL0     C22200  -0.358   7.056   7.705  0.2419  0.2200  0.0265
  165MOL0     C22201  -0.507   7.069   7.740 -0.7009  0.3123  0.0847
  165MOL0     C22202  -0.569   7.183   7.646  0.1938  0.6044  0.9202
  165MOL0     C22203  -0.697   7.233   7.704  0.5309 -0.6939  0.1694
  165MOL0     C22204  -0.765   7.312   7.608  0.1115 -0.5220 -1.0026
  165MOL0     C22205  -0.824   7.367   7.518  0.5261 -0.2329 -0.4817
  165MOL0     C22206  -0.081   7.066   7.650  0.1099 -0.0833  0.2036
  165MOL0     C22207   0.059   7.052   7.654  0.8572 -0.9540  0.9515
  165MOL0     H22208   0.538   7.009   7.443 -2.5475 -3.8268  1.5729
  165MOL0     H22209   0.771   6.932   7.475 -1.7074 -0.8754 -0.4784
  165MOL0     H22210   0.931   6.860   7.908  1.8149 -1.6900  1.6801
  165MOL0     H22211   0.867   6.731   7.807  0.4713  1.3677  1.0792
  165MOL0     H22212   1.117   6.756   7.683  2.9762 -1.8523  1.5583
  165MOL0     H22213   1.135   6.849   7.838  0.0977 -0.4404  0.4309
  165MOL0     H22214   1.202   6.648   7.921  0.6001  1.0110 -0.7936
  165MOL0     H22215   1.033   6.613   7.920 -0.1970  0.7212  1.0823
  165MOL0     H22216   1.022   6.503   7.704 -0.1808  2.6025 -0.0614
  165MOL0     H22217   1.201   6.534   7.686 -0.3077 -0.8994 -0.8947
  165MOL0     H22218   1.228   6.409   7.906 -0.1645  0.1502  0.1829
  165MOL0     H22219   1.062   6.375   7.912 -1.9126  1.1816 -2.1313
  165MOL0     H22220   1.230   6.297   7.678 -1.8359 -0.3684 -1.8411
  165MOL0     H22221   1.206   6.186   7.815  1.8613  1.9609  0.8985
  165MOL0     H22222   0.948   6.193   7.739 -0.2671 -0.1116 -1.2890
  165MOL0     H22223   1.017   6.262   7.579  0.4162  0.3479 -0.4778
  165MOL0     H22224   1.111   5.997   7.705  1.6810  1.7270 -0.3505
  165MOL0     H22225   1.157   6.074   7.556  0.0670  1.3992  1.4423
  165MOL0     H22226   0.771   6.034   7.619 -0.4803  1.3062 -2.2494
  165MOL0     H22227   0.608   5.947   7.432  0.1316 -1.2134  1.6150
  165MOL0     H22228   0.658   5.840   7.307 -0.3562 -0.5912 -0.0836
  165MOL0     H22229   0.636   5.726   7.593  1.0934 -1.5059 -0.8436
  165MOL0     H22230   0.677   5.632   7.459  2.3346  0.6224  1.8195
  165MOL0     H22231   0.474   5.583   7.494  1.1192  0.3590 -0.1203
  165MOL0     H22232   0.436   5.724   7.381 -0.1422 -1.2393  0.6331
  165MOL0     H22233   0.454   5.741   7.681  0.6007  4.2128 -0.4396
  165MOL0     H22234   0.303   5.700   7.607 -0.3429  1.4623 -0.2947
  165MOL0     H22235   0.130   5.947   7.513  0.1777  0.2303  0.0880
  165MOL0     H22236  -0.076   5.960   7.586 -0.3504  0.6574 -1.6519
  165MOL0     H22237  -0.144   6.042   7.726 -0.8291 -0.3308 -1.1430
  165MOL0     H22238  -0.084   6.141   7.594  0.6393  0.2813  0.4806
  165MOL0     H22239   0.212   6.438   8.149  0.7757  0.2459  1.5832
  165MOL0     H22240   0.106   6.555   8.321 -2.0977  2.7949 -1.2032
  165MOL0     H22241  -0.348   6.553   8.283 -1.1366 -0.2135  0.1813
  165MOL0     H22242  -0.329   6.518   8.461  0.4220  2.1838  1.1181
  165MOL0     H22243  -0.435   6.727   8.424 -0.6239 -0.2038 -2.2437
  165MOL0     H22244  -0.285   6.741   8.515 -0.2710  3.2513  0.0039
  165MOL0     H22245  -0.344   6.798   8.235  0.4891 -1.8687 -1.4630
  165MOL0     H22246  -0.167   6.781   8.283 -0.0113 -0.1384  2.8005
  165MOL0     H22247  -0.354   6.974   8.408 -1.4145  0.5360 -2.6469
  165MOL0     H22248  -0.184   6.959   8.458 -0.8905  4.2017  0.8824
  165MOL0     H22249  -0.173   6.999   8.179  1.4738  0.7121  0.6794
  165MOL0     H22250  -0.119   7.109   8.305 -0.0883  3.0000 -3.1459
  165MOL0     H22251  -0.395   7.114   8.184  0.5551 -1.6822  1.3341
  165MOL0     H22252  -0.337   7.207   8.334  2.0810  0.1498  1.4280
  165MOL0     H22253  -0.214   7.203   8.059 -2.6213 -2.8493  1.2639
  165MOL0     H22254  -0.176   7.321   8.179 -0.7685  1.0429 -2.5106
  165MOL0     H22255  -0.449   7.298   8.072  1.3361  0.2990 -2.4721
  165MOL0     H22256  -0.343   7.423   8.007 -1.1637  2.5574  0.9982
  165MOL0     H22257  -0.280   6.381   8.203 -0.1457 -2.1815  1.6060
  165MOL0     H22258  -0.171   6.235   8.052 -1.5263  1.3802 -0.0012
  165MOL0     H22259   0.333   6.155   7.906  2.4518  1.6525 -1.5276
  165MOL0     H22260   0.462   6.004   7.770 -0.2835 -2.4178  0.3738
  165MOL0     H22261   0.710   6.947   7.898 -1.3585 -3.4887  0.2671
  165MOL0     H22262   0.504   7.047   7.877  1.7471 -0.6234  0.2498
  165MOL0     H22263   0.123   7.316   7.855  0.0778  0.7130 -1.4153
  165MOL0     H22264  -0.117   7.321   7.878  0.7876  0.5616  0.6113
  165MOL0     H22265  -0.350   7.035   7.598  2.4119 -0.2886  0.2509
  165MOL0     H22266  -0.328   6.962   7.752  1.7628 -1.1202 -3.3094
  165MOL0     H22267  -0.506   7.093   7.847 -0.3375 -0.4451  0.2624
  165MOL0     H22268  -0.562   6.977   7.719 -1.1586  0.5637  0.1777
  165MOL0     H22269  -0.576   7.145   7.543 -0.5394  4.5122 -0.6854
  165MOL0     H22270  -0.501   7.269   7.648  1.4836 -0.3858  1.0284
  165MOL0     H22271  -0.676   7.285   7.799  0.7183 -0.5614  0.0577
  165MOL0     H22272  -0.761   7.150   7.735 -1.2970 -0.1113 -1.8293
  165MOL0     H22273  -0.866   7.419   7.434  1.0937  0.0379 -0.6011
  165MOL0     H22274  -0.131   6.984   7.600 -2.7955  1.2745  0.6338
  165MOL0     H22275   0.111   6.969   7.608  1.7618 -0.0253  0.2494
  166MOL0     O22276   7.125   6.036   4.937 -0.6501 -0.1177 -0.3915
  166MOL0     C22277   7.046   5.970   5.016 -0.4044  0.0126  1.0492
  166MOL0     O22278   6.913   5.977   5.006  0.0430 -0.1344 -0.3766
  166MOL0     C22279   6.842   6.066   4.930  0.5957 -0.5348  0.2982
  166MOL0     C22280   6.729   6.129   4.986 -0.6183 -0.2727  0.4501
  166MOL0     C22281   6.658   6.221   4.901 -0.1638 -0.1170  0.4457
  166MOL0     C22282   6.690   6.246   4.769 -0.3799 -0.0065 -0.1421
  166MOL0     O22283   6.613   6.336   4.695 -0.4802 -0.3407 -0.2286
  166MOL0     C22284   6.673   6.399   4.585 -0.1558  0.1850 -0.4089
  166MOL0     C22285   6.569   6.508   4.537 -0.1816  0.1748 -0.0226
  166MOL0     C22286   6.448   6.447   4.462 -0.8208 -0.3518 -0.2052
  166MOL0     C22287   6.400   6.526   4.331  0.1062  0.0909 -0.9103
  166MOL0     C22288   6.287   6.450   4.261  0.0786  0.7795 -0.2043
  166MOL0     C22289   6.151   6.480   4.318  0.5660 -0.0825  0.4464
  166MOL0     C22290   6.031   6.382   4.289 -0.2127  0.0624 -0.5656
  166MOL0     C22291   6.002   6.303   4.426  0.4651 -0.3093 -0.2135
  166MOL0     N22292   6.125   6.225   4.476 -0.4904 -0.3797 -0.2817
  166MOL0     C22293   6.197   6.245   4.591  0.4291 -0.7340 -0.1176
  166MOL0     C22294   6.280   6.141   4.604 -1.0968  0.0966  0.0449
  166MOL0     C22295   6.364   6.100   4.720  0.4113  0.3564  0.0149
  166MOL0     C22296   6.287   5.979   4.782  0.1658 -0.4053 -0.1999
  166MOL0     C22297   6.162   6.022   4.873  0.2326  0.1513  0.3212
  166MOL0     C22298   6.067   5.900   4.896  0.1115  0.4584  0.7823
  166MOL0     O22299   6.002   5.856   4.777 -1.0718 -0.1329 -0.1844
  166MOL0     C22300   5.889   5.917   4.729  0.4851  0.2209 -1.0566
  166MOL0     C22301   5.832   6.026   4.786  0.5646 -0.8339  0.0024
  166MOL0     C22302   5.710   6.078   4.729 -0.4069  0.1586 -0.2017
  166MOL0     C22303   5.661   6.212   4.792 -1.0147 -1.1034 -0.3628
  166MOL0     C22304   5.639   6.006   4.630  0.1279 -0.2740 -0.4228
  166MOL0     C22305   5.522   6.062   4.558 -0.5160  0.5736 -0.2141
  166MOL0     O22306   5.518   6.025   4.422  0.2541 -0.4788  0.5580
  166MOL0     C22307   5.408   6.063   4.342 -0.1071  0.7259 -0.5384
  166MOL0     C22308   5.386   6.200   4.333 -0.3219 -0.7149  0.7269
  166MOL0     C22309   5.277   6.244   4.255 -0.3153 -0.1555  0.0557
  166MOL0     C22310   5.195   6.157   4.193  0.8898 -0.9167  0.0585
  166MOL0     O22311   5.087   6.212   4.115 -0.6391  0.3700 -0.3228
  166MOL0     C22312   5.013   6.137   4.026  0.5182 -0.1921 -0.1093
  166MOL0     C22313   4.897   6.229   3.959 -1.0522  0.1543  0.3525
  166MOL0     C22314   4.823   6.162   3.833  0.4146 -0.4352 -0.0863
  166MOL0     C22315   4.742   6.276   3.767  0.3452 -0.6312 -0.5231
  166MOL0     C22316   4.593   6.265   3.792 -0.8341 -0.2249 -0.8895
  166MOL0     C22317   4.505   6.329   3.683  0.7943 -0.5617  0.3450
  166MOL0     C22318   4.524   6.487   3.674 -0.6899 -0.2892 -0.3668
  166MOL0     C22319   4.423   6.554   3.590 -0.6495 -0.9370  0.5980
  166MOL0    Cl22320   4.495   6.712   3.529 -0.3306  0.0396 -0.1743
  166MOL0     C22321   5.211   6.020   4.198 -0.4858 -0.4124  0.5973
  166MOL0     C22322   5.318   5.972   4.278  0.0873 -0.1376  0.6520
  166MOL0     O22323   5.432   6.105   4.623  0.0688 -0.4569  0.2556
  166MOL0     C22324   5.699   5.886   4.588  0.4618 -0.0986 -0.1364
  166MOL0     C22325   5.817   5.840   4.632 -0.4634 -0.2182 -0.4216
  166MOL0     N22326   6.276   6.062   4.480 -0.3465 -0.3637  0.5095
  166MOL0     N22327   6.186   6.116   4.409 -0.1513 -0.2450  0.0745
  166MOL0     C22328   6.801   6.173   4.715  0.2012  0.3708 -0.2691
  166MOL0     C22329   6.871   6.090   4.797 -0.2743 -0.4166 -0.2081
  166MOL0     C22330   7.098   5.876   5.123 -0.1930 -0.1108  0.1720
  166MOL0     C22331   7.023   5.833   5.234 -0.3069 -0.8063 -0.0132
  166MOL0     C22332   7.083   5.751   5.328  0.2629 -0.3803  0.0472
  166MOL0     C22333   7.221   5.724   5.328  0.0443 -0.8908 -1.1821
  166MOL0     O22334   7.288   5.652   5.431  0.6074 -1.5739 -0.0144
  166MOL0     C22335   7.428   5.698   5.463  0.6293 -0.1816  0.2188
  166MOL0     C22336   7.464   5.663   5.605 -0.0436 -0.2357 -0.0372
  166MOL0     C22337   7.441   5.519   5.651  0.2912  0.5768 -0.2579
  166MOL0     C22338   7.412   5.492   5.805  0.2816  0.0398 -0.3928
  166MOL0     C22339   7.363   5.353   5.817  0.3443  0.8500 -0.5568
  166MOL0     C22340   7.326   5.239   5.804 -0.1246  0.7260 -0.1171
  166MOL0     C22341   7.293   5.764   5.219  0.5716  0.6972  0.4689
  166MOL0     C22342   7.230   5.841   5.119  0.5409  1.6092 -0.7113
  166MOL0     H22343   6.700   6.101   5.087 -0.0160  1.7634  1.2342
  166MOL0     H22344   6.568   6.268   4.938 -0.8664 -0.1875 -1.1003
  166MOL0     H22345   6.764   6.449   4.621  3.0144 -4.1643 -1.4466
  166MOL0     H22346   6.698   6.336   4.499 -0.7558  2.8596 -2.6857
  166MOL0     H22347   6.525   6.563   4.621 -0.7538  0.5102 -0.5358
  166MOL0     H22348   6.628   6.572   4.471  0.6763  0.3525  0.8934
  166MOL0     H22349   6.490   6.356   4.416  0.9198  1.6238 -2.7900
  166MOL0     H22350   6.365   6.420   4.529  0.8698 -0.5448  1.9335
  166MOL0     H22351   6.362   6.624   4.360 -3.2737 -1.1402 -0.7095
  166MOL0     H22352   6.486   6.528   4.264  0.5688 -1.2638 -0.4034
  166MOL0     H22353   6.292   6.473   4.154  1.7962 -0.1798 -0.3757
  166MOL0     H22354   6.313   6.344   4.270 -0.8837  0.5669  0.1135
  166MOL0     H22355   6.157   6.483   4.427 -0.1405 -2.4969  0.6240
  166MOL0     H22356   6.118   6.574   4.273 -0.5432 -0.3352  0.6836
  166MOL0     H22357   5.932   6.425   4.271 -2.1014 -2.3023  2.9170
  166MOL0     H22358   6.062   6.321   4.204  1.6725  1.1765 -0.7424
  166MOL0     H22359   5.915   6.237   4.414  1.1731 -1.1712 -0.7764
  166MOL0     H22360   5.985   6.378   4.503  3.3388  1.3624 -1.0291
  166MOL0     H22361   6.176   6.319   4.668  0.4777 -0.3491 -0.4690
  166MOL0     H22362   6.461   6.065   4.681  0.9609  0.6665  1.0682
  166MOL0     H22363   6.374   6.176   4.798 -1.6446  0.4948  0.1799
  166MOL0     H22364   6.343   5.923   4.858 -2.8969 -0.8743  1.8863
  166MOL0     H22365   6.271   5.899   4.708 -1.5610 -1.9473  1.7034
  166MOL0     H22366   6.108   6.098   4.815 -1.1304 -1.1821 -0.1993
  166MOL0     H22367   6.186   6.070   4.969  0.4008  0.9851 -0.1240
  166MOL0     H22368   5.996   5.951   4.961 -1.4090 -1.6267  0.8716
  166MOL0     H22369   6.119   5.821   4.952 -0.8084 -1.0689 -0.4127
  166MOL0     H22370   5.876   6.085   4.866 -1.2194  0.6000  0.0012
  166MOL0     H22371   5.749   6.255   4.840 -1.0301 -0.6310 -0.7496
  166MOL0     H22372   5.621   6.284   4.720 -2.8115 -0.1937  1.4156
  166MOL0     H22373   5.590   6.197   4.875 -0.1542  2.7243  1.2877
  166MOL0     H22374   5.452   6.264   4.391  0.8153 -0.0674 -1.1909
  166MOL0     H22375   5.265   6.352   4.245  1.8504 -0.0685 -2.8813
  166MOL0     H22376   5.067   6.085   3.946 -0.0789 -0.8931 -0.0699
  166MOL0     H22377   4.959   6.054   4.073 -1.4451 -1.0724 -3.4819
  166MOL0     H22378   4.826   6.235   4.042 -1.0853 -1.5672  0.4880
  166MOL0     H22379   4.939   6.324   3.926 -0.6631  0.4107  1.5330
  166MOL0     H22380   4.764   6.074   3.861  0.2266 -0.2198  0.1972
  166MOL0     H22381   4.900   6.121   3.767 -0.0176 -1.8450  0.2340
  166MOL0     H22382   4.772   6.373   3.806 -0.0042 -1.5001  2.0884
  166MOL0     H22383   4.758   6.268   3.659 -2.0141 -0.1451 -0.9551
  166MOL0     H22384   4.575   6.300   3.894  0.6190 -0.9941 -0.3388
  166MOL0     H22385   4.552   6.164   3.793  1.2330 -1.1156 -0.0849
  166MOL0     H22386   4.516   6.282   3.585 -3.9531 -0.6870 -0.3200
  166MOL0     H22387   4.398   6.320   3.703  0.6975  1.0737  0.7332
  166MOL0     H22388   4.621   6.505   3.625 -0.7721  2.6716  0.3805
  166MOL0     H22389   4.524   6.535   3.772 -1.0924  0.4757 -0.7333
  166MOL0     H22390   4.323   6.559   3.634 -0.1851 -1.3961  1.7361
  166MOL0     H22391   4.415   6.489   3.503  0.4494 -2.6412  1.7113
  166MOL0     H22392   5.155   5.943   4.146 -0.0035 -1.2369  1.2769
  166MOL0     H22393   5.338   5.865   4.286 -0.4186 -0.1531  1.7788
  166MOL0     H22394   5.640   5.826   4.520  0.8424 -0.6466  0.0148
  166MOL0     H22395   5.865   5.752   4.590 -3.3256 -0.9599 -2.4656
  166MOL0     H22396   6.840   6.184   4.614 -2.6059  0.6653 -1.4035
  166MOL0     H22397   6.955   6.036   4.754 -0.6518 -1.6581  0.5568
  166MOL0     H22398   6.915   5.846   5.231 -0.2915 -0.0590  1.4449
  166MOL0     H22399   7.029   5.710   5.412  1.1539 -1.4419  0.1184
  166MOL0     H22400   7.498   5.657   5.389 -1.8632 -1.3835 -1.6264
  166MOL0     H22401   7.433   5.807   5.460 -0.3841 -0.0648  1.7267
  166MOL0     H22402   7.412   5.728   5.676  0.9357 -1.4001  1.8403
  166MOL0     H22403   7.571   5.684   5.601 -0.5600  2.6197 -2.9917
  166MOL0     H22404   7.520   5.456   5.609  0.1885  0.0811  0.2901
  166MOL0     H22405   7.349   5.496   5.596 -2.3173  1.3581  3.4303
  166MOL0     H22406   7.345   5.566   5.850 -0.4627 -1.2861  0.7613
  166MOL0     H22407   7.510   5.517   5.845 -0.4526  0.5473  1.1505
  166MOL0     H22408   7.295   5.137   5.798 -0.6205  0.7054  1.9932
  166MOL0     H22409   7.399   5.746   5.201  0.5599 -1.5310  2.1825
  166MOL0     H22410   7.274   5.868   5.024  2.8169  0.5930 -0.0146
  167MOL0     O22411   3.461   0.299   0.166 -1.0947 -0.1978  0.1173
  167MOL0     C22412   3.488   0.384   0.256  0.5361  0.7727 -0.6972
  167MOL0     O22413   3.394   0.419   0.355  0.2588 -0.0186  0.7825
  167MOL0     C22414   3.277   0.347   0.357  0.4346 -0.5642  0.0560
  167MOL0     C22415   3.273   0.207   0.386  0.1436 -0.6257  0.1168
  167MOL0     C22416   3.154   0.140   0.366  0.3866  0.7886  0.2496
  167MOL0     C22417   3.033   0.213   0.342 -1.2335 -0.5845 -0.2799
  167MOL0     O22418   2.911   0.156   0.326 -0.1547  0.7198  1.0000
  167MOL0     C22419   2.895   0.045   0.410 -0.7128  0.1031  0.4183
  167MOL0     C22420   2.746   0.010   0.389  0.0467 -0.3666  0.8409
  167MOL0     C22421   2.644   0.071   0.486  0.5200  0.0002  0.4896
  167MOL0     C22422   2.493   0.012   0.477 -0.2008  0.3193  1.2258
  167MOL0     C22423   2.409   0.101   0.572  0.7720  0.7968  0.3117
  167MOL0     C22424   2.265   0.041   0.581 -1.0391  0.1526  0.2981
  167MOL0     C22425   2.167   0.151   0.628 -0.5972  0.7982 -0.5905
  167MOL0     C22426   2.177   0.214   0.779 -0.6027  0.1795  0.5168
  167MOL0     N22427   2.143   0.116   0.881  0.5029 -1.2240  0.0180
  167MOL0     C22428   2.013   0.090   0.918 -0.0582 -0.1036 -0.0417
  167MOL0     C22429   2.030   0.007   1.023 -0.5264  0.4795 -0.0481
  167MOL0     C22430   1.935  -0.063   1.113  0.4777 -0.3052  0.0959
  167MOL0     C22431   1.878   0.027   1.230  0.1646  0.1459  0.4198
  167MOL0     C22432   1.988   0.041   1.341 -0.0594 -0.3781 -0.4442
  167MOL0     C22433   1.939   0.095   1.474  0.2669  0.2076  0.1705
  167MOL0     O22434   1.890   0.226   1.445 -0.7414 -0.8401  0.5494
  167MOL0     C22435   1.808   0.267   1.549 -0.4904  0.8124 -0.1184
  167MOL0     C22436   1.678   0.284   1.530 -0.2555 -0.3800 -0.0727
  167MOL0     C22437   1.583   0.324   1.626 -0.3275 -0.7266 -0.4080
  167MOL0     C22438   1.436   0.325   1.589 -0.1070 -0.3333 -0.8720
  167MOL0     C22439   1.637   0.356   1.758  0.0500 -0.2381 -0.1443
  167MOL0     C22440   1.548   0.406   1.867 -0.0961  0.8097 -0.8328
  167MOL0     O22441   1.417   0.395   1.856  0.0493 -0.1962 -0.2205
  167MOL0     C22442   1.330   0.455   1.945 -0.3038 -0.9801 -0.2381
  167MOL0     C22443   1.242   0.386   2.034 -0.3720 -0.3623  0.1247
  167MOL0     C22444   1.156   0.459   2.120  0.7685  0.5535  0.1212
  167MOL0     C22445   1.147   0.599   2.118 -0.9416  0.4482  0.2564
  167MOL0     O22446   1.066   0.652   2.211 -0.6544  0.1011 -0.5063
  167MOL0     C22447   0.966   0.727   2.168 -0.4175  0.5249 -0.2517
  167MOL0     C22448   0.825   0.682   2.194  0.1407  0.8365  0.3836
  167MOL0     C22449   0.769   0.560   2.119 -0.0531 -0.5140 -0.7754
  167MOL0     C22450   0.656   0.486   2.196  0.2075 -0.3712 -0.6034
  167MOL0     C22451   0.578   0.381   2.119  0.1579 -0.7533 -0.2063
  167MOL0     C22452   0.459   0.315   2.196 -0.4131  0.1004  0.2517
  167MOL0     C22453   0.386   0.217   2.104 -0.2350  0.0623  0.4901
  167MOL0     C22454   0.311   0.289   1.990  0.1092 -0.3819 -0.7954
  167MOL0    Cl22455   0.284   0.172   1.860  0.7072 -0.1093 -0.0759
  167MOL0     C22456   1.234   0.677   2.036  0.3311  0.4493 -0.1023
  167MOL0     C22457   1.316   0.599   1.944  0.1439 -0.1794  0.5374
  167MOL0     O22458   1.607   0.451   1.966 -0.4060 -0.2578 -0.4791
  167MOL0     C22459   1.774   0.346   1.779 -0.5580 -0.4641  0.0816
  167MOL0     C22460   1.857   0.298   1.678  0.6803 -0.2209  0.5211
  167MOL0     N22461   2.158  -0.022   1.042 -0.4398 -0.0545  0.0189
  167MOL0     N22462   2.222   0.039   0.949 -0.5465  0.1546 -0.4206
  167MOL0     C22463   3.042   0.353   0.334  0.3862  0.8708  0.3704
  167MOL0     C22464   3.158   0.412   0.337 -0.2574  0.3054 -0.3974
  167MOL0     C22465   3.621   0.419   0.267  0.5511 -0.7366 -0.0892
  167MOL0     C22466   3.689   0.467   0.157  0.1084 -0.3446  0.5433
  167MOL0     C22467   3.824   0.504   0.177  0.9327  0.0035 -0.5542
  167MOL0     C22468   3.888   0.489   0.304  0.7502  0.7049 -0.5093
  167MOL0     O22469   4.014   0.521   0.336 -0.2311 -0.1992 -0.0396
  167MOL0     C22470   4.113   0.548   0.231 -0.1742 -0.1225  0.2339
  167MOL0     C22471   4.253   0.589   0.277  0.5977 -0.7885 -0.2410
  167MOL0     C22472   4.333   0.488   0.364 -0.4601 -0.0961 -0.0467
  167MOL0     C22473   4.337   0.553   0.510  0.6242 -0.2358 -0.5798
  167MOL0     C22474   4.416   0.468   0.602 -0.4440 -0.4970  0.2686
  167MOL0     C22475   4.500   0.413   0.667  0.2663 -0.6093  0.1364
  167MOL0     C22476   3.814   0.425   0.407  0.1846 -0.3397  0.6299
  167MOL0     C22477   3.682   0.393   0.388  0.0368  0.0522 -1.0434
  167MOL0     H22478   3.366   0.152   0.394 -0.9034 -2.8038 -1.5157
  167MOL0     H22479   3.170   0.033   0.364  0.2615  0.7167  1.8281
  167MOL0     H22480   2.948  -0.041   0.370  0.7092  1.4109 -0.5975
  167MOL0     H22481   2.915   0.059   0.517  1.0890 -1.8028  0.3873
  167MOL0     H22482   2.719   0.030   0.285 -0.4891  2.3812  1.4452
  167MOL0     H22483   2.740  -0.099   0.401  0.6958 -0.5302 -0.1983
  167MOL0     H22484   2.688   0.054   0.585 -0.0149 -2.8731  0.3068
  167MOL0     H22485   2.635   0.179   0.469 -1.1276  0.3770  3.1187
  167MOL0     H22486   2.456   0.042   0.378  1.3902 -0.1703  0.4523
  167MOL0     H22487   2.494  -0.097   0.492  3.7544 -0.1893 -1.2944
  167MOL0     H22488   2.459   0.106   0.669  0.1751  0.1041  0.6661
  167MOL0     H22489   2.414   0.202   0.530  2.1563  1.2961  1.5724
  167MOL0     H22490   2.237  -0.001   0.484  0.5892 -1.5469  0.5138
  167MOL0     H22491   2.272  -0.045   0.647 -1.7572  0.2482  0.5092
  167MOL0     H22492   2.172   0.233   0.557  0.9569  0.6672 -0.6602
  167MOL0     H22493   2.068   0.109   0.608 -0.2033  0.2011 -1.3062
  167MOL0     H22494   2.114   0.303   0.790  0.3355  0.8019  0.9316
  167MOL0     H22495   2.279   0.245   0.803  0.5095 -1.1229 -2.0578
  167MOL0     H22496   1.918   0.121   0.875 -0.2627 -0.1017  0.4007
  167MOL0     H22497   1.850  -0.098   1.054  1.1063  0.5512 -1.3721
  167MOL0     H22498   1.976  -0.151   1.164 -2.4561 -0.7904  1.8416
  167MOL0     H22499   1.781  -0.008   1.265 -0.7598  1.4035 -0.7833
  167MOL0     H22500   1.843   0.119   1.182  0.6744 -0.4217 -1.1341
  167MOL0     H22501   2.075   0.099   1.309  1.1652 -1.2048  1.2275
  167MOL0     H22502   2.024  -0.060   1.360  2.9529  1.0939  2.8496
  167MOL0     H22503   2.030   0.100   1.534  0.3379 -1.7137  0.2590
  167MOL0     H22504   1.870   0.022   1.516 -2.5290  0.6216 -3.2265
  167MOL0     H22505   1.647   0.259   1.429 -0.9492 -2.5268  0.6231
  167MOL0     H22506   1.377   0.243   1.633 -0.1389 -0.3078 -0.8675
  167MOL0     H22507   1.394   0.423   1.611  0.6544  0.0077 -0.9271
  167MOL0     H22508   1.442   0.312   1.481 -0.1943 -2.4609 -0.6820
  167MOL0     H22509   1.235   0.279   2.050 -0.3014 -0.3641  0.1478
  167MOL0     H22510   1.103   0.400   2.194 -0.2199  1.2292 -0.0230
  167MOL0     H22511   0.963   0.825   2.218  1.3412  1.1397 -1.2146
  167MOL0     H22512   0.976   0.749   2.061 -3.1879  4.2308  0.0244
  167MOL0     H22513   0.808   0.663   2.300 -3.5467 -0.7070 -0.3468
  167MOL0     H22514   0.756   0.764   2.171  0.4940  1.6533  2.0903
  167MOL0     H22515   0.849   0.488   2.098  0.8830  0.6551 -1.3246
  167MOL0     H22516   0.734   0.600   2.024 -1.0610 -0.1333 -0.2611
  167MOL0     H22517   0.701   0.445   2.287  1.3466  2.0646  0.0196
  167MOL0     H22518   0.574   0.555   2.217 -1.7028 -2.2884 -1.3201
  167MOL0     H22519   0.643   0.299   2.087  0.4548  1.2356 -5.9932
  167MOL0     H22520   0.544   0.426   2.025  1.8091 -0.8544 -0.8777
  167MOL0     H22521   0.497   0.251   2.276  0.5816 -2.0664 -1.8197
  167MOL0     H22522   0.397   0.393   2.241 -0.8957 -0.2428  0.1919
  167MOL0     H22523   0.311   0.172   2.170  0.3886  2.3172  2.9251
  167MOL0     H22524   0.448   0.136   2.065 -1.1176  0.0781 -1.0490
  167MOL0     H22525   0.353   0.383   1.953 -1.7136  1.9749  2.5720
  167MOL0     H22526   0.212   0.312   2.031  0.3439 -1.8998  0.7509
  167MOL0     H22527   1.241   0.785   2.038 -2.6095  0.7234 -0.1305
  167MOL0     H22528   1.365   0.668   1.875  0.8067 -1.0230  0.1463
  167MOL0     H22529   1.821   0.386   1.868 -0.2149 -0.3129 -0.1645
  167MOL0     H22530   1.965   0.291   1.685  0.9258 -0.4410 -2.2901
  167MOL0     H22531   2.947   0.406   0.329  0.2151  0.5068 -0.5424
  167MOL0     H22532   3.151   0.520   0.331 -1.8660  0.3646  1.6167
  167MOL0     H22533   3.634   0.497   0.069  1.7951  0.6057 -0.2400
  167MOL0     H22534   3.873   0.541   0.088 -0.6458  0.9862 -1.0608
  167MOL0     H22535   4.131   0.460   0.169  0.6428 -0.2351  0.6223
  167MOL0     H22536   4.080   0.628   0.164  2.4776  1.1602  0.3476
  167MOL0     H22537   4.240   0.676   0.342 -2.8404 -2.8738  2.1891
  167MOL0     H22538   4.304   0.607   0.182 -0.9081  0.9161 -0.7781
  167MOL0     H22539   4.435   0.471   0.329 -0.4480  1.1658 -0.6862
  167MOL0     H22540   4.283   0.391   0.376 -3.7039  1.3987 -0.3498
  167MOL0     H22541   4.238   0.576   0.552 -0.1038 -2.3334 -1.0561
  167MOL0     H22542   4.390   0.647   0.493 -0.8595  0.8904  0.6847
  167MOL0     H22543   4.562   0.351   0.729 -0.3228 -1.2822  0.0732
  167MOL0     H22544   3.850   0.397   0.506 -0.9129 -1.1783  0.8159
  167MOL0     H22545   3.627   0.346   0.468  0.6277  2.2456  0.7649
  168MOL0     O22546   7.308   2.192   9.710  0.0855  0.5108  0.0748
  168MOL0     C22547   7.333   2.127   9.809  0.1932  0.9337  0.1723
  168MOL0     O22548   7.237   2.078   9.895 -0.2763  0.6540 -0.1025
  168MOL0     C22549   7.104   2.096   9.871 -0.4780 -0.5432 -0.8106
  168MOL0     C22550   7.042   2.134   9.759  0.1405  0.2011  0.5714
  168MOL0     C22551   6.901   2.146   9.743 -0.0342  0.6554  0.6575
  168MOL0     C22552   6.816   2.120   9.842  1.1772 -0.3931  0.0092
  168MOL0     O22553   6.683   2.138   9.818 -0.4034 -0.4488 -0.1753
  168MOL0     C22554   6.584   2.116   9.913 -0.0266 -0.2299  0.8160
  168MOL0     C22555   6.464   2.193   9.863  0.1198  0.5113  0.2751
  168MOL0     C22556   6.469   2.340   9.886  0.2278 -0.6708  0.0970
  168MOL0     C22557   6.443   2.381  10.029  0.0921 -0.0811 -0.1765
  168MOL0     C22558   6.290   2.385  10.075 -0.6062  0.1751 -0.6129
  168MOL0     C22559   6.268   2.412  10.221 -0.3348 -0.5023  0.5851
  168MOL0     C22560   6.141   2.347  10.265  0.4910 -0.3983 -0.6090
  168MOL0     C22561   6.142   2.196  10.304 -0.4085 -0.0195 -0.4531
  168MOL0     N22562   6.152   2.101  10.198  0.2713  0.3391 -0.1353
  168MOL0     C22563   6.055   2.068  10.110  0.3505  0.6470 -0.6756
  168MOL0     C22564   6.112   1.997  10.009 -0.9190  0.0317  0.0660
  168MOL0     C22565   6.044   1.955   9.884 -0.0185  0.1326  0.2849
  168MOL0     C22566   6.136   1.946   9.755  0.3967 -0.2006  0.2013
  168MOL0     C22567   6.073   2.036   9.650 -0.7542 -0.5000  1.1046
  168MOL0     C22568   6.150   2.024   9.517 -0.2683 -0.3994 -0.1590
  168MOL0     O22569   6.118   2.142   9.436 -0.4312  0.8755 -0.2245
  168MOL0     C22570   5.990   2.147   9.378 -0.0131 -0.3422 -0.2254
  168MOL0     C22571   5.893   2.042   9.355 -0.1498 -0.4737  0.6098
  168MOL0     C22572   5.778   2.065   9.273  0.0925  0.6961  0.0109
  168MOL0     C22573   5.683   1.957   9.244 -0.3920 -0.4990 -0.6094
  168MOL0     C22574   5.747   2.196   9.231 -0.6057 -0.0957 -0.0252
  168MOL0     C22575   5.628   2.246   9.142 -0.3498  0.2226 -0.3940
  168MOL0     O22576   5.520   2.152   9.144 -0.2769  0.3674  0.1645
  168MOL0     C22577   5.424   2.168   9.049 -0.9704  0.0458 -0.3138
  168MOL0     C22578   5.348   2.281   9.002 -0.4847  0.2720 -0.0451
  168MOL0     C22579   5.266   2.276   8.890 -0.2809  0.0456 -0.3449
  168MOL0     C22580   5.239   2.144   8.836 -0.4771  0.1725  0.1004
  168MOL0     O22581   5.157   2.151   8.734  0.0283 -0.7201  0.2477
  168MOL0     C22582   5.125   2.024   8.675 -0.0571 -0.3335  0.5308
  168MOL0     C22583   5.228   1.975   8.566  0.6107  0.1083 -0.4616
  168MOL0     C22584   5.317   2.089   8.501  0.1498  0.6805  0.1485
  168MOL0     C22585   5.393   2.031   8.377  0.1245 -0.0487  0.7529
  168MOL0     C22586   5.517   2.122   8.352  0.2230  0.4923 -0.6004
  168MOL0     C22587   5.585   2.092   8.219 -0.2489 -0.2079  0.2631
  168MOL0     C22588   5.704   2.172   8.178  0.1503  0.4786 -0.2817
  168MOL0     C22589   5.663   2.296   8.103  0.0449 -0.5042  0.3675
  168MOL0    Cl22590   5.816   2.377   8.082 -0.0686  0.2187 -0.1527
  168MOL0     C22591   5.308   2.031   8.881 -0.9140  0.3727 -0.4364
  168MOL0     C22592   5.399   2.045   8.980 -0.5954 -0.6218 -0.0572
  168MOL0     O22593   5.643   2.345   9.070 -0.3424 -0.0077 -0.7981
  168MOL0     C22594   5.831   2.303   9.270  0.3519  0.2958  0.2243
  168MOL0     C22595   5.949   2.278   9.339  0.7202 -0.5810 -0.7486
  168MOL0     N22596   6.249   1.970  10.050  0.5785 -0.0700 -0.1180
  168MOL0     N22597   6.270   2.037  10.156 -0.3192  0.1226 -1.1023
  168MOL0     C22598   6.878   2.090   9.960 -0.1171  0.6306 -0.5674
  168MOL0     C22599   7.019   2.069   9.982  0.1121  0.1221 -0.0529
  168MOL0     C22600   7.471   2.084   9.835 -0.5280  0.1473 -0.0737
  168MOL0     C22601   7.513   1.968   9.900 -0.4177  0.2482 -0.4603
  168MOL0     C22602   7.644   1.942   9.940 -0.0475 -0.4912 -0.0188
  168MOL0     C22603   7.739   2.034   9.906  0.7785 -0.1882  0.1578
  168MOL0     O22604   7.864   2.018   9.940 -0.3069 -0.3390 -0.4716
  168MOL0     C22605   7.917   1.912  10.024  0.0707 -0.3409  1.1349
  168MOL0     C22606   7.965   1.788   9.949 -0.6802  0.2522  0.6743
  168MOL0     C22607   8.056   1.695  10.034  0.0522 -0.3513  0.6221
  168MOL0     C22608   8.106   1.581   9.946  1.1888 -0.4465  0.2668
  168MOL0     C22609   8.109   1.462  10.033  0.2044  0.0980 -0.5316
  168MOL0     C22610   8.116   1.372  10.113  0.1208 -0.4326 -0.0988
  168MOL0     C22611   7.709   2.143   9.825  0.0535  0.2066  0.1791
  168MOL0     C22612   7.570   2.172   9.790 -0.0742  0.4286 -0.6485
  168MOL0     H22613   7.100   2.143   9.667  2.5181 -2.6670  1.5855
  168MOL0     H22614   6.864   2.173   9.645  0.3035 -0.7029  0.1329
  168MOL0     H22615   6.570   2.008   9.930  2.0920 -1.1299 -2.3095
  168MOL0     H22616   6.616   2.161  10.008  1.8017  0.3588 -0.0415
  168MOL0     H22617   6.459   2.179   9.755 -0.6198 -5.9624  0.7575
  168MOL0     H22618   6.373   2.153   9.907  0.3593 -1.7590 -1.1380
  168MOL0     H22619   6.569   2.372   9.853 -0.0648  0.6177  0.4242
  168MOL0     H22620   6.393   2.392   9.828  0.0821  3.1350  3.3423
  168MOL0     H22621   6.504   2.316  10.092  1.0206  1.6860  0.8314
  168MOL0     H22622   6.489   2.478  10.050  0.4324  1.1438 -5.1808
  168MOL0     H22623   6.233   2.456  10.014  1.0208  1.9928 -0.0989
  168MOL0     H22624   6.261   2.280  10.060  0.1083 -0.3966  1.7024
  168MOL0     H22625   6.338   2.368  10.293 -1.5261  0.2499  2.2681
  168MOL0     H22626   6.276   2.521  10.235 -2.2470 -0.3537  0.7490
  168MOL0     H22627   6.101   2.395  10.354 -3.8967 -1.7630 -1.6101
  168MOL0     H22628   6.064   2.368  10.190  0.0729  1.4526  0.2955
  168MOL0     H22629   6.049   2.177  10.359  1.2085  0.5235  2.7032
  168MOL0     H22630   6.217   2.189  10.383  0.4722  5.8725 -0.3228
  168MOL0     H22631   5.958   2.115  10.108  0.6177  1.2321 -0.2934
  168MOL0     H22632   6.007   1.854   9.902 -4.2379  1.5179  0.4135
  168MOL0     H22633   5.961   2.026   9.878  2.0190  2.9219  2.1962
  168MOL0     H22634   6.158   1.846   9.716  0.3799  0.7618 -2.4606
  168MOL0     H22635   6.232   1.989   9.783 -0.4912  2.3381 -0.3752
  168MOL0     H22636   6.079   2.139   9.688  0.6617  1.0033 -2.6433
  168MOL0     H22637   5.971   2.006   9.626  0.4201 -2.2098 -2.4903
  168MOL0     H22638   6.120   1.931   9.468 -4.5654  0.9431 -0.4433
  168MOL0     H22639   6.259   2.023   9.528  0.1135 -0.1988 -3.1497
  168MOL0     H22640   5.923   1.945   9.393 -0.9106 -1.6121 -1.5364
  168MOL0     H22641   5.577   1.966   9.270 -0.5683 -0.7926 -1.1838
  168MOL0     H22642   5.685   1.941   9.135 -0.0932  0.6785 -0.7858
  168MOL0     H22643   5.709   1.860   9.289 -0.1202 -1.3180 -2.4129
  168MOL0     H22644   5.379   2.382   9.025  2.2980 -0.9133  2.1001
  168MOL0     H22645   5.225   2.362   8.838  0.0009 -0.6616 -1.8098
  168MOL0     H22646   5.104   1.941   8.743  1.4390 -1.1099  0.0968
  168MOL0     H22647   5.026   2.038   8.629  0.3745 -0.2994 -0.4218
  168MOL0     H22648   5.282   1.888   8.604 -1.2341 -0.8784  0.0364
  168MOL0     H22649   5.164   1.938   8.486 -0.2212  1.2263 -0.3489
  168MOL0     H22650   5.397   2.116   8.571  2.0204 -1.3211 -1.1215
  168MOL0     H22651   5.253   2.174   8.476  0.3372  1.3956  1.9324
  168MOL0     H22652   5.431   1.932   8.401 -1.5605 -0.2007  3.1387
  168MOL0     H22653   5.327   2.026   8.290  1.1698 -2.5010  0.0201
  168MOL0     H22654   5.593   2.105   8.428 -1.1642 -0.6064  0.5940
  168MOL0     H22655   5.495   2.229   8.357  1.3598  0.6888  0.9449
  168MOL0     H22656   5.616   1.987   8.216  1.1792  0.1555  1.4531
  168MOL0     H22657   5.511   2.108   8.139  1.8385  0.3192 -1.6609
  168MOL0     H22658   5.777   2.126   8.111  2.5613  3.7417 -0.1758
  168MOL0     H22659   5.760   2.191   8.270 -1.8689  0.1023  1.0973
  168MOL0     H22660   5.578   2.352   8.144  0.5452  1.3278 -0.9795
  168MOL0     H22661   5.639   2.270   8.000  1.9966  1.5048 -0.6813
  168MOL0     H22662   5.290   1.932   8.840  0.1247  0.5507 -1.3845
  168MOL0     H22663   5.463   1.959   8.996 -0.1686 -0.1596  0.7515
  168MOL0     H22664   5.813   2.406   9.240  1.0601  0.6298  0.9057
  168MOL0     H22665   6.007   2.370   9.349 -2.5314  2.0405 -3.3212
  168MOL0     H22666   6.815   2.087  10.048 -1.6723  0.5656 -1.6573
  168MOL0     H22667   7.055   2.032  10.077  2.7764  1.5537 -0.4117
  168MOL0     H22668   7.445   1.885   9.915  0.9757 -0.7010  0.8480
  168MOL0     H22669   7.654   1.858  10.007 -0.4785 -0.4071  0.1580
  168MOL0     H22670   7.994   1.956  10.088  0.1072 -0.2617  1.0380
  168MOL0     H22671   7.843   1.872  10.094 -0.9820 -1.2240 -0.4292
  168MOL0     H22672   8.033   1.822   9.871 -1.9338 -0.2892 -0.7137
  168MOL0     H22673   7.885   1.730   9.900  0.2155 -0.0757 -0.4492
  168MOL0     H22674   7.990   1.652  10.111 -1.9483  3.6706  1.4430
  168MOL0     H22675   8.135   1.753  10.082  0.5283 -1.2992  0.9961
  168MOL0     H22676   8.208   1.600   9.911  1.2558 -0.8853  0.2164
  168MOL0     H22677   8.044   1.561   9.858  0.3273  2.6765  0.0658
  168MOL0     H22678   8.115   1.291  10.183 -1.2074  1.4300  2.1627
  168MOL0     H22679   7.786   2.216   9.800  1.4079 -0.9389  0.8826
  168MOL0     H22680   7.556   2.269   9.744  2.0391  1.8977  1.5098
  169MOL0     O22681   4.506   9.812   1.395 -0.5328 -0.2957 -0.0181
  169MOL0     C22682   4.405   9.774   1.455  0.0145 -0.4325  0.3081
  169MOL0     O22683   4.280   9.746   1.406  0.3271 -0.3669 -0.3042
  169MOL0     C22684   4.244   9.786   1.278 -0.1243 -0.2949  0.4101
  169MOL0     C22685   4.277   9.907   1.224  0.6955  0.6154  0.6145
  169MOL0     C22686   4.253   9.935   1.085 -0.0494  0.0705 -0.6157
  169MOL0     C22687   4.159   9.849   1.014 -0.1191 -1.4262  1.0395
  169MOL0     O22688   4.125   9.871   0.880  0.0743  0.0377  0.2352
  169MOL0     C22689   4.075  10.003   0.844 -0.2344  0.6538 -0.5836
  169MOL0     C22690   4.006   9.998   0.704 -0.8575 -0.1314  0.0514
  169MOL0     C22691   3.924  10.122   0.674 -0.4518 -0.1407  0.2005
  169MOL0     C22692   3.972  10.266   0.703 -0.3053 -0.2199 -0.3209
  169MOL0     C22693   3.858  10.354   0.651 -0.4679  0.2403 -0.5593
  169MOL0     C22694   3.722  10.319   0.713 -1.2168 -0.2388 -0.6917
  169MOL0     C22695   3.614  10.423   0.704 -0.0723 -0.4377  0.3733
  169MOL0     C22696   3.576  10.449   0.559 -0.4563  0.6072  0.6253
  169MOL0     N22697   3.445  10.496   0.538 -0.1939 -0.2082 -0.1989
  169MOL0     C22698   3.400  10.619   0.549  0.7845  0.0700  0.2025
  169MOL0     C22699   3.271  10.624   0.502  0.4890  0.6974 -0.4677
  169MOL0     C22700   3.194  10.750   0.478 -0.0167 -0.7036 -0.0048
  169MOL0     C22701   3.040  10.742   0.508 -0.2347 -0.1966 -0.0891
  169MOL0     C22702   3.017  10.695   0.647  0.2862  0.3450 -0.0057
  169MOL0     C22703   2.864  10.671   0.689 -0.5154 -0.4231  0.2131
  169MOL0     O22704   2.849  10.667   0.829  0.1222 -0.7105  0.7294
  169MOL0     C22705   2.723  10.660   0.876  0.3474  0.5496 -0.6031
  169MOL0     C22706   2.705  10.703   1.006  0.3038  0.6990 -0.5378
  169MOL0     C22707   2.582  10.695   1.064  1.2983  0.0876  0.1072
  169MOL0     C22708   2.571  10.744   1.201 -0.1525 -0.5531 -0.7356
  169MOL0     C22709   2.477  10.634   1.005  1.3280 -0.4209  0.0210
  169MOL0     C22710   2.335  10.612   1.069 -0.7371  0.2819  0.2983
  169MOL0     O22711   2.243  10.579   0.978 -0.1798  0.4232  0.6692
  169MOL0     C22712   2.116  10.555   1.007  1.1862  1.0934  0.6492
  169MOL0     C22713   2.060  10.485   1.112  0.2390  0.1854  0.1336
  169MOL0     C22714   1.918  10.470   1.141  0.3683  0.8196  0.4745
  169MOL0     C22715   1.825  10.528   1.048 -0.4612  0.0925 -0.0645
  169MOL0     O22716   1.690  10.500   1.054 -0.8033  0.0186 -0.7059
  169MOL0     C22717   1.632  10.483   1.183 -0.0551 -0.2740 -0.1975
  169MOL0     C22718   1.485  10.454   1.161  0.0134 -0.9884  0.5171
  169MOL0     C22719   1.404  10.571   1.096 -0.4107  0.1116  0.2610
  169MOL0     C22720   1.273  10.515   1.031  0.2801  0.8374  0.5142
  169MOL0     C22721   1.215  10.624   0.929 -1.1464  0.3629 -0.4763
  169MOL0     C22722   1.106  10.566   0.827  1.1462 -0.2670  0.4525
  169MOL0     C22723   1.017  10.471   0.900 -0.0188 -0.3471 -0.1936
  169MOL0     C22724   0.945  10.537   1.019  0.2132 -1.2533  0.6585
  169MOL0    Cl22725   0.856  10.697   0.984 -0.2185  0.0153  0.1041
  169MOL0     C22726   1.875  10.610   0.943  0.7382  0.3826  0.4522
  169MOL0     C22727   2.017  10.613   0.925  0.3771  0.1576 -0.0426
  169MOL0     O22728   2.318  10.644   1.180  0.2340  0.7165 -0.7986
  169MOL0     C22729   2.497  10.573   0.879 -0.1143 -0.9148 -0.2476
  169MOL0     C22730   2.620  10.588   0.812  0.1730  0.0432 -1.2292
  169MOL0     N22731   3.236  10.492   0.469  0.4286  0.0680 -0.2563
  169MOL0     N22732   3.339  10.417   0.489 -0.1346  0.0125  0.0656
  169MOL0     C22733   4.110   9.738   1.076 -1.3106  0.0859  0.3621
  169MOL0     C22734   4.156   9.705   1.204 -1.2035 -0.0910 -0.6894
  169MOL0     C22735   4.419   9.735   1.597 -0.6263  0.1926 -0.7071
  169MOL0     C22736   4.535   9.668   1.634 -0.5201 -0.1722 -1.1953
  169MOL0     C22737   4.541   9.621   1.767  0.1691  1.4174  0.1801
  169MOL0     C22738   4.433   9.627   1.855 -0.5896  0.2367  0.1219
  169MOL0     O22739   4.433   9.548   1.964  0.4056  0.0965  0.2775
  169MOL0     C22740   4.300   9.494   1.994  0.0887 -0.9276 -0.0259
  169MOL0     C22741   4.313   9.361   2.070  0.1583 -0.7989  0.1745
  169MOL0     C22742   4.452   9.281   2.068 -0.6669 -0.5286 -0.3836
  169MOL0     C22743   4.496   9.225   1.928 -0.8539 -0.2900 -0.5829
  169MOL0     C22744   4.614   9.130   1.948  0.6622 -0.3984  0.3114
  169MOL0     C22745   4.701   9.047   1.963  0.5248  0.5828  1.2084
  169MOL0     C22746   4.325   9.707   1.816  0.2374 -0.2322  0.6119
  169MOL0     C22747   4.318   9.754   1.690 -0.4547 -0.0599  0.7296
  169MOL0     H22748   4.339   9.976   1.280  0.6279 -0.0104  1.4750
  169MOL0     H22749   4.296  10.024   1.040  0.1947 -0.6164 -1.7816
  169MOL0     H22750   3.991  10.033   0.908  0.7955  2.2199  0.0770
  169MOL0     H22751   4.153  10.079   0.848 -0.1489  0.5617  2.9573
  169MOL0     H22752   4.079   9.974   0.626  1.3629 -1.3761  2.3580
  169MOL0     H22753   3.931   9.919   0.710 -0.7752 -0.1296  1.5137
  169MOL0     H22754   3.884  10.115   0.573  1.5155  1.7867 -0.7940
  169MOL0     H22755   3.844  10.108   0.747  0.1419  1.4282  1.1845
  169MOL0     H22756   4.001  10.286   0.806  0.0890 -1.6928 -0.1242
  169MOL0     H22757   4.065  10.279   0.647  1.9232 -0.2673  3.1298
  169MOL0     H22758   3.890  10.454   0.681  0.4391 -0.5582  1.3563
  169MOL0     H22759   3.846  10.345   0.543 -2.0488 -1.5802 -0.2825
  169MOL0     H22760   3.682  10.225   0.675 -0.4888  0.1948 -2.6229
  169MOL0     H22761   3.734  10.310   0.822 -2.0280 -0.9636 -0.6540
  169MOL0     H22762   3.531  10.392   0.769 -0.3002 -3.2175 -1.1028
  169MOL0     H22763   3.650  10.520   0.739 -2.6025  1.9179 -2.8872
  169MOL0     H22764   3.575  10.358   0.497  2.3130  1.1312 -0.3326
  169MOL0     H22765   3.649  10.519   0.516 -0.0534  1.3370  2.4185
  169MOL0     H22766   3.463  10.701   0.582  1.4133  0.0341 -0.8339
  169MOL0     H22767   3.235  10.845   0.512 -0.8892 -0.4765  0.4358
  169MOL0     H22768   3.188  10.757   0.369  1.0129 -0.7713 -0.0786
  169MOL0     H22769   2.988  10.677   0.437 -1.4933 -2.8675  3.0091
  169MOL0     H22770   2.998  10.842   0.506  0.1331 -0.0032  0.8670
  169MOL0     H22771   3.072  10.763   0.713  2.1305 -3.0561  2.2848
  169MOL0     H22772   3.075  10.604   0.667 -1.2094 -0.0401  3.2938
  169MOL0     H22773   2.836  10.579   0.637 -0.2424 -0.0897 -0.5290
  169MOL0     H22774   2.802  10.750   0.647 -2.3124 -1.6885  0.3712
  169MOL0     H22775   2.794  10.726   1.065  0.4085 -2.9190  0.9698
  169MOL0     H22776   2.502  10.828   1.211  0.8441  0.1287  0.8740
  169MOL0     H22777   2.531  10.661   1.261  0.0920 -1.0718 -1.2848
  169MOL0     H22778   2.672  10.764   1.236 -0.1075 -0.8504 -0.6968
  169MOL0     H22779   2.135  10.445   1.179  2.6255  1.5300 -1.5740
  169MOL0     H22780   1.875  10.406   1.217 -2.9133  0.8518 -1.1583
  169MOL0     H22781   1.668  10.391   1.231  1.0157  1.2359  2.0879
  169MOL0     H22782   1.658  10.554   1.262  2.1577 -2.4982  1.2488
  169MOL0     H22783   1.476  10.364   1.099 -2.0990 -0.7632  0.4136
  169MOL0     H22784   1.430  10.446   1.255  0.5919  1.3067  1.1203
  169MOL0     H22785   1.474  10.621   1.028 -0.1401  1.0311  1.1839
  169MOL0     H22786   1.374  10.642   1.174 -1.7449  0.8841 -0.9042
  169MOL0     H22787   1.309  10.439   0.960 -0.4404  1.6118 -0.7005
  169MOL0     H22788   1.200  10.478   1.104  0.0306 -0.3435 -0.2965
  169MOL0     H22789   1.290  10.674   0.867 -0.7994  0.6305  0.1571
  169MOL0     H22790   1.163  10.700   0.989 -1.8507 -2.0127  2.1051
  169MOL0     H22791   1.036  10.642   0.790 -1.0611  0.4397  5.2504
  169MOL0     H22792   1.157  10.518   0.743  2.3445 -0.7659  1.4335
  169MOL0     H22793   1.073  10.380   0.924 -0.5663 -0.5513  0.3307
  169MOL0     H22794   0.935  10.447   0.833 -1.6636  4.3319 -0.2374
  169MOL0     H22795   1.010  10.565   1.102  0.9530 -1.1541  0.0543
  169MOL0     H22796   0.871  10.470   1.064 -0.0091 -1.5981 -0.1980
  169MOL0     H22797   1.804  10.651   0.872 -1.6614 -1.7407  1.4710
  169MOL0     H22798   2.035  10.673   0.836 -3.5181  0.6654 -0.6722
  169MOL0     H22799   2.420  10.505   0.844 -0.9345  0.4854 -1.2248
  169MOL0     H22800   2.628  10.541   0.714 -0.5900 -2.6161 -0.0970
  169MOL0     H22801   4.046   9.675   1.015 -0.7479  1.0559 -1.3123
  169MOL0     H22802   4.123   9.607   1.238  1.2053 -1.7575 -2.7322
  169MOL0     H22803   4.625   9.660   1.573  0.0072  0.3998 -0.5133
  169MOL0     H22804   4.618   9.550   1.797 -0.3154  0.4368 -0.8132
  169MOL0     H22805   4.239   9.559   2.058  2.4657  0.7994  0.6074
  169MOL0     H22806   4.239   9.482   1.904 -0.9196  1.0702  0.3285
  169MOL0     H22807   4.241   9.290   2.029 -0.7562  0.7749 -1.0345
  169MOL0     H22808   4.289   9.388   2.173 -1.1128  1.2092 -0.5895
  169MOL0     H22809   4.441   9.198   2.138  2.5289 -0.9413 -0.2008
  169MOL0     H22810   4.527   9.345   2.115 -0.4413 -1.2775  0.3015
  169MOL0     H22811   4.510   9.311   1.862 -3.6499  2.0225  1.5875
  169MOL0     H22812   4.417   9.167   1.881 -1.1336  0.6699 -1.3167
  169MOL0     H22813   4.780   8.976   1.976  1.8358  1.7535 -0.1041
  169MOL0     H22814   4.237   9.727   1.877  0.4980  2.7726  0.1582
  169MOL0     H22815   4.229   9.807   1.656 -0.0775  2.2732  3.0859
  170MOL0     O22816   2.907   1.636   6.753 -0.1637  0.2212 -0.4434
  170MOL0     C22817   2.982   1.730   6.733 -0.1267 -0.1537  0.0072
  170MOL0     O22818   2.967   1.849   6.781  0.7321  0.2988  0.0183
  170MOL0     C22819   2.857   1.866   6.870 -1.0865  1.1660  0.5689
  170MOL0     C22820   2.882   1.881   7.003  0.1366 -0.5171 -0.7559
  170MOL0     C22821   2.773   1.915   7.087  0.4171  0.5096  0.7279
  170MOL0     C22822   2.641   1.927   7.049  0.0469  0.4622 -0.1855
  170MOL0     O22823   2.548   1.979   7.141 -0.5901  0.4736  0.0136
  170MOL0     C22824   2.408   1.981   7.118 -0.6690  0.2289  0.0834
  170MOL0     C22825   2.330   2.004   7.243  1.4475  0.2816  0.2766
  170MOL0     C22826   2.175   2.003   7.209  0.0205  0.2455  0.4917
  170MOL0     C22827   2.079   2.047   7.323 -0.4473 -0.8433 -0.3355
  170MOL0     C22828   1.941   2.080   7.284  0.4043  0.2129 -0.5654
  170MOL0     C22829   1.855   2.103   7.418 -0.0265  0.2398  0.6241
  170MOL0     C22830   1.717   2.137   7.372  0.0525  0.5104  0.2141
  170MOL0     C22831   1.707   2.287   7.365 -0.3078  0.5981  0.3703
  170MOL0     N22832   1.578   2.326   7.317 -0.1841 -0.3142  0.2217
  170MOL0     C22833   1.542   2.320   7.179 -0.0441  0.2391 -0.0225
  170MOL0     C22834   1.426   2.384   7.172  0.5733 -0.5800  0.2844
  170MOL0     C22835   1.346   2.414   7.044  0.0669 -0.0493  0.4350
  170MOL0     C22836   1.397   2.545   6.972 -0.0468  1.3135  0.0510
  170MOL0     C22837   1.358   2.677   7.045  0.0690 -0.1757 -0.7641
  170MOL0     C22838   1.210   2.718   7.005  0.2376 -0.4193 -0.6481
  170MOL0     O22839   1.235   2.796   6.885  0.1000 -0.3893  0.2306
  170MOL0     C22840   1.134   2.831   6.799  0.1853  0.4036 -0.2306
  170MOL0     C22841   1.007   2.856   6.844  0.1781 -0.0927  0.1154
  170MOL0     C22842   0.898   2.875   6.758  0.4798 -0.3098  0.0842
  170MOL0     C22843   0.765   2.904   6.823  0.3314  0.1157 -0.8087
  170MOL0     C22844   0.921   2.882   6.621  0.1380 -0.0925 -0.1950
  170MOL0     C22845   0.816   2.911   6.512  0.6780  0.5975  0.1141
  170MOL0     O22846   0.854   2.956   6.392  0.4136  0.3144  0.1141
  170MOL0     C22847   0.751   2.959   6.301 -0.4085 -0.4619 -0.8394
  170MOL0     C22848   0.667   3.070   6.289  1.1058  0.4094 -0.2334
  170MOL0     C22849   0.566   3.081   6.191  0.0879  0.2238 -0.7551
  170MOL0     C22850   0.549   2.972   6.101 -0.1434  0.7817  0.8211
  170MOL0     O22851   0.457   2.991   6.004 -0.4537 -0.0492  0.1475
  170MOL0     C22852   0.422   2.879   5.918  0.5838 -0.4404 -0.2838
  170MOL0     C22853   0.318   2.924   5.820 -0.6014 -0.3761 -0.5913
  170MOL0     C22854   0.279   2.801   5.734 -0.5479  0.4764 -0.2544
  170MOL0     C22855   0.159   2.812   5.645  0.2137 -0.1610  0.0030
  170MOL0     C22856   0.146   2.682   5.566  0.2889  0.3334 -0.3666
  170MOL0     C22857   0.117   2.701   5.410 -0.8831 -0.2352  0.2020
  170MOL0     C22858   0.114   2.570   5.330 -0.2345 -0.7860  1.5411
  170MOL0     C22859   0.069   2.581   5.178 -0.5533 -0.7357 -0.0610
  170MOL0    Cl22860   0.100   2.413   5.124  0.0479  0.0064 -0.2424
  170MOL0     C22861   0.640   2.858   6.107  0.6051  0.0145  0.3471
  170MOL0     C22862   0.735   2.857   6.210 -1.0170 -1.4868 -0.2325
  170MOL0     O22863   0.695   2.885   6.543 -0.6624 -0.3048 -0.6677
  170MOL0     C22864   1.058   2.858   6.573 -0.2403  0.8127 -0.0177
  170MOL0     C22865   1.167   2.834   6.664 -0.7478 -0.8765 -0.0958
  170MOL0     N22866   1.395   2.432   7.303  0.0532  0.1319  1.1012
  170MOL0     N22867   1.474   2.380   7.388 -0.9033  0.3487  0.4005
  170MOL0     C22868   2.612   1.908   6.911 -0.4440  0.3784  0.4187
  170MOL0     C22869   2.725   1.871   6.820 -0.4031  0.8131 -0.1743
  170MOL0     C22870   3.094   1.714   6.646  0.9979 -0.0551 -0.9521
  170MOL0     C22871   3.155   1.584   6.642  0.8862 -0.0960 -0.3866
  170MOL0     C22872   3.257   1.566   6.554 -0.3878  0.0825 -0.6809
  170MOL0     C22873   3.304   1.667   6.466  0.5063  0.2824  0.0240
  170MOL0     O22874   3.408   1.659   6.378  1.0521 -0.0112  0.0727
  170MOL0     C22875   3.471   1.533   6.350  0.9947  0.6512  0.1481
  170MOL0     C22876   3.596   1.513   6.426  0.7826 -0.3114  0.6294
  170MOL0     C22877   3.590   1.447   6.557  0.3753  0.8056  0.1662
  170MOL0     C22878   3.587   1.570   6.656  0.0746 -0.9365  1.3345
  170MOL0     C22879   3.709   1.569   6.734  0.2422 -0.6454 -0.3543
  170MOL0     C22880   3.819   1.573   6.788 -0.3480  0.2443  0.1993
  170MOL0     C22881   3.256   1.798   6.473 -0.4582 -0.0196 -0.7437
  170MOL0     C22882   3.149   1.823   6.569 -0.2556 -0.3110 -0.0521
  170MOL0     H22883   2.985   1.872   7.035  0.3070 -2.9194 -1.7624
  170MOL0     H22884   2.786   1.924   7.195 -1.3798 -3.2275  1.4033
  170MOL0     H22885   2.383   2.057   7.043  0.6676  1.6430  1.0148
  170MOL0     H22886   2.388   1.880   7.082 -0.4004 -0.2322  1.1876
  170MOL0     H22887   2.351   1.927   7.318 -0.5169 -0.7984 -0.1845
  170MOL0     H22888   2.355   2.105   7.277  0.1355  1.5155 -2.1571
  170MOL0     H22889   2.153   2.061   7.119  1.0210  0.1237  0.1597
  170MOL0     H22890   2.146   1.901   7.182  2.2548  0.3931 -3.1582
  170MOL0     H22891   2.077   1.969   7.399  0.5523 -0.7647 -0.2131
  170MOL0     H22892   2.126   2.136   7.366  0.4341 -0.7434 -1.4527
  170MOL0     H22893   1.954   2.177   7.233  0.4730  0.7566  0.4611
  170MOL0     H22894   1.879   2.010   7.227 -1.8755  0.7979  1.0566
  170MOL0     H22895   1.850   2.009   7.474 -0.8390 -2.0215 -2.8861
  170MOL0     H22896   1.901   2.185   7.474  0.2315  2.5368 -2.6764
  170MOL0     H22897   1.697   2.101   7.271  0.9113  0.8329 -0.0854
  170MOL0     H22898   1.641   2.095   7.438 -0.7426  0.0482 -0.9791
  170MOL0     H22899   1.778   2.323   7.290  1.5780  4.5835  3.6943
  170MOL0     H22900   1.728   2.343   7.457 -3.3965  0.9628  0.9719
  170MOL0     H22901   1.614   2.284   7.106  1.7324 -2.4054  2.7913
  170MOL0     H22902   1.361   2.332   6.973  1.0535 -1.5037  2.2214
  170MOL0     H22903   1.242   2.424   7.077  0.5107 -1.4845  2.4696
  170MOL0     H22904   1.355   2.537   6.872 -1.7899 -1.5623  0.9240
  170MOL0     H22905   1.507   2.548   6.970  0.0067  1.9009  1.8109
  170MOL0     H22906   1.427   2.753   7.007  2.0306 -1.5471 -0.0600
  170MOL0     H22907   1.374   2.657   7.151  0.4257 -1.8843 -1.1024
  170MOL0     H22908   1.158   2.778   7.081  0.4599  0.2482 -1.0113
  170MOL0     H22909   1.146   2.631   6.994 -2.3917  1.5134 -1.7269
  170MOL0     H22910   0.989   2.863   6.950  2.0828 -2.0228  0.6476
  170MOL0     H22911   0.699   2.817   6.821  1.6885 -1.3942  4.4506
  170MOL0     H22912   0.790   2.936   6.924  0.1312  2.2119 -1.3717
  170MOL0     H22913   0.715   2.993   6.782 -2.8111 -1.1852 -0.1039
  170MOL0     H22914   0.673   3.142   6.371 -0.3900 -1.5680  1.7254
  170MOL0     H22915   0.492   3.160   6.195 -0.2407 -0.1311  1.9895
  170MOL0     H22916   0.505   2.836   5.861  0.8470  0.9047 -0.9411
  170MOL0     H22917   0.387   2.798   5.983  0.5373  0.9594  1.5128
  170MOL0     H22918   0.230   2.963   5.872  0.3405  1.3899 -0.2737
  170MOL0     H22919   0.364   3.007   5.767 -0.0056 -0.3049  0.0162
  170MOL0     H22920   0.276   2.715   5.802 -0.2083 -0.3806 -1.2983
  170MOL0     H22921   0.366   2.786   5.670  0.1821  2.4912  0.1923
  170MOL0     H22922   0.064   2.832   5.696 -0.5387 -0.3122 -1.2888
  170MOL0     H22923   0.166   2.892   5.570 -3.2546 -0.2764 -0.6113
  170MOL0     H22924   0.069   2.615   5.604  3.8236 -4.2650 -0.5102
  170MOL0     H22925   0.241   2.628   5.573 -0.8596 -1.5473  2.0565
  170MOL0     H22926   0.023   2.753   5.385 -0.3077  0.0193 -1.6171
  170MOL0     H22927   0.198   2.766   5.376 -0.2518 -1.2165 -0.2294
  170MOL0     H22928   0.044   2.498   5.374  0.6733 -1.8430  1.3008
  170MOL0     H22929   0.218   2.536   5.329  0.2791  0.7135  0.4700
  170MOL0     H22930   0.124   2.652   5.115  0.9487  0.2167  2.1926
  170MOL0     H22931  -0.038   2.601   5.169 -0.3931 -0.4829 -1.5852
  170MOL0     H22932   0.645   2.776   6.036 -1.8251 -0.4385  0.6231
  170MOL0     H22933   0.802   2.772   6.208  0.6702 -0.2090 -0.8590
  170MOL0     H22934   1.079   2.849   6.467 -1.7037 -1.5320 -0.1734
  170MOL0     H22935   1.272   2.819   6.644  0.1933  2.0973  1.9566
  170MOL0     H22936   2.518   1.932   6.862 -0.0735  0.3937 -0.2983
  170MOL0     H22937   2.705   1.876   6.713 -1.6705  0.8077  0.0502
  170MOL0     H22938   3.127   1.503   6.708 -0.2368  1.2517  0.8474
  170MOL0     H22939   3.307   1.471   6.573  4.9027  2.7195  0.5570
  170MOL0     H22940   3.406   1.446   6.367 -0.1788  1.6258  0.8164
  170MOL0     H22941   3.495   1.542   6.244  1.2763 -0.4810  0.1032
  170MOL0     H22942   3.660   1.602   6.428  1.1963 -0.6053  0.7761
  170MOL0     H22943   3.662   1.457   6.358 -1.8144  0.1594 -2.5231
  170MOL0     H22944   3.684   1.393   6.571  1.1998  1.9703 -0.6062
  170MOL0     H22945   3.509   1.379   6.585 -2.1512  2.5939 -2.2380
  170MOL0     H22946   3.495   1.570   6.715  0.4612 -1.1766  1.9495
  170MOL0     H22947   3.594   1.671   6.613  1.6566 -1.3057  0.6600
  170MOL0     H22948   3.915   1.577   6.836 -1.1592 -0.0041  1.9470
  170MOL0     H22949   3.270   1.875   6.398  1.7494  0.3784  0.0182
  170MOL0     H22950   3.104   1.922   6.566 -0.1772 -0.2638 -2.6074
  171MOL0     O22951   2.611   8.148   8.154 -0.1851 -0.2710 -0.2693
  171MOL0     C22952   2.653   8.260   8.181 -0.0473  0.6520 -0.0288
  171MOL0     O22953   2.588   8.368   8.241 -0.0218 -0.8435  0.5661
  171MOL0     C22954   2.459   8.353   8.288 -0.5905  0.4475  0.2896
  171MOL0     C22955   2.442   8.322   8.420  0.5808 -0.1044 -1.0546
  171MOL0     C22956   2.311   8.288   8.461 -0.0820  0.0102  0.1949
  171MOL0     C22957   2.202   8.273   8.368 -0.2230  0.2435 -0.2837
  171MOL0     O22958   2.082   8.262   8.419  0.4384 -0.9054  0.1733
  171MOL0     C22959   1.998   8.160   8.361  0.1553  0.0980  0.2905
  171MOL0     C22960   1.887   8.150   8.467 -0.5866 -0.2174  0.2500
  171MOL0     C22961   1.772   8.048   8.439 -0.7914 -0.5342 -0.4248
  171MOL0     C22962   1.654   8.066   8.533  0.7416  0.0912  0.7404
  171MOL0     C22963   1.559   7.942   8.533 -0.6124  0.6921 -0.1796
  171MOL0     C22964   1.440   7.965   8.618  0.5213  0.3870 -0.8314
  171MOL0     C22965   1.348   7.834   8.617 -1.3449 -0.3030 -0.6259
  171MOL0     C22966   1.267   7.841   8.753  0.5645  1.1811  1.0218
  171MOL0     N22967   1.155   7.936   8.757  1.2655 -0.5098  0.4864
  171MOL0     C22968   1.014   7.914   8.722  0.2724 -0.5594  0.2208
  171MOL0     C22969   0.946   8.024   8.775  0.6825 -0.8105 -0.8699
  171MOL0     C22970   0.796   8.050   8.777 -0.7007  0.2385 -0.7369
  171MOL0     C22971   0.745   8.015   8.919  0.5763 -0.3436 -0.1986
  171MOL0     C22972   0.603   7.948   8.901  1.3080 -0.7864  0.1915
  171MOL0     C22973   0.493   7.950   9.010  0.7503 -0.3768  0.3458
  171MOL0     O22974   0.469   8.074   9.077 -0.0114  0.0766 -0.0258
  171MOL0     C22975   0.356   8.092   9.150 -0.5022 -0.0304 -0.3525
  171MOL0     C22976   0.269   7.986   9.181 -0.0268  0.4592  0.2986
  171MOL0     C22977   0.152   8.010   9.262  0.1147 -0.5295  1.1332
  171MOL0     C22978   0.052   7.908   9.296 -0.2810 -0.5157 -0.6432
  171MOL0     C22979   0.128   8.135   9.316  0.1449 -1.0873 -0.3227
  171MOL0     C22980   0.014   8.170   9.403  0.7037  0.0281  0.7474
  171MOL0     O22981  -0.075   8.262   9.357  0.2557 -0.1890 -0.0315
  171MOL0     C22982  -0.177   8.298   9.439 -0.5272  0.2448  0.1968
  171MOL0     C22983  -0.309   8.296   9.383 -0.3226  0.0446 -0.1190
  171MOL0     C22984  -0.426   8.323   9.464  0.2562  0.1615  1.3800
  171MOL0     C22985  -0.417   8.318   9.604  1.1903 -0.2762 -0.0035
  171MOL0     O22986  -0.535   8.310   9.685  0.0636  0.9457 -0.5705
  171MOL0     C22987  -0.646   8.401   9.661 -0.4603  0.4405  0.1536
  171MOL0     C22988  -0.784   8.327   9.634  0.1585 -0.3371  0.2266
  171MOL0     C22989  -0.794   8.209   9.728 -1.1815 -0.0638 -0.2688
  171MOL0     C22990  -0.802   8.255   9.875  0.0855  0.1434 -0.6176
  171MOL0     C22991  -0.839   8.139   9.966  0.2439  0.6857  0.5533
  171MOL0     C22992  -0.777   8.000   9.948  0.3282 -0.0442  0.4745
  171MOL0     C22993  -0.641   7.988  10.017  1.1183 -0.5669 -0.6689
  171MOL0     C22994  -0.559   7.871   9.951 -0.6227  0.8183  0.1016
  171MOL0    Cl22995  -0.465   7.812  10.089 -0.0387  0.4511  0.6214
  171MOL0     C22996  -0.293   8.317   9.662  0.0132 -0.2091 -0.3832
  171MOL0     C22997  -0.179   8.310   9.577  0.3759  0.6428  0.9334
  171MOL0     O22998   0.008   8.125   9.515 -0.6680  0.3398 -0.8717
  171MOL0     C22999   0.225   8.243   9.295 -0.3996 -0.1633  0.0894
  171MOL0     C23000   0.341   8.214   9.210  0.4196  0.7133  0.5704
  171MOL0     N23001   1.044   8.097   8.843  0.3240 -0.0787 -0.3105
  171MOL0     N23002   1.164   8.049   8.830  0.2947  0.3002 -0.7237
  171MOL0     C23003   2.225   8.297   8.234 -0.3003 -0.1067 -0.3519
  171MOL0     C23004   2.355   8.337   8.195  0.8803  0.8185  0.5414
  171MOL0     C23005   2.783   8.300   8.129  0.3572  0.1876 -0.6728
  171MOL0     C23006   2.847   8.230   8.023  0.3352 -0.0233  0.3589
  171MOL0     C23007   2.970   8.268   7.976 -0.7672 -0.6572 -1.0067
  171MOL0     C23008   3.044   8.379   8.040  0.6160  1.2939  0.3054
  171MOL0     O23009   3.171   8.414   7.999  0.5115  0.6668 -0.9911
  171MOL0     C23010   3.249   8.519   8.068 -0.0845  0.1136 -0.2060
  171MOL0     C23011   3.307   8.473   8.209 -0.8596 -0.5113 -1.8102
  171MOL0     C23012   3.367   8.335   8.209  0.2967 -0.1639 -0.3809
  171MOL0     C23013   3.487   8.315   8.118 -0.1372 -0.8762  0.7151
  171MOL0     C23014   3.520   8.169   8.110  0.0086  0.2271 -0.4221
  171MOL0     C23015   3.569   8.061   8.124 -0.6828  0.4520  0.8531
  171MOL0     C23016   2.975   8.442   8.152  0.4234  0.4764 -0.2634
  171MOL0     C23017   2.849   8.401   8.193  0.1885 -0.4706 -0.7069
  171MOL0     H23018   2.528   8.325   8.485  2.7986 -3.1501 -3.4926
  171MOL0     H23019   2.282   8.265   8.563  0.5553  0.9981  0.6139
  171MOL0     H23020   1.973   8.194   8.260  0.9546  1.2237  0.4523
  171MOL0     H23021   2.051   8.064   8.351  0.1014  0.2579 -2.6977
  171MOL0     H23022   1.939   8.115   8.556  1.9083 -1.1390 -1.4421
  171MOL0     H23023   1.843   8.248   8.487  2.0928  1.6140 -1.9525
  171MOL0     H23024   1.740   8.066   8.336 -0.9193  0.2517 -0.2557
  171MOL0     H23025   1.794   7.942   8.424 -2.9180 -0.7915 -2.1752
  171MOL0     H23026   1.681   8.071   8.638  0.1495 -1.3286  0.9755
  171MOL0     H23027   1.600   8.150   8.488 -1.4341 -2.5284 -1.9420
  171MOL0     H23028   1.534   7.915   8.430  0.3804 -1.3804  0.0671
  171MOL0     H23029   1.614   7.855   8.569  1.0184  1.9798  0.5891
  171MOL0     H23030   1.486   7.991   8.714  3.2456  1.5578 -2.3347
  171MOL0     H23031   1.385   8.056   8.595 -1.8578 -1.0217 -1.0411
  171MOL0     H23032   1.290   7.831   8.524  2.0601 -0.2072 -2.9496
  171MOL0     H23033   1.413   7.747   8.602  0.5439  1.2391 -1.9884
  171MOL0     H23034   1.334   7.870   8.835 -2.5677 -0.4923  4.5056
  171MOL0     H23035   1.230   7.743   8.785  3.6724 -0.3660  0.2474
  171MOL0     H23036   0.971   7.836   8.661 -0.2090 -1.6594  1.8765
  171MOL0     H23037   0.787   8.157   8.755  1.0110  0.7805  0.9469
  171MOL0     H23038   0.746   7.982   8.708 -1.0278 -0.6933  0.3837
  171MOL0     H23039   0.728   8.112   8.965  4.3959 -0.9214  2.8930
  171MOL0     H23040   0.802   7.940   8.975  0.9848  0.2968  0.2470
  171MOL0     H23041   0.630   7.845   8.872  1.7952  0.0118 -2.4712
  171MOL0     H23042   0.561   8.000   8.815  0.9671 -2.3422 -0.6245
  171MOL0     H23043   0.511   7.878   9.090 -0.9517 -2.1646 -0.7897
  171MOL0     H23044   0.404   7.917   8.955  0.5465  1.8842 -0.8102
  171MOL0     H23045   0.270   7.897   9.120 -2.1468  0.7515 -0.2293
  171MOL0     H23046   0.028   7.903   9.402  2.1984  3.8292  0.3815
  171MOL0     H23047  -0.035   7.929   9.233 -0.0682  0.1530 -0.7211
  171MOL0     H23048   0.083   7.807   9.269  1.3271 -0.8000  1.9718
  171MOL0     H23049  -0.320   8.289   9.275 -1.2993 -0.1160 -0.0172
  171MOL0     H23050  -0.514   8.331   9.401  0.2512 -0.1535  1.3436
  171MOL0     H23051  -0.658   8.445   9.760 -0.5178 -1.1182  0.8675
  171MOL0     H23052  -0.626   8.475   9.583  1.3493  0.0728  0.2170
  171MOL0     H23053  -0.871   8.394   9.633  1.3819  1.3499 -1.2990
  171MOL0     H23054  -0.786   8.293   9.530  1.0144  0.1511  0.0381
  171MOL0     H23055  -0.719   8.133   9.703  0.5769  2.5489 -4.0640
  171MOL0     H23056  -0.893   8.169   9.705 -1.3117  0.3781 -0.4994
  171MOL0     H23057  -0.710   8.306   9.905 -0.3814  1.5725 -1.5180
  171MOL0     H23058  -0.876   8.335   9.885 -0.0303 -0.1410  1.2733
  171MOL0     H23059  -0.945   8.118   9.949  0.5313  1.2250 -2.4444
  171MOL0     H23060  -0.835   8.167  10.072 -1.4757 -3.4670  1.9363
  171MOL0     H23061  -0.827   7.919  10.001  1.4076 -2.7333 -2.3350
  171MOL0     H23062  -0.779   7.969   9.843 -0.6049 -0.6133  0.6532
  171MOL0     H23063  -0.664   7.958  10.120  1.9259 -2.9714 -1.1286
  171MOL0     H23064  -0.580   8.079  10.018  2.5630 -1.4776  1.3292
  171MOL0     H23065  -0.497   7.920   9.875 -0.6643 -0.4612 -0.7831
  171MOL0     H23066  -0.621   7.789   9.914  0.1563 -0.3228  1.2185
  171MOL0     H23067  -0.280   8.309   9.769  0.5582 -0.6800 -0.4796
  171MOL0     H23068  -0.087   8.298   9.633  1.9331 -0.1892 -1.6052
  171MOL0     H23069   0.213   8.339   9.344 -2.9426 -0.8372  0.8938
  171MOL0     H23070   0.415   8.289   9.182 -0.2393  0.7601 -1.1721
  171MOL0     H23071   2.145   8.299   8.160  1.9167  0.9319 -2.9027
  171MOL0     H23072   2.386   8.351   8.093  2.1703 -3.7753  0.0968
  171MOL0     H23073   2.794   8.151   7.971 -0.7082 -0.0142  1.3663
  171MOL0     H23074   3.010   8.215   7.891  1.2311  2.1730 -1.9903
  171MOL0     H23075   3.326   8.546   7.995  0.3025  1.5354  0.6845
  171MOL0     H23076   3.197   8.613   8.086  0.7074  0.5854 -0.3359
  171MOL0     H23077   3.222   8.492   8.275 -0.6905  2.2144 -2.2666
  171MOL0     H23078   3.379   8.546   8.247 -2.5866 -0.4633  1.8084
  171MOL0     H23079   3.287   8.271   8.171 -0.2401  1.4752 -2.1438
  171MOL0     H23080   3.396   8.293   8.306  1.3359  0.9925 -0.1648
  171MOL0     H23081   3.570   8.380   8.146  0.9239 -0.1069 -3.5525
  171MOL0     H23082   3.456   8.365   8.026 -0.2978  2.2155  2.3176
  171MOL0     H23083   3.625   7.970   8.129  1.1214  1.4785  0.0713
  171MOL0     H23084   3.033   8.519   8.202 -0.5175  2.2073 -1.7561
  171MOL0     H23085   2.811   8.444   8.286 -1.4219  1.4888 -2.1657
  172MOL0     O23086   2.561   4.941   8.431  0.5401  0.5329  0.1565
  172MOL0     C23087   2.472   4.975   8.355 -0.5824  0.6561 -0.9776
  172MOL0     O23088   2.386   4.892   8.291  0.2581  0.3856 -0.3690
  172MOL0     C23089   2.420   4.764   8.273 -0.1333 -0.2691  0.0587
  172MOL0     C23090   2.350   4.666   8.347 -0.8189 -0.1854  0.0914
  172MOL0     C23091   2.383   4.525   8.332  1.0928  0.4742 -0.0230
  172MOL0     C23092   2.480   4.484   8.238 -0.0892 -0.4172  0.8225
  172MOL0     O23093   2.522   4.358   8.201  0.1163  0.3744  0.7309
  172MOL0     C23094   2.433   4.245   8.230  0.2790 -0.3614  0.2070
  172MOL0     C23095   2.320   4.237   8.119 -0.2440  1.0017 -0.1157
  172MOL0     C23096   2.233   4.114   8.157 -0.4819 -0.0092 -0.1479
  172MOL0     C23097   2.219   4.018   8.050 -0.5926 -1.0798  0.5290
  172MOL0     C23098   2.343   3.937   8.000  0.3977 -0.4166  0.1772
  172MOL0     C23099   2.300   3.845   7.891  1.2547  0.1571  0.5865
  172MOL0     C23100   2.411   3.750   7.832  0.2834  0.3609 -0.4377
  172MOL0     C23101   2.548   3.826   7.791 -0.3563  0.4748 -0.4770
  172MOL0     N23102   2.621   3.755   7.689 -1.1620  0.8688 -0.1711
  172MOL0     C23103   2.752   3.717   7.704 -0.2392  0.1007 -0.4483
  172MOL0     C23104   2.792   3.672   7.579  1.1478  0.0300 -0.8730
  172MOL0     C23105   2.928   3.639   7.520 -0.1469 -0.0764 -0.2703
  172MOL0     C23106   3.042   3.683   7.616 -0.1205 -0.2694  0.0183
  172MOL0     C23107   3.170   3.664   7.541 -1.0359  0.3011 -0.4600
  172MOL0     C23108   3.212   3.766   7.433 -0.3418 -0.7329  0.3520
  172MOL0     O23109   3.227   3.903   7.474  0.1070  0.3425  0.1003
  172MOL0     C23110   3.331   3.944   7.553  0.5696 -0.0676  0.2817
  172MOL0     C23111   3.310   4.038   7.652 -1.1275  0.0334 -0.4918
  172MOL0     C23112   3.420   4.073   7.737  0.2261  0.8604 -0.9533
  172MOL0     C23113   3.380   4.160   7.862 -0.2880 -0.2071 -0.6582
  172MOL0     C23114   3.548   4.030   7.707 -0.4158  0.3991  0.7232
  172MOL0     C23115   3.681   4.078   7.773  0.3592  0.6931  0.4787
  172MOL0     O23116   3.794   3.997   7.746  0.8455  0.1546 -0.4157
  172MOL0     C23117   3.918   4.051   7.747 -0.0685 -0.9130  0.2380
  172MOL0     C23118   3.941   4.184   7.692  0.9328 -0.3008  0.4886
  172MOL0     C23119   4.067   4.236   7.688  0.2423  0.4920 -0.1050
  172MOL0     C23120   4.177   4.166   7.741 -0.7550 -0.3273  0.8022
  172MOL0     O23121   4.303   4.199   7.714  0.3257  0.1673 -0.8623
  172MOL0     C23122   4.359   4.128   7.591  0.3292 -0.1208 -0.2172
  172MOL0     C23123   4.483   4.057   7.630 -0.1812  0.3037  0.2204
  172MOL0     C23124   4.580   4.143   7.692 -0.3214  0.4061  0.0663
  172MOL0     C23125   4.715   4.075   7.741 -0.9649  0.0957 -0.4499
  172MOL0     C23126   4.774   4.158   7.851  0.2319 -0.6539  0.2668
  172MOL0     C23127   4.916   4.122   7.878 -0.2509  0.0396  0.7790
  172MOL0     C23128   4.980   4.231   7.968  0.4365  0.3478 -0.0362
  172MOL0     C23129   5.135   4.242   7.985  0.0010 -0.0670 -0.9463
  172MOL0    Cl23130   5.190   4.096   8.062 -0.1253 -0.1606  0.0570
  172MOL0     C23131   4.155   4.039   7.797 -0.2320  0.2671 -0.2665
  172MOL0     C23132   4.026   3.978   7.799 -0.2258 -1.4592 -0.0832
  172MOL0     O23133   3.685   4.187   7.832 -0.2824 -0.8978 -0.4688
  172MOL0     C23134   3.565   3.951   7.598 -0.1279 -0.4178 -0.1738
  172MOL0     C23135   3.455   3.900   7.528 -0.2211  0.2409  0.2811
  172MOL0     N23136   2.675   3.672   7.501  0.3580 -0.1219  0.1000
  172MOL0     N23137   2.578   3.719   7.569 -0.4263 -0.7412 -0.1026
  172MOL0     C23138   2.551   4.585   8.164  0.2880 -0.1140 -0.2832
  172MOL0     C23139   2.519   4.723   8.182 -0.8434  0.1790 -0.1576
  172MOL0     C23140   2.437   5.116   8.349 -0.6288  0.0615 -0.1900
  172MOL0     C23141   2.498   5.214   8.430 -0.2090  0.2018 -0.5530
  172MOL0     C23142   2.456   5.347   8.435 -0.0731 -1.1249  0.1676
  172MOL0     C23143   2.369   5.397   8.328  0.1209  0.0640 -0.6746
  172MOL0     O23144   2.332   5.526   8.309 -0.7594 -0.4134  0.9719
  172MOL0     C23145   2.377   5.618   8.405  0.1869 -0.0745  0.2476
  172MOL0     C23146   2.317   5.759   8.389 -0.0938  0.0655  0.0291
  172MOL0     C23147   2.382   5.841   8.279 -0.5104 -0.1144  0.0280
  172MOL0     C23148   2.509   5.928   8.319 -0.6999 -1.1249 -0.5493
  172MOL0     C23149   2.590   5.979   8.205 -0.3662 -0.0527  0.0433
  172MOL0     C23150   2.660   6.047   8.136  0.3787  0.1749  0.1546
  172MOL0     C23151   2.309   5.292   8.248 -0.0325  0.0172 -0.8837
  172MOL0     C23152   2.333   5.156   8.267  0.0996  0.0332 -0.5281
  172MOL0     H23153   2.269   4.705   8.409  0.4037 -0.1168  1.7237
  172MOL0     H23154   2.324   4.449   8.382  0.4882 -0.9172 -2.6527
  172MOL0     H23155   2.486   4.149   8.234 -1.1180 -1.2944 -1.9613
  172MOL0     H23156   2.393   4.266   8.330  1.8826 -1.7434  1.1810
  172MOL0     H23157   2.252   4.323   8.127 -3.1638 -1.1567 -0.1424
  172MOL0     H23158   2.348   4.216   8.015 -1.8260 -2.2555 -0.0096
  172MOL0     H23159   2.274   4.067   8.247  0.8060 -1.0860 -1.2733
  172MOL0     H23160   2.128   4.136   8.181 -1.0032 -1.4278 -1.0240
  172MOL0     H23161   2.145   3.943   8.077 -1.1607 -1.3052 -1.4968
  172MOL0     H23162   2.171   4.072   7.968 -1.2171 -2.7657 -0.2539
  172MOL0     H23163   2.423   3.998   7.957 -1.2143  0.1632 -2.1615
  172MOL0     H23164   2.373   3.869   8.080  0.4139 -0.9523 -0.2825
  172MOL0     H23165   2.217   3.787   7.932  0.5074  0.7615 -0.0334
  172MOL0     H23166   2.268   3.905   7.805  1.5976 -0.6914 -0.1445
  172MOL0     H23167   2.416   3.659   7.893 -0.4272 -0.6199 -1.7653
  172MOL0     H23168   2.380   3.710   7.735  3.9578 -2.9392 -0.4777
  172MOL0     H23169   2.616   3.842   7.875  2.0328 -2.3438 -1.7053
  172MOL0     H23170   2.531   3.928   7.756  2.2229  1.8676  1.9573
  172MOL0     H23171   2.815   3.738   7.790 -1.2863  0.8370  0.1619
  172MOL0     H23172   2.926   3.532   7.495  0.6476  0.2173 -1.7009
  172MOL0     H23173   2.943   3.697   7.429  1.5106 -1.7306 -1.1197
  172MOL0     H23174   3.055   3.599   7.685  3.3399  0.1830  0.1199
  172MOL0     H23175   3.035   3.782   7.662  3.6881  0.3975 -0.4995
  172MOL0     H23176   3.157   3.567   7.491  0.0611 -0.4031  0.5807
  172MOL0     H23177   3.253   3.652   7.610 -1.3001  1.6774  0.1346
  172MOL0     H23178   3.146   3.761   7.345  0.5412  0.9884 -0.4497
  172MOL0     H23179   3.303   3.730   7.384 -1.1828 -1.6846 -0.5815
  172MOL0     H23180   3.209   4.067   7.681 -0.3667  1.9531  0.3524
  172MOL0     H23181   3.455   4.164   7.941 -1.4253 -2.0054  0.5999
  172MOL0     H23182   3.359   4.265   7.839 -0.2483 -0.3458 -1.3333
  172MOL0     H23183   3.294   4.111   7.909  0.0386 -2.8440 -2.5688
  172MOL0     H23184   3.855   4.237   7.652  0.2630 -0.9357  1.0537
  172MOL0     H23185   4.097   4.328   7.640  2.3248 -0.0280  0.0687
  172MOL0     H23186   4.290   4.054   7.550 -0.6823 -0.0301  1.2360
  172MOL0     H23187   4.366   4.212   7.521  0.8920  0.6280  0.7203
  172MOL0     H23188   4.459   3.975   7.698  1.0245 -1.0027 -0.8577
  172MOL0     H23189   4.527   4.011   7.541  0.0466 -2.1845  1.5396
  172MOL0     H23190   4.547   4.181   7.790  1.9785  5.0979 -0.6819
  172MOL0     H23191   4.600   4.230   7.628  2.8057 -0.2403 -0.0003
  172MOL0     H23192   4.696   3.979   7.790 -1.2588  0.7830  0.8412
  172MOL0     H23193   4.785   4.054   7.660 -1.3158 -0.2018 -0.6794
  172MOL0     H23194   4.715   4.156   7.943  0.8256  2.3074  0.8001
  172MOL0     H23195   4.768   4.260   7.812  0.3484 -0.8450 -0.2728
  172MOL0     H23196   4.918   4.022   7.922  1.4190 -1.5741 -2.5630
  172MOL0     H23197   4.979   4.101   7.792 -1.5399 -0.8276  0.0065
  172MOL0     H23198   4.948   4.210   8.070  2.7069  2.1783  1.1594
  172MOL0     H23199   4.957   4.332   7.933  1.4110  0.9289  0.9253
  172MOL0     H23200   5.152   4.325   8.053 -2.9269  1.6811 -2.1778
  172MOL0     H23201   5.185   4.257   7.889  0.7835  1.5732 -0.3083
  172MOL0     H23202   4.243   3.998   7.846 -0.3309 -0.4258 -0.6565
  172MOL0     H23203   4.030   3.879   7.844  0.1249 -2.3881 -2.0566
  172MOL0     H23204   3.664   3.917   7.569  0.0730  2.0565 -2.9124
  172MOL0     H23205   3.480   3.828   7.451 -1.8634  0.2877 -0.3442
  172MOL0     H23206   2.623   4.558   8.087  0.8345 -2.2072  0.8803
  172MOL0     H23207   2.566   4.801   8.123  0.5973 -3.1042 -3.7303
  172MOL0     H23208   2.585   5.187   8.489  2.3153  4.8839 -1.6281
  172MOL0     H23209   2.518   5.401   8.506  1.0110 -0.4130 -1.2687
  172MOL0     H23210   2.351   5.586   8.506 -2.7804 -0.6536 -0.6026
  172MOL0     H23211   2.486   5.617   8.398  0.1158  0.8449 -5.7158
  172MOL0     H23212   2.314   5.811   8.486 -0.8304 -1.4542  0.8519
  172MOL0     H23213   2.213   5.758   8.356  0.1052  0.9593 -0.6718
  172MOL0     H23214   2.309   5.916   8.246 -0.1605  0.6001  0.8433
  172MOL0     H23215   2.398   5.784   8.187  1.1403  0.0107  0.1999
  172MOL0     H23216   2.559   5.878   8.402 -0.5654  3.0889  2.2204
  172MOL0     H23217   2.470   6.019   8.366  0.2839 -1.3010  0.6542
  172MOL0     H23218   2.724   6.110   8.077  0.7878  0.1034  0.5190
  172MOL0     H23219   2.236   5.335   8.180  0.1087  1.6444 -0.0531
  172MOL0     H23220   2.272   5.085   8.212  1.2115 -0.0435 -1.7236
  173MOL0     O23221   9.369   7.592   3.946 -0.6903 -0.5355 -0.9271
  173MOL0     C23222   9.424   7.538   4.043 -0.6570  0.0287  0.1244
  173MOL0     O23223   9.350   7.479   4.150 -0.3554  0.2167 -0.3617
  173MOL0     C23224   9.215   7.452   4.150 -0.0262  0.1232  0.0860
  173MOL0     C23225   9.159   7.389   4.268  0.0546  0.5837 -0.2880
  173MOL0     C23226   9.023   7.357   4.282 -0.2334  0.0419 -0.1777
  173MOL0     C23227   8.937   7.382   4.173 -0.4501  0.0505  0.5878
  173MOL0     O23228   8.805   7.370   4.168 -0.8244  0.1991 -0.1748
  173MOL0     C23229   8.731   7.339   4.290  0.6271 -0.1525  0.3920
  173MOL0     C23230   8.586   7.340   4.246 -0.5429 -0.5706  0.5920
  173MOL0     C23231   8.493   7.310   4.369 -0.2349  0.1945  0.5512
  173MOL0     C23232   8.378   7.221   4.324  0.9441 -0.1303  0.4555
  173MOL0     C23233   8.267   7.227   4.436 -0.2429  0.5779  0.1656
  173MOL0     C23234   8.158   7.114   4.420 -0.2900 -0.2401 -0.5065
  173MOL0     C23235   8.032   7.147   4.498 -0.0791  0.2078  0.0281
  173MOL0     C23236   7.910   7.071   4.450  0.1861  0.1158  0.3342
  173MOL0     N23237   7.790   7.096   4.530  0.0465  0.8377 -0.1969
  173MOL0     C23238   7.777   7.042   4.665 -0.2981 -0.0308 -0.2390
  173MOL0     C23239   7.652   7.082   4.708 -0.9017 -0.8812 -0.5637
  173MOL0     C23240   7.570   7.066   4.829  0.6746 -0.6541 -0.5131
  173MOL0     C23241   7.474   6.936   4.825 -0.3300  0.7327  0.1073
  173MOL0     C23242   7.386   6.906   4.945  0.3506  0.2348 -0.8498
  173MOL0     C23243   7.278   7.007   4.960  1.0441 -0.7818 -0.5107
  173MOL0     O23244   7.207   6.988   5.085  0.8261  0.0903 -0.8039
  173MOL0     C23245   7.075   7.028   5.080  0.0191  0.7732 -0.2031
  173MOL0     C23246   7.001   6.979   5.187  0.0234 -0.1448  0.5550
  173MOL0     C23247   6.863   6.999   5.193  0.3464 -0.1335 -0.1870
  173MOL0     C23248   6.777   6.926   5.298  0.8543  0.9965  0.6592
  173MOL0     C23249   6.791   7.071   5.092 -0.4656 -0.8748 -0.2933
  173MOL0     C23250   6.647   7.092   5.086  0.5029 -0.7757  0.1914
  173MOL0     O23251   6.608   7.212   5.026 -0.2705  0.1780  0.2915
  173MOL0     C23252   6.481   7.255   5.024 -0.5186  0.5088  0.5306
  173MOL0     C23253   6.452   7.301   4.897 -0.5407 -0.8257 -0.1457
  173MOL0     C23254   6.325   7.358   4.873  0.2551 -0.4187 -0.4243
  173MOL0     C23255   6.235   7.362   4.976 -0.4179  0.7324 -0.4054
  173MOL0     O23256   6.112   7.413   4.954 -0.1878 -0.8221  0.6666
  173MOL0     C23257   6.001   7.326   4.939 -0.1422  0.1190  0.3195
  173MOL0     C23258   5.869   7.396   4.928  0.3164 -0.0556 -0.2920
  173MOL0     C23259   5.759   7.290   4.898  0.2202 -0.9090 -0.1230
  173MOL0     C23260   5.625   7.363   4.908  0.4240 -0.1112 -0.1162
  173MOL0     C23261   5.497   7.285   4.953  0.0688 -0.2524  0.7229
  173MOL0     C23262   5.519   7.246   5.100  0.2931 -0.2764  0.4717
  173MOL0     C23263   5.377   7.210   5.163  0.1546  0.0034  0.0106
  173MOL0     C23264   5.388   7.208   5.314 -0.0471 -0.0844 -0.5544
  173MOL0    Cl23265   5.220   7.199   5.368 -0.3783 -0.4670 -0.1384
  173MOL0     C23266   6.265   7.319   5.114 -0.0931  0.9337  0.0425
  173MOL0     C23267   6.392   7.265   5.131  0.1982  0.6962  0.0540
  173MOL0     O23268   6.571   7.017   5.138 -0.2823  1.2419 -0.2411
  173MOL0     C23269   6.872   7.126   4.989  0.2118  0.5582  1.0927
  173MOL0     C23270   7.018   7.112   4.987 -0.9234 -1.3256  0.3009
  173MOL0     N23271   7.614   7.175   4.612 -0.0842  0.2397 -1.0439
  173MOL0     N23272   7.678   7.169   4.508 -0.4237  0.4203  0.1025
  173MOL0     C23273   8.986   7.419   4.049 -0.0305 -0.7435 -0.2439
  173MOL0     C23274   9.128   7.454   4.039 -0.2780 -0.1892  0.0096
  173MOL0     C23275   9.569   7.547   4.064 -0.3687  0.6120 -1.1554
  173MOL0     C23276   9.631   7.508   4.188 -0.1677  0.0343  0.1308
  173MOL0     C23277   9.774   7.522   4.204 -1.0882 -0.8470  0.8649
  173MOL0     C23278   9.856   7.576   4.095  0.4538  0.5677  0.4037
  173MOL0     O23279   9.989   7.575   4.129 -0.2092 -0.1618  0.5045
  173MOL0     C23280  10.073   7.491   4.036 -0.1142 -0.9461  0.7904
  173MOL0     C23281  10.022   7.347   4.033  0.0558  1.2250 -0.2199
  173MOL0     C23282  10.128   7.247   3.997 -0.8504  0.1100 -1.0754
  173MOL0     C23283  10.053   7.103   3.984  0.8864  0.4349  0.0434
  173MOL0     C23284   9.953   7.087   3.872  0.2971  0.6941  0.3611
  173MOL0     C23285   9.881   7.083   3.774  0.5086 -0.4479 -0.2548
  173MOL0     C23286   9.799   7.614   3.977  0.4445  0.1823  0.5247
  173MOL0     C23287   9.658   7.591   3.960 -0.5332 -0.1795  0.0916
  173MOL0     H23288   9.221   7.381   4.357 -0.4114  0.7502  0.0552
  173MOL0     H23289   8.984   7.310   4.371  3.0748 -1.4527  0.6384
  173MOL0     H23290   8.752   7.248   4.348 -1.5765 -0.5261  0.6761
  173MOL0     H23291   8.742   7.419   4.363  1.6008  0.1478 -0.0736
  173MOL0     H23292   8.563   7.434   4.195  1.2477 -0.9417 -0.9945
  173MOL0     H23293   8.568   7.265   4.169 -0.0516  0.2377 -0.3336
  173MOL0     H23294   8.539   7.240   4.439 -0.0529 -0.0986  0.1405
  173MOL0     H23295   8.471   7.395   4.434  0.7547 -0.8977  2.4208
  173MOL0     H23296   8.327   7.258   4.234  0.0244 -2.4053 -0.0152
  173MOL0     H23297   8.409   7.119   4.303 -0.8331 -0.3240 -1.5303
  173MOL0     H23298   8.328   7.220   4.527  1.6002  2.9299 -0.7963
  173MOL0     H23299   8.224   7.327   4.444  1.1522  1.0740  2.2864
  173MOL0     H23300   8.146   7.104   4.312  2.9479  3.2214 -1.3960
  173MOL0     H23301   8.198   7.016   4.447  0.1978 -0.2477 -1.2171
  173MOL0     H23302   8.062   7.116   4.598  0.5089 -3.9874 -1.2670
  173MOL0     H23303   8.011   7.253   4.481  0.9384 -0.0728 -4.4025
  173MOL0     H23304   7.928   6.963   4.456 -1.3826 -0.2810 -1.3683
  173MOL0     H23305   7.893   7.085   4.343  0.2132 -2.1554 -0.0079
  173MOL0     H23306   7.844   6.967   4.706 -0.0463  0.5470  0.4312
  173MOL0     H23307   7.650   7.045   4.900  0.0040 -0.2291  0.3868
  173MOL0     H23308   7.511   7.155   4.855  0.3911 -0.9166 -0.2451
  173MOL0     H23309   7.542   6.851   4.813 -0.6251  0.6770 -1.2850
  173MOL0     H23310   7.419   6.953   4.732 -1.8203  0.5802  0.9307
  173MOL0     H23311   7.437   6.908   5.041 -2.2254  3.7066  0.6471
  173MOL0     H23312   7.345   6.807   4.921 -0.0585  1.0870 -4.2430
  173MOL0     H23313   7.209   6.990   4.876 -0.3922 -4.2734  1.2092
  173MOL0     H23314   7.306   7.113   4.951 -3.1506  0.4595 -1.5359
  173MOL0     H23315   7.049   6.909   5.255 -1.5233 -1.4565  0.3670
  173MOL0     H23316   6.710   6.854   5.251 -0.8702  2.7500  0.2791
  173MOL0     H23317   6.837   6.882   5.379 -0.1422 -1.6150  0.0626
  173MOL0     H23318   6.709   7.000   5.341 -4.0375 -1.7927 -1.4814
  173MOL0     H23319   6.534   7.304   4.826  1.0376  1.5659  1.6159
  173MOL0     H23320   6.296   7.385   4.772  4.2483  2.7611 -0.9843
  173MOL0     H23321   6.019   7.271   4.846  1.3438  1.7215 -0.3979
  173MOL0     H23322   5.994   7.254   5.021 -0.5957 -1.8541 -1.3591
  173MOL0     H23323   5.864   7.445   5.026  2.6110 -1.8390  0.8231
  173MOL0     H23324   5.879   7.469   4.847 -3.8691 -0.7130 -1.6070
  173MOL0     H23325   5.755   7.205   4.966 -1.0304 -0.1514  0.7811
  173MOL0     H23326   5.770   7.252   4.796  1.7075 -0.1831 -0.2592
  173MOL0     H23327   5.629   7.451   4.973  1.0432  0.0205 -0.3258
  173MOL0     H23328   5.611   7.409   4.810  3.3262 -2.7521 -1.9419
  173MOL0     H23329   5.480   7.198   4.889  2.6276 -0.3393  0.0704
  173MOL0     H23330   5.407   7.346   4.943 -0.9557 -1.8235 -0.1751
  173MOL0     H23331   5.593   7.167   5.117  1.7861  0.9937  0.0607
  173MOL0     H23332   5.550   7.330   5.162 -2.2300  0.6302  0.6137
  173MOL0     H23333   5.341   7.115   5.122  1.3636 -0.7430  0.6321
  173MOL0     H23334   5.297   7.281   5.139 -0.9888 -1.6767 -1.4162
  173MOL0     H23335   5.434   7.299   5.354 -1.2928  0.7947 -1.0364
  173MOL0     H23336   5.440   7.121   5.355  0.5923  0.9514  0.9215
  173MOL0     H23337   6.187   7.322   5.189 -0.2271 -3.6163  0.3509
  173MOL0     H23338   6.430   7.218   5.220 -0.7412 -0.6494 -0.2172
  173MOL0     H23339   6.836   7.190   4.910 -0.8284 -2.1607 -0.8007
  173MOL0     H23340   7.076   7.176   4.921 -4.4077  1.2940 -0.5278
  173MOL0     H23341   8.921   7.437   3.964  0.2540  2.6428  0.1348
  173MOL0     H23342   9.157   7.481   3.938  2.3971  2.0875  1.2439
  173MOL0     H23343   9.576   7.477   4.277  0.9569  0.5944  1.0559
  173MOL0     H23344   9.832   7.499   4.292  1.7370 -0.4918 -0.7931
  173MOL0     H23345  10.073   7.539   3.938  2.3646 -1.5011  0.4457
  173MOL0     H23346  10.177   7.491   4.070 -0.4628 -0.8690  1.9016
  173MOL0     H23347   9.930   7.340   3.975  0.4102  0.4933 -0.7095
  173MOL0     H23348  10.010   7.322   4.139  1.8323  2.0593  0.2197
  173MOL0     H23349  10.194   7.232   4.083 -2.8162 -2.5791  0.0896
  173MOL0     H23350  10.180   7.271   3.903 -2.3535 -1.3119 -2.3134
  173MOL0     H23351  10.009   7.075   4.080 -1.9499 -1.0966 -1.5759
  173MOL0     H23352  10.125   7.024   3.962  1.3987  0.3951  1.7021
  173MOL0     H23353   9.822   7.116   3.691  0.5863 -4.0412 -1.9284
  173MOL0     H23354   9.867   7.653   3.903 -0.7420  2.1949  0.4243
  173MOL0     H23355   9.614   7.613   3.863 -1.2977  1.9237  0.8686
  174MOL0     O23356   4.886   5.300   2.246  0.2395 -0.4858  0.0641
  174MOL0     C23357   4.977   5.327   2.168 -0.0522  0.5781 -0.1238
  174MOL0     O23358   4.981   5.287   2.036  0.5506  0.4643 -0.0453
  174MOL0     C23359   4.882   5.208   1.993 -0.3227 -0.0990 -0.0931
  174MOL0     C23360   4.798   5.250   1.884 -0.2652 -0.2146 -0.5806
  174MOL0     C23361   4.692   5.169   1.850 -0.2661 -0.9402 -0.5173
  174MOL0     C23362   4.662   5.054   1.916  0.1911  0.6305  0.0486
  174MOL0     O23363   4.551   4.986   1.872  0.0597 -0.0397 -0.0983
  174MOL0     C23364   4.554   4.845   1.886 -0.0287  0.2050  0.2560
  174MOL0     C23365   4.410   4.782   1.868 -0.0199  0.1202 -0.2556
  174MOL0     C23366   4.326   4.832   1.748 -0.3711 -0.2325  0.6177
  174MOL0     C23367   4.184   4.788   1.771  0.2421 -0.1088 -0.6467
  174MOL0     C23368   4.109   4.762   1.642  0.6793  0.7450  0.1533
  174MOL0     C23369   3.958   4.712   1.665 -0.8730 -0.2125 -0.2808
  174MOL0     C23370   3.898   4.670   1.535 -1.0012  0.7367  1.3109
  174MOL0     C23371   3.749   4.677   1.541  0.2664 -0.3413  0.5840
  174MOL0     N23372   3.687   4.643   1.415  0.2955  0.1766 -0.1423
  174MOL0     C23373   3.636   4.518   1.390  0.1099  0.0726  0.1213
  174MOL0     C23374   3.550   4.541   1.283 -1.0252 -0.6085 -0.1954
  174MOL0     C23375   3.449   4.436   1.237  0.2636  0.6012 -0.3380
  174MOL0     C23376   3.484   4.370   1.105 -0.3272 -0.4409 -0.0104
  174MOL0     C23377   3.493   4.468   0.983 -1.1840  0.8321  0.0465
  174MOL0     C23378   3.359   4.534   0.953  0.0808  0.6438  0.0473
  174MOL0     O23379   3.249   4.441   0.963 -0.9507 -0.1798  0.0021
  174MOL0     C23380   3.122   4.489   0.980 -0.3252 -0.3164 -0.3621
  174MOL0     C23381   3.083   4.623   0.992  1.6301  0.3278  0.4227
  174MOL0     C23382   2.947   4.665   1.014 -0.1056 -0.2467  1.0425
  174MOL0     C23383   2.938   4.815   1.017  0.8537 -0.0133 -0.2075
  174MOL0     C23384   2.843   4.565   1.025 -0.5494  0.1077 -0.7386
  174MOL0     C23385   2.702   4.590   1.045 -0.0275 -0.0303 -0.4097
  174MOL0     O23386   2.632   4.488   1.096  0.3443 -0.9195  0.5690
  174MOL0     C23387   2.493   4.478   1.100 -0.1384  0.4960 -0.2212
  174MOL0     C23388   2.410   4.551   1.019 -0.0759  0.1838 -1.1500
  174MOL0     C23389   2.270   4.544   1.038 -0.7557 -0.5655  0.1389
  174MOL0     C23390   2.214   4.464   1.135  0.0548  0.1054  0.4798
  174MOL0     O23391   2.079   4.469   1.146 -0.0110 -0.7566 -0.3099
  174MOL0     C23392   2.015   4.393   1.244 -0.1011  0.2481  0.9894
  174MOL0     C23393   1.865   4.415   1.243  0.1412 -0.0619  0.9391
  174MOL0     C23394   1.806   4.366   1.374  0.0168  0.3778  0.1152
  174MOL0     C23395   1.655   4.348   1.370 -0.4505 -1.0752 -0.7232
  174MOL0     C23396   1.566   4.474   1.401 -0.3443 -0.3042  0.3954
  174MOL0     C23397   1.580   4.544   1.539  0.2715  0.1114 -0.3921
  174MOL0     C23398   1.523   4.438   1.642  0.2208  0.2255  1.2151
  174MOL0     C23399   1.524   4.502   1.781 -0.3701 -0.7944  0.8133
  174MOL0    Cl23400   1.689   4.555   1.823 -0.1974  0.0710  0.1173
  174MOL0     C23401   2.299   4.382   1.218 -0.0886 -0.7361  0.5782
  174MOL0     C23402   2.443   4.386   1.195  0.4682  0.3384 -0.4220
  174MOL0     O23403   2.652   4.695   1.009  0.4944  0.2025 -1.0252
  174MOL0     C23404   2.884   4.424   1.022 -0.3479  0.5493  0.0776
  174MOL0     C23405   3.019   4.389   1.006  0.2457 -0.3717  0.0218
  174MOL0     N23406   3.573   4.675   1.240  0.1812 -0.1337 -0.4133
  174MOL0     N23407   3.656   4.732   1.313  0.2945 -0.2316  0.1023
  174MOL0     C23408   4.743   5.010   2.022  0.4035  0.8997  1.1511
  174MOL0     C23409   4.855   5.081   2.053 -0.2421 -0.3307  0.3257
  174MOL0     C23410   5.108   5.377   2.223  1.0615  0.1834  0.0822
  174MOL0     C23411   5.228   5.359   2.153  0.3190  1.0459 -0.5138
  174MOL0     C23412   5.344   5.414   2.206 -0.2772  0.0294  0.1668
  174MOL0     C23413   5.344   5.481   2.326 -0.0102  0.4967 -0.2498
  174MOL0     O23414   5.468   5.494   2.385  0.3723 -0.1496  0.1814
  174MOL0     C23415   5.484   5.493   2.528 -0.2394  0.2763  0.1727
  174MOL0     C23416   5.626   5.469   2.565 -0.1831 -0.4385  0.2223
  174MOL0     C23417   5.703   5.600   2.570  0.5936 -0.0473 -0.2267
  174MOL0     C23418   5.856   5.580   2.589 -0.0452  0.2883 -0.2251
  174MOL0     C23419   5.897   5.490   2.700  0.0695  0.2231 -0.1001
  174MOL0     C23420   5.940   5.425   2.799 -0.0684 -0.2093  0.6238
  174MOL0     C23421   5.219   5.497   2.392 -1.5608 -1.1455 -0.6815
  174MOL0     C23422   5.098   5.449   2.341  0.2596  0.1736 -0.7989
  174MOL0     H23423   4.822   5.349   1.845  0.5479 -0.4060 -0.5805
  174MOL0     H23424   4.628   5.204   1.770 -1.5917 -2.2913 -0.1106
  174MOL0     H23425   4.619   4.819   1.802 -0.2088  0.7294 -0.0482
  174MOL0     H23426   4.590   4.804   1.981  0.2731 -0.5631 -0.1850
  174MOL0     H23427   4.416   4.673   1.859  0.5414 -0.0110  1.3516
  174MOL0     H23428   4.354   4.798   1.961  2.6604 -2.1353  1.9336
  174MOL0     H23429   4.334   4.939   1.729 -0.3331 -0.8368 -3.8797
  174MOL0     H23430   4.375   4.789   1.661 -2.2909 -0.4348 -0.4321
  174MOL0     H23431   4.190   4.695   1.829  4.0583  1.2347  1.4686
  174MOL0     H23432   4.138   4.855   1.844  0.5118  0.2071 -0.7616
  174MOL0     H23433   4.106   4.851   1.577 -3.3759 -0.4344 -1.5835
  174MOL0     H23434   4.152   4.679   1.586 -0.2792 -1.0054  1.8620
  174MOL0     H23435   3.952   4.632   1.740  1.9193 -0.1604  0.1267
  174MOL0     H23436   3.908   4.792   1.720  1.0892  2.2663 -1.8856
  174MOL0     H23437   3.936   4.737   1.457 -2.4609 -1.5064 -1.5284
  174MOL0     H23438   3.930   4.569   1.512 -0.8730  0.6504  1.8582
  174MOL0     H23439   3.709   4.775   1.569 -2.2416 -0.3067 -2.5913
  174MOL0     H23440   3.722   4.603   1.617  2.5008  0.2337  2.0452
  174MOL0     H23441   3.634   4.429   1.452 -2.2102 -1.1976 -1.6418
  174MOL0     H23442   3.452   4.350   1.306 -1.0874  0.9410  0.1868
  174MOL0     H23443   3.346   4.475   1.234 -0.6041 -1.1660  2.3964
  174MOL0     H23444   3.414   4.291   1.075  0.1297 -0.5693 -0.7596
  174MOL0     H23445   3.579   4.317   1.115 -0.0466  0.0237 -0.1890
  174MOL0     H23446   3.518   4.417   0.890 -1.7969  1.8166 -0.6678
  174MOL0     H23447   3.571   4.544   0.996  2.6429 -1.7078 -4.7076
  174MOL0     H23448   3.369   4.584   0.856  1.8486  1.7118  0.7272
  174MOL0     H23449   3.339   4.613   1.026 -0.1788  2.0553 -1.4765
  174MOL0     H23450   3.152   4.703   0.968  0.5165  0.8644 -1.1577
  174MOL0     H23451   3.027   4.855   1.066 -0.2957  3.2176 -0.5536
  174MOL0     H23452   2.938   4.861   0.918  1.7815  2.2517  0.7876
  174MOL0     H23453   2.856   4.856   1.077  1.5866  0.6794  0.3329
  174MOL0     H23454   2.446   4.624   0.947  0.8311 -0.2598 -1.1590
  174MOL0     H23455   2.205   4.605   0.974 -1.3214 -0.9272  0.3628
  174MOL0     H23456   2.035   4.286   1.230  2.7549  0.9324 -1.4085
  174MOL0     H23457   2.043   4.427   1.344 -1.3861  1.2007  1.0392
  174MOL0     H23458   1.848   4.522   1.226 -1.9567 -0.3467  1.0185
  174MOL0     H23459   1.820   4.375   1.152  1.0007  2.2140 -0.5743
  174MOL0     H23460   1.841   4.431   1.455 -0.1642  0.3239  0.2362
  174MOL0     H23461   1.851   4.267   1.387 -1.5724 -0.6498 -1.6958
  174MOL0     H23462   1.628   4.315   1.270  0.7667 -1.2332 -1.0055
  174MOL0     H23463   1.624   4.278   1.448 -3.4125  3.0593  2.3181
  174MOL0     H23464   1.464   4.451   1.370 -0.0762 -0.6244 -0.2555
  174MOL0     H23465   1.594   4.543   1.321  1.8710 -2.3195 -0.6964
  174MOL0     H23466   1.688   4.555   1.552  0.5112  0.3317 -2.3332
  174MOL0     H23467   1.514   4.631   1.541 -1.5202 -1.1740 -0.7320
  174MOL0     H23468   1.597   4.357   1.645  0.4708  0.4217  0.6122
  174MOL0     H23469   1.429   4.394   1.609 -0.5262  1.8108  1.1716
  174MOL0     H23470   1.512   4.427   1.859  0.7770  0.3152  2.1096
  174MOL0     H23471   1.446   4.577   1.796 -1.0818 -1.1713 -0.7268
  174MOL0     H23472   2.261   4.314   1.294  1.4998 -0.5449  1.6035
  174MOL0     H23473   2.508   4.319   1.251 -1.8288 -3.3854 -1.8771
  174MOL0     H23474   2.818   4.341   1.046 -0.3547 -0.2075 -2.2940
  174MOL0     H23475   3.044   4.285   1.021 -0.3460 -0.5742 -0.3564
  174MOL0     H23476   4.727   4.919   2.079  2.0437 -0.0156  0.2395
  174MOL0     H23477   4.925   5.045   2.129 -0.6753 -2.0729 -0.0566
  174MOL0     H23478   5.232   5.298   2.064  1.7200 -3.7309  2.4764
  174MOL0     H23479   5.438   5.402   2.151  0.5075 -0.7199  1.6187
  174MOL0     H23480   5.464   5.591   2.573  0.3382  0.0887  0.8645
  174MOL0     H23481   5.422   5.416   2.573 -0.1372  1.4112  2.4632
  174MOL0     H23482   5.673   5.395   2.499  1.0389 -0.5802  1.2058
  174MOL0     H23483   5.638   5.424   2.665  1.9285 -0.7258 -0.1213
  174MOL0     H23484   5.669   5.670   2.646  2.2208  1.6878 -0.9857
  174MOL0     H23485   5.702   5.648   2.471 -0.8616 -0.3866 -0.4011
  174MOL0     H23486   5.912   5.674   2.596 -1.6128  1.3326 -1.2213
  174MOL0     H23487   5.887   5.517   2.504  1.0439 -2.9886  2.3626
  174MOL0     H23488   5.981   5.367   2.879  2.6187  0.8392  0.1059
  174MOL0     H23489   5.218   5.555   2.483  0.3792 -1.4745 -0.3912
  174MOL0     H23490   5.000   5.460   2.386  0.4404  0.5795 -0.5117
  175MOL0     O23491   7.377   5.877   8.412  0.2526  0.2421 -0.1081
  175MOL0     C23492   7.393   5.898   8.294  0.2246 -0.1125 -0.5259
  175MOL0     O23493   7.295   5.958   8.217 -0.3087  0.2033  0.4205
  175MOL0     C23494   7.166   5.969   8.269 -1.0362  0.3825  0.0332
  175MOL0     C23495   7.082   5.861   8.259  0.0283  0.5806 -0.4742
  175MOL0     C23496   6.954   5.869   8.312  0.5821 -0.1582 -0.1475
  175MOL0     C23497   6.908   5.984   8.378 -0.6958 -0.1822  0.4088
  175MOL0     O23498   6.782   6.009   8.419  0.4870 -0.3985 -0.3104
  175MOL0     C23499   6.682   5.935   8.355  0.8659  0.5571 -0.8004
  175MOL0     C23500   6.540   5.989   8.379 -0.1015  0.0699 -0.2961
  175MOL0     C23501   6.505   5.958   8.521 -1.2544 -0.2337  0.1149
  175MOL0     C23502   6.362   5.997   8.552  0.8098 -1.2125 -0.1339
  175MOL0     C23503   6.236   5.914   8.504 -0.2015 -0.2940  0.0691
  175MOL0     C23504   6.222   5.795   8.600 -0.3677  0.4132 -0.5612
  175MOL0     C23505   6.098   5.693   8.567 -0.3217  0.3466  0.2711
  175MOL0     C23506   5.969   5.765   8.606 -0.2416  0.1905  0.4073
  175MOL0     N23507   5.859   5.669   8.609  0.4024 -1.0271 -0.2166
  175MOL0     C23508   5.762   5.653   8.705  0.1055 -0.1247  0.5350
  175MOL0     C23509   5.694   5.551   8.650 -0.3120 -0.7368  0.4204
  175MOL0     C23510   5.595   5.468   8.731  0.1876 -0.2435 -0.9745
  175MOL0     C23511   5.466   5.414   8.661 -1.3859  0.5707  0.0909
  175MOL0     C23512   5.377   5.336   8.752  0.5029  0.0398 -0.0769
  175MOL0     C23513   5.227   5.340   8.705  0.5012  0.2505  0.4851
  175MOL0     O23514   5.187   5.476   8.710  0.5494 -0.1960 -0.5801
  175MOL0     C23515   5.075   5.517   8.772 -0.2614 -0.7971 -0.4435
  175MOL0     C23516   4.988   5.615   8.719  0.6457 -0.2131 -0.2458
  175MOL0     C23517   4.882   5.666   8.786 -0.0088 -0.2240 -1.2700
  175MOL0     C23518   4.809   5.779   8.730  0.3523  0.1209 -1.1672
  175MOL0     C23519   4.842   5.598   8.911 -0.6241 -0.0414  0.3629
  175MOL0     C23520   4.710   5.625   8.991  0.4590 -0.2321 -0.3518
  175MOL0     O23521   4.606   5.693   8.923  0.4404  0.0769 -0.0488
  175MOL0     C23522   4.492   5.732   8.994 -0.0026 -0.4020  0.4268
  175MOL0     C23523   4.494   5.846   9.073 -0.5835 -0.1816  0.7109
  175MOL0     C23524   4.376   5.887   9.139 -0.2440 -0.4735 -0.2080
  175MOL0     C23525   4.256   5.819   9.132 -0.0641  0.0591  0.0436
  175MOL0     O23526   4.153   5.873   9.207  0.7729 -0.5001  0.5611
  175MOL0     C23527   4.019   5.824   9.176 -0.5077  0.8142 -1.0387
  175MOL0     C23528   3.905   5.921   9.219  0.4376  0.5591  0.1649
  175MOL0     C23529   3.775   5.851   9.252  0.1402  0.1141  0.5721
  175MOL0     C23530   3.695   5.942   9.342 -0.0814  0.3603  0.0703
  175MOL0     C23531   3.541   5.907   9.325 -0.1885 -0.0760 -0.6601
  175MOL0     C23532   3.455   5.980   9.436  0.5312 -0.8662  0.2170
  175MOL0     C23533   3.313   6.010   9.381 -0.2995 -0.2543 -0.3669
  175MOL0     C23534   3.238   5.877   9.358  0.0570 -0.0001 -1.0511
  175MOL0    Cl23535   3.075   5.914   9.298 -0.2241 -0.4630 -0.4514
  175MOL0     C23536   4.260   5.715   9.035  0.5632  0.4926 -0.2622
  175MOL0     C23537   4.376   5.666   8.975  0.4521  0.2288 -0.1796
  175MOL0     O23538   4.710   5.610   9.110 -0.8456  0.3175  0.2788
  175MOL0     C23539   4.937   5.503   8.964 -0.6570  0.7067 -0.0538
  175MOL0     C23540   5.051   5.461   8.898  0.3109 -0.3308 -0.0710
  175MOL0     N23541   5.734   5.517   8.526 -0.4936  0.2752  0.2237
  175MOL0     N23542   5.836   5.589   8.504  0.3377 -0.1359  0.4689
  175MOL0     C23543   7.002   6.094   8.385  0.2036 -0.1718  0.2422
  175MOL0     C23544   7.128   6.088   8.331  0.5326 -0.0606 -0.7689
  175MOL0     C23545   7.522   5.858   8.231  0.8609  0.6936 -1.0207
  175MOL0     C23546   7.530   5.871   8.090 -0.2946  0.9180 -0.4125
  175MOL0     C23547   7.647   5.830   8.027 -0.3520  1.2272 -0.3638
  175MOL0     C23548   7.757   5.780   8.103  0.0147  0.5881  0.1848
  175MOL0     O23549   7.865   5.744   8.031  0.1269 -0.4584  0.0878
  175MOL0     C23550   7.981   5.708   8.102 -0.5220  0.7658  0.2530
  175MOL0     C23551   8.091   5.693   7.996  0.2542 -0.2289 -0.7627
  175MOL0     C23552   8.224   5.637   8.052 -0.7703  0.0639  0.1349
  175MOL0     C23553   8.342   5.682   7.960 -0.5013 -0.1731  0.5334
  175MOL0     C23554   8.464   5.642   8.037  1.6032 -0.7058  0.3840
  175MOL0     C23555   8.578   5.619   8.073  0.6687  0.1155  0.4493
  175MOL0     C23556   7.758   5.779   8.239  0.5646  0.6385 -0.2720
  175MOL0     C23557   7.636   5.819   8.305  0.2336  0.0806 -0.1950
  175MOL0     H23558   7.103   5.771   8.203  0.9441  1.5712 -1.7961
  175MOL0     H23559   6.897   5.777   8.304 -0.6391  0.3970  1.6660
  175MOL0     H23560   6.700   5.950   8.249  1.8095  0.7083 -0.6284
  175MOL0     H23561   6.681   5.831   8.390 -0.5114  1.1297  1.0210
  175MOL0     H23562   6.529   6.094   8.347 -0.6125 -0.0050 -0.3872
  175MOL0     H23563   6.470   5.933   8.316 -4.7326  1.6926  2.8632
  175MOL0     H23564   6.522   5.854   8.551  2.2120  0.9233  2.8726
  175MOL0     H23565   6.583   6.012   8.576 -1.6273  0.3195  0.1084
  175MOL0     H23566   6.359   6.009   8.661  3.5420  2.4029 -0.2686
  175MOL0     H23567   6.343   6.097   8.513  2.2844 -0.3924  1.1145
  175MOL0     H23568   6.152   5.982   8.522 -1.0622 -1.8860  2.6985
  175MOL0     H23569   6.244   5.894   8.397  1.3645  1.3580 -0.1692
  175MOL0     H23570   6.304   5.723   8.594 -0.6304  0.1555 -1.1105
  175MOL0     H23571   6.211   5.830   8.703 -0.8601 -0.9303 -0.1403
  175MOL0     H23572   6.089   5.671   8.461  0.5894 -0.1059  0.2857
  175MOL0     H23573   6.109   5.603   8.628 -0.2018  0.3790  0.2977
  175MOL0     H23574   5.945   5.830   8.521 -2.1692  0.1401  0.8733
  175MOL0     H23575   5.971   5.824   8.698  1.0191  1.1949 -0.2335
  175MOL0     H23576   5.744   5.699   8.802  0.2598 -0.1663  0.5826
  175MOL0     H23577   5.641   5.372   8.757 -0.3921 -0.5224 -0.9649
  175MOL0     H23578   5.563   5.506   8.829  2.3925 -0.6371 -0.0390
  175MOL0     H23579   5.487   5.345   8.579 -1.8977 -0.5527  0.8786
  175MOL0     H23580   5.422   5.498   8.606 -0.8449 -0.6795 -2.4146
  175MOL0     H23581   5.373   5.369   8.856 -2.2325 -0.6718  0.0980
  175MOL0     H23582   5.420   5.236   8.764 -3.3156 -1.6797  0.6567
  175MOL0     H23583   5.167   5.269   8.763  0.4063  1.2237  1.6099
  175MOL0     H23584   5.233   5.310   8.600 -1.3673  2.8481 -0.4835
  175MOL0     H23585   5.019   5.658   8.624  1.6039 -2.4905 -1.0144
  175MOL0     H23586   4.873   5.835   8.661  0.9128  1.2073  0.2012
  175MOL0     H23587   4.724   5.738   8.674  0.1862  0.4565 -1.1589
  175MOL0     H23588   4.769   5.845   8.807  0.1007 -0.0043 -1.1866
  175MOL0     H23589   4.579   5.912   9.085 -2.0506  3.0935 -4.0398
  175MOL0     H23590   4.373   5.974   9.204  1.4176  0.2230 -1.0055
  175MOL0     H23591   4.018   5.818   9.067  0.0444 -1.9695 -0.9597
  175MOL0     H23592   4.002   5.719   9.202 -3.8922  1.6787  0.8672
  175MOL0     H23593   3.931   5.972   9.312 -0.8008 -0.4514  1.0932
  175MOL0     H23594   3.879   5.998   9.146 -0.6053  1.5764  1.5502
  175MOL0     H23595   3.790   5.756   9.305 -2.3255 -0.7721 -0.1992
  175MOL0     H23596   3.731   5.839   9.153 -1.3409  0.8302  1.1219
  175MOL0     H23597   3.714   5.928   9.449 -0.2107 -0.9429 -0.0577
  175MOL0     H23598   3.703   6.049   9.318  1.0573  0.1558 -0.5067
  175MOL0     H23599   3.527   5.798   9.327 -0.2895 -0.0942  2.5472
  175MOL0     H23600   3.514   5.941   9.225  1.0280  0.3872 -0.8513
  175MOL0     H23601   3.445   5.925   9.530 -0.0625  0.9213  1.2510
  175MOL0     H23602   3.496   6.073   9.475 -0.9623 -0.7079  1.4839
  175MOL0     H23603   3.324   6.065   9.287 -0.5143  0.9612  0.3068
  175MOL0     H23604   3.249   6.062   9.453 -1.4833 -1.9639 -0.1165
  175MOL0     H23605   3.234   5.811   9.445 -1.2492 -1.9684 -2.4898
  175MOL0     H23606   3.295   5.824   9.281  0.2755  2.0598 -2.3684
  175MOL0     H23607   4.177   5.646   9.024 -0.9572  2.3739 -1.1569
  175MOL0     H23608   4.382   5.576   8.914  0.7380 -2.2168  3.1544
  175MOL0     H23609   4.923   5.459   9.063 -1.6674  2.2288  0.5228
  175MOL0     H23610   5.112   5.400   8.963 -0.9321 -1.2845  0.2383
  175MOL0     H23611   6.966   6.186   8.430  3.1561  0.4970  1.4110
  175MOL0     H23612   7.199   6.168   8.354 -0.5517  0.6281  0.3414
  175MOL0     H23613   7.450   5.912   8.028 -0.3904 -0.2806 -1.1069
  175MOL0     H23614   7.656   5.812   7.921 -0.0678 -5.0518  0.3132
  175MOL0     H23615   8.014   5.790   8.167 -0.4270  1.2609 -0.4106
  175MOL0     H23616   7.962   5.617   8.159 -1.3236  1.7165  1.5541
  175MOL0     H23617   8.104   5.796   7.960 -0.9686 -0.2488 -1.3213
  175MOL0     H23618   8.051   5.632   7.914 -2.0205  2.7495 -2.0839
  175MOL0     H23619   8.219   5.528   8.059  3.3091 -0.5043 -2.3447
  175MOL0     H23620   8.238   5.670   8.155  1.1250  2.1575 -0.7159
  175MOL0     H23621   8.338   5.791   7.950 -3.8818 -0.3348 -1.2692
  175MOL0     H23622   8.342   5.645   7.857  3.4098 -0.6110  0.5242
  175MOL0     H23623   8.673   5.596   8.119 -0.1044 -2.2480  0.9952
  175MOL0     H23624   7.837   5.746   8.305 -0.1037  0.4207  0.4408
  175MOL0     H23625   7.621   5.803   8.412 -0.7761  2.7805  0.1472
  176MOL0     O23626   6.306   2.619   3.296 -1.2880 -1.1444 -0.3100
  176MOL0     C23627   6.282   2.696   3.208  0.2824 -0.1710  0.5114
  176MOL0     O23628   6.162   2.764   3.197 -0.4471  0.1762  0.8889
  176MOL0     C23629   6.074   2.747   3.292  0.0458  0.3889 -1.3285
  176MOL0     C23630   5.995   2.629   3.300 -0.2555  0.1764  0.6014
  176MOL0     C23631   5.887   2.618   3.384  0.7054 -0.0998  0.7293
  176MOL0     C23632   5.849   2.727   3.469 -0.7902  1.2577 -0.3842
  176MOL0     O23633   5.744   2.707   3.556 -0.3655  0.0146 -0.2011
  176MOL0     C23634   5.721   2.810   3.654  0.1318  0.1684 -0.5716
  176MOL0     C23635   5.628   2.750   3.757 -1.1881 -0.2627 -0.4532
  176MOL0     C23636   5.488   2.750   3.699  0.1434  1.0182 -0.7755
  176MOL0     C23637   5.395   2.662   3.796  0.3540  0.2385  0.0963
  176MOL0     C23638   5.267   2.625   3.722 -0.5151  1.3264  0.9401
  176MOL0     C23639   5.168   2.543   3.810 -0.2126 -0.7667 -0.1331
  176MOL0     C23640   5.042   2.505   3.733  0.5225 -0.2866  0.4969
  176MOL0     C23641   4.965   2.624   3.692  0.7813 -0.2670 -0.2995
  176MOL0     N23642   4.834   2.579   3.624  1.1379  0.2564  0.2774
  176MOL0     C23643   4.820   2.492   3.522  0.2465  0.6328 -0.1847
  176MOL0     C23644   4.697   2.510   3.467 -0.1038  0.0654  0.7778
  176MOL0     C23645   4.639   2.412   3.372  0.3800 -0.6277  0.5397
  176MOL0     C23646   4.488   2.406   3.381  0.1851  0.3315  0.2989
  176MOL0     C23647   4.430   2.330   3.261 -0.0907  0.6218  0.3211
  176MOL0     C23648   4.309   2.245   3.309  0.4962 -0.0288 -0.4278
  176MOL0     O23649   4.268   2.187   3.193  0.3975  0.4584  0.0649
  176MOL0     C23650   4.179   2.085   3.201  0.4510  0.8593 -0.6972
  176MOL0     C23651   4.128   2.038   3.325  0.1353  0.8153 -0.4232
  176MOL0     C23652   4.012   1.966   3.328  0.6150  0.2817 -0.1586
  176MOL0     C23653   3.950   1.952   3.465  1.1413  0.1351  0.2907
  176MOL0     C23654   3.972   1.904   3.202 -0.2217 -0.1001 -0.6321
  176MOL0     C23655   3.866   1.807   3.193 -0.5139 -0.1625 -0.1678
  176MOL0     O23656   3.808   1.796   3.071  0.4041  0.2911 -0.2830
  176MOL0     C23657   3.706   1.717   3.057  0.4052  0.1334 -0.0256
  176MOL0     C23658   3.578   1.777   3.058 -0.2998 -0.6999 -0.8606
  176MOL0     C23659   3.457   1.701   3.035  0.0847  0.1213  0.2033
  176MOL0     C23660   3.468   1.558   3.022 -0.5881 -0.8032  0.7276
  176MOL0     O23661   3.351   1.495   3.006 -0.2977  0.0889  0.0004
  176MOL0     C23662   3.337   1.366   3.070  0.5695 -0.3704 -0.0354
  176MOL0     C23663   3.253   1.259   2.990 -0.4197 -0.6549 -0.4681
  176MOL0     C23664   3.221   1.139   3.080 -0.2326 -0.0194  0.1742
  176MOL0     C23665   3.135   1.036   2.999  0.1481  0.0371  0.2993
  176MOL0     C23666   3.126   0.901   3.061  0.0029  0.5500  0.1823
  176MOL0     C23667   2.989   0.835   3.060  0.1679 -1.1523 -0.3831
  176MOL0     C23668   2.991   0.716   3.153 -0.2488  0.6370 -0.2097
  176MOL0     C23669   2.871   0.624   3.140 -0.4450 -0.2856 -0.0452
  176MOL0    Cl23670   2.712   0.719   3.168  0.0328 -0.0140 -0.3614
  176MOL0     C23671   3.603   1.504   3.017  0.2789 -0.0628  0.4507
  176MOL0     C23672   3.720   1.586   3.026  0.8331 -0.3663 -0.1956
  176MOL0     O23673   3.823   1.746   3.296 -0.1422 -0.0879  1.0853
  176MOL0     C23674   4.035   1.940   3.081  0.4418  0.4779 -0.2692
  176MOL0     C23675   4.131   2.039   3.081  0.5766  0.8523  0.0321
  176MOL0     N23676   4.633   2.610   3.539 -0.6582 -0.1763 -0.6483
  176MOL0     N23677   4.723   2.654   3.626  0.9120  0.2977 -0.2480
  176MOL0     C23678   5.933   2.844   3.465  0.3792  0.9928  0.3164
  176MOL0     C23679   6.047   2.847   3.380  0.0732 -1.4234  0.9440
  176MOL0     C23680   6.383   2.725   3.111 -0.9543  0.4222 -0.2654
  176MOL0     C23681   6.344   2.804   2.998 -0.1080 -0.4325  0.1455
  176MOL0     C23682   6.431   2.819   2.896  0.2793 -0.0966 -0.0477
  176MOL0     C23683   6.563   2.767   2.900 -0.5489  0.5060 -0.2768
  176MOL0     O23684   6.659   2.815   2.812 -0.3054  0.0307  0.2950
  176MOL0     C23685   6.698   2.955   2.834 -0.0048  0.5750  0.8037
  176MOL0     C23686   6.848   2.960   2.852 -0.6766 -1.0250  0.8169
  176MOL0     C23687   6.909   3.110   2.860 -0.2020 -0.1784 -0.8507
  176MOL0     C23688   7.045   3.091   2.925  0.0008 -0.5820 -0.1833
  176MOL0     C23689   7.116   3.216   2.944 -0.0558  1.6518 -0.2497
  176MOL0     C23690   7.160   3.328   2.939 -0.5142  0.3886 -1.2620
  176MOL0     C23691   6.606   2.701   3.020 -0.7505  0.2977 -0.4488
  176MOL0     C23692   6.514   2.672   3.121 -0.0237  0.0459 -0.3689
  176MOL0     H23693   6.014   2.542   3.239 -0.0957  0.9231 -0.4306
  176MOL0     H23694   5.832   2.525   3.388  2.1326 -0.9284  3.1018
  176MOL0     H23695   5.813   2.834   3.709 -1.4067  4.0505  0.6275
  176MOL0     H23696   5.680   2.904   3.619 -0.4091  1.0086  2.1182
  176MOL0     H23697   5.658   2.649   3.786 -1.8856 -0.2683  0.2870
  176MOL0     H23698   5.631   2.823   3.839  1.8841 -0.9772  0.1912
  176MOL0     H23699   5.436   2.846   3.690 -2.5573 -0.2626  0.0373
  176MOL0     H23700   5.495   2.694   3.605 -1.1770 -0.4304 -0.0436
  176MOL0     H23701   5.452   2.575   3.829  3.1335  1.5384 -0.8790
  176MOL0     H23702   5.364   2.713   3.888 -4.3970  1.0607 -1.6738
  176MOL0     H23703   5.225   2.717   3.680  0.8844  0.8096 -1.8458
  176MOL0     H23704   5.290   2.560   3.637 -0.8652 -1.0371  2.5524
  176MOL0     H23705   5.204   2.448   3.852 -3.0265 -1.3543  1.1399
  176MOL0     H23706   5.149   2.618   3.887  0.8872  0.8895 -1.3921
  176MOL0     H23707   5.072   2.449   3.643 -0.8639 -3.0043  1.6015
  176MOL0     H23708   4.978   2.441   3.795 -0.7557  0.9861  0.5401
  176MOL0     H23709   5.021   2.689   3.624 -0.3952  2.0731  0.8218
  176MOL0     H23710   4.945   2.690   3.777  1.8128  0.9845 -0.9830
  176MOL0     H23711   4.884   2.407   3.497  0.1094 -0.6827  3.3848
  176MOL0     H23712   4.669   2.444   3.272  1.2940 -1.3598  0.5629
  176MOL0     H23713   4.668   2.307   3.384 -0.2047 -0.8792 -0.1652
  176MOL0     H23714   4.442   2.505   3.390  0.4410  0.5340 -0.5528
  176MOL0     H23715   4.458   2.360   3.475  1.6549  1.1592  1.2228
  176MOL0     H23716   4.509   2.260   3.233 -2.5037 -2.0615 -0.2559
  176MOL0     H23717   4.398   2.401   3.185 -1.7352 -0.2437  0.1746
  176MOL0     H23718   4.236   2.315   3.352  1.0518  0.3445 -0.0856
  176MOL0     H23719   4.341   2.175   3.387  1.1908  1.7485  0.9721
  176MOL0     H23720   4.147   2.083   3.422 -1.8519  2.5012 -0.7402
  176MOL0     H23721   3.842   1.961   3.447  1.3400  0.5903 -0.7590
  176MOL0     H23722   3.980   1.854   3.502  0.8747 -0.2503 -0.5017
  176MOL0     H23723   3.995   2.028   3.530  3.9671 -1.7764  0.7497
  176MOL0     H23724   3.569   1.882   3.082 -2.6522 -1.3194  1.5473
  176MOL0     H23725   3.359   1.737   3.007 -0.5884 -2.2634 -0.7331
  176MOL0     H23726   3.428   1.318   3.105  1.2187  0.5674 -0.3927
  176MOL0     H23727   3.281   1.387   3.162  0.8229  1.8337 -0.3159
  176MOL0     H23728   3.157   1.302   2.961  1.2001  2.9023 -1.0069
  176MOL0     H23729   3.307   1.245   2.896  2.1725  1.0527  0.6620
  176MOL0     H23730   3.165   1.159   3.171 -0.3560 -1.7773  0.5153
  176MOL0     H23731   3.313   1.093   3.119 -1.7347 -3.0574  0.4656
  176MOL0     H23732   3.033   1.076   2.999  0.0489 -0.1044  2.4657
  176MOL0     H23733   3.170   1.022   2.896 -0.7827  2.8794 -0.4859
  176MOL0     H23734   3.160   0.911   3.164  0.3132 -1.2774  0.2954
  176MOL0     H23735   3.185   0.828   3.004 -2.5405 -1.1561 -0.4349
  176MOL0     H23736   2.922   0.915   3.093  1.4903  0.9579 -2.4865
  176MOL0     H23737   2.964   0.811   2.956 -3.1073  0.4035 -0.0852
  176MOL0     H23738   2.980   0.761   3.252  1.9109 -1.5893  1.1991
  176MOL0     H23739   3.085   0.659   3.157 -0.6563 -0.1592 -1.4420
  176MOL0     H23740   2.884   0.540   3.209  0.6037  1.2497  1.7362
  176MOL0     H23741   2.868   0.574   3.043 -1.9331  1.1691 -0.7988
  176MOL0     H23742   3.620   1.398   3.002  2.2850  0.5895 -2.9163
  176MOL0     H23743   3.818   1.546   3.002  0.6002 -1.3610  0.4621
  176MOL0     H23744   4.011   1.892   2.987  1.6221 -3.3508  1.1972
  176MOL0     H23745   4.181   2.068   2.989 -0.2824  2.4458  0.0349
  176MOL0     H23746   5.903   2.930   3.523 -1.1133 -1.4969  3.5787
  176MOL0     H23747   6.107   2.938   3.374  1.3171 -2.1299  2.3102
  176MOL0     H23748   6.238   2.827   2.994 -0.2955 -1.2061 -3.4470
  176MOL0     H23749   6.408   2.873   2.804  1.9286  0.1462 -0.3471
  176MOL0     H23750   6.658   3.012   2.750 -3.8739 -2.1769  0.5138
  176MOL0     H23751   6.663   2.997   2.929 -1.1276  3.4826 -0.7580
  176MOL0     H23752   6.893   2.917   2.762 -0.1601  1.0582  0.0247
  176MOL0     H23753   6.881   2.903   2.939  0.4059 -0.3484  0.8711
  176MOL0     H23754   6.842   3.177   2.915  0.2175  0.6598 -1.3461
  176MOL0     H23755   6.924   3.149   2.759 -0.7098  1.5335 -0.3110
  176MOL0     H23756   7.104   3.024   2.862 -0.6144 -1.9468  0.6403
  176MOL0     H23757   7.043   3.048   3.026  1.9525  0.9732  0.5751
  176MOL0     H23758   7.190   3.430   2.954 -0.2680  0.2980 -1.1405
  176MOL0     H23759   6.712   2.678   3.029 -0.5996 -0.3935 -3.0099
  176MOL0     H23760   6.538   2.632   3.218 -0.5801  1.4200  0.3637
  177MOL0     O23761   7.371   3.302   4.348  0.2295  0.3115 -0.1715
  177MOL0     C23762   7.424   3.202   4.409  1.3048 -0.0937 -0.0356
  177MOL0     O23763   7.378   3.157   4.526 -0.6258 -0.4337 -0.4869
  177MOL0     C23764   7.266   3.205   4.589  0.4813 -0.0526 -0.2565
  177MOL0     C23765   7.257   3.328   4.658 -0.3578 -0.5139  0.3361
  177MOL0     C23766   7.137   3.377   4.706  0.8975 -0.1904 -0.1481
  177MOL0     C23767   7.023   3.296   4.697  0.5843 -0.6184 -0.6182
  177MOL0     O23768   6.895   3.320   4.741  0.6257  0.0992 -0.3308
  177MOL0     C23769   6.874   3.450   4.795 -0.3737 -0.2127  0.4989
  177MOL0     C23770   6.729   3.469   4.830  0.3349 -0.2119 -1.1417
  177MOL0     C23771   6.706   3.422   4.978 -0.2137 -0.7547 -0.4692
  177MOL0     C23772   6.555   3.436   5.001 -0.0272  0.3428  0.2152
  177MOL0     C23773   6.515   3.377   5.136  0.6279  0.1529 -0.2155
  177MOL0     C23774   6.366   3.412   5.174  0.3018  1.0572  0.6878
  177MOL0     C23775   6.328   3.335   5.312 -0.2024 -0.2158  0.5282
  177MOL0     C23776   6.209   3.403   5.371  0.0040 -0.0333 -0.4464
  177MOL0     N23777   6.242   3.526   5.446 -0.3804  0.6647  0.6406
  177MOL0     C23778   6.265   3.537   5.577  0.3106  0.5476 -0.1507
  177MOL0     C23779   6.283   3.668   5.606  0.5945  0.1846  0.1876
  177MOL0     C23780   6.317   3.710   5.745 -0.2418 -0.2315 -0.2573
  177MOL0     C23781   6.242   3.836   5.777  0.1717 -0.1748  0.1437
  177MOL0     C23782   6.096   3.812   5.786 -0.2668  0.2548  0.6580
  177MOL0     C23783   6.018   3.937   5.823 -0.3169  0.9484 -1.1421
  177MOL0     O23784   5.891   3.886   5.857  0.4163 -0.3033 -0.2140
  177MOL0     C23785   5.808   3.972   5.934 -0.2298 -0.0745 -1.0856
  177MOL0     C23786   5.829   4.117   5.938 -0.4426  1.1539 -1.1590
  177MOL0     C23787   5.744   4.192   6.015 -0.4423 -0.5262 -0.6391
  177MOL0     C23788   5.782   4.343   6.024  1.1011  0.4317  0.7273
  177MOL0     C23789   5.637   4.131   6.090  0.2755 -0.2382  0.8673
  177MOL0     C23790   5.531   4.203   6.155 -0.1225 -0.6689 -0.3912
  177MOL0     O23791   5.484   4.142   6.267  0.3638 -0.6534 -0.0143
  177MOL0     C23792   5.384   4.206   6.331 -0.4691 -0.2722  0.2699
  177MOL0     C23793   5.395   4.331   6.392 -0.0680 -0.9605  0.7468
  177MOL0     C23794   5.287   4.394   6.453  0.4953  0.5943 -0.3777
  177MOL0     C23795   5.174   4.322   6.471  0.5201  0.2430  0.9245
  177MOL0     O23796   5.071   4.396   6.522 -0.0184  0.4322 -0.0326
  177MOL0     C23797   4.933   4.363   6.492 -1.0186 -0.3027  0.2011
  177MOL0     C23798   4.865   4.272   6.596 -0.2762 -0.0112 -0.2171
  177MOL0     C23799   4.948   4.238   6.722  0.2708  0.1342 -1.6306
  177MOL0     C23800   4.877   4.280   6.853  0.5349 -0.4554  0.1414
  177MOL0     C23801   4.958   4.259   6.979  0.9062  0.1823 -0.0472
  177MOL0     C23802   4.870   4.298   7.101 -0.1436  0.5231  0.3793
  177MOL0     C23803   4.896   4.202   7.221 -0.5079  0.4403 -0.1329
  177MOL0     C23804   4.797   4.227   7.339 -0.1850  0.3095 -0.3858
  177MOL0    Cl23805   4.633   4.197   7.284  0.2204  0.0990 -0.0207
  177MOL0     C23806   5.160   4.196   6.423 -0.5062 -0.4560  0.5727
  177MOL0     C23807   5.262   4.137   6.353 -0.7084  0.3910 -0.5749
  177MOL0     O23808   5.493   4.308   6.113  0.4480  0.2865 -0.0029
  177MOL0     C23809   5.613   3.997   6.070 -0.3535  1.9119 -0.7291
  177MOL0     C23810   5.706   3.913   6.001  1.1138 -0.5342 -0.4486
  177MOL0     N23811   6.278   3.734   5.489 -0.3878  0.3184 -0.0270
  177MOL0     N23812   6.251   3.655   5.398  1.1087 -0.2009 -0.3335
  177MOL0     C23813   7.034   3.172   4.635  1.0081 -0.0328  0.0760
  177MOL0     C23814   7.154   3.123   4.587 -0.1489 -0.8989 -0.7174
  177MOL0     C23815   7.534   3.127   4.354 -0.1938 -0.3036  1.2090
  177MOL0     C23816   7.542   3.097   4.216 -0.4633 -1.6420 -0.5159
  177MOL0     C23817   7.664   3.049   4.159  0.3194 -1.1807 -0.5398
  177MOL0     C23818   7.778   3.021   4.243  0.9304 -0.6150  0.3639
  177MOL0     O23819   7.894   2.968   4.199 -0.3175 -0.2708  0.4743
  177MOL0     C23820   7.885   2.906   4.067  0.4937 -0.2028  0.6160
  177MOL0     C23821   8.001   2.810   4.042 -0.8888  0.8918  0.0505
  177MOL0     C23822   8.134   2.874   4.044  0.0452  0.3992 -0.0011
  177MOL0     C23823   8.247   2.771   4.047  0.0711  0.3009 -0.3814
  177MOL0     C23824   8.376   2.845   4.044  0.3781  0.1366  0.4002
  177MOL0     C23825   8.474   2.912   4.025 -0.2662  0.0083  0.1365
  177MOL0     C23826   7.758   3.031   4.377 -0.1264  0.2059 -0.3326
  177MOL0     C23827   7.641   3.094   4.435 -0.0991  0.8568 -0.4326
  177MOL0     H23828   7.351   3.382   4.666  0.5397 -1.4640 -2.5710
  177MOL0     H23829   7.136   3.476   4.751 -1.6282 -0.1101 -0.2365
  177MOL0     H23830   6.938   3.467   4.883 -0.3182  1.7368  0.1087
  177MOL0     H23831   6.889   3.516   4.710 -2.7433 -1.4027 -0.9281
  177MOL0     H23832   6.695   3.573   4.824 -1.1293 -0.6344 -0.4950
  177MOL0     H23833   6.657   3.410   4.774 -1.0730  0.6432 -0.3109
  177MOL0     H23834   6.732   3.316   4.981  2.0961 -0.2108  0.4274
  177MOL0     H23835   6.756   3.477   5.058 -1.6348  1.2927 -0.9029
  177MOL0     H23836   6.518   3.539   5.004 -3.9864 -0.8522 -1.0301
  177MOL0     H23837   6.492   3.382   4.930  2.2729 -0.8586 -0.9967
  177MOL0     H23838   6.517   3.269   5.152 -2.3021  0.0735  0.2807
  177MOL0     H23839   6.580   3.416   5.215  0.3649  1.9282 -0.8299
  177MOL0     H23840   6.348   3.520   5.184 -1.1778  0.9684 -0.5680
  177MOL0     H23841   6.289   3.375   5.106  0.8190  0.2923  0.5155
  177MOL0     H23842   6.304   3.230   5.298 -1.3631  0.3363 -2.3865
  177MOL0     H23843   6.421   3.344   5.369 -0.6615  0.5836  1.1732
  177MOL0     H23844   6.175   3.327   5.443 -2.4731 -1.5747 -3.0415
  177MOL0     H23845   6.140   3.410   5.286 -1.3805 -0.8672  0.5557
  177MOL0     H23846   6.256   3.449   5.640 -1.0679  0.9178  0.1948
  177MOL0     H23847   6.289   3.626   5.809  0.7013 -0.0950  0.3662
  177MOL0     H23848   6.425   3.720   5.761 -0.5114  0.2201  1.5227
  177MOL0     H23849   6.253   3.901   5.690 -1.0707 -2.1837 -1.5953
  177MOL0     H23850   6.279   3.889   5.866  1.0776  2.4172 -1.6743
  177MOL0     H23851   6.077   3.731   5.856  0.4375 -0.2503  0.2758
  177MOL0     H23852   6.075   3.782   5.683 -0.2786 -0.5568  0.8957
  177MOL0     H23853   6.016   3.999   5.733 -2.8997  0.0567 -1.8037
  177MOL0     H23854   6.067   3.988   5.906 -3.3515  2.5873 -0.2151
  177MOL0     H23855   5.911   4.167   5.887  3.1304  1.3329  3.9840
  177MOL0     H23856   5.864   4.365   5.955 -0.6936  2.2730 -1.0074
  177MOL0     H23857   5.694   4.400   5.991  1.3590  1.5960  1.9759
  177MOL0     H23858   5.793   4.369   6.129  0.6199 -0.4698  1.0112
  177MOL0     H23859   5.491   4.380   6.377 -1.2750  1.0566 -0.8431
  177MOL0     H23860   5.292   4.499   6.482 -3.2156  0.7705  0.0673
  177MOL0     H23861   4.891   4.464   6.491  0.4810  0.3419  0.4040
  177MOL0     H23862   4.924   4.316   6.394  2.2967 -0.0756 -0.2990
  177MOL0     H23863   4.774   4.321   6.632 -1.4785 -2.6707  0.5899
  177MOL0     H23864   4.830   4.183   6.542  0.9918  1.3530 -3.5520
  177MOL0     H23865   5.045   4.286   6.736 -0.8407  1.9715  0.5520
  177MOL0     H23866   4.975   4.132   6.730  0.8724  0.3743 -0.1316
  177MOL0     H23867   4.859   4.386   6.834  2.8025 -0.0286 -0.0081
  177MOL0     H23868   4.788   4.217   6.854  1.5797 -2.0451 -1.6915
  177MOL0     H23869   5.050   4.320   6.975  1.0163 -0.0240 -0.7985
  177MOL0     H23870   4.981   4.153   6.986 -1.7611 -0.4852 -0.4766
  177MOL0     H23871   4.877   4.403   7.131  0.3023  1.0821 -1.5447
  177MOL0     H23872   4.767   4.280   7.069 -0.0137 -0.2976  0.4006
  177MOL0     H23873   4.999   4.226   7.251  0.2553  0.0668 -2.2843
  177MOL0     H23874   4.904   4.099   7.187  0.2886 -0.0049  1.3122
  177MOL0     H23875   4.812   4.324   7.387 -0.3375 -0.5473  1.4519
  177MOL0     H23876   4.814   4.155   7.420  3.6162  0.8646 -0.4973
  177MOL0     H23877   5.074   4.131   6.434 -1.3175  0.6413  0.9074
  177MOL0     H23878   5.235   4.037   6.320 -0.7294  0.0982  0.3014
  177MOL0     H23879   5.525   3.953   6.116  1.1230  1.5067  1.9564
  177MOL0     H23880   5.700   3.806   5.992 -0.6671 -0.3445 -2.2050
  177MOL0     H23881   6.944   3.111   4.636  1.0609 -0.1961 -1.7642
  177MOL0     H23882   7.166   3.029   4.534  0.2371 -0.8516 -0.7128
  177MOL0     H23883   7.457   3.117   4.151 -0.0372 -4.2534 -2.0270
  177MOL0     H23884   7.656   3.004   4.060 -2.0226 -2.7333  0.2605
  177MOL0     H23885   7.793   2.849   4.074 -0.2000  0.6846 -0.7659
  177MOL0     H23886   7.879   2.976   3.983 -1.3288  0.5260  1.3120
  177MOL0     H23887   7.989   2.770   3.941 -1.1665  1.3952 -0.1220
  177MOL0     H23888   7.997   2.729   4.114 -2.0037 -0.8472 -1.8436
  177MOL0     H23889   8.146   2.940   4.130  0.5715 -1.4192  1.4117
  177MOL0     H23890   8.151   2.942   3.961  5.1635  1.8852  1.8835
  177MOL0     H23891   8.241   2.715   3.954  0.7620 -2.4746  1.1468
  177MOL0     H23892   8.233   2.701   4.130  0.7761  0.5119 -0.0770
  177MOL0     H23893   8.560   2.976   4.014 -0.5475  0.6453  1.4112
  177MOL0     H23894   7.834   2.999   4.448 -0.4610 -5.6557 -2.1082
  177MOL0     H23895   7.640   3.117   4.541  0.0572  1.8635 -0.6461
  178MOL0     O23896   4.717   5.493   3.030 -0.0350 -0.2862 -0.0509
  178MOL0     C23897   4.754   5.596   3.083  0.1844  0.0958  0.4305
  178MOL0     O23898   4.675   5.701   3.112  0.3590  0.0101 -0.0293
  178MOL0     C23899   4.549   5.696   3.067  0.4038 -0.3572  0.3299
  178MOL0     C23900   4.508   5.692   2.931  0.3852 -0.0966  0.5340
  178MOL0     C23901   4.369   5.703   2.896  0.4798  0.0222  0.6017
  178MOL0     C23902   4.275   5.725   2.993  0.5488 -0.5150  0.2303
  178MOL0     O23903   4.145   5.751   2.969  0.3701 -0.2506  0.5002
  178MOL0     C23904   4.071   5.680   2.862 -0.1334  0.0808  0.4464
  178MOL0     C23905   3.923   5.711   2.891  0.0495 -0.7567 -0.8179
  178MOL0     C23906   3.853   5.610   2.967 -0.7216  0.1585 -0.0139
  178MOL0     C23907   3.910   5.581   3.107 -0.1343  0.0886  0.9569
  178MOL0     C23908   3.809   5.493   3.177 -0.5684  0.3281 -0.2821
  178MOL0     C23909   3.875   5.449   3.310  0.2336  0.5956 -0.2478
  178MOL0     C23910   3.797   5.361   3.408 -0.0761 -1.0804  0.2490
  178MOL0     C23911   3.687   5.437   3.480 -0.1106  0.1394 -1.0177
  178MOL0     N23912   3.675   5.387   3.617  0.5107 -0.4381  0.0078
  178MOL0     C23913   3.772   5.396   3.715 -0.2065  0.1844 -0.4096
  178MOL0     C23914   3.703   5.353   3.827  0.3121  0.4123 -0.4618
  178MOL0     C23915   3.762   5.350   3.961  0.0761  0.0335  0.1959
  178MOL0     C23916   3.655   5.355   4.069 -0.2568  0.7790  0.1927
  178MOL0     C23917   3.609   5.501   4.099 -0.1949 -0.1705 -0.5771
  178MOL0     C23918   3.460   5.512   4.120  0.5677 -0.1475  0.7001
  178MOL0     O23919   3.436   5.647   4.162  0.4712  0.2509  0.9010
  178MOL0     C23920   3.312   5.698   4.166  0.3464 -0.4189  0.0137
  178MOL0     C23921   3.305   5.842   4.200  0.8243  0.4502  0.2895
  178MOL0     C23922   3.192   5.912   4.207 -0.7516 -0.3662 -0.6582
  178MOL0     C23923   3.201   6.062   4.242  0.0023  0.1252 -0.6015
  178MOL0     C23924   3.075   5.845   4.181  0.4142  0.1525  0.5530
  178MOL0     C23925   2.935   5.902   4.175 -1.0043 -0.6087  0.2770
  178MOL0     O23926   2.850   5.823   4.240  1.1982  0.4437 -0.1560
  178MOL0     C23927   2.720   5.853   4.243  0.2664 -1.2201 -0.2270
  178MOL0     C23928   2.633   5.759   4.178 -0.5404 -0.0164  0.6354
  178MOL0     C23929   2.496   5.772   4.192 -0.8807 -0.3325  0.2725
  178MOL0     C23930   2.435   5.874   4.264  1.3134  0.1336  0.9751
  178MOL0     O23931   2.299   5.872   4.278 -0.4818 -0.9219  0.1885
  178MOL0     C23932   2.226   5.876   4.156 -0.1276  0.0927 -0.5414
  178MOL0     C23933   2.265   5.997   4.067  0.1971 -0.7680 -0.6346
  178MOL0     C23934   2.209   6.134   4.122 -0.0303  0.6115 -0.4044
  178MOL0     C23935   2.062   6.143   4.096 -0.2196  0.5860 -0.3876
  178MOL0     C23936   1.980   6.258   4.172 -0.0131  0.4971 -0.3497
  178MOL0     C23937   1.830   6.249   4.167 -0.6171 -0.3401  1.1315
  178MOL0     C23938   1.758   6.112   4.173  0.5066  0.5428 -1.0646
  178MOL0     C23939   1.618   6.117   4.241 -0.3950 -0.1159  0.7162
  178MOL0    Cl23940   1.524   6.242   4.141 -0.3158 -0.2568  0.7005
  178MOL0     C23941   2.516   5.972   4.327 -0.5213  0.0847  0.5026
  178MOL0     C23942   2.658   5.961   4.310  0.0470 -0.2978 -0.0462
  178MOL0     O23943   2.918   6.008   4.119  0.3240  0.2531  0.0949
  178MOL0     C23944   3.077   5.704   4.142  0.1124 -0.1647  0.9206
  178MOL0     C23945   3.196   5.628   4.129 -0.3121  0.0872 -0.3284
  178MOL0     N23946   3.582   5.298   3.789  0.4721  0.1104  0.4342
  178MOL0     N23947   3.557   5.327   3.665 -0.2435  0.0292 -0.6368
  178MOL0     C23948   4.312   5.729   3.129 -0.4280 -0.5015 -0.3614
  178MOL0     C23949   4.449   5.711   3.168  0.3182 -1.2986  0.2724
  178MOL0     C23950   4.898   5.608   3.113 -0.2330 -0.4447  0.0360
  178MOL0     C23951   4.950   5.734   3.135  0.5869  0.0288 -0.2201
  178MOL0     C23952   5.081   5.743   3.170  0.2414 -0.4184 -0.3140
  178MOL0     C23953   5.159   5.632   3.193 -0.9169  0.3542  0.9371
  178MOL0     O23954   5.282   5.671   3.228  0.0690  0.6419  0.9426
  178MOL0     C23955   5.390   5.584   3.192 -0.7676  0.9094  0.2389
  178MOL0     C23956   5.519   5.658   3.228 -0.7502 -0.2506  0.3034
  178MOL0     C23957   5.527   5.648   3.380 -1.4349 -0.3140 -0.3115
  178MOL0     C23958   5.670   5.691   3.426  0.1779  0.0389  0.0112
  178MOL0     C23959   5.673   5.726   3.567 -0.8977  0.8158  0.3467
  178MOL0     C23960   5.675   5.757   3.685 -0.8594 -0.4591 -0.5908
  178MOL0     C23961   5.105   5.505   3.163 -1.1958  0.1877 -1.3720
  178MOL0     C23962   4.979   5.496   3.117  0.0457  0.1682  0.5320
  178MOL0     H23963   4.586   5.691   2.856 -2.2700 -1.6489 -2.4355
  178MOL0     H23964   4.328   5.708   2.796  1.5184  0.0709  0.1704
  178MOL0     H23965   4.101   5.706   2.760  1.3253 -0.7156  0.6406
  178MOL0     H23966   4.090   5.572   2.860  1.3356  0.2829 -2.5826
  178MOL0     H23967   3.909   5.811   2.933  1.3550  0.1575 -2.4321
  178MOL0     H23968   3.855   5.709   2.805 -1.1836  0.3791  0.0750
  178MOL0     H23969   3.753   5.649   2.986 -0.3923  1.6484 -1.1027
  178MOL0     H23970   3.831   5.522   2.905 -0.8046  0.5839 -0.5920
  178MOL0     H23971   4.010   5.538   3.095 -0.6519 -1.2650  1.3221
  178MOL0     H23972   3.921   5.673   3.165 -1.2516  1.5812 -1.0514
  178MOL0     H23973   3.712   5.541   3.190 -1.3068 -1.1468 -0.1939
  178MOL0     H23974   3.800   5.411   3.105  3.3675  0.2395 -0.9238
  178MOL0     H23975   3.955   5.383   3.276 -1.4672 -1.0799 -1.2087
  178MOL0     H23976   3.913   5.536   3.365  1.8185 -1.3392  1.9486
  178MOL0     H23977   3.758   5.269   3.362  1.1358  0.1220 -3.5393
  178MOL0     H23978   3.875   5.326   3.476  2.1040  0.4807 -1.2890
  178MOL0     H23979   3.590   5.424   3.432 -0.5755 -0.9512  0.1528
  178MOL0     H23980   3.708   5.544   3.494 -0.0120  0.2082 -1.6760
  178MOL0     H23981   3.871   5.439   3.717  1.3820 -3.0824 -1.7640
  178MOL0     H23982   3.823   5.261   3.979 -0.8090 -0.8425 -0.9784
  178MOL0     H23983   3.823   5.441   3.972 -2.5171  2.3337 -2.5008
  178MOL0     H23984   3.705   5.309   4.155 -0.2920  0.8416  0.2464
  178MOL0     H23985   3.579   5.278   4.051  0.5836 -0.3978  1.4144
  178MOL0     H23986   3.656   5.562   4.022  0.4219  0.5433  0.3601
  178MOL0     H23987   3.658   5.525   4.193 -0.0713 -1.2993 -0.3431
  178MOL0     H23988   3.431   5.431   4.186  0.0695 -1.0408 -0.5779
  178MOL0     H23989   3.404   5.489   4.029  0.4861  0.1024  0.6860
  178MOL0     H23990   3.387   5.908   4.227  0.1290  1.8310 -0.8347
  178MOL0     H23991   3.120   6.119   4.196 -1.4287 -1.0165  0.4025
  178MOL0     H23992   3.218   6.079   4.349  0.7502 -0.3154 -0.6487
  178MOL0     H23993   3.292   6.099   4.195 -0.2363  1.4787 -0.0466
  178MOL0     H23994   2.683   5.673   4.136 -1.8116 -0.7459  0.5833
  178MOL0     H23995   2.438   5.686   4.160  1.2930 -2.0184  0.6095
  178MOL0     H23996   2.253   5.787   4.098  3.5587  0.1146  0.8337
  178MOL0     H23997   2.119   5.869   4.175 -0.1741 -0.9281 -1.0900
  178MOL0     H23998   2.373   6.004   4.051  0.1500  1.3214 -0.2553
  178MOL0     H23999   2.233   5.983   3.964 -2.2723 -0.4801  0.0301
  178MOL0     H24000   2.268   6.212   4.071  2.8773  0.5758  2.5648
  178MOL0     H24001   2.236   6.150   4.227  1.1916  0.9117 -0.7451
  178MOL0     H24002   2.045   6.150   3.988  0.9955 -0.0770 -0.6546
  178MOL0     H24003   2.025   6.046   4.130  2.1868 -0.5992 -0.8794
  178MOL0     H24004   2.003   6.356   4.131 -0.3606  1.0486  0.7308
  178MOL0     H24005   2.006   6.264   4.278 -0.3351 -2.5641  0.0071
  178MOL0     H24006   1.792   6.305   4.254  0.3659  0.5357  1.0210
  178MOL0     H24007   1.795   6.305   4.080  0.7812 -1.1181  0.0315
  178MOL0     H24008   1.819   6.049   4.238 -1.7553 -0.4293  0.2265
  178MOL0     H24009   1.745   6.057   4.079 -0.3405 -4.0884  1.4640
  178MOL0     H24010   1.622   6.136   4.349  0.1958  0.9205  0.5319
  178MOL0     H24011   1.571   6.019   4.232 -1.5240  0.4206  0.5135
  178MOL0     H24012   2.470   6.052   4.383 -0.2633  1.4148 -1.0915
  178MOL0     H24013   2.712   6.042   4.358  2.9397 -0.1093 -3.1898
  178MOL0     H24014   2.983   5.663   4.108  0.7946 -0.4337 -0.7361
  178MOL0     H24015   3.191   5.523   4.103 -1.4319  0.0165  0.1170
  178MOL0     H24016   4.235   5.742   3.204 -1.1548  0.5781 -1.2544
  178MOL0     H24017   4.481   5.723   3.271 -1.3304 -2.0601  0.9170
  178MOL0     H24018   4.885   5.821   3.130  0.9489  0.2988 -0.3114
  178MOL0     H24019   5.112   5.841   3.205 -2.2365 -0.2479  1.7214
  178MOL0     H24020   5.384   5.489   3.247  2.2659  0.9342  0.7700
  178MOL0     H24021   5.393   5.562   3.085 -0.4787  0.8180  0.2652
  178MOL0     H24022   5.525   5.765   3.207  1.0564 -0.0959  1.4370
  178MOL0     H24023   5.597   5.602   3.175 -1.0436 -1.7772  1.4110
  178MOL0     H24024   5.517   5.543   3.407  0.0908 -0.1011  1.2506
  178MOL0     H24025   5.451   5.705   3.435 -0.8812  0.8095 -0.6835
  178MOL0     H24026   5.708   5.770   3.360  0.4477 -0.1015 -0.0042
  178MOL0     H24027   5.746   5.613   3.412  0.3747  0.2708 -0.2149
  178MOL0     H24028   5.661   5.798   3.783  2.2570  0.5946 -0.4735
  178MOL0     H24029   5.166   5.416   3.168  1.6060  2.0092 -0.7078
  178MOL0     H24030   4.941   5.397   3.090 -1.0656  0.8258 -0.4196
  179MOL0     O24031   8.374  10.046   5.798 -0.4037 -0.1825  0.1859
  179MOL0     C24032   8.442  10.123   5.863  0.5983  0.1056 -0.2187
  179MOL0     O24033   8.417  10.151   5.998 -0.3202 -0.2989  0.5739
  179MOL0     C24034   8.320  10.087   6.072  0.4246 -0.3803 -0.3153
  179MOL0     C24035   8.353  10.007   6.174  0.1871  0.8188  0.5343
  179MOL0     C24036   8.253   9.956   6.251  0.6470 -0.5782 -0.3974
  179MOL0     C24037   8.112   9.980   6.243 -0.7305  0.3146 -0.3572
  179MOL0     O24038   8.034   9.916   6.335 -0.7414 -0.1563  0.4222
  179MOL0     C24039   7.894   9.912   6.323  0.0378 -0.9363  0.1632
  179MOL0     C24040   7.835   9.853   6.195 -0.7031  0.1456  0.7474
  179MOL0     C24041   7.874   9.704   6.185 -0.4085  0.1159  1.2126
  179MOL0     C24042   8.010   9.668   6.125 -0.5514  0.1646 -0.3463
  179MOL0     C24043   8.035   9.540   6.029  0.6085  0.4301 -0.3397
  179MOL0     C24044   8.168   9.555   5.942  1.1750  0.6958  0.1859
  179MOL0     C24045   8.285   9.575   6.037  0.2702 -1.0405 -0.7849
  179MOL0     C24046   8.422   9.589   5.959  0.0468  0.8573 -0.2562
  179MOL0     N24047   8.524   9.640   6.050 -0.6886 -0.5542  0.0812
  179MOL0     C24048   8.634   9.717   6.011  0.1584 -0.4278  0.2081
  179MOL0     C24049   8.725   9.709   6.111  0.5237 -0.5620 -0.4581
  179MOL0     C24050   8.867   9.759   6.114  0.1771  0.6992  0.1882
  179MOL0     C24051   8.965   9.682   6.035  0.7377  0.1334 -0.1375
  179MOL0     C24052   8.986   9.751   5.893 -0.0436  0.3210 -0.4234
  179MOL0     C24053   9.103   9.691   5.818 -0.6699  0.4187  0.1514
  179MOL0     O24054   9.229   9.713   5.881 -0.3740  0.0118  0.7062
  179MOL0     C24055   9.351   9.668   5.824 -0.2131 -0.2658  0.3204
  179MOL0     C24056   9.411   9.553   5.860  0.0686  0.5773 -0.0108
  179MOL0     C24057   9.537   9.505   5.809  1.2420  0.3871  0.0422
  179MOL0     C24058   9.596   9.369   5.858 -1.7908 -0.9724 -0.0828
  179MOL0     C24059   9.604   9.591   5.722 -0.2041  0.6737 -0.0048
  179MOL0     C24060   9.738   9.558   5.675  0.1458 -0.2625 -0.5080
  179MOL0     O24061   9.797   9.633   5.578  0.1391 -0.2750  0.6613
  179MOL0     C24062   9.928   9.606   5.551 -0.1228  0.0237 -0.0233
  179MOL0     C24063  10.035   9.665   5.626 -0.0574 -0.1493 -0.3844
  179MOL0     C24064  10.167   9.607   5.605  0.1718 -0.0247 -0.4107
  179MOL0     C24065  10.194   9.506   5.511  0.4236 -0.4257 -0.1340
  179MOL0     O24066  10.319   9.456   5.489 -0.3260  0.4326 -0.0595
  179MOL0     C24067  10.424   9.548   5.501  0.2621  0.6384 -0.2875
  179MOL0     C24068  10.416   9.681   5.426  0.4174 -0.4713 -0.9767
  179MOL0     C24069  10.558   9.733   5.389 -0.0295 -0.2766 -0.1427
  179MOL0     C24070  10.555   9.878   5.328 -1.0196  0.8291 -0.2743
  179MOL0     C24071  10.696   9.903   5.267 -0.0278  0.0485  0.1103
  179MOL0     C24072  10.711  10.041   5.193  0.7064  0.1225 -0.4198
  179MOL0     C24073  10.853  10.063   5.149 -0.7369  0.2111  0.0672
  179MOL0     C24074  10.937  10.116   5.269 -0.9645  0.9685 -0.5901
  179MOL0    Cl24075  11.110  10.126   5.209  0.2833 -0.6422  0.6619
  179MOL0     C24076  10.083   9.474   5.428 -0.2629 -0.0653  0.6278
  179MOL0     C24077   9.958   9.518   5.444  0.0409  0.1192  0.1120
  179MOL0     O24078   9.794   9.458   5.716  0.0373  0.3753 -0.1289
  179MOL0     C24079   9.543   9.707   5.686  1.1447 -0.2163 -0.0648
  179MOL0     C24080   9.416   9.748   5.737 -0.7116 -0.2683  1.5063
  179MOL0     N24081   8.675   9.636   6.213  0.0335 -0.4458 -0.2801
  179MOL0     N24082   8.550   9.604   6.181 -0.0539  0.3353  0.8222
  179MOL0     C24083   8.081  10.066   6.136 -0.3270  0.4144  0.0426
  179MOL0     C24084   8.181  10.120   6.048 -0.0718  0.2852 -0.2613
  179MOL0     C24085   8.550  10.199   5.800 -0.2589  1.1368 -0.0312
  179MOL0     C24086   8.662  10.233   5.883  0.3108 -0.5086  0.1744
  179MOL0     C24087   8.766  10.302   5.822 -0.7640  0.2648  0.4122
  179MOL0     C24088   8.766  10.343   5.684  0.1115 -0.2204  0.4592
  179MOL0     O24089   8.885  10.399   5.642 -0.1541  0.3455 -0.5768
  179MOL0     C24090   8.889  10.479   5.533 -0.7146  0.1758  0.0767
  179MOL0     C24091   9.021  10.549   5.520  0.6415 -0.0417  0.7260
  179MOL0     C24092   9.038  10.607   5.381  0.0096  0.1791  0.2379
  179MOL0     C24093   9.183  10.669   5.353  1.0226  0.2593  0.0655
  179MOL0     C24094   9.206  10.797   5.417  0.9588  0.1042 -0.4938
  179MOL0     C24095   9.236  10.906   5.456  1.1004 -0.0612 -0.0139
  179MOL0     C24096   8.654  10.297   5.611  0.0955  0.4666 -0.1133
  179MOL0     C24097   8.552  10.230   5.668  0.2696  1.4243  0.4869
  179MOL0     H24098   8.452   9.979   6.209 -0.1466 -0.4928  0.4851
  179MOL0     H24099   8.292   9.905   6.338  1.5056 -0.1532 -0.5238
  179MOL0     H24100   7.854   9.859   6.409 -0.3255 -2.4981 -0.9241
  179MOL0     H24101   7.857  10.015   6.326  0.8482 -0.6424  0.1586
  179MOL0     H24102   7.726   9.862   6.202 -0.7624 -1.6235  4.4831
  179MOL0     H24103   7.867   9.899   6.101  3.5736 -0.6854  1.6002
  179MOL0     H24104   7.853   9.649   6.277 -0.1773  0.5966  1.5616
  179MOL0     H24105   7.812   9.661   6.106  0.6260  2.0607 -0.7784
  179MOL0     H24106   8.051   9.756   6.074  0.0190 -0.1369 -0.4167
  179MOL0     H24107   8.080   9.642   6.205  2.7265 -1.5322 -3.4909
  179MOL0     H24108   8.026   9.454   6.096 -1.5384  1.4915  0.8676
  179MOL0     H24109   7.948   9.537   5.962  0.7029 -0.7968 -0.4431
  179MOL0     H24110   8.184   9.468   5.878  2.2118  1.2733 -0.3662
  179MOL0     H24111   8.154   9.643   5.879  0.4917 -2.2087 -4.1485
  179MOL0     H24112   8.273   9.665   6.098 -0.6811 -2.8025  1.7757
  179MOL0     H24113   8.288   9.487   6.102 -1.1294 -0.9734 -0.6030
  179MOL0     H24114   8.413   9.672   5.889  3.0337  2.7882  1.3773
  179MOL0     H24115   8.446   9.488   5.925  0.0548  0.8287 -0.1643
  179MOL0     H24116   8.634   9.774   5.919  0.6482  2.8059  2.0381
  179MOL0     H24117   8.872   9.865   6.085  0.3584  0.3170 -1.2106
  179MOL0     H24118   8.904   9.768   6.217  1.0688  2.8315 -0.2469
  179MOL0     H24119   8.919   9.585   6.016  0.1374 -0.2162  2.6808
  179MOL0     H24120   9.061   9.668   6.086  1.0188  1.1196 -0.3829
  179MOL0     H24121   9.011   9.857   5.903 -0.0916  0.2253  0.9643
  179MOL0     H24122   8.904   9.732   5.823  2.2596 -3.5252 -2.4503
  179MOL0     H24123   9.101   9.709   5.710 -2.1523  0.6602  0.1973
  179MOL0     H24124   9.082   9.584   5.822  2.2154 -0.1844  1.0952
  179MOL0     H24125   9.364   9.492   5.937  0.2504  0.2968 -0.1214
  179MOL0     H24126   9.692   9.381   5.909 -0.4078 -1.1880 -2.4673
  179MOL0     H24127   9.537   9.323   5.939 -0.3302  1.7502  2.7300
  179MOL0     H24128   9.621   9.296   5.780  0.6999 -2.9357  2.3658
  179MOL0     H24129  10.012   9.740   5.700 -1.6610 -0.9022 -0.0727
  179MOL0     H24130  10.242   9.655   5.667 -0.1752 -0.5599  0.4247
  179MOL0     H24131  10.442   9.561   5.608  0.3752 -4.4275  0.5844
  179MOL0     H24132  10.513   9.493   5.468  1.7954  2.5219  0.4522
  179MOL0     H24133  10.349   9.659   5.342 -1.9822 -1.3752  1.0821
  179MOL0     H24134  10.363   9.759   5.481  1.2754 -1.4270  1.3314
  179MOL0     H24135  10.602   9.665   5.316 -2.0654 -1.5852 -0.2538
  179MOL0     H24136  10.621   9.743   5.477 -1.4604 -0.5007  0.9463
  179MOL0     H24137  10.468   9.888   5.262 -0.4263  0.9314 -1.0549
  179MOL0     H24138  10.544   9.952   5.407  0.9311  1.4215 -0.5114
  179MOL0     H24139  10.723   9.829   5.191 -0.3975  2.1541 -2.2352
  179MOL0     H24140  10.770   9.899   5.346 -1.7983 -1.9587  1.7916
  179MOL0     H24141  10.651  10.018   5.104  0.3129 -1.1664  0.1535
  179MOL0     H24142  10.666  10.119   5.255 -1.2305  1.1602 -2.9213
  179MOL0     H24143  10.833  10.127   5.062  1.8625  0.6732 -0.2669
  179MOL0     H24144  10.892   9.968   5.111 -2.2540 -0.1655 -0.6040
  179MOL0     H24145  10.937  10.048   5.354 -3.9788  3.1529  1.3424
  179MOL0     H24146  10.904  10.209   5.316  0.7959  0.4930  1.8093
  179MOL0     H24147  10.103   9.395   5.355  0.1477  1.9158 -1.5376
  179MOL0     H24148   9.879   9.460   5.398  3.5916 -2.5146 -3.3193
  179MOL0     H24149   9.585   9.768   5.606 -1.4875  3.5205  1.0956
  179MOL0     H24150   9.380   9.846   5.708 -2.6070 -1.2102  0.5060
  179MOL0     H24151   7.977  10.097   6.130 -0.4214  0.2814  0.9284
  179MOL0     H24152   8.158  10.183   5.962 -0.6364  1.7587  0.9317
  179MOL0     H24153   8.668  10.200   5.986  3.2404 -2.6625 -0.5495
  179MOL0     H24154   8.852  10.331   5.882 -1.1028 -0.4731  1.2746
  179MOL0     H24155   8.882  10.428   5.436  0.8754 -0.4387  0.2449
  179MOL0     H24156   8.805  10.549   5.536  0.5712  1.7665  1.9411
  179MOL0     H24157   9.090  10.468   5.546  0.1493  0.0890  2.5540
  179MOL0     H24158   9.015  10.633   5.590 -1.5105  1.3511 -0.9874
  179MOL0     H24159   8.969  10.690   5.365  1.2930  1.2888  0.3112
  179MOL0     H24160   9.014  10.528   5.309  0.2733 -0.3662  0.7431
  179MOL0     H24161   9.209  10.675   5.247  1.7839 -2.8346 -0.0096
  179MOL0     H24162   9.250  10.593   5.393 -0.2466 -1.0364 -0.1877
  179MOL0     H24163   9.281  10.995   5.495  1.0519 -0.2309  0.4362
  179MOL0     H24164   8.644  10.333   5.509 -0.4205 -0.9864 -0.5916
  179MOL0     H24165   8.468  10.203   5.604  1.2685 -0.2197 -0.1903
  180MOL0     O24166   1.579  10.112   3.747 -0.3641 -0.1925 -0.3117
  180MOL0     C24167   1.587  10.062   3.858 -0.9615 -0.6157 -0.0268
  180MOL0     O24168   1.691   9.990   3.905 -0.0132 -0.4860 -0.4558
  180MOL0     C24169   1.812   9.972   3.843 -0.5082  0.5658  0.5474
  180MOL0     C24170   1.889   9.873   3.899 -0.7533  0.9221 -0.1483
  180MOL0     C24171   2.012   9.822   3.840  1.0228 -0.3411  0.5602
  180MOL0     C24172   2.054   9.872   3.716  0.7386 -0.6672 -0.3658
  180MOL0     O24173   2.168   9.813   3.666 -0.0005 -0.5580  0.2105
  180MOL0     C24174   2.196   9.820   3.524  0.0386  0.1970  0.6356
  180MOL0     C24175   2.334   9.757   3.499 -0.0917  0.2322 -0.6335
  180MOL0     C24176   2.321   9.606   3.516  0.1276 -0.3459 -0.9073
  180MOL0     C24177   2.456   9.545   3.552  0.2044  0.0767 -0.4747
  180MOL0     C24178   2.480   9.560   3.695 -0.3360 -0.7746 -0.8623
  180MOL0     C24179   2.613   9.502   3.752 -0.1277 -0.3329 -0.3583
  180MOL0     C24180   2.732   9.595   3.707  0.4155 -1.5018 -0.3729
  180MOL0     C24181   2.865   9.553   3.762  0.1615  0.3194  0.0295
  180MOL0     N24182   2.911   9.421   3.727  0.3713  0.3331 -0.1652
  180MOL0     C24183   2.912   9.368   3.602  0.2070 -0.1366  0.1668
  180MOL0     C24184   2.958   9.242   3.616 -0.0650  1.1278 -0.6123
  180MOL0     C24185   2.959   9.124   3.523 -0.8080  0.4198 -0.3790
  180MOL0     C24186   3.107   9.088   3.486  1.2947 -0.5806  0.0894
  180MOL0     C24187   3.121   9.022   3.350  0.2146 -0.4753 -0.0701
  180MOL0     C24188   3.264   9.018   3.315  0.3201  0.9745 -1.1134
  180MOL0     O24189   3.271   8.983   3.174  0.2846  0.2137 -0.1301
  180MOL0     C24190   3.391   8.982   3.114 -0.8722  0.4954  0.3505
  180MOL0     C24191   3.514   9.008   3.167 -0.3232  0.1205  0.0662
  180MOL0     C24192   3.634   9.008   3.094 -1.0543  0.1892 -0.2345
  180MOL0     C24193   3.758   9.060   3.166  0.1102  0.1866  0.0244
  180MOL0     C24194   3.625   8.967   2.961  0.8605  0.0819 -0.0899
  180MOL0     C24195   3.746   8.960   2.877 -0.1930  0.4671 -0.0267
  180MOL0     O24196   3.861   9.020   2.918  0.8103  0.0043 -0.3540
  180MOL0     C24197   3.964   9.032   2.828 -0.2695 -0.8697  0.2458
  180MOL0     C24198   3.943   9.105   2.709 -0.0417 -0.0473 -0.1874
  180MOL0     C24199   4.044   9.124   2.612  0.5553  0.5211  0.8352
  180MOL0     C24200   4.175   9.069   2.629  0.1640 -0.1442 -0.5498
  180MOL0     O24201   4.266   9.095   2.535  0.1293 -0.2887  0.4499
  180MOL0     C24202   4.336   9.216   2.585  0.1704  0.3567  0.3543
  180MOL0     C24203   4.436   9.270   2.479 -0.9334 -0.6631  1.1288
  180MOL0     C24204   4.586   9.213   2.491  0.1497 -0.1882  0.3924
  180MOL0     C24205   4.576   9.069   2.435  0.6020 -0.3483 -0.6239
  180MOL0     C24206   4.703   9.010   2.386 -1.1404  0.6244  1.0411
  180MOL0     C24207   4.795   8.977   2.501 -0.4265  0.7343 -0.3448
  180MOL0     C24208   4.926   8.911   2.452  0.2474 -0.1122 -0.1024
  180MOL0     C24209   5.022   8.886   2.571  0.3557 -0.1973 -0.7084
  180MOL0    Cl24210   4.967   8.805   2.711  0.4808 -0.2148  0.1936
  180MOL0     C24211   4.193   8.998   2.750 -0.1644 -0.1884 -0.6903
  180MOL0     C24212   4.097   8.989   2.849  0.2456 -0.4245 -0.6145
  180MOL0     O24213   3.741   8.875   2.790  0.5174  0.0649 -0.4769
  180MOL0     C24214   3.501   8.923   2.907  0.2737  0.2421  0.0254
  180MOL0     C24215   3.388   8.938   2.984 -0.9865 -0.0497 -0.4108
  180MOL0     N24216   2.997   9.224   3.746  0.3224  0.3648  0.0721
  180MOL0     N24217   2.957   9.328   3.814 -0.6199 -0.3702  0.5419
  180MOL0     C24218   1.972   9.970   3.647  0.4021  0.6950 -0.4150
  180MOL0     C24219   1.851  10.014   3.707 -0.2363  0.1441 -0.1864
  180MOL0     C24220   1.462  10.073   3.945 -1.0087 -0.2713 -0.2513
  180MOL0     C24221   1.363  10.172   3.910  0.0627  0.1321 -0.9743
  180MOL0     C24222   1.247  10.189   3.997 -0.8823  0.0031  1.4926
  180MOL0     C24223   1.237  10.115   4.116  0.5509 -0.5137  0.3793
  180MOL0     O24224   1.138  10.135   4.207 -0.1696  0.4782 -0.5994
  180MOL0     C24225   1.032  10.231   4.193 -1.0537  0.3434  0.5314
  180MOL0     C24226   0.947  10.236   4.311 -0.4630 -0.5043  1.3621
  180MOL0     C24227   1.025  10.276   4.432 -0.3264 -0.8702  0.2359
  180MOL0     C24228   0.940  10.331   4.544 -0.1722 -0.1132  0.1906
  180MOL0     C24229   1.005  10.429   4.639  0.0309  0.1256  0.8013
  180MOL0     C24230   1.049  10.510   4.712  0.2399 -0.6610 -0.1667
  180MOL0     C24231   1.328  10.023   4.149 -0.6103 -0.3737 -0.3110
  180MOL0     C24232   1.439   9.995   4.066 -0.6517 -0.3766  0.0499
  180MOL0     H24233   1.870   9.830   3.997 -1.2188 -2.1499 -1.4600
  180MOL0     H24234   2.068   9.736   3.877 -0.3353 -1.0653  1.0228
  180MOL0     H24235   2.126   9.783   3.449  1.2848  2.0671 -1.6073
  180MOL0     H24236   2.217   9.924   3.494 -1.8600 -0.0081 -1.7032
  180MOL0     H24237   2.369   9.774   3.397  2.0079  1.9280  0.2732
  180MOL0     H24238   2.412   9.794   3.566  1.3635 -3.2372 -0.1446
  180MOL0     H24239   2.236   9.583   3.581 -1.9514  2.8007 -2.2803
  180MOL0     H24240   2.303   9.558   3.420 -0.0663 -4.5660  1.0335
  180MOL0     H24241   2.457   9.439   3.526  2.5676  0.4693 -2.3300
  180MOL0     H24242   2.537   9.589   3.494 -0.6633  0.2464 -1.5901
  180MOL0     H24243   2.466   9.663   3.728  0.4002  0.2920 -3.6016
  180MOL0     H24244   2.394   9.511   3.741 -0.1331  1.4948  2.2679
  180MOL0     H24245   2.611   9.486   3.861 -0.8469 -1.2242 -0.4893
  180MOL0     H24246   2.625   9.400   3.715  0.7107  0.2020 -1.5979
  180MOL0     H24247   2.735   9.590   3.598  0.6055  0.9601 -0.5282
  180MOL0     H24248   2.715   9.699   3.736 -0.8234 -1.4454 -1.2328
  180MOL0     H24249   2.859   9.534   3.869 -0.2092 -1.7698 -0.3049
  180MOL0     H24250   2.929   9.639   3.741 -1.5369  1.5401 -0.3570
  180MOL0     H24251   2.869   9.418   3.515 -1.2381  0.5691  1.2331
  180MOL0     H24252   2.919   9.045   3.588  1.0720  2.2095  3.2510
  180MOL0     H24253   2.894   9.132   3.435  0.7474 -0.3810 -1.6578
  180MOL0     H24254   3.149   9.011   3.551  2.7420  0.0085 -0.1117
  180MOL0     H24255   3.167   9.180   3.486  1.5130 -0.6730  2.3208
  180MOL0     H24256   3.058   9.069   3.273  1.1170 -0.3499 -0.7431
  180MOL0     H24257   3.086   8.919   3.358 -1.5910  0.0630 -0.4699
  180MOL0     H24258   3.324   8.945   3.369  0.6983 -0.9978 -3.9479
  180MOL0     H24259   3.312   9.115   3.330  0.4393  1.0509 -1.9399
  180MOL0     H24260   3.515   9.050   3.267  1.9409  0.5759 -0.0961
  180MOL0     H24261   3.828   8.978   3.186  2.4000  1.9881 -0.2010
  180MOL0     H24262   3.807   9.143   3.113  0.7045  2.4086  3.7508
  180MOL0     H24263   3.730   9.094   3.266 -5.1273  2.0347 -1.7577
  180MOL0     H24264   3.846   9.150   2.688  1.3640  3.1820 -0.3359
  180MOL0     H24265   4.017   9.166   2.515  4.7452 -1.4609 -1.4931
  180MOL0     H24266   4.261   9.290   2.615 -1.6767 -1.3374  0.1828
  180MOL0     H24267   4.391   9.190   2.676 -0.1242 -0.5911  0.2801
  180MOL0     H24268   4.400   9.253   2.377 -1.0470 -0.0641  1.0616
  180MOL0     H24269   4.448   9.379   2.477  0.6747 -0.8322  0.2649
  180MOL0     H24270   4.623   9.220   2.593  2.0642  2.5174 -0.3717
  180MOL0     H24271   4.656   9.272   2.431 -1.0283  0.7802 -0.0753
  180MOL0     H24272   4.539   8.997   2.509  1.7655 -2.0159 -1.5998
  180MOL0     H24273   4.506   9.067   2.351 -0.4570  1.1724  0.1548
  180MOL0     H24274   4.745   9.080   2.312 -0.8808 -2.5383 -2.0585
  180MOL0     H24275   4.688   8.920   2.326  1.2687 -1.0288  2.7408
  180MOL0     H24276   4.821   9.061   2.567  2.1302 -0.3550  0.1629
  180MOL0     H24277   4.740   8.901   2.556  1.7524 -2.1080 -1.8437
  180MOL0     H24278   4.977   8.980   2.385 -0.4889  1.4390  0.8829
  180MOL0     H24279   4.906   8.823   2.390 -2.9854 -0.7923  1.6537
  180MOL0     H24280   5.052   8.985   2.605  0.3240 -0.3645 -0.1937
  180MOL0     H24281   5.100   8.823   2.527 -1.0660 -1.0168 -2.1868
  180MOL0     H24282   4.294   8.962   2.771  0.6717  2.7862  1.0109
  180MOL0     H24283   4.112   8.944   2.946  1.8284 -1.5627 -1.3313
  180MOL0     H24284   3.497   8.874   2.810  2.2816 -1.3053  0.6535
  180MOL0     H24285   3.292   8.918   2.937 -1.3634 -2.3839  1.2171
  180MOL0     H24286   1.993  10.006   3.547  0.2037  1.5730 -0.1520
  180MOL0     H24287   1.781  10.076   3.653 -0.5464  0.4548  0.5635
  180MOL0     H24288   1.374  10.242   3.828  3.0322 -0.1128 -0.8852
  180MOL0     H24289   1.189  10.277   3.972 -1.0554 -0.4378  0.2844
  180MOL0     H24290   1.077  10.330   4.183  0.2572  0.0176  2.5388
  180MOL0     H24291   0.974  10.205   4.104  1.6766 -1.7680 -0.7821
  180MOL0     H24292   0.895  10.142   4.331  1.6695 -2.3436 -1.0403
  180MOL0     H24293   0.874  10.314   4.288 -1.2292 -1.4595  0.4669
  180MOL0     H24294   1.102  10.347   4.402 -1.1110 -0.7941 -1.6905
  180MOL0     H24295   1.078  10.188   4.468 -0.8420 -0.9848  0.7370
  180MOL0     H24296   0.885  10.258   4.605 -2.6681  0.6978 -0.9472
  180MOL0     H24297   0.852  10.380   4.501 -0.2263 -2.2638 -2.3732
  180MOL0     H24298   1.077  10.595   4.771  0.3694  0.3431 -1.6109
  180MOL0     H24299   1.316   9.977   4.246  0.0307  1.4891  0.7013
  180MOL0     H24300   1.497   9.907   4.093 -1.3950 -1.7809 -2.5587
  181MOL0     O24301   1.976   0.995   6.526 -0.2547 -0.1965  0.2270
  181MOL0     C24302   1.883   0.937   6.579 -0.1656 -0.0414  0.0497
  181MOL0     O24303   1.884   0.861   6.686 -0.5560  0.2471 -0.6442
  181MOL0     C24304   2.005   0.851   6.753  0.1370 -0.5243  0.0826
  181MOL0     C24305   2.113   0.792   6.704 -1.5184  0.5950  0.0391
  181MOL0     C24306   2.240   0.797   6.769 -0.0423 -0.1483  1.3633
  181MOL0     C24307   2.258   0.854   6.895 -1.1624 -0.1018  0.0946
  181MOL0     O24308   2.372   0.828   6.964 -0.4712 -0.2142 -0.2039
  181MOL0     C24309   2.490   0.910   6.945  0.0881 -0.1979  0.1914
  181MOL0     C24310   2.609   0.867   7.040 -0.3035 -0.1390 -0.8848
  181MOL0     C24311   2.742   0.911   6.994  0.8424 -0.4417 -0.3265
  181MOL0     C24312   2.843   0.853   7.095  0.1005  0.6171  0.1518
  181MOL0     C24313   2.990   0.847   7.028  1.0513 -0.4663  0.4669
  181MOL0     C24314   3.089   0.757   7.102 -0.0734 -0.0218 -0.2472
  181MOL0     C24315   3.039   0.609   7.108 -0.4625  0.5250  0.0464
  181MOL0     C24316   3.028   0.542   7.247  0.0909 -0.0680 -0.8047
  181MOL0     N24317   2.924   0.592   7.340  0.5098 -1.1989 -0.4441
  181MOL0     C24318   2.792   0.551   7.342 -0.0632 -0.4507 -0.3806
  181MOL0     C24319   2.731   0.617   7.445 -0.2603 -0.0523  0.0074
  181MOL0     C24320   2.592   0.599   7.494  0.4261 -0.3190 -0.2794
  181MOL0     C24321   2.484   0.676   7.417 -0.4868 -0.2383  0.0201
  181MOL0     C24322   2.509   0.824   7.424 -0.1928 -0.1480 -0.8657
  181MOL0     C24323   2.374   0.896   7.385  0.6777 -0.3076  0.1200
  181MOL0     O24324   2.369   1.039   7.414 -0.7977  0.1864  0.2058
  181MOL0     C24325   2.284   1.091   7.332  0.3760  0.6032  0.0835
  181MOL0     C24326   2.307   1.123   7.204 -0.0502  0.4280  0.0975
  181MOL0     C24327   2.213   1.195   7.122 -0.9340 -0.6281  0.4171
  181MOL0     C24328   2.251   1.242   6.987  0.3395  0.4363  0.9704
  181MOL0     C24329   2.085   1.212   7.175  0.8841 -0.3008  0.9540
  181MOL0     C24330   1.968   1.269   7.089 -0.4104 -0.4262  0.1899
  181MOL0     O24331   1.970   1.234   6.955 -0.0390  0.0796  0.2542
  181MOL0     C24332   1.860   1.260   6.888  0.2013 -0.3372  0.4031
  181MOL0     C24333   1.869   1.302   6.753  0.7889  0.2766 -0.6982
  181MOL0     C24334   1.750   1.314   6.677 -0.2504  0.9420  0.0771
  181MOL0     C24335   1.623   1.273   6.723 -0.3567  0.6434  0.2085
  181MOL0     O24336   1.500   1.293   6.664  0.5355 -0.2183  0.9039
  181MOL0     C24337   1.485   1.392   6.551 -1.2909 -0.2525 -0.6807
  181MOL0     C24338   1.336   1.410   6.527  0.7362 -0.0771  0.6565
  181MOL0     C24339   1.320   1.540   6.448 -0.2841  0.3695 -0.1350
  181MOL0     C24340   1.174   1.563   6.416 -0.2381  0.4371 -1.0115
  181MOL0     C24341   1.152   1.681   6.323  0.1869  0.4386  0.5140
  181MOL0     C24342   1.011   1.714   6.312  0.9086 -0.6679 -0.5947
  181MOL0     C24343   0.988   1.819   6.203 -0.7518  0.3556 -0.3715
  181MOL0     C24344   0.856   1.875   6.211  0.5135 -0.1608 -0.2639
  181MOL0    Cl24345   0.829   1.979   6.357 -0.0128 -0.1211 -0.3253
  181MOL0     C24346   1.619   1.226   6.853 -0.2618  0.3386 -0.3479
  181MOL0     C24347   1.736   1.215   6.929  0.3016 -0.6329 -0.6013
  181MOL0     O24348   1.874   1.333   7.142 -0.1571  0.2706 -0.4802
  181MOL0     C24349   2.059   1.178   7.303  0.1614 -0.4357  0.3164
  181MOL0     C24350   2.161   1.121   7.384 -0.1114 -0.5157  0.7586
  181MOL0     N24351   2.825   0.701   7.507 -0.0697  0.7012  0.3200
  181MOL0     N24352   2.934   0.697   7.429  0.3039  0.3202  0.1615
  181MOL0     C24353   2.149   0.910   6.952 -0.1761 -0.4651 -0.3131
  181MOL0     C24354   2.019   0.912   6.880  0.6507  1.2090  0.7051
  181MOL0     C24355   1.748   0.964   6.516  0.7193  0.9272 -0.1032
  181MOL0     C24356   1.631   0.924   6.581 -0.1862  0.6803  0.0671
  181MOL0     C24357   1.506   0.939   6.519 -0.6218  1.3423  0.3920
  181MOL0     C24358   1.494   1.018   6.405  0.3838 -0.6725  1.2682
  181MOL0     O24359   1.378   1.069   6.355 -0.3652 -0.3579 -0.5461
  181MOL0     C24360   1.271   0.977   6.367 -0.1594 -0.6461 -0.3883
  181MOL0     C24361   1.168   0.995   6.248  0.5215  0.1262 -0.2541
  181MOL0     C24362   1.245   0.981   6.110  0.5150  0.4995 -0.0210
  181MOL0     C24363   1.154   0.988   5.989 -0.7307 -0.2287  0.1273
  181MOL0     C24364   1.088   0.858   5.977  0.8337 -1.0127 -0.5799
  181MOL0     C24365   1.025   0.748   5.969 -0.7337  0.7282 -0.1898
  181MOL0     C24366   1.610   1.070   6.342  0.2300 -0.0816 -0.2682
  181MOL0     C24367   1.735   1.043   6.400 -0.5041 -0.7916 -0.7037
  181MOL0     H24368   2.101   0.740   6.610  0.3459 -1.2017  0.7206
  181MOL0     H24369   2.325   0.752   6.719  0.9531  2.2063  0.8205
  181MOL0     H24370   2.523   0.906   6.841 -1.4707 -0.4173 -0.3192
  181MOL0     H24371   2.472   1.017   6.964  1.2455 -0.0877  0.7375
  181MOL0     H24372   2.585   0.909   7.139 -1.4832  0.7165 -1.5161
  181MOL0     H24373   2.613   0.758   7.041 -3.1197 -0.3015 -1.2889
  181MOL0     H24374   2.755   0.877   6.890  0.9796  1.1450 -0.8577
  181MOL0     H24375   2.751   1.020   6.988  1.5476 -0.4736  0.0972
  181MOL0     H24376   2.854   0.908   7.189 -1.3452  0.0150  0.7135
  181MOL0     H24377   2.798   0.759   7.128 -1.7993  1.9009  1.5198
  181MOL0     H24378   2.983   0.797   6.931  1.9005 -1.6027  0.9596
  181MOL0     H24379   3.038   0.945   7.016 -0.6577  0.7649  2.8738
  181MOL0     H24380   3.188   0.760   7.057  0.0356 -1.3311 -0.1343
  181MOL0     H24381   3.111   0.798   7.201  0.6928 -2.3268  0.6004
  181MOL0     H24382   2.939   0.604   7.063  1.2459 -0.6631 -4.0924
  181MOL0     H24383   3.112   0.551   7.051 -0.7567  1.0877 -0.9194
  181MOL0     H24384   3.120   0.574   7.297 -2.0477  0.5402  3.1082
  181MOL0     H24385   3.013   0.435   7.230 -1.3600  0.0610 -0.4872
  181MOL0     H24386   2.741   0.486   7.273  0.2392 -0.4965 -0.5625
  181MOL0     H24387   2.566   0.493   7.500  0.7694 -0.4071 -0.3271
  181MOL0     H24388   2.600   0.642   7.595  0.7030 -0.8163 -0.0898
  181MOL0     H24389   2.388   0.665   7.468 -1.8305  0.5302 -2.1787
  181MOL0     H24390   2.478   0.636   7.315 -4.7122 -1.1887  0.4347
  181MOL0     H24391   2.595   0.850   7.362 -0.9402  2.9804 -0.7625
  181MOL0     H24392   2.539   0.852   7.526  1.3927  0.2142 -1.3984
  181MOL0     H24393   2.292   0.850   7.442  0.9955  1.2157  1.9097
  181MOL0     H24394   2.337   0.873   7.284  1.5730 -1.9038  0.1177
  181MOL0     H24395   2.407   1.104   7.167 -0.2483  0.7039 -0.5835
  181MOL0     H24396   2.360   1.234   6.974  0.3982  3.4298 -1.8612
  181MOL0     H24397   2.198   1.195   6.904  1.0369  0.6625  0.3815
  181MOL0     H24398   2.240   1.350   6.972  0.4333  0.0885 -2.6462
  181MOL0     H24399   1.967   1.322   6.712  1.1726  3.1594  1.3100
  181MOL0     H24400   1.751   1.350   6.574  1.1937  0.3394 -0.1524
  181MOL0     H24401   1.532   1.485   6.581 -1.4647 -0.4957  0.4084
  181MOL0     H24402   1.525   1.346   6.461  2.4747 -0.0590  0.7394
  181MOL0     H24403   1.296   1.326   6.469  1.8113  2.3664 -4.1496
  181MOL0     H24404   1.283   1.434   6.620  1.4450  1.9866  0.5734
  181MOL0     H24405   1.371   1.541   6.351 -0.9252  2.2863 -0.5019
  181MOL0     H24406   1.363   1.625   6.502 -0.4825 -0.5207  1.4756
  181MOL0     H24407   1.118   1.479   6.374 -3.6935  1.0701  1.7836
  181MOL0     H24408   1.117   1.579   6.509 -4.0851 -2.1517 -2.6485
  181MOL0     H24409   1.197   1.671   6.224 -1.4573 -0.6198 -0.1694
  181MOL0     H24410   1.191   1.772   6.369  1.6025 -0.6209  1.5234
  181MOL0     H24411   0.963   1.619   6.283 -0.0347 -0.4382  0.1528
  181MOL0     H24412   0.974   1.754   6.407 -0.4042  1.1926 -1.8225
  181MOL0     H24413   1.002   1.776   6.104  1.1799  2.8689 -1.3041
  181MOL0     H24414   1.053   1.907   6.205  0.2323 -0.3451 -0.3565
  181MOL0     H24415   0.784   1.793   6.207  0.1012  0.1583 -4.8007
  181MOL0     H24416   0.839   1.938   6.123 -0.6250 -0.0740 -0.0017
  181MOL0     H24417   1.523   1.197   6.894  0.7694  0.0176  1.9660
  181MOL0     H24418   1.720   1.171   7.027 -0.2397 -0.2259 -0.5004
  181MOL0     H24419   1.959   1.195   7.342  0.5156  0.2844  0.9222
  181MOL0     H24420   2.152   1.078   7.483  0.6232  0.2916  1.1956
  181MOL0     H24421   2.146   0.938   7.057 -4.8491  0.3382 -0.4597
  181MOL0     H24422   1.927   0.955   6.919 -1.6376 -1.2237 -1.5569
  181MOL0     H24423   1.632   0.867   6.674 -1.2812 -3.5094 -2.2050
  181MOL0     H24424   1.420   0.905   6.576 -0.1026  0.3398  0.5911
  181MOL0     H24425   1.304   0.873   6.358  1.0021 -0.8203  3.8367
  181MOL0     H24426   1.215   0.979   6.461  3.6593 -4.0460  2.3138
  181MOL0     H24427   1.118   1.091   6.266 -1.6480 -1.3773  2.6361
  181MOL0     H24428   1.095   0.914   6.247 -0.1784  0.7442 -0.4031
  181MOL0     H24429   1.300   0.888   6.122  1.8221  1.4739  2.0901
  181MOL0     H24430   1.313   1.066   6.100  0.3682  0.3305 -3.2551
  181MOL0     H24431   1.217   1.009   5.902 -1.0875 -1.6402 -0.4922
  181MOL0     H24432   1.063   1.049   5.990 -1.4681 -1.2267 -1.4795
  181MOL0     H24433   0.972   0.658   5.945 -0.8079  1.1868 -1.7972
  181MOL0     H24434   1.605   1.156   6.277 -0.2461  0.3077  0.2659
  181MOL0     H24435   1.819   1.091   6.351  2.0235 -1.8516  2.2521
  182MOL0     O24436   8.392   8.084  10.435 -0.2619 -0.9975 -0.1292
  182MOL0     C24437   8.349   8.075  10.546 -0.0997 -0.2816 -0.1914
  182MOL0     O24438   8.250   8.149  10.600  0.1192  0.9067 -0.1342
  182MOL0     C24439   8.194   8.258  10.543 -0.0817  0.1343 -0.3650
  182MOL0     C24440   8.220   8.311  10.415  0.6599 -0.0285 -0.5487
  182MOL0     C24441   8.122   8.408  10.373 -0.1481  0.4208 -0.2539
  182MOL0     C24442   8.020   8.454  10.461 -0.6459 -0.6490 -0.5972
  182MOL0     O24443   7.934   8.548  10.417 -0.0842 -0.2454  0.0324
  182MOL0     C24444   7.970   8.626  10.297 -0.1266  0.0922 -0.5211
  182MOL0     C24445   7.869   8.743  10.285 -0.0088  0.3042  0.7890
  182MOL0     C24446   7.908   8.816  10.157 -0.6888  0.7031 -0.1642
  182MOL0     C24447   8.020   8.903  10.183 -0.6327  0.3651  1.2856
  182MOL0     C24448   8.038   9.008  10.064  0.1440  0.5901  0.8540
  182MOL0     C24449   8.104   8.940   9.944 -1.3590  0.1332 -0.0604
  182MOL0     C24450   8.251   8.933   9.959 -0.5091 -0.0356 -0.1362
  182MOL0     C24451   8.322   8.906   9.820 -0.4371  0.0492  0.4707
  182MOL0     N24452   8.316   8.775   9.773  0.2445  0.1509 -0.2558
  182MOL0     C24453   8.427   8.690   9.760  0.5977 -0.1607  1.1293
  182MOL0     C24454   8.372   8.570   9.747  0.4195 -0.5929 -0.5311
  182MOL0     C24455   8.427   8.438   9.726 -0.5063  0.2974 -0.3514
  182MOL0     C24456   8.577   8.422   9.766  0.5293 -0.1415 -0.0216
  182MOL0     C24457   8.621   8.285   9.720  0.7627 -0.1123 -0.6085
  182MOL0     C24458   8.758   8.258   9.776 -1.0268 -0.2926 -0.5043
  182MOL0     O24459   8.842   8.365   9.743  0.1558 -0.2361  0.1163
  182MOL0     C24460   8.963   8.374   9.810 -0.1344  0.3300 -0.5385
  182MOL0     C24461   9.037   8.496   9.814  0.6907  0.8100  0.2076
  182MOL0     C24462   9.164   8.507   9.863  0.1492  0.7583  1.0079
  182MOL0     C24463   9.231   8.649   9.857  0.3060 -0.1090  0.6073
  182MOL0     C24464   9.208   8.398   9.939 -0.6134 -0.6105  0.1917
  182MOL0     C24465   9.341   8.405  10.002 -0.4525  0.5674  0.0980
  182MOL0     O24466   9.348   8.346  10.122 -0.2636  0.2134  0.0380
  182MOL0     C24467   9.478   8.323  10.177  1.1479  0.3666 -1.2395
  182MOL0     C24468   9.559   8.422  10.235  0.5117 -0.2692  0.0591
  182MOL0     C24469   9.665   8.390  10.318  0.2041 -0.0708 -0.1307
  182MOL0     C24470   9.705   8.253  10.328  0.7160 -0.4075  0.1498
  182MOL0     O24471   9.821   8.220  10.406  0.5719 -0.1098 -0.4418
  182MOL0     C24472   9.798   8.129  10.519 -0.3486 -0.0807  0.0075
  182MOL0     C24473   9.712   8.200  10.621  0.1542  0.9948 -0.6451
  182MOL0     C24474   9.670   8.102  10.733 -0.3572  0.7049 -0.3567
  182MOL0     C24475   9.530   8.039  10.694  0.4046  0.2348 -0.3128
  182MOL0     C24476   9.424   8.138  10.713  0.1408 -0.6197 -0.7559
  182MOL0     C24477   9.295   8.059  10.715  0.7303 -0.1086  0.9809
  182MOL0     C24478   9.175   8.156  10.717 -0.4591  0.3346  0.9581
  182MOL0     C24479   9.124   8.191  10.855 -0.5985 -0.8078 -1.0557
  182MOL0    Cl24480   8.995   8.082  10.894 -0.3188  0.1164 -0.4519
  182MOL0     C24481   9.634   8.159  10.265  0.8685  0.1819  0.2481
  182MOL0     C24482   9.520   8.189  10.195  0.6725 -0.3907  0.2029
  182MOL0     O24483   9.431   8.442   9.927  0.3632 -0.0646  0.3786
  182MOL0     C24484   9.140   8.280   9.950  0.0118 -0.2975  0.0067
  182MOL0     C24485   9.022   8.264   9.879 -0.2991  0.9998  0.0304
  182MOL0     N24486   8.237   8.588   9.749  0.0017  0.0045  0.5321
  182MOL0     N24487   8.199   8.710   9.752 -0.3194  0.5797 -0.5828
  182MOL0     C24488   8.005   8.405  10.589  0.8295 -0.7531 -0.1655
  182MOL0     C24489   8.086   8.300  10.621 -1.5924 -0.7108 -0.4605
  182MOL0     C24490   8.409   7.964  10.622 -0.2713  0.0502  0.3631
  182MOL0     C24491   8.508   7.882  10.565 -0.7037 -0.5356 -0.1769
  182MOL0     C24492   8.579   7.800  10.649  0.3667  0.1361 -1.1035
  182MOL0     C24493   8.555   7.800  10.786  0.3756  0.1424 -0.7082
  182MOL0     O24494   8.644   7.731  10.862 -0.0114  0.6717  0.3578
  182MOL0     C24495   8.751   7.808  10.923 -0.1329 -0.4438  0.4174
  182MOL0     C24496   8.882   7.727  10.943 -0.0786  0.1033 -0.5716
  182MOL0     C24497   8.947   7.660  10.817  0.3154  0.1576 -1.2381
  182MOL0     C24498   9.045   7.746  10.725 -0.5661  0.3064 -0.3078
  182MOL0     C24499   8.978   7.845  10.649 -0.6468 -0.0675 -0.0933
  182MOL0     C24500   8.903   7.924  10.587  0.0968  0.7853  0.1421
  182MOL0     C24501   8.449   7.863  10.841 -0.4159 -0.4255 -0.3674
  182MOL0     C24502   8.386   7.955  10.761  0.8514 -0.1917  0.0338
  182MOL0     H24503   8.299   8.274  10.351  1.9104 -0.5985  1.2633
  182MOL0     H24504   8.142   8.464  10.282 -1.0354  2.1026  0.5499
  182MOL0     H24505   8.070   8.670  10.304 -0.7565  1.4103  0.9609
  182MOL0     H24506   7.966   8.560  10.210  3.2172 -0.4183 -0.4252
  182MOL0     H24507   7.775   8.689  10.280  1.1560 -2.0622  2.4116
  182MOL0     H24508   7.866   8.812  10.370  0.6125  2.4691 -0.8372
  182MOL0     H24509   7.932   8.749  10.073 -1.3258  2.0367 -1.4649
  182MOL0     H24510   7.824   8.876  10.121 -0.0248  3.3338  2.3516
  182MOL0     H24511   7.997   8.956  10.275  0.2408  0.3153  1.5420
  182MOL0     H24512   8.108   8.842  10.208 -1.8113 -1.6730  0.7557
  182MOL0     H24513   7.942   9.043  10.027  2.1295  3.0719 -2.5928
  182MOL0     H24514   8.099   9.086  10.110 -2.5271  2.6017  1.1728
  182MOL0     H24515   8.055   8.844   9.930 -1.4195  0.1146  0.2629
  182MOL0     H24516   8.081   9.007   9.861  0.4699 -2.8191 -3.2075
  182MOL0     H24517   8.287   9.027  10.003  1.2811 -1.4709  1.6654
  182MOL0     H24518   8.284   8.854  10.027 -5.6889 -1.9736  0.5745
  182MOL0     H24519   8.423   8.944   9.839 -0.4408 -1.5955  4.8319
  182MOL0     H24520   8.283   8.963   9.735  0.6472 -0.9395 -0.7208
  182MOL0     H24521   8.534   8.703   9.754  0.5954 -0.6720 -0.3604
  182MOL0     H24522   8.358   8.366   9.772 -1.7111  0.0816 -2.3581
  182MOL0     H24523   8.422   8.417   9.619  0.1533 -0.3329 -0.2660
  182MOL0     H24524   8.581   8.423   9.875 -0.7851 -4.5475  0.2734
  182MOL0     H24525   8.648   8.487   9.714  1.4471  0.0912  1.4565
  182MOL0     H24526   8.631   8.279   9.611 -4.1882 -3.2833 -1.1950
  182MOL0     H24527   8.560   8.200   9.751  0.1598 -0.1009 -1.7091
  182MOL0     H24528   8.791   8.159   9.743  3.2882  0.2256  1.5919
  182MOL0     H24529   8.748   8.256   9.885 -2.1450 -1.3080 -0.5989
  182MOL0     H24530   8.994   8.581   9.762  0.8061  1.3016  0.9044
  182MOL0     H24531   9.178   8.715   9.789 -1.0754 -2.2436 -0.5137
  182MOL0     H24532   9.240   8.695   9.956  0.0665  2.7961 -0.6235
  182MOL0     H24533   9.333   8.635   9.818  1.2029 -0.0027  2.7583
  182MOL0     H24534   9.542   8.529  10.221  2.9235  0.2933  0.9395
  182MOL0     H24535   9.727   8.463  10.369 -0.1013 -0.6875  1.1744
  182MOL0     H24536   9.748   8.040  10.481 -2.2314  2.3579 -3.9161
  182MOL0     H24537   9.891   8.104  10.569 -0.1525 -1.4765 -0.9979
  182MOL0     H24538   9.776   8.275  10.668  1.0112 -0.1620  0.0982
  182MOL0     H24539   9.632   8.250  10.566 -0.9703 -0.9892 -0.8915
  182MOL0     H24540   9.662   8.177  10.812  0.5602 -1.4375  1.8727
  182MOL0     H24541   9.743   8.024  10.752  0.5610  1.3283 -1.2514
  182MOL0     H24542   9.538   8.010  10.589  3.4111  2.8691 -0.9411
  182MOL0     H24543   9.512   7.947  10.751  1.5834 -0.7818 -1.5195
  182MOL0     H24544   9.422   8.223  10.644 -4.6809 -0.5983 -0.9820
  182MOL0     H24545   9.443   8.185  10.810  1.8159 -0.9203 -0.9050
  182MOL0     H24546   9.301   7.995  10.626  1.3690  0.6604  0.4591
  182MOL0     H24547   9.295   8.007  10.811  0.2680  0.6991  1.4371
  182MOL0     H24548   9.090   8.116  10.661  0.2175 -0.5152  0.5174
  182MOL0     H24549   9.192   8.249  10.662  1.2143 -0.9665 -0.8655
  182MOL0     H24550   9.080   8.289  10.835  1.1948  0.1924 -0.2683
  182MOL0     H24551   9.202   8.213  10.929 -1.3272 -3.0119  0.4774
  182MOL0     H24552   9.679   8.061  10.262 -0.5730 -0.4890 -1.2943
  182MOL0     H24553   9.460   8.108  10.155 -1.4136 -0.7747  3.6627
  182MOL0     H24554   9.185   8.203  10.011 -1.0863  0.2515  1.5604
  182MOL0     H24555   8.982   8.165   9.865 -2.4492  1.5469  1.7844
  182MOL0     H24556   7.921   8.448  10.643  0.2753  0.3024 -1.8132
  182MOL0     H24557   8.071   8.246  10.713 -2.5278  0.2283 -0.0443
  182MOL0     H24558   8.531   7.897  10.460  1.2019  0.7686  0.3746
  182MOL0     H24559   8.659   7.736  10.613  1.4151  1.4585 -1.2165
  182MOL0     H24560   8.768   7.894  10.857 -1.6609  0.1321  0.7315
  182MOL0     H24561   8.722   7.853  11.018  1.3420 -0.3203  0.8400
  182MOL0     H24562   8.852   7.640  11.001  0.0729 -0.8653 -1.8883
  182MOL0     H24563   8.958   7.793  10.984  0.7684 -2.7267  2.7990
  182MOL0     H24564   8.868   7.626  10.749  0.3837 -2.3527 -0.1656
  182MOL0     H24565   8.995   7.569  10.854 -2.1008 -1.2725 -1.4027
  182MOL0     H24566   9.092   7.690  10.643  0.2039  0.8991 -0.2862
  182MOL0     H24567   9.127   7.786  10.787 -1.1062  2.5508 -0.9350
  182MOL0     H24568   8.852   8.007  10.542 -0.4486 -0.4104 -1.5436
  182MOL0     H24569   8.443   7.861  10.949  0.2150  2.5292 -0.1774
  182MOL0     H24570   8.321   8.024  10.814  0.5167 -0.0781 -0.5201
  183MOL0     O24571  10.373   1.493   4.343  0.0109 -0.4218  0.2040
  183MOL0     C24572  10.465   1.414   4.343 -0.3987 -0.9040 -0.1753
  183MOL0     O24573  10.484   1.312   4.431  0.1857  0.9293 -0.5543
  183MOL0     C24574  10.412   1.314   4.543  1.3312  0.2798  0.2700
  183MOL0     C24575  10.434   1.396   4.646 -0.0877  0.3058 -0.3106
  183MOL0     C24576  10.366   1.377   4.762  0.3872  0.3380  0.3348
  183MOL0     C24577  10.281   1.266   4.782  0.5186  0.5812 -0.3205
  183MOL0     O24578  10.231   1.233   4.909  1.0505 -0.1467  0.0821
  183MOL0     C24579  10.185   1.341   4.982  0.2357 -0.0355 -0.7365
  183MOL0     C24580  10.099   1.296   5.103 -1.2449 -0.0946  0.4241
  183MOL0     C24581  10.003   1.402   5.147  0.2727  0.1232 -1.0769
  183MOL0     C24582   9.965   1.390   5.293  0.1179  0.0920  0.5532
  183MOL0     C24583   9.860   1.294   5.333  0.7474  0.9020 -0.2903
  183MOL0     C24584   9.719   1.346   5.297  0.1557 -0.4997 -0.9663
  183MOL0     C24585   9.619   1.220   5.292  0.0006 -0.4525  0.0647
  183MOL0     C24586   9.476   1.266   5.274  0.9448  0.2280  0.6321
  183MOL0     N24587   9.391   1.156   5.314  0.6077  0.2525  0.5104
  183MOL0     C24588   9.383   1.038   5.247 -0.2763 -0.5647 -0.4085
  183MOL0     C24589   9.284   0.974   5.311  0.3493  0.3358  0.2362
  183MOL0     C24590   9.230   0.846   5.254  0.0607 -0.4112  0.7407
  183MOL0     C24591   9.335   0.749   5.185 -0.1682 -0.2356  0.4733
  183MOL0     C24592   9.448   0.704   5.279  0.3999 -0.8825  0.4778
  183MOL0     C24593   9.569   0.645   5.217  0.1344 -0.2956 -0.0817
  183MOL0     O24594   9.631   0.751   5.138  0.2886  0.0720  0.0382
  183MOL0     C24595   9.743   0.724   5.062 -0.2624  0.1893  0.0843
  183MOL0     C24596   9.794   0.828   5.003  0.0559  0.3830  0.7552
  183MOL0     C24597   9.924   0.817   4.942  0.0564 -0.4518  0.1445
  183MOL0     C24598   9.972   0.940   4.867  0.4469 -0.9626 -0.0457
  183MOL0     C24599   9.999   0.693   4.948  0.9012  0.0656 -0.2509
  183MOL0     C24600  10.127   0.664   4.882 -0.5113 -0.7266 -0.2420
  183MOL0     O24601  10.197   0.555   4.910  0.4196  0.5464 -0.6113
  183MOL0     C24602  10.300   0.510   4.836 -1.1003 -0.4781 -0.0534
  183MOL0     C24603  10.387   0.435   4.908 -1.0330  0.7281 -0.4343
  183MOL0     C24604  10.496   0.374   4.838  0.0087  0.3125 -0.5274
  183MOL0     C24605  10.509   0.380   4.698  0.8545 -0.2193  0.7078
  183MOL0     O24606  10.616   0.320   4.624  0.7245 -0.1241 -0.5377
  183MOL0     C24607  10.696   0.226   4.686  0.1450  0.3930 -0.8832
  183MOL0     C24608  10.773   0.159   4.578  0.6369 -0.4145  0.5692
  183MOL0     C24609  10.844   0.043   4.639  0.2223 -0.1906  0.8650
  183MOL0     C24610  10.960  -0.008   4.548 -0.3538 -0.0552  0.3865
  183MOL0     C24611  11.036  -0.130   4.603  0.1170 -0.5365  1.0957
  183MOL0     C24612  11.139  -0.187   4.496  0.1726  0.1046  0.1877
  183MOL0     C24613  11.189  -0.332   4.513  0.1879  0.9204 -0.3843
  183MOL0     C24614  11.314  -0.361   4.422  0.6920 -0.7432  0.5162
  183MOL0    Cl24615  11.450  -0.271   4.488  0.3881  0.0439  0.3518
  183MOL0     C24616  10.425   0.470   4.628 -0.3838 -0.2051  0.3216
  183MOL0     C24617  10.317   0.523   4.700  0.1184 -0.6104  0.8969
  183MOL0     O24618  10.163   0.744   4.800 -0.7104 -0.1804 -0.5109
  183MOL0     C24619   9.931   0.582   5.001 -0.5348 -0.1016 -0.5168
  183MOL0     C24620   9.804   0.598   5.061  0.5453  0.3937 -0.3055
  183MOL0     N24621   9.239   1.050   5.416  0.2094 -0.7813  0.4196
  183MOL0     N24622   9.302   1.160   5.415 -0.1468 -0.3582  0.0597
  183MOL0     C24623  10.244   1.201   4.672 -0.0044  0.2483 -0.5291
  183MOL0     C24624  10.314   1.216   4.550  0.2933 -0.2880 -0.2172
  183MOL0     C24625  10.562   1.416   4.226  0.2132  0.1947 -0.1613
  183MOL0     C24626  10.673   1.335   4.240  0.1016 -0.4323 -0.0164
  183MOL0     C24627  10.777   1.330   4.143 -0.0798  1.0906  0.6499
  183MOL0     C24628  10.770   1.415   4.032  0.1006  0.3832  0.4166
  183MOL0     O24629  10.868   1.419   3.935  0.3353  0.1666 -0.1851
  183MOL0     C24630  10.985   1.342   3.944 -0.0613 -0.0837 -0.3147
  183MOL0     C24631  10.947   1.202   3.893  0.1351  0.2909  0.0588
  183MOL0     C24632  10.908   1.208   3.743 -0.3937  0.0571 -0.5172
  183MOL0     C24633  10.833   1.092   3.685  0.0731 -0.5763 -0.3299
  183MOL0     C24634  10.907   0.969   3.676  0.0684 -0.1541  0.0828
  183MOL0     C24635  10.962   0.864   3.662  0.1126 -0.1660  0.3293
  183MOL0     C24636  10.659   1.499   4.023  0.6903 -0.6018 -0.2998
  183MOL0     C24637  10.557   1.503   4.116 -0.2207  1.4866  0.0278
  183MOL0     H24638  10.503   1.479   4.632 -1.2253  1.5823  1.2371
  183MOL0     H24639  10.403   1.432   4.848  0.4632 -1.0908  1.2499
  183MOL0     H24640  10.272   1.390   5.026 -0.0330 -0.1158 -0.1025
  183MOL0     H24641  10.121   1.407   4.922 -0.8956 -1.6926 -1.4119
  183MOL0     H24642  10.046   1.202   5.085  0.7091 -0.7046 -2.8198
  183MOL0     H24643  10.170   1.268   5.181 -0.4900 -1.3446 -0.6807
  183MOL0     H24644  10.061   1.495   5.135  0.7272 -0.0021 -0.0039
  183MOL0     H24645   9.919   1.416   5.079 -1.3003  0.2609  0.8190
  183MOL0     H24646  10.057   1.357   5.344  0.4623  1.3564  0.7733
  183MOL0     H24647   9.930   1.484   5.335  0.1852  1.0691 -1.4554
  183MOL0     H24648   9.876   1.191   5.299 -2.3730  0.4955 -0.8027
  183MOL0     H24649   9.864   1.288   5.442  2.2479 -1.7652 -0.4086
  183MOL0     H24650   9.680   1.415   5.372  0.8160  1.2998 -2.2170
  183MOL0     H24651   9.721   1.392   5.198  1.5481 -3.9125 -2.6990
  183MOL0     H24652   9.642   1.143   5.218 -2.2586 -0.3031 -0.8657
  183MOL0     H24653   9.642   1.170   5.386  4.6955 -2.6958 -1.9276
  183MOL0     H24654   9.456   1.299   5.172 -0.0894 -0.0662  0.7225
  183MOL0     H24655   9.448   1.352   5.334 -0.4646  0.4197 -0.2594
  183MOL0     H24656   9.438   1.017   5.156  0.7349  1.4270 -0.3125
  183MOL0     H24657   9.180   0.788   5.332 -0.5484 -1.0796 -0.1296
  183MOL0     H24658   9.152   0.868   5.180  0.0678  0.8023  1.0756
  183MOL0     H24659   9.372   0.786   5.089 -3.6408  0.1943 -0.8549
  183MOL0     H24660   9.272   0.662   5.166  1.0705 -1.1008  0.1716
  183MOL0     H24661   9.412   0.628   5.349  1.2593 -0.0597  1.8617
  183MOL0     H24662   9.470   0.782   5.353 -4.1159  2.0932 -0.8408
  183MOL0     H24663   9.529   0.568   5.152 -1.0691 -1.3964  1.8746
  183MOL0     H24664   9.644   0.616   5.292  1.3364  1.3378 -0.5743
  183MOL0     H24665   9.749   0.927   4.995  1.6615  1.1497  0.6481
  183MOL0     H24666  10.066   0.979   4.907  0.0879 -0.7864  0.6319
  183MOL0     H24667   9.983   0.921   4.760 -1.1335  1.3021 -0.6926
  183MOL0     H24668   9.906   1.025   4.886  1.5316 -0.3676  1.2174
  183MOL0     H24669  10.359   0.443   5.012 -2.5286 -1.1064 -0.6385
  183MOL0     H24670  10.571   0.324   4.898 -1.8892  0.1940  1.9146
  183MOL0     H24671  10.764   0.267   4.762  1.6230 -2.1849 -0.7049
  183MOL0     H24672  10.634   0.148   4.729  4.0941 -2.6278 -0.0722
  183MOL0     H24673  10.706   0.138   4.494 -0.1092  1.6402  0.6090
  183MOL0     H24674  10.854   0.221   4.539  0.5813 -1.4488 -1.2994
  183MOL0     H24675  10.779  -0.045   4.645  0.2610 -0.4082 -1.2886
  183MOL0     H24676  10.888   0.078   4.734 -1.1240  2.1906  0.6744
  183MOL0     H24677  10.921  -0.043   4.452  3.1673 -1.9147 -0.5513
  183MOL0     H24678  11.032   0.072   4.529 -0.2863 -0.5835 -1.9090
  183MOL0     H24679  10.966  -0.205   4.641 -0.5842  1.6574  4.6595
  183MOL0     H24680  11.083  -0.093   4.695 -1.3308 -0.7100  1.9395
  183MOL0     H24681  11.092  -0.184   4.397  2.4312  0.8127 -0.9420
  183MOL0     H24682  11.232  -0.130   4.488  1.1109 -1.5146 -1.1763
  183MOL0     H24683  11.112  -0.406   4.493  0.6990 -0.2778  1.7972
  183MOL0     H24684  11.224  -0.360   4.612 -3.9200  0.5665  1.1636
  183MOL0     H24685  11.288  -0.337   4.319 -1.9294 -4.1188  0.1712
  183MOL0     H24686  11.326  -0.470   4.424 -0.0235 -0.8314  2.5999
  183MOL0     H24687  10.429   0.492   4.522 -1.4826 -0.0024  0.3119
  183MOL0     H24688  10.240   0.580   4.649 -2.0348 -2.1662  2.2750
  183MOL0     H24689   9.979   0.485   5.012  0.2519 -0.1230 -3.5070
  183MOL0     H24690   9.769   0.504   5.102  2.7547  0.0356  0.9187
  183MOL0     H24691  10.185   1.109   4.677  1.3539 -0.5724  1.6145
  183MOL0     H24692  10.285   1.146   4.472 -0.3153 -0.5372  0.2233
  183MOL0     H24693  10.687   1.260   4.317  0.8243 -2.8498 -2.3481
  183MOL0     H24694  10.861   1.262   4.150 -1.3020 -0.6647 -0.7419
  183MOL0     H24695  11.062   1.382   3.878  2.3834 -2.6224  0.7930
  183MOL0     H24696  11.021   1.343   4.048 -0.2671 -0.1089 -0.2428
  183MOL0     H24697  10.870   1.153   3.953  0.7062  0.2440  0.7591
  183MOL0     H24698  11.031   1.133   3.899 -0.0532  0.0957  0.5398
  183MOL0     H24699  10.998   1.227   3.684  0.1210  1.1302  0.5686
  183MOL0     H24700  10.846   1.296   3.727 -1.1553 -0.5337 -0.8738
  183MOL0     H24701  10.789   1.116   3.588 -0.6414 -1.5010 -0.2544
  183MOL0     H24702  10.741   1.079   3.744 -0.6895  0.6802 -1.2029
  183MOL0     H24703  11.015   0.775   3.637 -0.5790 -0.0743 -1.6716
  183MOL0     H24704  10.646   1.575   3.947  1.2963  0.4057  0.5784
  183MOL0     H24705  10.475   1.573   4.107 -1.3271  0.4155  1.3094
  184MOL0     O24706   6.579   1.441   9.375  0.4302 -0.1007 -0.9530
  184MOL0     C24707   6.546   1.395   9.485 -0.2713  0.5424 -0.1846
  184MOL0     O24708   6.423   1.402   9.539 -0.2358 -0.9435 -0.3655
  184MOL0     C24709   6.339   1.481   9.479  0.6143  0.7519 -0.8681
  184MOL0     C24710   6.355   1.621   9.474 -0.4863  0.6951  0.1258
  184MOL0     C24711   6.262   1.698   9.415  0.6055  0.7204  0.3372
  184MOL0     C24712   6.144   1.645   9.369  0.3083 -0.7362 -0.3034
  184MOL0     O24713   6.064   1.723   9.291 -0.0877 -0.8422 -0.1789
  184MOL0     C24714   6.124   1.750   9.154 -0.2171  0.0001 -0.5501
  184MOL0     C24715   6.055   1.676   9.040  1.0521  0.0727  0.3174
  184MOL0     C24716   6.059   1.522   9.050 -0.0222  0.2832  0.2225
  184MOL0     C24717   6.205   1.461   9.031  1.5022 -0.4467  0.3580
  184MOL0     C24718   6.210   1.322   9.102 -0.2581  0.4485  0.2204
  184MOL0     C24719   6.354   1.268   9.133 -0.3823 -0.0057 -0.0424
  184MOL0     C24720   6.355   1.137   9.197 -0.1700 -0.5146  0.1805
  184MOL0     C24721   6.503   1.081   9.182  0.1727  0.2250 -0.9769
  184MOL0     N24722   6.533   1.035   9.037 -0.2325  0.0514  0.0561
  184MOL0     C24723   6.463   0.945   8.958  0.1886 -0.1785  0.3875
  184MOL0     C24724   6.520   0.959   8.838  0.4529 -0.1716 -0.4096
  184MOL0     C24725   6.474   0.872   8.728 -0.9543 -0.1029 -0.2244
  184MOL0     C24726   6.324   0.876   8.706 -0.4428 -0.4675  0.5870
  184MOL0     C24727   6.280   0.789   8.585 -0.4046 -0.3965 -0.4341
  184MOL0     C24728   6.134   0.807   8.570  0.3247 -0.3265  0.6808
  184MOL0     O24729   6.081   0.698   8.648  0.8173 -0.2646  0.0737
  184MOL0     C24730   5.945   0.671   8.642  0.4674  0.1377  0.5553
  184MOL0     C24731   5.844   0.726   8.557  0.0823 -0.2682 -0.7147
  184MOL0     C24732   5.709   0.709   8.572  0.0281  0.2429  0.8331
  184MOL0     C24733   5.620   0.777   8.466 -0.3848  0.0647 -0.9680
  184MOL0     C24734   5.656   0.618   8.665 -0.4951 -0.3665 -0.0402
  184MOL0     C24735   5.512   0.568   8.671 -0.0050 -0.4512  0.3018
  184MOL0     O24736   5.416   0.631   8.596 -0.1488 -0.6856  0.1460
  184MOL0     C24737   5.293   0.577   8.583 -0.6074 -0.3220  0.3098
  184MOL0     C24738   5.200   0.582   8.691 -0.2858  0.5063  0.3269
  184MOL0     C24739   5.081   0.513   8.670  0.0204  0.2789  0.6099
  184MOL0     C24740   5.047   0.451   8.552  0.3708  0.2798  0.0577
  184MOL0     O24741   4.913   0.417   8.550  0.1673  0.1667 -0.2219
  184MOL0     C24742   4.866   0.364   8.427  0.0771 -0.1829 -0.1705
  184MOL0     C24743   4.749   0.281   8.462 -0.2423 -0.6254  0.1773
  184MOL0     C24744   4.693   0.196   8.345  0.0755  0.1489 -0.3946
  184MOL0     C24745   4.672   0.270   8.216  0.3027  0.0416 -0.1029
  184MOL0     C24746   4.600   0.189   8.111 -0.2464  0.2838 -0.7643
  184MOL0     C24747   4.664   0.048   8.081 -1.1048  0.8990  0.6071
  184MOL0     C24748   4.609   0.006   7.941 -0.6605  0.6535 -0.1169
  184MOL0     C24749   4.645  -0.135   7.887  0.0390  0.5307 -0.0156
  184MOL0    Cl24750   4.807  -0.115   7.809  0.0197 -0.0094  0.1643
  184MOL0     C24751   5.131   0.471   8.440  0.2860  0.7488  0.0878
  184MOL0     C24752   5.256   0.525   8.457  0.3354 -0.4800 -0.0289
  184MOL0     O24753   5.496   0.468   8.735 -0.2396 -0.0410 -0.0928
  184MOL0     C24754   5.757   0.545   8.734  0.3632 -0.5443  0.0442
  184MOL0     C24755   5.895   0.572   8.721  0.3479  0.5799  0.2410
  184MOL0     N24756   6.621   1.058   8.842 -0.1133  0.6633 -0.0360
  184MOL0     N24757   6.625   1.104   8.964 -0.2845 -0.5203 -0.0332
  184MOL0     C24758   6.116   1.518   9.393  0.3671  0.6343  0.7097
  184MOL0     C24759   6.218   1.429   9.438  0.2302  0.0340 -0.4217
  184MOL0     C24760   6.655   1.334   9.565  0.6866  0.1406 -1.0828
  184MOL0     C24761   6.786   1.348   9.527 -0.1708  0.4451 -0.6468
  184MOL0     C24762   6.891   1.295   9.606  0.5078 -0.6740  0.0420
  184MOL0     C24763   6.871   1.231   9.722 -0.0496  0.9313 -0.6838
  184MOL0     O24764   6.977   1.184   9.798  0.4922 -0.0273 -0.6423
  184MOL0     C24765   7.103   1.248   9.770  0.2734 -0.0002  0.1804
  184MOL0     C24766   7.205   1.207   9.875 -0.0808  0.4533 -0.5038
  184MOL0     C24767   7.224   1.055   9.908 -0.0800 -0.1769  0.2344
  184MOL0     C24768   7.279   0.985   9.783  0.6836  0.6622  0.1286
  184MOL0     C24769   7.412   1.024   9.749  0.0728 -0.3767  0.0038
  184MOL0     C24770   7.530   1.036   9.714  0.1710  0.0987 -1.0641
  184MOL0     C24771   6.733   1.212   9.754  0.2882  0.4382 -0.7870
  184MOL0     C24772   6.623   1.265   9.688 -0.3964 -0.0034  0.7245
  184MOL0     H24773   6.450   1.663   9.507 -1.0378  1.8989  0.2286
  184MOL0     H24774   6.287   1.802   9.400 -2.2850  1.8970  2.7159
  184MOL0     H24775   6.101   1.855   9.136 -1.9503  0.2875  2.5531
  184MOL0     H24776   6.231   1.730   9.152  0.0053  0.8095  1.3484
  184MOL0     H24777   5.951   1.706   9.055  0.9507 -0.2150  0.1902
  184MOL0     H24778   6.088   1.715   8.944 -0.3316 -0.0432 -0.2318
  184MOL0     H24779   6.018   1.484   9.144  2.0177  0.4014  1.2193
  184MOL0     H24780   5.998   1.486   8.967  0.9128 -0.3735 -0.1925
  184MOL0     H24781   6.226   1.449   8.924 -0.3338 -0.4871 -0.0431
  184MOL0     H24782   6.268   1.537   9.078  2.0319  0.0807 -1.1527
  184MOL0     H24783   6.150   1.332   9.193 -1.3440  0.6854 -0.5055
  184MOL0     H24784   6.167   1.253   9.028  1.6560 -1.8201  1.0709
  184MOL0     H24785   6.407   1.256   9.038 -1.0381 -0.5577 -0.3508
  184MOL0     H24786   6.406   1.340   9.196 -3.6340  1.7063  0.9459
  184MOL0     H24787   6.336   1.145   9.304 -0.2787 -0.7981  0.1847
  184MOL0     H24788   6.289   1.066   9.146  1.6247 -0.1600 -2.8574
  184MOL0     H24789   6.507   0.991   9.244 -1.5353  1.0069  0.3751
  184MOL0     H24790   6.571   1.156   9.221 -1.7968  0.2528  2.9024
  184MOL0     H24791   6.377   0.885   8.987 -0.7990  1.9407  2.1848
  184MOL0     H24792   6.529   0.914   8.643 -2.7712 -2.7847 -2.9320
  184MOL0     H24793   6.515   0.774   8.756  1.2100  0.8817  0.2753
  184MOL0     H24794   6.290   0.974   8.673  0.8399 -1.2114 -3.5492
  184MOL0     H24795   6.268   0.840   8.793  4.0228 -1.6725  3.2260
  184MOL0     H24796   6.310   0.685   8.594 -0.8074 -0.7081 -2.2637
  184MOL0     H24797   6.324   0.826   8.492  0.2654  3.2785  1.1501
  184MOL0     H24798   6.096   0.793   8.468  1.5578  0.4246  0.0960
  184MOL0     H24799   6.099   0.904   8.607 -0.2166 -0.6251  0.9700
  184MOL0     H24800   5.877   0.788   8.475 -0.8815  1.1878 -0.0458
  184MOL0     H24801   5.679   0.849   8.408 -2.2656  0.9359 -1.8945
  184MOL0     H24802   5.587   0.704   8.392  2.7195 -0.1807 -2.2707
  184MOL0     H24803   5.540   0.822   8.526 -0.8573 -0.0605 -1.4934
  184MOL0     H24804   5.218   0.630   8.786 -1.6746  3.1547 -0.6376
  184MOL0     H24805   5.007   0.509   8.749 -0.4473  0.7423  0.1999
  184MOL0     H24806   4.823   0.445   8.367 -1.2109  1.7386  3.0840
  184MOL0     H24807   4.937   0.302   8.370 -1.2467 -2.1024  0.1594
  184MOL0     H24808   4.757   0.214   8.548  1.3213 -1.4091 -0.5497
  184MOL0     H24809   4.676   0.356   8.495 -0.6685 -0.1804 -1.6398
  184MOL0     H24810   4.594   0.173   8.385 -0.4925  1.7719 -0.7568
  184MOL0     H24811   4.743   0.100   8.330 -2.1612 -0.8027 -2.4564
  184MOL0     H24812   4.628   0.368   8.231  0.3455 -0.1565  1.4852
  184MOL0     H24813   4.773   0.287   8.178  0.6548 -0.9281  0.3494
  184MOL0     H24814   4.596   0.242   8.016 -1.1319  0.9516 -0.3792
  184MOL0     H24815   4.499   0.178   8.153 -0.2169  0.1113 -0.7372
  184MOL0     H24816   4.773   0.055   8.072 -1.0643  1.0270  1.1377
  184MOL0     H24817   4.640  -0.022   8.162  0.3780 -1.2327 -0.7146
  184MOL0     H24818   4.643   0.081   7.869  2.0064 -0.4021 -0.0626
  184MOL0     H24819   4.501   0.016   7.925 -0.7679  0.8942  0.6851
  184MOL0     H24820   4.575  -0.163   7.808  0.7146  0.6850 -0.6857
  184MOL0     H24821   4.645  -0.210   7.966 -0.1069 -0.1739 -0.6675
  184MOL0     H24822   5.121   0.440   8.337  0.3910 -0.9947  0.5678
  184MOL0     H24823   5.323   0.543   8.374 -0.6215  0.1993 -0.6676
  184MOL0     H24824   5.733   0.465   8.803 -1.5706  0.5668  0.7255
  184MOL0     H24825   5.971   0.516   8.775  0.5053 -0.5459 -1.0839
  184MOL0     H24826   6.016   1.485   9.366  0.2857  0.3644  1.3161
  184MOL0     H24827   6.192   1.324   9.444 -1.5213  0.2278 -3.0864
  184MOL0     H24828   6.811   1.402   9.436  0.8317  1.6895  0.3256
  184MOL0     H24829   6.990   1.312   9.565  1.5745  1.3918  3.0373
  184MOL0     H24830   7.130   1.213   9.669  2.1565  0.4686  0.4951
  184MOL0     H24831   7.089   1.356   9.764 -1.5087 -0.2329 -4.9162
  184MOL0     H24832   7.172   1.253   9.969 -1.8876  0.6915 -1.2276
  184MOL0     H24833   7.302   1.255   9.856  0.3929  0.7224  2.1136
  184MOL0     H24834   7.131   1.001   9.933 -0.1111 -0.6308 -0.8266
  184MOL0     H24835   7.295   1.043   9.990  2.3176  0.9810 -1.5501
  184MOL0     H24836   7.211   1.004   9.700  1.2625  2.6251  0.0509
  184MOL0     H24837   7.269   0.877   9.798 -0.6187  0.4236 -2.1576
  184MOL0     H24838   7.630   1.039   9.674  0.4905  0.8246 -0.2388
  184MOL0     H24839   6.711   1.141   9.834 -1.7123  1.1050 -0.6771
  184MOL0     H24840   6.521   1.263   9.722 -2.3576 -0.8800 -4.2891
  185MOL0     O24841   3.386  11.118   9.813  0.2843  0.0883 -0.7543
  185MOL0     C24842   3.438  11.224   9.781 -0.2456  0.0004 -0.7677
  185MOL0     O24843   3.377  11.340   9.761  0.4596 -0.4960  0.0420
  185MOL0     C24844   3.236  11.362   9.747  1.4683  0.0916 -0.2847
  185MOL0     C24845   3.137  11.259   9.735 -0.2495  0.4119 -0.3246
  185MOL0     C24846   3.003  11.288   9.730  0.7231  0.6147 -0.1477
  185MOL0     C24847   2.959  11.418   9.752 -0.8994 -0.0864  0.3332
  185MOL0     O24848   2.829  11.446   9.758  0.0753  0.3786  0.7435
  185MOL0     C24849   2.782  11.549   9.842  0.9787  0.0751 -0.7170
  185MOL0     C24850   2.626  11.558   9.824 -0.5828 -0.1311  0.5311
  185MOL0     C24851   2.555  11.431   9.876 -0.5522 -0.0501 -0.0809
  185MOL0     C24852   2.409  11.451   9.885 -0.1187  0.4857  0.2374
  185MOL0     C24853   2.335  11.318   9.927  0.7270  1.0585 -0.3591
  185MOL0     C24854   2.183  11.329   9.913 -0.3304  0.4851 -0.3659
  185MOL0     C24855   2.110  11.195   9.924 -0.9620 -0.2101  0.3020
  185MOL0     C24856   2.132  11.127  10.065  0.2340  0.3894 -0.4454
  185MOL0     N24857   2.027  11.021  10.097  0.3474  0.3775  0.4363
  185MOL0     C24858   2.043  10.904  10.168  0.3911 -0.3566  0.0949
  185MOL0     C24859   1.923  10.847  10.167  0.6345  1.6320  0.3632
  185MOL0     C24860   1.882  10.720  10.240 -0.5839 -0.2998  0.7353
  185MOL0     C24861   1.896  10.604  10.143  0.0191  0.6689 -0.0610
  185MOL0     C24862   1.785  10.495  10.163 -0.6992  0.5569 -1.1548
  185MOL0     C24863   1.651  10.542  10.105 -0.4064  0.9299 -0.2812
  185MOL0     O24864   1.553  10.442  10.133  0.4099  0.5258 -0.6225
  185MOL0     C24865   1.422  10.477  10.118  0.1061 -0.4021  0.1427
  185MOL0     C24866   1.372  10.598  10.071  0.5677 -0.3003  0.1890
  185MOL0     C24867   1.229  10.618  10.045 -0.4903 -0.4836 -0.2558
  185MOL0     C24868   1.200  10.763  10.003  0.4978 -0.2375  0.6126
  185MOL0     C24869   1.138  10.514  10.072 -0.0505 -0.4260 -0.0763
  185MOL0     C24870   0.990  10.531  10.055  0.1493 -0.4596 -0.0026
  185MOL0     O24871   0.921  10.436  10.106 -0.5391  0.0268  0.1072
  185MOL0     C24872   0.784  10.432  10.103  0.3590 -0.0043  0.7063
  185MOL0     C24873   0.722  10.304  10.087 -0.4156 -0.3782 -0.0213
  185MOL0     C24874   0.587  10.292  10.099 -0.5732 -0.2856  0.5735
  185MOL0     C24875   0.511  10.412  10.103 -0.4828 -0.0327  0.2445
  185MOL0     O24876   0.381  10.396  10.069  0.8986 -0.0619 -0.0062
  185MOL0     C24877   0.277  10.472  10.143  0.3444  0.0563 -0.1605
  185MOL0     C24878   0.143  10.432  10.086  0.1937 -0.9707 -0.6061
  185MOL0     C24879   0.027  10.492  10.179  0.5934 -0.8119  0.8933
  185MOL0     C24880  -0.109  10.465  10.126  0.0260 -0.0437 -0.2512
  185MOL0     C24881  -0.215  10.477  10.230  0.3954  0.0916  0.7934
  185MOL0     C24882  -0.260  10.625  10.264 -0.1507 -0.2595  0.0004
  185MOL0     C24883  -0.296  10.707  10.138 -0.4111 -0.9066 -0.0713
  185MOL0     C24884  -0.361  10.839  10.189 -0.4465 -0.2263 -0.2335
  185MOL0    Cl24885  -0.247  10.959  10.246  0.7057 -0.0477  0.1236
  185MOL0     C24886   0.567  10.539  10.115 -0.5687 -0.0804  0.0936
  185MOL0     C24887   0.703  10.545  10.126 -0.6697 -1.1693 -0.2862
  185MOL0     O24888   0.949  10.625   9.993 -0.2925  0.4114  0.8211
  185MOL0     C24889   1.198  10.390  10.115  0.1577  0.8844 -0.8949
  185MOL0     C24890   1.334  10.378  10.149  0.4498  0.3987 -0.1122
  185MOL0     N24891   1.830  10.922  10.097 -0.3834 -0.7281 -0.3810
  185MOL0     N24892   1.902  11.023  10.046 -0.3786  0.1405 -0.9340
  185MOL0     C24893   3.055  11.519   9.751  0.3436 -1.0505 -0.3893
  185MOL0     C24894   3.190  11.493   9.749  0.5459 -0.2780 -0.7303
  185MOL0     C24895   3.589  11.217   9.780  0.1190 -0.6902  0.0503
  185MOL0     C24896   3.665  11.108   9.800 -0.1275  0.6634 -0.2828
  185MOL0     C24897   3.798  11.114   9.825 -0.8337 -0.6301 -0.1080
  185MOL0     C24898   3.875  11.233   9.820  0.9871 -0.6032 -0.1355
  185MOL0     O24899   4.015  11.233   9.833  0.8331  0.1718 -0.0182
  185MOL0     C24900   4.062  11.169   9.952 -0.0669  0.5351 -0.4977
  185MOL0     C24901   4.151  11.044   9.935  0.4709  0.5989  0.7388
  185MOL0     C24902   4.242  11.055   9.811  0.6612  0.7125  0.6678
  185MOL0     C24903   4.358  11.147   9.851  0.8453 -0.5289  0.6042
  185MOL0     C24904   4.451  11.161   9.742 -0.2636 -0.0372  0.0958
  185MOL0     C24905   4.519  11.178   9.645  0.2132 -0.0347 -0.3353
  185MOL0     C24906   3.805  11.346   9.784 -0.1544  0.0617  0.8823
  185MOL0     C24907   3.663  11.339   9.756  0.5935  0.1570 -0.0994
  185MOL0     H24908   3.176  11.159   9.724 -0.6483  0.2772 -0.5253
  185MOL0     H24909   2.935  11.204   9.737  2.6863 -1.0727 -0.2400
  185MOL0     H24910   2.818  11.514   9.939 -1.2013  0.6644  0.3532
  185MOL0     H24911   2.826  11.649   9.837 -1.7144  1.3233 -1.0009
  185MOL0     H24912   2.589  11.646   9.876  0.1731  0.1226  0.6554
  185MOL0     H24913   2.609  11.569   9.717  2.7122 -1.9436 -0.3334
  185MOL0     H24914   2.583  11.351   9.806  2.3402 -1.1356  2.1108
  185MOL0     H24915   2.596  11.393   9.970  1.1637 -0.0942 -0.8019
  185MOL0     H24916   2.402  11.522   9.968  2.5062  1.2664 -0.1298
  185MOL0     H24917   2.366  11.495   9.794  3.0832  1.4585 -0.9385
  185MOL0     H24918   2.386  11.243   9.865  4.9903  3.1534  0.2391
  185MOL0     H24919   2.359  11.284  10.027 -0.9906 -2.9826 -1.1359
  185MOL0     H24920   2.153  11.393   9.997  2.2537  0.3679  0.7482
  185MOL0     H24921   2.151  11.390   9.828 -0.0860  0.4131 -0.5123
  185MOL0     H24922   2.009  11.208   9.886 -0.0788  5.8208 -0.9929
  185MOL0     H24923   2.148  11.119   9.855  2.5719 -0.9070  2.7289
  185MOL0     H24924   2.118  11.198  10.147  0.0559 -0.5152  0.3129
  185MOL0     H24925   2.224  11.069  10.061 -0.9028 -1.4982 -0.6483
  185MOL0     H24926   2.136  10.865  10.209 -0.3151 -0.4665  1.6902
  185MOL0     H24927   1.939  10.700  10.332  0.8824  2.2860  0.4643
  185MOL0     H24928   1.777  10.725  10.270 -0.5366 -0.6924  0.9732
  185MOL0     H24929   1.991  10.557  10.169  0.2745  0.8712 -0.6166
  185MOL0     H24930   1.911  10.624  10.036 -1.1197 -0.8309 -0.5426
  185MOL0     H24931   1.778  10.475  10.271  2.3652  2.5769 -0.4586
  185MOL0     H24932   1.812  10.404  10.108  1.7885 -0.2186  1.1427
  185MOL0     H24933   1.664  10.552   9.997  1.4036 -1.9093 -0.4243
  185MOL0     H24934   1.626  10.637  10.154 -0.0087  0.6937  0.3974
  185MOL0     H24935   1.428  10.689  10.053  0.2962 -0.1474  0.1020
  185MOL0     H24936   1.165  10.815  10.092  1.0432 -0.8738  1.2061
  185MOL0     H24937   1.287  10.821   9.968 -0.9030  2.2170  0.9624
  185MOL0     H24938   1.132  10.776   9.918  1.8348  0.7983 -0.3559
  185MOL0     H24939   0.787  10.218  10.088  0.8328  0.5237  1.4980
  185MOL0     H24940   0.538  10.196  10.088 -0.4888 -0.5205  2.0512
  185MOL0     H24941   0.279  10.457  10.251 -2.2835  1.2983  0.1419
  185MOL0     H24942   0.285  10.580  10.127  2.7641  0.1589  1.3368
  185MOL0     H24943   0.134  10.482   9.989 -1.3552  1.3740  0.6551
  185MOL0     H24944   0.135  10.325  10.066 -0.0162 -1.2047  0.6391
  185MOL0     H24945   0.031  10.602  10.185  0.1081 -0.4093 -3.4430
  185MOL0     H24946   0.044  10.448  10.278 -1.5002 -3.1324  0.3113
  185MOL0     H24947  -0.139  10.516  10.034 -1.7869 -1.6853 -0.6458
  185MOL0     H24948  -0.102  10.358  10.101  3.2247  0.1977 -0.7463
  185MOL0     H24949  -0.186  10.416  10.316 -0.0778 -5.1402 -2.2647
  185MOL0     H24950  -0.307  10.435  10.188  0.5941  1.0455 -0.6694
  185MOL0     H24951  -0.351  10.621  10.325  0.1516 -1.7967  0.3885
  185MOL0     H24952  -0.180  10.673  10.322 -0.5703  1.1209 -0.5089
  185MOL0     H24953  -0.368  10.649  10.080 -2.6958 -0.2005  1.8669
  185MOL0     H24954  -0.214  10.742  10.075  1.1443  0.6330  2.5826
  185MOL0     H24955  -0.439  10.815  10.262  0.6213 -3.8443 -0.0441
  185MOL0     H24956  -0.410  10.885  10.103  0.9410  0.3456 -0.7463
  185MOL0     H24957   0.502  10.625  10.122  0.8894  1.2582 -1.9282
  185MOL0     H24958   0.755  10.640  10.137 -1.3883 -0.9704  1.8290
  185MOL0     H24959   1.143  10.301  10.143  2.9648 -0.6284  0.2557
  185MOL0     H24960   1.357  10.285  10.201  1.7965  0.4358 -0.6159
  185MOL0     H24961   3.027  11.623   9.768 -0.7459 -0.7688 -3.2346
  185MOL0     H24962   3.276  11.559   9.759  1.6180 -1.8766  1.4488
  185MOL0     H24963   3.612  11.017   9.825  1.4443  0.2486  1.8352
  185MOL0     H24964   3.849  11.025   9.860  3.6400  0.7632 -2.2557
  185MOL0     H24965   4.124  11.231  10.017 -1.8016  0.9879  0.7916
  185MOL0     H24966   3.980  11.147  10.020  0.2313 -0.5376 -0.4671
  185MOL0     H24967   4.088  10.956   9.921  1.8483 -0.2430 -0.4204
  185MOL0     H24968   4.217  11.027  10.021  2.5704  1.2382 -0.6985
  185MOL0     H24969   4.184  11.102   9.731  0.4581 -1.0383 -0.2650
  185MOL0     H24970   4.270  10.958   9.767 -3.4844 -0.6652  0.5183
  185MOL0     H24971   4.419  11.116   9.936  0.5331  1.0320  1.4371
  185MOL0     H24972   4.314  11.246   9.869  3.0528  0.3120  1.7752
  185MOL0     H24973   4.572  11.170   9.552 -1.6147 -1.1653 -1.3471
  185MOL0     H24974   3.858  11.441   9.774  0.4373 -0.5309 -3.2838
  185MOL0     H24975   3.604  11.425   9.724 -1.7376 -0.4219  2.3116
  186MOL0     O24976   6.828   5.860   1.316  0.4670  0.2155 -0.1775
  186MOL0     C24977   6.724   5.800   1.291 -0.5727 -0.1093  0.4419
  186MOL0     O24978   6.716   5.689   1.206 -0.2364 -0.6281 -0.3712
  186MOL0     C24979   6.838   5.651   1.154  1.4674 -1.2940 -0.3488
  186MOL0     C24980   6.930   5.592   1.233  0.2453 -0.2631 -0.4016
  186MOL0     C24981   7.044   5.541   1.175 -1.0837 -0.5319  0.2666
  186MOL0     C24982   7.081   5.581   1.048 -0.6392  0.5831  0.5613
  186MOL0     O24983   7.204   5.537   1.017 -0.4946  0.5014 -0.0210
  186MOL0     C24984   7.281   5.614   0.914 -0.0363  1.1475 -0.3931
  186MOL0     C24985   7.332   5.754   0.953  0.6705  0.5715  0.0898
  186MOL0     C24986   7.464   5.746   1.035  0.0689 -0.1886 -0.1757
  186MOL0     C24987   7.457   5.663   1.171  0.0617 -0.3189  0.8044
  186MOL0     C24988   7.354   5.712   1.274  0.1070  0.9859 -0.5129
  186MOL0     C24989   7.372   5.855   1.304  0.0323 -0.4473  0.1536
  186MOL0     C24990   7.311   5.894   1.436  0.1819 -0.6910 -0.6634
  186MOL0     C24991   7.164   5.937   1.421 -0.2386  0.4255 -0.5901
  186MOL0     N24992   7.094   5.873   1.535  0.1868 -0.0979  0.1537
  186MOL0     C24993   7.073   5.748   1.557  1.4494  0.9447 -0.5559
  186MOL0     C24994   6.998   5.744   1.668  0.3218 -0.9685 -0.5173
  186MOL0     C24995   6.981   5.625   1.752 -0.4769 -0.3131  0.1969
  186MOL0     C24996   6.856   5.548   1.690  0.8154 -0.1458  0.4724
  186MOL0     C24997   6.725   5.630   1.684 -0.0796  0.2217 -0.6015
  186MOL0     C24998   6.613   5.545   1.645  0.0135  0.3766 -0.0474
  186MOL0     O24999   6.511   5.558   1.741 -0.2800 -0.4066 -0.1496
  186MOL0     C25000   6.385   5.503   1.724  0.2736  0.0146 -0.1993
  186MOL0     C25001   6.292   5.534   1.817 -0.7831 -0.7142  0.9858
  186MOL0     C25002   6.157   5.497   1.801 -1.0997 -0.2676 -0.6204
  186MOL0     C25003   6.058   5.553   1.907  0.3923 -0.5658  0.1520
  186MOL0     C25004   6.115   5.425   1.686 -0.8187 -0.2541  0.0653
  186MOL0     C25005   5.985   5.368   1.658  0.7779  0.7442  0.6127
  186MOL0     O25006   5.967   5.314   1.531  0.9094  0.0615  0.2926
  186MOL0     C25007   5.842   5.245   1.507 -0.6006 -0.2191 -0.4660
  186MOL0     C25008   5.841   5.107   1.490  0.0926  0.8003  0.6067
  186MOL0     C25009   5.725   5.039   1.486 -0.2331 -0.4878  0.6164
  186MOL0     C25010   5.600   5.113   1.466 -0.2356  1.0776 -0.5305
  186MOL0     O25011   5.471   5.063   1.451  0.1923  0.3118 -0.2178
  186MOL0     C25012   5.445   4.924   1.428 -0.5612  0.3449 -0.8489
  186MOL0     C25013   5.427   4.853   1.573 -0.4945 -0.4729  0.1095
  186MOL0     C25014   5.390   4.702   1.556  0.4645 -0.5449 -0.1047
  186MOL0     C25015   5.501   4.615   1.482 -0.1813  0.5603  0.0083
  186MOL0     C25016   5.480   4.458   1.489  0.3041 -0.8405 -0.8359
  186MOL0     C25017   5.599   4.382   1.420 -0.3250 -1.0304 -0.4319
  186MOL0     C25018   5.558   4.238   1.372  0.2555  0.6317 -0.3546
  186MOL0     C25019   5.510   4.244   1.238  0.0914 -1.1264  0.4499
  186MOL0    Cl25020   5.436   4.085   1.197  0.4206  0.2340  0.2283
  186MOL0     C25021   5.606   5.250   1.456  0.2724 -0.2787  0.4297
  186MOL0     C25022   5.728   5.314   1.476  0.5692  0.1933  0.0848
  186MOL0     O25023   5.897   5.370   1.741  0.0591  0.5510 -0.6461
  186MOL0     C25024   6.214   5.398   1.591 -1.4027  1.4091  0.8192
  186MOL0     C25025   6.345   5.436   1.608 -0.6441  0.4005  0.3637
  186MOL0     N25026   6.968   5.866   1.717  0.4933 -0.0089 -0.3568
  186MOL0     N25027   7.034   5.942   1.637  0.3020 -0.5367 -0.2355
  186MOL0     C25028   6.988   5.644   0.964 -0.4993  0.3711  0.0357
  186MOL0     C25029   6.858   5.672   1.014 -0.4142  0.5654 -0.0126
  186MOL0     C25030   6.589   5.849   1.356 -0.9936 -0.2267  1.3451
  186MOL0     C25031   6.573   5.973   1.421 -0.0548  0.5804  0.7974
  186MOL0     C25032   6.445   6.008   1.472  0.5181  0.9570  0.8614
  186MOL0     C25033   6.342   5.914   1.467 -0.0446 -0.1862  0.7960
  186MOL0     O25034   6.216   5.944   1.506 -0.2400 -0.2647 -0.4356
  186MOL0     C25035   6.190   5.996   1.637  0.3557  0.3804  0.1008
  186MOL0     C25036   6.173   5.885   1.735  0.5678  0.3196  0.0542
  186MOL0     C25037   6.236   5.916   1.879 -0.4422  0.2994  0.1135
  186MOL0     C25038   6.172   6.019   1.960  0.8596  0.0731  0.0865
  186MOL0     C25039   6.026   6.002   1.976 -0.7030 -0.2193 -0.7935
  186MOL0     C25040   5.916   5.974   1.977 -0.1575 -0.7783  0.6277
  186MOL0     C25041   6.358   5.800   1.389  0.0349 -0.1400 -0.2429
  186MOL0     C25042   6.478   5.765   1.331 -1.5337  0.5871 -1.2983
  186MOL0     H25043   6.909   5.561   1.335  0.8938 -1.1095 -0.5116
  186MOL0     H25044   7.116   5.494   1.240 -2.3029  0.4751  2.4632
  186MOL0     H25045   7.369   5.551   0.898  0.9243  1.2772  3.3977
  186MOL0     H25046   7.233   5.626   0.817 -2.2622  2.8154  0.8382
  186MOL0     H25047   7.348   5.818   0.866  0.6154  4.0163  2.3947
  186MOL0     H25048   7.249   5.795   1.011 -1.2004 -2.1745 -0.4417
  186MOL0     H25049   7.549   5.707   0.978 -0.6098 -0.6936 -0.8676
  186MOL0     H25050   7.482   5.851   1.060 -2.2532 -0.0253  1.1096
  186MOL0     H25051   7.451   5.555   1.153  1.7131 -0.0584 -1.9432
  186MOL0     H25052   7.557   5.676   1.215 -1.3194 -1.0005  4.4887
  186MOL0     H25053   7.250   5.710   1.240 -0.2411  1.0015  0.5275
  186MOL0     H25054   7.364   5.653   1.365 -0.1801  0.7241 -0.6492
  186MOL0     H25055   7.478   5.881   1.305 -0.1589  0.7897 -2.6413
  186MOL0     H25056   7.328   5.924   1.231  1.7650 -0.4827 -0.9626
  186MOL0     H25057   7.316   5.803   1.497 -2.2823 -1.8204 -1.9680
  186MOL0     H25058   7.360   5.983   1.476 -0.1325  1.1075 -3.9699
  186MOL0     H25059   7.111   5.901   1.333 -2.4261  3.2677 -0.5535
  186MOL0     H25060   7.161   6.045   1.432 -0.0414  0.4896 -1.1626
  186MOL0     H25061   7.113   5.678   1.484  1.2966 -1.0206  1.1486
  186MOL0     H25062   7.068   5.559   1.751  0.8313  1.3083  1.2394
  186MOL0     H25063   6.948   5.656   1.852  1.0065 -1.2080  1.0006
  186MOL0     H25064   6.838   5.456   1.746  2.0135  0.6270  2.2271
  186MOL0     H25065   6.878   5.529   1.585  0.9383  1.5527  0.1687
  186MOL0     H25066   6.728   5.709   1.608 -2.1028  0.0897 -0.8912
  186MOL0     H25067   6.711   5.676   1.783  0.9938 -1.7220  0.5152
  186MOL0     H25068   6.647   5.441   1.643  6.4934  1.9942  1.3301
  186MOL0     H25069   6.576   5.593   1.555 -1.3944 -0.1310  0.2420
  186MOL0     H25070   6.326   5.610   1.886  1.4019  0.3276 -1.0919
  186MOL0     H25071   5.960   5.579   1.866 -0.0214 -2.0411  0.1522
  186MOL0     H25072   6.035   5.475   1.980 -1.2321  1.1797  1.6306
  186MOL0     H25073   6.091   5.643   1.960 -3.5156 -1.0737  4.0187
  186MOL0     H25074   5.930   5.048   1.512  0.2609  1.5567  2.0863
  186MOL0     H25075   5.736   4.932   1.499 -1.6093 -0.4560  2.4600
  186MOL0     H25076   5.346   4.925   1.383 -0.9088 -0.8585 -0.1746
  186MOL0     H25077   5.511   4.870   1.359 -2.9341 -1.7460 -1.6152
  186MOL0     H25078   5.524   4.865   1.622 -0.5168 -2.6393  0.7900
  186MOL0     H25079   5.350   4.911   1.626  0.5287  2.1157 -1.0669
  186MOL0     H25080   5.299   4.711   1.496  1.6079 -0.8502 -1.9561
  186MOL0     H25081   5.368   4.659   1.654  3.2881 -0.2043  0.7746
  186MOL0     H25082   5.511   4.645   1.377 -2.9049  1.4310 -0.0780
  186MOL0     H25083   5.592   4.645   1.535 -0.4218 -0.0123  0.7638
  186MOL0     H25084   5.380   4.432   1.452 -0.7395  0.3901  0.9584
  186MOL0     H25085   5.474   4.422   1.593  0.5014 -1.0108 -0.8827
  186MOL0     H25086   5.634   4.447   1.340  0.7471  0.3349  1.0874
  186MOL0     H25087   5.680   4.370   1.492 -0.6368 -0.8690 -0.0503
  186MOL0     H25088   5.478   4.198   1.435  0.8068  0.7392  0.4454
  186MOL0     H25089   5.649   4.176   1.372 -0.2139 -0.1733  2.0577
  186MOL0     H25090   5.594   4.270   1.173  0.8355 -0.1110  1.7767
  186MOL0     H25091   5.434   4.320   1.216  1.1489 -0.1152  0.2209
  186MOL0     H25092   5.510   5.295   1.431  0.0725 -0.4223  0.9261
  186MOL0     H25093   5.733   5.422   1.465 -0.4232  0.1205 -1.4176
  186MOL0     H25094   6.196   5.343   1.499 -0.2997  2.8036 -0.2821
  186MOL0     H25095   6.413   5.414   1.526  1.8314  0.1479  2.3587
  186MOL0     H25096   7.009   5.674   0.862  1.3751 -0.1390  0.2279
  186MOL0     H25097   6.775   5.707   0.953 -1.1901  0.8450  1.1642
  186MOL0     H25098   6.658   6.036   1.443  0.3956  0.5684 -0.7746
  186MOL0     H25099   6.428   6.109   1.509 -0.5413  1.1211 -0.0281
  186MOL0     H25100   6.266   6.065   1.676  0.2706 -0.1450  1.2212
  186MOL0     H25101   6.094   6.045   1.619 -0.4154 -1.6764 -1.8961
  186MOL0     H25102   6.211   5.793   1.689  1.3249  0.0702  1.1206
  186MOL0     H25103   6.065   5.870   1.748  0.7877 -0.9671  0.5444
  186MOL0     H25104   6.342   5.941   1.866  0.0373 -2.3316 -1.7499
  186MOL0     H25105   6.231   5.822   1.935  0.3220 -0.6883 -1.4086
  186MOL0     H25106   6.181   6.109   1.899  1.1631  0.2647  0.4142
  186MOL0     H25107   6.221   6.037   2.056 -1.0809  1.6310  0.8503
  186MOL0     H25108   5.818   5.931   1.977  0.3110 -1.9545  2.5762
  186MOL0     H25109   6.283   5.722   1.375  2.4420 -2.5529 -0.6192
  186MOL0     H25110   6.487   5.674   1.273  0.7596 -0.4563  0.5428
  187MOL0     O25111   9.226   1.801   9.907 -1.1636  0.3181  0.4646
  187MOL0     C25112   9.295   1.868   9.837 -0.0779 -0.2641  0.3146
  187MOL0     O25113   9.281   1.876   9.706  0.6246  0.2193  0.2591
  187MOL0     C25114   9.170   1.846   9.626 -0.2706  0.1701 -1.2673
  187MOL0     C25115   9.180   1.818   9.485 -0.4213  0.5876 -0.3081
  187MOL0     C25116   9.070   1.760   9.406  0.3301 -0.3017 -0.1789
  187MOL0     C25117   8.945   1.740   9.464 -0.7479 -1.0934 -0.3995
  187MOL0     O25118   8.851   1.680   9.396 -0.3026 -0.2201 -0.0360
  187MOL0     C25119   8.716   1.687   9.435  0.7144 -0.0005 -0.0732
  187MOL0     C25120   8.621   1.730   9.314  0.4268  0.9684 -0.7675
  187MOL0     C25121   8.616   1.611   9.207  0.1503 -0.2893 -1.0055
  187MOL0     C25122   8.506   1.632   9.098 -0.2329  0.4007 -0.2901
  187MOL0     C25123   8.507   1.534   8.989 -0.0064 -0.4169  0.4053
  187MOL0     C25124   8.540   1.594   8.855  0.0001  0.2016  0.0005
  187MOL0     C25125   8.578   1.497   8.741 -0.0568 -0.3661 -0.1364
  187MOL0     C25126   8.488   1.367   8.736 -0.2221 -0.4055 -0.6117
  187MOL0     N25127   8.345   1.400   8.721 -0.8588 -0.2410  0.3083
  187MOL0     C25128   8.288   1.480   8.622 -0.5329 -0.4570  0.3434
  187MOL0     C25129   8.163   1.508   8.657 -0.0365  0.8788  0.0942
  187MOL0     C25130   8.069   1.604   8.604 -0.2815  0.1834 -0.2501
  187MOL0     C25131   8.059   1.737   8.687 -0.3318 -0.0818 -0.0587
  187MOL0     C25132   7.980   1.724   8.824  0.5649  0.0190  0.6287
  187MOL0     C25133   7.936   1.847   8.890  0.1568 -0.2260  0.2965
  187MOL0     O25134   7.845   1.937   8.819 -0.9881 -0.0905  0.0705
  187MOL0     C25135   7.712   1.908   8.807  0.0258  0.2241  0.7109
  187MOL0     C25136   7.640   1.813   8.879  0.0074  0.3198  0.0550
  187MOL0     C25137   7.501   1.792   8.862 -0.9441 -0.5804  0.5936
  187MOL0     C25138   7.441   1.672   8.925 -0.3891 -0.2511  0.1913
  187MOL0     C25139   7.429   1.874   8.770  0.0293 -0.1425 -0.7238
  187MOL0     C25140   7.291   1.842   8.729  0.6856  0.4442 -0.3726
  187MOL0     O25141   7.208   1.955   8.714  0.8644  0.3980  0.5055
  187MOL0     C25142   7.088   1.928   8.645  0.0833  0.3713 -0.1011
  187MOL0     C25143   6.962   1.949   8.712  0.1738 -0.0278  0.0114
  187MOL0     C25144   6.839   1.946   8.637 -0.1397  0.7041  0.2457
  187MOL0     C25145   6.841   1.906   8.501 -0.6140 -0.6589 -0.2588
  187MOL0     O25146   6.729   1.898   8.414  0.1633  0.0169 -0.1677
  187MOL0     C25147   6.605   1.965   8.448 -0.3509 -0.1016  0.2951
  187MOL0     C25148   6.503   1.865   8.514  0.0250 -0.1595 -0.3985
  187MOL0     C25149   6.359   1.920   8.514 -0.2723  0.3634  0.0136
  187MOL0     C25150   6.299   1.969   8.383 -0.4744  0.7937  0.5945
  187MOL0     C25151   6.148   2.001   8.398  0.5336  0.6403 -0.0942
  187MOL0     C25152   6.071   2.004   8.261  0.7515  0.6309  0.3324
  187MOL0     C25153   6.045   1.860   8.207 -0.5135 -0.0255 -0.1507
  187MOL0     C25154   5.931   1.859   8.109 -0.0482  0.1826  0.3066
  187MOL0    Cl25155   5.930   1.968   7.964 -0.2154  0.2141  0.0320
  187MOL0     C25156   6.962   1.875   8.445 -0.0135 -0.1428 -0.1494
  187MOL0     C25157   7.090   1.879   8.510  0.6080 -0.5662 -0.8540
  187MOL0     O25158   7.256   1.722   8.707  0.5517 -0.3913 -0.1087
  187MOL0     C25159   7.493   1.991   8.715 -0.3523 -1.7189 -0.3223
  187MOL0     C25160   7.633   2.004   8.734 -0.5700 -0.6814  0.2173
  187MOL0     N25161   8.144   1.445   8.784 -0.2671 -0.4146  0.3326
  187MOL0     N25162   8.253   1.379   8.813  0.7801  1.0416 -0.2286
  187MOL0     C25163   8.935   1.770   9.606  0.6417  0.2221 -0.5744
  187MOL0     C25164   9.048   1.817   9.678  0.3617 -0.3894 -0.4761
  187MOL0     C25165   9.414   1.942   9.897  0.0217 -0.1011 -0.7569
  187MOL0     C25166   9.497   2.006   9.811  0.5772  0.1364  0.4699
  187MOL0     C25167   9.606   2.083   9.855  0.4079  0.5490 -0.1303
  187MOL0     C25168   9.630   2.078   9.989 -0.5005 -0.4812  0.0261
  187MOL0     O25169   9.744   2.144  10.023 -0.0465 -0.2636  0.4531
  187MOL0     C25170   9.750   2.193  10.161  0.0946  0.4736  0.9379
  187MOL0     C25171   9.860   2.303  10.159 -0.2402 -0.7189  0.4479
  187MOL0     C25172   9.811   2.413  10.064  0.3030  0.0502 -0.4487
  187MOL0     C25173   9.877   2.545  10.083  0.0268  0.0512  0.2967
  187MOL0     C25174  10.026   2.542  10.071 -0.0294 -0.3151 -0.2699
  187MOL0     C25175  10.143   2.535  10.068  0.0135  0.4769 -0.2134
  187MOL0     C25176   9.553   2.006  10.087 -0.1940 -0.4323  0.8488
  187MOL0     C25177   9.448   1.936  10.035  0.4803  0.2669  0.1826
  187MOL0     H25178   9.276   1.825   9.434 -1.1900 -0.0871 -1.9166
  187MOL0     H25179   9.083   1.735   9.301 -0.7761 -3.7632  0.4050
  187MOL0     H25180   8.690   1.586   9.466  0.1179  0.4204  0.8696
  187MOL0     H25181   8.706   1.754   9.521  0.8756 -0.3350  0.2062
  187MOL0     H25182   8.518   1.749   9.347 -0.5924  1.3709 -3.8194
  187MOL0     H25183   8.661   1.824   9.273 -2.0580  2.0106 -0.9982
  187MOL0     H25184   8.709   1.591   9.154 -0.1425 -0.6039 -1.4049
  187MOL0     H25185   8.588   1.523   9.266 -4.1035  1.0285 -0.6895
  187MOL0     H25186   8.409   1.641   9.147  0.2286 -1.8865  1.1703
  187MOL0     H25187   8.531   1.732   9.061  2.0094  0.7477  1.9015
  187MOL0     H25188   8.574   1.448   9.001  1.0116  0.1314 -1.0070
  187MOL0     H25189   8.403   1.502   8.986  0.5936 -2.5003 -0.7279
  187MOL0     H25190   8.451   1.646   8.818  0.7125  0.3041 -1.7033
  187MOL0     H25191   8.620   1.669   8.855 -1.1312  1.4615 -0.7186
  187MOL0     H25192   8.569   1.549   8.645  0.8208 -2.0642 -1.1986
  187MOL0     H25193   8.685   1.475   8.754  0.4094  0.5049 -2.0396
  187MOL0     H25194   8.508   1.302   8.821 -1.4937  1.4598  1.2196
  187MOL0     H25195   8.502   1.311   8.643 -2.6057 -2.4982  0.1690
  187MOL0     H25196   8.345   1.521   8.538  0.5073 -2.3762  0.0671
  187MOL0     H25197   8.094   1.640   8.503 -1.3646  1.8785  0.0542
  187MOL0     H25198   7.974   1.549   8.605  1.2383 -2.8358  3.2951
  187MOL0     H25199   8.007   1.816   8.633 -2.2089 -0.9319  0.4135
  187MOL0     H25200   8.161   1.769   8.710 -0.5103  1.1490 -0.8767
  187MOL0     H25201   8.039   1.666   8.895  2.5791  1.0572 -0.1271
  187MOL0     H25202   7.884   1.673   8.814  1.2241 -1.6683  2.3830
  187MOL0     H25203   8.028   1.905   8.901 -1.2449  2.1534  0.2129
  187MOL0     H25204   7.906   1.829   8.993  0.0255 -0.9495  0.1377
  187MOL0     H25205   7.680   1.736   8.944 -2.0912 -0.8693  0.0562
  187MOL0     H25206   7.345   1.704   8.967  1.6767  2.6755  3.1859
  187MOL0     H25207   7.452   1.582   8.864  1.2747 -0.8067  1.2451
  187MOL0     H25208   7.493   1.640   9.016  2.1429 -0.1883 -1.1634
  187MOL0     H25209   6.970   1.990   8.813  2.7006  0.4414 -0.3251
  187MOL0     H25210   6.743   1.979   8.676 -0.0799  0.8993  0.2292
  187MOL0     H25211   6.616   2.059   8.504 -1.2037  0.6809 -0.8222
  187MOL0     H25212   6.560   1.990   8.352  1.5867 -1.5818 -1.0797
  187MOL0     H25213   6.506   1.783   8.442 -1.6449 -1.3349  0.7973
  187MOL0     H25214   6.533   1.830   8.613 -2.8132 -1.0497  0.2450
  187MOL0     H25215   6.354   2.002   8.587 -0.6194 -0.0278  0.4356
  187MOL0     H25216   6.298   1.837   8.552  0.1392  0.4076  0.7969
  187MOL0     H25217   6.348   2.062   8.353  0.4710  0.0046 -0.3563
  187MOL0     H25218   6.309   1.887   8.311 -2.4764  0.3428  0.7816
  187MOL0     H25219   6.141   2.106   8.431  1.7516  0.9520 -0.7539
  187MOL0     H25220   6.095   1.932   8.464  3.1433 -0.2985  1.1444
  187MOL0     H25221   5.972   2.049   8.270  0.0315 -0.1594 -2.4961
  187MOL0     H25222   6.134   2.063   8.194  2.5073 -0.9248  0.5133
  187MOL0     H25223   6.018   1.797   8.293 -0.3636  0.8920  0.5955
  187MOL0     H25224   6.134   1.813   8.166  0.7500 -0.8820  3.2186
  187MOL0     H25225   5.845   1.883   8.173  0.7485  1.1740  1.0361
  187MOL0     H25226   5.899   1.758   8.082 -0.0481  0.1376  0.4732
  187MOL0     H25227   6.956   1.845   8.341  4.7440 -0.3074 -0.5940
  187MOL0     H25228   7.190   1.865   8.471  2.6994  1.8296  2.8959
  187MOL0     H25229   7.430   2.066   8.669 -0.3948  1.4711  4.2123
  187MOL0     H25230   7.678   2.087   8.680 -3.1180  1.7656  1.5313
  187MOL0     H25231   8.845   1.745   9.662  1.3285 -2.8752 -0.6776
  187MOL0     H25232   9.035   1.833   9.785 -1.2570  1.0992 -0.8593
  187MOL0     H25233   9.476   2.013   9.705 -0.8428  0.9580  0.7822
  187MOL0     H25234   9.681   2.128   9.790 -0.0797  2.0900  0.3369
  187MOL0     H25235   9.659   2.244  10.192 -2.2632 -2.2694 -0.9501
  187MOL0     H25236   9.761   2.110  10.231 -1.0443 -0.8791 -0.4154
  187MOL0     H25237   9.952   2.258  10.121 -0.3607 -1.2528  0.7758
  187MOL0     H25238   9.878   2.335  10.261  1.1148 -0.5444  0.1702
  187MOL0     H25239   9.705   2.436  10.081 -0.1073 -2.0871  0.2476
  187MOL0     H25240   9.821   2.376   9.962  0.0768  0.7065 -0.7162
  187MOL0     H25241   9.859   2.574  10.187 -0.5430 -1.7043  0.7219
  187MOL0     H25242   9.833   2.617  10.014 -0.5103 -0.9611 -0.4398
  187MOL0     H25243  10.249   2.526  10.063 -0.1373 -0.8109 -2.9798
  187MOL0     H25244   9.576   2.000  10.193  1.7820 -1.1913  0.4089
  187MOL0     H25245   9.369   1.894  10.096 -0.4859 -0.2483 -1.3509
  188MOL0     O25246   7.905   9.634   2.630 -0.6138 -0.4520  0.1027
  188MOL0     C25247   7.931   9.741   2.690  0.6210 -0.4385  0.5995
  188MOL0     O25248   7.854   9.800   2.784 -0.0626  0.2100 -0.1449
  188MOL0     C25249   7.734   9.751   2.829  0.1788 -0.1881  0.5028
  188MOL0     C25250   7.696   9.761   2.962  0.1244 -0.5671  0.4743
  188MOL0     C25251   7.569   9.721   3.008 -1.9995 -0.1725  0.6718
  188MOL0     C25252   7.484   9.664   2.908 -0.2494  0.1769  0.0075
  188MOL0     O25253   7.359   9.640   2.952  0.2163 -0.0975  0.0160
  188MOL0     C25254   7.256   9.731   2.920  0.3361 -0.6630  0.5086
  188MOL0     C25255   7.124   9.660   2.887 -0.2674 -0.1912  0.0349
  188MOL0     C25256   7.069   9.569   2.997 -0.1437  0.3774 -0.3001
  188MOL0     C25257   6.983   9.641   3.106  0.0196 -1.1815 -0.3689
  188MOL0     C25258   6.840   9.661   3.043  0.3267 -0.3082  0.2228
  188MOL0     C25259   6.732   9.685   3.157  0.5157  0.1644  0.3455
  188MOL0     C25260   6.593   9.643   3.102 -0.2073 -0.1138 -0.2198
  188MOL0     C25261   6.534   9.716   2.982 -0.1342  0.5509  0.4069
  188MOL0     N25262   6.463   9.612   2.896  0.2134 -0.0002 -0.6328
  188MOL0     C25263   6.515   9.537   2.794  0.5453  0.0013  0.2468
  188MOL0     C25264   6.416   9.467   2.746 -0.7131 -0.5869  0.5546
  188MOL0     C25265   6.427   9.367   2.636 -0.0215  0.1802  0.6913
  188MOL0     C25266   6.500   9.238   2.659 -0.5351 -0.1223  0.7045
  188MOL0     C25267   6.533   9.176   2.531  0.3661  0.7688 -0.0670
  188MOL0     C25268   6.575   9.027   2.575  0.4402 -0.8115  0.0298
  188MOL0     O25269   6.618   8.961   2.447 -0.0353 -0.2454 -0.0001
  188MOL0     C25270   6.693   8.852   2.462 -0.1808 -0.1409 -0.1072
  188MOL0     C25271   6.735   8.786   2.582 -0.3070 -0.1164  0.6092
  188MOL0     C25272   6.819   8.675   2.593 -0.7686 -0.5484 -0.0179
  188MOL0     C25273   6.842   8.613   2.734 -0.0868  0.2855  0.4601
  188MOL0     C25274   6.868   8.624   2.472  0.0646 -0.2603  0.3533
  188MOL0     C25275   6.961   8.509   2.456 -0.5008 -0.4448  0.4616
  188MOL0     O25276   7.051   8.473   2.554 -0.2269 -0.5117 -0.1004
  188MOL0     C25277   7.154   8.390   2.523 -0.8945 -0.1941  0.7088
  188MOL0     C25278   7.264   8.441   2.458 -1.5276  0.4493  0.1328
  188MOL0     C25279   7.370   8.352   2.417  0.1559  0.6433  0.1493
  188MOL0     C25280   7.356   8.212   2.433  0.4312 -0.5225  0.8523
  188MOL0     O25281   7.441   8.113   2.399  0.0501 -0.1745 -0.1131
  188MOL0     C25282   7.572   8.140   2.358 -0.3356  0.4316 -0.1628
  188MOL0     C25283   7.676   8.211   2.456 -0.0870 -0.2774  1.3290
  188MOL0     C25284   7.771   8.293   2.371 -0.0206  0.6798  0.1842
  188MOL0     C25285   7.883   8.355   2.461  0.2156  0.1562 -0.2669
  188MOL0     C25286   7.975   8.434   2.384 -0.1979 -0.4648 -0.7000
  188MOL0     C25287   8.116   8.435   2.448 -0.1674  0.3799  0.1065
  188MOL0     C25288   8.127   8.495   2.587  0.1079  0.7903  0.4363
  188MOL0     C25289   8.147   8.650   2.583  1.1023  0.3720  0.4612
  188MOL0    Cl25290   8.302   8.698   2.499  0.3801  0.2198  0.2266
  188MOL0     C25291   7.244   8.168   2.509  1.1054  0.0008 -0.5167
  188MOL0     C25292   7.141   8.253   2.550 -0.0987 -0.3043  0.2499
  188MOL0     O25293   6.966   8.466   2.336  0.2810  0.0340 -0.6688
  188MOL0     C25294   6.819   8.683   2.350 -0.1250  0.9186 -0.0720
  188MOL0     C25295   6.737   8.791   2.348 -0.4002 -0.9678  0.8778
  188MOL0     N25296   6.306   9.494   2.824  0.1614  0.3871 -0.2757
  188MOL0     N25297   6.332   9.586   2.910  0.0204 -0.2933 -0.4325
  188MOL0     C25298   7.519   9.655   2.776 -0.2005 -1.2791  0.0355
  188MOL0     C25299   7.645   9.694   2.736 -0.9088 -0.3278 -0.4778
  188MOL0     C25300   8.073   9.787   2.670 -0.2168 -0.0997 -0.5136
  188MOL0     C25301   8.152   9.717   2.574 -0.6808  0.1247  0.3749
  188MOL0     C25302   8.284   9.777   2.553  0.1346 -0.0716 -0.0323
  188MOL0     C25303   8.334   9.869   2.643 -0.4342 -0.6923 -0.7470
  188MOL0     O25304   8.462   9.905   2.624  0.6757 -0.2471 -0.3153
  188MOL0     C25305   8.495  10.049   2.633  0.3585 -0.3383  0.2873
  188MOL0     C25306   8.611  10.080   2.542 -0.8653  0.4751 -0.7594
  188MOL0     C25307   8.745  10.042   2.613  0.4649  0.2638 -0.7989
  188MOL0     C25308   8.867  10.051   2.513 -0.0649  0.3302  0.1636
  188MOL0     C25309   9.005  10.046   2.574 -0.1450  0.4146  0.0353
  188MOL0     C25310   9.112  10.052   2.625  1.0147 -0.4117 -0.6154
  188MOL0     C25311   8.254   9.931   2.737 -0.0887  0.3216 -0.0189
  188MOL0     C25312   8.121   9.889   2.742  0.4680 -0.5018 -0.3564
  188MOL0     H25313   7.767   9.809   3.029 -0.7131 -0.1646  1.1110
  188MOL0     H25314   7.538   9.728   3.112 -3.0618  0.7633  0.3102
  188MOL0     H25315   7.245   9.793   3.009 -2.2556  0.1201 -0.2412
  188MOL0     H25316   7.276   9.795   2.833 -2.0418  1.0146  1.0924
  188MOL0     H25317   7.051   9.737   2.861  0.5576  0.6383  0.0829
  188MOL0     H25318   7.144   9.607   2.793 -0.3079  0.8713 -0.5995
  188MOL0     H25319   7.012   9.490   2.946 -1.3321  1.4484 -0.6750
  188MOL0     H25320   7.153   9.525   3.051  1.5819  2.7240 -0.9044
  188MOL0     H25321   6.981   9.595   3.206  0.4001 -1.5085 -0.5089
  188MOL0     H25322   7.037   9.734   3.121  0.5826 -1.5573 -0.0290
  188MOL0     H25323   6.844   9.748   2.977  0.1246  2.3231  3.4153
  188MOL0     H25324   6.806   9.577   2.982  0.1143 -0.0012 -0.0887
  188MOL0     H25325   6.753   9.617   3.239  0.6529 -0.1620  0.0441
  188MOL0     H25326   6.735   9.787   3.198  2.9452 -0.3338  1.6174
  188MOL0     H25327   6.612   9.542   3.065  0.3942 -0.2418  0.4081
  188MOL0     H25328   6.522   9.651   3.184 -0.6324  3.4197 -0.7770
  188MOL0     H25329   6.616   9.759   2.925 -0.4001  0.0418 -0.3722
  188MOL0     H25330   6.460   9.791   3.011  1.2314  1.6124  1.2418
  188MOL0     H25331   6.610   9.538   2.740  0.2496 -0.0734 -0.2787
  188MOL0     H25332   6.331   9.350   2.586  1.4126  0.8308 -2.5313
  188MOL0     H25333   6.481   9.425   2.561  0.2744 -1.2023 -0.2073
  188MOL0     H25334   6.430   9.171   2.711  0.9203 -0.4764  2.3233
  188MOL0     H25335   6.582   9.269   2.725  1.8144  1.1590 -2.5991
  188MOL0     H25336   6.618   9.220   2.478 -1.2127  2.1947 -1.5432
  188MOL0     H25337   6.451   9.176   2.458  0.7519 -2.6338 -0.6689
  188MOL0     H25338   6.490   8.981   2.625  1.1340  0.1831  2.2442
  188MOL0     H25339   6.652   9.034   2.652  0.0311  1.7854  0.3046
  188MOL0     H25340   6.703   8.834   2.674  1.1977  3.1837 -0.4497
  188MOL0     H25341   6.869   8.507   2.733 -0.5710  0.1568  0.7000
  188MOL0     H25342   6.907   8.686   2.783 -0.6774  1.4303 -0.4057
  188MOL0     H25343   6.746   8.614   2.787 -1.4498 -0.7732 -1.8148
  188MOL0     H25344   7.275   8.549   2.450  1.2925  0.2548  0.4038
  188MOL0     H25345   7.452   8.390   2.356 -1.0656 -0.6028 -2.4692
  188MOL0     H25346   7.620   8.047   2.326  1.4617  0.0583  3.2329
  188MOL0     H25347   7.569   8.198   2.265  1.4245 -0.1361 -0.6142
  188MOL0     H25348   7.622   8.273   2.529  0.8322  0.4742  1.3808
  188MOL0     H25349   7.733   8.143   2.520 -0.4013 -2.4308 -0.5465
  188MOL0     H25350   7.719   8.374   2.319  1.1425  0.7010 -0.9898
  188MOL0     H25351   7.829   8.234   2.299  0.5445  3.1766 -1.5478
  188MOL0     H25352   7.823   8.418   2.528 -2.3678 -2.4277  0.0348
  188MOL0     H25353   7.925   8.275   2.523 -3.2828 -0.9956  0.8236
  188MOL0     H25354   7.941   8.538   2.383  0.5422 -0.1797  0.9416
  188MOL0     H25355   7.978   8.397   2.282 -1.3670  0.3265 -1.0516
  188MOL0     H25356   8.153   8.332   2.456 -0.8195  0.1590  0.3263
  188MOL0     H25357   8.182   8.485   2.377  0.1475 -0.1584  0.0131
  188MOL0     H25358   8.210   8.440   2.632  1.6602  2.6805  0.0281
  188MOL0     H25359   8.032   8.484   2.642  0.4382  3.2590  1.6707
  188MOL0     H25360   8.132   8.687   2.686 -1.6473 -0.0450  0.2922
  188MOL0     H25361   8.063   8.691   2.526  0.1740 -2.2002 -0.1140
  188MOL0     H25362   7.232   8.063   2.535 -1.3593  0.9583  2.8881
  188MOL0     H25363   7.057   8.210   2.603  1.7756 -1.1606  2.7118
  188MOL0     H25364   6.840   8.648   2.250 -2.7972  2.0400 -1.1012
  188MOL0     H25365   6.700   8.825   2.251 -1.2524  1.4157  1.9780
  188MOL0     H25366   7.445   9.629   2.701  0.6452  0.1845 -1.3919
  188MOL0     H25367   7.673   9.688   2.631  3.0755  1.9417  0.2767
  188MOL0     H25368   8.116   9.645   2.500  1.6858 -2.1963  1.3223
  188MOL0     H25369   8.348   9.724   2.483 -0.9282 -2.8394  0.9302
  188MOL0     H25370   8.405  10.103   2.603  0.7465  0.7696  1.0787
  188MOL0     H25371   8.518  10.084   2.734 -0.7594  1.8216 -0.1493
  188MOL0     H25372   8.621  10.188   2.527  1.4984  0.0778 -2.6917
  188MOL0     H25373   8.600  10.024   2.449  1.7637  1.5690 -1.8125
  188MOL0     H25374   8.755   9.939   2.649  1.3934  1.3528  2.4406
  188MOL0     H25375   8.768  10.102   2.702  2.8409 -0.3716 -0.9055
  188MOL0     H25376   8.865  10.152   2.470 -2.5354 -0.0734 -0.8029
  188MOL0     H25377   8.858   9.972   2.439  0.5391  1.4744 -1.1806
  188MOL0     H25378   9.205  10.061   2.678  0.0001 -1.9842  1.6081
  188MOL0     H25379   8.295  10.012   2.796 -1.1896  2.5761 -2.1377
  188MOL0     H25380   8.053   9.941   2.809 -0.0124  3.5152 -3.5733
  189MOL0     O25381   6.924   1.387   1.099 -0.0646 -0.8596  0.1150
  189MOL0     C25382   6.946   1.403   0.985  0.2452  0.8238  0.3949
  189MOL0     O25383   6.856   1.407   0.883  0.4040  0.7083 -0.7460
  189MOL0     C25384   6.723   1.372   0.899 -0.0088  0.6525  0.3494
  189MOL0     C25385   6.628   1.470   0.872 -0.1038 -0.5372 -0.0503
  189MOL0     C25386   6.491   1.444   0.881  0.0366  0.7998 -0.0061
  189MOL0     C25387   6.440   1.320   0.919 -0.5450 -0.8764  0.2021
  189MOL0     O25388   6.304   1.314   0.926  0.2700  0.4608  0.1102
  189MOL0     C25389   6.249   1.186   0.953 -0.5405  0.3556  0.2661
  189MOL0     C25390   6.223   1.099   0.817 -0.5311 -0.6055 -0.5317
  189MOL0     C25391   6.135   0.976   0.844 -0.2387  0.2667 -0.2285
  189MOL0     C25392   5.986   1.003   0.840  0.5917  0.1710  0.2546
  189MOL0     C25393   5.909   0.868   0.849 -0.6243  0.1259 -0.6064
  189MOL0     C25394   5.767   0.890   0.870  0.1110 -0.4515  0.2415
  189MOL0     C25395   5.686   0.759   0.894 -0.0684 -0.6716  0.0475
  189MOL0     C25396   5.534   0.779   0.901  0.3517  0.3672  0.5980
  189MOL0     N25397   5.481   0.651   0.963  0.4848  1.0060  0.0161
  189MOL0     C25398   5.513   0.518   0.940 -0.2707  0.9577 -0.4785
  189MOL0     C25399   5.446   0.448   1.036  0.2549 -0.8035 -0.7577
  189MOL0     C25400   5.454   0.305   1.078 -0.5449 -0.8482 -0.5362
  189MOL0     C25401   5.534   0.218   0.980  0.0893  0.0650 -0.1964
  189MOL0     C25402   5.485   0.213   0.833 -0.9913  0.5373 -0.4264
  189MOL0     C25403   5.328   0.187   0.813 -0.7422  0.3363 -0.6877
  189MOL0     O25404   5.305   0.118   0.689 -0.2627 -0.0450 -0.2551
  189MOL0     C25405   5.177   0.100   0.645 -0.2989  0.6722  0.2013
  189MOL0     C25406   5.060   0.134   0.712 -0.4189 -0.5984 -0.8279
  189MOL0     C25407   4.931   0.109   0.660 -0.5158 -0.3510 -0.1445
  189MOL0     C25408   4.815   0.168   0.747 -0.0861  0.4611  0.4710
  189MOL0     C25409   4.918   0.044   0.533  0.1184 -0.2018 -0.9990
  189MOL0     C25410   4.790   0.013   0.468  0.5527  0.0411  0.5762
  189MOL0     O25411   4.788  -0.016   0.333 -0.3900 -0.0409  0.3336
  189MOL0     C25412   4.688  -0.098   0.282  0.5938  0.1982 -0.6642
  189MOL0     C25413   4.721  -0.237   0.273 -0.2828 -0.0789  0.3285
  189MOL0     C25414   4.621  -0.320   0.231  0.2320 -0.1992 -0.2084
  189MOL0     C25415   4.495  -0.277   0.193  0.0633  0.6134  0.4869
  189MOL0     O25416   4.394  -0.369   0.156 -0.7186  0.3498  0.7996
  189MOL0     C25417   4.367  -0.478   0.250 -1.0846 -0.5789  0.6794
  189MOL0     C25418   4.234  -0.456   0.329  0.0556  0.0304  0.3653
  189MOL0     C25419   4.111  -0.467   0.239 -0.5431 -0.1763 -0.0063
  189MOL0     C25420   3.983  -0.479   0.316  0.1303  0.4372  0.8500
  189MOL0     C25421   3.856  -0.480   0.231  0.2795  0.2359  0.2139
  189MOL0     C25422   3.740  -0.579   0.274 -0.7141 -0.9020 -0.5941
  189MOL0     C25423   3.648  -0.524   0.384  0.3028  0.2104  0.6113
  189MOL0     C25424   3.726  -0.508   0.510 -0.0923 -0.6307 -0.2432
  189MOL0    Cl25425   3.819  -0.661   0.565 -0.1892  0.5781  0.0067
  189MOL0     C25426   4.467  -0.142   0.189 -1.0859  0.0137 -0.0660
  189MOL0     C25427   4.559  -0.053   0.241  0.0490  0.1361  0.0407
  189MOL0     O25428   4.697  -0.010   0.544  0.1418 -0.1457 -0.1290
  189MOL0     C25429   5.041   0.018   0.465 -0.8490  0.0605 -0.1447
  189MOL0     C25430   5.164   0.036   0.523 -0.6536  0.1382  0.6358
  189MOL0     N25431   5.357   0.535   1.103 -0.4805 -0.1583  0.6203
  189MOL0     N25432   5.380   0.653   1.057  0.1473  0.1174 -0.5422
  189MOL0     C25433   6.538   1.217   0.950  0.4750  0.6172 -0.8892
  189MOL0     C25434   6.675   1.243   0.946  0.2647 -0.4102  0.6946
  189MOL0     C25435   7.087   1.421   0.946 -0.0377  0.3561 -0.3435
  189MOL0     C25436   7.179   1.470   1.049 -1.2170 -0.4149  0.3534
  189MOL0     C25437   7.312   1.494   1.015 -0.0668  0.0970  0.6287
  189MOL0     C25438   7.360   1.476   0.882  0.1052  0.9332  0.0949
  189MOL0     O25439   7.487   1.527   0.867  0.1789 -0.0637  0.2491
  189MOL0     C25440   7.528   1.555   0.734  0.1309  0.0289  0.8388
  189MOL0     C25441   7.675   1.586   0.753 -0.5804  0.0667  0.4562
  189MOL0     C25442   7.736   1.678   0.646 -0.2921  0.8354 -0.9235
  189MOL0     C25443   7.771   1.822   0.695 -0.3254  1.2975 -0.1463
  189MOL0     C25444   7.641   1.883   0.700  0.5495 -0.4639  0.7482
  189MOL0     C25445   7.538   1.943   0.721  0.3933 -0.8432 -0.1990
  189MOL0     C25446   7.263   1.450   0.776 -0.0264 -0.7910  0.1379
  189MOL0     C25447   7.133   1.416   0.808 -0.6026  0.5947 -1.1109
  189MOL0     H25448   6.663   1.568   0.840  0.3044  0.3199  2.7639
  189MOL0     H25449   6.427   1.529   0.862 -0.2759  1.1596  2.3439
  189MOL0     H25450   6.301   1.124   1.027 -1.9327 -2.8692 -1.2415
  189MOL0     H25451   6.155   1.204   1.006 -0.8029 -2.9739  1.1540
  189MOL0     H25452   6.184   1.167   0.741 -2.6680 -1.2515 -0.0725
  189MOL0     H25453   6.321   1.057   0.793 -0.0271 -0.3608  0.9483
  189MOL0     H25454   6.152   0.907   0.761  0.2466  0.7000 -0.4979
  189MOL0     H25455   6.165   0.924   0.936  1.3847 -1.3675 -1.6156
  189MOL0     H25456   5.970   1.065   0.929  1.6643  1.8423 -0.6628
  189MOL0     H25457   5.948   1.042   0.745  0.3056  0.6315  0.5542
  189MOL0     H25458   5.929   0.793   0.772  5.7334 -0.0351  0.7237
  189MOL0     H25459   5.954   0.809   0.929 -1.5913  0.5053  0.2492
  189MOL0     H25460   5.747   0.961   0.951 -0.8099  0.6278 -0.8894
  189MOL0     H25461   5.738   0.943   0.779  4.1269 -0.8203 -1.4640
  189MOL0     H25462   5.710   0.693   0.811  3.2608  1.6818 -1.0694
  189MOL0     H25463   5.721   0.713   0.987 -0.1358 -1.7176 -0.4308
  189MOL0     H25464   5.493   0.796   0.801  0.0638  2.4235  1.0339
  189MOL0     H25465   5.498   0.856   0.969  0.6247 -1.3762  2.8351
  189MOL0     H25466   5.590   0.490   0.870  0.5755  4.0047 -0.9303
  189MOL0     H25467   5.503   0.304   1.176 -1.0784  1.3897 -0.2005
  189MOL0     H25468   5.355   0.259   1.094 -0.2586 -1.4216 -0.3671
  189MOL0     H25469   5.537   0.111   1.003  0.4918  0.2506  0.6684
  189MOL0     H25470   5.639   0.247   0.975  0.1151 -0.1462 -1.0623
  189MOL0     H25471   5.546   0.139   0.779 -0.1059  0.0614  1.1572
  189MOL0     H25472   5.494   0.307   0.778  0.8999  0.7083  0.0792
  189MOL0     H25473   5.284   0.286   0.825 -2.7286 -0.6144  0.4090
  189MOL0     H25474   5.284   0.132   0.896  0.6547 -1.8041 -1.2794
  189MOL0     H25475   5.063   0.175   0.813  0.7099 -1.1866 -0.5979
  189MOL0     H25476   4.749   0.230   0.684  1.0590  0.9828 -0.2405
  189MOL0     H25477   4.760   0.084   0.790  0.1174  0.3910  0.5942
  189MOL0     H25478   4.843   0.244   0.821  1.7978  1.8894 -1.5688
  189MOL0     H25479   4.818  -0.281   0.294 -1.2862 -2.4427  0.3432
  189MOL0     H25480   4.647  -0.425   0.221  0.6198 -0.2313  0.9898
  189MOL0     H25481   4.358  -0.569   0.190 -7.3981 -0.1029  0.3132
  189MOL0     H25482   4.449  -0.500   0.320 -1.2740  1.9483  1.8284
  189MOL0     H25483   4.245  -0.525   0.413 -0.8753  0.7358  1.0890
  189MOL0     H25484   4.227  -0.356   0.373 -0.2237 -0.3968  1.3186
  189MOL0     H25485   4.131  -0.551   0.172  2.7115  1.5158 -1.3682
  189MOL0     H25486   4.114  -0.374   0.182  4.0576  0.6793  1.2115
  189MOL0     H25487   3.995  -0.573   0.369  1.3406 -1.0465 -1.8552
  189MOL0     H25488   3.985  -0.397   0.389  3.7866  2.2605 -1.0205
  189MOL0     H25489   3.898  -0.505   0.133 -2.4237 -0.9319 -0.7420
  189MOL0     H25490   3.814  -0.380   0.219 -0.5030 -0.2635 -1.6180
  189MOL0     H25491   3.684  -0.593   0.181  2.2268  3.4899 -3.4085
  189MOL0     H25492   3.779  -0.677   0.305  2.1194  0.9692  2.4129
  189MOL0     H25493   3.556  -0.583   0.394 -1.9849  3.0499 -1.7396
  189MOL0     H25494   3.607  -0.430   0.345  2.5632  1.5144  1.1955
  189MOL0     H25495   3.657  -0.485   0.591  2.0659  0.1859  1.4624
  189MOL0     H25496   3.796  -0.425   0.502  0.0400 -0.8967 -2.5793
  189MOL0     H25497   4.360  -0.122   0.190 -1.3459 -0.8071  3.6337
  189MOL0     H25498   4.523   0.044   0.273  3.7910  1.0870  1.8560
  189MOL0     H25499   5.035  -0.023   0.365 -1.3179 -0.5284  0.1217
  189MOL0     H25500   5.253   0.001   0.472  0.0653 -1.0962  2.6055
  189MOL0     H25501   6.507   1.120   0.986 -4.4379  2.0300 -0.5658
  189MOL0     H25502   6.749   1.170   0.978  1.8153  0.6960 -0.2263
  189MOL0     H25503   7.133   1.486   1.146 -1.0175 -0.6170  0.4812
  189MOL0     H25504   7.389   1.520   1.088  1.4342  1.4000 -1.3195
  189MOL0     H25505   7.513   1.480   0.656 -0.9345 -0.2772  1.3204
  189MOL0     H25506   7.469   1.644   0.711  2.5286  2.4720  3.2834
  189MOL0     H25507   7.731   1.495   0.774  1.0208  1.0150  0.4493
  189MOL0     H25508   7.688   1.650   0.841  0.2415  1.3734 -0.5810
  189MOL0     H25509   7.669   1.662   0.560 -1.4502 -2.1912  0.4108
  189MOL0     H25510   7.826   1.624   0.618 -2.3911 -1.8098 -3.1380
  189MOL0     H25511   7.838   1.870   0.622  1.1099  1.9668  1.5406
  189MOL0     H25512   7.813   1.820   0.796 -1.0960  2.4821  0.2248
  189MOL0     H25513   7.451   1.996   0.753  1.2012 -0.2793  1.1385
  189MOL0     H25514   7.283   1.428   0.671 -0.5812 -2.5729  0.3760
  189MOL0     H25515   7.057   1.387   0.736 -2.8016  0.7745  0.9929
  190MOL0     O25516   8.937   3.853   5.596 -0.2757  0.9964 -0.1839
  190MOL0     C25517   8.971   3.732   5.607 -0.0581  1.5327  0.0416
  190MOL0     O25518   8.896   3.642   5.668  0.1486  0.2944  0.2228
  190MOL0     C25519   8.776   3.668   5.714 -0.1313  0.2913 -0.6989
  190MOL0     C25520   8.663   3.646   5.631  0.1424  1.1153  1.0335
  190MOL0     C25521   8.529   3.669   5.667  0.2086  0.1281 -0.3647
  190MOL0     C25522   8.513   3.734   5.787  0.3857 -0.9361 -0.4725
  190MOL0     O25523   8.390   3.780   5.829 -0.6183  0.5935 -0.4063
  190MOL0     C25524   8.273   3.749   5.755 -0.9516  0.6119  0.1955
  190MOL0     C25525   8.145   3.784   5.829  0.1473 -0.7729  0.4629
  190MOL0     C25526   8.020   3.781   5.741 -0.0257  0.0241  0.5720
  190MOL0     C25527   7.890   3.819   5.818 -0.2628  0.4806 -0.1076
  190MOL0     C25528   7.765   3.819   5.733  0.0937 -0.5698  0.0330
  190MOL0     C25529   7.631   3.831   5.801  0.6114  0.0129  0.1101
  190MOL0     C25530   7.523   3.849   5.698 -0.3305 -0.2842 -0.5454
  190MOL0     C25531   7.396   3.921   5.754 -0.8275  0.1742  0.0596
  190MOL0     N25532   7.286   3.898   5.656 -0.1415  0.0991  0.4902
  190MOL0     C25533   7.193   3.796   5.658 -0.0162  0.4164 -0.5701
  190MOL0     C25534   7.113   3.814   5.557 -0.0867 -0.3096  0.8612
  190MOL0     C25535   6.999   3.741   5.495  0.3738 -0.4895 -0.4332
  190MOL0     C25536   6.908   3.685   5.597 -0.3325  0.0820 -0.0659
  190MOL0     C25537   6.780   3.604   5.548  0.3365 -0.4916  0.2564
  190MOL0     C25538   6.678   3.701   5.465 -0.0085  0.7672  0.5255
  190MOL0     O25539   6.661   3.819   5.541  0.2413 -0.2532  0.3044
  190MOL0     C25540   6.657   3.936   5.473 -0.0127  0.4064  0.6383
  190MOL0     C25541   6.760   4.027   5.508  0.2075 -0.3598 -1.0022
  190MOL0     C25542   6.752   4.167   5.467  0.7804  0.7509  0.4597
  190MOL0     C25543   6.861   4.267   5.506  0.4484 -0.0231  0.3467
  190MOL0     C25544   6.634   4.198   5.385 -0.7852 -0.2909  0.2013
  190MOL0     C25545   6.628   4.338   5.321 -0.7273 -1.2477  0.6786
  190MOL0     O25546   6.736   4.383   5.259 -0.0748 -0.1992 -0.0798
  190MOL0     C25547   6.740   4.471   5.146 -0.1704  0.5626 -0.2691
  190MOL0     C25548   6.851   4.551   5.135  0.0288  0.2495  0.7869
  190MOL0     C25549   6.864   4.638   5.036  0.0275 -0.2263  0.3600
  190MOL0     C25550   6.763   4.647   4.937  0.1787  0.7283  0.2441
  190MOL0     O25551   6.765   4.738   4.836  0.4557 -0.1419 -1.1297
  190MOL0     C25552   6.829   4.866   4.874  0.1986 -0.4828 -0.3622
  190MOL0     C25553   6.814   4.967   4.755 -0.3021  0.0647  0.3275
  190MOL0     C25554   6.886   4.932   4.614 -0.2097 -0.6754  0.1989
  190MOL0     C25555   6.844   5.035   4.508 -0.6299  0.0734  1.0900
  190MOL0     C25556   6.867   4.974   4.365  0.2216 -0.8165 -0.6015
  190MOL0     C25557   7.016   4.977   4.316  0.2661 -0.0229 -0.3053
  190MOL0     C25558   7.037   4.912   4.172  0.3182 -0.4383 -0.5123
  190MOL0     C25559   7.185   4.884   4.141  0.3775  1.1868  0.8691
  190MOL0    Cl25560   7.245   4.770   4.268 -0.2355 -0.3133  0.0097
  190MOL0     C25561   6.651   4.574   4.950  0.1295 -0.3435 -0.1795
  190MOL0     C25562   6.642   4.484   5.053 -0.7125  0.2281  0.9099
  190MOL0     O25563   6.520   4.389   5.307 -0.2731  0.7915  0.2935
  190MOL0     C25564   6.534   4.104   5.360 -0.1089 -0.5598 -0.0949
  190MOL0     C25565   6.540   3.974   5.408  0.0022 -0.0556  0.4039
  190MOL0     N25566   7.153   3.928   5.497  0.2753 -0.1659 -0.0656
  190MOL0     N25567   7.255   3.983   5.551 -0.4595 -0.1964  0.5614
  190MOL0     C25568   8.616   3.757   5.878 -0.6437 -1.2696  0.0042
  190MOL0     C25569   8.751   3.727   5.842  0.8485 -0.2417 -0.3171
  190MOL0     C25570   9.102   3.683   5.546  1.0003 -0.3611  0.3612
  190MOL0     C25571   9.132   3.546   5.534  0.0155  0.3919  0.0596
  190MOL0     C25572   9.253   3.516   5.481 -0.7623  0.5140 -0.5785
  190MOL0     C25573   9.352   3.601   5.444 -0.4329  0.1052  0.4465
  190MOL0     O25574   9.477   3.563   5.397  0.5671  1.0101 -0.0987
  190MOL0     C25575   9.478   3.499   5.274  0.0742 -0.4235 -0.6941
  190MOL0     C25576   9.573   3.575   5.186  0.4550  0.8197  0.2277
  190MOL0     C25577   9.519   3.722   5.170 -1.2365 -0.3841 -0.3707
  190MOL0     C25578   9.397   3.744   5.073 -0.0853  0.7268  0.8426
  190MOL0     C25579   9.264   3.709   5.120  0.5550 -0.7906  0.2752
  190MOL0     C25580   9.155   3.666   5.153 -0.5770 -0.0950  0.3274
  190MOL0     C25581   9.322   3.735   5.464  0.8919  0.5425 -0.8626
  190MOL0     C25582   9.198   3.775   5.515 -0.4731 -1.4006  1.0213
  190MOL0     H25583   8.668   3.609   5.529  1.3811  0.7379  1.2091
  190MOL0     H25584   8.448   3.655   5.596 -0.2880 -0.1432  0.2471
  190MOL0     H25585   8.281   3.815   5.668 -2.6865 -0.2094 -0.6375
  190MOL0     H25586   8.264   3.649   5.711 -0.1976 -0.0810  1.5497
  190MOL0     H25587   8.129   3.707   5.905 -2.6124 -0.7999 -0.0128
  190MOL0     H25588   8.151   3.884   5.874  0.3511 -0.2149 -0.7384
  190MOL0     H25589   8.035   3.858   5.665  0.3508  0.6002  1.2158
  190MOL0     H25590   8.001   3.683   5.697  0.5810 -1.4563  3.3810
  190MOL0     H25591   7.869   3.743   5.894 -1.0905  1.7943  1.0192
  190MOL0     H25592   7.907   3.917   5.864 -1.2947  1.1700 -1.1318
  190MOL0     H25593   7.776   3.905   5.667  0.9509  1.4190  2.6188
  190MOL0     H25594   7.758   3.727   5.673 -2.8179  0.3058 -1.1334
  190MOL0     H25595   7.603   3.747   5.864  1.8356  0.0586  0.7513
  190MOL0     H25596   7.642   3.911   5.875 -1.2484 -0.2083  0.6633
  190MOL0     H25597   7.557   3.921   5.624 -1.3567  1.0550  0.2421
  190MOL0     H25598   7.496   3.754   5.651 -1.5241 -0.1901 -0.0964
  190MOL0     H25599   7.416   4.028   5.756 -2.3175  0.4698 -0.2125
  190MOL0     H25600   7.381   3.886   5.857  0.0976 -0.9784 -0.1730
  190MOL0     H25601   7.190   3.716   5.731  2.3429  1.6925  1.0881
  190MOL0     H25602   6.929   3.807   5.443  0.7936  0.4879  0.2221
  190MOL0     H25603   7.052   3.669   5.431 -1.8008 -1.4064 -1.3006
  190MOL0     H25604   6.878   3.775   5.651 -0.1230  0.7076 -0.9614
  190MOL0     H25605   6.966   3.615   5.657 -1.6268 -2.0843 -1.1933
  190MOL0     H25606   6.732   3.552   5.631 -0.4824 -1.4506 -0.7892
  190MOL0     H25607   6.814   3.523   5.483  0.1931  1.3393 -2.2433
  190MOL0     H25608   6.586   3.642   5.450 -1.1342  1.5072  3.7901
  190MOL0     H25609   6.725   3.723   5.369  3.2781 -1.3523  1.4856
  190MOL0     H25610   6.838   4.000   5.579 -2.6686 -1.3604  2.0222
  190MOL0     H25611   6.929   4.222   5.579  0.9664 -0.7734 -0.5841
  190MOL0     H25612   6.921   4.299   5.421  0.3057 -1.2671 -0.2494
  190MOL0     H25613   6.802   4.351   5.545  2.5050  0.9674  1.4598
  190MOL0     H25614   6.928   4.526   5.208  0.9908 -3.0680 -1.1712
  190MOL0     H25615   6.956   4.696   5.043  1.0504 -1.8748  1.1209
  190MOL0     H25616   6.779   4.914   4.959 -1.4125 -1.3686 -0.7637
  190MOL0     H25617   6.937   4.870   4.887  0.1321 -0.7246  0.2673
  190MOL0     H25618   6.707   4.970   4.734  0.1025  1.1718 -1.8619
  190MOL0     H25619   6.844   5.064   4.795  0.5489 -0.1614  0.2779
  190MOL0     H25620   6.840   4.838   4.580 -4.1188  2.0652 -3.1847
  190MOL0     H25621   6.994   4.929   4.631 -0.2244 -0.2591  0.3926
  190MOL0     H25622   6.737   5.060   4.503 -0.0027  3.0884 -3.3574
  190MOL0     H25623   6.901   5.127   4.513 -0.5733  0.0322  1.1932
  190MOL0     H25624   6.807   5.026   4.290  0.6381 -0.8341 -0.9522
  190MOL0     H25625   6.831   4.871   4.360 -0.7524 -0.5969  1.1920
  190MOL0     H25626   7.045   5.083   4.316 -0.9520  0.3487  0.8003
  190MOL0     H25627   7.084   4.929   4.387 -2.0997 -0.7107  1.6614
  190MOL0     H25628   6.999   4.985   4.100  0.5912  2.1524  1.8273
  190MOL0     H25629   6.972   4.825   4.186 -3.0758  1.8881 -0.4805
  190MOL0     H25630   7.251   4.971   4.135  0.1287  1.2928 -3.3418
  190MOL0     H25631   7.183   4.835   4.043 -1.1774 -0.2917  1.5927
  190MOL0     H25632   6.572   4.589   4.878  0.6576  2.2069 -0.3316
  190MOL0     H25633   6.560   4.414   5.055 -0.1789 -0.4156  0.5043
  190MOL0     H25634   6.450   4.145   5.304  1.7674  0.1672 -2.5343
  190MOL0     H25635   6.462   3.903   5.386 -1.1818  1.4029 -0.3091
  190MOL0     H25636   8.590   3.798   5.975  1.1545 -0.5634  0.2311
  190MOL0     H25637   8.832   3.740   5.913 -0.2679 -1.3205  1.2088
  190MOL0     H25638   9.054   3.476   5.561  0.5549 -0.7021 -1.1299
  190MOL0     H25639   9.277   3.411   5.473  0.8649  0.7944  0.2206
  190MOL0     H25640   9.523   3.400   5.285  0.8765 -0.4813 -3.7644
  190MOL0     H25641   9.373   3.497   5.244 -0.3560  1.0406  0.5860
  190MOL0     H25642   9.577   3.547   5.080  1.8636  1.1780  0.1651
  190MOL0     H25643   9.667   3.552   5.238 -0.6246  0.6036  2.1653
  190MOL0     H25644   9.597   3.783   5.125 -2.3932  0.6452 -1.0635
  190MOL0     H25645   9.506   3.772   5.266  0.2332  0.7257 -0.7254
  190MOL0     H25646   9.412   3.682   4.984 -1.1087 -0.2186  1.3039
  190MOL0     H25647   9.392   3.850   5.048 -0.8743  0.3574 -0.6883
  190MOL0     H25648   9.057   3.633   5.180 -1.4809  3.0139  1.3582
  190MOL0     H25649   9.394   3.811   5.435  1.3013  0.5329  0.0919
  190MOL0     H25650   9.181   3.880   5.533  0.8342 -1.4884  3.0761
  191MOL0     O25651   2.775   7.420   6.900 -0.0834  0.4627 -0.3157
  191MOL0     C25652   2.856   7.518   6.906  0.2538 -0.4643  0.3519
  191MOL0     O25653   2.837   7.638   6.856 -0.2390  0.0919 -0.1043
  191MOL0     C25654   2.712   7.660   6.801  0.3850 -0.1213 -0.8267
  191MOL0     C25655   2.706   7.647   6.660  0.2542  0.3172  0.5493
  191MOL0     C25656   2.582   7.660   6.590 -0.3346 -0.1670  0.8532
  191MOL0     C25657   2.474   7.686   6.666 -0.3790  0.0936  0.0479
  191MOL0     O25658   2.348   7.681   6.603  0.1294  1.1513 -0.3730
  191MOL0     C25659   2.329   7.644   6.467 -0.3024  0.3179  0.6196
  191MOL0     C25660   2.199   7.709   6.414  0.0461  0.7096 -0.0290
  191MOL0     C25661   2.072   7.669   6.504 -0.2131  0.4781 -0.8067
  191MOL0     C25662   1.940   7.734   6.461 -0.7348 -0.2754 -0.3276
  191MOL0     C25663   1.824   7.647   6.486  0.6748 -0.0667  0.0274
  191MOL0     C25664   1.697   7.713   6.426 -0.3819 -1.0426 -0.2995
  191MOL0     C25665   1.572   7.629   6.453  0.0549  0.4406 -0.5465
  191MOL0     C25666   1.458   7.658   6.348  0.1337  0.5746  0.6888
  191MOL0     N25667   1.326   7.606   6.399 -0.0988  1.5074 -0.4069
  191MOL0     C25668   1.262   7.669   6.498  0.7936  0.4727  0.1278
  191MOL0     C25669   1.143   7.598   6.512 -0.7102 -0.0155  0.5480
  191MOL0     C25670   1.049   7.631   6.616  0.0977  1.2474 -0.5259
  191MOL0     C25671   0.919   7.678   6.546 -0.0867 -0.1950  0.2876
  191MOL0     C25672   0.817   7.761   6.627 -0.1603 -0.2920 -0.1450
  191MOL0     C25673   0.804   7.725   6.777 -0.1972  0.2315  1.0264
  191MOL0     O25674   0.742   7.840   6.835  0.3340  0.5864  0.0837
  191MOL0     C25675   0.617   7.830   6.897 -0.1804 -1.1087  0.4018
  191MOL0     C25676   0.566   7.716   6.961  0.0638  0.2074 -0.0769
  191MOL0     C25677   0.462   7.725   7.049 -0.3014 -0.2711  0.6174
  191MOL0     C25678   0.419   7.591   7.115 -0.7002 -0.5420  0.1963
  191MOL0     C25679   0.393   7.845   7.069  0.3890  0.1359 -0.4999
  191MOL0     C25680   0.278   7.853   7.163  0.4319  0.7039 -0.4424
  191MOL0     O25681   0.197   7.962   7.145  0.0374 -0.8158 -0.3702
  191MOL0     C25682   0.084   7.999   7.218  0.1401 -0.5533 -0.1601
  191MOL0     C25683   0.024   7.926   7.324 -0.5672  0.3287  0.3303
  191MOL0     C25684  -0.080   7.982   7.390  0.5630 -0.4692  0.0603
  191MOL0     C25685  -0.124   8.120   7.357 -0.2583  0.7843 -0.0410
  191MOL0     O25686  -0.220   8.196   7.412  0.5858 -0.6231  0.4140
  191MOL0     C25687  -0.330   8.127   7.470 -0.2432 -0.0716  0.5758
  191MOL0     C25688  -0.447   8.228   7.473  0.5355  0.6998 -0.1237
  191MOL0     C25689  -0.581   8.159   7.486  0.4165  0.1176  0.7833
  191MOL0     C25690  -0.633   8.150   7.632  0.5944  0.1725 -0.5341
  191MOL0     C25691  -0.764   8.082   7.638 -0.1258  0.3322 -0.3351
  191MOL0     C25692  -0.821   8.056   7.782  0.3490 -0.5847  0.4073
  191MOL0     C25693  -0.960   8.016   7.787 -0.6221  0.0066 -0.1778
  191MOL0     C25694  -0.995   7.886   7.724 -0.3420 -0.2579 -0.4349
  191MOL0    Cl25695  -1.015   7.902   7.539  0.1137  0.2749 -0.0081
  191MOL0     C25696  -0.050   8.191   7.266  0.3792  0.0245  0.3953
  191MOL0     C25697   0.056   8.134   7.198 -0.3694  0.9244  0.0909
  191MOL0     O25698   0.261   7.767   7.253  0.3079 -0.3428  1.0739
  191MOL0     C25699   0.447   7.965   7.013  0.0862  0.2000 -0.1661
  191MOL0     C25700   0.556   7.957   6.924 -0.5217 -0.1672  0.6480
  191MOL0     N25701   1.150   7.489   6.426  0.3983  1.0445  0.9574
  191MOL0     N25702   1.252   7.504   6.352 -0.5605 -0.7854  0.1539
  191MOL0     C25703   2.480   7.711   6.808 -0.3673 -0.1071 -0.3166
  191MOL0     C25704   2.600   7.691   6.873 -0.1567 -0.0801 -1.5335
  191MOL0     C25705   2.993   7.496   6.960 -0.0634 -0.3712 -0.3256
  191MOL0     C25706   3.094   7.586   6.935 -0.5813 -0.3794  0.6483
  191MOL0     C25707   3.224   7.565   6.996 -0.8526  0.4985  0.8557
  191MOL0     C25708   3.256   7.445   7.062  0.1735  0.5611  0.1898
  191MOL0     O25709   3.380   7.415   7.111 -0.2306 -0.0546 -0.7729
  191MOL0     C25710   3.434   7.514   7.199  0.1186  0.0160  0.2000
  191MOL0     C25711   3.563   7.570   7.138 -0.9772 -0.7444  0.7982
  191MOL0     C25712   3.689   7.488   7.148  0.0430  0.4159  0.0153
  191MOL0     C25713   3.820   7.550   7.090 -0.2082  0.5626  0.6581
  191MOL0     C25714   3.838   7.681   7.160 -0.5095  0.5345 -0.0139
  191MOL0     C25715   3.856   7.776   7.231 -0.2793  0.6827  0.1481
  191MOL0     C25716   3.146   7.361   7.089  0.8475 -0.5205  0.0331
  191MOL0     C25717   3.016   7.385   7.047  0.1345 -0.1164 -0.3459
  191MOL0     H25718   2.798   7.612   6.615 -1.9527 -3.2823 -1.6294
  191MOL0     H25719   2.591   7.655   6.482 -0.1410  0.2213  0.8478
  191MOL0     H25720   2.408   7.694   6.410  1.5116 -3.1302 -0.1553
  191MOL0     H25721   2.338   7.536   6.453  0.8316  0.6876 -1.9676
  191MOL0     H25722   2.216   7.817   6.407 -3.1697  1.2361 -1.7044
  191MOL0     H25723   2.181   7.671   6.313  0.5778  0.0387  0.1165
  191MOL0     H25724   2.065   7.560   6.491  1.2754 -0.2422  3.0299
  191MOL0     H25725   2.080   7.690   6.611 -1.1907 -1.6268 -0.2530
  191MOL0     H25726   1.935   7.830   6.512  0.1736  0.1272 -0.9769
  191MOL0     H25727   1.952   7.745   6.353  0.6296  0.5027 -0.1169
  191MOL0     H25728   1.830   7.553   6.431 -3.6238  0.7784 -2.2673
  191MOL0     H25729   1.807   7.629   6.593  1.9961  0.3240  0.3259
  191MOL0     H25730   1.677   7.812   6.469 -2.4151 -1.0502 -1.1399
  191MOL0     H25731   1.702   7.741   6.321  2.8142  0.7547  0.2078
  191MOL0     H25732   1.598   7.523   6.446  1.3708  0.7958 -1.3275
  191MOL0     H25733   1.537   7.660   6.552  1.6546  0.1936  0.1167
  191MOL0     H25734   1.481   7.599   6.258 -0.9909 -0.8773  1.3226
  191MOL0     H25735   1.465   7.766   6.332  1.8054  0.5771  1.2117
  191MOL0     H25736   1.300   7.753   6.556 -1.1785  0.1213  2.0521
  191MOL0     H25737   1.027   7.542   6.676 -2.8473  1.2300 -1.4514
  191MOL0     H25738   1.083   7.702   6.691  0.7324 -0.0375  0.4439
  191MOL0     H25739   0.865   7.588   6.519 -0.9865 -0.3551  2.4341
  191MOL0     H25740   0.940   7.734   6.454 -1.3450  0.5699  0.4432
  191MOL0     H25741   0.723   7.757   6.573 -0.3023  0.2619  0.0524
  191MOL0     H25742   0.843   7.867   6.618 -1.9109  0.1134 -0.6870
  191MOL0     H25743   0.899   7.717   6.829  0.9315  0.7708 -0.8479
  191MOL0     H25744   0.749   7.630   6.786  2.5287 -1.5757 -0.1686
  191MOL0     H25745   0.609   7.618   6.942 -1.0786 -0.0607 -1.4079
  191MOL0     H25746   0.314   7.572   7.092 -2.2320  1.6369  4.2275
  191MOL0     H25747   0.475   7.512   7.064  2.9980  1.8280  0.2214
  191MOL0     H25748   0.423   7.579   7.224 -3.1125 -2.1425  0.1819
  191MOL0     H25749   0.068   7.831   7.353  1.3402  1.0170 -0.1600
  191MOL0     H25750  -0.131   7.922   7.464  1.5424 -2.3305 -0.7148
  191MOL0     H25751  -0.358   8.046   7.402  1.0350  0.3139 -0.4575
  191MOL0     H25752  -0.309   8.078   7.565  0.6932 -2.9551 -1.0017
  191MOL0     H25753  -0.433   8.307   7.547  0.4331  0.7578 -0.1668
  191MOL0     H25754  -0.450   8.289   7.381  0.8905  0.5200 -0.2552
  191MOL0     H25755  -0.575   8.060   7.438 -0.0770  1.0739 -1.3381
  191MOL0     H25756  -0.653   8.216   7.428 -0.7955 -0.8771  1.2583
  191MOL0     H25757  -0.563   8.092   7.693 -1.9524  0.1464  2.6405
  191MOL0     H25758  -0.636   8.246   7.685  2.6947 -1.7905  3.6524
  191MOL0     H25759  -0.750   7.987   7.585  1.5871  0.6728 -0.5524
  191MOL0     H25760  -0.833   8.140   7.576 -0.3752 -0.5888 -0.9395
  191MOL0     H25761  -0.762   7.970   7.817 -0.7720 -1.0510  1.2217
  191MOL0     H25762  -0.801   8.140   7.849  0.4447 -0.9362  0.8199
  191MOL0     H25763  -1.025   8.092   7.742  2.5601  2.2753 -1.2714
  191MOL0     H25764  -0.990   8.020   7.892 -0.6077  2.5150 -0.1982
  191MOL0     H25765  -1.092   7.854   7.763 -0.7800  2.2219  0.7578
  191MOL0     H25766  -0.921   7.815   7.760 -0.6211  1.7512  5.0933
  191MOL0     H25767  -0.081   8.292   7.241 -2.4665 -1.5224 -3.2506
  191MOL0     H25768   0.104   8.177   7.111 -1.0560 -3.4560 -2.7704
  191MOL0     H25769   0.397   8.055   7.047 -3.0426 -0.9713 -1.2247
  191MOL0     H25770   0.582   8.053   6.881  0.6573 -0.4848  0.6242
  191MOL0     H25771   2.392   7.728   6.869 -1.2615  1.9474 -2.0416
  191MOL0     H25772   2.597   7.695   6.982 -0.9618 -0.9150 -1.5051
  191MOL0     H25773   3.085   7.677   6.875  0.4279 -0.3080  0.5781
  191MOL0     H25774   3.306   7.633   6.976  1.1634 -1.6529  1.3961
  191MOL0     H25775   3.362   7.596   7.211 -0.3660 -0.2602 -0.7023
  191MOL0     H25776   3.462   7.469   7.295  3.1205 -2.0776 -1.4869
  191MOL0     H25777   3.575   7.670   7.181 -2.6083 -0.6627  1.1212
  191MOL0     H25778   3.540   7.590   7.033 -1.7057  0.3048  1.1368
  191MOL0     H25779   3.682   7.395   7.091 -1.5663 -0.2434  1.2069
  191MOL0     H25780   3.708   7.460   7.252  2.2291 -1.6667 -0.8631
  191MOL0     H25781   3.815   7.552   6.981  5.0218 -0.7433  0.1048
  191MOL0     H25782   3.906   7.486   7.114  0.8624  1.4407 -0.6494
  191MOL0     H25783   3.870   7.870   7.281  0.3080  1.2366 -1.0220
  191MOL0     H25784   3.160   7.275   7.154  2.4716 -0.2890  0.0374
  191MOL0     H25785   2.941   7.311   7.071  2.6797 -2.2659  1.6522
  192MOL0     O25786   3.341   3.009   3.266  0.1466  0.0703  0.1894
  192MOL0     C25787   3.287   2.968   3.368  0.3737 -0.3459  0.8679
  192MOL0     O25788   3.169   2.912   3.370  0.8222  0.4056  0.1185
  192MOL0     C25789   3.110   2.863   3.258  0.0300  0.8590 -0.0389
  192MOL0     C25790   3.023   2.936   3.170 -0.3932  0.6465  1.0861
  192MOL0     C25791   2.966   2.876   3.056  0.3219  0.6197  0.5087
  192MOL0     C25792   3.017   2.749   3.019 -0.1210 -0.0019 -0.1116
  192MOL0     O25793   2.970   2.695   2.904  0.2371 -0.7143  0.3850
  192MOL0     C25794   2.895   2.577   2.908  0.6857  0.6307 -0.0362
  192MOL0     C25795   2.766   2.606   2.992  0.3554 -0.2083  0.1221
  192MOL0     C25796   2.663   2.710   2.930  0.5719 -0.0936  0.4141
  192MOL0     C25797   2.643   2.703   2.776  0.1957 -0.8048  0.2623
  192MOL0     C25798   2.523   2.788   2.733 -0.3922 -0.2434  0.6326
  192MOL0     C25799   2.519   2.827   2.582  0.5473  0.9970  1.0975
  192MOL0     C25800   2.433   2.946   2.560 -0.0454  0.4589 -0.0651
  192MOL0     C25801   2.292   2.921   2.614  0.3110 -0.3138  0.3974
  192MOL0     N25802   2.194   3.022   2.566 -0.6059  0.4148 -0.4950
  192MOL0     C25803   2.090   3.075   2.644 -0.7546 -1.1346  0.2883
  192MOL0     C25804   1.997   3.121   2.555  1.0062 -0.2596 -0.5783
  192MOL0     C25805   1.866   3.193   2.591 -0.0975  0.3231 -0.3506
  192MOL0     C25806   1.883   3.297   2.696  0.5821 -0.2267 -0.1014
  192MOL0     C25807   1.741   3.321   2.753 -0.3883 -0.6576  0.4200
  192MOL0     C25808   1.637   3.360   2.651 -0.3713  0.2222 -0.0912
  192MOL0     O25809   1.517   3.391   2.721 -0.1080  0.0288 -0.0976
  192MOL0     C25810   1.401   3.431   2.655 -0.7860 -0.9437 -0.0301
  192MOL0     C25811   1.395   3.426   2.518 -1.0546  0.3091  0.4120
  192MOL0     C25812   1.288   3.474   2.449  0.3618  0.3329  0.9260
  192MOL0     C25813   1.297   3.447   2.297  0.1762  0.8752  0.0308
  192MOL0     C25814   1.177   3.543   2.501  1.1721 -0.0016 -0.6821
  192MOL0     C25815   1.056   3.595   2.432  1.0195  0.1364 -0.0362
  192MOL0     O25816   1.002   3.704   2.497  0.3442  0.1055  0.9649
  192MOL0     C25817   0.881   3.756   2.463  0.5721 -0.8524 -0.0667
  192MOL0     C25818   0.768   3.683   2.429 -0.8772  0.0311 -0.3186
  192MOL0     C25819   0.648   3.758   2.414  0.1686 -0.4111 -0.2259
  192MOL0     C25820   0.641   3.900   2.421  0.2438  0.4214 -0.3296
  192MOL0     O25821   0.518   3.957   2.409 -0.1635 -0.2223 -0.2977
  192MOL0     C25822   0.497   4.103   2.406  0.2920 -0.2135 -0.1719
  192MOL0     C25823   0.342   4.125   2.388 -0.7028  0.0516 -0.1898
  192MOL0     C25824   0.302   4.273   2.409 -0.1192  0.3781 -0.1284
  192MOL0     C25825   0.385   4.373   2.326 -0.3845  0.2797  0.2600
  192MOL0     C25826   0.341   4.518   2.354 -0.0873  0.5772  0.6918
  192MOL0     C25827   0.374   4.574   2.490 -0.2016 -0.3745 -0.0909
  192MOL0     C25828   0.313   4.714   2.504 -0.3826 -0.6999 -0.7049
  192MOL0     C25829   0.433   4.818   2.514 -0.1251 -0.4128  0.8973
  192MOL0    Cl25830   0.349   4.980   2.520 -0.1018  0.0269  0.3331
  192MOL0     C25831   0.761   3.968   2.436  0.0578 -0.5812  0.1079
  192MOL0     C25832   0.875   3.896   2.468  0.8086 -0.8925 -0.2913
  192MOL0     O25833   1.011   3.546   2.327 -0.0704  0.0751  0.4704
  192MOL0     C25834   1.191   3.562   2.643  0.6663 -0.3876  1.0990
  192MOL0     C25835   1.294   3.505   2.716 -0.5236 -0.1866  0.2552
  192MOL0     N25836   2.045   3.089   2.431  0.2748  0.4161  0.6059
  192MOL0     N25837   2.155   3.024   2.435  0.3502 -0.3642 -0.6719
  192MOL0     C25838   3.106   2.681   3.105 -0.1867 -0.7554  0.5226
  192MOL0     C25839   3.160   2.743   3.216 -0.2474  0.0374  0.3306
  192MOL0     C25840   3.343   3.021   3.498 -0.5599 -0.0451  0.9504
  192MOL0     C25841   3.434   3.130   3.500  0.1310 -0.7340 -1.7980
  192MOL0     C25842   3.502   3.164   3.622  0.4706 -0.2135 -0.1898
  192MOL0     C25843   3.474   3.101   3.745 -1.0637  0.3041  0.0434
  192MOL0     O25844   3.542   3.146   3.857 -0.2296  0.1094  0.1793
  192MOL0     C25845   3.587   3.054   3.947 -0.2734  0.2883 -0.1139
  192MOL0     C25846   3.715   3.109   4.014 -0.8728 -1.0212 -0.1134
  192MOL0     C25847   3.702   3.257   4.041 -0.8162 -0.4736  0.5541
  192MOL0     C25848   3.838   3.298   4.115  0.1423  0.4853 -0.4229
  192MOL0     C25849   3.817   3.394   4.221  0.1681  0.0859 -0.3049
  192MOL0     C25850   3.793   3.466   4.313  0.3405 -0.2988  0.5348
  192MOL0     C25851   3.378   2.996   3.739 -0.1505 -0.3912  0.3497
  192MOL0     C25852   3.322   2.952   3.615 -0.0451  0.4245  0.1093
  192MOL0     H25853   2.995   3.039   3.192  2.1207  2.0938 -1.7811
  192MOL0     H25854   2.878   2.917   3.008  1.5609 -0.3345 -2.8368
  192MOL0     H25855   2.865   2.548   2.806 -2.3756 -1.8864  1.4230
  192MOL0     H25856   2.944   2.492   2.956 -0.3822 -0.1914 -0.3604
  192MOL0     H25857   2.707   2.517   3.019  1.6725 -0.8000  1.1565
  192MOL0     H25858   2.795   2.641   3.092  0.2429 -1.8634  0.7735
  192MOL0     H25859   2.568   2.701   2.984 -0.0408  1.5300 -0.3313
  192MOL0     H25860   2.698   2.808   2.964  2.0467 -0.9920  1.6254
  192MOL0     H25861   2.742   2.718   2.733 -1.2865  1.3425 -2.8043
  192MOL0     H25862   2.601   2.603   2.760 -0.9063 -0.0412 -2.2573
  192MOL0     H25863   2.433   2.728   2.746 -2.1970  1.6903 -1.9655
  192MOL0     H25864   2.502   2.877   2.794  0.2747 -0.3790  1.0700
  192MOL0     H25865   2.620   2.840   2.541  1.5939  0.6830  3.4056
  192MOL0     H25866   2.467   2.745   2.532 -1.4544  0.5102  3.7459
  192MOL0     H25867   2.481   3.034   2.605 -2.1450  1.8287 -0.3673
  192MOL0     H25868   2.427   2.970   2.453 -4.1844  0.9556  0.1393
  192MOL0     H25869   2.284   2.923   2.723 -1.3325 -2.4037  0.3687
  192MOL0     H25870   2.256   2.821   2.587 -1.1656  0.4114 -0.4351
  192MOL0     H25871   2.097   3.089   2.751  0.7118  0.3119  0.0406
  192MOL0     H25872   1.838   3.238   2.495 -2.6595 -2.0519 -0.8397
  192MOL0     H25873   1.788   3.123   2.622 -1.6783  2.8771  1.8328
  192MOL0     H25874   1.891   3.397   2.653 -3.6416 -0.1060 -1.0070
  192MOL0     H25875   1.955   3.272   2.774 -1.3212  1.9173  2.4803
  192MOL0     H25876   1.754   3.415   2.807  3.2788  1.4786 -3.5900
  192MOL0     H25877   1.700   3.240   2.815 -1.0092 -0.1731  0.6487
  192MOL0     H25878   1.621   3.276   2.582  0.1060  0.6069 -0.6790
  192MOL0     H25879   1.668   3.445   2.589  0.1136  0.7121  0.8100
  192MOL0     H25880   1.477   3.374   2.471  0.6710  2.2553  1.1212
  192MOL0     H25881   1.352   3.358   2.266 -0.2960  1.1111 -1.6025
  192MOL0     H25882   1.196   3.443   2.256  0.7152 -1.4748 -1.2704
  192MOL0     H25883   1.351   3.529   2.249  0.1314  1.2391  0.5902
  192MOL0     H25884   0.758   3.575   2.427  1.2249 -0.1921 -1.1980
  192MOL0     H25885   0.558   3.712   2.375 -0.7964 -0.3919  1.8655
  192MOL0     H25886   0.539   4.146   2.498  2.5514 -1.6081 -0.4590
  192MOL0     H25887   0.553   4.146   2.323 -1.0766  0.7359 -0.6346
  192MOL0     H25888   0.322   4.088   2.287  4.9318 -1.1628 -1.2563
  192MOL0     H25889   0.293   4.062   2.463 -0.2477  1.3589  1.2777
  192MOL0     H25890   0.323   4.304   2.512 -3.0253  2.5956 -0.0916
  192MOL0     H25891   0.194   4.290   2.397  0.0674  0.5173 -1.9209
  192MOL0     H25892   0.493   4.364   2.344  0.2350  0.4046 -2.8076
  192MOL0     H25893   0.380   4.358   2.217  1.0221 -2.3085  0.4641
  192MOL0     H25894   0.234   4.519   2.331 -0.1053 -0.9062  0.5850
  192MOL0     H25895   0.396   4.572   2.277  0.6315 -1.4530 -0.2758
  192MOL0     H25896   0.340   4.526   2.583 -1.0120  0.3850  0.0194
  192MOL0     H25897   0.481   4.570   2.512 -0.4063 -2.2903  0.7485
  192MOL0     H25898   0.254   4.718   2.596  0.6518 -0.3729 -0.0416
  192MOL0     H25899   0.248   4.744   2.421  0.1817 -0.7700 -1.1720
  192MOL0     H25900   0.486   4.803   2.419 -3.3007 -2.2556 -0.7626
  192MOL0     H25901   0.492   4.806   2.605  1.0124 -3.8392 -0.1584
  192MOL0     H25902   0.774   4.076   2.446 -0.2788 -0.6427  1.4363
  192MOL0     H25903   0.966   3.956   2.470 -0.2696  0.7894  0.2904
  192MOL0     H25904   1.143   3.631   2.711  2.2059  3.1395 -1.1260
  192MOL0     H25905   1.302   3.519   2.824 -1.0277 -1.2137  0.4358
  192MOL0     H25906   3.151   2.584   3.088  2.0156  0.5491 -1.9981
  192MOL0     H25907   3.221   2.678   3.278 -1.6921 -1.7635 -0.0317
  192MOL0     H25908   3.455   3.183   3.407 -2.6845  1.9386 -1.0868
  192MOL0     H25909   3.559   3.257   3.620 -1.6794  1.3210  2.4824
  192MOL0     H25910   3.520   3.038   4.032  0.1396  2.2026  0.6290
  192MOL0     H25911   3.616   2.959   3.902  1.1451  0.7382 -0.1877
  192MOL0     H25912   3.805   3.087   3.955  0.8574  1.0171  1.5663
  192MOL0     H25913   3.725   3.041   4.099 -0.2246 -2.7301 -1.4819
  192MOL0     H25914   3.616   3.290   4.100 -1.2440  1.5103 -1.0934
  192MOL0     H25915   3.690   3.311   3.947  0.5559 -1.9639 -0.5534
  192MOL0     H25916   3.901   3.350   4.042 -1.2408 -2.2177 -3.8241
  192MOL0     H25917   3.891   3.215   4.162 -0.6526  0.1526 -0.1034
  192MOL0     H25918   3.757   3.530   4.391 -2.9613 -0.7978 -0.4009
  192MOL0     H25919   3.357   2.938   3.828 -0.0299  1.1874  1.4608
  192MOL0     H25920   3.266   2.859   3.616  0.0026  0.2298 -3.4916
  193MOL0     O25921   7.898   4.474   4.994 -0.1983 -0.1871  0.2772
  193MOL0     C25922   8.000   4.521   4.948 -0.2886  0.3410 -0.2622
  193MOL0     O25923   8.023   4.646   4.915 -0.3529 -0.0114 -0.3908
  193MOL0     C25924   7.932   4.745   4.921  0.4509  1.3147  0.4534
  193MOL0     C25925   7.917   4.831   4.815 -0.5646  0.7316 -0.4041
  193MOL0     C25926   7.824   4.936   4.819  0.4232  0.3751  0.1724
  193MOL0     C25927   7.735   4.958   4.925  0.0143  0.8984 -0.4559
  193MOL0     O25928   7.634   5.051   4.930  0.3656  0.8429  0.3545
  193MOL0     C25929   7.623   5.151   4.830  0.4984 -0.0747  0.6783
  193MOL0     C25930   7.540   5.269   4.890 -1.4339 -0.3993 -0.1436
  193MOL0     C25931   7.590   5.321   5.026  0.1470 -0.1223 -0.5122
  193MOL0     C25932   7.524   5.443   5.095  0.5009 -0.2853 -0.1050
  193MOL0     C25933   7.391   5.411   5.157  1.0382 -0.4220  0.0915
  193MOL0     C25934   7.390   5.338   5.292  0.2268 -0.4712  0.0274
  193MOL0     C25935   7.246   5.293   5.332  0.9930  0.2467  0.4468
  193MOL0     C25936   7.246   5.176   5.438  0.1083 -0.3180  0.7422
  193MOL0     N25937   7.107   5.127   5.476  0.6503  0.1129  0.1144
  193MOL0     C25938   7.013   5.069   5.392  0.7069  0.3506  0.4630
  193MOL0     C25939   6.919   5.032   5.471 -0.6894  0.2588 -0.8831
  193MOL0     C25940   6.782   4.981   5.426 -0.4145  0.0337 -0.3606
  193MOL0     C25941   6.735   4.865   5.521  0.0844 -0.3928  0.6483
  193MOL0     C25942   6.642   4.782   5.442  0.3109 -0.2431  0.1383
  193MOL0     C25943   6.570   4.672   5.523  0.0719 -0.6954 -0.6025
  193MOL0     O25944   6.502   4.709   5.653 -0.3500 -0.2941  1.0390
  193MOL0     C25945   6.436   4.613   5.730 -0.2780  0.2128  0.3795
  193MOL0     C25946   6.448   4.474   5.718 -0.0002  0.2547  0.3993
  193MOL0     C25947   6.370   4.390   5.800 -0.5076 -0.2423 -0.0379
  193MOL0     C25948   6.385   4.242   5.750  0.7406  0.1503 -0.5633
  193MOL0     C25949   6.309   4.432   5.912 -0.0339 -0.6533  0.6766
  193MOL0     C25950   6.237   4.351   6.024  0.0929 -0.5098  0.3531
  193MOL0     O25951   6.181   4.417   6.136 -0.0893 -0.3835  0.0452
  193MOL0     C25952   6.113   4.338   6.233 -0.4138 -0.4783 -0.4012
  193MOL0     C25953   6.129   4.379   6.362 -0.6314 -0.1417 -0.3047
  193MOL0     C25954   6.064   4.310   6.466 -0.7237 -0.8538  1.4088
  193MOL0     C25955   5.992   4.194   6.433 -0.5665 -0.0091  0.2112
  193MOL0     O25956   5.939   4.119   6.533  0.7408  0.9515  0.1682
  193MOL0     C25957   5.813   4.165   6.569 -0.4020  0.4812 -0.3759
  193MOL0     C25958   5.764   4.113   6.703  0.4485 -0.1742  0.0064
  193MOL0     C25959   5.751   3.964   6.719  0.3792 -0.8178  0.3164
  193MOL0     C25960   5.703   3.911   6.854  0.5840 -0.1037  0.8678
  193MOL0     C25961   5.703   3.763   6.865  0.2881  0.2363 -0.3980
  193MOL0     C25962   5.590   3.689   6.797  0.2227 -0.3710  0.3892
  193MOL0     C25963   5.616   3.544   6.776 -0.9963  0.2117  0.0457
  193MOL0     C25964   5.592   3.469   6.907  0.3006  0.1713  0.5260
  193MOL0    Cl25965   5.427   3.458   6.979  0.4307 -0.3940  0.2950
  193MOL0     C25966   5.986   4.140   6.308  0.1576  0.2882  0.1711
  193MOL0     C25967   6.030   4.225   6.204 -0.8462 -0.1441 -0.5651
  193MOL0     O25968   6.246   4.226   6.014  0.4447 -0.3612  0.4783
  193MOL0     C25969   6.315   4.566   5.939 -0.2834 -0.3441 -0.4096
  193MOL0     C25970   6.374   4.657   5.850 -0.6102  0.4241  0.1887
  193MOL0     N25971   6.947   5.049   5.602  0.2949 -0.0891  0.1855
  193MOL0     N25972   7.065   5.113   5.605  0.6129  0.9219 -0.1453
  193MOL0     C25973   7.746   4.869   5.039 -0.0673  0.2142 -0.1165
  193MOL0     C25974   7.847   4.772   5.035  0.0191 -0.1369 -0.9187
  193MOL0     C25975   8.111   4.434   4.918 -0.3472 -1.0017  0.0501
  193MOL0     C25976   8.101   4.293   4.907 -0.3690  0.1362  0.0035
  193MOL0     C25977   8.214   4.217   4.881 -0.1893 -0.1153 -0.1412
  193MOL0     C25978   8.336   4.281   4.848  0.4329  0.2007 -0.6791
  193MOL0     O25979   8.448   4.216   4.812 -0.4971  0.4740  0.3287
  193MOL0     C25980   8.499   4.100   4.885  0.9197 -0.6191 -0.7023
  193MOL0     C25981   8.652   4.080   4.871  0.2973 -0.1501 -0.3927
  193MOL0     C25982   8.689   3.943   4.930 -0.5174 -0.0872  0.4449
  193MOL0     C25983   8.848   3.926   4.934  1.4580  0.0956  1.1285
  193MOL0     C25984   8.914   3.947   4.800 -0.2790  0.0050 -0.3149
  193MOL0     C25985   8.951   3.983   4.696 -0.1791 -0.1486 -0.1311
  193MOL0     C25986   8.347   4.425   4.867 -0.2275  0.8677 -0.5463
  193MOL0     C25987   8.238   4.490   4.906 -0.1869 -0.5884 -0.0986
  193MOL0     H25988   7.971   4.823   4.721  2.1244  0.3951  1.0741
  193MOL0     H25989   7.820   4.993   4.726 -0.1432  2.4748  1.4294
  193MOL0     H25990   7.720   5.192   4.800  0.2535 -0.7241 -1.1917
  193MOL0     H25991   7.574   5.120   4.737  0.4517 -0.0180  0.6838
  193MOL0     H25992   7.531   5.349   4.815 -0.3010  0.2726  0.4027
  193MOL0     H25993   7.435   5.239   4.899 -2.5894  3.1216 -0.2694
  193MOL0     H25994   7.588   5.240   5.099 -0.7708  1.7596  1.6967
  193MOL0     H25995   7.695   5.351   5.019 -0.4806  1.8433 -2.4167
  193MOL0     H25996   7.587   5.478   5.177  0.9625 -2.3932  0.5107
  193MOL0     H25997   7.501   5.517   5.018 -0.8473 -0.4648  0.0996
  193MOL0     H25998   7.343   5.506   5.182  1.4867  0.7169 -2.9835
  193MOL0     H25999   7.339   5.352   5.081  1.2937 -1.3304  0.5989
  193MOL0     H26000   7.446   5.245   5.282 -0.4279 -0.8917  0.2626
  193MOL0     H26001   7.419   5.407   5.372 -2.2119  2.0854 -1.1299
  193MOL0     H26002   7.197   5.378   5.381 -0.8865 -0.4337 -0.1641
  193MOL0     H26003   7.195   5.266   5.240  3.1165  2.1252 -1.4102
  193MOL0     H26004   7.288   5.206   5.534  0.0039 -3.1823  1.8040
  193MOL0     H26005   7.301   5.086   5.407  5.4440  2.0484  2.2889
  193MOL0     H26006   7.009   5.073   5.284 -1.0016  4.5121  0.5185
  193MOL0     H26007   6.717   5.068   5.430 -2.2281 -1.2828  0.1015
  193MOL0     H26008   6.787   4.930   5.329  0.7522 -0.4460 -0.0707
  193MOL0     H26009   6.691   4.904   5.613  1.1988  2.5865  0.0275
  193MOL0     H26010   6.814   4.794   5.548 -1.2769 -1.9888  0.6116
  193MOL0     H26011   6.683   4.728   5.357 -1.8380 -2.5454  0.4723
  193MOL0     H26012   6.564   4.849   5.405 -1.3447 -1.4555  1.3031
  193MOL0     H26013   6.638   4.589   5.545 -1.4094 -0.7904  5.2582
  193MOL0     H26014   6.489   4.637   5.458 -0.2281  0.0330 -0.6247
  193MOL0     H26015   6.486   4.441   5.622 -0.7493  1.1277 -0.2109
  193MOL0     H26016   6.439   4.219   5.658 -1.9920 -0.2906 -2.1998
  193MOL0     H26017   6.423   4.189   5.838 -0.2840  0.4704  0.0995
  193MOL0     H26018   6.283   4.203   5.735  1.5702 -2.1327 -0.5855
  193MOL0     H26019   6.189   4.467   6.386  1.0875 -1.6378  1.2411
  193MOL0     H26020   6.063   4.333   6.572 -2.9619  0.6779  1.1282
  193MOL0     H26021   5.815   4.274   6.576 -1.1313  0.4419  0.5572
  193MOL0     H26022   5.744   4.133   6.490  0.2967  1.5066 -1.4522
  193MOL0     H26023   5.823   4.145   6.789 -1.4901 -0.3472  1.4769
  193MOL0     H26024   5.660   4.146   6.705 -0.7333 -3.3682 -1.5852
  193MOL0     H26025   5.853   3.929   6.704  1.0789  1.7721 -1.6597
  193MOL0     H26026   5.685   3.921   6.643 -0.3554  0.6544  0.0756
  193MOL0     H26027   5.759   3.956   6.937  0.9183 -0.2793  0.7400
  193MOL0     H26028   5.601   3.950   6.858  0.6786  0.1230  1.1071
  193MOL0     H26029   5.697   3.744   6.973 -2.2684  2.4194 -0.0309
  193MOL0     H26030   5.799   3.724   6.829 -0.0112 -0.9750  0.0619
  193MOL0     H26031   5.487   3.702   6.834  0.7255  1.8885  1.1089
  193MOL0     H26032   5.587   3.725   6.694  0.8573  0.3942  0.6337
  193MOL0     H26033   5.717   3.527   6.740  0.1563  2.1467  2.0913
  193MOL0     H26034   5.534   3.503   6.717  0.0499 -0.6005 -0.8701
  193MOL0     H26035   5.659   3.511   6.983  0.4749  0.2673  0.3214
  193MOL0     H26036   5.622   3.364   6.894  2.3183  0.5568  1.6417
  193MOL0     H26037   5.940   4.043   6.292 -0.3239  0.1060  2.3143
  193MOL0     H26038   6.021   4.192   6.101  1.1746 -1.1786 -0.4438
  193MOL0     H26039   6.257   4.610   6.019  0.3559 -1.2139  0.5582
  193MOL0     H26040   6.369   4.761   5.877 -0.1932  0.6444 -0.5364
  193MOL0     H26041   7.681   4.882   5.125 -0.9389 -0.3929 -0.6671
  193MOL0     H26042   7.860   4.709   5.122 -2.2184 -1.1462 -1.2620
  193MOL0     H26043   8.001   4.254   4.923 -1.1669  1.8861 -0.4945
  193MOL0     H26044   8.191   4.112   4.869 -0.9256  0.0933 -0.5755
  193MOL0     H26045   8.465   4.116   4.988  0.5708  1.9359 -1.1553
  193MOL0     H26046   8.436   4.017   4.852 -1.8998  0.5306  1.3601
  193MOL0     H26047   8.692   4.166   4.926 -0.9671  0.0910  0.2008
  193MOL0     H26048   8.670   4.090   4.764  1.6170  1.5695 -0.0538
  193MOL0     H26049   8.638   3.871   4.866 -1.8826  0.9322  0.3417
  193MOL0     H26050   8.637   3.925   5.024 -2.3523  0.9979 -0.3075
  193MOL0     H26051   8.874   3.824   4.967  1.3258 -0.2431  0.2111
  193MOL0     H26052   8.884   3.998   5.008  2.0641 -1.5516  2.5201
  193MOL0     H26053   8.986   3.999   4.596  0.4331 -0.5748  0.0128
  193MOL0     H26054   8.447   4.466   4.855  0.4960 -0.8087 -0.5593
  193MOL0     H26055   8.249   4.596   4.922  0.1357 -0.8814  1.8993
  194MOL0     O26056   3.999   4.337   1.363  0.6041  0.5661 -0.4746
  194MOL0     C26057   4.042   4.352   1.477 -0.0960  0.6578 -0.9036
  194MOL0     O26058   3.968   4.341   1.595 -0.0300  1.1830  0.1859
  194MOL0     C26059   3.844   4.295   1.604  0.0607  0.2919 -0.7337
  194MOL0     C26060   3.773   4.349   1.710  0.1911  0.3452  0.0381
  194MOL0     C26061   3.641   4.308   1.732  0.8749  0.3363 -0.2184
  194MOL0     C26062   3.576   4.225   1.646  0.0532  0.2612  0.1033
  194MOL0     O26063   3.446   4.183   1.659  0.0764  0.5637  0.3547
  194MOL0     C26064   3.356   4.271   1.721 -0.1850  0.1242 -0.8431
  194MOL0     C26065   3.214   4.232   1.691 -0.2690  0.1982 -0.2939
  194MOL0     C26066   3.200   4.234   1.535  0.2766 -0.5585  0.5718
  194MOL0     C26067   3.122   4.362   1.491  0.0630  0.0695 -0.3071
  194MOL0     C26068   3.208   4.487   1.520  0.7526 -0.0410  0.7372
  194MOL0     C26069   3.165   4.608   1.436 -0.3486 -0.7885 -0.6510
  194MOL0     C26070   3.257   4.730   1.471  0.0152  0.1694 -0.3922
  194MOL0     C26071   3.284   4.826   1.350  0.0758  0.4108 -0.4352
  194MOL0     N26072   3.316   4.966   1.398 -0.4393 -0.5947 -0.8133
  194MOL0     C26073   3.426   5.002   1.483 -0.3823  0.3294  0.6876
  194MOL0     C26074   3.399   5.132   1.515 -0.5287 -0.6143 -0.0038
  194MOL0     C26075   3.491   5.220   1.602  0.9995  0.9772  0.0096
  194MOL0     C26076   3.409   5.267   1.722 -0.2331  0.0978 -0.5951
  194MOL0     C26077   3.494   5.309   1.833  0.0314  0.2501 -0.6092
  194MOL0     C26078   3.564   5.429   1.796  0.2643 -0.6924 -0.5179
  194MOL0     O26079   3.484   5.551   1.783  0.1851  0.6547  0.0550
  194MOL0     C26080   3.561   5.655   1.738  0.1317  0.0080 -0.6862
  194MOL0     C26081   3.697   5.673   1.753  0.3189 -0.9080 -0.6266
  194MOL0     C26082   3.765   5.783   1.703  0.6663  1.5086  0.1924
  194MOL0     C26083   3.906   5.797   1.751 -0.3121  0.3122  0.1707
  194MOL0     C26084   3.694   5.877   1.629  0.1529 -0.3336  0.7124
  194MOL0     C26085   3.755   6.006   1.570  0.1429  0.1941 -0.7481
  194MOL0     O26086   3.685   6.062   1.463  0.1610 -0.0219 -0.0861
  194MOL0     C26087   3.737   6.156   1.388  0.3688 -0.1165  0.4993
  194MOL0     C26088   3.683   6.289   1.387 -0.2467 -0.0447 -0.4191
  194MOL0     C26089   3.720   6.372   1.280  0.1702  0.4596  0.0497
  194MOL0     C26090   3.827   6.345   1.199  0.7094 -0.0273  0.0720
  194MOL0     O26091   3.872   6.435   1.102  0.0724  0.4776  0.2325
  194MOL0     C26092   3.833   6.393   0.973 -0.1937  0.3817  0.8033
  194MOL0     C26093   3.859   6.511   0.877 -0.3391 -0.5871 -0.5394
  194MOL0     C26094   4.008   6.552   0.876  0.7874 -0.2904  0.6113
  194MOL0     C26095   4.044   6.618   0.742  0.7692 -0.8056 -0.7200
  194MOL0     C26096   4.189   6.673   0.721  0.0717  0.0679  0.2801
  194MOL0     C26097   4.227   6.723   0.585  0.3808 -0.6681  0.5120
  194MOL0     C26098   4.379   6.770   0.582  0.1310 -0.7347  0.5215
  194MOL0     C26099   4.467   6.659   0.520 -0.4354  0.4238  0.3877
  194MOL0    Cl26100   4.629   6.723   0.492 -0.2635  0.0542  0.0478
  194MOL0     C26101   3.889   6.227   1.203 -0.2229 -0.1098 -0.7791
  194MOL0     C26102   3.843   6.130   1.297  0.2402 -0.7006  0.7031
  194MOL0     O26103   3.859   6.048   1.621 -0.1176 -0.2378 -0.2216
  194MOL0     C26104   3.554   5.862   1.611 -0.8588  0.1338 -0.0879
  194MOL0     C26105   3.491   5.755   1.678 -0.1251  0.2919  0.1026
  194MOL0     N26106   3.281   5.173   1.445 -0.3588 -0.0977 -0.6040
  194MOL0     N26107   3.229   5.072   1.387  0.9535 -0.9530  0.7025
  194MOL0     C26108   3.645   4.184   1.525  0.0907 -0.1976 -0.5502
  194MOL0     C26109   3.781   4.203   1.521  0.4139  0.0708  0.5766
  194MOL0     C26110   4.187   4.365   1.482  0.0919  0.3827 -0.6525
  194MOL0     C26111   4.250   4.408   1.599 -0.1343  0.3977  0.1890
  194MOL0     C26112   4.389   4.415   1.605  0.6945  1.0994 -0.1623
  194MOL0     C26113   4.473   4.364   1.500  0.1181  0.1592  0.9330
  194MOL0     O26114   4.608   4.361   1.503 -0.1918 -0.1084  0.0068
  194MOL0     C26115   4.680   4.375   1.629 -1.1405 -0.6458  0.5804
  194MOL0     C26116   4.841   4.384   1.625 -1.4002 -0.0470  0.4870
  194MOL0     C26117   4.901   4.268   1.546 -0.6920 -1.0601 -0.1877
  194MOL0     C26118   5.051   4.255   1.559  1.2433 -0.5047  0.1456
  194MOL0     C26119   5.110   4.137   1.497 -0.7217 -0.0816 -0.3866
  194MOL0     C26120   5.172   4.044   1.437  0.6005 -0.0228  0.2057
  194MOL0     C26121   4.403   4.315   1.383  0.6135  0.4962  0.0106
  194MOL0     C26122   4.261   4.316   1.372 -0.7685 -0.1363  0.2453
  194MOL0     H26123   3.817   4.436   1.759 -1.0597  1.2467 -0.3912
  194MOL0     H26124   3.602   4.356   1.821  0.1935 -0.9012  0.1730
  194MOL0     H26125   3.364   4.274   1.830 -0.3543 -0.0612 -0.8246
  194MOL0     H26126   3.374   4.370   1.679 -2.0577  0.8840  0.0395
  194MOL0     H26127   3.197   4.133   1.734 -4.5144  2.0520  2.9198
  194MOL0     H26128   3.152   4.303   1.745  1.6408  0.2036  2.0429
  194MOL0     H26129   3.299   4.231   1.488  0.4474 -1.8242  0.9699
  194MOL0     H26130   3.151   4.143   1.500 -0.8647 -0.1663  1.1124
  194MOL0     H26131   3.104   4.359   1.383 -0.8078  1.0084 -0.2037
  194MOL0     H26132   3.029   4.373   1.548 -0.6240 -1.8173 -0.9957
  194MOL0     H26133   3.182   4.513   1.623 -0.7857 -2.1533  0.9309
  194MOL0     H26134   3.315   4.473   1.503  0.6684 -1.5907  1.3445
  194MOL0     H26135   3.161   4.586   1.329 -0.9065  0.1234 -0.8299
  194MOL0     H26136   3.065   4.639   1.467  0.3551  1.2974 -0.2881
  194MOL0     H26137   3.224   4.794   1.553  1.5099  1.0574 -0.4578
  194MOL0     H26138   3.351   4.683   1.500 -0.2840  0.4469  1.0775
  194MOL0     H26139   3.202   4.818   1.279 -0.3313 -0.5844  0.1279
  194MOL0     H26140   3.371   4.787   1.296 -1.7021 -1.4341 -2.1276
  194MOL0     H26141   3.515   4.942   1.502 -0.4199  0.6456  1.8985
  194MOL0     H26142   3.581   5.165   1.630 -0.6385 -1.4276  0.8700
  194MOL0     H26143   3.514   5.308   1.541  2.1557  0.3399 -0.4861
  194MOL0     H26144   3.340   5.187   1.752  0.7689 -0.5620  0.0138
  194MOL0     H26145   3.344   5.345   1.681  3.9301  3.1207 -2.1324
  194MOL0     H26146   3.557   5.227   1.868  0.2311 -0.0351 -1.6168
  194MOL0     H26147   3.441   5.329   1.927  0.1098 -0.9019 -0.3055
  194MOL0     H26148   3.622   5.421   1.703  2.2400  1.2637  0.4348
  194MOL0     H26149   3.641   5.446   1.872  1.4898  0.1065 -1.8658
  194MOL0     H26150   3.747   5.604   1.821 -1.4457 -0.5972  1.0680
  194MOL0     H26151   3.899   5.865   1.836 -3.7388  2.0973 -1.3384
  194MOL0     H26152   3.942   5.701   1.789  2.4243  0.9435 -0.5878
  194MOL0     H26153   3.983   5.837   1.684 -1.3492 -0.1307 -1.3550
  194MOL0     H26154   3.610   6.319   1.461 -2.0743  0.3382 -2.2890
  194MOL0     H26155   3.671   6.465   1.256 -0.2828 -0.4929 -3.0979
  194MOL0     H26156   3.894   6.306   0.944 -1.3837 -1.1875  2.7725
  194MOL0     H26157   3.733   6.353   0.956 -0.2468  0.8350 -0.0251
  194MOL0     H26158   3.847   6.475   0.774  1.9935 -0.9141 -0.7440
  194MOL0     H26159   3.803   6.599   0.910  0.4398 -1.5283  3.8996
  194MOL0     H26160   4.077   6.468   0.878  0.3584 -0.6717 -0.2038
  194MOL0     H26161   4.038   6.619   0.958  0.9339 -0.6377  0.8455
  194MOL0     H26162   4.024   6.550   0.659 -2.7639 -0.2939 -0.4388
  194MOL0     H26163   3.979   6.704   0.724 -1.1184 -1.3847  2.4593
  194MOL0     H26164   4.244   6.580   0.732  0.0426  0.0795  0.5279
  194MOL0     H26165   4.212   6.739   0.805  1.6781  1.6228 -1.2738
  194MOL0     H26166   4.198   6.657   0.502  1.0951  0.6542 -0.8555
  194MOL0     H26167   4.168   6.814   0.567 -1.1320 -1.3427  1.9174
  194MOL0     H26168   4.416   6.802   0.680 -2.0220 -0.5740  1.3464
  194MOL0     H26169   4.374   6.859   0.519  2.0794 -0.9029  0.0696
  194MOL0     H26170   4.422   6.639   0.422  0.0337  1.3663 -0.0305
  194MOL0     H26171   4.477   6.575   0.589 -0.1046  1.8286  2.1174
  194MOL0     H26172   3.983   6.219   1.151 -0.5067  0.8182 -1.4525
  194MOL0     H26173   3.897   6.037   1.296  1.0607 -0.2563  1.6634
  194MOL0     H26174   3.482   5.932   1.571  1.0454  1.5143 -1.2274
  194MOL0     H26175   3.383   5.744   1.674 -0.3715  0.8478  3.0894
  194MOL0     H26176   3.609   4.109   1.457  1.0234 -0.4457 -0.7877
  194MOL0     H26177   3.845   4.147   1.453  0.7557 -1.4443  2.0874
  194MOL0     H26178   4.190   4.433   1.686 -0.5813 -2.5188  0.8037
  194MOL0     H26179   4.429   4.434   1.704  1.7781 -0.3408 -0.2867
  194MOL0     H26180   4.667   4.479   1.662  4.9563  0.1449  1.7941
  194MOL0     H26181   4.643   4.299   1.697  0.7096 -1.4174  0.7947
  194MOL0     H26182   4.883   4.397   1.725 -0.8708  1.2214  0.1229
  194MOL0     H26183   4.872   4.478   1.579 -1.7466 -1.2043 -2.2862
  194MOL0     H26184   4.880   4.273   1.438 -1.3611 -1.2934 -0.0776
  194MOL0     H26185   4.855   4.178   1.587 -0.8721 -1.2555 -0.8114
  194MOL0     H26186   5.079   4.259   1.664  1.7229  2.4475 -0.0177
  194MOL0     H26187   5.093   4.345   1.513  2.6029 -1.9981 -1.6819
  194MOL0     H26188   5.218   3.962   1.387 -3.0948 -2.2568  0.1187
  194MOL0     H26189   4.462   4.300   1.294  1.7600  1.5540  0.5525
  194MOL0     H26190   4.216   4.279   1.280 -0.6178 -3.1726  1.2606
  195MOL0     O26191   3.725   1.775   7.771  0.2432  0.2268  0.5352
  195MOL0     C26192   3.803   1.833   7.851 -0.1205 -0.6112  0.1351
  195MOL0     O26193   3.933   1.868   7.828 -0.3744 -0.8828 -0.4709
  195MOL0     C26194   4.011   1.838   7.713  0.5404  0.1412 -0.5286
  195MOL0     C26195   3.966   1.808   7.586 -0.0086 -0.5384  1.0048
  195MOL0     C26196   4.057   1.781   7.480  0.0284 -0.2985  0.7519
  195MOL0     C26197   4.192   1.804   7.493  0.2757 -0.1669 -0.1354
  195MOL0     O26198   4.270   1.782   7.385 -0.2381  0.1095 -0.3153
  195MOL0     C26199   4.284   1.650   7.343 -0.7192  0.9969 -0.2522
  195MOL0     C26200   4.426   1.618   7.307  0.2063 -0.2181  0.2986
  195MOL0     C26201   4.464   1.671   7.173  0.1982 -0.0871 -0.4992
  195MOL0     C26202   4.607   1.679   7.141  0.0211  0.6541 -0.1231
  195MOL0     C26203   4.672   1.538   7.170 -0.5359  0.1631 -0.1776
  195MOL0     C26204   4.821   1.535   7.131 -0.9374  0.6116 -0.1887
  195MOL0     C26205   4.909   1.453   7.231  0.1753 -0.2460  0.1367
  195MOL0     C26206   4.880   1.303   7.220 -0.5140  0.7356 -0.1100
  195MOL0     N26207   4.925   1.259   7.086  0.0428 -0.0106  0.6532
  195MOL0     C26208   5.051   1.234   7.046  0.5804 -1.3993 -0.4536
  195MOL0     C26209   5.047   1.184   6.921 -0.5391 -0.4988  0.2155
  195MOL0     C26210   5.154   1.148   6.827 -0.7872  0.8444 -0.3056
  195MOL0     C26211   5.170   1.254   6.718 -0.1947  0.0740  0.3207
  195MOL0     C26212   5.278   1.212   6.621 -0.2933  0.4368  0.3763
  195MOL0     C26213   5.299   1.330   6.530  0.1767 -0.7292 -0.2518
  195MOL0     O26214   5.184   1.346   6.442  0.2384  0.4722 -0.8830
  195MOL0     C26215   5.127   1.464   6.403 -0.2443  0.0436  0.5272
  195MOL0     C26216   5.164   1.594   6.440  0.4025 -0.0182 -0.2491
  195MOL0     C26217   5.101   1.708   6.401 -0.2785 -0.1818  1.1674
  195MOL0     C26218   5.155   1.848   6.453 -0.2339  0.0904  0.9413
  195MOL0     C26219   4.975   1.696   6.330 -0.3446 -0.2016 -0.1291
  195MOL0     C26220   4.892   1.811   6.272  0.0854 -1.1840 -0.6267
  195MOL0     O26221   4.784   1.778   6.201 -0.2668 -0.3647  0.8832
  195MOL0     C26222   4.729   1.881   6.126 -0.4108  0.8772  0.6117
  195MOL0     C26223   4.592   1.896   6.131 -0.8496 -0.0107 -0.9727
  195MOL0     C26224   4.521   1.973   6.041 -0.6757  0.1011  0.3182
  195MOL0     C26225   4.591   2.032   5.936 -0.8499 -0.3620  0.2208
  195MOL0     O26226   4.534   2.096   5.834 -0.7786 -0.4299 -0.5767
  195MOL0     C26227   4.385   2.082   5.814 -0.5697  1.4965 -0.3453
  195MOL0     C26228   4.354   2.172   5.699  1.1611 -0.4059 -0.0075
  195MOL0     C26229   4.202   2.180   5.675 -0.7354 -0.3397  0.3241
  195MOL0     C26230   4.126   2.223   5.800 -0.6041  0.1021 -0.0456
  195MOL0     C26231   3.993   2.277   5.749  0.2608  0.0397  0.5133
  195MOL0     C26232   3.898   2.312   5.862  0.8967 -0.7685 -0.2200
  195MOL0     C26233   3.945   2.436   5.933  0.9470 -0.1130 -0.0410
  195MOL0     C26234   3.851   2.478   6.044  0.5611  0.7304  0.6379
  195MOL0    Cl26235   3.872   2.363   6.184  0.4171 -0.0146 -0.0126
  195MOL0     C26236   4.732   2.010   5.928 -0.0646 -0.0587 -0.1163
  195MOL0     C26237   4.803   1.936   6.024 -0.2783  0.4246 -1.1423
  195MOL0     O26238   4.930   1.928   6.288  0.3495 -0.6149  0.4950
  195MOL0     C26239   4.938   1.565   6.291  0.8880 -0.1261  0.0783
  195MOL0     C26240   5.014   1.447   6.331  0.3576 -1.3357  0.3161
  195MOL0     N26241   4.916   1.185   6.889 -0.2595 -0.1821 -0.4619
  195MOL0     N26242   4.842   1.236   6.982  0.4133 -0.6219 -0.2205
  195MOL0     C26243   4.239   1.839   7.621 -0.8135  0.9654  0.2716
  195MOL0     C26244   4.151   1.856   7.721 -0.6740  0.7805  0.3243
  195MOL0     C26245   3.749   1.889   7.975 -0.5766 -0.1909 -0.7004
  195MOL0     C26246   3.840   1.945   8.070  0.0277  0.1687  0.4388
  195MOL0     C26247   3.792   1.999   8.192  0.4500 -0.7081  0.1097
  195MOL0     C26248   3.653   2.012   8.212  0.1097  0.7165  0.0079
  195MOL0     O26249   3.615   2.078   8.329 -0.0734  0.0857  0.2076
  195MOL0     C26250   3.471   2.083   8.365 -1.1113 -1.0202  0.9136
  195MOL0     C26251   3.412   2.219   8.331 -0.0265 -0.4827  0.5524
  195MOL0     C26252   3.471   2.331   8.422  0.1668  0.2612 -0.5730
  195MOL0     C26253   3.375   2.443   8.468 -0.6126 -0.7323  0.0167
  195MOL0     C26254   3.441   2.569   8.502 -0.0851 -1.0800  0.5633
  195MOL0     C26255   3.483   2.679   8.528 -0.0264 -0.5255 -0.6741
  195MOL0     C26256   3.565   1.951   8.114 -0.4865 -0.2242 -0.2239
  195MOL0     C26257   3.613   1.897   7.995 -0.2037 -0.3611 -0.2749
  195MOL0     H26258   3.860   1.814   7.565  0.5929 -0.8870 -2.9035
  195MOL0     H26259   4.016   1.770   7.380  0.3698  1.2961  0.3992
  195MOL0     H26260   4.257   1.580   7.423  4.5423 -1.2151  0.0444
  195MOL0     H26261   4.213   1.639   7.261 -0.1494 -1.9367 -0.4579
  195MOL0     H26262   4.491   1.665   7.381  0.6735 -0.0012 -0.2462
  195MOL0     H26263   4.445   1.510   7.299  3.7108  0.4126 -2.2381
  195MOL0     H26264   4.419   1.615   7.091 -1.5274  0.1943  0.2244
  195MOL0     H26265   4.429   1.773   7.157  0.2987 -0.0677 -0.5939
  195MOL0     H26266   4.623   1.690   7.033 -0.4960  0.0985 -0.2592
  195MOL0     H26267   4.664   1.760   7.186 -0.6697  2.9128 -3.0470
  195MOL0     H26268   4.679   1.536   7.279  0.6353  0.6082 -0.2373
  195MOL0     H26269   4.621   1.450   7.128 -0.3729 -0.4432  0.8723
  195MOL0     H26270   4.840   1.497   7.030 -1.9102  0.5980 -0.3818
  195MOL0     H26271   4.856   1.639   7.128 -2.7397  1.2577 -0.3592
  195MOL0     H26272   5.016   1.468   7.217  0.0776  0.5023  0.1909
  195MOL0     H26273   4.889   1.482   7.335  2.3451 -2.9524  1.4592
  195MOL0     H26274   4.778   1.279   7.249  0.4287  1.3291  4.4964
  195MOL0     H26275   4.942   1.253   7.295  2.0015  1.8663 -1.2981
  195MOL0     H26276   5.134   1.268   7.108 -2.3689  3.0391  1.5838
  195MOL0     H26277   5.246   1.121   6.880 -1.3660  1.1380  0.8706
  195MOL0     H26278   5.127   1.061   6.767  2.6797 -0.4925 -0.1837
  195MOL0     H26279   5.193   1.354   6.755  1.3854  1.4757 -3.8842
  195MOL0     H26280   5.078   1.260   6.658 -0.1948  1.5315  0.4295
  195MOL0     H26281   5.259   1.125   6.557  1.5049  0.2826 -0.0144
  195MOL0     H26282   5.368   1.183   6.677  0.4725  0.5919 -0.7328
  195MOL0     H26283   5.387   1.317   6.466  0.8298  2.7688 -0.2247
  195MOL0     H26284   5.311   1.417   6.595  2.0753 -0.2432 -1.1800
  195MOL0     H26285   5.252   1.608   6.502  1.3575 -1.0937 -1.2844
  195MOL0     H26286   5.259   1.837   6.484  0.8163 -2.5848 -2.7690
  195MOL0     H26287   5.153   1.938   6.390  2.4069  0.7174  1.6376
  195MOL0     H26288   5.097   1.863   6.544  1.3962 -0.7734  2.1658
  195MOL0     H26289   4.539   1.845   6.211 -0.2996 -0.6908 -1.0277
  195MOL0     H26290   4.414   1.984   6.054 -1.0113 -2.2395 -0.0634
  195MOL0     H26291   4.362   1.978   5.789 -1.2431  1.4506  0.4281
  195MOL0     H26292   4.335   2.117   5.905  1.0819 -4.0554  3.1266
  195MOL0     H26293   4.393   2.268   5.735  2.1404 -2.0026  3.7576
  195MOL0     H26294   4.402   2.148   5.604 -0.7487  0.0428 -1.1305
  195MOL0     H26295   4.162   2.087   5.634 -2.2593 -0.2733  1.5755
  195MOL0     H26296   4.195   2.251   5.591 -0.9125 -1.1717 -0.3824
  195MOL0     H26297   4.117   2.132   5.859 -1.7415  1.5591  2.1733
  195MOL0     H26298   4.178   2.303   5.854 -2.7535  1.6765 -0.1557
  195MOL0     H26299   3.952   2.194   5.690  0.3861  1.1790 -1.2653
  195MOL0     H26300   4.018   2.360   5.682  0.3519 -1.0941 -0.9157
  195MOL0     H26301   3.795   2.322   5.826  0.8675  0.1389  0.0983
  195MOL0     H26302   3.895   2.232   5.936 -4.0750 -0.6659  0.0653
  195MOL0     H26303   3.945   2.516   5.859 -1.0840  0.0794  0.1085
  195MOL0     H26304   4.044   2.427   5.979  0.4546 -3.2398  0.6562
  195MOL0     H26305   3.750   2.455   6.008  2.0643  0.5915 -4.2476
  195MOL0     H26306   3.852   2.585   6.069 -3.5285  1.3388 -0.9926
  195MOL0     H26307   4.782   2.061   5.846  1.8373  0.8540  1.5038
  195MOL0     H26308   4.910   1.915   6.024  0.1575  2.2909  1.1504
  195MOL0     H26309   4.846   1.545   6.238  0.0909  0.9471  1.0341
  195MOL0     H26310   4.982   1.345   6.309  2.8473 -1.5782 -3.1222
  195MOL0     H26311   4.344   1.853   7.643 -0.3776 -0.8587 -0.4281
  195MOL0     H26312   4.183   1.894   7.817 -0.1396 -4.3360  2.5145
  195MOL0     H26313   3.947   1.948   8.049  0.2976  0.2144  1.7122
  195MOL0     H26314   3.856   2.051   8.262 -0.6586  2.1771 -0.8707
  195MOL0     H26315   3.413   1.997   8.331 -3.3233  1.0057 -0.7898
  195MOL0     H26316   3.463   2.084   8.474 -1.6042  1.4746  0.9273
  195MOL0     H26317   3.303   2.214   8.341 -0.4768 -0.8554 -3.2828
  195MOL0     H26318   3.433   2.249   8.229  0.2487  2.2391  1.3314
  195MOL0     H26319   3.552   2.375   8.363  0.1075  0.9854 -0.1240
  195MOL0     H26320   3.524   2.289   8.508  0.4466  3.0903  0.7237
  195MOL0     H26321   3.313   2.415   8.554  0.1914  3.3114  2.1727
  195MOL0     H26322   3.309   2.472   8.386 -0.3377  2.6560  0.8422
  195MOL0     H26323   3.497   2.777   8.569 -1.1940 -0.2714 -0.8524
  195MOL0     H26324   3.459   1.944   8.138 -0.8518  0.4550 -1.5086
  195MOL0     H26325   3.542   1.852   7.926  2.1503 -1.7572 -1.9088
  196MOL0     O26326   9.216  11.056   4.519  0.3530  0.1221 -0.2612
  196MOL0     C26327   9.238  11.115   4.625  1.0720  0.4447 -0.1687
  196MOL0     O26328   9.140  11.190   4.688  0.3724  0.4475 -0.3770
  196MOL0     C26329   9.006  11.156   4.659  0.0986  0.2707 -0.3956
  196MOL0     C26330   8.958  11.030   4.682  0.7482  0.8810  0.3487
  196MOL0     C26331   8.817  11.016   4.693 -1.0280 -0.6714  0.5981
  196MOL0     C26332   8.725  11.117   4.659 -0.3451  0.1940 -0.2238
  196MOL0     O26333   8.584  11.111   4.648 -0.1318 -0.0823  0.1754
  196MOL0     C26334   8.526  11.002   4.716 -1.0462 -0.2270 -0.4393
  196MOL0     C26335   8.381  11.004   4.743  0.6123  0.6227  0.3135
  196MOL0     C26336   8.289  11.061   4.635 -0.4981 -0.1735  0.5566
  196MOL0     C26337   8.144  11.089   4.679 -0.5757  0.5769 -0.3980
  196MOL0     C26338   8.033  11.135   4.570 -0.4872 -0.0832 -0.5096
  196MOL0     C26339   7.920  11.195   4.654 -0.1215  0.0555 -0.4316
  196MOL0     C26340   7.797  11.251   4.571 -0.7728 -0.6991  0.6334
  196MOL0     C26341   7.694  11.144   4.555 -0.7284  0.2983  0.3447
  196MOL0     N26342   7.572  11.199   4.499  0.3615 -0.5617  0.8421
  196MOL0     C26343   7.498  11.134   4.397  0.1613 -0.5728  0.3968
  196MOL0     C26344   7.367  11.158   4.418  0.5943 -0.5651  0.3297
  196MOL0     C26345   7.247  11.106   4.345  0.2513 -0.1929 -0.3906
  196MOL0     C26346   7.194  10.984   4.416  0.3484 -0.5255 -0.6069
  196MOL0     C26347   7.123  11.018   4.554 -0.6994  0.3619  0.2060
  196MOL0     C26348   6.969  11.010   4.542 -0.2641 -0.0953 -0.0719
  196MOL0     O26349   6.935  11.066   4.414 -0.3125 -0.4273 -0.0098
  196MOL0     C26350   6.798  11.061   4.377  0.0045 -0.6497 -0.4009
  196MOL0     C26351   6.764  11.145   4.268 -0.0288 -0.3872 -0.8301
  196MOL0     C26352   6.643  11.134   4.199  0.9635 -0.5601 -0.7924
  196MOL0     C26353   6.627  11.222   4.077 -0.5276 -0.4142  0.2833
  196MOL0     C26354   6.542  11.057   4.253 -0.1244  1.3459  0.6197
  196MOL0     C26355   6.405  11.050   4.197 -0.4070  0.2258 -0.6780
  196MOL0     O26356   6.380  11.099   4.073  0.6572  0.3287  0.4862
  196MOL0     C26357   6.247  11.107   4.021  0.1723  0.0825 -0.2090
  196MOL0     C26358   6.257  11.161   3.891 -0.3773 -0.5159  0.0270
  196MOL0     C26359   6.144  11.184   3.813  0.2188 -0.1071 -0.0892
  196MOL0     C26360   6.013  11.163   3.875 -0.4479 -0.0714 -0.5195
  196MOL0     O26361   5.904  11.187   3.790 -0.3642  0.3101 -0.4896
  196MOL0     C26362   5.781  11.215   3.851 -0.3295 -0.9855 -0.2344
  196MOL0     C26363   5.673  11.159   3.742 -0.5111 -0.8633  0.3279
  196MOL0     C26364   5.534  11.213   3.774 -0.2363  0.2051  0.1140
  196MOL0     C26365   5.435  11.151   3.675  0.0842 -0.1103 -0.2520
  196MOL0     C26366   5.294  11.205   3.695 -0.1270 -0.1940 -0.3696
  196MOL0     C26367   5.203  11.149   3.576 -0.8140 -0.1425 -0.3098
  196MOL0     C26368   5.082  11.230   3.535  0.1332  0.1870 -0.0810
  196MOL0     C26369   4.973  11.149   3.464 -0.3936 -0.7989  0.1302
  196MOL0    Cl26370   4.929  11.004   3.565  0.2111 -1.0011  0.1731
  196MOL0     C26371   6.003  11.102   3.999 -0.0708  0.0723  0.5710
  196MOL0     C26372   6.122  11.073   4.073 -0.1383  0.6347  0.8522
  196MOL0     O26373   6.321  10.993   4.267  0.0166 -0.2618 -0.5806
  196MOL0     C26374   6.573  10.982   4.369  0.0184  0.3282  0.1761
  196MOL0     C26375   6.696  10.984   4.430 -0.3634  0.3113  0.5507
  196MOL0     N26376   7.363  11.237   4.535  0.5369  0.3022  0.7505
  196MOL0     N26377   7.477  11.254   4.583 -0.6428 -0.4353  0.0198
  196MOL0     C26378   8.785  11.244   4.626 -0.6583 -0.0511 -0.4166
  196MOL0     C26379   8.925  11.260   4.626 -0.5085 -0.4382 -0.6715
  196MOL0     C26380   9.376  11.115   4.677 -0.0159  0.3007  0.5407
  196MOL0     C26381   9.484  11.051   4.616  1.2510  0.1209  0.0739
  196MOL0     C26382   9.605  11.058   4.671 -0.5980  0.0182  0.1939
  196MOL0     C26383   9.637  11.123   4.787  0.7114  0.2233 -0.9111
  196MOL0     O26384   9.754  11.134   4.839 -0.1643 -0.1011 -0.1822
  196MOL0     C26385   9.770  11.034   4.939  0.7560  0.5449  0.4412
  196MOL0     C26386   9.891  11.061   5.031  0.1764  0.0152 -0.1390
  196MOL0     C26387  10.029  11.059   4.948  0.2539 -0.6004  0.9046
  196MOL0     C26388  10.140  11.077   5.041  0.1594  0.0925  1.3978
  196MOL0     C26389  10.165  11.215   5.077 -0.2414  0.3642 -1.1378
  196MOL0     C26390  10.206  11.323   5.121 -0.8090  1.2778 -0.5100
  196MOL0     C26391   9.534  11.197   4.847 -0.5391 -0.0445  1.3705
  196MOL0     C26392   9.398  11.179   4.795 -0.0675 -0.3028 -0.4483
  196MOL0     H26393   9.022  10.945   4.700  0.9830  0.8363 -0.6418
  196MOL0     H26394   8.780  10.920   4.726 -0.8619 -1.6264 -1.8123
  196MOL0     H26395   8.537  10.913   4.654 -1.5619 -1.8586  1.6831
  196MOL0     H26396   8.573  10.987   4.814 -3.2048  0.7398  0.7984
  196MOL0     H26397   8.352  10.902   4.772 -1.6403  0.6329 -1.6564
  196MOL0     H26398   8.358  11.069   4.828  1.1092  3.3383 -1.5210
  196MOL0     H26399   8.338  11.147   4.590  1.7801 -1.5889  0.1670
  196MOL0     H26400   8.272  10.996   4.549 -0.7879  3.7881 -2.6438
  196MOL0     H26401   8.106  10.993   4.715 -1.7023  0.4720 -1.7855
  196MOL0     H26402   8.150  11.156   4.765 -0.3169 -1.4010  1.2037
  196MOL0     H26403   8.073  11.209   4.499 -1.9014  1.3200  0.1070
  196MOL0     H26404   7.995  11.049   4.513  0.2513  0.2290 -1.5128
  196MOL0     H26405   7.883  11.135   4.738  0.2197 -0.1259 -0.4092
  196MOL0     H26406   7.963  11.282   4.705  1.9510 -0.4706 -1.1974
  196MOL0     H26407   7.747  11.332   4.625  2.0676  0.3573  1.8914
  196MOL0     H26408   7.830  11.290   4.474 -0.9806 -0.0200  0.8315
  196MOL0     H26409   7.666  11.112   4.655 -1.9232  0.4168  0.0653
  196MOL0     H26410   7.734  11.067   4.488 -2.3225 -0.5512  0.3174
  196MOL0     H26411   7.536  11.067   4.321 -0.4875 -0.8885  0.3434
  196MOL0     H26412   7.177  11.190   4.338 -0.4960 -0.7984 -0.2993
  196MOL0     H26413   7.272  11.077   4.242  1.0726  4.3931 -1.7266
  196MOL0     H26414   7.276  10.912   4.421 -0.1701 -1.0516  0.9770
  196MOL0     H26415   7.120  10.931   4.355  0.0146 -0.3898 -0.3281
  196MOL0     H26416   7.153  11.114   4.596  1.5923 -1.9621  4.4399
  196MOL0     H26417   7.152  10.936   4.620  1.7137 -1.8488 -3.2598
  196MOL0     H26418   6.912  11.058   4.622  0.1798 -0.4713  0.4779
  196MOL0     H26419   6.943  10.904   4.532  0.6888 -0.5216  1.5859
  196MOL0     H26420   6.836  11.211   4.220 -0.6770  1.5748  0.7512
  196MOL0     H26421   6.706  11.295   4.055 -1.1540 -0.2032 -1.4241
  196MOL0     H26422   6.621  11.155   3.991 -2.0350  1.4358 -1.1072
  196MOL0     H26423   6.536  11.281   4.087  1.0697  2.1375  0.8534
  196MOL0     H26424   6.357  11.168   3.849 -1.5237  0.8511 -2.6861
  196MOL0     H26425   6.149  11.220   3.711  2.4100 -2.6512 -1.0119
  196MOL0     H26426   5.772  11.168   3.950 -0.5047 -2.1019 -0.7644
  196MOL0     H26427   5.773  11.323   3.862 -1.6652 -0.9061 -1.7281
  196MOL0     H26428   5.712  11.206   3.651  3.4186  1.0188  2.7235
  196MOL0     H26429   5.668  11.050   3.734  0.4891 -0.8975  0.0615
  196MOL0     H26430   5.527  11.322   3.763 -2.7036  0.0674 -0.2630
  196MOL0     H26431   5.502  11.190   3.876  1.0183  0.2338  0.5311
  196MOL0     H26432   5.467  11.178   3.574 -0.2420  0.6875 -0.1520
  196MOL0     H26433   5.425  11.044   3.689  0.9613 -0.3045 -1.0021
  196MOL0     H26434   5.296  11.314   3.688 -1.3178 -0.0686  1.0186
  196MOL0     H26435   5.259  11.190   3.797  1.9900 -0.4978  0.3604
  196MOL0     H26436   5.249  11.153   3.477 -2.3987  0.4921 -1.0630
  196MOL0     H26437   5.165  11.050   3.606  0.6307 -0.5971  0.1027
  196MOL0     H26438   5.121  11.314   3.476  0.7010 -0.3376 -0.4635
  196MOL0     H26439   5.037  11.268   3.627  4.1567 -1.5160  2.8710
  196MOL0     H26440   5.016  11.116   3.369 -1.8896 -1.1225 -0.4621
  196MOL0     H26441   4.880  11.203   3.445  0.3064 -0.3172 -2.2888
  196MOL0     H26442   5.912  11.076   4.052 -0.6134  0.2151 -0.2741
  196MOL0     H26443   6.106  11.035   4.174 -2.4284 -1.6694 -0.2552
  196MOL0     H26444   6.497  10.921   4.418  0.0514 -0.5742 -0.8432
  196MOL0     H26445   6.707  10.919   4.517  0.6031  1.7077  1.5117
  196MOL0     H26446   8.708  11.314   4.596 -0.2742  1.4108  1.7991
  196MOL0     H26447   8.984  11.350   4.606 -1.6555 -0.2091 -3.5299
  196MOL0     H26448   9.472  10.990   4.528 -1.9153 -1.4869  1.4634
  196MOL0     H26449   9.694  11.008   4.634  0.0680  1.6339 -0.4350
  196MOL0     H26450   9.686  11.010   5.004  0.4557 -0.7760 -0.3978
  196MOL0     H26451   9.789  10.943   4.881 -0.3239 -0.0594  1.0161
  196MOL0     H26452   9.894  10.970   5.092 -1.9074 -3.0015 -4.0817
  196MOL0     H26453   9.880  11.155   5.086  0.0117 -0.3670  0.4948
  196MOL0     H26454  10.031  11.137   4.872  1.5511 -1.3661  0.1162
  196MOL0     H26455  10.035  10.961   4.900  0.3883  0.1952 -0.7577
  196MOL0     H26456  10.233  11.054   4.990  0.4338 -1.4630  2.5384
  196MOL0     H26457  10.127  11.007   5.125  0.4351 -0.6742  0.8084
  196MOL0     H26458  10.248  11.418   5.149 -0.9677  0.8908  1.1348
  196MOL0     H26459   9.556  11.263   4.931 -0.3235  1.3374  0.2680
  196MOL0     H26460   9.322  11.246   4.835  1.6841  1.7583 -0.3981
  197MOL0     O26461  10.012   4.389   5.438 -0.1744  0.2434  0.3569
  197MOL0     C26462  10.094   4.328   5.506  0.0238 -0.7907 -0.5019
  197MOL0     O26463  10.068   4.270   5.625  0.3779 -0.6707 -0.3809
  197MOL0     C26464   9.953   4.303   5.693 -0.4387  1.9314  0.9142
  197MOL0     C26465   9.970   4.341   5.826  0.1242 -1.0478 -1.4352
  197MOL0     C26466   9.854   4.375   5.903  0.8685  0.0198  0.1486
  197MOL0     C26467   9.728   4.365   5.848  0.5155 -0.1723 -0.3148
  197MOL0     O26468   9.611   4.414   5.909  0.1802 -0.1342  0.5048
  197MOL0     C26469   9.628   4.489   6.033  0.7277  0.6118  0.3766
  197MOL0     C26470   9.522   4.595   6.042 -0.8750  0.5424 -1.0383
  197MOL0     C26471   9.381   4.541   6.059  0.6119  0.7215  1.1843
  197MOL0     C26472   9.337   4.500   6.197  0.5184 -0.1445  0.0556
  197MOL0     C26473   9.191   4.454   6.193  0.0759  0.1505  0.4432
  197MOL0     C26474   9.175   4.316   6.139 -0.1292  0.0468  0.4494
  197MOL0     C26475   9.039   4.265   6.172  0.0955 -0.4280 -0.7232
  197MOL0     C26476   9.010   4.146   6.089  0.1850  0.0536  0.3248
  197MOL0     N26477   8.883   4.085   6.130 -0.0458  0.5678  0.6081
  197MOL0     C26478   8.765   4.146   6.165 -0.4522  1.0184  0.5002
  197MOL0     C26479   8.678   4.042   6.180  0.2318  0.2282 -0.3027
  197MOL0     C26480   8.531   4.063   6.196  0.5868  0.0465 -0.3253
  197MOL0     C26481   8.480   4.080   6.342  0.6314 -0.0913  0.1499
  197MOL0     C26482   8.437   3.939   6.398 -0.9801  0.3908  0.3566
  197MOL0     C26483   8.308   3.895   6.339  0.4202 -0.4374 -0.6116
  197MOL0     O26484   8.198   3.954   6.406 -0.8269 -1.1671 -0.0821
  197MOL0     C26485   8.071   3.959   6.355  0.6208  0.0461 -0.3504
  197MOL0     C26486   7.969   4.020   6.430  0.3226  0.2803  0.9641
  197MOL0     C26487   7.837   4.031   6.391 -0.1473  0.2325  0.5668
  197MOL0     C26488   7.749   4.116   6.478  0.6836  0.0241 -0.0899
  197MOL0     C26489   7.800   3.965   6.273 -0.1031  0.0765  0.3906
  197MOL0     C26490   7.666   3.938   6.232 -0.0742  1.0267 -0.7676
  197MOL0     O26491   7.566   4.019   6.276  0.1874 -0.1863  0.4920
  197MOL0     C26492   7.435   3.986   6.234 -0.7712 -0.1177  0.3204
  197MOL0     C26493   7.366   4.071   6.143  0.4023 -0.4949 -0.0023
  197MOL0     C26494   7.233   4.054   6.114  0.5596  0.1374 -0.8031
  197MOL0     C26495   7.160   3.944   6.164  0.8486 -0.5255 -0.0409
  197MOL0     O26496   7.032   3.907   6.130  0.2053  0.1401 -0.2236
  197MOL0     C26497   6.955   3.980   6.028 -0.0405  0.4803  0.5501
  197MOL0     C26498   6.821   3.891   6.000  0.2025 -0.5927  0.0397
  197MOL0     C26499   6.708   3.937   5.909 -0.0358 -0.2994  0.0724
  197MOL0     C26500   6.676   4.076   5.934  0.2789  0.3795 -0.4700
  197MOL0     C26501   6.618   4.109   6.076  0.1639 -0.5580  0.1531
  197MOL0     C26502   6.607   4.263   6.087  0.3512 -0.4596 -0.0771
  197MOL0     C26503   6.584   4.290   6.233 -0.3491  0.1031  0.3099
  197MOL0     C26504   6.525   4.439   6.254  0.5238  1.0528 -0.1651
  197MOL0    Cl26505   6.457   4.428   6.422 -0.3121  0.0524 -0.2262
  197MOL0     C26506   7.227   3.861   6.256 -0.4392  0.2876 -0.5480
  197MOL0     C26507   7.361   3.888   6.298 -0.6527  0.2943  0.8255
  197MOL0     O26508   7.654   3.843   6.160 -0.1130  0.7810 -1.0909
  197MOL0     C26509   7.908   3.908   6.189  0.5394 -0.5908  1.4066
  197MOL0     C26510   8.037   3.908   6.228 -0.0005  0.1903 -0.5302
  197MOL0     N26511   8.742   3.924   6.149  0.3180 -0.4889 -0.5274
  197MOL0     N26512   8.864   3.955   6.138 -0.3129  0.3373  0.3720
  197MOL0     C26513   9.718   4.307   5.728  0.3567 -0.0229  0.6363
  197MOL0     C26514   9.823   4.284   5.643  0.5198 -0.2495 -0.7080
  197MOL0     C26515  10.227   4.304   5.447 -0.6542 -0.5364 -0.6774
  197MOL0     C26516  10.280   4.387   5.347  0.1017  0.4590  0.4138
  197MOL0     C26517  10.402   4.358   5.288 -0.5175 -0.1917 -0.1042
  197MOL0     C26518  10.486   4.268   5.348 -0.7451 -1.1476 -0.7504
  197MOL0     O26519  10.615   4.255   5.310 -0.6544 -0.2254  0.6286
  197MOL0     C26520  10.642   4.296   5.173 -0.8731 -0.4252 -0.3068
  197MOL0     C26521  10.778   4.248   5.130 -0.2574  0.0775 -0.0364
  197MOL0     C26522  10.895   4.272   5.231 -0.0762 -0.2873  0.4033
  197MOL0     C26523  10.947   4.420   5.213 -0.5408 -0.0122 -0.3871
  197MOL0     C26524  11.054   4.454   5.303 -0.2916 -1.2238  0.2262
  197MOL0     C26525  11.145   4.490   5.368  0.1070  0.4108 -0.0434
  197MOL0     C26526  10.444   4.207   5.463 -0.1204 -0.4259 -0.5482
  197MOL0     C26527  10.312   4.216   5.510  0.1199 -0.0016 -0.4317
  197MOL0     H26528  10.072   4.342   5.863  1.5112  0.4624 -4.7985
  197MOL0     H26529   9.856   4.394   6.010  0.1676 -0.0608  0.1819
  197MOL0     H26530   9.620   4.421   6.118  1.7087 -0.9793 -0.7700
  197MOL0     H26531   9.724   4.540   6.040  0.9227  0.3534 -0.3197
  197MOL0     H26532   9.547   4.672   6.116 -2.5817  0.4731 -0.3558
  197MOL0     H26533   9.524   4.642   5.944 -0.6860 -2.0074 -2.3343
  197MOL0     H26534   9.322   4.628   6.030  0.3464  1.0498  2.6643
  197MOL0     H26535   9.362   4.470   5.978  0.1976  2.7078 -0.5448
  197MOL0     H26536   9.411   4.432   6.241  1.5145  1.7599  1.4677
  197MOL0     H26537   9.341   4.581   6.270  2.9672  1.0062 -1.2319
  197MOL0     H26538   9.156   4.463   6.297 -0.6303  1.5975  0.1118
  197MOL0     H26539   9.124   4.522   6.139  0.0230 -0.9550 -0.9339
  197MOL0     H26540   9.188   4.326   6.030 -0.0082  0.3044  0.4877
  197MOL0     H26541   9.248   4.240   6.169 -2.9398 -2.9919  0.1169
  197MOL0     H26542   9.044   4.228   6.275  0.3425  1.7805  0.1178
  197MOL0     H26543   8.961   4.342   6.177  0.6331  0.0912 -0.1538
  197MOL0     H26544   9.088   4.073   6.068 -1.0496 -0.8909 -1.1778
  197MOL0     H26545   8.994   4.186   5.988  0.0750 -1.5347 -0.3119
  197MOL0     H26546   8.736   4.250   6.175 -2.3722  0.6836 -0.9349
  197MOL0     H26547   8.516   4.162   6.152  2.7943  0.2146 -0.8585
  197MOL0     H26548   8.477   3.982   6.146  1.2222 -0.0140 -0.9343
  197MOL0     H26549   8.391   4.144   6.343 -1.9722 -3.4029 -1.3885
  197MOL0     H26550   8.548   4.144   6.400 -1.6716 -0.1423  3.1282
  197MOL0     H26551   8.442   3.934   6.507  2.4948 -2.1522  0.2460
  197MOL0     H26552   8.512   3.865   6.370  0.4537  0.5198  3.4664
  197MOL0     H26553   8.304   3.785   6.336 -0.9938 -0.4138  0.0426
  197MOL0     H26554   8.305   3.938   6.239 -1.0156  0.2669 -0.2886
  197MOL0     H26555   8.011   4.054   6.524  0.6203 -3.2133  2.2409
  197MOL0     H26556   7.714   4.201   6.419 -1.9223 -1.0954 -0.2930
  197MOL0     H26557   7.664   4.054   6.506  0.2891 -0.0920 -1.4921
  197MOL0     H26558   7.790   4.158   6.570 -0.9742  2.6118 -0.4334
  197MOL0     H26559   7.422   4.145   6.087  1.5510  1.3166  3.2705
  197MOL0     H26560   7.186   4.124   6.046 -1.9571  0.8314  1.4683
  197MOL0     H26561   6.927   4.078   6.067 -0.7437 -0.9964  4.2348
  197MOL0     H26562   7.013   3.992   5.937  0.4028 -0.4723  0.6864
  197MOL0     H26563   6.862   3.798   5.960 -0.1544 -1.0955  0.8111
  197MOL0     H26564   6.774   3.869   6.096  3.4804 -3.6632  1.1422
  197MOL0     H26565   6.618   3.876   5.922  0.5161 -1.5252 -1.5314
  197MOL0     H26566   6.739   3.928   5.805  0.8677  1.7963  0.1120
  197MOL0     H26567   6.765   4.138   5.926  1.4361 -1.0186  0.8411
  197MOL0     H26568   6.607   4.109   5.856 -0.9650 -2.1057 -0.5197
  197MOL0     H26569   6.692   4.080   6.150  0.0757  0.8492  0.8180
  197MOL0     H26570   6.516   4.076   6.097  0.1651 -0.5088  0.2325
  197MOL0     H26571   6.689   4.321   6.046 -0.9164  1.0546 -0.5932
  197MOL0     H26572   6.522   4.291   6.024 -0.5868 -2.4626  0.2124
  197MOL0     H26573   6.674   4.296   6.294  0.5073 -0.4733 -0.8441
  197MOL0     H26574   6.504   4.226   6.270 -1.5141  2.6295  2.4561
  197MOL0     H26575   6.443   4.460   6.184 -0.0059  0.1209  0.1591
  197MOL0     H26576   6.601   4.518   6.248  0.4941  1.1769  0.9485
  197MOL0     H26577   7.168   3.784   6.305  0.9848 -0.3475  0.2113
  197MOL0     H26578   7.413   3.830   6.374 -0.9206 -1.3041 -0.1729
  197MOL0     H26579   7.879   3.870   6.092 -1.1470  0.4824  1.4595
  197MOL0     H26580   8.109   3.859   6.163  1.1016  0.8623  0.1534
  197MOL0     H26581   9.614   4.292   5.698  0.1404  0.6579  1.0103
  197MOL0     H26582   9.796   4.225   5.555 -0.8837  1.4131 -1.4613
  197MOL0     H26583  10.215   4.453   5.290  1.2355 -0.3237 -1.9216
  197MOL0     H26584  10.418   4.408   5.193  0.4573 -1.5189 -0.6668
  197MOL0     H26585  10.565   4.257   5.106 -1.4358  1.0181 -0.5344
  197MOL0     H26586  10.640   4.405   5.171  2.2366 -0.2599 -0.7941
  197MOL0     H26587  10.803   4.292   5.033  0.9705  0.2544  0.3445
  197MOL0     H26588  10.781   4.140   5.117  0.8860 -0.1772  2.0023
  197MOL0     H26589  10.974   4.209   5.189  0.2798  1.0936 -1.0903
  197MOL0     H26590  10.864   4.258   5.335 -2.2592 -0.2275 -0.1838
  197MOL0     H26591  10.868   4.493   5.234 -0.3275 -0.1205  0.8947
  197MOL0     H26592  10.981   4.426   5.109 -0.1498  1.3737 -0.1967
  197MOL0     H26593  11.227   4.525   5.427 -0.8908  2.1227  0.3991
  197MOL0     H26594  10.515   4.147   5.519  0.4278  0.2602 -0.5006
  197MOL0     H26595  10.284   4.169   5.604  2.0799 -1.6399 -0.6018
  198MOL0     O26596   4.107   1.780   6.289 -0.5330  0.0366 -0.5024
  198MOL0     C26597   4.068   1.718   6.386 -0.5866 -0.2245 -0.4096
  198MOL0     O26598   3.944   1.711   6.429  0.8571 -0.6644 -0.1479
  198MOL0     C26599   3.855   1.758   6.332  0.6450  0.5605 -1.2337
  198MOL0     C26600   3.801   1.682   6.223 -0.0228 -0.0187 -0.2584
  198MOL0     C26601   3.722   1.753   6.124 -0.4027 -0.3083 -0.7135
  198MOL0     C26602   3.681   1.881   6.144 -0.4803 -1.1130  0.0534
  198MOL0     O26603   3.613   1.939   6.042  0.2400  0.2352 -0.1915
  198MOL0     C26604   3.581   2.076   6.044  0.9266 -0.6978 -0.3934
  198MOL0     C26605   3.445   2.114   6.110  0.6656 -0.3108 -0.0806
  198MOL0     C26606   3.329   2.039   6.055  0.2559  0.9453 -0.0117
  198MOL0     C26607   3.258   2.110   5.942 -0.5968 -0.4395  0.3405
  198MOL0     C26608   3.108   2.076   5.939 -0.5431 -0.6107  0.6408
  198MOL0     C26609   3.047   2.155   5.818 -0.7032 -0.7219 -0.2842
  198MOL0     C26610   2.889   2.135   5.825  0.5666 -0.0136  0.2084
  198MOL0     C26611   2.874   1.990   5.772  0.0643  0.6176 -0.1778
  198MOL0     N26612   2.727   1.971   5.733  0.2167  0.2783 -0.6537
  198MOL0     C26613   2.643   1.896   5.814  0.3699  0.6379  1.1570
  198MOL0     C26614   2.524   1.905   5.753 -0.3639  0.0853  0.3393
  198MOL0     C26615   2.400   1.842   5.808 -0.6538  0.9953 -0.9729
  198MOL0     C26616   2.429   1.693   5.834  0.1726  0.4962 -0.6131
  198MOL0     C26617   2.286   1.620   5.863 -0.0136  0.6097  0.4681
  198MOL0     C26618   2.286   1.514   5.976 -1.0645 -0.7382 -0.1611
  198MOL0     O26619   2.338   1.553   6.109  0.1807 -0.1063  0.1771
  198MOL0     C26620   2.274   1.640   6.194 -0.1867 -0.2531 -1.0316
  198MOL0     C26621   2.354   1.689   6.304  0.5024  1.0007 -0.7542
  198MOL0     C26622   2.299   1.771   6.406  0.9303  0.6183  0.1575
  198MOL0     C26623   2.392   1.783   6.527 -0.1951  0.2511 -0.6409
  198MOL0     C26624   2.164   1.818   6.400 -0.1711 -0.0587  0.8008
  198MOL0     C26625   2.097   1.919   6.492 -0.1223  0.3805  0.0912
  198MOL0     O26626   2.175   1.985   6.584  0.6424 -0.1096  0.0406
  198MOL0     C26627   2.112   2.095   6.642 -0.8046  0.2325  0.9502
  198MOL0     C26628   2.028   2.085   6.755  0.1466  0.8074 -0.0411
  198MOL0     C26629   1.977   2.207   6.808  0.4136 -0.0162 -0.1411
  198MOL0     C26630   2.014   2.335   6.754 -0.5156 -0.0580 -0.8156
  198MOL0     O26631   1.948   2.446   6.805 -0.8128 -0.2975 -0.1624
  198MOL0     C26632   1.894   2.542   6.706 -0.8108 -0.4168 -0.0903
  198MOL0     C26633   1.770   2.489   6.630 -0.8833 -0.6130 -0.1242
  198MOL0     C26634   1.642   2.459   6.719  0.3996  0.6589  0.2661
  198MOL0     C26635   1.601   2.314   6.693 -0.2767  0.1708 -0.5537
  198MOL0     C26636   1.454   2.290   6.680  0.0293  0.2038 -1.2733
  198MOL0     C26637   1.425   2.171   6.588  0.4138  0.1421  0.2766
  198MOL0     C26638   1.266   2.142   6.587  1.2221  0.4575 -0.2802
  198MOL0     C26639   1.216   2.008   6.521 -0.3665 -0.0021  0.3562
  198MOL0    Cl26640   1.320   1.876   6.588  0.4873  0.0022 -0.0852
  198MOL0     C26641   2.108   2.335   6.655  0.0720 -0.0896  0.3480
  198MOL0     C26642   2.152   2.214   6.592 -0.0072 -1.4134 -0.5147
  198MOL0     O26643   1.972   1.927   6.480 -0.1989 -0.0909  0.1988
  198MOL0     C26644   2.092   1.778   6.286  0.5029 -0.4113 -0.0877
  198MOL0     C26645   2.145   1.693   6.179  0.2009 -0.0813 -0.4842
  198MOL0     N26646   2.546   1.979   5.635 -0.0322 -0.4462  0.5438
  198MOL0     N26647   2.666   2.021   5.624 -0.3420  0.5747  0.6866
  198MOL0     C26648   3.734   1.957   6.254 -1.2236  0.4544 -0.9716
  198MOL0     C26649   3.811   1.886   6.350  0.0829  0.1696 -0.5089
  198MOL0     C26650   4.178   1.649   6.474  1.6932 -0.0852  0.2823
  198MOL0     C26651   4.313   1.656   6.433  0.3992  0.3383 -0.6879
  198MOL0     C26652   4.421   1.607   6.506 -0.3265  0.3553  0.2110
  198MOL0     C26653   4.404   1.563   6.635  0.7024 -0.3754 -0.1070
  198MOL0     O26654   4.507   1.523   6.723  0.3214 -0.1144  0.3379
  198MOL0     C26655   4.516   1.379   6.752  0.0677  0.4709  0.4773
  198MOL0     C26656   4.575   1.302   6.636 -0.7828 -0.0207 -0.1288
  198MOL0     C26657   4.726   1.339   6.598  0.1585 -1.1456 -0.4336
  198MOL0     C26658   4.775   1.238   6.493  0.1100  0.6948 -0.5716
  198MOL0     C26659   4.729   1.284   6.356 -0.1863 -0.0751 -0.0771
  198MOL0     C26660   4.672   1.346   6.267 -0.2044  0.3575  0.5128
  198MOL0     C26661   4.270   1.569   6.689 -0.5074 -0.0240  0.5909
  198MOL0     C26662   4.162   1.605   6.609 -0.7155 -0.1321  0.3009
  198MOL0     H26663   3.825   1.577   6.213 -1.6285 -0.2753 -1.8291
  198MOL0     H26664   3.683   1.703   6.036  1.6592 -2.2775 -0.6035
  198MOL0     H26665   3.654   2.140   6.094 -0.2553  0.8892 -0.6422
  198MOL0     H26666   3.572   2.108   5.940  1.2321 -1.0521 -0.5320
  198MOL0     H26667   3.454   2.091   6.217  0.0682 -0.9130 -0.1496
  198MOL0     H26668   3.426   2.221   6.096 -0.5797 -0.8111 -3.1545
  198MOL0     H26669   3.362   1.942   6.018 -0.9712  0.5310 -0.0452
  198MOL0     H26670   3.263   2.021   6.141 -1.0771  1.0056 -0.9893
  198MOL0     H26671   3.262   2.218   5.955  0.2413 -0.3041 -0.9144
  198MOL0     H26672   3.310   2.090   5.848  1.7780  4.1008  0.4533
  198MOL0     H26673   3.097   1.967   5.933  0.8857 -0.7080 -0.7794
  198MOL0     H26674   3.070   2.103   6.038  1.1018  2.1502  0.6054
  198MOL0     H26675   3.062   2.262   5.834  1.6267 -0.7087 -1.9515
  198MOL0     H26676   3.095   2.127   5.723  3.6279  1.0230  1.1142
  198MOL0     H26677   2.847   2.149   5.925  0.8833 -4.5764  1.2174
  198MOL0     H26678   2.835   2.206   5.762 -1.4153  0.8323  2.6918
  198MOL0     H26679   2.909   1.915   5.844 -0.1919  1.1612  0.5243
  198MOL0     H26680   2.940   1.981   5.686  1.7139 -4.2341  1.2457
  198MOL0     H26681   2.671   1.836   5.900  2.6563  0.4144  0.3124
  198MOL0     H26682   2.372   1.886   5.904 -0.9681  0.8958 -1.0175
  198MOL0     H26683   2.328   1.857   5.727 -0.3670  0.4493 -1.3271
  198MOL0     H26684   2.483   1.676   5.927  1.0582  0.6997 -1.0831
  198MOL0     H26685   2.478   1.628   5.762 -0.2558  0.0233 -0.4875
  198MOL0     H26686   2.247   1.577   5.770 -1.0900  0.6186  0.8968
  198MOL0     H26687   2.215   1.700   5.886 -0.6932 -0.2416  1.3571
  198MOL0     H26688   2.345   1.428   5.944  1.1752  1.5472 -2.7588
  198MOL0     H26689   2.182   1.481   5.980 -0.5588 -2.5013 -0.8063
  198MOL0     H26690   2.450   1.640   6.317  0.1541 -0.4897 -3.1016
  198MOL0     H26691   2.405   1.886   6.562  1.2516 -0.8716  2.4812
  198MOL0     H26692   2.340   1.725   6.603 -1.5304 -0.1633 -1.8283
  198MOL0     H26693   2.490   1.736   6.511 -0.2616 -0.5220  1.0105
  198MOL0     H26694   2.012   1.992   6.808  1.7487 -0.3901 -1.5511
  198MOL0     H26695   1.910   2.205   6.893  2.0847 -1.3521  1.2196
  198MOL0     H26696   1.855   2.626   6.764  1.1465  0.7387 -0.3397
  198MOL0     H26697   1.975   2.574   6.640 -0.6381  1.2303  0.8801
  198MOL0     H26698   1.743   2.563   6.554 -3.3794 -0.9832  0.3289
  198MOL0     H26699   1.798   2.404   6.568 -1.3478 -0.0243 -1.1591
  198MOL0     H26700   1.559   2.530   6.716 -0.4349 -0.2634  0.6903
  198MOL0     H26701   1.677   2.461   6.823  0.6930 -2.0372  0.2890
  198MOL0     H26702   1.656   2.276   6.606  0.4392  0.4754 -0.2455
  198MOL0     H26703   1.625   2.252   6.780 -0.8390  1.1556  0.3261
  198MOL0     H26704   1.403   2.380   6.644  0.2100  0.8417  0.0002
  198MOL0     H26705   1.416   2.273   6.781 -3.1404 -0.5782 -2.4612
  198MOL0     H26706   1.448   2.207   6.488  1.2568 -0.2839  0.3095
  198MOL0     H26707   1.479   2.083   6.624  0.1404  0.5976  1.8928
  198MOL0     H26708   1.219   2.221   6.527 -2.3200 -1.9405 -0.9929
  198MOL0     H26709   1.221   2.153   6.686 -1.1044 -2.0281 -0.9386
  198MOL0     H26710   1.233   2.007   6.413 -0.3690  1.7249  0.3156
  198MOL0     H26711   1.111   1.992   6.549 -1.1566 -0.4744 -2.5420
  198MOL0     H26712   2.161   2.419   6.611 -1.4084  0.4581 -0.4407
  198MOL0     H26713   2.217   2.215   6.506  1.5978 -0.7997  0.6530
  198MOL0     H26714   1.990   1.814   6.279  0.3075 -1.2170 -2.2495
  198MOL0     H26715   2.081   1.670   6.094 -2.5569  2.5274  0.6993
  198MOL0     H26716   3.706   2.059   6.278  0.0788  0.4555  0.7361
  198MOL0     H26717   3.862   1.927   6.437  1.5898 -0.1177 -1.2253
  198MOL0     H26718   4.345   1.704   6.341  1.9238  1.7588  0.5277
  198MOL0     H26719   4.516   1.627   6.457 -1.5606  2.1045 -1.6571
  198MOL0     H26720   4.574   1.360   6.842  2.4340 -1.7664 -1.3757
  198MOL0     H26721   4.418   1.334   6.770 -0.1615 -0.0435 -1.7706
  198MOL0     H26722   4.518   1.318   6.544 -0.4211  0.9783 -0.1862
  198MOL0     H26723   4.561   1.197   6.663 -1.5648  0.1572  0.2033
  198MOL0     H26724   4.792   1.341   6.685  0.0499  0.2704 -0.3633
  198MOL0     H26725   4.744   1.438   6.554  1.7115 -0.5145  1.4929
  198MOL0     H26726   4.742   1.137   6.518  0.9363  0.1320 -1.6716
  198MOL0     H26727   4.884   1.242   6.493  0.1499 -0.2048 -0.2966
  198MOL0     H26728   4.632   1.395   6.181  0.7239 -1.7049 -1.1968
  198MOL0     H26729   4.238   1.561   6.792 -0.7814  1.2378  0.6205
  198MOL0     H26730   4.057   1.603   6.637 -0.7707 -1.0176  0.0457
  199MOL0     O26731   6.696  10.495   5.357  0.1088  0.4438 -0.4952
  199MOL0     C26732   6.627  10.581   5.409  0.5609 -0.3056  0.1863
  199MOL0     O26733   6.668  10.680   5.487  1.2002 -0.4245  0.3848
  199MOL0     C26734   6.790  10.697   5.535  0.5322  0.5342 -0.0518
  199MOL0     C26735   6.841  10.831   5.556  0.2369 -0.1802 -0.2810
  199MOL0     C26736   6.962  10.843   5.619  0.0801 -0.0441  0.1083
  199MOL0     C26737   7.040  10.733   5.648  0.0883  0.6410  1.3369
  199MOL0     O26738   7.158  10.773   5.692  0.2422  0.2926 -0.8714
  199MOL0     C26739   7.257  10.683   5.741  0.2006  0.5150 -0.3960
  199MOL0     C26740   7.389  10.756   5.771  0.2060 -0.9016  0.1215
  199MOL0     C26741   7.515  10.688   5.808 -0.3734 -0.1552 -0.1261
  199MOL0     C26742   7.633  10.781   5.818  0.1759 -0.1150  0.0093
  199MOL0     C26743   7.762  10.735   5.744  0.1416  0.0378  0.0363
  199MOL0     C26744   7.880  10.837   5.757  0.1270 -0.3677  0.7221
  199MOL0     C26745   7.973  10.835   5.633 -0.6198 -0.0244 -1.1971
  199MOL0     C26746   7.950  10.923   5.501  0.1994 -0.8742 -0.8867
  199MOL0     N26747   7.816  10.904   5.447  0.0668  0.3377  0.1604
  199MOL0     C26748   7.699  10.956   5.490 -0.3614  0.4165 -0.2275
  199MOL0     C26749   7.618  10.964   5.384  0.1470 -0.2189 -1.0807
  199MOL0     C26750   7.500  11.064   5.375 -0.4764 -0.0614 -0.2598
  199MOL0     C26751   7.376  11.000   5.419  0.6500  0.2290  0.9397
  199MOL0     C26752   7.257  11.100   5.380 -1.8138  0.3194  0.6678
  199MOL0     C26753   7.129  11.035   5.408 -0.3471 -0.0450  0.0137
  199MOL0     O26754   7.042  11.124   5.474 -1.0230 -0.5169  0.3500
  199MOL0     C26755   6.960  11.206   5.403  0.2597  1.0068 -0.4774
  199MOL0     C26756   6.853  11.254   5.489 -1.0342 -0.2259 -0.3718
  199MOL0     C26757   6.746  11.326   5.435  0.6734 -0.2384  0.3224
  199MOL0     C26758   6.641  11.369   5.535 -0.1679 -0.7154 -0.2724
  199MOL0     C26759   6.734  11.348   5.298  0.4461  0.7656 -0.4956
  199MOL0     C26760   6.632  11.428   5.237  0.0373 -0.8769 -0.9139
  199MOL0     O26761   6.600  11.391   5.115  0.2589  0.0502 -0.7001
  199MOL0     C26762   6.478  11.426   5.061  1.1102  0.4855 -0.5244
  199MOL0     C26763   6.477  11.441   4.917 -0.5448  0.1405  0.4106
  199MOL0     C26764   6.355  11.482   4.850 -0.4705 -0.0613  0.7936
  199MOL0     C26765   6.232  11.482   4.911  0.3335  0.1583 -0.9325
  199MOL0     O26766   6.117  11.491   4.834 -0.2038 -0.6477  0.1423
  199MOL0     C26767   5.997  11.425   4.880 -0.7553 -0.6774 -0.4195
  199MOL0     C26768   5.998  11.285   4.820  0.5690  0.9658 -0.2422
  199MOL0     C26769   6.106  11.189   4.873 -0.7547 -0.1263  0.1584
  199MOL0     C26770   6.076  11.043   4.848  0.3864 -0.3539 -0.5328
  199MOL0     C26771   6.203  10.962   4.842  0.3412 -0.7745  0.2971
  199MOL0     C26772   6.278  10.935   4.971  0.1125  0.4792 -0.0908
  199MOL0     C26773   6.377  10.822   4.944  0.9752  0.3383 -0.0047
  199MOL0     C26774   6.445  10.774   5.074 -0.0717 -0.2628  0.1318
  199MOL0    Cl26775   6.545  10.653   5.004 -0.1858  0.0460  0.2285
  199MOL0     C26776   6.243  11.480   5.054  0.5270 -0.9239 -0.1889
  199MOL0     C26777   6.356  11.445   5.132 -0.1799  0.4662  0.1087
  199MOL0     O26778   6.586  11.525   5.300 -0.1154 -0.5633 -0.2275
  199MOL0     C26779   6.829  11.283   5.217  0.9934  0.0795  0.1206
  199MOL0     C26780   6.946  11.224   5.271  0.8880 -0.6593  0.6610
  199MOL0     N26781   7.681  10.899   5.286 -0.2666 -0.1037 -0.1281
  199MOL0     N26782   7.791  10.859   5.318 -0.1171  0.5321 -0.9044
  199MOL0     C26783   7.001  10.599   5.624  0.5984 -0.4502  0.3798
  199MOL0     C26784   6.871  10.585   5.567 -0.2958  0.0139  0.0692
  199MOL0     C26785   6.480  10.569   5.387  0.4278 -0.0593  0.4481
  199MOL0     C26786   6.396  10.658   5.456 -0.1467 -1.3423 -0.8825
  199MOL0     C26787   6.262  10.668   5.412  0.3188 -0.6602 -0.3334
  199MOL0     C26788   6.210  10.597   5.311 -0.3808  0.8413  0.7076
  199MOL0     O26789   6.082  10.612   5.290  0.2461 -0.6263 -0.0499
  199MOL0     C26790   6.026  10.534   5.180 -1.2329 -0.1206 -0.0472
  199MOL0     C26791   5.882  10.555   5.181 -0.0534  0.5153  0.2362
  199MOL0     C26792   5.841  10.699   5.146 -0.6827  0.2093  0.0923
  199MOL0     C26793   5.696  10.750   5.187  0.6809  0.5238 -0.2590
  199MOL0     C26794   5.599  10.653   5.136  0.3826  0.5946  0.0906
  199MOL0     C26795   5.526  10.581   5.068 -0.0675  0.5830  0.1042
  199MOL0     C26796   6.297  10.505   5.248 -0.0333  0.0144  0.7722
  199MOL0     C26797   6.427  10.486   5.286  0.7673  1.1099  0.1292
  199MOL0     H26798   6.781  10.916   5.525  0.3778  0.4123  1.0346
  199MOL0     H26799   6.989  10.944   5.648  0.7035 -1.0914  3.6061
  199MOL0     H26800   7.218  10.635   5.832  2.9716  1.2445  1.3120
  199MOL0     H26801   7.267  10.604   5.667  0.0274  0.1728 -0.0581
  199MOL0     H26802   7.412  10.810   5.678  0.6313 -1.1371  0.0892
  199MOL0     H26803   7.361  10.828   5.849  0.2813  1.0723 -1.5789
  199MOL0     H26804   7.509  10.649   5.910  0.5981  0.3623  0.1373
  199MOL0     H26805   7.519  10.601   5.742  0.8575  0.1614 -0.4953
  199MOL0     H26806   7.606  10.873   5.764  1.3376 -1.2350 -2.6670
  199MOL0     H26807   7.663  10.809   5.919  1.3024 -0.3099 -0.2586
  199MOL0     H26808   7.796  10.638   5.780 -2.4441 -0.1447  2.3345
  199MOL0     H26809   7.737  10.717   5.639  0.5760  1.3036 -0.3104
  199MOL0     H26810   7.831  10.934   5.758  1.3355  0.2586  1.8033
  199MOL0     H26811   7.929  10.818   5.853  1.1464  0.4354  0.3892
  199MOL0     H26812   8.059  10.876   5.687 -1.9514 -0.3325  1.2913
  199MOL0     H26813   8.001  10.732   5.610 -2.9380 -0.4812 -2.2843
  199MOL0     H26814   8.034  10.911   5.432  3.1545  0.9454  2.1053
  199MOL0     H26815   7.956  11.028   5.528  0.2619 -1.2871  0.8243
  199MOL0     H26816   7.693  11.000   5.589  0.3240  1.4133 -0.6069
  199MOL0     H26817   7.514  11.156   5.433 -2.1198  0.3755 -0.4983
  199MOL0     H26818   7.493  11.103   5.273  1.5573  1.1004 -0.0165
  199MOL0     H26819   7.379  10.981   5.527 -2.6575 -0.9277  0.9546
  199MOL0     H26820   7.350  10.913   5.358  3.4145  1.0657 -1.6448
  199MOL0     H26821   7.258  11.130   5.275 -0.9610  1.0789  0.8822
  199MOL0     H26822   7.263  11.190   5.442 -0.1153 -1.5651  3.4564
  199MOL0     H26823   7.142  10.949   5.474 -1.0073 -1.1044 -1.1940
  199MOL0     H26824   7.088  10.994   5.315 -0.8192  1.8254 -0.6494
  199MOL0     H26825   6.867  11.248   5.597 -2.1845  3.0528  0.0625
  199MOL0     H26826   6.644  11.478   5.533 -0.7836 -0.7055 -0.7293
  199MOL0     H26827   6.544  11.327   5.505 -3.0549  4.6076  0.4292
  199MOL0     H26828   6.653  11.333   5.638 -1.2444  1.6872  0.7623
  199MOL0     H26829   6.566  11.427   4.858 -1.6377  0.4772 -1.3947
  199MOL0     H26830   6.366  11.497   4.744  1.9218  1.8192  1.2294
  199MOL0     H26831   5.985  11.421   4.989 -1.0759  3.0696 -0.1929
  199MOL0     H26832   5.917  11.489   4.841 -0.4717 -0.4429 -0.6246
  199MOL0     H26833   5.910  11.229   4.853  1.0875 -1.5836 -2.7717
  199MOL0     H26834   5.983  11.279   4.712 -4.7090  0.4699  0.2809
  199MOL0     H26835   6.130  11.208   4.978  0.5936  1.6050 -0.3951
  199MOL0     H26836   6.205  11.215   4.834  0.1312 -1.8430  1.1694
  199MOL0     H26837   6.010  11.008   4.928  0.0464 -0.9283 -1.0539
  199MOL0     H26838   6.018  11.040   4.755  0.8158  1.9899 -0.9490
  199MOL0     H26839   6.269  11.013   4.772 -1.2851  0.6727 -0.2643
  199MOL0     H26840   6.177  10.869   4.791 -0.3074  0.2855 -1.3993
  199MOL0     H26841   6.319  11.022   5.022 -0.8443  1.0255 -0.2144
  199MOL0     H26842   6.206  10.900   5.046 -0.6871  1.6124 -0.2998
  199MOL0     H26843   6.455  10.843   4.870  3.4382 -2.5500  1.5719
  199MOL0     H26844   6.320  10.733   4.916  0.5154  0.6274  0.0147
  199MOL0     H26845   6.372  10.742   5.148 -1.2171  0.6520 -0.5794
  199MOL0     H26846   6.507  10.854   5.114  0.5834 -0.8406  0.2987
  199MOL0     H26847   6.151  11.489   5.110  2.4783  0.2996  3.0782
  199MOL0     H26848   6.342  11.414   5.235 -1.5658 -0.9083 -0.4378
  199MOL0     H26849   6.829  11.301   5.110  0.1466 -0.0557  0.0857
  199MOL0     H26850   7.023  11.191   5.202 -1.1760  0.6392 -2.5266
  199MOL0     H26851   7.055  10.507   5.640  2.0311 -0.0691 -1.8219
  199MOL0     H26852   6.842  10.484   5.540 -2.0053  0.8279 -1.3674
  199MOL0     H26853   6.426  10.715   5.544 -0.2686 -0.8566 -1.1509
  199MOL0     H26854   6.205  10.749   5.456 -0.6525 -1.3431 -0.2923
  199MOL0     H26855   6.068  10.581   5.090  3.2754 -1.6729  0.9536
  199MOL0     H26856   6.058  10.430   5.178 -1.3345 -0.1791 -3.0679
  199MOL0     H26857   5.846  10.524   5.280 -0.5777  0.2915 -0.0188
  199MOL0     H26858   5.837  10.492   5.104  2.3106  1.5492 -2.1434
  199MOL0     H26859   5.854  10.724   5.041  1.2264 -2.5237 -0.4322
  199MOL0     H26860   5.906  10.767   5.204 -1.0451  1.5240 -0.9878
  199MOL0     H26861   5.672  10.851   5.153  1.5418 -0.0686 -2.8548
  199MOL0     H26862   5.691  10.749   5.296 -0.6786  0.3833 -0.3018
  199MOL0     H26863   5.460  10.534   4.998  1.0281 -1.3122  0.2864
  199MOL0     H26864   6.264  10.452   5.159 -2.3389 -0.1171  1.6586
  199MOL0     H26865   6.491  10.424   5.223  2.0300  3.1754 -0.7103
  200MOL0     O26866   7.118   2.293   6.006  0.0530 -0.4844  0.4289
  200MOL0     C26867   7.129   2.343   6.110  0.0345 -0.7473 -0.5248
  200MOL0     O26868   7.048   2.330   6.215 -0.2180  0.1666 -0.4664
  200MOL0     C26869   6.935   2.254   6.192  0.1329  0.1895  0.2682
  200MOL0     C26870   6.827   2.338   6.200  0.6147 -0.7971  1.4124
  200MOL0     C26871   6.701   2.280   6.184  0.4482 -0.9349  0.3018
  200MOL0     C26872   6.678   2.147   6.150 -0.5913 -0.8424  0.2772
  200MOL0     O26873   6.562   2.088   6.117  0.7474  0.2623  0.9529
  200MOL0     C26874   6.485   2.140   6.006  0.4782  0.2338  0.3664
  200MOL0     C26875   6.342   2.091   6.025 -0.0389  0.1018  0.5758
  200MOL0     C26876   6.267   2.117   5.893 -0.0611 -0.1979 -0.2972
  200MOL0     C26877   6.115   2.093   5.897 -0.4151  0.3390  0.3331
  200MOL0     C26878   6.061   1.966   5.959 -0.3735 -0.4772 -0.3288
  200MOL0     C26879   6.104   1.848   5.871 -0.1428 -0.1206 -0.8957
  200MOL0     C26880   6.007   1.738   5.897  0.2664  0.1087  0.5008
  200MOL0     C26881   6.043   1.627   5.797 -1.3666 -0.0501  0.1766
  200MOL0     N26882   5.940   1.524   5.782 -0.2212  0.0841 -0.0036
  200MOL0     C26883   5.968   1.392   5.749  0.1481 -0.2064 -0.7245
  200MOL0     C26884   5.846   1.337   5.750 -0.6863  0.0657 -0.2067
  200MOL0     C26885   5.828   1.184   5.725 -0.9474  0.1051  0.1940
  200MOL0     C26886   5.781   1.105   5.847  0.0730  0.1136 -0.4001
  200MOL0     C26887   5.784   0.951   5.837 -0.7325 -0.4125  0.3998
  200MOL0     C26888   5.670   0.893   5.755 -0.5615 -0.7111 -0.6775
  200MOL0     O26889   5.553   0.918   5.822 -0.4253 -0.6915 -0.8751
  200MOL0     C26890   5.436   0.851   5.805  0.2248  0.6985 -0.3803
  200MOL0     C26891   5.313   0.911   5.837  0.6599 -0.9541 -0.5450
  200MOL0     C26892   5.194   0.846   5.823  0.2756 -0.3808  0.5744
  200MOL0     C26893   5.069   0.935   5.840 -0.5806 -0.2465  0.0620
  200MOL0     C26894   5.183   0.714   5.777  0.1923 -0.1375 -0.6037
  200MOL0     C26895   5.052   0.636   5.767  0.2966 -0.0680 -0.2893
  200MOL0     O26896   4.935   0.709   5.773  0.1636  0.0395  0.0093
  200MOL0     C26897   4.825   0.634   5.736 -0.1062  0.0259  0.0778
  200MOL0     C26898   4.807   0.586   5.610  0.3363 -0.4213  0.0384
  200MOL0     C26899   4.700   0.506   5.574 -0.2853  0.1256 -0.1911
  200MOL0     C26900   4.602   0.480   5.665 -0.5853 -0.6929 -0.2705
  200MOL0     O26901   4.495   0.397   5.647 -0.2820  0.2554  0.7196
  200MOL0     C26902   4.462   0.370   5.505 -0.0487  0.5609  0.4403
  200MOL0     C26903   4.351   0.271   5.493 -0.6294  0.2466  0.0008
  200MOL0     C26904   4.231   0.320   5.570 -1.0276  0.3581 -0.5751
  200MOL0     C26905   4.112   0.254   5.516  0.8206 -1.2375  0.3511
  200MOL0     C26906   3.990   0.283   5.600  0.4149  0.6673 -0.0738
  200MOL0     C26907   3.948   0.430   5.574  1.2933 -0.1416  0.2174
  200MOL0     C26908   3.805   0.470   5.629 -0.2757  0.1210  0.3620
  200MOL0     C26909   3.748   0.602   5.555 -0.5718  0.5612 -1.0150
  200MOL0    Cl26910   3.596   0.637   5.637 -0.1820  0.2364  0.0123
  200MOL0     C26911   4.608   0.535   5.791 -0.0733 -0.2191 -0.0282
  200MOL0     C26912   4.724   0.611   5.828  0.4598  0.5656 -0.6843
  200MOL0     O26913   5.069   0.516   5.751  0.1923 -0.3002  0.3808
  200MOL0     C26914   5.306   0.649   5.739 -1.4143 -0.7314  0.0182
  200MOL0     C26915   5.430   0.719   5.753  1.2710  0.4878 -1.0185
  200MOL0     N26916   5.749   1.433   5.752  0.6472 -0.2345  0.1180
  200MOL0     N26917   5.810   1.545   5.762  0.3158  0.2886  0.2701
  200MOL0     C26918   6.793   2.061   6.148 -1.3514  0.1030  0.0260
  200MOL0     C26919   6.924   2.110   6.177  1.5202 -0.6576  0.4452
  200MOL0     C26920   7.259   2.420   6.134  0.0189 -0.5427  0.1805
  200MOL0     C26921   7.307   2.445   6.262 -0.0631 -0.1144  0.0731
  200MOL0     C26922   7.426   2.508   6.288 -0.4229 -0.0806 -0.2002
  200MOL0     C26923   7.500   2.545   6.179 -0.0709  0.2716 -0.3245
  200MOL0     O26924   7.628   2.585   6.190 -0.8516 -0.7776 -0.3365
  200MOL0     C26925   7.706   2.532   6.299 -0.2662  0.0373  0.4771
  200MOL0     C26926   7.740   2.388   6.289 -0.0906  1.1286 -0.8433
  200MOL0     C26927   7.812   2.356   6.154  0.2321  0.2278  0.0362
  200MOL0     C26928   7.794   2.212   6.107 -0.0617 -0.2586  0.1946
  200MOL0     C26929   7.901   2.168   6.012 -0.3128 -0.6689  0.5011
  200MOL0     C26930   7.999   2.137   5.943 -0.1691 -0.3086  0.4258
  200MOL0     C26931   7.459   2.522   6.052 -0.7751  0.0554  0.8767
  200MOL0     C26932   7.337   2.459   6.027  0.2342 -0.3510  0.7036
  200MOL0     H26933   6.846   2.444   6.215  3.0336 -0.9309 -0.1882
  200MOL0     H26934   6.618   2.347   6.203 -1.4143 -3.3717  1.2695
  200MOL0     H26935   6.490   2.248   5.994  0.1161  0.1144 -0.9656
  200MOL0     H26936   6.523   2.095   5.914  1.8240  0.7128  0.6641
  200MOL0     H26937   6.360   1.984   6.043  0.5318  0.1909  0.5467
  200MOL0     H26938   6.293   2.128   6.116 -0.4572 -0.5714  0.6309
  200MOL0     H26939   6.283   2.222   5.865 -2.8654  0.1858 -0.7687
  200MOL0     H26940   6.310   2.049   5.820 -0.4786 -1.7565  0.8521
  200MOL0     H26941   6.074   2.163   5.970 -0.7504  0.2540  0.2281
  200MOL0     H26942   6.062   2.120   5.806  0.6451 -1.2618 -0.8297
  200MOL0     H26943   6.104   1.968   6.059 -0.3456  1.4651 -0.3368
  200MOL0     H26944   5.953   1.981   5.962 -0.2080  1.5824 -1.7643
  200MOL0     H26945   6.114   1.878   5.766  0.5208 -0.4717 -0.9434
  200MOL0     H26946   6.207   1.814   5.890 -0.6304 -0.5658  1.1448
  200MOL0     H26947   6.030   1.699   5.996 -1.4630 -0.7739  0.5957
  200MOL0     H26948   5.902   1.771   5.896 -0.0243 -0.7788 -0.3409
  200MOL0     H26949   6.136   1.580   5.830 -1.5233  0.0928  0.8430
  200MOL0     H26950   6.058   1.668   5.696  3.0586 -1.5767  0.0234
  200MOL0     H26951   6.065   1.356   5.716  0.2729  0.8257 -1.5492
  200MOL0     H26952   5.765   1.164   5.638  0.9894 -1.0500 -1.0197
  200MOL0     H26953   5.928   1.147   5.700 -0.8849  0.7023 -0.4682
  200MOL0     H26954   5.684   1.140   5.884 -0.2298 -1.4385  0.3583
  200MOL0     H26955   5.856   1.121   5.925  1.6150  2.2502 -2.1767
  200MOL0     H26956   5.776   0.906   5.936  2.1781 -1.8137  0.0925
  200MOL0     H26957   5.880   0.925   5.791  0.0707  2.8852 -0.0909
  200MOL0     H26958   5.690   0.786   5.744  1.1399 -0.4784 -0.1799
  200MOL0     H26959   5.664   0.936   5.654  1.1115 -0.6472 -0.7728
  200MOL0     H26960   5.335   1.012   5.872 -0.3170 -0.6869 -0.6742
  200MOL0     H26961   5.105   1.030   5.882 -1.4565  0.5787 -0.9874
  200MOL0     H26962   5.013   0.961   5.750  0.6860 -0.1861 -0.7280
  200MOL0     H26963   5.001   0.880   5.906  1.0748 -1.1465  1.0903
  200MOL0     H26964   4.887   0.597   5.536 -0.4431 -4.7273 -1.7635
  200MOL0     H26965   4.691   0.458   5.477 -2.6777  0.0024  0.0254
  200MOL0     H26966   4.426   0.467   5.471 -3.6732  0.7887  4.0976
  200MOL0     H26967   4.549   0.327   5.455 -0.6865  1.2978 -1.4080
  200MOL0     H26968   4.340   0.255   5.385 -1.5068 -2.7337  0.4365
  200MOL0     H26969   4.381   0.175   5.537  0.8294  0.7796  0.2307
  200MOL0     H26970   4.221   0.427   5.549 -2.3635  0.6404  1.2072
  200MOL0     H26971   4.245   0.302   5.677 -3.7143 -1.3363 -0.4341
  200MOL0     H26972   4.092   0.295   5.416 -1.6063 -0.3952  1.1077
  200MOL0     H26973   4.134   0.147   5.508  1.1065 -1.1581  0.0543
  200MOL0     H26974   4.003   0.255   5.705 -0.0638 -2.1871 -0.6961
  200MOL0     H26975   3.908   0.223   5.558 -1.9766  3.2445  0.5682
  200MOL0     H26976   4.023   0.490   5.625  1.4754 -1.8979  2.1382
  200MOL0     H26977   3.946   0.459   5.469 -0.0276 -3.3988 -0.7945
  200MOL0     H26978   3.822   0.493   5.734  1.3943  0.6551  0.0069
  200MOL0     H26979   3.724   0.397   5.618 -2.9055  2.6655  1.8243
  200MOL0     H26980   3.735   0.592   5.447  0.1505  0.4917 -1.0981
  200MOL0     H26981   3.818   0.685   5.569  2.3150 -1.5401 -1.9637
  200MOL0     H26982   4.532   0.516   5.866  0.1634 -2.0266 -0.1920
  200MOL0     H26983   4.739   0.642   5.931  0.4272 -0.6985 -0.2861
  200MOL0     H26984   5.318   0.546   5.708  5.7253 -0.9736  1.7918
  200MOL0     H26985   5.523   0.668   5.730  1.5914 -0.7874  2.4117
  200MOL0     H26986   6.770   1.956   6.130 -1.5031 -0.5398  3.3697
  200MOL0     H26987   7.014   2.053   6.160  1.8660  0.3843 -1.5357
  200MOL0     H26988   7.241   2.423   6.345  0.0970 -0.0678  0.2150
  200MOL0     H26989   7.453   2.540   6.388  0.2251  1.6317 -0.8824
  200MOL0     H26990   7.797   2.592   6.298 -1.5340  2.2939 -3.3146
  200MOL0     H26991   7.663   2.553   6.397  0.8061 -0.3823  1.0509
  200MOL0     H26992   7.653   2.322   6.295  0.5495  0.3134 -0.0382
  200MOL0     H26993   7.801   2.346   6.370  1.3574  1.8375 -1.5215
  200MOL0     H26994   7.920   2.368   6.167  0.5446  0.3301 -2.2488
  200MOL0     H26995   7.777   2.421   6.073 -1.2932 -1.2381 -0.5383
  200MOL0     H26996   7.698   2.203   6.055  0.1701  2.0076 -0.7533
  200MOL0     H26997   7.792   2.145   6.193  0.1897  0.6215  0.9029
  200MOL0     H26998   8.086   2.107   5.888  0.5157 -2.6951  2.5981
  200MOL0     H26999   7.527   2.539   5.969 -0.7810 -2.0627  0.3879
  200MOL0     H27000   7.307   2.440   5.924 -2.3854 -2.6835  1.7687
  201MOL0     O27001   7.392   1.321   0.319  0.9460 -0.0080  0.1756
  201MOL0     C27002   7.458   1.374   0.233  0.0098 -0.1312 -0.0440
  201MOL0     O27003   7.497   1.310   0.114  0.7847  0.1283  0.1626
  201MOL0     C27004   7.478   1.177   0.090  0.7047 -0.0394  0.7574
  201MOL0     C27005   7.487   1.069   0.184 -0.0774  0.4211  0.3261
  201MOL0     C27006   7.481   0.933   0.147 -0.1964  0.7415 -1.1194
  201MOL0     C27007   7.459   0.906   0.012 -0.3307 -0.7672 -0.1199
  201MOL0     O27008   7.440   0.782  -0.038 -0.1890 -0.4660 -0.2260
  201MOL0     C27009   7.375   0.683   0.040 -0.5438 -1.0028 -0.5628
  201MOL0     C27010   7.226   0.707   0.061 -0.3236  0.4407  0.3964
  201MOL0     C27011   7.143   0.588   0.104 -0.2818 -0.5115 -0.5096
  201MOL0     C27012   7.021   0.644   0.185 -0.5231  0.7239  0.5681
  201MOL0     C27013   6.927   0.526   0.223 -0.5003  0.0029  0.4451
  201MOL0     C27014   6.795   0.562   0.286 -0.5027  0.0045 -0.1774
  201MOL0     C27015   6.724   0.431   0.335  0.2979  0.4534 -0.4416
  201MOL0     C27016   6.585   0.468   0.403 -0.3188  0.1033 -0.6268
  201MOL0     N27017   6.495   0.540   0.308 -0.1695 -0.0225 -0.2085
  201MOL0     C27018   6.451   0.503   0.181 -0.7987 -0.1947  0.9998
  201MOL0     C27019   6.351   0.597   0.156  1.0665 -0.4591  0.0834
  201MOL0     C27020   6.268   0.596   0.027  0.7426  0.4097  0.1342
  201MOL0     C27021   6.121   0.649   0.050 -0.9893  0.2083 -0.1245
  201MOL0     C27022   6.049   0.557   0.143 -0.2264 -0.4024  0.5127
  201MOL0     C27023   5.899   0.600   0.160  0.4214 -0.6625  0.2584
  201MOL0     O27024   5.846   0.617   0.030 -0.1504  0.6116  0.6948
  201MOL0     C27025   5.711   0.625   0.005 -0.3332 -1.7876 -0.1350
  201MOL0     C27026   5.618   0.630   0.106 -0.4545  0.2219 -0.4053
  201MOL0     C27027   5.481   0.646   0.083 -0.1091 -0.4572  0.2402
  201MOL0     C27028   5.399   0.660   0.215  0.3837 -0.0888 -0.4103
  201MOL0     C27029   5.434   0.658  -0.051  1.2183  0.1258  0.8018
  201MOL0     C27030   5.288   0.656  -0.085  0.2975 -0.2369  0.6233
  201MOL0     O27031   5.197   0.603   0.004 -0.3669  0.4883  0.5753
  201MOL0     C27032   5.059   0.617  -0.014  0.6401 -0.2893  0.2749
  201MOL0     C27033   4.980   0.683   0.086 -0.1590 -0.0358 -0.5631
  201MOL0     C27034   4.836   0.700   0.083  0.0128 -0.2977  0.3875
  201MOL0     C27035   4.772   0.657  -0.032  0.3789 -0.5670  0.7828
  201MOL0     O27036   4.644   0.686  -0.075 -0.9314 -0.1615 -0.2680
  201MOL0     C27037   4.568   0.781   0.003 -0.3901  0.5988 -0.1973
  201MOL0     C27038   4.426   0.775  -0.049 -0.6290  0.3713  0.7399
  201MOL0     C27039   4.412   0.816  -0.204 -0.9320  0.3806  0.7134
  201MOL0     C27040   4.395   0.971  -0.223  0.4355  0.4065  0.4628
  201MOL0     C27041   4.258   1.025  -0.182 -0.8958 -0.4617  0.1182
  201MOL0     C27042   4.218   1.165  -0.224  0.0262 -0.7751  0.6747
  201MOL0     C27043   4.199   1.186  -0.376  0.2298  0.0976  0.7940
  201MOL0     C27044   4.299   1.284  -0.437  0.0771  0.8466 -0.1195
  201MOL0    Cl27045   4.251   1.286  -0.612 -0.2932 -0.0319  0.1342
  201MOL0     C27046   4.848   0.595  -0.134 -0.5911 -0.4323  0.5291
  201MOL0     C27047   4.989   0.576  -0.126 -0.4735 -0.4430 -0.3745
  201MOL0     O27048   5.262   0.698  -0.199  0.5632  0.0850 -0.6755
  201MOL0     C27049   5.532   0.661  -0.154  0.6747 -0.3434 -0.1384
  201MOL0     C27050   5.667   0.637  -0.125  0.8154 -0.6628 -0.0415
  201MOL0     N27051   6.349   0.697   0.249 -0.3575  0.3257 -0.7682
  201MOL0     N27052   6.431   0.657   0.341 -0.2157 -0.1451  0.8597
  201MOL0     C27053   7.444   1.017  -0.082 -0.2933 -0.3813 -0.7849
  201MOL0     C27054   7.465   1.148  -0.044  0.0995 -0.4302  0.1971
  201MOL0     C27055   7.494   1.512   0.260  0.2471 -1.2720  0.4441
  201MOL0     C27056   7.437   1.591   0.365 -0.2395 -0.8163 -0.1198
  201MOL0     C27057   7.469   1.730   0.376  0.0940 -0.2138 -0.6288
  201MOL0     C27058   7.574   1.791   0.314 -0.2549  0.5948  0.8594
  201MOL0     O27059   7.619   1.914   0.362 -0.0708 -0.0282 -0.7662
  201MOL0     C27060   7.717   1.976   0.280 -0.0097 -0.1673 -0.5140
  201MOL0     C27061   7.773   2.098   0.356 -0.2578  0.1650 -0.0224
  201MOL0     C27062   7.684   2.219   0.376 -0.2128 -0.3430 -0.7723
  201MOL0     C27063   7.651   2.280   0.247 -0.1408  0.3233  1.0831
  201MOL0     C27064   7.575   2.399   0.263  0.3641 -0.3857 -0.5287
  201MOL0     C27065   7.505   2.498   0.274  0.0186 -0.5375  0.0214
  201MOL0     C27066   7.637   1.716   0.212  0.0440  0.3470  0.9062
  201MOL0     C27067   7.599   1.581   0.190 -0.9538  1.1275 -0.9078
  201MOL0     H27068   7.489   1.097   0.289  0.9031 -0.9193  0.6865
  201MOL0     H27069   7.484   0.863   0.230 -2.7034  1.1887 -0.5682
  201MOL0     H27070   7.388   0.584  -0.004  0.3265  0.0327 -2.8074
  201MOL0     H27071   7.422   0.678   0.139 -0.5697  0.6373 -0.4343
  201MOL0     H27072   7.222   0.783   0.140 -0.8995  2.2686 -1.3202
  201MOL0     H27073   7.198   0.756  -0.033  3.4575  1.3757 -0.4073
  201MOL0     H27074   7.106   0.535   0.016 -1.9678 -0.2744  0.0185
  201MOL0     H27075   7.197   0.519   0.169  0.3742 -0.3479 -0.8653
  201MOL0     H27076   7.056   0.708   0.267  0.9054 -0.9406  1.3140
  201MOL0     H27077   6.958   0.714   0.130  0.1523  0.9107  0.0144
  201MOL0     H27078   6.910   0.462   0.136  2.0670 -1.8305  1.1563
  201MOL0     H27079   6.983   0.462   0.292  2.3024  1.1885 -0.5919
  201MOL0     H27080   6.817   0.622   0.375 -0.9832  1.7020 -1.1547
  201MOL0     H27081   6.736   0.619   0.214 -0.1446  1.0965  0.3803
  201MOL0     H27082   6.699   0.348   0.268  1.8875 -0.6661  0.3045
  201MOL0     H27083   6.782   0.378   0.411  0.2186  1.3641  0.2713
  201MOL0     H27084   6.609   0.534   0.487  2.1757  0.8810 -1.8510
  201MOL0     H27085   6.529   0.378   0.430  0.2767  0.4737  2.1653
  201MOL0     H27086   6.484   0.413   0.130 -0.8453  0.0518  0.5317
  201MOL0     H27087   6.314   0.651  -0.055 -4.3068  0.8444 -2.8428
  201MOL0     H27088   6.267   0.491  -0.005  4.2888  0.0725  0.7042
  201MOL0     H27089   6.077   0.659  -0.050 -2.2583  3.4334  0.6388
  201MOL0     H27090   6.123   0.742   0.108  2.6023  1.4879 -2.0047
  201MOL0     H27091   6.101   0.546   0.239  0.9148 -1.3936 -0.1856
  201MOL0     H27092   6.049   0.458   0.096  2.3825 -0.0598 -0.3257
  201MOL0     H27093   5.885   0.695   0.213  0.4203 -0.0742 -0.7657
  201MOL0     H27094   5.845   0.518   0.207 -1.8345 -0.7254 -2.2132
  201MOL0     H27095   5.660   0.631   0.207  1.9381  1.3978 -1.3145
  201MOL0     H27096   5.469   0.682   0.297 -1.0187 -0.4614  0.9278
  201MOL0     H27097   5.318   0.733   0.207 -0.0024 -0.6349 -1.7416
  201MOL0     H27098   5.350   0.564   0.236 -2.2611  1.4770  1.0700
  201MOL0     H27099   5.040   0.728   0.165  2.0165 -1.4911 -1.2796
  201MOL0     H27100   4.778   0.756   0.156 -1.4430  0.6353 -1.4343
  201MOL0     H27101   4.555   0.748   0.106  2.2160 -1.1437 -0.3339
  201MOL0     H27102   4.612   0.880  -0.006  0.1660  0.2981 -0.9122
  201MOL0     H27103   4.375   0.678  -0.044 -1.4066  0.5174 -2.3416
  201MOL0     H27104   4.358   0.840   0.007 -1.4920  1.0175 -0.9817
  201MOL0     H27105   4.319   0.768  -0.236  0.3537 -2.1224  0.5075
  201MOL0     H27106   4.491   0.771  -0.265  0.5011  2.7773  0.6354
  201MOL0     H27107   4.473   1.032  -0.176  0.2426  1.3474 -0.3933
  201MOL0     H27108   4.399   0.984  -0.332 -0.0767  0.3625  0.4389
  201MOL0     H27109   4.252   1.024  -0.073  0.9066  3.7275  0.4391
  201MOL0     H27110   4.185   0.965  -0.238 -2.1262  1.5751 -0.5844
  201MOL0     H27111   4.123   1.199  -0.184  0.9352  0.6962  1.6750
  201MOL0     H27112   4.292   1.232  -0.180 -0.4249  0.3906 -0.2874
  201MOL0     H27113   4.093   1.210  -0.389  0.1440 -1.2249 -1.5320
  201MOL0     H27114   4.221   1.091  -0.424  0.9159  0.2609  0.7761
  201MOL0     H27115   4.399   1.247  -0.412 -0.6483 -0.5831  0.8132
  201MOL0     H27116   4.300   1.387  -0.400  3.3158  1.6923 -2.1456
  201MOL0     H27117   4.797   0.557  -0.221 -0.5579 -0.0787  0.3517
  201MOL0     H27118   5.050   0.527  -0.202 -2.1015 -5.1896  0.9862
  201MOL0     H27119   5.504   0.677  -0.257  1.4109  0.9526 -0.1492
  201MOL0     H27120   5.733   0.654  -0.210  3.1960 -0.1877  1.8048
  201MOL0     H27121   7.420   0.984  -0.182  0.2793 -1.3449 -0.6197
  201MOL0     H27122   7.455   1.225  -0.119 -0.5665  1.4771  2.1361
  201MOL0     H27123   7.347   1.549   0.409  0.3833  0.6528  2.7933
  201MOL0     H27124   7.408   1.798   0.434 -0.8099  0.3882 -2.2089
  201MOL0     H27125   7.806   1.914   0.273  0.1136  0.1197 -1.6634
  201MOL0     H27126   7.686   1.988   0.175  1.2318 -2.2669 -1.1697
  201MOL0     H27127   7.863   2.126   0.301 -1.1136 -1.2914 -2.2927
  201MOL0     H27128   7.801   2.069   0.458  0.7795  0.7264 -0.1296
  201MOL0     H27129   7.729   2.287   0.449  2.3255  0.2894 -2.7879
  201MOL0     H27130   7.592   2.177   0.418 -0.2158 -2.8434 -2.9806
  201MOL0     H27131   7.598   2.214   0.178 -1.4902  2.8514 -0.4557
  201MOL0     H27132   7.741   2.315   0.197  1.2879  0.4630  3.5613
  201MOL0     H27133   7.447   2.588   0.281  0.2022 -0.4698  0.6865
  201MOL0     H27134   7.716   1.755   0.149  1.3117  0.0882  2.2821
  201MOL0     H27135   7.646   1.531   0.105  1.0533 -1.1855  1.3937
  202MOL0     O27136   0.964   8.073   4.151  0.0804 -0.1004 -0.6761
  202MOL0     C27137   0.998   7.961   4.188  0.2140 -0.7859 -0.0639
  202MOL0     O27138   0.945   7.894   4.291  0.6172  0.3354 -0.1492
  202MOL0     C27139   0.814   7.923   4.333 -0.2068 -0.1480  0.6205
  202MOL0     C27140   0.714   7.895   4.239  0.3062  0.0886 -0.4067
  202MOL0     C27141   0.580   7.920   4.278 -0.4296  0.1925  0.6975
  202MOL0     C27142   0.555   7.989   4.398  0.4991  0.1750 -0.2521
  202MOL0     O27143   0.424   8.013   4.423  0.2102  0.2166  0.6263
  202MOL0     C27144   0.380   7.976   4.550  0.0658  0.3196 -0.1423
  202MOL0     C27145   0.235   7.921   4.535 -0.1304 -0.0494  0.8900
  202MOL0     C27146   0.169   7.906   4.667  0.6455  0.1754  0.4985
  202MOL0     C27147   0.025   7.832   4.638 -0.1849 -0.2548 -0.0565
  202MOL0     C27148   0.039   7.687   4.587 -0.1357 -0.0614  0.9595
  202MOL0     C27149  -0.104   7.632   4.566  0.1442 -0.2441  0.4703
  202MOL0     C27150  -0.112   7.487   4.522  0.2837  0.4486 -0.0532
  202MOL0     C27151  -0.073   7.471   4.377  0.2420 -0.0322 -0.0272
  202MOL0     N27152  -0.085   7.328   4.335 -0.5222  0.2208  0.0630
  202MOL0     C27153  -0.192   7.241   4.318  0.4775  0.0735  0.3990
  202MOL0     C27154  -0.145   7.116   4.317 -0.7517 -0.1667 -0.7548
  202MOL0     C27155  -0.222   6.987   4.321  0.6590  0.1131 -0.2584
  202MOL0     C27156  -0.156   6.897   4.427  0.1446 -0.2349 -1.0940
  202MOL0     C27157  -0.244   6.773   4.465  0.4028 -0.2149 -0.2112
  202MOL0     C27158  -0.401   6.796   4.504  0.3852  0.2680 -0.7904
  202MOL0     O27159  -0.469   6.806   4.384  0.0137  0.4318 -0.3892
  202MOL0     C27160  -0.605   6.825   4.388 -0.4451  0.4987 -0.3260
  202MOL0     C27161  -0.692   6.802   4.492  0.6207  0.5611  0.6082
  202MOL0     C27162  -0.833   6.823   4.488 -0.6734  0.3153  0.7997
  202MOL0     C27163  -0.910   6.807   4.623 -0.9371 -1.2128  0.2612
  202MOL0     C27164  -0.890   6.873   4.363 -0.1360 -0.0808  0.1078
  202MOL0     C27165  -1.030   6.914   4.356 -0.3685  0.3487  0.4366
  202MOL0     O27166  -1.129   6.848   4.418  0.7221 -0.1768 -0.2499
  202MOL0     C27167  -1.267   6.860   4.398 -0.4444  0.1498  0.1683
  202MOL0     C27168  -1.353   6.881   4.513 -0.4574 -0.4320  0.1030
  202MOL0     C27169  -1.492   6.897   4.498  0.0411  0.1832  0.6460
  202MOL0     C27170  -1.554   6.881   4.370 -0.2719  0.3313  0.5255
  202MOL0     O27171  -1.684   6.894   4.347 -0.1884 -0.0710 -0.0005
  202MOL0     C27172  -1.755   7.006   4.406 -0.0222 -0.8862  0.6727
  202MOL0     C27173  -1.692   7.141   4.353  0.0039  0.0304 -0.2813
  202MOL0     C27174  -1.677   7.149   4.200  0.4781 -0.2960 -0.3424
  202MOL0     C27175  -1.802   7.112   4.124  0.1975  0.1514  0.4288
  202MOL0     C27176  -1.796   7.172   3.978 -0.1264 -0.0040 -0.1085
  202MOL0     C27177  -1.902   7.111   3.897 -0.1665  0.8108 -0.1399
  202MOL0     C27178  -1.888   7.174   3.754  0.1993  0.4116  0.0250
  202MOL0     C27179  -1.997   7.123   3.660  0.0299 -0.7046  0.2323
  202MOL0    Cl27180  -2.157   7.169   3.717  0.6509 -0.1597 -0.1418
  202MOL0     C27181  -1.470   6.850   4.264  0.2376  0.2239 -0.1152
  202MOL0     C27182  -1.329   6.847   4.277  0.4431  0.4452  0.4473
  202MOL0     O27183  -1.050   6.994   4.268 -0.0293  0.0458  0.5955
  202MOL0     C27184  -0.796   6.905   4.259  0.4546  0.2353  0.6319
  202MOL0     C27185  -0.657   6.880   4.275  0.7294 -0.0629  0.9466
  202MOL0     N27186  -0.011   7.129   4.333 -0.1571  0.1836 -0.6778
  202MOL0     N27187   0.023   7.249   4.334 -0.8972  0.5435 -0.2796
  202MOL0     C27188   0.654   8.010   4.491  0.1071  0.4004 -0.3234
  202MOL0     C27189   0.787   7.970   4.460  0.1066  0.7737 -1.3834
  202MOL0     C27190   1.093   7.887   4.110  0.3383 -0.2280  0.0345
  202MOL0     C27191   1.214   7.950   4.056  0.5045  0.0772  0.5531
  202MOL0     C27192   1.307   7.875   3.995 -0.9810 -0.1708  0.0003
  202MOL0     C27193   1.292   7.736   3.979  0.2453 -1.4632 -0.2066
  202MOL0     O27194   1.398   7.668   3.931 -0.2272  0.5991  0.2753
  202MOL0     C27195   1.398   7.526   3.893 -0.3090  0.1187  0.6527
  202MOL0     C27196   1.359   7.509   3.751  0.0240  0.5787  0.3928
  202MOL0     C27197   1.211   7.512   3.722 -0.4530 -0.1931  0.4575
  202MOL0     C27198   1.162   7.433   3.600 -0.7180 -1.1402 -0.1075
  202MOL0     C27199   1.259   7.454   3.493  0.4959 -0.4286 -0.3017
  202MOL0     C27200   1.327   7.474   3.401  0.6387 -0.3841  0.1634
  202MOL0     C27201   1.174   7.673   4.029  0.8390  0.2452  1.1428
  202MOL0     C27202   1.076   7.746   4.092 -0.1866  0.4824  0.2730
  202MOL0     H27203   0.738   7.850   4.143 -1.8925 -0.2474 -0.8675
  202MOL0     H27204   0.501   7.896   4.208  0.0539  2.6553 -0.8538
  202MOL0     H27205   0.440   7.898   4.597  0.0942  0.1316 -0.4846
  202MOL0     H27206   0.377   8.076   4.594 -2.2684  0.9892 -1.6446
  202MOL0     H27207   0.186   7.995   4.470  2.9239  3.2879  2.0957
  202MOL0     H27208   0.244   7.830   4.474 -0.6243  1.5733 -1.8076
  202MOL0     H27209   0.236   7.841   4.723  1.4567  0.4893 -0.0939
  202MOL0     H27210   0.145   8.006   4.705 -1.6734  0.8894 -2.3768
  202MOL0     H27211  -0.022   7.831   4.737  0.7714 -0.3449  0.4063
  202MOL0     H27212  -0.024   7.891   4.560  2.4408  1.0589 -0.8140
  202MOL0     H27213   0.103   7.694   4.499  3.2963 -1.1509  3.1329
  202MOL0     H27214   0.088   7.621   4.660  1.4171 -0.3717 -0.3259
  202MOL0     H27215  -0.159   7.642   4.660 -0.6496  0.2830 -0.0420
  202MOL0     H27216  -0.165   7.690   4.496  0.6697 -2.6152 -2.1148
  202MOL0     H27217  -0.044   7.432   4.588  0.4246  1.1923  0.4384
  202MOL0     H27218  -0.216   7.455   4.534  0.7174 -1.5443 -1.1838
  202MOL0     H27219   0.027   7.512   4.362  0.0846  0.8050  1.0827
  202MOL0     H27220  -0.143   7.527   4.314 -0.1186  1.6726  1.7705
  202MOL0     H27221  -0.290   7.285   4.301  0.6769  0.8290  1.1281
  202MOL0     H27222  -0.329   6.998   4.339  0.2902 -3.7122  0.8531
  202MOL0     H27223  -0.205   6.937   4.225 -1.3629  2.0292 -1.7153
  202MOL0     H27224  -0.145   6.957   4.517 -0.2152  0.7238 -1.6747
  202MOL0     H27225  -0.059   6.863   4.390  0.7753 -0.3840  0.6129
  202MOL0     H27226  -0.198   6.730   4.554 -0.2535  2.0276  1.2729
  202MOL0     H27227  -0.248   6.702   4.382  1.9754 -0.1655 -0.3580
  202MOL0     H27228  -0.412   6.877   4.577  1.0368 -0.5853  0.2746
  202MOL0     H27229  -0.433   6.705   4.555  0.6349  1.6930  2.0902
  202MOL0     H27230  -0.651   6.771   4.587 -1.7035 -3.1347  0.5995
  202MOL0     H27231  -0.834   6.787   4.699  3.5506  2.5513 -2.7386
  202MOL0     H27232  -0.953   6.903   4.652 -1.1037 -1.3127  0.3481
  202MOL0     H27233  -0.987   6.729   4.628  0.1180 -2.2322  1.4168
  202MOL0     H27234  -1.306   6.895   4.609  1.1933  2.7158 -1.0349
  202MOL0     H27235  -1.549   6.916   4.588  0.1839  4.6578  0.0302
  202MOL0     H27236  -1.862   7.000   4.386  0.2582 -0.9102 -0.9673
  202MOL0     H27237  -1.759   7.001   4.515 -5.2830  0.4224  0.7794
  202MOL0     H27238  -1.755   7.224   4.387 -2.0228 -1.4593 -0.2624
  202MOL0     H27239  -1.593   7.142   4.400 -0.3472 -0.0295  0.4606
  202MOL0     H27240  -1.602   7.078   4.164 -0.7930 -2.3200  0.7986
  202MOL0     H27241  -1.663   7.254   4.172 -3.3188 -0.2238 -2.6448
  202MOL0     H27242  -1.820   7.004   4.114  5.2189 -0.7847 -1.6753
  202MOL0     H27243  -1.881   7.171   4.172  2.2693  3.1140  0.4293
  202MOL0     H27244  -1.703   7.139   3.932  1.7517  2.2759  1.7701
  202MOL0     H27245  -1.809   7.281   3.978 -0.1613 -0.0083 -0.0953
  202MOL0     H27246  -1.893   7.003   3.887  1.1209  1.0262 -1.9416
  202MOL0     H27247  -1.996   7.135   3.947 -0.0512  0.5551  0.1995
  202MOL0     H27248  -1.793   7.161   3.701  0.3601  0.9976  0.1606
  202MOL0     H27249  -1.906   7.281   3.763  0.2430  0.3097  1.4114
  202MOL0     H27250  -1.999   7.017   3.630 -0.1814 -0.2748 -1.3843
  202MOL0     H27251  -1.971   7.174   3.567 -2.7138  0.0506 -0.2024
  202MOL0     H27252  -1.510   6.838   4.164 -0.7696  2.4836 -0.0513
  202MOL0     H27253  -1.263   6.835   4.191 -0.4380  1.4600 -0.4050
  202MOL0     H27254  -0.825   6.944   4.162  4.7448  1.8090 -0.2291
  202MOL0     H27255  -0.588   6.900   4.194  0.9565 -2.2853  0.5350
  202MOL0     H27256   0.631   8.054   4.588 -0.4665  2.3549 -1.3004
  202MOL0     H27257   0.857   7.976   4.543  0.4828 -0.8766 -1.5552
  202MOL0     H27258   1.223   8.057   4.072 -1.6981  0.3838  0.0518
  202MOL0     H27259   1.393   7.927   3.952 -0.5682 -1.1910 -0.4558
  202MOL0     H27260   1.500   7.487   3.901 -0.2427 -0.3882 -1.8892
  202MOL0     H27261   1.334   7.465   3.956  1.0645  0.6243  2.6322
  202MOL0     H27262   1.407   7.417   3.715 -1.5967 -0.7202  1.4006
  202MOL0     H27263   1.407   7.589   3.695 -0.1291 -1.6077 -3.1596
  202MOL0     H27264   1.174   7.614   3.706 -0.0118  0.1552  1.5174
  202MOL0     H27265   1.157   7.477   3.810 -1.9641 -0.6140 -0.6058
  202MOL0     H27266   1.063   7.469   3.573 -0.2241 -0.7225 -1.4437
  202MOL0     H27267   1.141   7.326   3.613 -1.5397 -1.2928 -2.4179
  202MOL0     H27268   1.381   7.498   3.311  0.9144  0.5783  0.5731
  202MOL0     H27269   1.161   7.565   4.030  1.7693  0.1103  0.3130
  202MOL0     H27270   0.984   7.705   4.131  0.1381 -0.1746  0.3560
  203MOL0     O27271  10.346   0.403  11.026  0.0945 -0.1250 -0.0468
  203MOL0     C27272  10.423   0.498  11.003 -0.5217  0.5041  0.2444
  203MOL0     O27273  10.400   0.629  11.042 -0.8861 -1.2453 -0.1332
  203MOL0     C27274  10.276   0.660  11.092 -0.7930  0.1069 -0.3450
  203MOL0     C27275  10.278   0.701  11.227  0.2396 -0.1632  0.6073
  203MOL0     C27276  10.157   0.718  11.291  0.4688  0.3899 -0.0094
  203MOL0     C27277  10.041   0.726  11.211  0.0651  0.8980 -0.2033
  203MOL0     O27278   9.923   0.740  11.283  0.0921 -0.3696 -0.2234
  203MOL0     C27279   9.805   0.662  11.253 -0.2580  0.2374 -0.2033
  203MOL0     C27280   9.827   0.504  11.267 -0.2133 -0.0226 -0.5001
  203MOL0     C27281   9.919   0.473  11.389 -0.0132 -0.5905 -0.6384
  203MOL0     C27282   9.957   0.321  11.417  0.5443  0.2701 -0.6229
  203MOL0     C27283  10.016   0.306  11.560  0.7754  0.3932 -0.9913
  203MOL0     C27284  10.108   0.413  11.618 -0.1166 -0.4113  0.7573
  203MOL0     C27285  10.246   0.398  11.545  0.1747  0.2478 -0.0143
  203MOL0     C27286  10.355   0.497  11.587  0.2570  0.4569 -0.0889
  203MOL0     N27287  10.490   0.459  11.552 -0.1093  0.5471 -0.5264
  203MOL0     C27288  10.584   0.543  11.514 -0.1250  0.3719 -0.9421
  203MOL0     C27289  10.703   0.479  11.539 -0.1871 -0.0829  0.2964
  203MOL0     C27290  10.843   0.539  11.519  0.0144 -0.7471 -0.0888
  203MOL0     C27291  10.943   0.431  11.470  0.4961 -0.0311 -0.1761
  203MOL0     C27292  11.083   0.481  11.426  0.1725  0.4620  0.6686
  203MOL0     C27293  11.132   0.595  11.512 -0.5070  0.2706 -0.3262
  203MOL0     O27294  11.256   0.631  11.445 -0.3278 -0.6767 -0.2915
  203MOL0     C27295  11.355   0.683  11.522  0.1254  0.6621  0.6209
  203MOL0     C27296  11.327   0.757  11.631 -0.8234 -0.6381 -0.3535
  203MOL0     C27297  11.428   0.809  11.709 -0.5041 -0.8101 -0.8838
  203MOL0     C27298  11.395   0.890  11.837 -0.4592 -0.2146  0.4845
  203MOL0     C27299  11.568   0.786  11.676  0.7307  0.4132 -0.0715
  203MOL0     C27300  11.685   0.803  11.762  0.6264 -0.3514 -0.6187
  203MOL0     O27301  11.804   0.763  11.712  0.6783  0.3243  0.1995
  203MOL0     C27302  11.917   0.747  11.787  0.8816  0.4740  0.5267
  203MOL0     C27303  11.916   0.733  11.927  0.5330 -0.3257 -0.4653
  203MOL0     C27304  12.040   0.718  11.997  0.1083 -0.7255  0.2525
  203MOL0     C27305  12.166   0.729  11.923 -0.3319 -0.3260  0.4053
  203MOL0     O27306  12.279   0.733  11.999 -0.5004 -0.5043  0.3508
  203MOL0     C27307  12.401   0.698  11.927 -0.3057  0.0121  0.2907
  203MOL0     C27308  12.514   0.670  12.021  0.2701  1.1781 -0.8318
  203MOL0     C27309  12.641   0.648  11.948 -1.4833  0.1221  0.6281
  203MOL0     C27310  12.648   0.516  11.879 -0.0970  0.1741  0.8070
  203MOL0     C27311  12.781   0.450  11.884  0.0260  0.3664  0.2100
  203MOL0     C27312  12.883   0.540  11.815 -0.4289 -0.2490  0.7663
  203MOL0     C27313  13.011   0.472  11.794 -0.3109 -0.2130  0.0619
  203MOL0     C27314  13.081   0.400  11.908 -1.0491  0.4883  0.5987
  203MOL0    Cl27315  13.250   0.375  11.859  0.7340  0.5483  0.6262
  203MOL0     C27316  12.162   0.733  11.783  0.0807 -0.8791  0.0448
  203MOL0     C27317  12.039   0.746  11.718 -0.4978 -0.0807  0.4104
  203MOL0     O27318  11.668   0.862  11.868 -0.4215 -0.9257 -0.0687
  203MOL0     C27319  11.592   0.705  11.563  0.0374  0.2019 -0.1111
  203MOL0     C27320  11.491   0.657  11.482 -0.1253  0.1002 -0.3236
  203MOL0     N27321  10.679   0.352  11.584  0.5658  0.0266 -0.0407
  203MOL0     N27322  10.545   0.348  11.597 -1.2400  0.4912  0.1599
  203MOL0     C27323  10.044   0.718  11.069 -0.1889  0.9056  0.3006
  203MOL0     C27324  10.163   0.682  11.007 -0.8541  0.0801  0.1729
  203MOL0     C27325  10.526   0.469  10.904 -0.0297  0.3301 -0.1268
  203MOL0     C27326  10.569   0.341  10.872 -0.4482  0.3328 -0.5345
  203MOL0     C27327  10.672   0.312  10.791  0.5648  0.2199  0.4461
  203MOL0     C27328  10.744   0.411  10.725 -0.0978 -0.0830  0.1816
  203MOL0     O27329  10.843   0.371  10.648  0.4424 -0.6152  0.8589
  203MOL0     C27330  10.892   0.445  10.529 -0.0366  0.1262  0.4678
  203MOL0     C27331  11.040   0.392  10.497 -0.2357 -0.2528 -0.2483
  203MOL0     C27332  11.024   0.238  10.454 -0.1275  0.3960 -0.5876
  203MOL0     C27333  10.918   0.206  10.343 -0.8420  0.7678  0.3672
  203MOL0     C27334  10.955   0.082  10.274  0.9484  0.1114 -0.5309
  203MOL0     C27335  10.980  -0.021  10.214 -0.3370 -0.2684 -0.3660
  203MOL0     C27336  10.697   0.539  10.746 -0.0032 -0.3979  0.7208
  203MOL0     C27337  10.597   0.573  10.839  0.6108 -0.3247  0.9054
  203MOL0     H27338  10.373   0.716  11.277  0.8744  2.0531 -1.1274
  203MOL0     H27339  10.148   0.728  11.398  1.7828 -0.7071  0.2344
  203MOL0     H27340   9.718   0.703  11.304 -0.1801 -0.6057  0.6211
  203MOL0     H27341   9.781   0.679  11.147 -0.2412 -2.1515 -0.6368
  203MOL0     H27342   9.730   0.457  11.281 -0.6444  1.8856  5.4859
  203MOL0     H27343   9.878   0.468  11.177 -0.7667 -0.4436 -0.6462
  203MOL0     H27344  10.014   0.527  11.385 -0.0336 -0.6218 -4.4641
  203MOL0     H27345   9.864   0.521  11.470 -0.3903 -1.6558 -0.2344
  203MOL0     H27346   9.866   0.261  11.417 -0.7886  2.1113  1.9281
  203MOL0     H27347  10.042   0.293  11.353  1.2033  0.1877  0.2795
  203MOL0     H27348   9.926   0.293  11.622  1.0739  2.0614 -0.1555
  203MOL0     H27349  10.069   0.210  11.560  0.0996 -0.0521  1.5845
  203MOL0     H27350  10.062   0.511  11.604 -0.2063 -0.2814  1.9005
  203MOL0     H27351  10.131   0.400  11.724 -1.4598  1.9128  1.4091
  203MOL0     H27352  10.278   0.295  11.563 -0.3795  0.2560  1.1577
  203MOL0     H27353  10.228   0.422  11.440 -1.8832 -2.0886 -0.2995
  203MOL0     H27354  10.357   0.504  11.696  3.3211 -0.6156  0.0015
  203MOL0     H27355  10.339   0.599  11.550  0.1273  0.7168  0.6533
  203MOL0     H27356  10.576   0.646  11.479 -1.8153 -0.1769 -2.2582
  203MOL0     H27357  10.834   0.623  11.450  1.1654 -0.2632  0.3174
  203MOL0     H27358  10.885   0.580  11.611 -1.2821 -0.3457  0.3436
  203MOL0     H27359  10.894   0.369  11.394 -0.9919 -2.0106  2.2619
  203MOL0     H27360  10.956   0.366  11.557 -1.3485 -0.6463 -0.3270
  203MOL0     H27361  11.070   0.528  11.328 -2.5519  1.0678  1.2498
  203MOL0     H27362  11.155   0.399  11.418  0.7037  0.9550  0.3487
  203MOL0     H27363  11.147   0.551  11.611  0.5657  0.6728 -0.2982
  203MOL0     H27364  11.072   0.686  11.521  0.7364  0.9422  2.1215
  203MOL0     H27365  11.224   0.775  11.660 -1.3229  0.3603 -2.5069
  203MOL0     H27366  11.287   0.885  11.853 -0.9595 -0.1538 -2.2952
  203MOL0     H27367  11.441   0.838  11.922  0.3530  2.8388  2.0618
  203MOL0     H27368  11.423   0.995  11.831  2.2392 -0.7427  2.0554
  203MOL0     H27369  11.820   0.719  11.974  0.0608  0.8289 -1.0668
  203MOL0     H27370  12.048   0.701  12.104  1.8828  1.3191  0.5202
  203MOL0     H27371  12.389   0.617  11.854 -1.6026 -0.5952  1.1365
  203MOL0     H27372  12.440   0.785  11.874  3.3490 -2.6408 -1.8431
  203MOL0     H27373  12.532   0.755  12.087 -1.1531  0.7960  0.1012
  203MOL0     H27374  12.493   0.587  12.090  0.5363  1.6765 -0.1425
  203MOL0     H27375  12.723   0.651  12.021  0.2531 -3.3994 -0.9774
  203MOL0     H27376  12.662   0.736  11.886 -2.2001  1.1782  1.8152
  203MOL0     H27377  12.577   0.451  11.932 -2.2293 -0.9342 -3.0157
  203MOL0     H27378  12.617   0.534  11.775 -0.3382 -0.6504  0.7279
  203MOL0     H27379  12.774   0.354  11.832 -2.5742  1.2386 -1.2845
  203MOL0     H27380  12.802   0.423  11.987  0.7551 -1.3352 -0.3460
  203MOL0     H27381  12.844   0.577  11.720 -0.9290  0.0157  1.0699
  203MOL0     H27382  12.904   0.631  11.872  1.5958 -1.0731  1.4320
  203MOL0     H27383  13.078   0.556  11.772 -1.9709  1.8544  2.3412
  203MOL0     H27384  13.000   0.398  11.714  2.2108  1.3639 -1.9203
  203MOL0     H27385  13.040   0.301  11.928  3.8793 -1.7376  1.1083
  203MOL0     H27386  13.073   0.462  11.998 -3.6779  2.5789 -0.9183
  203MOL0     H27387  12.257   0.737  11.731  1.3847  0.2989  2.3456
  203MOL0     H27388  12.039   0.726  11.611  1.5607 -0.3951  0.4341
  203MOL0     H27389  11.684   0.670  11.517 -0.8939  0.3012 -2.1580
  203MOL0     H27390  11.514   0.584  11.405 -2.8466 -1.0490 -0.1818
  203MOL0     H27391   9.954   0.740  11.013  0.2789  0.5537 -0.6065
  203MOL0     H27392  10.178   0.667  10.900  1.3085 -1.5234  0.6305
  203MOL0     H27393  10.514   0.257  10.913 -0.2552  0.5757  0.2213
  203MOL0     H27394  10.691   0.206  10.780  1.7152  0.4921 -0.2859
  203MOL0     H27395  10.815   0.444  10.451  0.8517 -1.0782 -0.4428
  203MOL0     H27396  10.894   0.552  10.553  0.6505  0.0306  0.8570
  203MOL0     H27397  11.089   0.400  10.594 -3.9541 -1.1479  1.8687
  203MOL0     H27398  11.091   0.446  10.417  0.8055  3.8455  2.8730
  203MOL0     H27399  10.987   0.194  10.547  0.1898  2.7943  0.7423
  203MOL0     H27400  11.125   0.200  10.433  1.5288  0.9563  4.8536
  203MOL0     H27401  10.920   0.278  10.260  0.7426 -1.6037 -1.8000
  203MOL0     H27402  10.817   0.186  10.382 -1.4615 -1.7066 -2.1529
  203MOL0     H27403  11.002  -0.119  10.176  2.2268 -0.7363  2.0354
  203MOL0     H27404  10.740   0.626  10.698 -0.3008 -0.4048  0.4406
  203MOL0     H27405  10.574   0.678  10.852  3.5099  0.2704  2.0158
  204MOL0     O27406  10.869  10.133  10.369  0.0473 -0.0772  0.3698
  204MOL0     C27407  10.947  10.117  10.458 -0.6119 -0.1702  0.1062
  204MOL0     O27408  10.927  10.157  10.592 -0.0816 -0.2515 -0.1043
  204MOL0     C27409  10.797  10.168  10.633 -0.0816 -0.2483 -0.6394
  204MOL0     C27410  10.691  10.249  10.573  0.7366  0.0512 -0.1277
  204MOL0     C27411  10.551  10.244  10.619 -1.0987  0.7496  0.4258
  204MOL0     C27412  10.525  10.164  10.734  0.6705 -0.5749  0.6311
  204MOL0     O27413  10.401  10.148  10.788 -0.1296  0.5317 -0.4383
  204MOL0     C27414  10.318  10.268  10.794  0.0066  0.6935 -0.2822
  204MOL0     C27415  10.209  10.267  10.902  0.3997  0.5456 -0.3693
  204MOL0     C27416  10.079  10.197  10.852  0.1695  0.0956  0.5262
  204MOL0     C27417   9.996  10.144  10.968 -0.3979  0.5082  0.4011
  204MOL0     C27418   9.892  10.039  10.906  0.9092  0.7951 -0.5449
  204MOL0     C27419   9.767  10.034  10.993 -0.1125  0.3927 -0.8887
  204MOL0     C27420   9.655   9.955  10.921  0.2128  0.8788  0.3944
  204MOL0     C27421   9.509   9.973  10.971  0.5802 -0.3416  0.6908
  204MOL0     N27422   9.399   9.924  10.889  0.4153  0.7133 -0.5261
  204MOL0     C27423   9.372   9.786  10.874  0.1594  0.3465  0.1682
  204MOL0     C27424   9.275   9.780  10.772  0.1331 -0.1629 -1.1482
  204MOL0     C27425   9.203   9.656  10.736 -0.0993 -0.1707  0.6680
  204MOL0     C27426   9.106   9.666  10.624 -0.7959 -0.2199 -0.3166
  204MOL0     C27427   9.099   9.534  10.552  0.1295  0.5424 -0.5036
  204MOL0     C27428   9.015   9.432  10.621 -0.3831 -0.3732 -0.8863
  204MOL0     O27429   8.894   9.482  10.663  0.2128 -0.0776  0.9644
  204MOL0     C27430   8.829   9.435  10.774 -0.7952 -0.1408  0.3176
  204MOL0     C27431   8.871   9.331  10.852 -0.4973 -0.3968 -0.2985
  204MOL0     C27432   8.797   9.292  10.968 -0.1333 -0.1546 -0.7220
  204MOL0     C27433   8.849   9.184  11.048  0.3166  0.0230 -0.7389
  204MOL0     C27434   8.680   9.360  11.001 -0.1067  0.2360  0.0095
  204MOL0     C27435   8.594   9.321  11.119  0.9212 -0.0788  0.1179
  204MOL0     O27436   8.515   9.423  11.172 -0.0616 -0.6402  0.1090
  204MOL0     C27437   8.439   9.420  11.290  1.0207  0.5129  0.4549
  204MOL0     C27438   8.346   9.521  11.314 -0.5191 -0.0472 -0.2548
  204MOL0     C27439   8.260   9.518  11.424  0.8106  0.3151  0.3628
  204MOL0     C27440   8.277   9.417  11.525 -0.8598  0.4178  0.6541
  204MOL0     O27441   8.211   9.410  11.641  0.3284  0.3106 -0.1689
  204MOL0     C27442   8.080   9.472  11.654  0.2973  1.1023  0.0076
  204MOL0     C27443   7.979   9.351  11.686  0.3671 -0.4269  0.2280
  204MOL0     C27444   7.835   9.406  11.664 -0.2366  0.5207  0.0854
  204MOL0     C27445   7.734   9.294  11.707 -0.8921  0.1475  0.1569
  204MOL0     C27446   7.598   9.333  11.650  1.0552  0.5306  0.2356
  204MOL0     C27447   7.473   9.262  11.699 -0.7878  0.8594 -0.2011
  204MOL0     C27448   7.343   9.321  11.661 -0.5290  1.7273  0.0575
  204MOL0     C27449   7.292   9.271  11.525  0.6612  0.4608  0.9829
  204MOL0    Cl27450   7.198   9.399  11.454 -0.2075 -0.5836  0.2671
  204MOL0     C27451   8.372   9.318  11.506  1.1691  0.4710 -0.2326
  204MOL0     C27452   8.448   9.327  11.391 -0.2399  0.6383 -0.5135
  204MOL0     O27453   8.571   9.203  11.144 -0.1381 -0.2049  0.5250
  204MOL0     C27454   8.634   9.454  10.914 -0.6557 -0.7995 -0.3762
  204MOL0     C27455   8.705   9.502  10.804 -0.0583  0.1361  0.3245
  204MOL0     N27456   9.265   9.908  10.727 -0.3333  0.1704  0.0879
  204MOL0     N27457   9.335   9.993  10.793  0.3529 -0.3300 -0.5866
  204MOL0     C27458  10.624  10.099  10.793  0.3821  0.3240  0.0814
  204MOL0     C27459  10.758  10.090  10.741  1.0094  0.6177  0.3933
  204MOL0     C27460  11.090  10.088  10.417  0.6034 -0.6571  1.5381
  204MOL0     C27461  11.128  10.093  10.280  0.2613  0.5408 -0.0827
  204MOL0     C27462  11.256  10.069  10.228  0.6451 -0.7167 -0.0285
  204MOL0     C27463  11.353  10.046  10.316 -0.1318 -0.2806  0.0397
  204MOL0     O27464  11.478  10.017  10.267  0.2444 -0.4817  0.0439
  204MOL0     C27465  11.585  10.115  10.261  0.3623  0.1847 -0.4456
  204MOL0     C27466  11.682  10.083  10.376  1.1263 -0.2216  0.6023
  204MOL0     C27467  11.739   9.938  10.368  1.1131  0.6234  0.5939
  204MOL0     C27468  11.861   9.923  10.283 -0.7560 -0.2473 -0.1369
  204MOL0     C27469  11.982  10.001  10.322  0.4262  0.3370 -0.2488
  204MOL0     C27470  12.074  10.074  10.339 -0.6706 -0.4407  0.3094
  204MOL0     C27471  11.323  10.043  10.454  0.5904 -0.3737 -0.3383
  204MOL0     C27472  11.192  10.065  10.507 -0.1655  0.2370 -0.4628
  204MOL0     H27473  10.709  10.316  10.490 -0.1036 -0.8611 -1.0646
  204MOL0     H27474  10.472  10.301  10.571  1.1596  2.2957 -1.6532
  204MOL0     H27475  10.384  10.355  10.799 -1.3182  1.6729  1.3534
  204MOL0     H27476  10.265  10.280  10.699 -2.9022  0.5314  1.2192
  204MOL0     H27477  10.257  10.214  10.984  2.8171  1.2692 -1.2247
  204MOL0     H27478  10.183  10.371  10.920 -2.1255  0.1172 -1.0287
  204MOL0     H27479  10.013  10.265  10.799  1.9470  1.9356  0.5296
  204MOL0     H27480  10.109  10.113  10.788 -2.0903  1.6173 -2.7896
  204MOL0     H27481  10.060  10.092  11.041 -0.9037  1.3787  1.4878
  204MOL0     H27482   9.938  10.222  11.016 -1.9999 -0.0592 -0.5541
  204MOL0     H27483   9.869  10.077  10.806  1.5150  0.0827 -0.9716
  204MOL0     H27484   9.934   9.939  10.893  1.0169  0.5605  1.3612
  204MOL0     H27485   9.782   9.998  11.096 -1.6424  1.6452 -0.1841
  204MOL0     H27486   9.736  10.136  11.018  0.1403  0.1701  0.4554
  204MOL0     H27487   9.642  10.007  10.825  0.3021  0.6937  0.2822
  204MOL0     H27488   9.671   9.853  10.886 -2.0116  1.4919 -2.8846
  204MOL0     H27489   9.490  10.081  10.979 -2.2186 -0.5236 -1.8114
  204MOL0     H27490   9.502   9.934  11.073 -0.4163 -1.9880  0.0329
  204MOL0     H27491   9.414   9.708  10.936 -0.7831 -0.0412  0.3364
  204MOL0     H27492   9.275   9.577  10.715 -2.8280 -2.5720 -0.3419
  204MOL0     H27493   9.151   9.607  10.820 -1.2606 -0.8538 -0.4064
  204MOL0     H27494   9.143   9.750  10.564  1.5612 -0.5223  0.5972
  204MOL0     H27495   9.007   9.702  10.649 -0.1396  2.1792 -0.9376
  204MOL0     H27496   9.195   9.484  10.532 -1.8031 -4.3920  1.0542
  204MOL0     H27497   9.064   9.555  10.450  1.8256  0.4689 -1.1404
  204MOL0     H27498   9.084   9.392  10.696  1.5299  0.5873 -2.0428
  204MOL0     H27499   9.002   9.356  10.543  0.7432 -0.9459 -0.5346
  204MOL0     H27500   8.968   9.282  10.838  1.6698  3.1858  0.9054
  204MOL0     H27501   8.954   9.211  11.062  0.3253  0.3606 -1.4182
  204MOL0     H27502   8.807   9.179  11.149  0.7167  2.9513 -0.3256
  204MOL0     H27503   8.832   9.087  11.000 -1.0295 -0.6119  0.9061
  204MOL0     H27504   8.358   9.604  11.244 -2.8461  1.2312  0.7395
  204MOL0     H27505   8.204   9.607  11.450  2.5164  0.9119  2.2774
  204MOL0     H27506   8.082   9.536  11.743  0.5552  0.2353  0.6398
  204MOL0     H27507   8.040   9.522  11.565 -1.7948 -0.2281  0.1145
  204MOL0     H27508   8.006   9.266  11.623 -0.3013  0.3319 -1.1177
  204MOL0     H27509   7.978   9.316  11.790 -0.0422 -0.3558  0.2498
  204MOL0     H27510   7.815   9.439  11.562 -0.0974 -1.8391 -0.7627
  204MOL0     H27511   7.831   9.499  11.721  1.8960  1.3454 -0.9749
  204MOL0     H27512   7.774   9.200  11.669  0.7053  0.3375  1.2278
  204MOL0     H27513   7.737   9.285  11.816  1.3345  0.8253  0.2012
  204MOL0     H27514   7.606   9.308  11.544  3.7544  0.2463  0.4324
  204MOL0     H27515   7.582   9.441  11.658  0.6356  0.4283  0.8449
  204MOL0     H27516   7.479   9.157  11.671  2.7996  1.0207 -0.4711
  204MOL0     H27517   7.492   9.287  11.803  1.1836 -0.5867 -0.1620
  204MOL0     H27518   7.347   9.431  11.662 -1.9895  1.8113 -0.8736
  204MOL0     H27519   7.267   9.297  11.736 -0.9312  0.2510 -0.7845
  204MOL0     H27520   7.229   9.183  11.540  2.9812 -1.8186 -1.4304
  204MOL0     H27521   7.366   9.235  11.452 -1.0648 -1.0243 -0.1383
  204MOL0     H27522   8.401   9.242  11.577  0.6445  1.0670  0.6386
  204MOL0     H27523   8.514   9.241  11.382 -0.9645  0.0197 -0.0115
  204MOL0     H27524   8.542   9.508  10.934 -0.5886 -0.7012 -0.3241
  204MOL0     H27525   8.674   9.583  10.739  1.7232  0.2952 -0.3920
  204MOL0     H27526  10.612  10.048  10.887  1.6635 -2.0550 -0.9546
  204MOL0     H27527  10.839  10.040  10.792 -0.9631 -0.7189  2.3895
  204MOL0     H27528  11.056  10.108  10.200 -0.5329 -2.5537 -0.0727
  204MOL0     H27529  11.286  10.061  10.124  0.4116  0.7999 -0.2339
  204MOL0     H27530  11.640  10.123  10.167 -0.0707 -2.1994 -0.9633
  204MOL0     H27531  11.526  10.206  10.279  0.4417 -0.0261  0.9929
  204MOL0     H27532  11.615  10.089  10.462 -1.0656  1.2254 -1.0886
  204MOL0     H27533  11.772  10.145  10.383 -0.3638  1.9961  1.0382
  204MOL0     H27534  11.664   9.867  10.332  0.0897  1.0649  1.7724
  204MOL0     H27535  11.759   9.905  10.470  1.9417 -0.8443 -0.0063
  204MOL0     H27536  11.837   9.954  10.180  0.0093 -0.0419 -0.2646
  204MOL0     H27537  11.878   9.815  10.281  2.2149  0.1419 -2.2476
  204MOL0     H27538  12.141  10.158  10.346 -1.3126  0.0974  0.0505
  204MOL0     H27539  11.410  10.030  10.518  3.0301 -0.6137 -3.4785
  204MOL0     H27540  11.181  10.063  10.615  0.2348 -1.8904 -0.4202
  205MOL0     O27541   0.609  10.761   3.643  0.1720  0.2574  0.7868
  205MOL0     C27542   0.551  10.866   3.631 -0.7810 -0.4082  0.3082
  205MOL0     O27543   0.611  10.989   3.614  0.5803  0.8654  0.2040
  205MOL0     C27544   0.750  10.990   3.600 -0.0049  0.4915  0.0494
  205MOL0     C27545   0.824  10.917   3.507 -0.1619  0.4664 -0.5548
  205MOL0     C27546   0.970  10.925   3.493 -1.1339  0.5102  0.5241
  205MOL0     C27547   1.040  11.020   3.568  0.1044  0.5783  0.4866
  205MOL0     O27548   1.175  11.052   3.562 -0.3103 -0.0892  0.2634
  205MOL0     C27549   1.251  10.981   3.466  0.4415 -0.1840 -0.6050
  205MOL0     C27550   1.393  11.046   3.462  0.1024 -0.6137 -0.5445
  205MOL0     C27551   1.492  10.978   3.564  0.2319 -0.8312 -0.4330
  205MOL0     C27552   1.550  10.858   3.493 -0.4571 -0.4543 -0.2157
  205MOL0     C27553   1.680  10.815   3.559 -0.1541 -0.4076  0.5198
  205MOL0     C27554   1.785  10.925   3.584 -0.1344  0.6951  0.3220
  205MOL0     C27555   1.912  10.858   3.642 -0.1785 -0.4074 -0.2836
  205MOL0     C27556   2.017  10.973   3.669  0.0003  0.7919  0.4605
  205MOL0     N27557   2.145  10.923   3.708  0.1763  0.1463 -0.1333
  205MOL0     C27558   2.255  10.919   3.629  0.4568 -0.0181  1.1952
  205MOL0     C27559   2.343  10.848   3.705  0.1454 -0.2849  0.0663
  205MOL0     C27560   2.482  10.829   3.657  0.1623  0.1312 -0.7258
  205MOL0     C27561   2.551  10.962   3.648  0.0721 -0.7826  0.5183
  205MOL0     C27562   2.609  11.016   3.778  0.2577 -0.5060  0.6234
  205MOL0     C27563   2.520  11.017   3.905 -0.5591 -0.1782 -0.3086
  205MOL0     O27564   2.565  11.096   4.008  0.1622 -0.2705 -0.0256
  205MOL0     C27565   2.615  11.034   4.124 -0.3510  0.7325  0.1598
  205MOL0     C27566   2.600  11.100   4.249  0.3663 -0.1320  0.7406
  205MOL0     C27567   2.639  11.037   4.375  0.2554 -0.3647 -0.5505
  205MOL0     C27568   2.613  11.115   4.504 -0.4787  0.3809  0.6322
  205MOL0     C27569   2.698  10.912   4.372 -0.5238 -0.4756 -0.5004
  205MOL0     C27570   2.740  10.837   4.498 -1.8842  0.2210 -0.1169
  205MOL0     O27571   2.661  10.837   4.612 -0.5435  0.5120  0.0458
  205MOL0     C27572   2.674  10.733   4.716 -0.2006 -0.6550 -0.1452
  205MOL0     C27573   2.692  10.758   4.855  0.6225 -0.8586  0.0682
  205MOL0     C27574   2.706  10.657   4.953  0.0279 -0.4410 -0.3843
  205MOL0     C27575   2.712  10.525   4.907 -0.3501  0.6556 -0.1906
  205MOL0     O27576   2.754  10.419   4.981 -0.1550  0.1160 -0.4008
  205MOL0     C27577   2.792  10.423   5.119  0.3773 -0.0731 -0.4961
  205MOL0     C27578   2.816  10.275   5.158  0.3968 -0.2226 -0.2736
  205MOL0     C27579   2.942  10.207   5.094 -0.6439  0.0848 -0.4813
  205MOL0     C27580   3.069  10.253   5.181  0.9587  0.0241 -0.2260
  205MOL0     C27581   3.175  10.161   5.152 -0.8553 -0.3525  0.5369
  205MOL0     C27582   3.310  10.211   5.213  0.5781  0.1346 -0.5542
  205MOL0     C27583   3.424  10.119   5.166  0.4106 -0.1442 -0.2113
  205MOL0     C27584   3.551  10.151   5.241 -0.4188 -0.4602  0.5381
  205MOL0    Cl27585   3.692  10.070   5.182 -0.0578  0.1452  0.0695
  205MOL0     C27586   2.694  10.497   4.767 -0.3724 -0.6689 -0.9432
  205MOL0     C27587   2.682  10.599   4.680  0.1303 -0.1386  0.2440
  205MOL0     O27588   2.842  10.781   4.490 -0.0845 -0.3697 -0.5704
  205MOL0     C27589   2.729  10.855   4.246  0.3235 -0.4450  0.7055
  205MOL0     C27590   2.676  10.909   4.124  0.5282 -0.0588 -0.1576
  205MOL0     N27591   2.292  10.811   3.824  0.5386 -0.0588 -0.1424
  205MOL0     N27592   2.164  10.853   3.826  0.0204  0.1638 -0.3103
  205MOL0     C27593   0.964  11.111   3.650  0.2498 -0.1159  0.1217
  205MOL0     C27594   0.826  11.089   3.668 -0.5271 -0.0492 -0.5899
  205MOL0     C27595   0.404  10.864   3.641  0.1993  0.1640 -0.1009
  205MOL0     C27596   0.345  10.768   3.730  0.3783  0.0226 -0.3514
  205MOL0     C27597   0.203  10.777   3.739 -0.0857 -0.9214  0.5964
  205MOL0     C27598   0.122  10.875   3.682 -0.1310 -0.7661 -0.9608
  205MOL0     O27599  -0.011  10.875   3.726  0.5775 -0.2917  0.0051
  205MOL0     C27600  -0.085  11.007   3.721  0.1986 -0.3810  0.0206
  205MOL0     C27601  -0.158  11.027   3.591 -0.4284  0.2844  0.2349
  205MOL0     C27602  -0.245  11.153   3.597 -0.2065  0.7836 -0.6388
  205MOL0     C27603  -0.339  11.174   3.480  0.2194  0.6565  0.0316
  205MOL0     C27604  -0.407  11.297   3.492  0.1592 -0.6722  0.2886
  205MOL0     C27605  -0.474  11.399   3.519  0.0016  0.0202 -0.5551
  205MOL0     C27606   0.191  10.969   3.600  0.4718 -0.7541  0.0978
  205MOL0     C27607   0.332  10.967   3.582 -0.0703 -0.1110  0.0233
  205MOL0     H27608   0.769  10.836   3.459  1.9039 -1.2324 -0.2380
  205MOL0     H27609   1.032  10.864   3.428  0.4361  0.3144  2.1397
  205MOL0     H27610   1.246  10.873   3.477  0.1042 -0.1930 -0.8382
  205MOL0     H27611   1.196  10.998   3.373  0.3107 -0.1429 -0.5207
  205MOL0     H27612   1.422  11.032   3.357  0.6779  0.1875 -0.5011
  205MOL0     H27613   1.378  11.154   3.470 -0.9290 -0.7129 -1.0043
  205MOL0     H27614   1.560  11.053   3.604 -0.8984 -0.5491  1.0370
  205MOL0     H27615   1.451  10.947   3.660 -2.0446  0.7825 -0.7986
  205MOL0     H27616   1.474  10.780   3.500 -2.5574  1.5967  0.8770
  205MOL0     H27617   1.579  10.876   3.389  3.7466  1.7629  1.1100
  205MOL0     H27618   1.645  10.764   3.649  1.5981 -1.3237  0.7293
  205MOL0     H27619   1.720  10.731   3.501  0.6374 -0.4870  1.1748
  205MOL0     H27620   1.799  10.974   3.488 -0.2545  1.7353  0.8217
  205MOL0     H27621   1.748  11.002   3.653 -0.3663 -0.4700  1.5400
  205MOL0     H27622   1.882  10.807   3.734 -2.2215  1.1632  0.0022
  205MOL0     H27623   1.950  10.783   3.571  5.6190 -4.1246  5.6090
  205MOL0     H27624   1.965  11.036   3.742 -1.4443 -0.1249  0.2446
  205MOL0     H27625   2.025  11.042   3.585  0.4781  1.5787  1.1318
  205MOL0     H27626   2.267  10.954   3.527 -2.3231  4.5890  2.1314
  205MOL0     H27627   2.538  10.777   3.735 -0.4996 -0.9048 -0.9169
  205MOL0     H27628   2.494  10.773   3.564  2.1714 -0.5694 -0.0939
  205MOL0     H27629   2.476  11.037   3.619  0.1917 -1.5275 -2.0182
  205MOL0     H27630   2.634  10.952   3.577  1.1471 -3.7982  1.9897
  205MOL0     H27631   2.648  11.115   3.752  1.8949 -0.2280  3.6824
  205MOL0     H27632   2.695  10.952   3.802  1.6078  0.1932 -1.8993
  205MOL0     H27633   2.511  10.914   3.940  2.3513  0.6690  3.6203
  205MOL0     H27634   2.420  11.057   3.883 -0.5316  0.0160 -0.0918
  205MOL0     H27635   2.547  11.194   4.249  1.7260  0.6764 -0.4334
  205MOL0     H27636   2.615  11.059   4.597 -1.0986  1.8890  1.5916
  205MOL0     H27637   2.689  11.195   4.505 -2.8602  2.8418 -1.1422
  205MOL0     H27638   2.510  11.151   4.504 -0.9714 -0.9727  1.5469
  205MOL0     H27639   2.692  10.863   4.886  4.0686 -0.4158 -0.9779
  205MOL0     H27640   2.747  10.672   5.052  2.4426 -1.5814 -1.1513
  205MOL0     H27641   2.877  10.490   5.137 -0.6184  1.4499 -1.1813
  205MOL0     H27642   2.710  10.464   5.178  2.3794  3.1031  0.3450
  205MOL0     H27643   2.834  10.268   5.266  1.5336  0.6550 -0.3855
  205MOL0     H27644   2.727  10.218   5.131  0.1519 -1.1676  2.1958
  205MOL0     H27645   2.963  10.228   4.988  0.4749  2.2128  0.1033
  205MOL0     H27646   2.947  10.098   5.102  3.4756  0.1356 -0.5153
  205MOL0     H27647   3.102  10.352   5.147 -0.3042  0.1671 -1.1276
  205MOL0     H27648   3.056  10.251   5.289 -0.5715 -1.7056 -0.3968
  205MOL0     H27649   3.192  10.141   5.046  0.5647 -0.4839  0.7693
  205MOL0     H27650   3.144  10.069   5.202 -1.0343  0.9646  3.0286
  205MOL0     H27651   3.318  10.315   5.182  0.5910 -0.2902 -2.0175
  205MOL0     H27652   3.295  10.206   5.322  1.0713 -4.3788 -0.5012
  205MOL0     H27653   3.430  10.126   5.057  0.5850 -1.8689 -0.3458
  205MOL0     H27654   3.407  10.011   5.175  3.2876 -0.7017 -0.4669
  205MOL0     H27655   3.553  10.109   5.343  2.4512  0.9839  1.1912
  205MOL0     H27656   3.565  10.259   5.239 -2.3090 -0.2010  0.0267
  205MOL0     H27657   2.714  10.397   4.730  0.8142 -0.0124 -2.1794
  205MOL0     H27658   2.656  10.580   4.576 -1.9403  4.1719 -0.2362
  205MOL0     H27659   2.782  10.760   4.246  0.1287 -0.6095 -1.9434
  205MOL0     H27660   2.702  10.865   4.028  1.6929 -0.8954  0.5200
  205MOL0     H27661   1.006  11.201   3.694 -0.6330  1.0171 -1.2569
  205MOL0     H27662   0.780  11.170   3.723  0.2419 -0.2893  0.4484
  205MOL0     H27663   0.404  10.687   3.771  3.3070  1.3443 -1.6609
  205MOL0     H27664   0.148  10.719   3.812  0.9006 -0.2110  1.9726
  205MOL0     H27665  -0.158  11.004   3.803  1.3614  0.8544  1.1373
  205MOL0     H27666  -0.017  11.090   3.741 -2.7251  2.1911  0.0409
  205MOL0     H27667  -0.216  10.937   3.568  3.2184 -2.1120 -0.4357
  205MOL0     H27668  -0.093  11.041   3.504 -0.6565 -0.4504 -0.0665
  205MOL0     H27669  -0.177  11.237   3.611 -1.6914  2.0638 -0.8655
  205MOL0     H27670  -0.304  11.151   3.690  0.6397  0.2182 -0.1024
  205MOL0     H27671  -0.408  11.089   3.485 -3.8958  3.6448 -0.7792
  205MOL0     H27672  -0.295  11.175   3.380  1.6954  0.6769  0.6532
  205MOL0     H27673  -0.527  11.490   3.541  1.9729  0.8590  1.0525
  205MOL0     H27674   0.132  11.044   3.548  1.0748 -0.2475  0.1383
  205MOL0     H27675   0.382  11.046   3.527  0.5265  0.7991  1.7759
  206MOL0     O27676   5.244   5.331   3.861 -0.6397 -0.5729 -0.4478
  206MOL0     C27677   5.233   5.322   3.738 -0.1104 -0.1953  0.2328
  206MOL0     O27678   5.339   5.340   3.642 -0.0412  0.5701  1.1041
  206MOL0     C27679   5.468   5.305   3.682  1.5931 -0.3112 -0.5355
  206MOL0     C27680   5.564   5.415   3.691  0.8359  0.9677 -0.5265
  206MOL0     C27681   5.697   5.378   3.717 -0.1557  0.9053 -1.5089
  206MOL0     C27682   5.739   5.246   3.758  0.5385 -0.3016  0.0350
  206MOL0     O27683   5.873   5.217   3.779 -0.3400 -0.4855  0.2457
  206MOL0     C27684   5.901   5.105   3.866 -0.5185  0.6323 -1.1134
  206MOL0     C27685   6.043   5.112   3.927  0.8751 -0.8968 -0.7028
  206MOL0     C27686   6.079   4.975   3.990 -0.8247  0.3766 -1.0089
  206MOL0     C27687   6.171   4.886   3.907  0.2643  1.1538 -0.7659
  206MOL0     C27688   6.203   4.761   3.996  0.7208  0.4580 -0.4772
  206MOL0     C27689   6.322   4.778   4.093 -0.4025 -0.7435 -0.1038
  206MOL0     C27690   6.458   4.800   4.020 -0.6732  0.5101  0.0199
  206MOL0     C27691   6.561   4.865   4.125 -0.1943 -0.3441  0.0497
  206MOL0     N27692   6.526   4.996   4.180  0.0530 -0.6860 -0.9802
  206MOL0     C27693   6.488   5.014   4.314  0.0087 -0.0604  0.2476
  206MOL0     C27694   6.449   5.147   4.320 -0.7190 -0.0049  0.7021
  206MOL0     C27695   6.385   5.213   4.436 -0.2666 -0.0910 -0.1715
  206MOL0     C27696   6.242   5.162   4.473 -0.4748 -0.2101 -0.4160
  206MOL0     C27697   6.128   5.250   4.401  0.7609 -0.4429  0.1053
  206MOL0     C27698   5.984   5.199   4.439  0.2173 -0.2213 -0.7354
  206MOL0     O27699   5.971   5.062   4.401  0.8162  1.0388 -0.0023
  206MOL0     C27700   5.848   4.996   4.432  1.3296 -0.9754 -0.0050
  206MOL0     C27701   5.819   4.877   4.377  0.0025  0.1834  0.4383
  206MOL0     C27702   5.695   4.812   4.395  0.0888  0.0931 -0.2243
  206MOL0     C27703   5.679   4.677   4.329  0.3897 -0.2590  0.1746
  206MOL0     C27704   5.612   4.861   4.495  0.3567  0.0641 -0.9252
  206MOL0     C27705   5.483   4.797   4.527  0.5138  0.6516  0.4886
  206MOL0     O27706   5.412   4.750   4.423  0.1984 -0.2819  0.0563
  206MOL0     C27707   5.289   4.693   4.429 -0.1504  0.3655  0.4981
  206MOL0     C27708   5.179   4.757   4.370 -0.3472 -0.2515 -0.9354
  206MOL0     C27709   5.061   4.684   4.360  0.7041 -0.5361 -0.4815
  206MOL0     C27710   5.044   4.559   4.409  0.1193  0.2333  0.1411
  206MOL0     O27711   4.931   4.476   4.397 -0.8958 -0.1709 -0.6346
  206MOL0     C27712   4.818   4.499   4.317  0.0868 -0.6132 -0.4030
  206MOL0     C27713   4.727   4.596   4.386  0.1084 -0.1235 -0.3458
  206MOL0     C27714   4.601   4.610   4.301  0.0341  0.4737 -0.3704
  206MOL0     C27715   4.488   4.658   4.394 -0.2146  0.0175 -0.0421
  206MOL0     C27716   4.358   4.657   4.311  0.2341 -0.7456  0.0144
  206MOL0     C27717   4.243   4.728   4.385 -0.1571  0.0174 -0.3780
  206MOL0     C27718   4.102   4.710   4.316  0.2570  0.6251  0.2844
  206MOL0     C27719   4.042   4.577   4.291 -0.7092 -0.0941  0.0450
  206MOL0    Cl27720   3.889   4.593   4.210  0.0779 -0.5655  0.4809
  206MOL0     C27721   5.153   4.492   4.469  0.3941 -0.2086  0.1596
  206MOL0     C27722   5.278   4.553   4.473  0.1197 -0.0418  1.0006
  206MOL0     O27723   5.452   4.793   4.647  0.1997 -0.2863  0.0093
  206MOL0     C27724   5.635   4.986   4.551  0.2718  0.4258 -0.2893
  206MOL0     C27725   5.751   5.054   4.517 -0.6048 -0.1008 -0.5506
  206MOL0     N27726   6.492   5.213   4.207 -0.4237  1.5857  0.9773
  206MOL0     N27727   6.535   5.119   4.124 -0.2001  0.5658 -0.1153
  206MOL0     C27728   5.635   5.148   3.771 -0.5552  0.2626  0.4613
  206MOL0     C27729   5.501   5.176   3.719  0.6195  0.3314 -0.3210
  206MOL0     C27730   5.098   5.323   3.680 -0.1311 -0.3722 -0.7781
  206MOL0     C27731   4.986   5.290   3.752  0.6102 -0.3319 -0.3382
  206MOL0     C27732   4.852   5.275   3.695  0.2837  0.1680  0.0668
  206MOL0     C27733   4.843   5.296   3.556  0.0001  0.2775 -0.4933
  206MOL0     O27734   4.720   5.271   3.508  0.0690 -0.0079  0.1323
  206MOL0     C27735   4.641   5.385   3.477 -0.2587  0.0518 -0.0968
  206MOL0     C27736   4.494   5.339   3.460 -0.1055 -0.3282  1.1959
  206MOL0     C27737   4.411   5.452   3.397 -0.3085 -0.3061  0.2144
  206MOL0     C27738   4.265   5.410   3.385 -0.4340 -0.0502 -0.5716
  206MOL0     C27739   4.204   5.411   3.519  0.2970 -0.1933  0.3841
  206MOL0     C27740   4.141   5.410   3.623 -1.2084  0.0112  0.3187
  206MOL0     C27741   4.953   5.331   3.480  0.7538 -0.7893  0.3466
  206MOL0     C27742   5.082   5.336   3.540 -0.4011 -0.2408  0.5558
  206MOL0     H27743   5.531   5.518   3.688  2.6620  1.5698 -1.1792
  206MOL0     H27744   5.769   5.457   3.730  1.8234 -1.0414  0.3948
  206MOL0     H27745   5.826   5.074   3.940  0.2048 -2.0151 -1.3863
  206MOL0     H27746   5.901   5.011   3.811 -0.2693 -1.9945  2.9189
  206MOL0     H27747   6.115   5.129   3.846  2.2392 -0.2692  0.5947
  206MOL0     H27748   6.032   5.192   4.001 -2.1862  0.7343 -2.7119
  206MOL0     H27749   6.138   5.000   4.079  1.6600 -2.7515 -1.5909
  206MOL0     H27750   5.987   4.926   4.021 -0.5982 -1.0362 -2.5039
  206MOL0     H27751   6.122   4.851   3.816 -2.1666  1.6586  0.2782
  206MOL0     H27752   6.256   4.944   3.868  1.9471 -0.7015 -0.0727
  206MOL0     H27753   6.126   4.738   4.070  1.7150 -0.2230  0.3823
  206MOL0     H27754   6.224   4.678   3.928  0.5891 -0.7160  0.8668
  206MOL0     H27755   6.309   4.874   4.143 -1.5355 -1.8081  1.7540
  206MOL0     H27756   6.318   4.691   4.160 -2.7964  0.2596  1.1750
  206MOL0     H27757   6.508   4.706   3.993  1.4644  0.2593  4.1359
  206MOL0     H27758   6.431   4.863   3.934 -3.1721  0.3753  0.6253
  206MOL0     H27759   6.653   4.887   4.070  0.0655  2.9583  1.5676
  206MOL0     H27760   6.575   4.791   4.205 -2.0991 -1.9657 -1.0216
  206MOL0     H27761   6.481   4.941   4.393  1.7388  1.6211  2.0898
  206MOL0     H27762   6.446   5.184   4.522 -1.2634 -0.5450  0.4026
  206MOL0     H27763   6.390   5.318   4.406 -4.2444  0.3695  0.2107
  206MOL0     H27764   6.235   5.165   4.582  0.1019  0.7027 -0.3962
  206MOL0     H27765   6.225   5.063   4.430  0.4325 -0.6971  0.3013
  206MOL0     H27766   6.151   5.261   4.295  1.1455 -0.2455  0.2092
  206MOL0     H27767   6.135   5.352   4.441  1.3050  0.3674 -1.9686
  206MOL0     H27768   5.918   5.274   4.395  2.1470  0.6955 -2.2327
  206MOL0     H27769   5.973   5.208   4.548 -1.5684 -0.1662 -0.8923
  206MOL0     H27770   5.876   4.839   4.293  0.0923  3.7004 -1.2816
  206MOL0     H27771   5.614   4.605   4.380 -0.3488 -0.2484 -0.7283
  206MOL0     H27772   5.637   4.684   4.228 -1.1547 -0.8795  0.7463
  206MOL0     H27773   5.781   4.637   4.323  0.3827 -0.2675  0.1081
  206MOL0     H27774   5.181   4.854   4.322  1.0044  0.7817  1.0602
  206MOL0     H27775   4.974   4.731   4.316  0.3741 -0.7137 -0.0258
  206MOL0     H27776   4.824   4.540   4.215 -2.5871  1.2034  0.0754
  206MOL0     H27777   4.777   4.398   4.312  0.9835 -1.0092 -0.0521
  206MOL0     H27778   4.705   4.544   4.481  4.2150 -2.5149 -0.4391
  206MOL0     H27779   4.787   4.686   4.402  0.7773  0.2669 -4.2248
  206MOL0     H27780   4.572   4.512   4.261  0.0520 -0.3577  1.5668
  206MOL0     H27781   4.618   4.682   4.220 -1.4734  2.8253  1.2787
  206MOL0     H27782   4.484   4.580   4.470  0.2373 -0.4947 -0.5364
  206MOL0     H27783   4.510   4.756   4.438  1.2118  0.2058 -1.0994
  206MOL0     H27784   4.328   4.552   4.308  0.6336 -0.8826  0.5907
  206MOL0     H27785   4.384   4.704   4.216  4.7587 -0.0912  1.3244
  206MOL0     H27786   4.235   4.683   4.485  2.0600  0.5645  0.1059
  206MOL0     H27787   4.258   4.835   4.401 -3.7808  0.3649  1.8815
  206MOL0     H27788   4.110   4.750   4.215  3.2690  0.1610  0.2464
  206MOL0     H27789   4.020   4.768   4.358 -2.4225 -2.0536 -0.8503
  206MOL0     H27790   4.051   4.524   4.386  1.4104 -1.7408 -0.9748
  206MOL0     H27791   4.112   4.533   4.218 -0.1818  0.3886  0.2493
  206MOL0     H27792   5.128   4.396   4.514 -1.4628 -1.0240 -2.4067
  206MOL0     H27793   5.356   4.488   4.510  0.8444 -0.2697 -0.8406
  206MOL0     H27794   5.565   5.031   4.621  1.6372  1.0550  0.7126
  206MOL0     H27795   5.760   5.158   4.546  2.4367 -0.8170  1.5360
  206MOL0     H27796   5.664   5.057   3.822  0.6648 -0.4253 -1.3599
  206MOL0     H27797   5.427   5.097   3.721  1.1825 -0.1804  1.0377
  206MOL0     H27798   5.005   5.276   3.858 -2.2639 -1.7466  0.0889
  206MOL0     H27799   4.766   5.257   3.759  0.5809 -3.4761 -0.3739
  206MOL0     H27800   4.643   5.461   3.556 -2.0697 -2.4879  2.5861
  206MOL0     H27801   4.694   5.430   3.393  2.5582  0.5386  1.8203
  206MOL0     H27802   4.456   5.299   3.555 -0.7518  0.3023  1.2202
  206MOL0     H27803   4.495   5.257   3.388 -1.5917  1.0948 -0.5535
  206MOL0     H27804   4.451   5.482   3.300 -2.2221  1.7846 -0.0152
  206MOL0     H27805   4.428   5.536   3.466  0.9315 -0.1933 -0.2197
  206MOL0     H27806   4.262   5.309   3.344  0.4796 -0.2626 -0.1461
  206MOL0     H27807   4.220   5.478   3.313 -0.4921  0.9083  0.3425
  206MOL0     H27808   4.095   5.418   3.719 -1.9317 -0.4662  0.0242
  206MOL0     H27809   4.937   5.328   3.372 -2.4351  0.5581  0.6721
  206MOL0     H27810   5.170   5.361   3.481 -1.5881 -2.0614 -2.1597
  207MOL0     O27811   4.780   7.083   8.608  0.1733  0.3036 -0.9355
  207MOL0     C27812   4.774   7.104   8.485 -0.6726 -0.1589  0.4735
  207MOL0     O27813   4.665   7.115   8.406 -0.5735  0.3059  0.1582
  207MOL0     C27814   4.543   7.089   8.467 -0.8892  0.5905 -0.2339
  207MOL0     C27815   4.479   6.983   8.414 -0.3453  0.5980  0.4428
  207MOL0     C27816   4.342   6.966   8.437 -0.1958  0.8491 -0.1388
  207MOL0     C27817   4.280   7.036   8.536  1.0003 -0.5211  0.9368
  207MOL0     O27818   4.147   7.019   8.557  0.2046 -0.6192 -0.2210
  207MOL0     C27819   4.090   7.077   8.672 -0.2754  0.2675 -0.3588
  207MOL0     C27820   3.946   7.030   8.690 -0.2907 -0.1991  0.7130
  207MOL0     C27821   3.887   7.055   8.826 -0.5124 -0.3930 -0.0944
  207MOL0     C27822   3.754   6.975   8.843  0.2699 -0.6590 -0.5381
  207MOL0     C27823   3.664   7.049   8.952  0.5027  0.0780  0.1704
  207MOL0     C27824   3.543   7.109   8.875 -0.0556 -0.8697 -1.2025
  207MOL0     C27825   3.568   7.227   8.786  0.2782  0.3281 -0.1360
  207MOL0     C27826   3.612   7.345   8.872 -0.0418 -0.4136 -0.2160
  207MOL0     N27827   3.529   7.470   8.864 -0.3855  0.0535  0.1550
  207MOL0     C27828   3.387   7.478   8.877 -0.1785 -0.2685 -0.0106
  207MOL0     C27829   3.361   7.605   8.825  0.9650  0.7055  0.3352
  207MOL0     C27830   3.236   7.670   8.777  0.2114 -0.8383 -0.4396
  207MOL0     C27831   3.199   7.605   8.642 -0.3238  0.6570 -0.3071
  207MOL0     C27832   3.070   7.679   8.595 -0.3092  0.2250 -0.7904
  207MOL0     C27833   3.037   7.666   8.441  0.4040  0.2597 -0.2478
  207MOL0     O27834   2.928   7.751   8.413  0.6252 -0.3130  0.8829
  207MOL0     C27835   2.816   7.689   8.362 -0.0889  0.3197 -0.9099
  207MOL0     C27836   2.751   7.585   8.415 -1.1864  0.3552 -0.1720
  207MOL0     C27837   2.635   7.527   8.351  0.1673 -0.2781  0.0701
  207MOL0     C27838   2.587   7.397   8.410 -0.3048 -1.0209  0.1530
  207MOL0     C27839   2.580   7.591   8.237  0.3560  0.1551  0.0872
  207MOL0     C27840   2.465   7.544   8.158 -0.8089  0.1707  0.1656
  207MOL0     O27841   2.433   7.415   8.167  0.2965  0.0965  0.1348
  207MOL0     C27842   2.318   7.364   8.105  0.1163  0.5570 -0.6343
  207MOL0     C27843   2.325   7.253   8.026  0.0534 -0.9325 -0.5258
  207MOL0     C27844   2.219   7.204   7.952  0.4738 -0.3951 -0.2513
  207MOL0     C27845   2.094   7.272   7.963 -0.1131 -0.3084 -0.2088
  207MOL0     O27846   1.997   7.235   7.874  0.3879  0.0597 -0.6362
  207MOL0     C27847   1.861   7.272   7.899  0.2639 -0.4267  0.0178
  207MOL0     C27848   1.777   7.214   7.787 -1.0814 -0.3159 -0.0706
  207MOL0     C27849   1.790   7.061   7.804 -1.0575 -0.3264 -0.4513
  207MOL0     C27850   1.715   6.990   7.690 -0.8694 -0.3176 -0.0211
  207MOL0     C27851   1.629   6.880   7.744 -0.2220 -0.3726  0.2760
  207MOL0     C27852   1.555   6.814   7.633 -0.5824  0.0493  0.0838
  207MOL0     C27853   1.438   6.720   7.678  0.6422 -0.1768  0.0160
  207MOL0     C27854   1.484   6.628   7.798  0.0609 -0.1097 -0.7731
  207MOL0    Cl27855   1.615   6.522   7.754 -0.1624  0.2861  0.1121
  207MOL0     C27856   2.085   7.382   8.039  0.3786 -0.3683 -0.0428
  207MOL0     C27857   2.196   7.435   8.102 -1.2322 -0.6462  0.0156
  207MOL0     O27858   2.401   7.630   8.098 -0.8840 -0.0982 -0.4229
  207MOL0     C27859   2.627   7.719   8.205  0.5487 -0.2738  0.0272
  207MOL0     C27860   2.748   7.762   8.261  0.6006 -0.5462 -0.6836
  207MOL0     N27861   3.472   7.672   8.801  0.1211 -0.0795 -0.2709
  207MOL0     N27862   3.570   7.595   8.824 -0.7260  0.5196  0.0711
  207MOL0     C27863   4.351   7.141   8.600 -0.4332 -0.0905 -0.1120
  207MOL0     C27864   4.484   7.166   8.562 -0.2845  0.2506 -0.7748
  207MOL0     C27865   4.904   7.117   8.410  0.0496  0.3955  0.2071
  207MOL0     C27866   4.903   7.144   8.274 -0.6159 -0.1935 -0.6660
  207MOL0     C27867   5.017   7.189   8.208 -0.6273  0.0039 -0.4061
  207MOL0     C27868   5.146   7.185   8.271 -0.9087 -0.4394 -0.6665
  207MOL0     O27869   5.256   7.219   8.192 -0.1646  0.6041  0.3371
  207MOL0     C27870   5.380   7.254   8.254 -0.3253  0.5305  0.2200
  207MOL0     C27871   5.479   7.288   8.144  0.2792 -0.5828 -0.3900
  207MOL0     C27872   5.587   7.180   8.125 -0.5913 -0.5128  0.0566
  207MOL0     C27873   5.696   7.233   8.029  0.4127  0.5082 -0.5370
  207MOL0     C27874   5.817   7.152   8.036 -1.0177 -0.1750 -0.2872
  207MOL0     C27875   5.917   7.083   8.052  0.5262  0.9915 -0.1251
  207MOL0     C27876   5.148   7.160   8.410 -0.3805  0.4156 -0.1794
  207MOL0     C27877   5.030   7.129   8.474  1.5555 -0.9600  0.4431
  207MOL0     H27878   4.527   6.924   8.337 -0.4775 -0.0402  0.8446
  207MOL0     H27879   4.294   6.886   8.381  0.7928 -1.9742  2.7525
  207MOL0     H27880   4.144   7.037   8.758 -0.6156 -0.4370 -0.4651
  207MOL0     H27881   4.078   7.186   8.664 -1.5824  0.1605 -0.1159
  207MOL0     H27882   3.888   7.085   8.615  0.0352  1.4660  1.6335
  207MOL0     H27883   3.938   6.923   8.673 -3.1584 -0.3419  2.2720
  207MOL0     H27884   3.951   7.026   8.910  0.9361  0.2497 -0.9400
  207MOL0     H27885   3.873   7.162   8.843 -1.2992 -0.6961  1.3412
  207MOL0     H27886   3.701   6.962   8.748 -2.2581 -1.1113  0.8365
  207MOL0     H27887   3.778   6.875   8.879  2.3811  0.4872  1.4918
  207MOL0     H27888   3.626   6.968   9.014 -1.0053  0.4346 -0.2442
  207MOL0     H27889   3.715   7.113   9.025 -0.5863 -0.0340  1.0584
  207MOL0     H27890   3.500   7.028   8.816 -1.7212 -1.1773  0.3646
  207MOL0     H27891   3.460   7.136   8.940 -0.8099 -3.9532 -0.7195
  207MOL0     H27892   3.638   7.197   8.707  0.6576  0.4157  0.1661
  207MOL0     H27893   3.475   7.256   8.736  0.8768  0.4901 -1.1892
  207MOL0     H27894   3.716   7.370   8.847 -0.7487  3.3604  0.0575
  207MOL0     H27895   3.629   7.315   8.976 -0.9503 -1.0496 -0.2421
  207MOL0     H27896   3.311   7.401   8.886  1.0117 -1.4910 -0.0907
  207MOL0     H27897   3.156   7.658   8.850  0.9042 -1.3667  0.2477
  207MOL0     H27898   3.259   7.777   8.766  2.7745 -1.4338 -1.4826
  207MOL0     H27899   3.189   7.496   8.650  1.5896  0.5239  1.0315
  207MOL0     H27900   3.281   7.621   8.571  2.6817 -3.8905  1.6562
  207MOL0     H27901   3.102   7.783   8.597 -1.4729  0.5859  0.1504
  207MOL0     H27902   2.977   7.669   8.652 -2.4019  1.1643 -3.7255
  207MOL0     H27903   3.022   7.568   8.394  2.1926  1.0195 -2.5767
  207MOL0     H27904   3.124   7.702   8.386  1.0646 -1.3377 -0.2915
  207MOL0     H27905   2.799   7.534   8.498  0.1927  0.9627 -0.5865
  207MOL0     H27906   2.496   7.408   8.468 -0.0314  2.2054  0.1250
  207MOL0     H27907   2.568   7.322   8.332  1.0149 -2.7523  1.4043
  207MOL0     H27908   2.668   7.365   8.476  0.7444 -1.8039 -1.4497
  207MOL0     H27909   2.417   7.197   8.019  2.2012  2.3031 -0.4849
  207MOL0     H27910   2.227   7.132   7.871 -1.4644  0.4135 -1.2237
  207MOL0     H27911   1.819   7.247   7.996  2.7909  3.8273  2.5359
  207MOL0     H27912   1.851   7.379   7.875 -0.1857 -0.9644 -2.4061
  207MOL0     H27913   1.673   7.246   7.801 -0.4970  0.9853  1.5716
  207MOL0     H27914   1.816   7.253   7.692 -4.3174  2.6869 -0.3879
  207MOL0     H27915   1.744   7.027   7.897  2.0375 -1.4644  0.8157
  207MOL0     H27916   1.896   7.033   7.810 -1.3483 -1.2314  1.1647
  207MOL0     H27917   1.663   7.066   7.631  0.6628  0.7854  0.0013
  207MOL0     H27918   1.784   6.932   7.629 -1.2177 -2.0669  1.1857
  207MOL0     H27919   1.555   6.918   7.815  1.3689  0.1880  1.7124
  207MOL0     H27920   1.695   6.811   7.798  0.4883  0.4643  0.5007
  207MOL0     H27921   1.514   6.898   7.577  0.7430  0.3394 -0.4961
  207MOL0     H27922   1.627   6.756   7.575 -4.1062 -2.1412 -2.4824
  207MOL0     H27923   1.394   6.667   7.593 -0.6221  0.8025  0.0223
  207MOL0     H27924   1.364   6.789   7.720 -0.0516  0.2265 -1.7887
  207MOL0     H27925   1.398   6.579   7.844 -1.5642  2.5417 -0.7860
  207MOL0     H27926   1.520   6.692   7.879  0.7121  2.3780 -2.9120
  207MOL0     H27927   1.989   7.431   8.049  0.2692 -0.4273 -0.7225
  207MOL0     H27928   2.188   7.526   8.159 -0.5051  0.4735 -1.5773
  207MOL0     H27929   2.573   7.771   8.126 -1.7391 -0.7536  1.1894
  207MOL0     H27930   2.793   7.856   8.231 -1.6826  2.2621  3.5287
  207MOL0     H27931   4.304   7.217   8.661  2.4356  1.1921  0.6555
  207MOL0     H27932   4.535   7.246   8.614 -2.1744  1.7844 -1.1803
  207MOL0     H27933   4.807   7.156   8.226 -1.9324 -0.9289  1.6125
  207MOL0     H27934   5.014   7.216   8.102  0.7301  0.5594 -0.3249
  207MOL0     H27935   5.375   7.329   8.334  1.6908  0.0020  0.8902
  207MOL0     H27936   5.418   7.159   8.293 -2.5429 -0.7177 -0.4520
  207MOL0     H27937   5.525   7.385   8.164 -1.3018  0.3478 -1.0440
  207MOL0     H27938   5.422   7.307   8.052 -0.7020  2.8266  0.7697
  207MOL0     H27939   5.541   7.091   8.080 -1.0133 -1.0182  1.4192
  207MOL0     H27940   5.637   7.160   8.220 -0.1030  0.0229 -0.0834
  207MOL0     H27941   5.708   7.337   8.059  0.6075  1.1046 -2.5622
  207MOL0     H27942   5.659   7.233   7.927 -0.2583  0.2811 -0.3008
  207MOL0     H27943   6.009   7.033   8.075  0.4468  0.2544 -1.3077
  207MOL0     H27944   5.243   7.157   8.462  2.0068 -1.1114 -4.1170
  207MOL0     H27945   5.036   7.116   8.582 -0.2991 -1.6150  0.5157
  208MOL0     O27946   5.909   5.252   5.880 -0.1521 -0.9805 -0.2219
  208MOL0     C27947   5.877   5.257   5.757 -1.0908 -0.3904  0.1992
  208MOL0     O27948   5.953   5.317   5.656  0.9176 -0.0195 -0.1526
  208MOL0     C27949   6.075   5.367   5.685 -0.0351  0.6865  0.2403
  208MOL0     C27950   6.160   5.313   5.783  0.7751 -0.9872 -0.6077
  208MOL0     C27951   6.283   5.367   5.802  0.7303  0.7471 -0.1245
  208MOL0     C27952   6.328   5.475   5.733 -0.3586 -0.8743 -0.5125
  208MOL0     O27953   6.453   5.537   5.752 -0.2732 -0.0910  0.3475
  208MOL0     C27954   6.497   5.568   5.886  0.4706  0.2457 -0.5149
  208MOL0     C27955   6.476   5.720   5.914 -0.2577  0.4836 -1.5829
  208MOL0     C27956   6.582   5.755   6.019  0.2994 -1.2323 -0.2102
  208MOL0     C27957   6.561   5.900   6.062  0.1416 -0.2022 -0.2740
  208MOL0     C27958   6.619   5.944   6.198 -1.1473  0.1318 -0.0373
  208MOL0     C27959   6.563   6.080   6.252 -0.0852  0.3431 -0.0320
  208MOL0     C27960   6.635   6.121   6.380 -1.1348  0.2220 -0.5087
  208MOL0     C27961   6.609   6.266   6.431 -0.1781 -0.1990 -0.2335
  208MOL0     N27962   6.467   6.292   6.449  0.3807  0.5959  0.0310
  208MOL0     C27963   6.393   6.398   6.406  0.3388  0.2805 -0.1625
  208MOL0     C27964   6.266   6.371   6.447 -0.0292  0.4997 -0.3212
  208MOL0     C27965   6.161   6.474   6.411 -0.1242  0.2409 -0.3036
  208MOL0     C27966   6.048   6.416   6.323  0.1964 -0.2895  0.9017
  208MOL0     C27967   6.084   6.412   6.174 -0.0118 -0.4079 -0.4181
  208MOL0     C27968   5.963   6.378   6.079 -1.5635  0.7408  0.4198
  208MOL0     O27969   5.863   6.476   6.079 -0.4336 -0.2323  0.4273
  208MOL0     C27970   5.737   6.459   6.023 -0.6867  0.7021 -0.3615
  208MOL0     C27971   5.639   6.550   6.051  1.0115 -0.2535 -0.3381
  208MOL0     C27972   5.511   6.527   5.996 -0.2631  0.2981  0.5390
  208MOL0     C27973   5.410   6.629   6.047 -0.6682  0.0547  0.8162
  208MOL0     C27974   5.486   6.418   5.911  0.7878  0.6242 -0.5089
  208MOL0     C27975   5.359   6.409   5.836 -0.0076 -0.1002  0.7261
  208MOL0     O27976   5.349   6.490   5.725  0.3385  0.0557  0.4939
  208MOL0     C27977   5.241   6.480   5.646 -0.1226  1.1071  1.1994
  208MOL0     C27978   5.274   6.525   5.526  0.1798 -0.4034 -1.0304
  208MOL0     C27979   5.201   6.508   5.406 -0.0253 -0.1408 -0.0439
  208MOL0     C27980   5.077   6.455   5.418  0.1604  0.6287 -0.1041
  208MOL0     O27981   5.014   6.421   5.310 -0.0447 -0.5993 -0.2237
  208MOL0     C27982   4.882   6.477   5.294 -0.0611 -0.5059 -0.8196
  208MOL0     C27983   4.839   6.463   5.151 -0.7539 -0.3131  0.4765
  208MOL0     C27984   4.817   6.320   5.108 -0.5548 -1.0549  0.3983
  208MOL0     C27985   4.731   6.315   4.986  0.1716  0.0209  0.0627
  208MOL0     C27986   4.719   6.165   4.945  0.2248  0.0579  0.2076
  208MOL0     C27987   4.649   6.163   4.808 -0.7215  0.7688  0.0568
  208MOL0     C27988   4.671   6.023   4.744 -0.5091 -0.1306 -0.0316
  208MOL0     C27989   4.599   5.995   4.604  0.1187  0.7077 -0.1638
  208MOL0    Cl27990   4.425   6.044   4.603 -0.4317 -0.2353  0.1365
  208MOL0     C27991   5.023   6.421   5.546 -0.2434 -0.2277 -0.7037
  208MOL0     C27992   5.109   6.433   5.659  0.0894  0.7580 -0.4063
  208MOL0     O27993   5.272   6.334   5.881 -0.0834 -0.5109  0.1750
  208MOL0     C27994   5.589   6.327   5.881 -0.0187 -0.2138  0.3439
  208MOL0     C27995   5.715   6.347   5.942  1.0892  0.1547  0.2400
  208MOL0     N27996   6.271   6.252   6.530 -0.0715 -0.0032 -0.2587
  208MOL0     N27997   6.386   6.211   6.520  0.2097  0.1588  0.2782
  208MOL0     C27998   6.246   5.533   5.636  0.1784 -0.0429  0.0454
  208MOL0     C27999   6.119   5.477   5.603 -0.4482 -0.0504 -0.4934
  208MOL0     C28000   5.745   5.212   5.714  0.7130 -0.1481  0.3143
  208MOL0     C28001   5.649   5.153   5.797 -1.0156 -0.1710  0.0193
  208MOL0     C28002   5.531   5.095   5.747  0.4791 -0.0104 -0.0610
  208MOL0     C28003   5.490   5.108   5.624  0.1425 -0.2853  0.1018
  208MOL0     O28004   5.371   5.049   5.592 -0.0341  0.2696  0.2361
  208MOL0     C28005   5.319   5.083   5.463 -0.2156  0.1833  0.1289
  208MOL0     C28006   5.195   5.005   5.423  1.0741  0.5899  0.4128
  208MOL0     C28007   5.110   5.071   5.317  0.3829  0.8480 -0.0267
  208MOL0     C28008   5.182   5.097   5.187 -0.0576 -0.2381  0.1672
  208MOL0     C28009   5.083   5.111   5.078 -0.1677  0.2376  0.5383
  208MOL0     C28010   5.015   5.113   4.975 -0.2624  0.3570 -0.9541
  208MOL0     C28011   5.575   5.177   5.539  1.0347 -1.2586 -0.1838
  208MOL0     C28012   5.705   5.226   5.584  0.2775  0.8670 -0.2238
  208MOL0     H28013   6.137   5.217   5.828  1.0122 -2.0870 -2.7186
  208MOL0     H28014   6.350   5.312   5.868  0.9779  0.3189 -0.7218
  208MOL0     H28015   6.436   5.512   5.958 -0.2277  1.9050  0.2388
  208MOL0     H28016   6.601   5.537   5.895  0.1070 -0.5046  1.6954
  208MOL0     H28017   6.489   5.779   5.823  1.8876  1.3114 -0.8112
  208MOL0     H28018   6.377   5.736   5.958  0.6418  2.3244 -0.0421
  208MOL0     H28019   6.575   5.690   6.107 -2.6966  4.2831  4.3102
  208MOL0     H28020   6.680   5.749   5.970 -0.1556 -3.2355 -0.9693
  208MOL0     H28021   6.592   5.966   5.981 -0.7004 -0.5888 -0.9319
  208MOL0     H28022   6.454   5.925   6.057  0.3533  0.4465 -3.3171
  208MOL0     H28023   6.602   5.869   6.276 -0.3322  1.9848  1.9952
  208MOL0     H28024   6.727   5.961   6.188 -1.0710 -0.5453 -0.4147
  208MOL0     H28025   6.596   6.149   6.174  3.9152  1.6064  2.4630
  208MOL0     H28026   6.457   6.076   6.280 -0.2431 -2.2041 -0.8273
  208MOL0     H28027   6.614   6.053   6.463 -2.2300  0.9539 -0.1685
  208MOL0     H28028   6.742   6.108   6.365 -1.0028  0.9685 -0.2771
  208MOL0     H28029   6.649   6.342   6.362 -2.6230  1.0082 -0.4116
  208MOL0     H28030   6.656   6.285   6.528 -1.1032  2.7148 -0.2656
  208MOL0     H28031   6.419   6.491   6.356 -2.1848  1.4066  0.4643
  208MOL0     H28032   6.116   6.501   6.506 -0.0688 -0.5390 -0.0481
  208MOL0     H28033   6.206   6.562   6.362  1.7875  0.4512  1.6667
  208MOL0     H28034   5.961   6.479   6.343  0.1252 -0.0941  0.0245
  208MOL0     H28035   6.009   6.316   6.347 -2.1008  0.6147  1.2484
  208MOL0     H28036   6.161   6.334   6.163  0.4825 -0.1318  0.9137
  208MOL0     H28037   6.132   6.504   6.138  3.2638 -1.8081  0.0330
  208MOL0     H28038   5.911   6.284   6.099  1.1765 -0.9426  0.2211
  208MOL0     H28039   6.003   6.356   5.980 -0.1256  0.0879  1.1024
  208MOL0     H28040   5.661   6.618   6.132  1.7898  0.8383 -1.4346
  208MOL0     H28041   5.314   6.584   6.075 -1.9718  1.5394 -0.9240
  208MOL0     H28042   5.443   6.687   6.134 -4.6401  0.8026  2.0659
  208MOL0     H28043   5.401   6.696   5.961 -0.4905 -0.6344  0.2521
  208MOL0     H28044   5.368   6.577   5.513  0.3196 -0.3604  0.0558
  208MOL0     H28045   5.242   6.540   5.311 -0.1582  2.1165  0.6188
  208MOL0     H28046   4.814   6.415   5.353  2.1011 -0.3126  2.0782
  208MOL0     H28047   4.883   6.577   5.339  5.3382 -1.8259  2.9226
  208MOL0     H28048   4.746   6.519   5.142 -0.6144 -0.2663 -0.8455
  208MOL0     H28049   4.925   6.491   5.089  0.5936 -1.1900  1.8784
  208MOL0     H28050   4.773   6.260   5.189 -2.5221 -0.9012 -0.4935
  208MOL0     H28051   4.910   6.273   5.077 -0.3613  0.5134 -1.5827
  208MOL0     H28052   4.635   6.362   5.008 -0.6660 -2.1938  1.5734
  208MOL0     H28053   4.785   6.373   4.911  1.3083  2.1359  2.3779
  208MOL0     H28054   4.651   6.119   5.017 -1.8737  1.4377 -0.7985
  208MOL0     H28055   4.813   6.111   4.963  0.1842 -0.1616 -0.2259
  208MOL0     H28056   4.545   6.190   4.830 -1.4618  0.6381 -2.8538
  208MOL0     H28057   4.688   6.246   4.749  3.6347 -0.3058  1.1017
  208MOL0     H28058   4.638   5.954   4.822  1.2938 -1.9672 -0.7919
  208MOL0     H28059   4.778   6.002   4.737 -0.6413 -0.1829 -3.1242
  208MOL0     H28060   4.597   5.888   4.583 -4.9209  1.0037 -2.7376
  208MOL0     H28061   4.653   6.053   4.529  1.2499  1.5312  1.2350
  208MOL0     H28062   4.921   6.389   5.565 -1.2711  3.3939  0.6715
  208MOL0     H28063   5.078   6.402   5.758 -0.1099 -0.3823 -0.8213
  208MOL0     H28064   5.573   6.244   5.814 -3.9768 -0.0437  0.8076
  208MOL0     H28065   5.792   6.276   5.912  1.1454 -0.0004  0.7437
  208MOL0     H28066   6.278   5.619   5.578 -0.5585  0.7944  0.8388
  208MOL0     H28067   6.056   5.513   5.522 -1.6306 -2.1043 -0.5364
  208MOL0     H28068   5.676   5.150   5.902  3.9120  1.6514 -0.9313
  208MOL0     H28069   5.465   5.039   5.813  0.7558  2.6774  2.7360
  208MOL0     H28070   5.285   5.187   5.474 -0.7235 -0.1120  1.5660
  208MOL0     H28071   5.386   5.076   5.377 -2.1891  1.5580 -1.6230
  208MOL0     H28072   5.134   4.977   5.509 -2.1548  0.1152 -1.8441
  208MOL0     H28073   5.223   4.904   5.392  1.0489  0.5049  0.6616
  208MOL0     H28074   5.062   5.163   5.350  1.1221  2.4615 -3.0783
  208MOL0     H28075   5.036   4.992   5.298  0.2134  1.5500 -2.6961
  208MOL0     H28076   5.244   5.010   5.162 -0.8651 -0.6434 -0.4598
  208MOL0     H28077   5.248   5.183   5.198  1.4544 -1.6022  3.0377
  208MOL0     H28078   4.976   5.109   4.875 -0.4408  2.9215 -1.0502
  208MOL0     H28079   5.567   5.187   5.431 -0.1280  1.2066  0.0687
  208MOL0     H28080   5.772   5.264   5.507  1.9493 -1.7316 -0.1704
  209MOL0     O28081   8.333   4.498   9.375 -0.2833 -0.0249 -0.6614
  209MOL0     C28082   8.427   4.502   9.458  0.3796 -0.1431  0.1987
  209MOL0     O28083   8.413   4.540   9.590  0.5185  0.0770  0.4976
  209MOL0     C28084   8.301   4.509   9.666 -0.1103 -0.6390  0.1713
  209MOL0     C28085   8.178   4.449   9.625 -0.0739  0.0038  0.2432
  209MOL0     C28086   8.074   4.435   9.716  0.2429  0.1860  0.2971
  209MOL0     C28087   8.098   4.473   9.851  0.1901 -0.5378  0.2235
  209MOL0     O28088   8.019   4.453   9.962  0.1788 -0.1168 -0.0363
  209MOL0     C28089   7.942   4.333   9.958  0.4674  0.6273  0.2117
  209MOL0     C28090   7.796   4.373   9.977 -0.0659 -0.0999 -0.1773
  209MOL0     C28091   7.715   4.253   9.981 -0.1984 -0.3510 -0.0852
  209MOL0     C28092   7.563   4.291   9.971  0.4645 -0.5085 -0.8538
  209MOL0     C28093   7.458   4.182  10.001 -0.2550  0.9617  0.6042
  209MOL0     C28094   7.460   4.124  10.142 -0.0363 -0.0345  0.2968
  209MOL0     C28095   7.337   4.035  10.152  0.1688  0.0555  0.2833
  209MOL0     C28096   7.309   3.958  10.287  0.6250 -0.0587 -0.5693
  209MOL0     N28097   7.251   4.044  10.399  0.7357  0.1138 -0.4098
  209MOL0     C28098   7.133   4.122  10.398 -0.6285  0.1874  0.6259
  209MOL0     C28099   7.120   4.175  10.520  0.0141  0.2529 -0.4934
  209MOL0     C28100   7.026   4.279  10.567  0.6072 -0.5219 -0.1050
  209MOL0     C28101   6.895   4.221  10.626  0.1268 -0.1986 -0.2614
  209MOL0     C28102   6.813   4.131  10.533 -0.0982 -0.4604  0.4827
  209MOL0     C28103   6.658   4.155  10.562  0.1035  0.1834  0.2544
  209MOL0     O28104   6.618   4.294  10.542  0.7305 -0.9084 -0.1318
  209MOL0     C28105   6.483   4.307  10.570 -0.2345  0.1841 -0.8271
  209MOL0     C28106   6.428   4.340  10.696 -0.3101  0.3189 -0.3880
  209MOL0     C28107   6.291   4.318  10.716 -0.1266 -0.2485 -1.7248
  209MOL0     C28108   6.232   4.374  10.851 -0.1215 -0.7713  0.0569
  209MOL0     C28109   6.210   4.257  10.613 -0.6816 -0.8734 -0.6531
  209MOL0     C28110   6.066   4.242  10.621  0.6447  0.0401  0.6254
  209MOL0     O28111   6.002   4.259  10.744 -0.6834  0.0016 -0.1801
  209MOL0     C28112   5.865   4.267  10.737  0.0672  0.7000  0.2331
  209MOL0     C28113   5.808   4.396  10.756 -0.5809  0.5743 -0.3872
  209MOL0     C28114   5.669   4.406  10.756  0.3155 -0.2521  0.3508
  209MOL0     C28115   5.587   4.296  10.734 -0.3089 -0.6554 -0.1034
  209MOL0     O28116   5.452   4.299  10.741  0.0698 -0.9344  0.5666
  209MOL0     C28117   5.395   4.422  10.758 -0.4735 -0.9415  0.9691
  209MOL0     C28118   5.247   4.401  10.749  0.3828  0.3252  0.1212
  209MOL0     C28119   5.198   4.273  10.833 -0.2135  0.5877  0.3925
  209MOL0     C28120   5.048   4.285  10.868 -0.7738 -0.0151  0.0594
  209MOL0     C28121   4.997   4.157  10.951  0.6547  1.1443  0.6591
  209MOL0     C28122   4.854   4.181  10.993 -0.1726 -0.1174 -0.1718
  209MOL0     C28123   4.854   4.298  11.084  1.1185 -0.3462  0.0822
  209MOL0     C28124   4.727   4.301  11.165 -0.2127  0.8547 -0.3965
  209MOL0    Cl28125   4.592   4.314  11.046 -0.2003 -0.6574  0.0019
  209MOL0     C28126   5.648   4.172  10.698  0.0480 -0.0197  0.1676
  209MOL0     C28127   5.783   4.157  10.713  0.1055 -0.5666  0.7239
  209MOL0     O28128   6.014   4.188  10.525  0.0237  0.6304 -0.1047
  209MOL0     C28129   6.264   4.238  10.487 -0.5080  0.3644 -0.3865
  209MOL0     C28130   6.397   4.274  10.465 -0.7790 -0.1550  0.3998
  209MOL0     N28131   7.230   4.142  10.589 -0.8880  0.9267 -0.1478
  209MOL0     N28132   7.305   4.054  10.527  0.9363  0.7536  0.8472
  209MOL0     C28133   8.222   4.528   9.888 -0.4508 -0.3629  0.4348
  209MOL0     C28134   8.325   4.550   9.798  0.1268 -0.3038 -0.1577
  209MOL0     C28135   8.559   4.484   9.392  0.5537 -0.8789 -1.3491
  209MOL0     C28136   8.655   4.429   9.473  1.0448  0.4612 -0.4766
  209MOL0     C28137   8.783   4.391   9.428 -0.1178  0.0565  0.8134
  209MOL0     C28138   8.809   4.403   9.290  0.2165  0.5762 -0.3080
  209MOL0     O28139   8.939   4.360   9.258  0.7483 -0.0497 -0.4701
  209MOL0     C28140   9.002   4.395   9.128  0.2096 -0.3508  0.0319
  209MOL0     C28141   9.110   4.301   9.100 -0.1472 -0.1343  0.8655
  209MOL0     C28142   9.237   4.293   9.194  0.0468  0.3425 -1.9671
  209MOL0     C28143   9.332   4.179   9.161 -0.9315 -0.9095 -0.1790
  209MOL0     C28144   9.449   4.195   9.240  0.1868  0.2688 -1.0228
  209MOL0     C28145   9.553   4.205   9.309  0.2584 -0.5406  0.0995
  209MOL0     C28146   8.706   4.450   9.209 -0.2923 -0.9247 -0.3169
  209MOL0     C28147   8.583   4.494   9.263 -0.6354  0.1793  0.2764
  209MOL0     H28148   8.147   4.414   9.527 -3.9822  1.3476  0.8144
  209MOL0     H28149   7.978   4.398   9.681  0.1628  1.8409 -1.3594
  209MOL0     H28150   7.961   4.275   9.867  0.8201 -0.5550  1.0137
  209MOL0     H28151   7.978   4.259  10.029 -1.7978 -1.3462 -0.5600
  209MOL0     H28152   7.780   4.438  10.064 -0.8860 -0.6028  0.0613
  209MOL0     H28153   7.765   4.440   9.897  1.5786  1.9610  0.7959
  209MOL0     H28154   7.741   4.197   9.890  0.6213  1.1635 -0.8098
  209MOL0     H28155   7.748   4.183  10.058 -0.0133  0.4766  0.5993
  209MOL0     H28156   7.538   4.372  10.040  0.0476 -1.2603 -0.1137
  209MOL0     H28157   7.541   4.328   9.870 -0.5057 -1.6404 -1.0814
  209MOL0     H28158   7.361   4.218   9.965  0.4241  0.8740 -1.4054
  209MOL0     H28159   7.478   4.103   9.929  2.1342 -0.4187  2.6037
  209MOL0     H28160   7.558   4.076  10.152 -0.6417 -1.4683 -0.4583
  209MOL0     H28161   7.444   4.209  10.210 -3.7052  0.1521 -0.6051
  209MOL0     H28162   7.248   4.095  10.132  0.9498  0.6971 -1.4832
  209MOL0     H28163   7.349   3.963  10.071 -0.4404  1.9030 -1.5287
  209MOL0     H28164   7.406   3.917  10.315  0.3325 -2.3328 -2.5662
  209MOL0     H28165   7.239   3.875  10.278  0.7570 -0.1429 -0.8086
  209MOL0     H28166   7.063   4.141  10.316  0.7967  2.6236 -0.1221
  209MOL0     H28167   7.067   4.341  10.647 -3.5643  3.0837 -0.3798
  209MOL0     H28168   7.002   4.344  10.483  1.3427 -0.2414 -0.1060
  209MOL0     H28169   6.818   4.293  10.656 -0.1579  0.0232 -1.4783
  209MOL0     H28170   6.923   4.159  10.712 -0.6191 -0.5137 -0.2341
  209MOL0     H28171   6.813   4.024  10.557 -0.8497  0.0468  3.1419
  209MOL0     H28172   6.830   4.146  10.426  1.1403 -1.5945  0.4866
  209MOL0     H28173   6.633   4.125  10.664  0.7654 -1.7427 -0.1147
  209MOL0     H28174   6.609   4.083  10.496  2.0043 -0.2382 -0.7470
  209MOL0     H28175   6.491   4.377  10.775  1.6982  0.4852 -1.9840
  209MOL0     H28176   6.170   4.461  10.833  2.1177  1.4928  2.4647
  209MOL0     H28177   6.180   4.289  10.896 -1.8293  0.8694  1.3189
  209MOL0     H28178   6.318   4.397  10.915  0.5569 -1.8686 -0.4083
  209MOL0     H28179   5.860   4.491  10.760 -0.1864  0.4338 -1.5967
  209MOL0     H28180   5.632   4.508  10.768  1.1310  0.0268  0.5428
  209MOL0     H28181   5.423   4.469  10.853  3.0692 -0.6210 -0.0846
  209MOL0     H28182   5.420   4.500  10.686  1.3040  0.7024  3.1911
  209MOL0     H28183   5.202   4.496  10.781  1.5807  0.3908  1.7268
  209MOL0     H28184   5.212   4.375  10.648 -1.3262 -1.2243  1.0687
  209MOL0     H28185   5.245   4.251  10.929  1.8527 -1.5556 -0.9877
  209MOL0     H28186   5.218   4.187  10.767  2.7114  0.1907  1.6465
  209MOL0     H28187   5.049   4.367  10.940 -0.1391  0.1625 -0.1438
  209MOL0     H28188   4.985   4.308  10.781  1.4605 -1.3606 -2.0572
  209MOL0     H28189   5.065   4.139  11.035  2.2966 -0.1576 -0.8892
  209MOL0     H28190   4.995   4.068  10.888 -4.4475 -1.4394  3.7786
  209MOL0     H28191   4.810   4.209  10.897  3.4829  3.2482 -1.1150
  209MOL0     H28192   4.803   4.094  11.036 -0.6024  0.1868 -0.0587
  209MOL0     H28193   4.864   4.400  11.046 -0.9276  0.6714  2.0668
  209MOL0     H28194   4.935   4.288  11.156  0.0841 -1.0600  1.1881
  209MOL0     H28195   4.743   4.386  11.232  1.0777 -0.3875  0.9562
  209MOL0     H28196   4.721   4.211  11.228  0.3364  0.0615 -1.4317
  209MOL0     H28197   5.600   4.080  10.665 -0.5799 -0.0822  1.2180
  209MOL0     H28198   5.834   4.067  10.681  1.1812  1.5116 -4.2989
  209MOL0     H28199   6.202   4.211  10.401 -3.8623 -1.4039  2.3065
  209MOL0     H28200   6.442   4.272  10.366 -0.5222  1.3476  0.4740
  209MOL0     H28201   8.230   4.546   9.994 -1.9328  3.5891  0.0669
  209MOL0     H28202   8.421   4.594   9.822 -1.1282  2.1955  0.6306
  209MOL0     H28203   8.623   4.397   9.571  0.6926 -1.8589 -1.2893
  209MOL0     H28204   8.845   4.336   9.498 -0.5720  0.4580  1.5399
  209MOL0     H28205   8.923   4.371   9.056 -0.4454  0.3769  0.4940
  209MOL0     H28206   9.019   4.503   9.133  0.2663 -0.3986  4.1540
  209MOL0     H28207   9.154   4.336   9.006 -2.6521  2.9071  0.6683
  209MOL0     H28208   9.068   4.201   9.083  2.0169 -0.7767 -1.2310
  209MOL0     H28209   9.211   4.285   9.300  2.6021 -2.6128 -1.4445
  209MOL0     H28210   9.281   4.393   9.184  0.4424  0.3933 -0.0845
  209MOL0     H28211   9.362   4.172   9.056  0.2887 -2.0735  0.2047
  209MOL0     H28212   9.286   4.081   9.176 -0.7683 -1.2343 -1.5887
  209MOL0     H28213   9.646   4.219   9.360  0.1603  1.7287 -0.2711
  209MOL0     H28214   8.724   4.434   9.103 -3.2265 -3.5393 -0.5525
  209MOL0     H28215   8.498   4.522   9.201  0.1859 -1.0037 -1.4616
  210MOL0     O28216   0.864   8.448   1.956 -0.9501 -0.7447  0.5849
  210MOL0     C28217   0.824   8.344   1.909  0.6729  0.1070  0.8096
  210MOL0     O28218   0.686   8.315   1.883  0.2987 -0.2053  0.2308
  210MOL0     C28219   0.587   8.408   1.882  0.2593 -0.0585  0.0430
  210MOL0     C28220   0.597   8.543   1.866 -0.6775  0.5482 -0.2408
  210MOL0     C28221   0.488   8.624   1.888 -0.4912 -0.4250 -0.6783
  210MOL0     C28222   0.366   8.570   1.893  0.1853  0.4993 -0.2887
  210MOL0     O28223   0.255   8.646   1.916 -0.5230  1.0606  0.0395
  210MOL0     C28224   0.262   8.734   2.030 -0.3147 -0.0157  1.0598
  210MOL0     C28225   0.134   8.720   2.102  0.4712 -0.6639 -0.2953
  210MOL0     C28226   0.012   8.757   2.019 -0.0267 -0.5261 -0.3342
  210MOL0     C28227  -0.112   8.756   2.111  0.2062 -0.9071 -0.5934
  210MOL0     C28228  -0.234   8.818   2.041  0.2470 -0.6580 -0.8375
  210MOL0     C28229  -0.339   8.856   2.149  0.1885 -0.1646 -0.6156
  210MOL0     C28230  -0.467   8.921   2.090 -0.4787  0.7707 -0.1871
  210MOL0     C28231  -0.555   8.973   2.202  0.2485  0.2317  0.2141
  210MOL0     N28232  -0.658   9.063   2.155 -0.2512  0.3040  0.1171
  210MOL0     C28233  -0.776   9.018   2.120  0.8578 -0.6618 -0.2835
  210MOL0     C28234  -0.837   9.129   2.076  0.7271 -0.7982 -0.5160
  210MOL0     C28235  -0.981   9.140   2.040  0.1664 -0.9505  0.1127
  210MOL0     C28236  -1.062   9.272   2.041 -0.0644 -0.0219 -0.5361
  210MOL0     C28237  -1.137   9.292   2.177 -0.2942  0.2336  0.1225
  210MOL0     C28238  -1.215   9.418   2.177 -0.3566 -0.0985  0.2768
  210MOL0     O28239  -1.275   9.424   2.311 -0.1388 -0.9123  0.3128
  210MOL0     C28240  -1.395   9.364   2.340  0.0192 -0.7374 -0.0625
  210MOL0     C28241  -1.467   9.283   2.251  0.0871 -0.7080 -0.3202
  210MOL0     C28242  -1.587   9.223   2.290 -0.1864  0.0678  0.1015
  210MOL0     C28243  -1.677   9.171   2.184  0.9293 -0.2768 -0.0373
  210MOL0     C28244  -1.622   9.216   2.431 -0.0784  0.5877 -0.4455
  210MOL0     C28245  -1.735   9.143   2.482  0.3245  0.0147  0.4756
  210MOL0     O28246  -1.745   9.014   2.447  0.2012 -0.4572 -0.0456
  210MOL0     C28247  -1.852   8.952   2.495  0.6891  0.0248  0.2682
  210MOL0     C28248  -1.986   9.002   2.495 -0.3146  0.2519 -0.5491
  210MOL0     C28249  -2.088   8.924   2.547 -0.2187  0.1242  0.3204
  210MOL0     C28250  -2.069   8.799   2.605  1.0370  0.0256 -0.6725
  210MOL0     O28251  -2.171   8.725   2.659 -0.0141 -0.0765  0.2781
  210MOL0     C28252  -2.283   8.714   2.588 -0.5764  0.0928 -0.0791
  210MOL0     C28253  -2.358   8.594   2.656  0.7202 -0.4646  0.7007
  210MOL0     C28254  -2.513   8.586   2.616  0.2541 -0.2187 -0.3755
  210MOL0     C28255  -2.546   8.449   2.567 -0.4440 -1.1107 -0.5691
  210MOL0     C28256  -2.696   8.439   2.544 -0.3573 -0.8262  0.6269
  210MOL0     C28257  -2.746   8.296   2.547 -0.1072 -0.9785 -0.1885
  210MOL0     C28258  -2.899   8.296   2.535 -0.3549  0.0361 -0.9233
  210MOL0     C28259  -2.951   8.158   2.476 -0.0873 -0.7573 -0.2456
  210MOL0    Cl28260  -2.931   8.146   2.289 -0.1036 -0.7177  0.3016
  210MOL0     C28261  -1.940   8.754   2.608 -0.4453  0.5660  0.6411
  210MOL0     C28262  -1.837   8.827   2.549  0.1534  0.2464 -0.0952
  210MOL0     O28263  -1.808   9.202   2.559 -0.3315  0.0023  0.1561
  210MOL0     C28264  -1.553   9.304   2.516 -0.0317  0.6513  0.4293
  210MOL0     C28265  -1.444   9.371   2.474  0.0456 -0.2495  0.3199
  210MOL0     N28266  -0.753   9.241   2.089 -0.0818  0.6165 -0.1682
  210MOL0     N28267  -0.640   9.194   2.125 -0.7962  0.2431  0.1386
  210MOL0     C28268   0.356   8.428   1.885 -0.0999 -0.1677 -0.0317
  210MOL0     C28269   0.467   8.350   1.877 -0.0201 -0.2428 -0.3410
  210MOL0     C28270   0.915   8.222   1.905 -0.0416  0.4488  0.0010
  210MOL0     C28271   0.868   8.093   1.914  0.1015  0.2819  0.6378
  210MOL0     C28272   0.962   7.995   1.898  0.2480  0.7499 -0.1590
  210MOL0     C28273   1.095   8.006   1.873 -0.2455 -0.6488 -0.8935
  210MOL0     O28274   1.162   7.889   1.859 -0.1839 -0.5567 -0.5867
  210MOL0     C28275   1.253   7.892   1.746  0.6839  0.4814  0.1265
  210MOL0     C28276   1.185   7.908   1.605 -0.2497 -0.8574 -0.6124
  210MOL0     C28277   1.063   7.826   1.575 -0.3849 -0.1423  0.2971
  210MOL0     C28278   0.969   7.890   1.471 -0.0444 -0.1350 -0.3652
  210MOL0     C28279   0.883   7.981   1.551 -0.1645  0.3483  0.6907
  210MOL0     C28280   0.805   8.060   1.603  0.2444 -0.1773 -0.1135
  210MOL0     C28281   1.139   8.138   1.878 -0.1888 -0.0687  0.2665
  210MOL0     C28282   1.049   8.244   1.891 -0.3085  0.8047  0.0968
  210MOL0     H28283   0.698   8.582   1.864 -1.1990  1.9273 -0.7584
  210MOL0     H28284   0.513   8.729   1.897  1.1736 -0.7761 -0.8693
  210MOL0     H28285   0.339   8.700   2.100  1.7733 -0.9909 -1.5520
  210MOL0     H28286   0.285   8.838   2.003  1.2127 -0.6733 -0.3905
  210MOL0     H28287   0.117   8.615   2.129 -2.4070 -1.1066 -3.2888
  210MOL0     H28288   0.134   8.779   2.194 -1.3816 -2.9208  1.2801
  210MOL0     H28289   0.022   8.860   1.984 -0.3039 -0.2437  0.3977
  210MOL0     H28290   0.005   8.688   1.934 -0.7439 -0.3290 -0.4378
  210MOL0     H28291  -0.143   8.656   2.143  1.6771 -0.3423  2.9919
  210MOL0     H28292  -0.092   8.809   2.205  0.8897 -1.4596 -0.4169
  210MOL0     H28293  -0.215   8.904   1.976  2.2365  0.5219  1.1612
  210MOL0     H28294  -0.285   8.741   1.982 -1.2456 -2.3014  2.3351
  210MOL0     H28295  -0.374   8.772   2.208 -0.4690  0.6358  0.1525
  210MOL0     H28296  -0.287   8.927   2.214  1.7123 -1.3620 -0.4553
  210MOL0     H28297  -0.441   9.005   2.025 -1.0713 -0.2646 -1.8490
  210MOL0     H28298  -0.515   8.852   2.020 -2.6951  1.0056  1.0302
  210MOL0     H28299  -0.482   9.021   2.267  0.5596  0.8234 -0.5617
  210MOL0     H28300  -0.602   8.891   2.257 -0.9430  0.3704 -0.5536
  210MOL0     H28301  -0.821   8.920   2.135 -1.7478  0.5657  0.4961
  210MOL0     H28302  -0.992   9.110   1.935 -1.2426  0.7843 -0.2907
  210MOL0     H28303  -1.038   9.067   2.098 -1.7173  0.4002  0.0921
  210MOL0     H28304  -1.132   9.290   1.958  2.5601  1.9531 -2.5048
  210MOL0     H28305  -0.986   9.350   2.028  1.8662 -1.7833 -0.3225
  210MOL0     H28306  -1.056   9.301   2.250  0.7176  0.7734 -1.0328
  210MOL0     H28307  -1.206   9.208   2.189  0.2977  0.1170  3.8212
  210MOL0     H28308  -1.296   9.412   2.103  0.7784  0.8773 -1.0964
  210MOL0     H28309  -1.143   9.494   2.146  1.0489 -1.9014 -1.1498
  210MOL0     H28310  -1.450   9.286   2.144 -3.0640  0.3743 -0.9024
  210MOL0     H28311  -1.668   9.062   2.191 -0.2385 -0.3586  0.5982
  210MOL0     H28312  -1.777   9.202   2.219  0.9408  1.7020 -1.5905
  210MOL0     H28313  -1.650   9.223   2.092 -0.1565  0.1588 -0.1249
  210MOL0     H28314  -2.012   9.103   2.465  3.3886  2.1186  1.8073
  210MOL0     H28315  -2.184   8.972   2.565  0.6927  1.7495  1.0269
  210MOL0     H28316  -2.349   8.795   2.621 -1.6050 -0.5631 -0.5019
  210MOL0     H28317  -2.261   8.708   2.481  4.7773 -2.3555  0.8074
  210MOL0     H28318  -2.307   8.502   2.626 -1.0100 -0.7566 -1.6238
  210MOL0     H28319  -2.362   8.623   2.761  1.2285 -0.7515  0.8035
  210MOL0     H28320  -2.541   8.662   2.543  2.2284  1.1013  0.1771
  210MOL0     H28321  -2.563   8.613   2.709 -0.6116  1.7798 -1.3656
  210MOL0     H28322  -2.500   8.436   2.469  2.1106  2.7164 -0.1178
  210MOL0     H28323  -2.510   8.373   2.637 -1.0584  0.7324  1.8918
  210MOL0     H28324  -2.729   8.485   2.451  0.3809  1.0505  1.2476
  210MOL0     H28325  -2.756   8.481   2.625 -1.2395 -0.1224 -0.3629
  210MOL0     H28326  -2.695   8.241   2.467  0.3588  1.3544 -1.6028
  210MOL0     H28327  -2.720   8.242   2.638  1.8892  2.2482  1.3361
  210MOL0     H28328  -2.928   8.380   2.471 -0.8085 -0.9046 -1.9911
  210MOL0     H28329  -2.953   8.311   2.628  1.8885  0.0444  0.4679
  210MOL0     H28330  -3.054   8.135   2.504 -1.0890  0.8535 -2.3319
  210MOL0     H28331  -2.894   8.079   2.525  2.1463  1.0903  0.2955
  210MOL0     H28332  -1.922   8.650   2.635  3.4473  0.8808 -0.0842
  210MOL0     H28333  -1.736   8.789   2.541  1.5965  3.3931  1.3020
  210MOL0     H28334  -1.593   9.302   2.617  0.0643  0.1998  0.4600
  210MOL0     H28335  -1.398   9.430   2.553  2.1446  2.4383 -2.6313
  210MOL0     H28336   0.256   8.387   1.882  0.1227 -0.6926 -0.3511
  210MOL0     H28337   0.463   8.242   1.875 -1.0565 -0.2167 -0.1853
  210MOL0     H28338   0.763   8.076   1.935 -0.0035 -0.5525 -0.4534
  210MOL0     H28339   0.915   7.897   1.895 -0.5864  1.1496 -3.1599
  210MOL0     H28340   1.321   7.977   1.760  0.1917  0.8973  0.0016
  210MOL0     H28341   1.314   7.802   1.755  1.1681  0.9281  1.6885
  210MOL0     H28342   1.258   7.891   1.525 -0.4711 -2.2784 -0.5317
  210MOL0     H28343   1.163   8.015   1.599 -0.3726 -0.8814 -0.6024
  210MOL0     H28344   1.005   7.805   1.665  2.5794 -2.4147  1.8475
  210MOL0     H28345   1.104   7.739   1.523 -0.7667  0.8480 -1.7974
  210MOL0     H28346   0.908   7.819   1.415  1.0682 -0.9567 -0.5498
  210MOL0     H28347   1.020   7.959   1.403  0.6271  0.0720  0.3271
  210MOL0     H28348   0.739   8.132   1.647  0.8488  1.2658 -1.4734
  210MOL0     H28349   1.246   8.146   1.889  0.0663 -1.2340 -1.0800
  210MOL0     H28350   1.082   8.347   1.899 -0.5049  0.9414 -0.7819
  211MOL0     O28351   2.829   0.198  11.127  0.0235  0.5924  0.2151
  211MOL0     C28352   2.844   0.260  11.223 -0.2770  0.1172  0.5207
  211MOL0     O28353   2.962   0.309  11.254  0.7315 -0.4110 -0.4642
  211MOL0     C28354   3.084   0.280  11.195 -0.7912 -0.3046 -0.1944
  211MOL0     C28355   3.107   0.211  11.069 -0.1128 -0.6742  0.3935
  211MOL0     C28356   3.241   0.193  11.029 -0.1508  0.9703  0.6925
  211MOL0     C28357   3.353   0.221  11.104 -0.4363 -0.8670  0.5892
  211MOL0     O28358   3.478   0.196  11.054  0.2023 -0.3735 -0.0947
  211MOL0     C28359   3.594   0.216  11.137  0.0751 -0.4826  0.1163
  211MOL0     C28360   3.723   0.179  11.074 -0.1044  0.6693  0.2995
  211MOL0     C28361   3.846   0.252  11.140 -0.5413 -0.3130  0.6442
  211MOL0     C28362   3.975   0.196  11.087 -0.5261  0.4088 -0.5915
  211MOL0     C28363   4.101   0.272  11.125 -0.7891 -0.3995 -0.1197
  211MOL0     C28364   4.234   0.224  11.068 -0.9139 -0.1943  0.4715
  211MOL0     C28365   4.327   0.350  11.042 -0.5859  0.3005  0.5082
  211MOL0     C28366   4.342   0.433  11.173 -0.1283 -0.6761  0.2266
  211MOL0     N28367   4.414   0.357  11.274  0.0946 -1.2444 -0.8954
  211MOL0     C28368   4.548   0.349  11.287 -0.2577 -0.3306 -0.6549
  211MOL0     C28369   4.563   0.293  11.420  0.1188  0.1254  0.2545
  211MOL0     C28370   4.699   0.241  11.485 -0.6693  0.9680 -0.1962
  211MOL0     C28371   4.839   0.282  11.430 -0.5057 -0.3443  0.3929
  211MOL0     C28372   4.940   0.258  11.540  0.1325 -0.1121  0.3049
  211MOL0     C28373   5.083   0.275  11.487 -0.2540 -0.0255  0.2815
  211MOL0     O28374   5.164   0.245  11.595  0.0343  0.0053  0.8051
  211MOL0     C28375   5.300   0.246  11.578  0.1255  0.8591  0.1478
  211MOL0     C28376   5.381   0.225  11.694  0.4199  0.2418 -0.3100
  211MOL0     C28377   5.529   0.233  11.690 -0.1837 -0.2107  0.5608
  211MOL0     C28378   5.592   0.188  11.812  0.1175  0.1582 -0.4260
  211MOL0     C28379   5.595   0.262  11.566  0.6921  0.2524 -0.1930
  211MOL0     C28380   5.743   0.262  11.551 -0.1800  0.2972 -0.0333
  211MOL0     O28381   5.819   0.206  11.653 -0.1368 -0.2827  0.5317
  211MOL0     C28382   5.955   0.185  11.637 -0.8569 -0.0104  0.5885
  211MOL0     C28383   6.012   0.111  11.534  0.3866 -0.3672  0.7697
  211MOL0     C28384   6.153   0.093  11.520  0.7209  0.4460 -0.7068
  211MOL0     C28385   6.240   0.154  11.610 -0.3175  0.5656 -0.1240
  211MOL0     O28386   6.378   0.159  11.603 -0.1556 -0.3753 -0.3601
  211MOL0     C28387   6.463   0.075  11.529  0.8236 -0.4887  0.5683
  211MOL0     C28388   6.544  -0.013  11.628 -0.4866 -0.0964  0.0857
  211MOL0     C28389   6.689   0.039  11.636 -0.4343 -0.2246 -0.8466
  211MOL0     C28390   6.744  -0.017  11.765  0.1278 -0.9607 -0.0575
  211MOL0     C28391   6.898  -0.004  11.772 -0.6162 -0.6951  0.3059
  211MOL0     C28392   6.945   0.086  11.886 -0.9745 -0.2119 -0.0975
  211MOL0     C28393   7.046   0.193  11.844  0.1667 -0.1817 -0.2331
  211MOL0     C28394   7.118   0.281  11.945  0.6535 -0.7718 -0.5205
  211MOL0    Cl28395   7.236   0.378  11.844 -0.4725 -0.0430  0.6453
  211MOL0     C28396   6.183   0.224  11.716 -0.2045 -1.2786 -0.3507
  211MOL0     C28397   6.049   0.223  11.739  0.4710  0.8196 -0.1869
  211MOL0     O28398   5.789   0.306  11.441  0.8890  0.3976  0.0504
  211MOL0     C28399   5.508   0.277  11.449  0.3349 -0.0582 -1.0530
  211MOL0     C28400   5.370   0.269  11.457  0.4950  0.9571 -0.0219
  211MOL0     N28401   4.445   0.263  11.478 -0.1144 -0.0071  0.5229
  211MOL0     N28402   4.366   0.311  11.393 -0.3915 -0.5336 -0.2314
  211MOL0     C28403   3.333   0.285  11.228 -0.0152 -0.4201  1.3008
  211MOL0     C28404   3.200   0.310  11.269  0.2614  0.2842 -0.4219
  211MOL0     C28405   2.723   0.271  11.320  0.5525  0.6450 -0.2605
  211MOL0     C28406   2.741   0.323  11.446  0.0540 -0.7895 -0.4864
  211MOL0     C28407   2.634   0.330  11.533  0.3404 -0.7272 -0.3661
  211MOL0     C28408   2.512   0.273  11.509  0.2414 -0.9935 -0.1258
  211MOL0     O28409   2.425   0.298  11.615  0.0278  0.4774  0.3617
  211MOL0     C28410   2.282   0.261  11.614 -0.1891  1.0176  0.4994
  211MOL0     C28411   2.204   0.352  11.516 -0.4739 -0.1663  0.1838
  211MOL0     C28412   2.182   0.495  11.573  0.4799  0.8351 -0.6670
  211MOL0     C28413   2.109   0.590  11.480  0.7078  0.3973 -0.3740
  211MOL0     C28414   1.977   0.534  11.453  0.5397  0.2353  0.2754
  211MOL0     C28415   1.868   0.487  11.439  0.0460 -0.4123  0.3733
  211MOL0     C28416   2.490   0.207  11.383  0.2491  0.6321  0.4125
  211MOL0     C28417   2.598   0.206  11.291  0.5745  0.0166 -0.3990
  211MOL0     H28418   3.034   0.195  10.990  1.1773  0.8635 -1.2133
  211MOL0     H28419   3.270   0.137  10.941 -0.3243  0.8097  0.7349
  211MOL0     H28420   3.594   0.324  11.155 -0.7699  0.1837 -3.2582
  211MOL0     H28421   3.575   0.152  11.223 -1.6994  0.6909  0.6536
  211MOL0     H28422   3.729   0.070  11.067 -0.8839  0.7140 -1.4461
  211MOL0     H28423   3.722   0.215  10.971  1.9569  1.3362  0.4745
  211MOL0     H28424   3.836   0.360  11.126  0.8988  0.0217  1.8884
  211MOL0     H28425   3.848   0.242  11.249  0.2822  2.9196  1.0455
  211MOL0     H28426   3.983   0.091  11.116 -0.4328  0.2116 -1.2988
  211MOL0     H28427   3.961   0.202  10.979 -0.0960  1.6522 -0.5939
  211MOL0     H28428   4.092   0.372  11.081 -0.9470  0.0855  0.9885
  211MOL0     H28429   4.116   0.272  11.233 -2.3085 -0.0348  0.1141
  211MOL0     H28430   4.280   0.158  11.142  0.1273 -1.5218 -1.2768
  211MOL0     H28431   4.232   0.164  10.977  0.6709 -1.0840  0.9944
  211MOL0     H28432   4.425   0.319  11.002 -0.1677  1.7504  0.3395
  211MOL0     H28433   4.279   0.425  10.978 -0.6318  2.7108  3.1655
  211MOL0     H28434   4.245   0.468  11.211 -0.1566 -1.3906  0.8370
  211MOL0     H28435   4.393   0.528  11.154 -1.8802  0.4380  0.8335
  211MOL0     H28436   4.627   0.381  11.220 -1.0974  0.2688 -1.3780
  211MOL0     H28437   4.694   0.272  11.590 -1.7069 -1.7478  0.6704
  211MOL0     H28438   4.695   0.132  11.496  0.6337  0.7614 -1.4970
  211MOL0     H28439   4.839   0.390  11.411 -1.8170  0.1083  2.6346
  211MOL0     H28440   4.873   0.230  11.340 -0.4924  1.9132 -1.0118
  211MOL0     H28441   4.928   0.153  11.570 -3.3789 -0.1375 -0.7129
  211MOL0     H28442   4.920   0.329  11.621  1.2252 -0.5513  0.9856
  211MOL0     H28443   5.111   0.377  11.457  1.6020 -0.6660 -0.2904
  211MOL0     H28444   5.100   0.207  11.404  1.2743  1.1993 -0.4738
  211MOL0     H28445   5.323   0.207  11.783 -0.3287 -1.5887 -1.1252
  211MOL0     H28446   5.621   0.084  11.799  0.6973  0.5051 -2.0696
  211MOL0     H28447   5.678   0.250  11.841 -0.8921  1.1428  0.6122
  211MOL0     H28448   5.528   0.176  11.900 -2.1897 -0.9876 -2.1427
  211MOL0     H28449   5.949   0.068  11.457  0.2335 -2.5907  2.0546
  211MOL0     H28450   6.181   0.057  11.422 -2.6111  0.6334 -1.8596
  211MOL0     H28451   6.403   0.026  11.451 -0.4742 -1.8567  2.3311
  211MOL0     H28452   6.539   0.143  11.491 -1.5313  3.1128  1.8418
  211MOL0     H28453   6.495  -0.021  11.726 -0.6120  1.8204  0.2172
  211MOL0     H28454   6.545  -0.114  11.587 -2.2668 -0.9286  1.8927
  211MOL0     H28455   6.696   0.148  11.648 -0.3271 -0.3951  0.8828
  211MOL0     H28456   6.750  -0.006  11.557 -1.8043 -3.4619 -0.2333
  211MOL0     H28457   6.691   0.034  11.846 -0.1636  1.3207 -1.5852
  211MOL0     H28458   6.726  -0.124  11.774 -0.2252 -0.8112  1.0679
  211MOL0     H28459   6.931   0.045  11.680 -0.9367  3.1724  2.0426
  211MOL0     H28460   6.936  -0.106  11.782 -0.2095 -0.4472  1.5647
  211MOL0     H28461   6.854   0.133  11.925 -1.7920 -1.6621 -0.1779
  211MOL0     H28462   6.989   0.028  11.968 -3.0624  0.2148  1.4041
  211MOL0     H28463   6.994   0.267  11.782 -0.3084  0.0387  0.4217
  211MOL0     H28464   7.124   0.148  11.783  0.9758  0.4119  0.3505
  211MOL0     H28465   7.180   0.228  12.018 -1.9119 -1.8716  0.9721
  211MOL0     H28466   7.050   0.345  12.002 -0.2117 -1.9952 -0.1592
  211MOL0     H28467   6.245   0.277  11.788  0.4484 -0.1569 -1.6801
  211MOL0     H28468   6.015   0.262  11.835 -1.0780  0.0107 -0.3801
  211MOL0     H28469   5.559   0.304  11.357  0.6261  0.2906 -0.7925
  211MOL0     H28470   5.308   0.295  11.372 -0.8437  2.2497  1.2913
  211MOL0     H28471   3.410   0.332  11.288 -1.4912  3.5040  0.4636
  211MOL0     H28472   3.183   0.341  11.372  0.6389 -1.1374  0.1064
  211MOL0     H28473   2.833   0.376  11.469 -0.0463 -1.7482  2.5278
  211MOL0     H28474   2.643   0.366  11.635  0.8727 -1.9886  0.0579
  211MOL0     H28475   2.279   0.156  11.583  1.8009  1.2999 -0.8497
  211MOL0     H28476   2.232   0.273  11.710 -2.8696 -0.2820 -0.6276
  211MOL0     H28477   2.103   0.312  11.502 -1.1059  1.9672 -2.3340
  211MOL0     H28478   2.255   0.367  11.420  1.0587  0.3528  1.0433
  211MOL0     H28479   2.275   0.546  11.600  2.5415 -3.1296  0.5410
  211MOL0     H28480   2.121   0.482  11.663 -0.0882  2.0839 -0.8513
  211MOL0     H28481   2.161   0.612  11.386  1.7127 -0.4500 -0.0311
  211MOL0     H28482   2.099   0.688  11.528 -1.2741 -1.0556  2.4316
  211MOL0     H28483   1.772   0.441  11.437  0.7782 -2.0154 -1.3169
  211MOL0     H28484   2.390   0.168  11.364  0.0272  0.1271  2.4121
  211MOL0     H28485   2.592   0.149  11.199  4.1661  0.8768 -1.3171
  212MOL0     O28486   1.089  10.929   0.437  0.0847  0.2824  1.2958
  212MOL0     C28487   1.126  10.914   0.325 -0.5135  0.2164 -0.0609
  212MOL0     O28488   1.077  10.984   0.226  0.3862  0.2179  0.5771
  212MOL0     C28489   0.951  11.046   0.235  0.3309 -0.8515 -0.0646
  212MOL0     C28490   0.829  10.978   0.239 -0.0550  0.6505 -0.6687
  212MOL0     C28491   0.713  11.046   0.245 -0.6336  0.2883 -0.4700
  212MOL0     C28492   0.701  11.184   0.222 -0.0952  0.0573 -1.1327
  212MOL0     O28493   0.590  11.264   0.211  0.2010 -0.1915  0.4063
  212MOL0     C28494   0.539  11.325   0.328 -0.8322  0.0349 -1.2875
  212MOL0     C28495   0.386  11.334   0.322  0.7267 -0.5635 -0.2812
  212MOL0     C28496   0.326  11.408   0.437 -0.2459  0.7187  0.2746
  212MOL0     C28497   0.308  11.315   0.558 -0.2338 -0.0047 -0.4754
  212MOL0     C28498   0.238  11.385   0.684 -0.7805 -0.2034  0.1924
  212MOL0     C28499   0.085  11.388   0.661  0.2563  0.5567 -0.3424
  212MOL0     C28500   0.012  11.480   0.763  0.5001  0.2829  1.0109
  212MOL0     C28501  -0.146  11.459   0.755  0.4117 -0.3801  0.0344
  212MOL0     N28502  -0.212  11.536   0.865  0.3238  0.1246  1.1828
  212MOL0     C28503  -0.240  11.667   0.857  0.6396  0.5350  0.1154
  212MOL0     C28504  -0.280  11.697   0.986  0.2882 -0.0621 -0.2267
  212MOL0     C28505  -0.314  11.836   1.033 -0.1023 -0.4726 -0.0134
  212MOL0     C28506  -0.457  11.875   0.998 -0.8966 -0.1500 -0.2688
  212MOL0     C28507  -0.493  12.018   1.046 -0.8451  0.4357  0.7809
  212MOL0     C28508  -0.617  12.064   0.967 -0.0933  0.3127  0.9617
  212MOL0     O28509  -0.726  11.973   0.999 -0.0363  1.0614  0.0440
  212MOL0     C28510  -0.859  12.003   0.979 -1.1073  0.1087 -0.8429
  212MOL0     C28511  -0.909  12.134   0.971  0.0631 -0.0007 -0.4702
  212MOL0     C28512  -1.043  12.160   0.959 -0.4496 -0.1194  0.2007
  212MOL0     C28513  -1.076  12.306   0.983  0.1001 -1.3858 -0.1564
  212MOL0     C28514  -1.138  12.052   0.961  0.4557  0.8356 -0.1452
  212MOL0     C28515  -1.287  12.071   0.942  0.4606  0.1106 -0.2793
  212MOL0     O28516  -1.323  12.194   0.895  0.4273  0.0714 -0.3779
  212MOL0     C28517  -1.423  12.260   0.965  0.4751  0.3295 -0.4221
  212MOL0     C28518  -1.449  12.389   0.929 -0.4141 -1.2138 -0.6496
  212MOL0     C28519  -1.534  12.477   1.004 -0.1293 -0.0133 -0.4768
  212MOL0     C28520  -1.600  12.430   1.120 -0.7707  0.2667  0.8651
  212MOL0     O28521  -1.684  12.505   1.201 -0.1438  0.4426  0.6731
  212MOL0     C28522  -1.717  12.459   1.327 -0.0041  0.1456  0.1289
  212MOL0     C28523  -1.806  12.552   1.406 -0.0599 -0.4462 -0.1587
  212MOL0     C28524  -1.943  12.569   1.333 -0.3005  0.5973  0.0500
  212MOL0     C28525  -2.044  12.634   1.429  0.0598 -0.7737 -0.2905
  212MOL0     C28526  -2.165  12.680   1.354  0.5504  0.2565 -0.3635
  212MOL0     C28527  -2.274  12.733   1.438  0.2238 -1.2337 -0.4205
  212MOL0     C28528  -2.420  12.707   1.390 -0.0453  0.4200 -0.2696
  212MOL0     C28529  -2.508  12.822   1.428  0.4752  0.7873  0.0183
  212MOL0    Cl28530  -2.666  12.764   1.432 -0.1306 -0.2420  0.0963
  212MOL0     C28531  -1.585  12.296   1.149 -0.2872  0.0046 -0.3212
  212MOL0     C28532  -1.489  12.220   1.078  0.3672 -0.4851 -0.7591
  212MOL0     O28533  -1.367  11.982   0.969  0.1010  0.1801  0.2554
  212MOL0     C28534  -1.089  11.924   0.977  0.5836 -0.4528 -0.4739
  212MOL0     C28535  -0.955  11.901   0.980 -0.0817  1.0292  0.4155
  212MOL0     N28536  -0.270  11.582   1.067 -0.3301  0.3367 -0.2363
  212MOL0     N28537  -0.236  11.485   0.991 -0.0213 -0.0120  1.0180
  212MOL0     C28538   0.820  11.252   0.209 -0.0619 -1.2646 -0.2142
  212MOL0     C28539   0.948  11.185   0.215  0.5320  0.1728  0.0794
  212MOL0     C28540   1.239  10.814   0.304  0.7017 -0.4119 -1.1649
  212MOL0     C28541   1.303  10.815   0.185  0.1573 -0.5996  0.1728
  212MOL0     C28542   1.394  10.712   0.146  0.3424  0.0646 -0.0222
  212MOL0     C28543   1.427  10.612   0.244  0.6062  0.3132  0.5472
  212MOL0     O28544   1.526  10.515   0.232  0.3793 -0.0394 -0.1358
  212MOL0     C28545   1.571  10.478   0.099  0.3955 -0.3797  0.1871
  212MOL0     C28546   1.455  10.405   0.026 -0.0686  0.6582  0.3376
  212MOL0     C28547   1.394  10.288   0.102  0.2026 -0.5436 -0.7310
  212MOL0     C28548   1.269  10.219   0.039  0.4380  0.1738 -1.0524
  212MOL0     C28549   1.159  10.308   0.054 -0.5932  0.6686  0.3928
  212MOL0     C28550   1.096  10.411   0.044  0.1549  0.0780  1.2607
  212MOL0     C28551   1.366  10.617   0.367  0.1216  0.1596  0.5069
  212MOL0     C28552   1.269  10.715   0.398 -0.5007 -0.5801  0.4745
  212MOL0     H28553   0.841  10.871   0.246  3.2579  1.0256  1.1325
  212MOL0     H28554   0.622  10.989   0.264  0.1399 -0.2908  1.9326
  212MOL0     H28555   0.569  11.262   0.412 -2.5647  2.0644  1.0059
  212MOL0     H28556   0.586  11.424   0.330 -1.7963  0.5872 -3.3079
  212MOL0     H28557   0.358  11.382   0.228  0.9176  0.6789  0.2728
  212MOL0     H28558   0.351  11.230   0.318 -1.6904  0.2254 -2.1250
  212MOL0     H28559   0.378  11.496   0.476 -1.6977 -0.1014  4.6015
  212MOL0     H28560   0.224  11.438   0.413  0.1088  0.1556 -2.1688
  212MOL0     H28561   0.259  11.220   0.536  0.4398 -0.6226  0.5854
  212MOL0     H28562   0.406  11.279   0.590 -1.5731 -4.1464 -0.4114
  212MOL0     H28563   0.264  11.323   0.771 -0.4318 -1.0016 -0.4740
  212MOL0     H28564   0.278  11.487   0.691 -1.7230  0.1150  1.3271
  212MOL0     H28565   0.055  11.428   0.564 -2.8818 -2.1902 -0.6775
  212MOL0     H28566   0.050  11.285   0.670 -0.7399  0.3397 -4.6906
  212MOL0     H28567   0.045  11.464   0.866  0.6429  1.3808  1.1437
  212MOL0     H28568   0.042  11.582   0.737  1.5927 -0.6353 -1.7602
  212MOL0     H28569  -0.170  11.356   0.782 -1.5158  0.8209  3.6664
  212MOL0     H28570  -0.189  11.475   0.656 -0.6441  2.2456  0.8268
  212MOL0     H28571  -0.225  11.718   0.763  0.9951  0.1390 -0.0491
  212MOL0     H28572  -0.321  11.834   1.142  1.4391  0.8058  0.1481
  212MOL0     H28573  -0.246  11.917   1.003 -1.1527  0.9506  1.2599
  212MOL0     H28574  -0.521  11.801   1.047  0.8898 -2.6819 -1.5384
  212MOL0     H28575  -0.460  11.864   0.889 -1.2528 -0.0644 -0.2689
  212MOL0     H28576  -0.414  12.093   1.034  0.8037 -1.2303  0.9220
  212MOL0     H28577  -0.525  12.019   1.151 -1.3749  2.8144  0.6691
  212MOL0     H28578  -0.597  12.057   0.859 -3.7212 -1.4372  0.2560
  212MOL0     H28579  -0.637  12.166   1.001  1.0573  0.6753  0.6237
  212MOL0     H28580  -0.841  12.217   0.986  1.9854 -1.6040  0.1753
  212MOL0     H28581  -1.096  12.359   0.889  1.9629 -0.7165 -0.2199
  212MOL0     H28582  -1.170  12.327   1.034  0.2202  1.9515 -1.0799
  212MOL0     H28583  -0.994  12.355   1.037 -1.1885  1.5302 -0.6780
  212MOL0     H28584  -1.375  12.428   0.861  0.8215  0.8122  1.7428
  212MOL0     H28585  -1.557  12.581   0.983 -0.3455 -0.5046 -3.0163
  212MOL0     H28586  -1.771  12.365   1.313  0.0194  0.4230 -2.0250
  212MOL0     H28587  -1.629  12.448   1.392  0.5252  1.4575 -0.3434
  212MOL0     H28588  -1.818  12.510   1.506 -2.0826 -0.2847 -0.2855
  212MOL0     H28589  -1.770  12.655   1.414 -2.5612  0.5640 -0.7556
  212MOL0     H28590  -1.985  12.472   1.305  2.5572 -0.7626  0.2056
  212MOL0     H28591  -1.929  12.641   1.251  0.6779  1.6509  1.1145
  212MOL0     H28592  -2.085  12.568   1.507 -0.6381  1.8461  1.7137
  212MOL0     H28593  -2.015  12.723   1.485 -0.1595 -0.9318  0.0821
  212MOL0     H28594  -2.199  12.590   1.303 -2.4503  0.5213  0.9614
  212MOL0     H28595  -2.129  12.753   1.280  2.6637  2.1180  2.3083
  212MOL0     H28596  -2.268  12.682   1.535 -4.7256 -3.4014 -0.9618
  212MOL0     H28597  -2.248  12.839   1.451 -1.3655 -0.9387  0.7341
  212MOL0     H28598  -2.454  12.612   1.432  1.7098 -1.8954 -3.6196
  212MOL0     H28599  -2.416  12.697   1.281  1.1242  0.1912 -0.2228
  212MOL0     H28600  -2.504  12.899   1.350  1.9120 -0.0733 -0.8024
  212MOL0     H28601  -2.477  12.853   1.528  1.5589 -1.1315  0.3364
  212MOL0     H28602  -1.643  12.245   1.226 -1.2018  1.7587  0.2021
  212MOL0     H28603  -1.478  12.123   1.125  1.0416 -0.2271 -0.3710
  212MOL0     H28604  -1.159  11.842   0.991  0.6396 -0.3415  0.4834
  212MOL0     H28605  -0.927  11.796   0.976 -0.3013  0.9037  1.7208
  212MOL0     H28606   0.826  11.355   0.177 -1.5248 -1.8030 -2.4256
  212MOL0     H28607   1.037  11.244   0.197 -0.0378  0.2919 -2.9716
  212MOL0     H28608   1.276  10.891   0.113  0.4357  0.8990  1.5827
  212MOL0     H28609   1.444  10.713   0.049  1.1506 -1.3537  0.3428
  212MOL0     H28610   1.614  10.564   0.047 -0.2895  2.2736  3.6320
  212MOL0     H28611   1.660  10.415   0.105  0.6582  0.1129  2.5034
  212MOL0     H28612   1.493  10.367  -0.069 -1.1512  0.9628 -0.2379
  212MOL0     H28613   1.376  10.478   0.003 -1.3698 -1.1839 -1.3168
  212MOL0     H28614   1.369  10.305   0.207 -2.1754 -1.7470 -1.0384
  212MOL0     H28615   1.479  10.220   0.093  0.4230 -0.9873  3.0224
  212MOL0     H28616   1.246  10.133   0.102 -1.2954  1.1155 -0.2960
  212MOL0     H28617   1.288  10.202  -0.067  3.3796 -0.2091 -0.5262
  212MOL0     H28618   1.052  10.505   0.022 -0.5848 -0.1593  1.6954
  212MOL0     H28619   1.399  10.547   0.443 -0.8456  0.3700  1.1453
  212MOL0     H28620   1.232  10.718   0.500 -0.3976  1.8077  0.4864
  213MOL0     O28621   8.584   6.602   9.801 -1.0227  0.2134  0.2009
  213MOL0     C28622   8.635   6.494   9.788  0.4549 -0.2281  0.0486
  213MOL0     O28623   8.550   6.382   9.763  0.0986 -0.3534  0.5683
  213MOL0     C28624   8.421   6.382   9.807  0.2602  0.3902 -0.0622
  213MOL0     C28625   8.319   6.393   9.713 -0.0179 -0.2250  0.6251
  213MOL0     C28626   8.181   6.404   9.755 -0.1836  0.0224  0.7627
  213MOL0     C28627   8.146   6.371   9.887 -0.1088  0.1997 -0.0355
  213MOL0     O28628   8.011   6.356   9.901  0.1587 -0.2295 -1.1291
  213MOL0     C28629   7.959   6.329  10.030  0.9177  0.0296  0.6236
  213MOL0     C28630   7.812   6.289  10.003 -1.1150  0.1458  0.3060
  213MOL0     C28631   7.729   6.277  10.130  0.3449  0.3674  0.3147
  213MOL0     C28632   7.586   6.216  10.108 -0.5758 -1.1344  0.1066
  213MOL0     C28633   7.515   6.189  10.236 -0.2283 -0.2432 -0.0768
  213MOL0     C28634   7.391   6.111  10.197 -0.2743  1.0385  0.1083
  213MOL0     C28635   7.303   6.070  10.321 -0.5870 -0.3197  0.4280
  213MOL0     C28636   7.163   6.018  10.271 -0.4359 -0.2746 -0.3332
  213MOL0     N28637   7.083   5.984  10.394 -0.6593 -0.1622  0.6121
  213MOL0     C28638   6.989   5.882  10.395 -0.0777  0.5501 -0.6178
  213MOL0     C28639   6.934   5.895  10.519 -0.7861 -0.3588 -0.6921
  213MOL0     C28640   6.841   5.811  10.594  0.5712  0.6422 -0.0494
  213MOL0     C28641   6.908   5.747  10.725 -0.5633 -0.0391  1.0914
  213MOL0     C28642   6.796   5.700  10.815  0.4719  0.2774  0.1948
  213MOL0     C28643   6.735   5.573  10.771  0.5086  0.7691 -0.2604
  213MOL0     O28644   6.654   5.586  10.654 -0.5688  0.5650 -0.0355
  213MOL0     C28645   6.519   5.607  10.685 -0.0973 -0.0914 -0.0206
  213MOL0     C28646   6.432   5.509  10.733  0.8144 -0.0121 -0.4881
  213MOL0     C28647   6.295   5.538  10.762  0.2985  0.0471 -0.1904
  213MOL0     C28648   6.205   5.427  10.817  0.2121  0.3704  0.0100
  213MOL0     C28649   6.245   5.663  10.720 -0.4017  0.5211  0.1367
  213MOL0     C28650   6.099   5.700  10.722  0.3576  0.3849  0.2760
  213MOL0     O28651   6.058   5.816  10.670  0.2281  1.4356 -0.4193
  213MOL0     C28652   5.927   5.839  10.660 -0.1627  0.6492 -0.6885
  213MOL0     C28653   5.844   5.752  10.592  1.2915  0.0558  0.9366
  213MOL0     C28654   5.710   5.781  10.586  0.1883  0.1759  0.0692
  213MOL0     C28655   5.652   5.889  10.662 -0.4671 -0.2913 -0.2566
  213MOL0     O28656   5.517   5.911  10.673 -1.3102 -0.6277 -0.2067
  213MOL0     C28657   5.434   5.857  10.569  0.1718 -0.1880 -0.5262
  213MOL0     C28658   5.408   5.712  10.612  0.1250 -0.1786  0.6594
  213MOL0     C28659   5.332   5.646  10.492  0.0497  0.5561  0.2101
  213MOL0     C28660   5.287   5.498  10.532 -0.4610 -0.0763  0.6602
  213MOL0     C28661   5.173   5.459  10.438 -0.7629 -0.3873  0.2790
  213MOL0     C28662   5.111   5.326  10.478  0.0216 -0.4079  0.6553
  213MOL0     C28663   4.998   5.278  10.387  0.0323  0.3590 -0.4480
  213MOL0     C28664   4.925   5.155  10.437  0.1426  0.8643  0.0039
  213MOL0    Cl28665   5.027   5.003  10.442  0.1997 -0.3932  0.0453
  213MOL0     C28666   5.740   5.972  10.731  0.3779  0.2480 -0.4682
  213MOL0     C28667   5.881   5.951  10.731 -0.6516 -0.3183 -0.2054
  213MOL0     O28668   6.021   5.612  10.758 -0.7109 -0.6092  0.5437
  213MOL0     C28669   6.334   5.759  10.667 -0.8032 -0.2293 -0.0676
  213MOL0     C28670   6.470   5.734  10.655  0.3437 -0.5376 -0.3378
  213MOL0     N28671   6.988   6.010  10.583  1.1826 -0.1144 -0.0684
  213MOL0     N28672   7.063   6.069  10.501 -0.0969  0.3830 -0.4162
  213MOL0     C28673   8.244   6.359   9.986  0.4380 -0.4546 -0.2725
  213MOL0     C28674   8.383   6.364   9.943  0.1054  0.0916  0.3745
  213MOL0     C28675   8.776   6.485   9.797 -0.0687 -0.8873 -0.4569
  213MOL0     C28676   8.834   6.359   9.782 -0.1946 -0.6672 -0.6621
  213MOL0     C28677   8.973   6.337   9.821  0.7391 -0.4064  0.0729
  213MOL0     C28678   9.048   6.446   9.846 -0.1884 -0.8700 -0.3369
  213MOL0     O28679   9.179   6.415   9.879  0.0639  0.3525  0.1047
  213MOL0     C28680   9.274   6.515   9.948  0.2184  0.8159  0.5231
  213MOL0     C28681   9.327   6.606   9.844  0.0943  0.2041  0.2080
  213MOL0     C28682   9.397   6.718   9.911 -0.1990  0.7478 -0.1798
  213MOL0     C28683   9.513   6.684   9.995 -0.1669  0.1130 -0.1687
  213MOL0     C28684   9.612   6.617   9.912  0.9150 -0.1174 -0.4770
  213MOL0     C28685   9.696   6.565   9.843  0.4182 -0.3217 -0.8434
  213MOL0     C28686   8.988   6.577   9.860 -0.4283 -1.0995  0.3889
  213MOL0     C28687   8.856   6.591   9.836 -0.3064 -0.2422 -0.3891
  213MOL0     H28688   8.347   6.393   9.609  0.1589  3.3729  0.5481
  213MOL0     H28689   8.103   6.414   9.680  2.1786  2.6416 -1.6108
  213MOL0     H28690   8.011   6.250  10.086  1.8729 -1.1080 -1.7592
  213MOL0     H28691   7.959   6.426  10.080 -0.3938  0.0940  0.5298
  213MOL0     H28692   7.780   6.379   9.948 -0.0132  1.9551  2.4646
  213MOL0     H28693   7.802   6.203   9.937 -3.5482  1.2260 -0.8528
  213MOL0     H28694   7.782   6.204  10.192  1.8772  0.8627 -0.3500
  213MOL0     H28695   7.723   6.368  10.189 -1.5901  1.7780 -1.8631
  213MOL0     H28696   7.526   6.298  10.066  1.3640  0.4935  0.3512
  213MOL0     H28697   7.607   6.142  10.031 -0.5618  1.5075 -2.6238
  213MOL0     H28698   7.580   6.126  10.297  1.9036 -0.3913 -2.3088
  213MOL0     H28699   7.484   6.277  10.294 -2.1506  0.1016 -1.5470
  213MOL0     H28700   7.322   6.167  10.133 -1.2875  1.7972  1.8036
  213MOL0     H28701   7.411   6.013  10.152  0.1358  0.6968  1.0207
  213MOL0     H28702   7.357   5.989  10.371  0.1091  0.9944  1.9012
  213MOL0     H28703   7.296   6.160  10.383 -0.1895  0.1628 -0.2210
  213MOL0     H28704   7.190   5.934  10.207  1.8120  0.8530 -0.9728
  213MOL0     H28705   7.105   6.091  10.213  1.0617  0.4328 -1.0077
  213MOL0     H28706   6.970   5.804  10.323  0.1554 -0.5843  0.5144
  213MOL0     H28707   6.746   5.862  10.610  0.1007 -0.2772  0.1230
  213MOL0     H28708   6.821   5.722  10.535  1.6196 -2.0124  3.2530
  213MOL0     H28709   6.980   5.822  10.759  2.1205 -0.9674 -1.9959
  213MOL0     H28710   6.972   5.661  10.699  0.3376  0.8173  0.4168
  213MOL0     H28711   6.718   5.775  10.833 -0.6772 -1.6193  4.0942
  213MOL0     H28712   6.833   5.683  10.916 -0.6332  0.3771  0.6316
  213MOL0     H28713   6.667   5.544  10.852  0.5606  0.1646 -0.4298
  213MOL0     H28714   6.803   5.491  10.744 -0.7343  0.0868 -1.4395
  213MOL0     H28715   6.464   5.407  10.753 -0.8499 -0.2213  1.3864
  213MOL0     H28716   6.181   5.466  10.917 -0.6559  1.2586 -0.5262
  213MOL0     H28717   6.118   5.394  10.759  1.1276 -0.4671 -0.9137
  213MOL0     H28718   6.261   5.334  10.826 -0.4366 -0.0063  0.2299
  213MOL0     H28719   5.885   5.660  10.553  0.2479  0.5342 -1.4602
  213MOL0     H28720   5.643   5.714  10.533 -0.8730  0.9345  0.4127
  213MOL0     H28721   5.339   5.910  10.576  0.2947 -0.1273  0.9804
  213MOL0     H28722   5.478   5.868  10.469  1.9775  0.5909  0.3113
  213MOL0     H28723   5.488   5.644  10.643  0.9496  0.6951  0.4914
  213MOL0     H28724   5.329   5.714  10.687 -0.6610  0.1726 -0.1603
  213MOL0     H28725   5.394   5.640  10.402 -0.2601  2.0177 -0.1183
  213MOL0     H28726   5.254   5.715  10.459 -0.3634 -1.1378 -2.6441
  213MOL0     H28727   5.369   5.428  10.515 -1.3942 -1.1716  0.4646
  213MOL0     H28728   5.252   5.492  10.636 -1.6240 -3.4869  0.2156
  213MOL0     H28729   5.221   5.447  10.340 -0.1515  2.9138  0.0450
  213MOL0     H28730   5.107   5.545  10.428 -0.0315  0.1725  0.1350
  213MOL0     H28731   5.189   5.249  10.479  0.8315  0.3853  2.5342
  213MOL0     H28732   5.066   5.331  10.578 -1.0780 -1.5023  0.2393
  213MOL0     H28733   5.022   5.264  10.281  1.1187 -2.0985  0.0487
  213MOL0     H28734   4.918   5.353  10.389 -1.6241 -1.3253 -0.2215
  213MOL0     H28735   4.832   5.134  10.383 -0.4344 -1.7154  1.8289
  213MOL0     H28736   4.904   5.175  10.542  4.0126 -1.0071  1.3438
  213MOL0     H28737   5.687   6.050  10.784  1.1076  1.5142 -1.5459
  213MOL0     H28738   5.947   6.024  10.777 -0.2646 -0.9782  0.3041
  213MOL0     H28739   6.291   5.851  10.629  0.1644 -0.5931 -2.2031
  213MOL0     H28740   6.531   5.805  10.599  0.5817 -2.0636 -2.1124
  213MOL0     H28741   8.208   6.335  10.086  0.1635  2.1660  0.3231
  213MOL0     H28742   8.465   6.346  10.012 -0.3187  0.8262  1.0834
  213MOL0     H28743   8.764   6.279   9.759 -1.4076  0.8035 -2.3539
  213MOL0     H28744   9.016   6.237   9.818 -1.1590 -1.4519  2.8342
  213MOL0     H28745   9.221   6.571  10.025  0.3201  2.4517 -0.5311
  213MOL0     H28746   9.351   6.449   9.988 -1.2745 -0.8101  0.7923
  213MOL0     H28747   9.248   6.657   9.788 -0.0863 -0.8341 -0.5108
  213MOL0     H28748   9.397   6.563   9.772  0.2234 -1.1166  1.0831
  213MOL0     H28749   9.323   6.775   9.968  0.4632  2.3195 -0.8196
  213MOL0     H28750   9.426   6.801   9.845  0.0583  0.4513 -0.4410
  213MOL0     H28751   9.479   6.623  10.079 -0.3128  0.2028 -0.1620
  213MOL0     H28752   9.549   6.777  10.040  1.8049 -1.0291  0.6982
  213MOL0     H28753   9.783   6.518   9.800 -0.8172 -3.5461 -0.1625
  213MOL0     H28754   9.044   6.663   9.894  0.9072 -0.6547 -2.6530
  213MOL0     H28755   8.822   6.693   9.852 -0.5374 -0.4501  0.4801
  214MOL0     O28756   7.936   3.011   9.703 -0.0687  0.0423  0.2815
  214MOL0     C28757   7.923   3.129   9.728 -0.5861 -0.2795 -0.0651
  214MOL0     O28758   8.024   3.212   9.781  0.1482  0.1400 -0.3868
  214MOL0     C28759   8.152   3.159   9.780  0.7071  0.3171 -0.3524
  214MOL0     C28760   8.206   3.089   9.892 -0.3444 -0.9548  0.3479
  214MOL0     C28761   8.336   3.043   9.887  0.1355  0.4234 -0.6915
  214MOL0     C28762   8.430   3.078   9.791  0.1065  0.5270  0.0298
  214MOL0     O28763   8.565   3.041   9.827  0.6162 -0.5250  0.2285
  214MOL0     C28764   8.657   3.089   9.732 -0.8368 -0.6057 -0.1870
  214MOL0     C28765   8.803   3.057   9.751  0.2908  0.3077 -0.6491
  214MOL0     C28766   8.887   3.113   9.638 -0.2437  0.2606 -0.0146
  214MOL0     C28767   9.039   3.099   9.653  0.2195  0.0371  0.1052
  214MOL0     C28768   9.109   3.139   9.525 -1.0424 -0.2051  0.3455
  214MOL0     C28769   9.258   3.143   9.539 -0.0917  0.7203  0.3337
  214MOL0     C28770   9.333   3.002   9.541  0.4429 -0.3089  0.2324
  214MOL0     C28771   9.386   2.971   9.396 -0.1165 -0.2508 -0.1943
  214MOL0     N28772   9.274   2.915   9.319 -0.1182 -0.1496 -0.1654
  214MOL0     C28773   9.218   2.965   9.205  0.9384  0.0551 -0.3810
  214MOL0     C28774   9.126   2.871   9.166 -0.9419 -0.0894  0.6079
  214MOL0     C28775   9.029   2.886   9.054  0.0766 -0.5320 -0.1319
  214MOL0     C28776   8.897   2.970   9.087  0.0078 -0.3595  0.3011
  214MOL0     C28777   8.830   2.915   9.209  0.0715 -0.2699 -0.2738
  214MOL0     C28778   8.689   2.974   9.232 -0.6611  0.5572  0.5525
  214MOL0     O28779   8.713   3.115   9.263  0.2398  0.3173  0.3707
  214MOL0     C28780   8.600   3.201   9.278 -0.4878  0.7587 -0.4583
  214MOL0     C28781   8.602   3.336   9.263 -0.0348  1.0274 -0.1305
  214MOL0     C28782   8.489   3.419   9.252  0.3431  0.6941 -0.7561
  214MOL0     C28783   8.515   3.563   9.221  0.5892  0.6017 -0.0939
  214MOL0     C28784   8.363   3.363   9.281  0.0250 -0.3945  0.3675
  214MOL0     C28785   8.237   3.437   9.275  1.6444 -1.0178  0.6842
  214MOL0     O28786   8.121   3.354   9.286 -0.7055  0.6332 -1.1105
  214MOL0     C28787   8.000   3.415   9.266 -0.0510  0.5154  0.1862
  214MOL0     C28788   7.932   3.480   9.376  0.7981  0.0802  0.5714
  214MOL0     C28789   7.805   3.536   9.339  0.0188  0.1714 -0.5813
  214MOL0     C28790   7.744   3.522   9.210 -0.6411 -0.3827 -0.1506
  214MOL0     O28791   7.619   3.564   9.185  0.2202  0.7043  0.1729
  214MOL0     C28792   7.608   3.708   9.176 -0.1740 -0.5939 -0.5719
  214MOL0     C28793   7.602   3.783   9.308  0.3960  0.8405 -0.0674
  214MOL0     C28794   7.497   3.706   9.402 -0.2576  0.2758 -0.7684
  214MOL0     C28795   7.491   3.766   9.557  0.4271 -0.6279  0.9030
  214MOL0     C28796   7.368   3.857   9.566 -0.2228  0.3558 -0.5688
  214MOL0     C28797   7.330   3.922   9.698 -0.3327 -0.4112  0.2188
  214MOL0     C28798   7.305   3.825   9.811 -0.8415  0.1081  0.9915
  214MOL0     C28799   7.199   3.723   9.777  0.2887 -0.7019 -0.7528
  214MOL0    Cl28800   7.045   3.821   9.792 -0.3618 -0.7120 -0.1877
  214MOL0     C28801   7.818   3.455   9.113 -0.0654  0.4656 -0.8354
  214MOL0     C28802   7.944   3.408   9.135 -0.2492  0.3817  0.6862
  214MOL0     O28803   8.231   3.560   9.261  0.2527 -0.5675 -0.3994
  214MOL0     C28804   8.367   3.224   9.334 -0.0965 -0.4192  0.6197
  214MOL0     C28805   8.480   3.142   9.319 -0.4337  0.7773  0.2907
  214MOL0     N28806   9.142   2.758   9.248  0.2091  0.2454  0.0422
  214MOL0     N28807   9.217   2.789   9.340  0.3703 -0.1923 -0.3433
  214MOL0     C28808   8.385   3.170   9.692  0.4348  1.1777 -0.2925
  214MOL0     C28809   8.245   3.202   9.682 -0.8100 -0.4861  0.0060
  214MOL0     C28810   7.786   3.172   9.741  0.9147 -0.0654  1.0230
  214MOL0     C28811   7.684   3.077   9.791  0.5060  0.3917  0.8607
  214MOL0     C28812   7.554   3.125   9.801  1.3072 -0.5772 -1.2690
  214MOL0     C28813   7.519   3.252   9.761  0.3913 -0.3931 -0.8910
  214MOL0     O28814   7.393   3.300   9.764 -0.3971 -0.0205  0.4994
  214MOL0     C28815   7.277   3.220   9.765  0.5388 -0.4872 -0.3326
  214MOL0     C28816   7.151   3.299   9.759 -0.3916 -0.2430  0.9611
  214MOL0     C28817   7.095   3.331   9.619 -0.5773  0.4400  0.0251
  214MOL0     C28818   6.950   3.376   9.625 -0.2430 -0.1971  0.0992
  214MOL0     C28819   6.911   3.423   9.495 -0.0138 -0.5675 -0.5937
  214MOL0     C28820   6.891   3.482   9.386 -0.3055  0.5343 -0.8096
  214MOL0     C28821   7.615   3.339   9.720  0.2286 -0.0028 -0.3315
  214MOL0     C28822   7.748   3.303   9.702 -0.3858 -0.1621  0.6058
  214MOL0     H28823   8.141   3.057   9.972  2.1717 -0.4166  2.7386
  214MOL0     H28824   8.374   2.979   9.967 -3.5355 -2.0351 -0.6689
  214MOL0     H28825   8.630   3.044   9.636 -0.4973 -2.8234  0.6996
  214MOL0     H28826   8.648   3.198   9.735 -1.7127 -0.6816 -0.0957
  214MOL0     H28827   8.825   3.110   9.844 -3.0124  1.6335 -0.5047
  214MOL0     H28828   8.825   2.951   9.762  0.6046  0.3034 -1.2829
  214MOL0     H28829   8.852   3.077   9.541  2.0864 -0.9684 -0.4659
  214MOL0     H28830   8.872   3.222   9.634  2.1647  0.6318 -0.2920
  214MOL0     H28831   9.063   3.167   9.735 -0.7188  1.3486 -0.6770
  214MOL0     H28832   9.074   3.001   9.687  2.3218  0.8246  0.3422
  214MOL0     H28833   9.084   3.085   9.433 -1.2053  0.4077  0.0210
  214MOL0     H28834   9.075   3.242   9.507 -2.2309 -0.4856  0.9069
  214MOL0     H28835   9.296   3.215   9.466 -1.0480  1.0207  0.1147
  214MOL0     H28836   9.281   3.196   9.632 -1.0874  1.1707  0.3413
  214MOL0     H28837   9.415   3.003   9.613 -0.6111  1.6054  1.4682
  214MOL0     H28838   9.268   2.918   9.568 -1.2553  1.1182  0.7609
  214MOL0     H28839   9.475   2.908   9.386  1.6738  2.4092 -2.8522
  214MOL0     H28840   9.416   3.068   9.353 -2.2443  1.0674  1.1216
  214MOL0     H28841   9.223   3.059   9.151 -3.1125 -1.1090 -3.2215
  214MOL0     H28842   9.090   2.943   8.984 -0.7537  0.7003  0.1210
  214MOL0     H28843   9.007   2.789   9.009  1.6764 -0.4165 -1.2605
  214MOL0     H28844   8.828   2.956   9.003 -0.2343  0.1997  0.4046
  214MOL0     H28845   8.916   3.077   9.103 -0.1045 -0.4428  1.0647
  214MOL0     H28846   8.895   2.937   9.294  0.0275  0.4063 -0.4069
  214MOL0     H28847   8.826   2.808   9.188  2.2566 -0.4451 -0.0322
  214MOL0     H28848   8.642   2.919   9.314 -1.4045 -1.0592 -0.9092
  214MOL0     H28849   8.641   2.964   9.135  2.9952 -0.9832 -1.2690
  214MOL0     H28850   8.700   3.377   9.238  0.7997 -1.3141 -1.0051
  214MOL0     H28851   8.462   3.623   9.296  2.1489  1.4419  0.3851
  214MOL0     H28852   8.621   3.587   9.235  0.0472  2.2523  1.7341
  214MOL0     H28853   8.485   3.584   9.118  3.1312 -3.0767 -1.8073
  214MOL0     H28854   7.977   3.486   9.474 -1.4930  0.5595  1.6642
  214MOL0     H28855   7.754   3.577   9.426 -2.5542 -1.2517 -1.3022
  214MOL0     H28856   7.690   3.751   9.117 -1.3013  3.0402  0.2384
  214MOL0     H28857   7.517   3.720   9.115  0.0639  1.2250 -0.6247
  214MOL0     H28858   7.705   3.794   9.344  1.3541 -0.9871 -2.0554
  214MOL0     H28859   7.571   3.885   9.285  1.0481  0.7929 -1.2184
  214MOL0     H28860   7.534   3.605   9.424  1.2128  0.8892 -0.2743
  214MOL0     H28861   7.401   3.722   9.354 -0.6632  2.0153  0.5332
  214MOL0     H28862   7.488   3.685   9.630 -0.3185 -1.9275 -0.5155
  214MOL0     H28863   7.584   3.819   9.581  1.7328 -1.6133 -1.5016
  214MOL0     H28864   7.280   3.805   9.527 -0.1937  0.2933 -0.5508
  214MOL0     H28865   7.373   3.938   9.492  2.3987  0.9073  0.1136
  214MOL0     H28866   7.412   3.987   9.730 -1.1322  0.1077  1.2762
  214MOL0     H28867   7.242   3.981   9.669  0.5914  1.1424  0.4874
  214MOL0     H28868   7.268   3.866   9.906 -1.4395 -1.6554  1.5531
  214MOL0     H28869   7.398   3.771   9.833  0.2158 -0.1362 -3.1767
  214MOL0     H28870   7.205   3.655   9.863  1.7388 -0.5906 -0.7446
  214MOL0     H28871   7.201   3.676   9.678  0.2608  2.1678 -2.2034
  214MOL0     H28872   7.771   3.432   9.017 -0.6712  0.5316 -0.5596
  214MOL0     H28873   7.996   3.351   9.058  1.0818  2.2453  0.1241
  214MOL0     H28874   8.271   3.188   9.370  0.6998 -1.8406  1.4333
  214MOL0     H28875   8.470   3.039   9.350 -0.2893  0.9587  0.9440
  214MOL0     H28876   8.448   3.224   9.622  1.3640 -1.6295 -1.8104
  214MOL0     H28877   8.209   3.254   9.594 -1.5501  0.6760  0.9620
  214MOL0     H28878   7.724   2.980   9.821  1.7719  0.9341  0.9599
  214MOL0     H28879   7.471   3.059   9.825  1.8430 -0.3022  1.7003
  214MOL0     H28880   7.273   3.152   9.679 -1.1373 -0.9011  0.0442
  214MOL0     H28881   7.264   3.166   9.859  0.6210  0.4883  0.2426
  214MOL0     H28882   7.175   3.391   9.812 -0.8925  2.1064 -2.5196
  214MOL0     H28883   7.091   3.227   9.815 -3.5820  1.0937 -0.4867
  214MOL0     H28884   7.084   3.237   9.565 -1.9284 -0.1645  1.2632
  214MOL0     H28885   7.162   3.396   9.562  0.8149 -2.4615 -1.8852
  214MOL0     H28886   6.939   3.455   9.700  1.2578 -0.8208  1.0152
  214MOL0     H28887   6.889   3.289   9.649 -0.4315 -0.3664 -0.9492
  214MOL0     H28888   6.849   3.547   9.313 -1.0091  2.5069  1.2238
  214MOL0     H28889   7.589   3.441   9.695  1.1710  0.2711 -0.2433
  214MOL0     H28890   7.829   3.373   9.682 -0.2234  0.1098  2.0929
  215MOL0     O28891   5.911   9.627   7.661 -0.6887  0.7828 -0.4763
  215MOL0     C28892   5.937   9.708   7.571 -0.2926 -0.1471 -1.0265
  215MOL0     O28893   6.068   9.759   7.543  0.6143 -0.9585 -0.2108
  215MOL0     C28894   6.169   9.696   7.613  0.0473  0.7044  0.5580
  215MOL0     C28895   6.200   9.724   7.745 -0.3354  0.3074  0.0297
  215MOL0     C28896   6.303   9.652   7.811  0.0291 -1.0107 -0.4376
  215MOL0     C28897   6.368   9.545   7.741 -0.4459 -0.0190 -0.1217
  215MOL0     O28898   6.470   9.484   7.813  0.2123 -0.2582  0.6495
  215MOL0     C28899   6.533   9.356   7.775 -0.4503  0.2715 -0.0875
  215MOL0     C28900   6.642   9.302   7.881 -0.2729  0.3819  0.1110
  215MOL0     C28901   6.767   9.402   7.900  0.6385  0.7535 -1.2733
  215MOL0     C28902   6.898   9.332   7.953 -0.4796  0.2141  0.7042
  215MOL0     C28903   6.982   9.434   8.032  0.4717 -0.6171 -0.1552
  215MOL0     C28904   7.056   9.523   7.922  0.3007  0.4232 -0.1408
  215MOL0     C28905   7.161   9.609   7.990 -0.2191  0.5935 -0.5935
  215MOL0     C28906   7.230   9.697   7.890  0.0725  0.0452  0.8600
  215MOL0     N28907   7.334   9.629   7.810 -0.3071 -0.4426 -0.1561
  215MOL0     C28908   7.430   9.546   7.868  0.8648  0.0830 -1.3666
  215MOL0     C28909   7.491   9.494   7.761  1.2759  0.5634 -0.2145
  215MOL0     C28910   7.594   9.382   7.770 -0.7289 -0.4245 -0.6480
  215MOL0     C28911   7.549   9.261   7.848  0.3915 -0.2802 -0.1258
  215MOL0     C28912   7.485   9.160   7.756  0.1487 -0.7122 -0.6684
  215MOL0     C28913   7.439   9.036   7.841  0.5767 -0.1022  0.3247
  215MOL0     O28914   7.402   8.939   7.741 -0.5567  0.4063 -0.0374
  215MOL0     C28915   7.276   8.942   7.694 -0.4374 -0.8781 -0.0407
  215MOL0     C28916   7.243   8.847   7.600 -0.7162 -0.4860  0.7417
  215MOL0     C28917   7.118   8.834   7.555  0.9284 -0.2223 -0.3979
  215MOL0     C28918   7.094   8.711   7.470 -0.9468  0.8682 -0.4563
  215MOL0     C28919   7.016   8.931   7.583 -0.5512 -0.0107  0.0574
  215MOL0     C28920   6.879   8.942   7.530 -0.6270 -0.7780 -0.4964
  215MOL0     O28921   6.792   9.026   7.585  0.8135  0.1982 -0.0221
  215MOL0     C28922   6.666   9.040   7.535  0.3568  0.0648  0.7111
  215MOL0     C28923   6.637   9.095   7.409 -0.0743  0.2353 -0.2559
  215MOL0     C28924   6.506   9.126   7.368  0.1785 -0.4977  0.0472
  215MOL0     C28925   6.399   9.070   7.439  0.1096 -0.7783 -0.7389
  215MOL0     O28926   6.272   9.095   7.392 -0.1293  0.0591  0.0568
  215MOL0     C28927   6.166   9.108   7.486 -0.0578 -0.5820  0.0677
  215MOL0     C28928   6.046   9.164   7.418  0.1202 -0.4319  0.4957
  215MOL0     C28929   5.990   9.076   7.308  0.4260  0.2476 -0.2766
  215MOL0     C28930   5.874   9.153   7.250  0.1173 -0.0356  0.1240
  215MOL0     C28931   5.797   9.078   7.140  0.0137 -0.6404  0.4580
  215MOL0     C28932   5.720   8.957   7.175 -0.4765  0.7917  0.2899
  215MOL0     C28933   5.652   8.889   7.046 -0.4063 -0.5929  0.5985
  215MOL0     C28934   5.545   8.974   6.968  1.4902 -1.0086  0.1632
  215MOL0    Cl28935   5.379   8.978   7.028 -0.0937  0.1804 -0.0728
  215MOL0     C28936   6.426   9.025   7.570  0.4758 -0.2610 -0.2850
  215MOL0     C28937   6.550   9.018   7.619 -0.6225 -0.7907  0.3629
  215MOL0     O28938   6.859   8.879   7.430 -0.2151 -0.4983  0.3389
  215MOL0     C28939   7.047   9.015   7.688  0.3808 -0.7119  0.1461
  215MOL0     C28940   7.170   9.029   7.734 -0.6735  0.6335  0.3877
  215MOL0     N28941   7.439   9.530   7.639  0.0798  0.1471  0.2448
  215MOL0     N28942   7.341   9.620   7.672  0.5734 -0.4968 -0.4595
  215MOL0     C28943   6.325   9.516   7.606  1.0577 -0.3163 -0.5614
  215MOL0     C28944   6.231   9.590   7.542 -0.3412 -0.3810  0.1690
  215MOL0     C28945   5.821   9.740   7.480 -0.1701 -0.6313 -0.2958
  215MOL0     C28946   5.692   9.696   7.517 -0.0312 -0.4551  0.4573
  215MOL0     C28947   5.582   9.725   7.430  0.1061  0.4287 -0.0156
  215MOL0     C28948   5.599   9.778   7.302 -0.4507  0.4255  0.1600
  215MOL0     O28949   5.501   9.806   7.214 -0.3262  0.4447 -0.1299
  215MOL0     C28950   5.415   9.915   7.250  0.9955  0.7939 -0.0733
  215MOL0     C28951   5.393   9.999   7.125  0.3733  0.0981  0.3873
  215MOL0     C28952   5.514  10.083   7.081 -0.9104 -0.6220 -0.1877
  215MOL0     C28953   5.539  10.210   7.170  0.0498  0.5414  0.0475
  215MOL0     C28954   5.607  10.175   7.298  0.9079  0.2418 -0.8314
  215MOL0     C28955   5.665  10.127   7.391  0.0211 -0.6277  0.0103
  215MOL0     C28956   5.729   9.816   7.261  0.2589 -1.1609 -0.7789
  215MOL0     C28957   5.834   9.797   7.352  0.1412 -0.2721 -0.4642
  215MOL0     H28958   6.158   9.809   7.796 -2.1454 -2.4430  3.4943
  215MOL0     H28959   6.350   9.690   7.902  4.2347 -1.4424 -2.1682
  215MOL0     H28960   6.449   9.286   7.772 -0.3160 -0.1409  2.7004
  215MOL0     H28961   6.587   9.370   7.681  0.7075  2.1378  0.7874
  215MOL0     H28962   6.597   9.298   7.980 -1.4771 -1.5263 -0.4506
  215MOL0     H28963   6.682   9.204   7.851 -3.4532 -0.2037 -2.8991
  215MOL0     H28964   6.788   9.456   7.807  1.3811  1.4724 -0.7001
  215MOL0     H28965   6.737   9.474   7.977  3.1709 -0.4473  0.9886
  215MOL0     H28966   6.872   9.251   8.021  1.2320 -0.8187  0.1997
  215MOL0     H28967   6.960   9.289   7.874  0.0930 -1.2965  1.9150
  215MOL0     H28968   6.922   9.495   8.100  0.5004 -0.2574 -0.4516
  215MOL0     H28969   7.059   9.391   8.097  0.2967 -1.0958 -0.2582
  215MOL0     H28970   7.107   9.462   7.847  2.8295  0.2116  1.6166
  215MOL0     H28971   6.970   9.574   7.878 -0.5177 -1.0586 -0.3424
  215MOL0     H28972   7.121   9.668   8.073  2.3481  0.3687  0.9184
  215MOL0     H28973   7.227   9.536   8.039 -2.0997 -2.2243 -1.9873
  215MOL0     H28974   7.283   9.775   7.947  1.8534 -1.6882  1.7075
  215MOL0     H28975   7.157   9.738   7.820  1.2387 -2.1227 -1.7993
  215MOL0     H28976   7.452   9.513   7.969  0.1883  0.2881 -1.1509
  215MOL0     H28977   7.622   9.345   7.671  0.6926 -0.0834 -0.3847
  215MOL0     H28978   7.684   9.419   7.819 -1.4980  2.1106 -1.0272
  215MOL0     H28979   7.478   9.286   7.928 -0.3788  0.6706 -1.0801
  215MOL0     H28980   7.640   9.216   7.890  1.6203  0.4526 -1.8647
  215MOL0     H28981   7.561   9.124   7.686  1.7274  4.5069 -2.0304
  215MOL0     H28982   7.407   9.201   7.691  0.0144  1.3953  0.7363
  215MOL0     H28983   7.359   9.062   7.911  0.2271  3.1914 -1.1073
  215MOL0     H28984   7.526   8.993   7.891  1.7015 -0.5756 -1.9154
  215MOL0     H28985   7.313   8.778   7.552 -1.9309  0.6527 -2.9788
  215MOL0     H28986   7.007   8.650   7.495  0.1524 -1.4347 -1.8502
  215MOL0     H28987   7.077   8.756   7.372 -5.0311 -0.6802 -0.6480
  215MOL0     H28988   7.174   8.636   7.474 -0.6887  1.1927  0.7220
  215MOL0     H28989   6.726   9.112   7.349  1.3766  1.4189  2.0820
  215MOL0     H28990   6.473   9.179   7.279  0.3770 -0.4190  0.0188
  215MOL0     H28991   6.129   9.015   7.531 -4.5026  1.6053  1.4788
  215MOL0     H28992   6.186   9.177   7.569 -0.8189 -0.2080 -0.0487
  215MOL0     H28993   5.967   9.188   7.489 -1.3419 -0.8899 -0.9290
  215MOL0     H28994   6.077   9.264   7.384 -2.0814 -0.0491 -0.5590
  215MOL0     H28995   5.957   8.979   7.344 -0.3586  1.0047  1.0917
  215MOL0     H28996   6.050   9.071   7.216 -0.0187 -0.1783 -0.5482
  215MOL0     H28997   5.811   9.163   7.339  1.3297  2.1849  0.7974
  215MOL0     H28998   5.903   9.250   7.208 -0.9252 -1.2935 -4.0411
  215MOL0     H28999   5.858   9.058   7.052 -0.7895  3.5783 -1.2876
  215MOL0     H29000   5.724   9.146   7.095  0.9207  1.2195  1.6747
  215MOL0     H29001   5.777   8.880   7.229 -3.4809  0.0993  2.7790
  215MOL0     H29002   5.632   8.993   7.230 -0.3372  0.0521  1.0183
  215MOL0     H29003   5.611   8.790   7.071 -1.8745 -1.0316 -2.9135
  215MOL0     H29004   5.733   8.878   6.972 -0.4526 -1.9548  0.7254
  215MOL0     H29005   5.542   8.938   6.864  0.5623 -0.8639  0.1321
  215MOL0     H29006   5.579   9.078   6.964 -2.9622  0.7651  1.4460
  215MOL0     H29007   6.350   9.009   7.646  4.1864  2.1135  4.4805
  215MOL0     H29008   6.571   8.990   7.722 -2.3739 -0.1591  0.9234
  215MOL0     H29009   6.971   9.081   7.727  2.8410  2.0807  0.5979
  215MOL0     H29010   7.187   9.102   7.813 -0.2257  2.5473 -1.3891
  215MOL0     H29011   6.365   9.439   7.541 -0.8020 -1.5042 -0.3680
  215MOL0     H29012   6.215   9.565   7.438  1.2074 -1.4019  0.1376
  215MOL0     H29013   5.668   9.664   7.618  0.4937  0.7082  0.9699
  215MOL0     H29014   5.485   9.696   7.468 -0.2570  0.2384 -1.0649
  215MOL0     H29015   5.320   9.873   7.286  0.6567  2.5459  1.1754
  215MOL0     H29016   5.473   9.972   7.323 -2.3435  2.1143  1.8051
  215MOL0     H29017   5.309  10.068   7.138  0.7986  0.8896 -0.8445
  215MOL0     H29018   5.360   9.931   7.046  1.3621 -0.7900  0.7204
  215MOL0     H29019   5.490  10.122   6.981 -3.1617  1.3650  1.0272
  215MOL0     H29020   5.600  10.018   7.068  1.4902  2.2245  0.4926
  215MOL0     H29021   5.451  10.270   7.193  1.2965  1.6323  2.3723
  215MOL0     H29022   5.596  10.286   7.114  2.3586 -0.7680  0.4674
  215MOL0     H29023   5.744  10.087   7.451  2.1913  0.9934 -1.5931
  215MOL0     H29024   5.754   9.871   7.171 -1.6491  2.7847  0.8628
  215MOL0     H29025   5.928   9.812   7.301  0.0425  2.4335 -0.0241
  216MOL0     O29026   1.473   3.849   3.151  0.3804 -0.3053 -0.2576
  216MOL0     C29027   1.378   3.818   3.226  0.4194 -0.7677  0.3716
  216MOL0     O29028   1.389   3.783   3.356  0.9792  0.0359  0.0809
  216MOL0     C29029   1.506   3.792   3.413 -0.4193 -0.2835 -0.4809
  216MOL0     C29030   1.599   3.900   3.397 -0.2954  0.0841  0.5983
  216MOL0     C29031   1.733   3.889   3.454 -0.5684  0.4553  0.8761
  216MOL0     C29032   1.769   3.780   3.529 -0.3055 -0.3392  0.0629
  216MOL0     O29033   1.892   3.777   3.599  1.0459 -0.5921  0.3651
  216MOL0     C29034   2.007   3.821   3.539  0.2849 -0.4326 -0.1491
  216MOL0     C29035   2.100   3.714   3.490  0.1069 -0.9529 -0.2584
  216MOL0     C29036   2.217   3.784   3.418  0.6921  0.2341 -0.5292
  216MOL0     C29037   2.325   3.819   3.524 -0.4261  0.0432 -0.0396
  216MOL0     C29038   2.440   3.889   3.451 -0.2742 -0.0709 -0.1647
  216MOL0     C29039   2.536   3.787   3.405  0.0531  0.2708 -0.4468
  216MOL0     C29040   2.653   3.848   3.328  0.0213  0.1458 -0.8142
  216MOL0     C29041   2.759   3.744   3.316 -0.3478 -0.5368  0.6569
  216MOL0     N29042   2.886   3.812   3.253  0.5968 -0.4237 -0.3657
  216MOL0     C29043   2.890   3.842   3.119 -0.2767 -0.7096  0.1435
  216MOL0     C29044   3.010   3.906   3.108 -0.1512  0.4482  0.0233
  216MOL0     C29045   3.074   3.943   2.979  0.7301  0.2744 -0.2055
  216MOL0     C29046   3.202   3.855   2.944  0.5994  0.4312 -1.8101
  216MOL0     C29047   3.160   3.708   2.904  0.3863 -0.1424 -0.0259
  216MOL0     C29048   3.279   3.606   2.884 -0.2761 -0.4529  0.0579
  216MOL0     O29049   3.235   3.512   2.784 -0.0920 -0.0309 -0.2292
  216MOL0     C29050   3.144   3.413   2.825 -0.6863  0.5907  0.6982
  216MOL0     C29051   3.099   3.343   2.719  0.1150 -0.1842  0.1918
  216MOL0     C29052   2.991   3.251   2.732 -0.0475  1.0807  0.2522
  216MOL0     C29053   2.925   3.208   2.601  0.0325 -0.0977 -0.3463
  216MOL0     C29054   2.931   3.228   2.860 -0.7970 -0.0990  0.0457
  216MOL0     C29055   2.813   3.142   2.889 -0.9094  0.4640 -0.6904
  216MOL0     O29056   2.767   3.151   3.021  0.4665  0.5176 -0.0516
  216MOL0     C29057   2.662   3.075   3.068 -0.6756 -0.9124  0.2013
  216MOL0     C29058   2.551   3.075   3.000 -0.1110  0.3301  0.8790
  216MOL0     C29059   2.443   3.003   3.047 -0.0813  0.6776  0.5354
  216MOL0     C29060   2.448   2.931   3.166 -0.5599 -0.4780 -0.1250
  216MOL0     O29061   2.339   2.864   3.225  0.0956  0.7295  0.2907
  216MOL0     C29062   2.251   2.790   3.143 -0.7422  0.8522  0.1678
  216MOL0     C29063   2.149   2.710   3.232  0.1842 -0.8594  0.6810
  216MOL0     C29064   2.037   2.793   3.298 -0.2988  0.0906 -0.5488
  216MOL0     C29065   1.943   2.703   3.387  0.0686  0.3641  0.1661
  216MOL0     C29066   1.835   2.792   3.445 -0.0098  0.3437  0.0920
  216MOL0     C29067   1.724   2.701   3.495  0.0507  0.3660  0.0247
  216MOL0     C29068   1.603   2.774   3.557 -0.7174 -0.2277  0.7274
  216MOL0     C29069   1.647   2.839   3.679  0.6880  0.0299  0.0607
  216MOL0    Cl29070   1.541   2.977   3.720 -0.0257  0.0553 -0.5307
  216MOL0     C29071   2.564   2.945   3.243 -0.6892 -0.5637 -0.1255
  216MOL0     C29072   2.673   3.015   3.193 -0.3835  0.1747  0.1113
  216MOL0     O29073   2.764   3.075   2.801  0.0250  0.6753  0.1302
  216MOL0     C29074   2.995   3.282   2.974 -1.0793 -0.5445 -0.3816
  216MOL0     C29075   3.100   3.380   2.953  0.3634  0.6637 -0.2519
  216MOL0     N29076   3.081   3.909   3.224 -0.8530 -0.3865 -0.4790
  216MOL0     N29077   3.000   3.864   3.314 -0.3879 -0.1164  0.3748
  216MOL0     C29078   1.670   3.694   3.561 -0.6554  0.1285  0.2814
  216MOL0     C29079   1.544   3.686   3.496 -0.4460  0.1201 -0.7709
  216MOL0     C29080   1.249   3.811   3.154  0.6323  0.7279 -0.5877
  216MOL0     C29081   1.236   3.853   3.022  0.2777 -0.0354  0.3483
  216MOL0     C29082   1.113   3.848   2.958 -0.7407 -0.4659 -0.0375
  216MOL0     C29083   0.995   3.808   3.023 -0.4866 -0.4364  0.4624
  216MOL0     O29084   0.871   3.812   2.962 -0.5525  0.1109 -0.8524
  216MOL0     C29085   0.861   3.806   2.819 -0.1634 -0.0951 -0.3018
  216MOL0     C29086   0.716   3.833   2.783  0.0017  0.0867  0.2039
  216MOL0     C29087   0.671   3.979   2.792 -0.6944 -0.0699  0.0286
  216MOL0     C29088   0.529   4.023   2.763 -0.1894  0.1064  0.9097
  216MOL0     C29089   0.441   3.994   2.881  0.4976 -1.0246 -0.5022
  216MOL0     C29090   0.374   3.981   2.981  0.5774  0.3365 -0.8291
  216MOL0     C29091   1.005   3.780   3.160  0.7296 -0.2240  0.8647
  216MOL0     C29092   1.127   3.786   3.227  0.0619  0.0994 -0.7061
  216MOL0     H29093   1.574   3.994   3.347 -1.6843 -0.0484  1.0004
  216MOL0     H29094   1.792   3.972   3.416 -0.1923 -1.8636 -4.5124
  216MOL0     H29095   1.997   3.886   3.452  0.8678 -1.6974 -1.1984
  216MOL0     H29096   2.073   3.871   3.611  2.9235 -3.5521 -0.1587
  216MOL0     H29097   2.139   3.658   3.575  1.0112 -1.1307 -0.7813
  216MOL0     H29098   2.039   3.644   3.432 -1.5080 -0.6818  1.0217
  216MOL0     H29099   2.259   3.711   3.348  1.5489 -0.5353  0.7343
  216MOL0     H29100   2.176   3.867   3.361 -3.5021 -1.0781  0.2526
  216MOL0     H29101   2.285   3.892   3.596 -0.4941  0.7207 -0.7502
  216MOL0     H29102   2.352   3.725   3.572  0.4902 -0.7870 -2.0667
  216MOL0     H29103   2.398   3.949   3.370  1.6361  0.7246 -0.6102
  216MOL0     H29104   2.495   3.954   3.519 -1.8657  0.2679  0.8356
  216MOL0     H29105   2.581   3.729   3.487 -1.4306 -0.0915  0.1503
  216MOL0     H29106   2.485   3.718   3.338  0.0215  1.3169 -1.5193
  216MOL0     H29107   2.627   3.872   3.225  1.5640  2.6725 -0.6962
  216MOL0     H29108   2.669   3.941   3.385 -2.6730  1.1105 -1.4702
  216MOL0     H29109   2.731   3.664   3.247 -0.6734 -0.3794  0.6085
  216MOL0     H29110   2.792   3.707   3.413 -1.4928 -0.1318  1.2154
  216MOL0     H29111   2.813   3.812   3.048 -2.1636 -0.0559  1.7999
  216MOL0     H29112   2.998   3.925   2.902  0.3755  0.7411  0.0235
  216MOL0     H29113   3.100   4.049   2.971  2.6652 -0.0637  0.9334
  216MOL0     H29114   3.265   3.855   3.034 -2.2515  2.3345  0.3593
  216MOL0     H29115   3.258   3.917   2.873  1.3011  2.5811  0.4366
  216MOL0     H29116   3.092   3.720   2.819 -0.4036  1.7123  0.8210
  216MOL0     H29117   3.103   3.654   2.981  0.5255  0.0460  0.2100
  216MOL0     H29118   3.303   3.558   2.979  0.0586  0.2243  0.3228
  216MOL0     H29119   3.366   3.665   2.854  0.9607 -0.4888  3.2201
  216MOL0     H29120   3.129   3.368   2.618  0.6175  2.4300  0.9158
  216MOL0     H29121   2.941   3.100   2.588 -0.2855 -0.0390 -1.2693
  216MOL0     H29122   2.819   3.232   2.617  0.7018  0.9521  3.7245
  216MOL0     H29123   2.968   3.263   2.518 -1.8082  3.4702  0.8494
  216MOL0     H29124   2.528   3.127   2.907  1.3849 -0.3710  0.0886
  216MOL0     H29125   2.356   3.007   2.983  0.0154 -0.3907  0.3257
  216MOL0     H29126   2.203   2.845   3.061 -2.0994 -1.3473 -0.6017
  216MOL0     H29127   2.318   2.720   3.093 -0.1216  1.8886 -0.4928
  216MOL0     H29128   2.110   2.635   3.163 -3.2648  2.3997 -1.2994
  216MOL0     H29129   2.210   2.672   3.315  1.4144  1.0194  0.6995
  216MOL0     H29130   1.972   2.836   3.222  0.6407  1.8844 -0.3908
  216MOL0     H29131   2.067   2.886   3.347 -1.0583 -0.0228  0.1616
  216MOL0     H29132   1.890   2.637   3.318 -1.6838  1.5373  0.3255
  216MOL0     H29133   2.001   2.650   3.463  3.7513  1.5019 -1.5728
  216MOL0     H29134   1.789   2.867   3.381 -0.6389  0.6401  0.8785
  216MOL0     H29135   1.879   2.858   3.521 -1.0503  1.4916 -0.2728
  216MOL0     H29136   1.699   2.644   3.405 -0.9653  4.6702 -2.7043
  216MOL0     H29137   1.765   2.631   3.568  0.7677 -0.6421 -1.2833
  216MOL0     H29138   1.511   2.719   3.579 -1.7795  2.1518  2.6519
  216MOL0     H29139   1.560   2.845   3.486 -1.1980 -0.3118  0.9250
  216MOL0     H29140   1.747   2.884   3.676  0.2129  1.1820  0.7472
  216MOL0     H29141   1.641   2.771   3.765 -2.1412 -0.7265 -0.6590
  216MOL0     H29142   2.570   2.896   3.340 -1.2933  1.2414  0.8711
  216MOL0     H29143   2.768   3.016   3.245 -0.8822 -2.0923  1.1455
  216MOL0     H29144   2.969   3.269   3.079  0.9489 -2.5383 -0.0541
  216MOL0     H29145   3.142   3.427   3.042  0.5818  0.2541 -0.1356
  216MOL0     H29146   1.679   3.617   3.638  0.2038  0.4405  0.5003
  216MOL0     H29147   1.482   3.601   3.521 -1.7562  0.9300 -1.1492
  216MOL0     H29148   1.321   3.887   2.964 -0.8595  0.2789 -1.2087
  216MOL0     H29149   1.113   3.876   2.853 -0.4103 -0.9962 -0.1805
  216MOL0     H29150   0.916   3.892   2.779 -1.5930  2.4847  2.8468
  216MOL0     H29151   0.899   3.707   2.791  0.4268 -0.8628  2.7411
  216MOL0     H29152   0.648   3.772   2.843 -2.5773  1.3162 -1.2818
  216MOL0     H29153   0.709   3.792   2.682 -0.5284 -1.7848  0.9702
  216MOL0     H29154   0.732   4.036   2.721 -2.3056  0.1168 -1.2742
  216MOL0     H29155   0.708   4.008   2.891 -0.0757 -1.4431  0.2097
  216MOL0     H29156   0.491   3.959   2.683 -1.5695  0.7718  0.9940
  216MOL0     H29157   0.535   4.126   2.725  3.0996 -0.2044  0.3550
  216MOL0     H29158   0.319   3.973   3.073 -0.2865 -2.5489 -1.5171
  216MOL0     H29159   0.911   3.773   3.213  0.7294 -1.2835  0.7389
  216MOL0     H29160   1.130   3.769   3.334  1.0414 -1.3624 -0.9357
  217MOL0     O29161   5.995   4.207   8.437  0.0390  0.6299 -0.6740
  217MOL0     C29162   5.989   4.155   8.323  0.0338  0.3942 -0.5353
  217MOL0     O29163   5.895   4.062   8.278 -0.0468 -0.9002 -0.4148
  217MOL0     C29164   5.777   4.031   8.346  0.3351  0.8479 -0.2914
  217MOL0     C29165   5.715   3.918   8.297 -0.2605  0.4498  1.0561
  217MOL0     C29166   5.602   3.863   8.355  0.0966  0.1921 -0.4228
  217MOL0     C29167   5.533   3.932   8.449 -0.2640 -0.3681  0.2313
  217MOL0     O29168   5.421   3.863   8.486 -0.9898 -0.4979 -0.3545
  217MOL0     C29169   5.323   3.935   8.564 -0.2098 -0.6379  0.3415
  217MOL0     C29170   5.243   4.039   8.481  0.4896 -0.0133  0.3551
  217MOL0     C29171   5.094   3.992   8.465 -0.2855  0.1759 -0.2522
  217MOL0     C29172   4.992   4.107   8.472  0.2197  0.0106  0.3011
  217MOL0     C29173   4.844   4.070   8.457  0.0495 -0.0690 -0.3536
  217MOL0     C29174   4.803   4.041   8.320  0.2238 -0.0835 -0.1707
  217MOL0     C29175   4.651   4.044   8.320  0.3897 -0.6361  0.8976
  217MOL0     C29176   4.569   3.940   8.392 -0.3422  0.6850  0.1452
  217MOL0     N29177   4.425   3.961   8.377  0.0361 -0.5138  0.1190
  217MOL0     C29178   4.362   3.958   8.254  1.3763 -0.4505  0.2596
  217MOL0     C29179   4.232   3.989   8.296 -0.2140  0.3603  0.1219
  217MOL0     C29180   4.120   3.996   8.190  0.0633 -0.4689 -0.2982
  217MOL0     C29181   3.978   4.026   8.245 -0.4336  0.0297 -0.2540
  217MOL0     C29182   3.877   4.039   8.146  0.1135  0.4200  0.5187
  217MOL0     C29183   3.731   4.009   8.199  0.7905  0.1979  0.0700
  217MOL0     O29184   3.725   3.873   8.251 -0.2882 -0.3547  0.2307
  217MOL0     C29185   3.592   3.831   8.266 -0.2341  0.0052  0.3539
  217MOL0     C29186   3.477   3.902   8.224 -0.1751  0.4375 -0.9479
  217MOL0     C29187   3.346   3.864   8.255 -0.2496 -0.2979  0.0065
  217MOL0     C29188   3.232   3.962   8.220 -0.5281 -0.3273 -0.6797
  217MOL0     C29189   3.324   3.743   8.326 -0.2446 -0.0347  1.1481
  217MOL0     C29190   3.180   3.701   8.356  0.1037  0.4768 -0.4087
  217MOL0     O29191   3.171   3.598   8.446 -0.0816 -0.4010 -0.1899
  217MOL0     C29192   3.046   3.535   8.459  0.5485  0.4619  0.7807
  217MOL0     C29193   2.936   3.579   8.521  1.0765  0.1538 -0.1576
  217MOL0     C29194   2.819   3.508   8.530  0.4265 -0.0480  0.1305
  217MOL0     C29195   2.828   3.369   8.493  0.3764 -0.2115  0.8018
  217MOL0     O29196   2.725   3.280   8.504 -0.0212  0.2276 -0.2929
  217MOL0     C29197   2.599   3.307   8.557 -0.0638  0.8572  0.5183
  217MOL0     C29198   2.525   3.183   8.530  0.5386  0.7027 -0.9360
  217MOL0     C29199   2.390   3.191   8.586  1.2820  1.1376  0.4000
  217MOL0     C29200   2.272   3.227   8.495  1.4897  0.2023 -0.9926
  217MOL0     C29201   2.130   3.232   8.572 -0.8133  0.0834  0.3521
  217MOL0     C29202   2.025   3.265   8.471  0.6589  0.1874  0.2643
  217MOL0     C29203   1.892   3.322   8.533  0.7278 -0.4545  0.1576
  217MOL0     C29204   1.791   3.355   8.432  0.0705 -0.1336 -0.1534
  217MOL0    Cl29205   1.836   3.487   8.313  0.0833  0.2342  0.2400
  217MOL0     C29206   2.937   3.318   8.423 -0.6945  0.0138 -0.7132
  217MOL0     C29207   3.042   3.404   8.414  0.1991 -0.6338  0.3200
  217MOL0     O29208   3.093   3.721   8.272 -0.6426 -0.0635  0.2064
  217MOL0     C29209   3.439   3.668   8.357 -0.4170 -0.2601  0.8472
  217MOL0     C29210   3.569   3.712   8.331  0.2534  0.4233 -0.4521
  217MOL0     N29211   4.224   4.007   8.427 -0.5207 -0.2078 -0.3162
  217MOL0     N29212   4.339   3.997   8.480  0.4561  0.6040  0.5915
  217MOL0     C29213   5.593   4.056   8.490  0.4073  0.5862  0.3374
  217MOL0     C29214   5.718   4.103   8.447 -0.1059  0.1026  0.2397
  217MOL0     C29215   6.112   4.165   8.236 -0.5600 -0.6364 -0.5125
  217MOL0     C29216   6.219   4.250   8.269 -0.0684  0.3753 -0.7266
  217MOL0     C29217   6.335   4.263   8.190 -0.1326  0.0698  0.0160
  217MOL0     C29218   6.344   4.197   8.067  1.5785  0.1177  0.6249
  217MOL0     O29219   6.458   4.210   7.998 -0.4617 -0.2735 -0.1771
  217MOL0     C29220   6.478   4.140   7.874 -0.4021  0.3130 -0.6143
  217MOL0     C29221   6.612   4.165   7.824 -0.9077 -0.0827  0.3184
  217MOL0     C29222   6.720   4.121   7.925  0.0190 -0.2415  0.9004
  217MOL0     C29223   6.860   4.170   7.869  0.1464 -0.3610  0.1373
  217MOL0     C29224   6.906   4.105   7.743 -0.1367  0.0435 -0.7897
  217MOL0     C29225   6.961   4.051   7.649  0.2959 -0.2416  0.4003
  217MOL0     C29226   6.234   4.114   8.029 -0.2497  0.3649  0.6883
  217MOL0     C29227   6.127   4.094   8.120  0.7590 -0.1557 -0.3798
  217MOL0     H29228   5.761   3.873   8.210  1.1068  2.7833  0.4945
  217MOL0     H29229   5.561   3.772   8.313 -0.5650  0.3481 -0.1184
  217MOL0     H29230   5.260   3.868   8.624 -1.0587  1.4194  1.8399
  217MOL0     H29231   5.382   3.989   8.638 -0.3188 -0.9767  0.6758
  217MOL0     H29232   5.251   4.136   8.532  0.5670 -0.1657  0.6349
  217MOL0     H29233   5.279   4.047   8.378  0.0084  0.6311  0.2248
  217MOL0     H29234   5.087   3.946   8.366  2.1014  0.6735 -0.7039
  217MOL0     H29235   5.070   3.917   8.542 -2.8771 -0.5574 -1.6542
  217MOL0     H29236   5.008   4.150   8.572  2.4253 -2.9307  1.3852
  217MOL0     H29237   5.018   4.179   8.395  0.3669 -1.4213 -1.0483
  217MOL0     H29238   4.817   3.990   8.526 -3.7421  2.8862  2.0340
  217MOL0     H29239   4.779   4.151   8.491  2.0442  0.8070  1.6301
  217MOL0     H29240   4.847   4.115   8.253  5.5703 -3.4279 -0.9283
  217MOL0     H29241   4.844   3.946   8.285 -0.3678  0.0435 -1.2558
  217MOL0     H29242   4.622   4.144   8.351  2.6716  1.4463 -2.8866
  217MOL0     H29243   4.620   4.036   8.215 -1.2884 -0.7012  1.3793
  217MOL0     H29244   4.589   3.948   8.499 -4.3545  0.4809  1.0648
  217MOL0     H29245   4.594   3.839   8.357 -0.1861  0.2538  1.4502
  217MOL0     H29246   4.405   3.934   8.157  1.0054 -0.2400  0.0446
  217MOL0     H29247   4.146   4.071   8.115 -0.8515 -1.0646 -1.2363
  217MOL0     H29248   4.119   3.899   8.138  0.7424 -0.9467  0.5387
  217MOL0     H29249   3.981   4.122   8.297  1.9865  0.3236 -0.8238
  217MOL0     H29250   3.953   3.951   8.320  0.3207  0.1294  0.1072
  217MOL0     H29251   3.891   3.962   8.070 -2.7842  0.2353  0.0608
  217MOL0     H29252   3.875   4.138   8.101 -1.2800  1.1886  2.1577
  217MOL0     H29253   3.667   4.030   8.113  4.5910  1.4054 -2.7247
  217MOL0     H29254   3.716   4.080   8.281 -0.9819 -0.4476  0.3583
  217MOL0     H29255   3.487   3.998   8.173  0.7867  0.2193 -1.1844
  217MOL0     H29256   3.167   3.907   8.152  1.7360  0.3683 -3.5971
  217MOL0     H29257   3.179   3.984   8.314 -0.6508 -0.4897 -0.7105
  217MOL0     H29258   3.268   4.051   8.168 -1.8188 -0.9510 -2.7391
  217MOL0     H29259   2.951   3.682   8.552  2.5851  0.2950 -1.2190
  217MOL0     H29260   2.737   3.556   8.582  0.1679 -1.0332  0.6723
  217MOL0     H29261   2.608   3.323   8.665  1.0192  2.5241  0.2069
  217MOL0     H29262   2.558   3.401   8.519 -1.2118  0.0883 -0.2315
  217MOL0     H29263   2.518   3.154   8.424 -1.3594 -2.5672 -0.0506
  217MOL0     H29264   2.583   3.107   8.582 -1.5094 -1.1369 -1.2075
  217MOL0     H29265   2.392   3.250   8.678  0.2240  1.0062  0.5215
  217MOL0     H29266   2.365   3.093   8.627  2.1406  0.4162 -0.7332
  217MOL0     H29267   2.296   3.324   8.451 -1.2924  0.8758 -1.2170
  217MOL0     H29268   2.257   3.154   8.415 -0.2430 -2.7229  1.7465
  217MOL0     H29269   2.132   3.319   8.638  0.4984 -0.4553  1.0644
  217MOL0     H29270   2.099   3.135   8.613  1.4557 -0.8323  0.0177
  217MOL0     H29271   2.064   3.337   8.399 -1.5120  0.5208 -0.6615
  217MOL0     H29272   2.002   3.170   8.422  1.9375  0.2885 -0.5850
  217MOL0     H29273   1.904   3.411   8.596 -1.6753 -0.0812  0.1696
  217MOL0     H29274   1.843   3.250   8.599 -0.1808  0.1804  0.1886
  217MOL0     H29275   1.698   3.387   8.481 -0.1394 -1.5569  0.4339
  217MOL0     H29276   1.767   3.264   8.377  1.7300 -0.1577 -0.8847
  217MOL0     H29277   2.937   3.214   8.391 -0.1735 -1.1376  2.7111
  217MOL0     H29278   3.135   3.363   8.375 -0.0989 -0.9872 -0.0176
  217MOL0     H29279   3.426   3.569   8.399 -1.8727  0.2124  1.5973
  217MOL0     H29280   3.648   3.655   8.378 -0.2702 -2.2160 -2.4956
  217MOL0     H29281   5.539   4.113   8.564  0.2999  2.0253 -0.8034
  217MOL0     H29282   5.768   4.186   8.497 -2.3831  0.3305  2.3773
  217MOL0     H29283   6.216   4.303   8.364 -2.4820  1.7965 -1.4937
  217MOL0     H29284   6.421   4.318   8.226  0.2794 -1.3943  1.3934
  217MOL0     H29285   6.477   4.033   7.900  0.0010 -0.2298 -2.6532
  217MOL0     H29286   6.407   4.165   7.795  1.2329  3.2822 -1.2684
  217MOL0     H29287   6.619   4.273   7.807  0.0708 -0.5395 -2.9257
  217MOL0     H29288   6.625   4.118   7.726  0.9310  2.1485 -0.5895
  217MOL0     H29289   6.715   4.012   7.935  1.9523 -0.6163 -1.3870
  217MOL0     H29290   6.693   4.157   8.025  0.8095 -0.0641  1.0585
  217MOL0     H29291   6.935   4.144   7.944  0.1853  0.2814  0.3230
  217MOL0     H29292   6.871   4.278   7.869  0.0072 -0.3402 -0.4534
  217MOL0     H29293   7.019   4.019   7.565 -0.4186  3.3199 -1.6514
  217MOL0     H29294   6.231   4.056   7.937 -1.9953 -1.2839  1.7037
  217MOL0     H29295   6.045   4.028   8.093 -1.3378  1.4551  1.5944
  218MOL0     O29296   4.129   6.812   2.136  0.2279 -0.1396  0.1369
  218MOL0     C29297   4.059   6.744   2.061  0.2663 -0.3491 -0.0193
  218MOL0     O29298   3.941   6.786   2.006 -0.7459  0.3259  1.0109
  218MOL0     C29299   3.889   6.912   2.022 -0.7708 -1.0040  0.3835
  218MOL0     C29300   3.943   7.024   2.083 -0.3216  0.1429  0.2504
  218MOL0     C29301   3.879   7.146   2.078 -0.7600  0.4980  0.0311
  218MOL0     C29302   3.773   7.162   1.995  0.6347  0.5314 -0.4013
  218MOL0     O29303   3.719   7.292   1.981 -0.0930  0.5535 -0.0923
  218MOL0     C29304   3.578   7.303   1.952 -0.2582 -0.8907  0.0153
  218MOL0     C29305   3.552   7.460   1.942  1.3643 -0.8690 -0.0698
  218MOL0     C29306   3.430   7.501   1.859 -0.1583 -0.3501  0.3606
  218MOL0     C29307   3.306   7.546   1.932  0.7764 -0.1889  0.0098
  218MOL0     C29308   3.229   7.642   1.854 -0.9538  0.0624  0.3911
  218MOL0     C29309   3.201   7.596   1.714  0.1255 -0.9672  0.3404
  218MOL0     C29310   3.105   7.477   1.700  0.4241 -0.5407 -0.1826
  218MOL0     C29311   3.108   7.418   1.555 -0.4490  0.3555  0.2931
  218MOL0     N29312   3.061   7.512   1.454  0.6477 -0.3519 -0.1891
  218MOL0     C29313   2.932   7.538   1.421 -0.0710  0.1337 -0.2255
  218MOL0     C29314   2.926   7.583   1.293 -0.1165 -0.4468 -0.9679
  218MOL0     C29315   2.810   7.607   1.210 -0.9489 -0.5244  0.2679
  218MOL0     C29316   2.704   7.500   1.224  1.3471  0.3302 -0.3808
  218MOL0     C29317   2.594   7.520   1.118 -0.0720  1.5100 -0.0419
  218MOL0     C29318   2.485   7.410   1.129  0.3085 -1.0069 -0.5086
  218MOL0     O29319   2.419   7.425   1.257  0.2515  0.0647  0.3239
  218MOL0     C29320   2.355   7.314   1.289 -0.1157  0.7735  0.6229
  218MOL0     C29321   2.343   7.292   1.426 -0.6268 -1.4441  0.5340
  218MOL0     C29322   2.265   7.187   1.482  0.3116 -0.4911  0.4318
  218MOL0     C29323   2.284   7.148   1.622  0.3613 -0.6980  0.0394
  218MOL0     C29324   2.181   7.117   1.389  0.9005 -0.1655  0.0470
  218MOL0     C29325   2.080   7.015   1.432 -0.3071  0.0997 -0.7815
  218MOL0     O29326   2.052   6.923   1.340 -0.0703  0.5175 -0.0743
  218MOL0     C29327   1.951   6.825   1.367 -0.4558  0.8678 -0.6116
  218MOL0     C29328   1.918   6.749   1.485 -0.7893  0.4929 -0.3578
  218MOL0     C29329   1.821   6.646   1.479  0.4903 -0.2046  0.0651
  218MOL0     C29330   1.751   6.604   1.370 -0.4314 -0.6430  0.2500
  218MOL0     O29331   1.653   6.507   1.381 -0.3236  0.6111  0.4370
  218MOL0     C29332   1.582   6.454   1.270 -0.1341  0.9679 -0.4324
  218MOL0     C29333   1.494   6.334   1.329  0.4971 -0.0937  0.2302
  218MOL0     C29334   1.416   6.280   1.205 -0.0933  0.7549 -0.1431
  218MOL0     C29335   1.385   6.136   1.221 -0.0256  0.3273 -0.7200
  218MOL0     C29336   1.312   6.083   1.098 -0.2699  0.1624  0.2344
  218MOL0     C29337   1.305   5.928   1.105  0.3358  0.1094 -0.2756
  218MOL0     C29338   1.207   5.861   1.002 -0.4257 -0.9901 -0.0097
  218MOL0     C29339   1.197   5.711   1.049  0.3271 -0.7425  0.9295
  218MOL0    Cl29340   1.360   5.651   1.054  0.0748  0.1299  0.3731
  218MOL0     C29341   1.786   6.674   1.248 -0.3703  0.4004  0.3599
  218MOL0     C29342   1.884   6.778   1.245 -0.2683  0.4620  0.3639
  218MOL0     O29343   2.012   7.035   1.533  0.5555 -0.4152 -0.1057
  218MOL0     C29344   2.205   7.141   1.250  0.9500  0.3848 -0.3107
  218MOL0     C29345   2.290   7.231   1.200 -0.0112  0.9809  0.6701
  218MOL0     N29346   3.056   7.592   1.254 -0.3734 -0.7886 -0.2863
  218MOL0     N29347   3.138   7.547   1.342 -0.0089 -0.1214  1.5721
  218MOL0     C29348   3.707   7.050   1.946 -0.3240  0.0145  0.0172
  218MOL0     C29349   3.766   6.923   1.961  0.2666 -1.1595 -0.2527
  218MOL0     C29350   4.107   6.605   2.023  0.2645  0.2197 -0.6254
  218MOL0     C29351   4.207   6.541   2.103  0.4425  0.6156  0.8112
  218MOL0     C29352   4.239   6.402   2.073  0.0435  0.4249 -0.5395
  218MOL0     C29353   4.180   6.336   1.969 -0.0261  0.5079 -1.1171
  218MOL0     O29354   4.228   6.214   1.936  0.3499  0.3049  0.4626
  218MOL0     C29355   4.141   6.110   1.954  0.7017 -1.1098 -0.0010
  218MOL0     C29356   4.114   6.079   2.104 -0.2134 -0.4199  0.0789
  218MOL0     C29357   4.010   5.976   2.130  0.1670  0.0954 -0.2488
  218MOL0     C29358   4.066   5.833   2.128  0.0638 -0.9502 -0.4893
  218MOL0     C29359   3.947   5.746   2.120  1.5992  0.1104 -0.9121
  218MOL0     C29360   3.849   5.672   2.138 -0.1299  0.2927  0.5518
  218MOL0     C29361   4.078   6.395   1.895 -1.0208 -0.8001  0.0564
  218MOL0     C29362   4.054   6.535   1.906 -0.3568 -0.6998 -0.9830
  218MOL0     H29363   4.030   7.019   2.148 -1.2585 -3.0887  1.4300
  218MOL0     H29364   3.927   7.233   2.123  2.9356 -0.3587 -1.8630
  218MOL0     H29365   3.540   7.257   1.861  1.2836  2.8967 -2.8093
  218MOL0     H29366   3.531   7.275   2.047 -1.1111 -0.3739 -0.2385
  218MOL0     H29367   3.513   7.481   2.042  1.5364  1.0004 -0.3542
  218MOL0     H29368   3.637   7.524   1.918 -0.1819  1.4425  0.2330
  218MOL0     H29369   3.474   7.579   1.796  3.3599 -1.7926  0.7653
  218MOL0     H29370   3.406   7.412   1.801 -0.5204  0.9567 -1.5735
  218MOL0     H29371   3.234   7.472   1.969  0.3080  0.7280  0.9968
  218MOL0     H29372   3.335   7.591   2.027  3.7620  1.0684 -1.3745
  218MOL0     H29373   3.145   7.674   1.916  0.8366  1.4158  2.2825
  218MOL0     H29374   3.288   7.733   1.841 -0.2072 -0.7317 -2.4545
  218MOL0     H29375   3.145   7.679   1.670 -1.1202 -1.1040  1.5940
  218MOL0     H29376   3.297   7.576   1.666 -0.5383 -0.3214 -1.3249
  218MOL0     H29377   3.140   7.393   1.760  1.1955 -1.0365 -1.3027
  218MOL0     H29378   3.005   7.499   1.738 -0.3413 -0.4245 -2.1124
  218MOL0     H29379   3.045   7.328   1.562 -0.8065  0.6808  1.4581
  218MOL0     H29380   3.211   7.388   1.531 -1.3799 -2.0470 -1.0658
  218MOL0     H29381   2.848   7.523   1.487 -0.3053  0.7138 -0.3872
  218MOL0     H29382   2.767   7.704   1.235  0.7567  0.9946 -2.3141
  218MOL0     H29383   2.846   7.600   1.107 -0.9272  1.0777  0.1519
  218MOL0     H29384   2.652   7.529   1.316  2.7168  1.4519  0.0653
  218MOL0     H29385   2.744   7.398   1.224  1.5771  0.4193 -0.6005
  218MOL0     H29386   2.626   7.494   1.017 -0.2887  0.9797  0.0242
  218MOL0     H29387   2.548   7.620   1.117  0.6127  1.8300 -0.7125
  218MOL0     H29388   2.524   7.310   1.108 -2.2912 -1.8437 -1.8561
  218MOL0     H29389   2.400   7.431   1.064 -2.4177 -1.6486  2.5560
  218MOL0     H29390   2.407   7.359   1.483 -0.2496 -0.2189 -1.2516
  218MOL0     H29391   2.364   7.203   1.673 -0.1838 -1.1113  1.3991
  218MOL0     H29392   2.195   7.171   1.682  1.6751  1.1425  1.4224
  218MOL0     H29393   2.303   7.041   1.627 -0.8021 -0.8685  1.7371
  218MOL0     H29394   1.976   6.771   1.574 -1.0248 -2.3178  0.5866
  218MOL0     H29395   1.790   6.596   1.571  0.5047  1.4766  1.0190
  218MOL0     H29396   1.519   6.528   1.220  0.3976  1.3748 -0.5072
  218MOL0     H29397   1.654   6.408   1.203 -1.2312 -2.6079  0.6289
  218MOL0     H29398   1.549   6.249   1.370  0.2743 -1.4863 -2.1574
  218MOL0     H29399   1.418   6.379   1.394 -1.9103  0.2799 -2.6468
  218MOL0     H29400   1.473   6.296   1.113 -0.7419 -0.2979 -0.7551
  218MOL0     H29401   1.324   6.335   1.186  0.6589  0.8178 -5.0120
  218MOL0     H29402   1.482   6.089   1.234  0.1967  1.0882  0.5473
  218MOL0     H29403   1.338   6.116   1.318 -1.0827  1.3725 -0.9930
  218MOL0     H29404   1.360   6.109   1.004 -1.8631  1.8626 -0.1516
  218MOL0     H29405   1.212   6.126   1.091 -1.3068 -2.1650 -0.3617
  218MOL0     H29406   1.409   5.895   1.105  0.2382 -0.2104  0.4315
  218MOL0     H29407   1.275   5.903   1.207  1.5585 -0.6622 -0.0831
  218MOL0     H29408   1.244   5.874   0.900  0.1048  1.3240  0.4082
  218MOL0     H29409   1.103   5.894   1.016  0.0934  0.5582  0.3944
  218MOL0     H29410   1.133   5.642   0.993 -0.1354 -1.4073  2.2254
  218MOL0     H29411   1.151   5.719   1.148 -2.6744  0.0489 -0.4202
  218MOL0     H29412   1.737   6.635   1.159 -0.5366  1.7189 -0.1432
  218MOL0     H29413   1.917   6.838   1.161  2.0582 -0.9795  0.1702
  218MOL0     H29414   2.145   7.077   1.187  1.2041  1.3464 -1.5584
  218MOL0     H29415   2.288   7.226   1.092 -0.9747 -3.0281  0.7300
  218MOL0     H29416   3.614   7.065   1.892 -0.0741  2.0068  0.0564
  218MOL0     H29417   3.723   6.832   1.920  0.2645 -0.3370 -2.1527
  218MOL0     H29418   4.247   6.579   2.196  1.3867 -0.3135  0.7920
  218MOL0     H29419   4.314   6.353   2.135  1.5939  0.6015 -2.2095
  218MOL0     H29420   4.042   6.121   1.908 -0.0855 -3.4766  0.9467
  218MOL0     H29421   4.167   6.018   1.901 -4.8745 -4.1511  1.6158
  218MOL0     H29422   4.078   6.177   2.137 -2.6790 -0.1602 -2.9067
  218MOL0     H29423   4.201   6.048   2.162  1.1728  4.7713  1.3081
  218MOL0     H29424   3.939   5.984   2.047  1.1471 -0.2890 -1.1473
  218MOL0     H29425   3.958   5.994   2.225  0.5783 -0.5696  0.1153
  218MOL0     H29426   4.127   5.803   2.213 -1.3604 -1.7145  0.3112
  218MOL0     H29427   4.129   5.816   2.040  0.1048 -0.4341 -0.5609
  218MOL0     H29428   3.764   5.609   2.152 -0.4559  0.2594 -1.3494
  218MOL0     H29429   4.013   6.337   1.830  0.1386 -1.0475 -0.9129
  218MOL0     H29430   3.982   6.592   1.848 -2.9703 -1.8004  0.9803
  219MOL0     O29431   0.268  10.407  10.539 -0.1754  0.6915 -0.4934
  219MOL0     C29432   0.351  10.357  10.619 -1.0109 -0.0426 -0.1024
  219MOL0     O29433   0.323  10.297  10.740  0.2363 -0.0309  0.6691
  219MOL0     C29434   0.197  10.295  10.796 -0.9727 -1.2777  0.0283
  219MOL0     C29435   0.079  10.280  10.717 -0.9749 -0.5423 -1.3679
  219MOL0     C29436  -0.048  10.284  10.781 -0.4990  0.2779 -0.0444
  219MOL0     C29437  -0.056  10.289  10.922  0.3318  0.3897 -0.8178
  219MOL0     O29438  -0.179  10.275  10.985  0.4768  0.1611 -0.1455
  219MOL0     C29439  -0.221  10.406  11.039  0.6451 -0.0793  0.5219
  219MOL0     C29440  -0.365  10.393  11.101  0.3327  0.2649  0.2040
  219MOL0     C29441  -0.476  10.368  10.991  0.9976  0.0559 -0.2436
  219MOL0     C29442  -0.597  10.457  11.039  0.4135  0.0857  0.5309
  219MOL0     C29443  -0.718  10.421  10.965  1.1153  0.2531  0.0493
  219MOL0     C29444  -0.843  10.511  11.005 -0.0570  0.9004  0.9219
  219MOL0     C29445  -0.910  10.452  11.130 -0.3344 -0.8856  0.9748
  219MOL0     C29446  -1.009  10.546  11.193 -0.5896  0.2424  0.2868
  219MOL0     N29447  -1.080  10.480  11.311 -0.1254  0.2581 -0.2782
  219MOL0     C29448  -1.135  10.349  11.317 -0.0592  0.0820 -0.0006
  219MOL0     C29449  -1.218  10.359  11.424  0.3114 -0.6494 -0.5477
  219MOL0     C29450  -1.326  10.264  11.477  0.9439 -0.0383 -0.3799
  219MOL0     C29451  -1.432  10.240  11.371  0.3110  0.7268  0.0177
  219MOL0     C29452  -1.492  10.372  11.322 -0.5616 -0.3246 -1.1281
  219MOL0     C29453  -1.620  10.356  11.240  0.2618 -0.5638  0.1281
  219MOL0     O29454  -1.722  10.333  11.335 -0.4341  0.1669  0.2707
  219MOL0     C29455  -1.833  10.264  11.289 -0.3269 -0.4441 -0.1555
  219MOL0     C29456  -1.876  10.172  11.373 -0.1074 -0.6487 -0.7444
  219MOL0     C29457  -1.987  10.096  11.354  0.4137  0.0754  0.0574
  219MOL0     C29458  -2.040  10.019  11.469 -0.3188 -0.2346  0.4435
  219MOL0     C29459  -2.059  10.125  11.239  0.0381  0.1720 -0.2198
  219MOL0     C29460  -2.197  10.063  11.202 -0.1245 -0.7415 -0.0224
  219MOL0     O29461  -2.282  10.139  11.125 -0.2115 -0.3359 -0.2494
  219MOL0     C29462  -2.399  10.079  11.081 -0.3169  0.0340  0.2112
  219MOL0     C29463  -2.529  10.104  11.121  0.3317 -1.1472 -0.1791
  219MOL0     C29464  -2.645  10.046  11.065 -0.4252  0.0996 -0.4942
  219MOL0     C29465  -2.632   9.956  10.963 -0.6730  0.5413  0.5639
  219MOL0     O29466  -2.741   9.894  10.910  0.0882 -1.0861 -0.5169
  219MOL0     C29467  -2.789   9.938  10.782 -0.0591  0.1954  0.3599
  219MOL0     C29468  -2.812  10.086  10.772  0.6879  0.4947  0.2738
  219MOL0     C29469  -2.954  10.129  10.817 -0.4818 -0.1040  1.3869
  219MOL0     C29470  -2.956  10.249  10.913  0.1668  0.0647 -0.1258
  219MOL0     C29471  -3.100  10.299  10.941 -0.1489 -0.6873  1.2025
  219MOL0     C29472  -3.192  10.213  11.026 -0.2541  0.4159 -0.0366
  219MOL0     C29473  -3.314  10.286  11.079  0.1518  0.7217  0.1417
  219MOL0     C29474  -3.446  10.244  11.001 -0.8997  0.6581  0.3925
  219MOL0    Cl29475  -3.442  10.298  10.831  0.0194 -0.0869 -0.0502
  219MOL0     C29476  -2.507   9.928  10.917 -0.4810 -0.3601  0.1480
  219MOL0     C29477  -2.386   9.992  10.966  0.3027 -0.3532  0.2764
  219MOL0     O29478  -2.213   9.945  11.239  0.3179 -0.5392  0.4180
  219MOL0     C29479  -2.016  10.228  11.152  0.2185  0.1819  1.0253
  219MOL0     C29480  -1.898  10.298  11.176  0.1112  0.3100  0.6535
  219MOL0     N29481  -1.226  10.491  11.471  0.1599 -0.8646 -0.0491
  219MOL0     N29482  -1.137  10.557  11.411 -0.2776  0.2406  1.0806
  219MOL0     C29483   0.062  10.267  10.992  0.7258 -0.7036  0.4817
  219MOL0     C29484   0.186  10.277  10.934  0.6107 -0.2298  0.1828
  219MOL0     C29485   0.495  10.343  10.587 -0.1187  0.3572 -0.0673
  219MOL0     C29486   0.556  10.403  10.473 -0.0688 -0.8806 -0.8909
  219MOL0     C29487   0.691  10.416  10.467 -0.2787 -0.5064  0.4312
  219MOL0     C29488   0.786  10.357  10.555  0.0519  0.0978  0.0086
  219MOL0     O29489   0.923  10.360  10.537 -0.3693 -0.9032 -0.4157
  219MOL0     C29490   0.968  10.475  10.459 -0.1850 -1.6423 -0.1604
  219MOL0     C29491   1.116  10.488  10.475  0.5466 -0.0373 -0.7817
  219MOL0     C29492   1.143  10.524  10.621 -1.6530 -0.5170  0.2045
  219MOL0     C29493   1.296  10.529  10.666 -0.6394 -0.8177  0.9760
  219MOL0     C29494   1.389  10.570  10.565 -0.8091 -0.4576  0.6307
  219MOL0     C29495   1.464  10.600  10.476  0.7390 -0.6034  0.2475
  219MOL0     C29496   0.728  10.294  10.659  0.2902  0.0365  0.1085
  219MOL0     C29497   0.587  10.288  10.680  1.1595  0.3058 -0.2173
  219MOL0     H29498   0.080  10.294  10.609 -4.2515  1.5622 -1.2792
  219MOL0     H29499  -0.135  10.276  10.717 -0.8040  3.0532 -0.1166
  219MOL0     H29500  -0.153  10.468  11.098 -1.8289  3.4266 -0.0326
  219MOL0     H29501  -0.222  10.472  10.952  0.7456 -0.2029  0.4256
  219MOL0     H29502  -0.382  10.315  11.176  1.8244 -0.0302  0.2702
  219MOL0     H29503  -0.391  10.484  11.156 -2.0654 -1.5177  2.2888
  219MOL0     H29504  -0.451  10.400  10.889 -0.5121  0.2762 -0.5663
  219MOL0     H29505  -0.500  10.262  10.995  1.0296 -0.1379 -3.3368
  219MOL0     H29506  -0.610  10.442  11.147 -0.7208  1.2881  0.5879
  219MOL0     H29507  -0.583  10.565  11.024 -0.0911  0.2485  1.1780
  219MOL0     H29508  -0.691  10.421  10.859  0.6380 -1.6669 -0.1215
  219MOL0     H29509  -0.761  10.324  10.991  0.0654  0.2286 -1.5717
  219MOL0     H29510  -0.792  10.606  11.021  0.8199  0.4563  0.8533
  219MOL0     H29511  -0.915  10.513  10.924 -1.2349 -0.8153  1.8524
  219MOL0     H29512  -0.956  10.362  11.088 -0.1667 -0.6744  0.3321
  219MOL0     H29513  -0.836  10.419  11.203 -1.7204 -4.3029  1.0128
  219MOL0     H29514  -1.077  10.580  11.115  2.0404 -2.1812 -3.3724
  219MOL0     H29515  -0.968  10.637  11.238 -0.9861  0.5659 -0.0022
  219MOL0     H29516  -1.121  10.262  11.254 -1.9873 -2.1335  2.4166
  219MOL0     H29517  -1.280  10.167  11.501 -0.4020 -0.4094  0.8034
  219MOL0     H29518  -1.372  10.302  11.568  0.9862  1.4144 -0.9358
  219MOL0     H29519  -1.521  10.180  11.394 -2.2531  2.7161 -3.6032
  219MOL0     H29520  -1.368  10.203  11.289  0.3027  0.3437  0.1809
  219MOL0     H29521  -1.420  10.409  11.248  1.7001 -0.2320  1.0059
  219MOL0     H29522  -1.504  10.443  11.404 -0.4501 -3.5858  1.9118
  219MOL0     H29523  -1.603  10.266  11.180  2.3189 -0.4187  0.4007
  219MOL0     H29524  -1.628  10.445  11.177  0.7338 -1.0850 -0.6963
  219MOL0     H29525  -1.816  10.163  11.463  1.5994  0.0323 -1.7695
  219MOL0     H29526  -2.105  10.074  11.537 -0.4438 -2.3148  2.1176
  219MOL0     H29527  -2.086   9.924  11.440  1.7189 -1.9518  2.4089
  219MOL0     H29528  -1.959   9.979  11.531 -1.5147 -1.7349  1.1283
  219MOL0     H29529  -2.537  10.189  11.189  1.9421 -1.9589  1.0815
  219MOL0     H29530  -2.734  10.068  11.123  1.2075 -0.3098  2.3042
  219MOL0     H29531  -2.721   9.903  10.703  3.0196  2.0858  1.9871
  219MOL0     H29532  -2.889   9.893  10.774  0.2356 -0.3166 -0.6143
  219MOL0     H29533  -2.727  10.143  10.810  1.3439 -0.7616  0.7553
  219MOL0     H29534  -2.813  10.110  10.665 -3.5065 -2.2515 -0.5534
  219MOL0     H29535  -3.010  10.044  10.857 -2.9890  1.3922  1.2754
  219MOL0     H29536  -3.017  10.167  10.737  1.2168  0.6957  0.3652
  219MOL0     H29537  -2.911  10.223  11.010  1.2072  3.6352  0.4701
  219MOL0     H29538  -2.895  10.329  10.872  0.3321 -0.0460 -0.0966
  219MOL0     H29539  -3.149  10.320  10.845  1.0644 -0.0658  0.7017
  219MOL0     H29540  -3.083  10.390  10.999  3.1664  0.2100 -0.8956
  219MOL0     H29541  -3.213  10.121  10.970  2.0562  0.0436 -0.3727
  219MOL0     H29542  -3.128  10.183  11.109  1.2503  2.9513 -0.1837
  219MOL0     H29543  -3.299  10.394  11.071  0.8832  0.7774  1.8221
  219MOL0     H29544  -3.321  10.252  11.182  2.1602  1.3695  0.5489
  219MOL0     H29545  -3.534  10.287  11.050 -1.1633  2.9100 -1.9033
  219MOL0     H29546  -3.432  10.135  11.000  1.0367  0.8189  2.2766
  219MOL0     H29547  -2.498   9.854  10.838 -0.3942  0.4056 -0.5801
  219MOL0     H29548  -2.286   9.966  10.933  0.7455  0.5458  0.8749
  219MOL0     H29549  -2.062  10.246  11.056  1.6872 -0.5594  0.1556
  219MOL0     H29550  -1.848  10.359  11.102  0.8488 -1.6710 -0.5583
  219MOL0     H29551   0.050  10.273  11.100  5.1918  0.1571  1.1228
  219MOL0     H29552   0.279  10.266  10.989  1.1690 -1.1731 -0.9060
  219MOL0     H29553   0.489  10.445  10.398  1.2361  1.5389 -0.7680
  219MOL0     H29554   0.726  10.469  10.379  1.7283  0.8979  1.9819
  219MOL0     H29555   0.932  10.460  10.356 -3.2521 -0.4073  0.6088
  219MOL0     H29556   0.933  10.571  10.497  1.6549 -0.1738 -1.9683
  219MOL0     H29557   1.149  10.561  10.399 -1.0599  1.9937  0.3663
  219MOL0     H29558   1.168  10.395  10.450  1.8935  0.7542 -1.0590
  219MOL0     H29559   1.107  10.435  10.674  1.2637 -2.1725 -0.4004
  219MOL0     H29560   1.099  10.617  10.659  0.8005  0.4519  0.8652
  219MOL0     H29561   1.334  10.438  10.713 -0.7863 -1.1829  0.4012
  219MOL0     H29562   1.312  10.614  10.733  1.2742 -0.0676 -0.3230
  219MOL0     H29563   1.514  10.639  10.391 -0.0179 -1.1770 -0.4764
  219MOL0     H29564   0.797  10.241  10.724  0.9302 -0.3007 -0.8264
  219MOL0     H29565   0.550  10.251  10.775  1.6614 -1.0798 -0.5432
  220MOL0     O29566   2.101   6.779   6.863 -0.0253 -0.2524 -0.2050
  220MOL0     C29567   2.208   6.720   6.888 -0.0077  0.2873 -0.1638
  220MOL0     O29568   2.220   6.591   6.863  0.1993  0.0819 -0.0336
  220MOL0     C29569   2.107   6.513   6.841  0.1208 -0.5571 -1.0336
  220MOL0     C29570   2.083   6.459   6.715 -0.2997 -0.0046  0.4258
  220MOL0     C29571   1.961   6.400   6.693 -0.0468  0.4415  0.6207
  220MOL0     C29572   1.871   6.389   6.794  0.0380 -0.1015  0.8391
  220MOL0     O29573   1.758   6.317   6.767  0.5981 -0.4295 -0.1396
  220MOL0     C29574   1.650   6.304   6.864  0.4068 -0.0956  0.3689
  220MOL0     C29575   1.529   6.226   6.811 -0.2926  0.2584  0.5754
  220MOL0     C29576   1.407   6.231   6.897 -0.1656  0.5222  0.1929
  220MOL0     C29577   1.290   6.166   6.817 -0.0185 -0.2794 -0.3919
  220MOL0     C29578   1.169   6.132   6.908 -0.0630  0.5965 -0.6038
  220MOL0     C29579   1.112   6.267   6.966 -0.2070  0.3101  0.1217
  220MOL0     C29580   1.003   6.239   7.072  1.0368 -0.7011 -0.7257
  220MOL0     C29581   1.035   6.145   7.193  0.3838 -0.3023  0.0796
  220MOL0     N29582   1.142   6.201   7.270 -0.0240  0.1992  0.3699
  220MOL0     C29583   1.271   6.147   7.277 -0.3534 -0.5365 -0.5979
  220MOL0     C29584   1.337   6.238   7.361  0.2200 -0.4027 -0.1307
  220MOL0     C29585   1.486   6.245   7.395  0.8286 -0.1913  0.8638
  220MOL0     C29586   1.556   6.122   7.446 -0.6442  0.0471 -0.2386
  220MOL0     C29587   1.506   6.069   7.580  1.0994  0.0447  0.2705
  220MOL0     C29588   1.538   6.171   7.692 -0.0851 -0.5597  0.4874
  220MOL0     O29589   1.588   6.096   7.803  0.1721 -0.2673  0.0864
  220MOL0     C29590   1.725   6.119   7.815  0.5834  0.6163  1.0287
  220MOL0     C29591   1.819   6.037   7.756  0.1827 -0.4519  1.4571
  220MOL0     C29592   1.952   6.076   7.734  0.2071  0.4703 -1.5776
  220MOL0     C29593   2.017   5.997   7.629 -0.2641  0.2141 -0.8223
  220MOL0     C29594   2.000   6.186   7.788 -0.1084  0.3635 -0.3868
  220MOL0     C29595   2.143   6.227   7.781  0.5859  0.2262  0.1234
  220MOL0     O29596   2.174   6.350   7.724 -0.0031  0.8002 -0.2006
  220MOL0     C29597   2.096   6.418   7.642  0.3900  0.0261 -0.0152
  220MOL0     C29598   2.082   6.556   7.648 -0.8952  0.2046 -0.1155
  220MOL0     C29599   1.988   6.633   7.570  0.3640  0.6173  0.8349
  220MOL0     C29600   1.906   6.565   7.473 -0.2092  0.1008 -0.3012
  220MOL0     O29601   1.800   6.637   7.416 -0.4766  0.4937  0.4724
  220MOL0     C29602   1.739   6.581   7.292 -0.6385  0.6173 -0.4987
  220MOL0     C29603   1.666   6.707   7.242 -0.3611  0.0646 -0.3270
  220MOL0     C29604   1.756   6.815   7.163  0.7071  0.1743 -0.5304
  220MOL0     C29605   1.763   6.948   7.243  0.7742 -0.3348 -0.1577
  220MOL0     C29606   1.878   7.037   7.197  0.0076 -0.3374 -0.5567
  220MOL0     C29607   1.882   7.179   7.251  1.1428  0.4904  0.4676
  220MOL0     C29608   1.898   7.185   7.406  0.6005 -0.0487 -0.7592
  220MOL0     C29609   2.051   7.151   7.435  0.0225 -0.5717 -0.4356
  220MOL0    Cl29610   2.170   7.248   7.355  0.0180 -0.1123  0.5081
  220MOL0     C29611   1.941   6.428   7.450  1.0465  0.4362 -1.0964
  220MOL0     C29612   2.028   6.356   7.536 -0.2611 -0.1592 -1.0833
  220MOL0     O29613   2.224   6.151   7.841 -0.0622  0.4345 -0.2302
  220MOL0     C29614   1.917   6.265   7.874  0.1783  0.2919  0.2273
  220MOL0     C29615   1.778   6.232   7.880 -0.0452 -0.3861  0.4798
  220MOL0     N29616   1.253   6.343   7.391 -0.1758 -0.4067  0.0766
  220MOL0     N29617   1.133   6.318   7.344 -0.3506  0.1642 -0.1438
  220MOL0     C29618   1.896   6.447   6.923 -0.5202  0.3383 -0.6970
  220MOL0     C29619   2.019   6.500   6.951 -0.1508 -0.0280  1.1104
  220MOL0     C29620   2.319   6.794   6.957 -0.0562  0.3895 -0.3193
  220MOL0     C29621   2.438   6.728   6.987 -0.7877 -0.2174  0.2671
  220MOL0     C29622   2.544   6.788   7.058  0.2343  0.2563  0.4691
  220MOL0     C29623   2.537   6.927   7.094 -0.3617 -0.3847  0.7047
  220MOL0     O29624   2.635   7.002   7.144 -0.1312 -0.3830  0.0911
  220MOL0     C29625   2.777   6.967   7.148  0.2877 -0.2356  0.4387
  220MOL0     C29626   2.820   6.905   7.276 -0.8982  0.2490 -0.1325
  220MOL0     C29627   2.939   6.795   7.268  1.7314  0.8337 -0.0296
  220MOL0     C29628   2.960   6.709   7.393  0.0366 -0.4540 -0.0110
  220MOL0     C29629   3.020   6.804   7.495  0.6019  0.1789  0.2146
  220MOL0     C29630   3.075   6.863   7.586 -0.2074 -0.1605 -0.2096
  220MOL0     C29631   2.418   6.987   7.070 -0.1620 -0.6112  1.0156
  220MOL0     C29632   2.306   6.931   7.003 -0.1400  0.4684 -0.2203
  220MOL0     H29633   2.151   6.471   6.631 -0.4158  3.8667  0.7063
  220MOL0     H29634   1.946   6.352   6.597 -0.8341  0.4139  0.7579
  220MOL0     H29635   1.688   6.250   6.951  2.3174  1.3950  0.5315
  220MOL0     H29636   1.627   6.408   6.891  1.8621  0.7440 -1.3239
  220MOL0     H29637   1.499   6.271   6.716 -3.0267 -1.0227  0.7538
  220MOL0     H29638   1.551   6.123   6.782  1.0650  0.9236 -0.9573
  220MOL0     H29639   1.428   6.179   6.991 -0.5574  0.1411  0.0674
  220MOL0     H29640   1.390   6.334   6.930 -1.0298  1.0864 -1.8756
  220MOL0     H29641   1.262   6.227   6.730 -2.6368 -0.3853  0.2926
  220MOL0     H29642   1.324   6.074   6.768 -0.8999  0.1809 -1.9453
  220MOL0     H29643   1.089   6.075   6.861  0.1751  0.1638 -0.4878
  220MOL0     H29644   1.209   6.070   6.988  0.0313 -0.4040 -1.4070
  220MOL0     H29645   1.197   6.324   7.004  0.0245  0.8230 -1.1357
  220MOL0     H29646   1.072   6.319   6.879  0.4277  1.0634  0.2763
  220MOL0     H29647   0.961   6.333   7.109 -1.0661 -2.3584  1.3764
  220MOL0     H29648   0.918   6.196   7.017 -2.2158  2.0649  1.6717
  220MOL0     H29649   1.063   6.049   7.147 -1.9662 -1.1603  0.3146
  220MOL0     H29650   0.947   6.117   7.251  0.8149 -0.3173  0.7371
  220MOL0     H29651   1.315   6.072   7.213  0.7023  0.5232 -1.1550
  220MOL0     H29652   1.530   6.258   7.296 -0.7730 -1.7984 -0.1305
  220MOL0     H29653   1.507   6.332   7.458  0.9190 -0.0515  0.6425
  220MOL0     H29654   1.661   6.148   7.464 -1.2661  0.4550  3.6360
  220MOL0     H29655   1.548   6.052   7.362  2.4300 -0.1145 -0.5199
  220MOL0     H29656   1.548   5.972   7.605  2.0365  0.1399 -0.8659
  220MOL0     H29657   1.397   6.064   7.576  0.9498  0.5025  2.4977
  220MOL0     H29658   1.445   6.218   7.725 -0.6629  0.6233 -2.5574
  220MOL0     H29659   1.602   6.252   7.653 -0.9770  0.8064  1.7475
  220MOL0     H29660   1.782   5.944   7.713 -0.8046  0.4418  0.2876
  220MOL0     H29661   2.013   5.889   7.648  0.2785  0.5927  1.7309
  220MOL0     H29662   1.961   6.016   7.537 -0.5887  0.5465 -0.5593
  220MOL0     H29663   2.121   6.027   7.613  0.0489 -0.9954 -1.1688
  220MOL0     H29664   2.137   6.618   7.718 -1.1835 -0.6211  0.8573
  220MOL0     H29665   1.975   6.739   7.593 -0.4918  0.4017  1.4129
  220MOL0     H29666   1.826   6.554   7.232  0.8631  2.2005  0.8711
  220MOL0     H29667   1.673   6.498   7.321 -1.8002  2.3681  2.3929
  220MOL0     H29668   1.588   6.678   7.171 -0.5205 -0.3030 -0.0063
  220MOL0     H29669   1.612   6.747   7.328  0.6466 -0.9865  0.8326
  220MOL0     H29670   1.718   6.841   7.064  2.1416 -1.5528 -1.6048
  220MOL0     H29671   1.856   6.779   7.135  0.5415  0.6271 -1.7411
  220MOL0     H29672   1.665   6.996   7.235 -0.1132 -2.2542 -1.6414
  220MOL0     H29673   1.768   6.930   7.351 -4.6095  1.1309  0.6236
  220MOL0     H29674   1.868   7.041   7.088 -0.6368  0.5382 -0.4687
  220MOL0     H29675   1.970   6.980   7.213  0.2407  0.6000  1.7033
  220MOL0     H29676   1.960   7.237   7.201 -0.2723  2.5333  0.5358
  220MOL0     H29677   1.784   7.215   7.219  0.4637  0.3786  2.3425
  220MOL0     H29678   1.836   7.108   7.452 -1.9953  0.3680 -3.2553
  220MOL0     H29679   1.871   7.282   7.448 -0.3235 -1.7002  2.8000
  220MOL0     H29680   2.076   7.049   7.402  0.6883 -0.1361 -1.3397
  220MOL0     H29681   2.065   7.150   7.543  0.2940 -2.1100 -0.4555
  220MOL0     H29682   1.885   6.385   7.368 -2.6687 -0.1926  1.5117
  220MOL0     H29683   2.047   6.252   7.509 -3.9614 -0.9725 -1.1102
  220MOL0     H29684   1.955   6.346   7.935  1.1190  0.7415 -0.9083
  220MOL0     H29685   1.718   6.309   7.929  0.6465  0.5155 -0.0789
  220MOL0     H29686   1.816   6.451   6.997  0.5647  1.5762  0.4530
  220MOL0     H29687   2.045   6.537   7.050 -0.5184  1.6106  0.6176
  220MOL0     H29688   2.466   6.631   6.949  2.9017  0.6533  0.4073
  220MOL0     H29689   2.632   6.725   7.057 -1.7785 -2.7882  1.1558
  220MOL0     H29690   2.801   6.906   7.060  2.4632 -0.0372  0.8319
  220MOL0     H29691   2.832   7.062   7.139 -0.5064  0.4923  2.7507
  220MOL0     H29692   2.740   6.845   7.321  0.2637 -2.5482 -1.5320
  220MOL0     H29693   2.839   6.984   7.349 -4.4117  0.4952  0.6990
  220MOL0     H29694   3.036   6.838   7.239  0.5503  2.0807 -2.4170
  220MOL0     H29695   2.914   6.717   7.195  0.1820 -1.3686  2.6710
  220MOL0     H29696   3.032   6.630   7.371  1.2873  0.2968  1.1964
  220MOL0     H29697   2.871   6.652   7.422  0.1016 -0.9425 -0.7301
  220MOL0     H29698   3.131   6.916   7.661 -0.4734  0.5659 -0.5137
  220MOL0     H29699   2.398   7.090   7.100 -1.8828  0.0125 -1.8777
  220MOL0     H29700   2.209   6.979   6.994  0.1086  0.8966 -0.6752
  221MOL0     O29701  10.336   3.614  10.198 -0.2350 -0.3368 -0.2268
  221MOL0     C29702  10.342   3.609  10.077  0.0685  1.0020  0.1014
  221MOL0     O29703  10.245   3.557   9.992  0.0012  0.7742 -0.0041
  221MOL0     C29704  10.124   3.515  10.038 -0.4258 -0.5278  0.4849
  221MOL0     C29705  10.064   3.410   9.975  0.4901  0.2924  0.2639
  221MOL0     C29706   9.944   3.357  10.023 -1.2633  0.4370 -0.2638
  221MOL0     C29707   9.876   3.416  10.127 -0.2511  0.7562 -0.3775
  221MOL0     O29708   9.752   3.368  10.174  1.0134 -0.7325  0.6330
  221MOL0     C29709   9.681   3.435  10.286  0.1464 -0.5763  0.1772
  221MOL0     C29710   9.579   3.329  10.341  0.3066 -0.0560  0.4245
  221MOL0     C29711   9.445   3.339  10.271 -0.9059  1.5276 -0.9267
  221MOL0     C29712   9.334   3.246  10.319  0.5537  0.1468 -0.3120
  221MOL0     C29713   9.358   3.096  10.332 -0.3900  0.2079  0.3268
  221MOL0     C29714   9.239   3.033  10.408 -0.4034  0.3487  0.3532
  221MOL0     C29715   9.214   2.877  10.377  0.0807 -0.4228  0.7260
  221MOL0     C29716   9.092   2.832  10.462  0.7271  0.2407  0.3144
  221MOL0     N29717   9.079   2.689  10.453  0.6549  0.3461 -0.4090
  221MOL0     C29718   9.059   2.620  10.335 -0.2197 -0.1940  0.0795
  221MOL0     C29719   9.047   2.486  10.382  0.5074 -0.0288 -0.3230
  221MOL0     C29720   9.021   2.364  10.300 -0.2436  0.6246  0.0056
  221MOL0     C29721   8.880   2.350  10.248  0.3367  0.1313  0.4352
  221MOL0     C29722   8.845   2.422  10.116 -0.1722  0.2714  0.3195
  221MOL0     C29723   8.695   2.437  10.087 -0.5219 -1.4443  0.0040
  221MOL0     O29724   8.626   2.322  10.128 -0.1828  0.7389 -0.4572
  221MOL0     C29725   8.495   2.330  10.092  0.2841 -0.4538 -0.3488
  221MOL0     C29726   8.413   2.372  10.195 -0.6555  0.1086  0.0147
  221MOL0     C29727   8.277   2.386  10.179 -0.4338 -0.2588 -0.0306
  221MOL0     C29728   8.201   2.435  10.298 -0.5477 -0.3606 -0.4091
  221MOL0     C29729   8.211   2.340  10.065 -0.0580  0.4914 -0.1523
  221MOL0     C29730   8.063   2.332  10.041 -0.5993  0.8159  0.2000
  221MOL0     O29731   7.980   2.323  10.153  0.3039 -1.0698 -0.8006
  221MOL0     C29732   7.853   2.366  10.130 -0.0191  0.2784 -0.1069
  221MOL0     C29733   7.744   2.276  10.156 -0.1597 -0.4413 -0.4288
  221MOL0     C29734   7.616   2.310  10.109 -0.6841  0.6356  0.7069
  221MOL0     C29735   7.582   2.435  10.055 -0.2208  0.7524  0.1482
  221MOL0     O29736   7.454   2.477  10.006  0.8786 -0.2397 -0.9080
  221MOL0     C29737   7.337   2.419  10.072  0.5129 -0.1466 -0.2973
  221MOL0     C29738   7.213   2.506  10.057 -0.9046 -0.8555  0.2261
  221MOL0     C29739   7.106   2.464  10.147  0.0479 -0.9862 -0.3088
  221MOL0     C29740   6.972   2.533  10.101 -0.2084  0.0631 -0.1761
  221MOL0     C29741   6.875   2.528  10.215 -0.3373 -0.0533  0.3279
  221MOL0     C29742   6.757   2.617  10.169 -0.2064  0.1092 -0.0549
  221MOL0     C29743   6.650   2.610  10.271  0.6296 -0.8101  0.2341
  221MOL0     C29744   6.530   2.709  10.232 -0.3788  0.4229 -0.3184
  221MOL0    Cl29745   6.576   2.886  10.242  0.0372 -0.3909  0.6738
  221MOL0     C29746   7.686   2.518  10.038  0.3368  0.1342 -0.5338
  221MOL0     C29747   7.816   2.486  10.061 -0.3016  0.4215  0.0891
  221MOL0     O29748   8.025   2.338   9.925 -0.1325  0.1924  0.5350
  221MOL0     C29749   8.301   2.312   9.957 -0.0285 -0.3308  0.5155
  221MOL0     C29750   8.440   2.318   9.967 -1.0658 -0.0366 -0.4735
  221MOL0     N29751   9.071   2.481  10.523 -0.8419 -0.1490  0.1805
  221MOL0     N29752   9.091   2.600  10.561  0.1682  0.4238 -0.2203
  221MOL0     C29753   9.928   3.531  10.189 -0.9418 -0.5690  0.0940
  221MOL0     C29754  10.050   3.581  10.140 -0.2443  0.0836 -0.0303
  221MOL0     C29755  10.474   3.655  10.017 -0.0330 -0.0039 -0.0561
  221MOL0     C29756  10.554   3.753  10.089  0.2958 -0.1321  0.8131
  221MOL0     C29757  10.670   3.794  10.024  0.3529  0.9235  0.8976
  221MOL0     C29758  10.715   3.741   9.905  0.6913 -0.5858 -0.4240
  221MOL0     O29759  10.825   3.794   9.845 -0.1397 -0.3627 -0.1080
  221MOL0     C29760  10.943   3.772   9.930 -0.0861  0.1675 -0.0687
  221MOL0     C29761  11.068   3.742   9.837 -0.3073 -0.1615 -0.0145
  221MOL0     C29762  11.075   3.824   9.714  0.1683 -0.1327  1.0482
  221MOL0     C29763  11.192   3.785   9.621 -0.0329  0.1966 -0.3793
  221MOL0     C29764  11.321   3.778   9.694  0.7283 -0.5012  0.4542
  221MOL0     C29765  11.425   3.740   9.750  0.4957 -0.3753  0.1568
  221MOL0     C29766  10.633   3.654   9.831 -0.6692 -0.0870 -0.1298
  221MOL0     C29767  10.514   3.610   9.889 -0.5909  0.0036 -0.0263
  221MOL0     H29768  10.122   3.357   9.899 -0.8755 -2.2015  0.8348
  221MOL0     H29769   9.910   3.269   9.970  0.1207  1.4787 -3.0674
  221MOL0     H29770   9.750   3.459  10.367 -0.1030  0.3649  0.1234
  221MOL0     H29771   9.626   3.522  10.252 -2.3463 -0.9156  2.9122
  221MOL0     H29772   9.624   3.229  10.341 -1.7055 -1.0303 -1.2045
  221MOL0     H29773   9.550   3.358  10.443 -0.5655 -1.6261  0.6541
  221MOL0     H29774   9.405   3.440  10.263 -3.0874  0.5870 -3.4649
  221MOL0     H29775   9.471   3.309  10.170  3.4546  0.9086  0.1907
  221MOL0     H29776   9.293   3.273  10.417  0.6448  1.2511 -0.5575
  221MOL0     H29777   9.252   3.246  10.247 -0.7016 -1.5717  1.0316
  221MOL0     H29778   9.383   3.046  10.237  3.2250  0.5013  0.9757
  221MOL0     H29779   9.444   3.081  10.398 -1.6298 -1.4194  1.6465
  221MOL0     H29780   9.243   3.051  10.516 -3.5983 -1.3024  0.8853
  221MOL0     H29781   9.154   3.087  10.365  0.3811  0.8499 -0.5889
  221MOL0     H29782   9.206   2.859  10.270 -0.4353  0.4772  0.6091
  221MOL0     H29783   9.307   2.828  10.409  0.1109  0.2659  1.7518
  221MOL0     H29784   8.998   2.877  10.429 -0.4037 -1.6793  0.7601
  221MOL0     H29785   9.113   2.846  10.568 -5.9441 -2.4172  2.5546
  221MOL0     H29786   9.066   2.661  10.235 -1.4047 -0.5134 -0.1538
  221MOL0     H29787   9.094   2.342  10.220 -1.0816  0.9159 -0.8617
  221MOL0     H29788   9.042   2.281  10.368  0.0142 -1.0415 -2.0058
  221MOL0     H29789   8.819   2.393  10.328  1.4945  1.0889  0.8457
  221MOL0     H29790   8.849   2.248  10.229 -1.1616  1.1361 -3.4047
  221MOL0     H29791   8.896   2.364  10.038  0.9533  3.1290 -1.2377
  221MOL0     H29792   8.897   2.518  10.111 -2.1492  1.3167 -1.2178
  221MOL0     H29793   8.677   2.469   9.984 -0.1531  2.3736  0.9827
  221MOL0     H29794   8.652   2.511  10.156  1.1726 -0.9802  0.6041
  221MOL0     H29795   8.461   2.390  10.291  3.2958  1.4696 -1.9909
  221MOL0     H29796   8.134   2.514  10.264 -2.2238 -1.1076  1.0283
  221MOL0     H29797   8.142   2.355  10.342  0.9035 -1.2288  0.0087
  221MOL0     H29798   8.250   2.484  10.383 -1.1315  1.5537 -1.1104
  221MOL0     H29799   7.759   2.181  10.205 -2.4046 -0.0392  1.2483
  221MOL0     H29800   7.547   2.226  10.111  0.4971 -0.4854 -1.6908
  221MOL0     H29801   7.308   2.326  10.022 -0.4823  0.6277 -1.2002
  221MOL0     H29802   7.351   2.416  10.181  0.8177  1.7851 -0.2380
  221MOL0     H29803   7.245   2.609  10.077  0.8863 -1.3871  0.2529
  221MOL0     H29804   7.169   2.495   9.957 -2.0547 -1.8214  0.8089
  221MOL0     H29805   7.133   2.517  10.238  1.5356  1.3349 -1.9668
  221MOL0     H29806   7.091   2.356  10.156  0.3992 -1.2227 -2.0583
  221MOL0     H29807   6.983   2.641  10.091  0.9710  0.0858  1.1069
  221MOL0     H29808   6.930   2.480  10.015 -0.7271 -1.8022  1.1640
  221MOL0     H29809   6.913   2.567  10.310  2.2213  2.3422 -1.5362
  221MOL0     H29810   6.840   2.425  10.223 -1.6204  0.3300 -0.1627
  221MOL0     H29811   6.790   2.716  10.135  0.0372 -0.6016 -2.0708
  221MOL0     H29812   6.735   2.570  10.072 -0.3821  4.1955 -2.2234
  221MOL0     H29813   6.689   2.628  10.371 -1.5116 -4.3882  1.8839
  221MOL0     H29814   6.606   2.511  10.272  0.2010 -0.6413  2.3157
  221MOL0     H29815   6.452   2.689  10.306 -1.6128  0.9420 -1.4475
  221MOL0     H29816   6.488   2.681  10.136  3.1041 -2.3431 -1.2242
  221MOL0     H29817   7.663   2.612   9.989 -0.7902  1.5698  2.5071
  221MOL0     H29818   7.900   2.549  10.034  1.4311 -1.7665  0.1233
  221MOL0     H29819   8.271   2.300   9.854  5.5152 -0.3454 -1.4033
  221MOL0     H29820   8.507   2.311   9.882 -0.4519 -0.3924  0.0279
  221MOL0     H29821   9.880   3.590  10.266 -0.2711 -0.1426  0.1995
  221MOL0     H29822  10.088   3.670  10.188  0.9828  1.2839 -2.9818
  221MOL0     H29823  10.529   3.791  10.188  2.4333 -2.0814  2.1779
  221MOL0     H29824  10.730   3.863  10.083 -0.6174  0.4699  2.4979
  221MOL0     H29825  10.967   3.846  10.007  3.5841 -1.9063  0.9699
  221MOL0     H29826  10.937   3.681   9.989  1.2487  0.5504  0.6985
  221MOL0     H29827  11.063   3.637   9.805 -1.2458  0.4524 -2.0434
  221MOL0     H29828  11.161   3.750   9.894  0.7283  1.1973 -1.7866
  221MOL0     H29829  11.103   3.926   9.741  2.9426  0.3069 -2.7036
  221MOL0     H29830  10.980   3.829   9.659  0.5535  0.0896  0.3970
  221MOL0     H29831  11.200   3.858   9.540 -0.6556  0.4943 -0.1742
  221MOL0     H29832  11.165   3.690   9.573 -0.7105  0.5539 -0.7132
  221MOL0     H29833  11.507   3.738   9.819 -1.7738  0.7538  3.1129
  221MOL0     H29834  10.675   3.630   9.734  0.1120 -2.1115  0.6516
  221MOL0     H29835  10.469   3.524   9.841  0.9994 -0.3491 -0.9844
  222MOL0     O29836  11.231   3.562  10.152  0.3973  0.3012 -0.2361
  222MOL0     C29837  11.289   3.574  10.254  0.4588  0.7089 -0.2572
  222MOL0     O29838  11.229   3.585  10.384 -0.1089  0.3221 -0.4501
  222MOL0     C29839  11.099   3.618  10.404  0.6815  0.1210  0.3129
  222MOL0     C29840  11.033   3.580  10.518 -1.3459  0.5633 -0.4539
  222MOL0     C29841  10.900   3.599  10.531  0.6129  0.6765 -0.1049
  222MOL0     C29842  10.825   3.658  10.435  0.4449  0.3288 -0.0736
  222MOL0     O29843  10.690   3.681  10.450  0.0824 -0.1963  0.3852
  222MOL0     C29844  10.612   3.641  10.563  0.8970 -0.1147 -0.1500
  222MOL0     C29845  10.471   3.704  10.533  0.0364  0.3913  0.8731
  222MOL0     C29846  10.358   3.628  10.608  0.1294  0.0953 -0.2147
  222MOL0     C29847  10.215   3.669  10.566  0.1235 -0.8116 -0.6207
  222MOL0     C29848  10.100   3.609  10.660  0.2860  0.5567 -0.4697
  222MOL0     C29849   9.965   3.675  10.622 -0.0995 -1.1148  0.5176
  222MOL0     C29850   9.840   3.614  10.692  0.7960 -0.1548 -0.8285
  222MOL0     C29851   9.705   3.663  10.637  0.2417 -0.6968 -0.9623
  222MOL0     N29852   9.596   3.586  10.697 -0.2376  0.6856  0.6925
  222MOL0     C29853   9.566   3.587  10.836 -0.1324 -0.0708 -0.4822
  222MOL0     C29854   9.437   3.538  10.836  0.0493 -0.1163 -1.0045
  222MOL0     C29855   9.365   3.529  10.970  0.9221 -0.1587 -0.7693
  222MOL0     C29856   9.214   3.534  10.968 -0.3547 -0.0585 -0.1322
  222MOL0     C29857   9.145   3.503  11.104  0.9580  0.1298 -0.7934
  222MOL0     C29858   9.001   3.555  11.082 -0.4611 -0.0856 -0.1697
  222MOL0     O29859   8.913   3.518  11.195  0.2928 -0.5745 -0.1083
  222MOL0     C29860   8.804   3.607  11.223  0.2684 -0.6784  1.0971
  222MOL0     C29861   8.738   3.690  11.129 -0.1907  0.3911  0.0164
  222MOL0     C29862   8.640   3.790  11.175  0.3450  0.8102 -0.8073
  222MOL0     C29863   8.573   3.868  11.070  0.2802 -0.3305  1.0921
  222MOL0     C29864   8.613   3.793  11.317  0.2252 -0.2638 -0.2136
  222MOL0     C29865   8.505   3.873  11.376 -0.7122  0.5939  0.9067
  222MOL0     O29866   8.462   3.827  11.491  0.3067 -0.1033 -0.0062
  222MOL0     C29867   8.353   3.893  11.544  0.5104 -0.4356 -0.5672
  222MOL0     C29868   8.236   3.911  11.471  1.2284  0.0810  0.1220
  222MOL0     C29869   8.129   3.991  11.514 -0.2209  0.1733  0.6332
  222MOL0     C29870   8.142   4.060  11.634  0.1737  0.2302  1.2153
  222MOL0     O29871   8.052   4.147  11.671 -0.2166 -0.0571  0.4100
  222MOL0     C29872   8.080   4.283  11.639  0.0937  0.4381  0.2888
  222MOL0     C29873   8.002   4.325  11.517  0.0683 -0.0322 -0.0412
  222MOL0     C29874   7.855   4.285  11.531  0.6035  0.6188 -0.3210
  222MOL0     C29875   7.763   4.362  11.428  0.5124  0.9392  0.4772
  222MOL0     C29876   7.627   4.297  11.414  0.3287  0.0506  0.6707
  222MOL0     C29877   7.557   4.356  11.292  0.5084  0.1842  0.3521
  222MOL0     C29878   7.412   4.319  11.281 -0.5276  0.0900  0.2790
  222MOL0     C29879   7.342   4.367  11.160  0.2130  0.1178  0.4083
  222MOL0    Cl29880   7.176   4.309  11.149 -0.1630  0.0886 -0.7352
  222MOL0     C29881   8.255   4.035  11.709  0.2110  1.0973 -0.3418
  222MOL0     C29882   8.361   3.948  11.671  1.2412  0.6599 -0.0458
  222MOL0     O29883   8.477   3.979  11.316 -0.4666  0.0941  0.6276
  222MOL0     C29884   8.693   3.708  11.407 -0.0402 -0.9684 -0.2756
  222MOL0     C29885   8.792   3.628  11.358 -0.0082  0.6037  0.0887
  222MOL0     N29886   9.396   3.508  10.712 -0.7043 -0.2103 -0.1713
  222MOL0     N29887   9.492   3.536  10.633  0.1550  0.5828 -0.1653
  222MOL0     C29888  10.887   3.694  10.318 -0.7220 -0.1439  0.9293
  222MOL0     C29889  11.023   3.684  10.304  0.4844 -0.0892 -0.3929
  222MOL0     C29890  11.441   3.582  10.247  0.9664 -1.0148 -0.1751
  222MOL0     C29891  11.506   3.590  10.369 -0.2458  0.4155  0.2507
  222MOL0     C29892  11.648   3.599  10.377 -0.5339  0.0905  0.1089
  222MOL0     C29893  11.723   3.611  10.256 -0.0671  0.4567 -0.3901
  222MOL0     O29894  11.865   3.617  10.278  0.6483 -0.4163  0.7597
  222MOL0     C29895  11.950   3.653  10.172  0.3230  0.4419 -0.7166
  222MOL0     C29896  11.970   3.808  10.168  0.6642 -0.1762 -0.7943
  222MOL0     C29897  12.051   3.859  10.051  0.4030  0.0468  0.1150
  222MOL0     C29898  12.197   3.793  10.048 -0.3101  0.1818  0.8316
  222MOL0     C29899  12.275   3.806   9.923  0.8466  0.5775  0.1489
  222MOL0     C29900  12.332   3.824   9.818  0.0388 -0.4257  0.2452
  222MOL0     C29901  11.656   3.605  10.131  0.1446  0.4467 -0.0735
  222MOL0     C29902  11.519   3.596  10.127  0.6001 -0.1725 -0.2288
  222MOL0     H29903  11.086   3.517  10.588  2.3182  2.2513 -1.4917
  222MOL0     H29904  10.847   3.555  10.616  0.2306  1.4567  0.0759
  222MOL0     H29905  10.599   3.533  10.549 -0.6095  0.1783 -1.4089
  222MOL0     H29906  10.648   3.657  10.665  0.6408 -2.1905  0.3077
  222MOL0     H29907  10.476   3.806  10.571  2.5208  0.4320  0.5572
  222MOL0     H29908  10.446   3.690  10.427  0.7603 -1.9539  0.9607
  222MOL0     H29909  10.367   3.525  10.573 -0.2152  0.2984 -0.9268
  222MOL0     H29910  10.366   3.640  10.716 -2.7310  3.3447 -0.1818
  222MOL0     H29911  10.211   3.778  10.571  2.3001 -0.6838 -0.8067
  222MOL0     H29912  10.187   3.639  10.465  1.4962 -0.1881 -1.2118
  222MOL0     H29913  10.097   3.500  10.647  0.7499  0.4102  0.5493
  222MOL0     H29914  10.117   3.627  10.766 -2.1579 -0.3209  0.1375
  222MOL0     H29915   9.973   3.781  10.648 -0.3414 -0.8453 -0.5035
  222MOL0     H29916   9.959   3.682  10.514  1.5688  1.8350  0.5075
  222MOL0     H29917   9.855   3.506  10.689  2.3659  0.0709 -2.4177
  222MOL0     H29918   9.844   3.642  10.798 -3.0187  1.0879 -0.8521
  222MOL0     H29919   9.702   3.648  10.529  0.1725  1.2376 -1.2761
  222MOL0     H29920   9.699   3.769  10.664 -1.7020 -0.2741 -2.8011
  222MOL0     H29921   9.632   3.624  10.913 -0.6295  0.5726 -0.3511
  222MOL0     H29922   9.392   3.433  11.015 -0.4657  0.6883  2.0673
  222MOL0     H29923   9.384   3.613  11.037  0.0227  1.8180 -2.8555
  222MOL0     H29924   9.181   3.448  10.908  0.3707 -0.2886 -0.2120
  222MOL0     H29925   9.178   3.625  10.919  0.7998 -0.9458 -2.8245
  222MOL0     H29926   9.187   3.554  11.192  1.6511 -4.3537  1.7594
  222MOL0     H29927   9.143   3.396  11.127  0.3315  0.7908  2.9723
  222MOL0     H29928   8.965   3.516  10.987  0.0005 -1.0521  0.0386
  222MOL0     H29929   9.004   3.665  11.078 -1.0132 -0.0921 -3.3574
  222MOL0     H29930   8.769   3.669  11.027  2.3194  0.3212  0.7221
  222MOL0     H29931   8.606   3.829  10.973  0.5025 -1.3841  1.5722
  222MOL0     H29932   8.465   3.855  11.074  0.3368 -0.4899  2.3932
  222MOL0     H29933   8.601   3.974  11.069 -1.9547  0.3036  0.8736
  222MOL0     H29934   8.220   3.850  11.383 -1.3921 -0.0229  0.6000
  222MOL0     H29935   8.037   4.005  11.459  0.9836 -3.7641 -2.9433
  222MOL0     H29936   8.044   4.344  11.723  0.3739 -1.4536  1.8542
  222MOL0     H29937   8.187   4.299  11.627  0.1442 -0.0196  0.0821
  222MOL0     H29938   8.012   4.431  11.492 -2.5702  0.2500 -0.1115
  222MOL0     H29939   8.045   4.282  11.427 -0.4829  2.1124 -1.4063
  222MOL0     H29940   7.807   4.299  11.628  1.0110 -1.5261  0.2397
  222MOL0     H29941   7.852   4.178  11.510 -2.0012  0.6291 -0.4156
  222MOL0     H29942   7.760   4.470  11.446  4.8036  1.2286  0.3794
  222MOL0     H29943   7.814   4.350  11.332  1.1058 -1.2865  1.0201
  222MOL0     H29944   7.554   4.323  11.491 -1.4991 -0.9002 -0.6552
  222MOL0     H29945   7.642   4.189  11.412 -1.1413 -0.2413  2.8299
  222MOL0     H29946   7.565   4.465  11.295  0.1773  0.2950 -1.6086
  222MOL0     H29947   7.607   4.329  11.199 -2.4215  2.0861 -1.9240
  222MOL0     H29948   7.372   4.354  11.377  1.3087 -1.6515  1.7558
  222MOL0     H29949   7.398   4.211  11.283  0.6847 -0.0674  1.2145
  222MOL0     H29950   7.400   4.337  11.072 -1.4664 -0.1667 -0.6620
  222MOL0     H29951   7.339   4.476  11.161 -3.8386  0.1553  1.0356
  222MOL0     H29952   8.269   4.102  11.794  0.3330 -0.0199  0.5441
  222MOL0     H29953   8.444   3.917  11.732  0.8831 -1.8481 -0.7190
  222MOL0     H29954   8.692   3.720  11.515 -0.6101 -1.5178 -0.2195
  222MOL0     H29955   8.847   3.570  11.431 -1.5095 -0.6523  0.2806
  222MOL0     H29956  10.829   3.753  10.247 -1.4862  1.2551  2.6423
  222MOL0     H29957  11.075   3.719  10.216 -0.2140 -0.3936 -0.9335
  222MOL0     H29958  11.455   3.596  10.465 -3.2875  2.6914 -1.3476
  222MOL0     H29959  11.701   3.601  10.472 -0.2874 -0.5912 -0.0085
  222MOL0     H29960  12.046   3.613  10.204  1.1897  1.7450 -1.6144
  222MOL0     H29961  11.906   3.614  10.079 -1.8400 -0.4602  0.6046
  222MOL0     H29962  12.014   3.841  10.262 -0.4824  2.0839 -0.9926
  222MOL0     H29963  11.874   3.856  10.149  1.7900  2.5841  0.0280
  222MOL0     H29964  12.051   3.967  10.035  1.8427 -0.2904 -2.9498
  222MOL0     H29965  12.002   3.823   9.960 -1.1998 -1.3967  1.4832
  222MOL0     H29966  12.181   3.684  10.045 -0.9856  0.2752  0.7615
  222MOL0     H29967  12.259   3.815  10.135 -1.4199  1.0776  1.4292
  222MOL0     H29968  12.376   3.833   9.720 -0.6460 -1.2721 -0.1619
  222MOL0     H29969  11.709   3.592  10.037 -1.3424  0.9844 -1.0315
  222MOL0     H29970  11.468   3.597  10.031 -0.8757 -1.2276  0.5130
  223MOL0     O29971   6.963   8.996   8.078  0.2343  0.0100 -0.1879
  223MOL0     C29972   6.949   8.959   8.194  1.3654 -0.3619 -0.3912
  223MOL0     O29973   6.827   8.950   8.257 -0.2389 -0.0073  0.3417
  223MOL0     C29974   6.714   8.976   8.190  0.1431 -0.3952 -0.6431
  223MOL0     C29975   6.628   9.084   8.229  0.4911 -0.2354 -0.3786
  223MOL0     C29976   6.514   9.116   8.158 -0.1460  0.4737  0.0216
  223MOL0     C29977   6.468   9.029   8.054  0.2218  0.1003 -0.0261
  223MOL0     O29978   6.361   9.062   7.968 -0.4875  0.3566  0.1722
  223MOL0     C29979   6.279   9.173   8.004  0.4410  0.3457 -0.2353
  223MOL0     C29980   6.180   9.170   7.897  0.7511 -0.7914 -0.0416
  223MOL0     C29981   6.081   9.281   7.927 -0.4888  0.2540 -0.5089
  223MOL0     C29982   5.995   9.283   7.806 -0.0838  0.1569  0.1913
  223MOL0     C29983   5.863   9.367   7.844 -0.2753  0.0438  0.0382
  223MOL0     C29984   5.762   9.280   7.911  0.2772  0.3325  0.3042
  223MOL0     C29985   5.619   9.330   7.900  0.4457  0.0719  0.5322
  223MOL0     C29986   5.590   9.462   7.962 -0.6499  0.4253  0.6349
  223MOL0     N29987   5.448   9.496   7.961 -0.6343  1.0327 -0.2494
  223MOL0     C29988   5.343   9.453   8.046  0.0575  0.3856  0.7212
  223MOL0     C29989   5.243   9.530   7.998  0.3440  0.1710 -0.2733
  223MOL0     C29990   5.096   9.534   8.024  0.3604  0.9066  0.2537
  223MOL0     C29991   5.047   9.407   8.108  0.2225  0.5058  0.0312
  223MOL0     C29992   5.009   9.283   8.020 -0.9495 -1.1194  0.3579
  223MOL0     C29993   4.969   9.165   8.103  0.2039  0.6410 -0.3071
  223MOL0     O29994   4.970   9.033   8.027  0.2536 -0.5700 -0.5253
  223MOL0     C29995   4.848   9.007   7.959 -0.3986  0.1643  1.2544
  223MOL0     C29996   4.748   8.933   8.021  1.1668 -1.4038 -0.0926
  223MOL0     C29997   4.648   8.864   7.950 -0.2034 -0.5901  0.5004
  223MOL0     C29998   4.563   8.774   8.023  0.1603 -0.2099  1.1189
  223MOL0     C29999   4.647   8.875   7.810  0.3574  0.3028 -0.1848
  223MOL0     C30000   4.559   8.779   7.735  0.0712  0.3894  0.7389
  223MOL0     O30001   4.561   8.638   7.758 -0.2722  0.0469  0.8331
  223MOL0     C30002   4.486   8.554   7.673 -1.0563 -0.1512 -0.4846
  223MOL0     C30003   4.361   8.518   7.708 -0.3964 -0.6422 -0.4323
  223MOL0     C30004   4.275   8.449   7.618  0.3280  0.5354  0.0406
  223MOL0     C30005   4.331   8.402   7.505  0.7495 -0.2034 -0.3197
  223MOL0     O30006   4.248   8.320   7.427  0.5661  0.4050  0.3736
  223MOL0     C30007   4.283   8.303   7.286  0.7961  0.1819 -0.8210
  223MOL0     C30008   4.160   8.248   7.212  0.8727 -0.8623  0.6012
  223MOL0     C30009   4.038   8.352   7.198 -0.7606 -0.3146  0.4235
  223MOL0     C30010   3.915   8.274   7.146 -1.1736 -0.1878 -0.4422
  223MOL0     C30011   3.828   8.218   7.248 -0.1822 -0.6398 -0.3172
  223MOL0     C30012   3.693   8.182   7.186  0.1403 -0.2011 -0.3538
  223MOL0     C30013   3.587   8.137   7.293 -0.1566  0.1962 -0.0299
  223MOL0     C30014   3.475   8.070   7.222 -0.3973  0.6800 -0.3581
  223MOL0    Cl30015   3.530   7.912   7.137 -0.0271  0.3264 -0.2392
  223MOL0     C30016   4.467   8.418   7.474 -0.0171 -0.3536  0.5508
  223MOL0     C30017   4.539   8.503   7.557 -0.4278 -0.6316  0.3206
  223MOL0     O30018   4.515   8.833   7.630 -0.0780  0.0603  0.4020
  223MOL0     C30019   4.737   8.955   7.744  0.3211  0.0281  0.3443
  223MOL0     C30020   4.832   9.029   7.820  0.5252 -0.6651  0.4021
  223MOL0     N30021   5.286   9.602   7.890  0.3638 -0.4138 -0.7911
  223MOL0     N30022   5.411   9.581   7.867  1.0230 -0.4863  0.7852
  223MOL0     C30023   6.553   8.921   8.017  0.8578 -0.3366 -0.0530
  223MOL0     C30024   6.676   8.905   8.075  0.0845  0.7693  0.2189
  223MOL0     C30025   7.068   8.918   8.270 -0.0710  0.7849 -0.2479
  223MOL0     C30026   7.186   8.892   8.189 -1.2266  0.3854  0.7137
  223MOL0     C30027   7.305   8.839   8.250  0.6640 -0.1449  0.0460
  223MOL0     C30028   7.314   8.840   8.385  0.1085  0.3717 -0.1541
  223MOL0     O30029   7.441   8.819   8.438  0.8544  0.4086  0.7318
  223MOL0     C30030   7.492   8.934   8.515  0.6461  0.4953 -0.2079
  223MOL0     C30031   7.514   8.914   8.665  0.1110 -0.0075  0.3866
  223MOL0     C30032   7.662   8.903   8.701  0.4477  0.0445  0.1562
  223MOL0     C30033   7.663   8.882   8.852 -0.4734  0.2071 -0.3182
  223MOL0     C30034   7.792   8.833   8.907  0.0440 -0.8018  0.1289
  223MOL0     C30035   7.892   8.778   8.956  0.3920  0.3490 -0.6856
  223MOL0     C30036   7.205   8.871   8.471 -0.5735 -0.9105 -0.9271
  223MOL0     C30037   7.081   8.907   8.417  0.3025  0.0844 -0.3712
  223MOL0     H30038   6.664   9.152   8.306  1.0703 -1.1744  0.2132
  223MOL0     H30039   6.461   9.206   8.189  1.6540  1.4448  0.4719
  223MOL0     H30040   6.229   9.165   8.101 -1.4698  2.3366 -0.9561
  223MOL0     H30041   6.342   9.263   8.001  3.0854 -1.3796 -0.1395
  223MOL0     H30042   6.223   9.177   7.797 -2.1490  0.4424 -1.3145
  223MOL0     H30043   6.122   9.078   7.910 -0.0377 -0.0388  2.3623
  223MOL0     H30044   6.030   9.248   8.019  0.8240  1.3307  0.6408
  223MOL0     H30045   6.121   9.378   7.955 -0.1749 -0.1319  0.4148
  223MOL0     H30046   6.052   9.336   7.729  0.4022  2.8254  2.2400
  223MOL0     H30047   5.975   9.185   7.761  3.5206 -0.6973  0.1685
  223MOL0     H30048   5.885   9.456   7.903 -0.0398  0.6031 -0.8803
  223MOL0     H30049   5.823   9.406   7.750 -0.4658 -1.8571 -0.7132
  223MOL0     H30050   5.764   9.181   7.863  0.1022  1.2260 -1.6272
  223MOL0     H30051   5.780   9.284   8.019 -0.5981  3.3167  0.4272
  223MOL0     H30052   5.596   9.333   7.794  0.1163  3.5965  0.5874
  223MOL0     H30053   5.560   9.256   7.955 -1.1653  2.0933  1.7040
  223MOL0     H30054   5.647   9.532   7.901 -0.1346  0.4661  1.1458
  223MOL0     H30055   5.635   9.461   8.062 -1.7042  0.2578  1.1174
  223MOL0     H30056   5.339   9.371   8.116 -0.3588 -1.0957 -0.9515
  223MOL0     H30057   5.060   9.620   8.081  0.7796 -0.7071  3.1634
  223MOL0     H30058   5.050   9.526   7.926 -0.0336  0.7660  0.4493
  223MOL0     H30059   4.961   9.451   8.159 -1.1765  1.8231 -3.1862
  223MOL0     H30060   5.115   9.378   8.189 -3.6328 -1.1333  3.0200
  223MOL0     H30061   5.082   9.262   7.942 -0.6802 -1.5738  0.7285
  223MOL0     H30062   4.926   9.315   7.955  0.5656  0.4225 -0.9145
  223MOL0     H30063   4.877   9.173   8.161  0.8649  1.0385  0.6966
  223MOL0     H30064   5.039   9.146   8.184  0.0313  1.8542  0.1460
  223MOL0     H30065   4.756   8.924   8.129  0.7603 -0.1794  0.0552
  223MOL0     H30066   4.462   8.807   7.997  1.6166  3.8122 -0.0976
  223MOL0     H30067   4.579   8.669   7.999 -0.9696 -0.1565  0.0455
  223MOL0     H30068   4.580   8.788   8.131 -0.1329  2.1984  0.9025
  223MOL0     H30069   4.318   8.543   7.805 -0.5255  1.7425 -1.0350
  223MOL0     H30070   4.169   8.434   7.632  0.2156  0.8848 -0.4095
  223MOL0     H30071   4.311   8.398   7.241  1.1326  0.5787  0.1949
  223MOL0     H30072   4.362   8.227   7.283 -0.3163 -1.0984  0.3910
  223MOL0     H30073   4.192   8.210   7.115 -1.2008  2.7632 -1.7041
  223MOL0     H30074   4.118   8.163   7.267 -1.4812 -0.6959 -0.8151
  223MOL0     H30075   4.068   8.432   7.130  0.0031 -2.2224 -1.5982
  223MOL0     H30076   4.020   8.390   7.299 -0.4755 -0.3582  0.4920
  223MOL0     H30077   3.858   8.351   7.093 -0.8929 -0.8118 -1.6911
  223MOL0     H30078   3.942   8.190   7.081 -2.7484 -1.1194  0.0443
  223MOL0     H30079   3.820   8.286   7.334  3.0748  1.4261 -1.4717
  223MOL0     H30080   3.863   8.122   7.286 -1.4112 -2.3582 -3.1955
  223MOL0     H30081   3.650   8.265   7.128  3.3517  1.7663 -0.1531
  223MOL0     H30082   3.703   8.095   7.120  1.5467 -1.6388  1.6175
  223MOL0     H30083   3.555   8.225   7.349 -1.2853 -0.3046  0.1337
  223MOL0     H30084   3.645   8.084   7.369  0.6302  1.0066 -0.0487
  223MOL0     H30085   3.452   8.149   7.150  3.7649  2.6910  0.2197
  223MOL0     H30086   3.403   8.055   7.303 -0.7976  4.6070  0.1659
  223MOL0     H30087   4.498   8.373   7.380  3.3694 -0.6229  1.6921
  223MOL0     H30088   4.635   8.532   7.514 -1.2351 -0.6530 -1.5842
  223MOL0     H30089   4.711   8.979   7.642 -1.6378  1.8120  1.1873
  223MOL0     H30090   4.903   9.095   7.771  0.8474 -3.2710 -3.0651
  223MOL0     H30091   6.524   8.856   7.935  1.4293 -2.5917  1.4483
  223MOL0     H30092   6.738   8.818   8.058 -0.2358  0.6634 -0.4089
  223MOL0     H30093   7.192   8.897   8.081  1.0123  0.8456  0.8032
  223MOL0     H30094   7.395   8.806   8.199  0.1422  0.2144 -1.1362
  223MOL0     H30095   7.587   8.961   8.466 -0.0337  2.7094 -0.4047
  223MOL0     H30096   7.429   9.022   8.498  0.0312 -0.1412 -1.3675
  223MOL0     H30097   7.453   8.832   8.705 -2.0585  1.5589  0.4649
  223MOL0     H30098   7.474   9.005   8.710 -2.2280  0.5916 -2.6062
  223MOL0     H30099   7.720   8.995   8.691  1.8655 -0.2168  4.0107
  223MOL0     H30100   7.709   8.821   8.645  1.5676  1.5833 -1.2633
  223MOL0     H30101   7.588   8.807   8.878 -0.0924 -0.4588 -1.1102
  223MOL0     H30102   7.638   8.978   8.899  0.2508  2.0342 -3.3934
  223MOL0     H30103   7.975   8.728   9.000  0.4490  1.3177  0.3622
  223MOL0     H30104   7.216   8.868   8.579 -0.3365  5.4501 -0.3695
  223MOL0     H30105   6.988   8.917   8.474 -1.4877  0.8198 -3.1943
  224MOL0     O30106   3.220   7.350   5.520 -0.2045 -0.1648 -0.5380
  224MOL0     C30107   3.297   7.356   5.616  0.3293  0.6154  0.4004
  224MOL0     O30108   3.262   7.330   5.747  0.6239 -0.1785 -0.3783
  224MOL0     C30109   3.141   7.276   5.775  0.3250 -0.1190  0.1757
  224MOL0     C30110   3.015   7.345   5.776  0.5077 -0.2709  0.1216
  224MOL0     C30111   2.899   7.277   5.818 -0.3125  0.4589 -0.7882
  224MOL0     C30112   2.904   7.142   5.844  0.0357  0.0060 -0.1176
  224MOL0     O30113   2.779   7.071   5.856 -0.5999  0.0551  0.3345
  224MOL0     C30114   2.774   6.946   5.928 -0.4298 -0.3812  0.4218
  224MOL0     C30115   2.628   6.891   5.942 -0.1390 -0.7285  0.9269
  224MOL0     C30116   2.535   7.005   6.004  0.0176 -0.4244  0.3514
  224MOL0     C30117   2.387   6.968   6.014 -0.3735 -0.3598  0.2657
  224MOL0     C30118   2.309   7.053   6.123 -0.2021 -0.2062  0.2133
  224MOL0     C30119   2.164   7.019   6.139  0.1750 -0.5894 -0.7653
  224MOL0     C30120   2.112   7.083   6.274  0.1528  0.6005  0.1631
  224MOL0     C30121   1.970   7.034   6.315  0.5100 -0.2147 -1.2161
  224MOL0     N30122   1.940   7.111   6.436  0.5673 -0.0760  0.3974
  224MOL0     C30123   1.947   7.075   6.566  0.2229  0.7272 -0.7110
  224MOL0     C30124   1.889   7.176   6.639 -0.2837 -0.1048  0.1248
  224MOL0     C30125   1.873   7.164   6.786 -0.4082 -0.0932  0.4070
  224MOL0     C30126   1.958   7.285   6.847 -0.1968  0.3301  0.0637
  224MOL0     C30127   1.864   7.405   6.883 -0.8887 -0.6886  0.2883
  224MOL0     C30128   1.941   7.534   6.918 -0.6830 -0.5600  0.2705
  224MOL0     O30129   1.982   7.532   7.055  0.2249  0.1879  0.8557
  224MOL0     C30130   1.959   7.641   7.138 -0.8185  0.8125 -0.3140
  224MOL0     C30131   2.065   7.712   7.185  0.9184  1.1239  0.1277
  224MOL0     C30132   2.041   7.814   7.274 -0.3118 -0.8857 -0.4397
  224MOL0     C30133   2.171   7.881   7.323  0.7488  0.9695  0.6067
  224MOL0     C30134   1.911   7.850   7.327 -0.0104  0.2020 -0.6668
  224MOL0     C30135   1.885   7.964   7.425  0.2614  0.0548 -0.0823
  224MOL0     O30136   1.751   7.966   7.470 -0.7935  0.1104 -0.0647
  224MOL0     C30137   1.704   8.066   7.556 -0.2044  0.6713  0.3508
  224MOL0     C30138   1.596   8.020   7.638 -1.1172 -0.9185  0.2875
  224MOL0     C30139   1.532   8.106   7.719 -0.4141  0.3282 -1.0570
  224MOL0     C30140   1.569   8.242   7.715  0.0283  0.4824  0.5061
  224MOL0     O30141   1.499   8.331   7.791  0.2722  0.4654 -0.3807
  224MOL0     C30142   1.547   8.462   7.809  0.1782 -0.0746 -0.0585
  224MOL0     C30143   1.427   8.535   7.867 -0.6707 -0.4488  0.2914
  224MOL0     C30144   1.388   8.507   8.016 -0.2844 -0.6157  0.5706
  224MOL0     C30145   1.271   8.600   8.062  0.7532  0.4014  0.0860
  224MOL0     C30146   1.142   8.517   8.061 -0.1923  0.2147 -0.3429
  224MOL0     C30147   1.031   8.617   8.109  0.1029  0.9381  1.0227
  224MOL0     C30148   0.888   8.557   8.117 -0.6615 -0.5494  0.1935
  224MOL0     C30149   0.781   8.654   8.172 -0.0732  0.1744  0.2431
  224MOL0    Cl30150   0.624   8.616   8.100  0.0630  0.1508 -0.1001
  224MOL0     C30151   1.679   8.283   7.639 -0.1272  0.7376 -0.5096
  224MOL0     C30152   1.744   8.195   7.551 -0.7501 -0.8819 -0.1084
  224MOL0     O30153   1.975   8.036   7.471 -0.0676 -0.0342 -0.2622
  224MOL0     C30154   1.805   7.767   7.279 -0.1547 -0.3367  0.4701
  224MOL0     C30155   1.830   7.664   7.183  0.2704 -0.4580 -0.5186
  224MOL0     N30156   1.865   7.281   6.552  0.0518 -0.3690 -0.2859
  224MOL0     N30157   1.886   7.234   6.434 -0.5522  0.1160  0.4691
  224MOL0     C30158   3.022   7.078   5.858 -0.2741 -0.3138  0.4893
  224MOL0     C30159   3.140   7.147   5.827 -0.2932 -0.5053  0.0666
  224MOL0     C30160   3.429   7.414   5.584  0.9927 -0.2613  0.5763
  224MOL0     C30161   3.520   7.454   5.684  0.3164 -0.2461  0.1009
  224MOL0     C30162   3.643   7.511   5.647  0.7587  0.2704  0.1455
  224MOL0     C30163   3.686   7.524   5.502  0.4874  0.2511 -0.4700
  224MOL0     O30164   3.816   7.564   5.475 -0.2640  0.7884 -0.1872
  224MOL0     C30165   3.913   7.607   5.574 -0.1306 -0.0437  0.5674
  224MOL0     C30166   4.040   7.656   5.499  0.5885  0.6350  0.3033
  224MOL0     C30167   4.106   7.556   5.404  0.2821  0.4468 -0.5838
  224MOL0     C30168   4.161   7.442   5.478 -0.2097 -0.2562  0.3833
  224MOL0     C30169   4.200   7.340   5.383 -0.2283 -0.6053 -0.5849
  224MOL0     C30170   4.242   7.247   5.324 -0.7039  0.7049  0.3042
  224MOL0     C30171   3.594   7.492   5.407 -0.6582  0.0848 -0.2875
  224MOL0     C30172   3.471   7.437   5.450  0.1703  0.4039  0.6892
  224MOL0     H30173   3.005   7.448   5.742 -2.8061 -0.4203  0.3759
  224MOL0     H30174   2.807   7.334   5.821  0.8302  2.3368  0.5993
  224MOL0     H30175   2.817   6.860   5.875  1.3229  0.2644  0.7157
  224MOL0     H30176   2.824   6.955   6.025  0.5050 -1.2121  0.0427
  224MOL0     H30177   2.593   6.868   5.841  0.6861 -3.2582  1.1567
  224MOL0     H30178   2.610   6.799   5.998 -1.3410  0.3517  2.4130
  224MOL0     H30179   2.582   7.029   6.100  3.0849 -2.0890 -0.6133
  224MOL0     H30180   2.532   7.098   5.947 -3.3078 -2.3039 -2.9820
  224MOL0     H30181   2.336   6.989   5.920 -1.1608  0.1909  0.7934
  224MOL0     H30182   2.374   6.863   6.042 -1.3193  0.1399  1.8636
  224MOL0     H30183   2.368   7.027   6.211  3.3060  0.5476 -1.7367
  224MOL0     H30184   2.305   7.162   6.109  3.3398  0.0063  0.0830
  224MOL0     H30185   2.108   7.055   6.052  0.8048 -1.3913 -1.5117
  224MOL0     H30186   2.143   6.912   6.139 -2.0585 -0.2024 -0.1877
  224MOL0     H30187   2.184   7.053   6.350  1.7714  2.9758 -0.3058
  224MOL0     H30188   2.116   7.192   6.283 -4.3380  0.8379  1.8736
  224MOL0     H30189   1.957   6.926   6.323 -2.5026  0.2052  2.8561
  224MOL0     H30190   1.890   7.067   6.249  0.6561 -0.6726 -1.6245
  224MOL0     H30191   1.978   6.975   6.596 -2.0766 -1.3541 -4.4335
  224MOL0     H30192   1.773   7.158   6.830 -1.0968 -0.2272 -1.1105
  224MOL0     H30193   1.922   7.077   6.831  0.0450  2.0898  4.6241
  224MOL0     H30194   2.035   7.320   6.778  0.6633  0.3272  1.0082
  224MOL0     H30195   1.999   7.252   6.943 -2.6347  1.4125  1.5724
  224MOL0     H30196   1.795   7.368   6.960  0.9730 -1.5545  1.6391
  224MOL0     H30197   1.810   7.434   6.793 -1.0081 -0.6086  0.3856
  224MOL0     H30198   1.881   7.622   6.895  1.3633  1.1789  1.1510
  224MOL0     H30199   2.030   7.549   6.856  0.4565  0.5878  2.0819
  224MOL0     H30200   2.155   7.676   7.136  0.1503 -1.0155  0.1611
  224MOL0     H30201   2.180   7.990   7.331  1.1617  0.8769  1.4663
  224MOL0     H30202   2.174   7.844   7.426 -0.3175 -1.2751 -0.1145
  224MOL0     H30203   2.259   7.839   7.273  1.0447 -1.2317  2.7928
  224MOL0     H30204   1.569   7.915   7.642 -1.5549 -0.9226 -1.8678
  224MOL0     H30205   1.453   8.073   7.785 -0.5153  0.1497 -1.2661
  224MOL0     H30206   1.625   8.460   7.885 -0.3759 -0.3819  0.5164
  224MOL0     H30207   1.578   8.512   7.717  0.0962  0.3981  0.1689
  224MOL0     H30208   1.450   8.642   7.877  0.3429 -0.8467  2.7469
  224MOL0     H30209   1.342   8.521   7.799  0.2076  0.6636 -1.1176
  224MOL0     H30210   1.481   8.517   8.073  0.6133 -2.1283 -0.5438
  224MOL0     H30211   1.358   8.403   8.031  0.3569 -1.4864 -3.1547
  224MOL0     H30212   1.294   8.618   8.167 -1.8239 -2.6389  1.3259
  224MOL0     H30213   1.258   8.696   8.011  1.4119  0.3895 -0.1255
  224MOL0     H30214   1.159   8.426   8.119 -0.5525  1.7516  2.3627
  224MOL0     H30215   1.121   8.483   7.959 -0.8693 -1.0395  0.1994
  224MOL0     H30216   1.061   8.680   8.193  1.2402  1.2628  0.3915
  224MOL0     H30217   1.019   8.692   8.030 -0.3795  0.1576  0.3335
  224MOL0     H30218   0.892   8.458   8.164 -0.0186  0.4425  2.3467
  224MOL0     H30219   0.866   8.538   8.011  1.0903 -0.8509 -0.1445
  224MOL0     H30220   0.808   8.756   8.142  0.0825  0.1799  0.4055
  224MOL0     H30221   0.772   8.656   8.281 -0.2212 -0.6076  0.2479
  224MOL0     H30222   1.713   8.386   7.641 -2.7395  1.7132  2.1093
  224MOL0     H30223   1.819   8.231   7.481  0.3708  0.2475  1.6009
  224MOL0     H30224   1.703   7.766   7.315 -0.5930 -4.2681 -0.4847
  224MOL0     H30225   1.756   7.590   7.154  1.6090 -1.9177 -0.3366
  224MOL0     H30226   3.025   6.974   5.891  1.2425 -0.0138  1.3829
  224MOL0     H30227   3.236   7.098   5.840 -0.0957  0.2836  1.8427
  224MOL0     H30228   3.500   7.447   5.791 -0.6371  0.7170  0.0092
  224MOL0     H30229   3.708   7.533   5.731 -0.2853 -4.0177  2.3425
  224MOL0     H30230   3.876   7.699   5.622  4.2043  2.4215 -0.2441
  224MOL0     H30231   3.933   7.519   5.635  1.7176 -0.8526 -1.0742
  224MOL0     H30232   4.114   7.670   5.578  1.1149  0.7324 -0.2030
  224MOL0     H30233   4.027   7.749   5.443 -1.7007 -0.8927 -1.9242
  224MOL0     H30234   4.191   7.592   5.345  0.9674 -1.2109 -0.6410
  224MOL0     H30235   4.028   7.520   5.336  0.4444 -0.8801 -0.0783
  224MOL0     H30236   4.089   7.400   5.549 -0.3924  1.8023  1.5042
  224MOL0     H30237   4.255   7.472   5.526 -0.8615  0.4095  1.2612
  224MOL0     H30238   4.278   7.164   5.266 -2.6954  1.3750 -2.0771
  224MOL0     H30239   3.614   7.499   5.301 -2.9601 -1.6208 -0.9033
  224MOL0     H30240   3.410   7.398   5.369  1.2941 -2.9035  1.2995
  225MOL0     O30241   5.200   6.704   2.370 -0.3381 -0.1594 -0.0296
  225MOL0     C30242   5.113   6.658   2.299 -0.4395 -0.3443 -0.1389
  225MOL0     O30243   4.990   6.719   2.261  0.4529 -0.2277 -0.6839
  225MOL0     C30244   4.974   6.855   2.293  0.4910  0.2330 -0.3942
  225MOL0     C30245   4.847   6.894   2.322  0.5744 -0.8107 -0.7903
  225MOL0     C30246   4.811   7.028   2.343 -0.2123 -0.2188 -0.2289
  225MOL0     C30247   4.919   7.117   2.361 -1.2790 -0.3759  0.2583
  225MOL0     O30248   4.882   7.239   2.414  0.3274 -0.4108 -0.2894
  225MOL0     C30249   4.746   7.280   2.443  0.0521 -0.7076 -0.1804
  225MOL0     C30250   4.746   7.386   2.544  0.3856  0.1554  0.3627
  225MOL0     C30251   4.852   7.499   2.547  0.0225 -0.5358  0.3226
  225MOL0     C30252   4.827   7.598   2.664 -0.1838  0.2418 -0.1892
  225MOL0     C30253   4.911   7.729   2.644  0.0198  0.3427  0.1256
  225MOL0     C30254   4.844   7.845   2.728 -0.4004 -0.1370 -0.8002
  225MOL0     C30255   4.906   7.979   2.709 -0.8715  0.3392  0.4121
  225MOL0     C30256   4.836   8.099   2.781 -0.1884 -0.6325 -0.1995
  225MOL0     N30257   4.851   8.233   2.706  0.8613  0.6646 -0.4750
  225MOL0     C30258   4.775   8.340   2.727  0.7994 -0.5439 -0.4887
  225MOL0     C30259   4.796   8.426   2.625  0.3114  0.4023 -0.2936
  225MOL0     C30260   4.727   8.553   2.605 -0.4714 -1.2271  0.2877
  225MOL0     C30261   4.577   8.510   2.614 -0.1860  0.6739 -0.5921
  225MOL0     C30262   4.490   8.617   2.551 -1.0340  0.5295 -0.3495
  225MOL0     C30263   4.467   8.588   2.406 -0.5650 -0.2414 -0.4971
  225MOL0     O30264   4.377   8.480   2.378 -0.0673  0.6933 -0.1913
  225MOL0     C30265   4.240   8.497   2.388  0.1447 -0.8812 -0.2379
  225MOL0     C30266   4.177   8.623   2.401  0.0007  0.9710 -0.3141
  225MOL0     C30267   4.044   8.631   2.405 -0.4123  0.1446 -0.3547
  225MOL0     C30268   3.986   8.774   2.414 -0.1384  0.3450 -0.0229
  225MOL0     C30269   3.966   8.512   2.408 -0.5212 -0.5816  0.5691
  225MOL0     C30270   3.819   8.524   2.401  0.5551 -0.2636 -0.4516
  225MOL0     O30271   3.739   8.430   2.452  0.0302  0.3190  0.4800
  225MOL0     C30272   3.610   8.419   2.415 -0.0065  0.0359  0.6310
  225MOL0     C30273   3.561   8.331   2.315 -0.1031  0.5910 -0.5433
  225MOL0     C30274   3.420   8.339   2.271 -0.4933 -0.2570 -0.3871
  225MOL0     C30275   3.338   8.435   2.340  0.1435 -0.2265 -0.0752
  225MOL0     O30276   3.206   8.456   2.303 -0.4103  0.5888  0.3029
  225MOL0     C30277   3.179   8.476   2.166  0.1481 -0.2633  0.4606
  225MOL0     C30278   3.119   8.618   2.122 -0.8332 -0.0202 -0.1617
  225MOL0     C30279   2.968   8.632   2.164  0.7534  0.8297 -0.3226
  225MOL0     C30280   2.899   8.747   2.084  0.2403  0.4628  0.2365
  225MOL0     C30281   2.884   8.711   1.941  0.2578  0.2918  0.3010
  225MOL0     C30282   2.783   8.810   1.872  0.5082  0.3588 -0.3981
  225MOL0     C30283   2.824   8.844   1.729  0.0737  0.3779 -0.2034
  225MOL0     C30284   2.755   8.973   1.677  0.1239 -0.2208  0.3985
  225MOL0    Cl30285   2.578   8.933   1.668  0.1564 -0.1196  0.2201
  225MOL0     C30286   3.388   8.504   2.450  0.6670  0.1179 -0.7101
  225MOL0     C30287   3.523   8.503   2.485  1.0037  0.3140  0.2276
  225MOL0     O30288   3.775   8.622   2.347 -0.2252 -0.1832 -0.2665
  225MOL0     C30289   4.023   8.381   2.421 -0.0577 -0.5366 -0.2079
  225MOL0     C30290   4.160   8.382   2.405 -0.0274  0.3105  1.4875
  225MOL0     N30291   4.888   8.367   2.539 -0.2733  0.7350  0.5328
  225MOL0     N30292   4.923   8.257   2.596 -0.8423 -0.4304 -0.0194
  225MOL0     C30293   5.044   7.085   2.341 -1.3102  0.4337  0.4939
  225MOL0     C30294   5.074   6.952   2.301  0.7504  1.2000 -0.8252
  225MOL0     C30295   5.149   6.521   2.240  1.0038  0.1698  0.0005
  225MOL0     C30296   5.276   6.473   2.233 -0.0110 -0.2272  0.7287
  225MOL0     C30297   5.295   6.336   2.190 -0.3019  0.3315  0.4553
  225MOL0     C30298   5.193   6.250   2.155  0.0535  1.5038 -0.5453
  225MOL0     O30299   5.222   6.120   2.123  0.5994 -0.4080  0.1700
  225MOL0     C30300   5.119   6.016   2.134 -0.3008  0.8890 -0.2775
  225MOL0     C30301   5.121   5.930   2.010 -0.1820 -0.3374 -0.1198
  225MOL0     C30302   5.055   5.804   2.036 -1.0014  0.8279  0.2792
  225MOL0     C30303   5.079   5.701   1.916  0.4637 -0.0945  0.0484
  225MOL0     C30304   4.963   5.680   1.821 -0.1722 -0.0288 -0.5870
  225MOL0     C30305   4.871   5.655   1.739 -0.3522 -0.3092 -0.5546
  225MOL0     C30306   5.067   6.308   2.149  0.4086  0.8016  0.5105
  225MOL0     C30307   5.047   6.436   2.194  0.0109  0.5588 -0.0839
  225MOL0     H30308   4.757   6.835   2.314  0.6970 -1.3083  1.1307
  225MOL0     H30309   4.705   7.034   2.363 -0.0871  1.5295  0.0443
  225MOL0     H30310   4.700   7.323   2.353  0.8699 -2.0674 -1.2816
  225MOL0     H30311   4.679   7.202   2.480  1.4991 -2.7788 -1.7031
  225MOL0     H30312   4.651   7.439   2.535  0.2698  0.2621  1.8729
  225MOL0     H30313   4.745   7.343   2.645 -1.6542  0.0863  0.3648
  225MOL0     H30314   4.955   7.468   2.563  0.1417  0.5037  1.8299
  225MOL0     H30315   4.849   7.550   2.451  1.1555 -1.2470 -0.1093
  225MOL0     H30316   4.719   7.613   2.653 -0.4504  0.0826  1.7824
  225MOL0     H30317   4.842   7.531   2.750 -1.6076 -1.8282 -1.4670
  225MOL0     H30318   5.014   7.703   2.671 -0.5838 -0.8533  1.3724
  225MOL0     H30319   4.909   7.761   2.539 -3.7299 -1.8288 -0.6416
  225MOL0     H30320   4.738   7.860   2.705 -0.1681  0.9308 -1.2407
  225MOL0     H30321   4.855   7.823   2.835  0.1903  0.5896 -0.6989
  225MOL0     H30322   5.010   7.979   2.744 -0.3450  0.9059 -1.0430
  225MOL0     H30323   4.920   7.985   2.600  0.0118  2.4025  0.6026
  225MOL0     H30324   4.866   8.105   2.886 -0.6082  0.8429 -0.1422
  225MOL0     H30325   4.728   8.085   2.785 -0.3605  0.8805  2.0747
  225MOL0     H30326   4.708   8.370   2.807 -0.7394  2.3916 -2.6772
  225MOL0     H30327   4.760   8.623   2.683 -0.7713 -1.1513  0.3488
  225MOL0     H30328   4.759   8.594   2.509 -0.0522  0.1900  1.0025
  225MOL0     H30329   4.548   8.500   2.719  1.8750 -3.5539 -0.2122
  225MOL0     H30330   4.566   8.409   2.574  2.9412 -0.0336  0.0100
  225MOL0     H30331   4.543   8.712   2.560  0.7964 -0.6565  3.8303
  225MOL0     H30332   4.398   8.622   2.608 -1.6643  2.5583 -1.4569
  225MOL0     H30333   4.557   8.555   2.352 -2.2744 -1.4129 -2.8410
  225MOL0     H30334   4.443   8.682   2.356 -2.5901  0.5479  1.7883
  225MOL0     H30335   4.242   8.709   2.392  0.4425  0.7291  0.4389
  225MOL0     H30336   3.924   8.787   2.503  1.4161  0.6478  1.0714
  225MOL0     H30337   4.068   8.846   2.421  0.4701 -0.4752  1.9853
  225MOL0     H30338   3.933   8.782   2.319  2.0422 -1.3999 -1.4769
  225MOL0     H30339   3.636   8.267   2.269 -0.7921 -0.3800 -0.3240
  225MOL0     H30340   3.377   8.275   2.194 -0.0215  0.1985 -1.0347
  225MOL0     H30341   3.271   8.465   2.107  0.3192  2.1140  0.1508
  225MOL0     H30342   3.114   8.396   2.130  0.3039  0.2666 -1.1054
  225MOL0     H30343   3.185   8.691   2.170  1.9214 -2.0020 -0.6897
  225MOL0     H30344   3.143   8.621   2.016  1.1090 -0.2082  0.2217
  225MOL0     H30345   2.963   8.646   2.272  1.7599 -0.6977 -0.0544
  225MOL0     H30346   2.917   8.537   2.144 -0.3633  1.7724 -2.2897
  225MOL0     H30347   2.806   8.772   2.137 -1.1149  0.2162 -1.8782
  225MOL0     H30348   2.968   8.830   2.098 -1.0056  1.5558  0.1254
  225MOL0     H30349   2.833   8.615   1.929 -0.7215  0.9067 -0.6171
  225MOL0     H30350   2.980   8.697   1.892  0.5353  1.3579  0.5007
  225MOL0     H30351   2.683   8.766   1.875 -0.0310  1.2762 -2.8250
  225MOL0     H30352   2.773   8.901   1.932  0.2380 -0.1357  0.3191
  225MOL0     H30353   2.802   8.759   1.664  0.7485 -2.3886  2.9833
  225MOL0     H30354   2.933   8.856   1.720  0.1385 -0.3666 -0.4515
  225MOL0     H30355   2.780   8.995   1.573 -0.2146  1.1859  0.6040
  225MOL0     H30356   2.784   9.060   1.736 -1.8773  0.3112  0.6332
  225MOL0     H30357   3.326   8.579   2.497  1.4568 -0.0754  0.6932
  225MOL0     H30358   3.559   8.571   2.563  3.1360  0.7146 -1.0241
  225MOL0     H30359   3.966   8.293   2.448 -0.6337  0.6163  2.7126
  225MOL0     H30360   4.218   8.290   2.403  1.0762  0.9874  0.5024
  225MOL0     H30361   5.120   7.162   2.353 -0.3900 -0.1703 -1.1962
  225MOL0     H30362   5.173   6.925   2.268  0.9987  1.1976 -0.0782
  225MOL0     H30363   5.358   6.537   2.260  0.3126 -0.9167  1.4202
  225MOL0     H30364   5.399   6.309   2.187  0.3838  2.7239  0.1796
  225MOL0     H30365   5.142   5.951   2.219 -2.3420 -0.9084 -1.0141
  225MOL0     H30366   5.015   6.042   2.155 -2.2453 -5.7887  0.8970
  225MOL0     H30367   5.220   5.914   1.967  0.1910 -2.2172  1.3128
  225MOL0     H30368   5.063   5.985   1.935  0.6598 -0.0777 -0.5930
  225MOL0     H30369   4.949   5.798   2.061 -1.0193 -3.2475 -0.1667
  225MOL0     H30370   5.109   5.758   2.119  2.3412  0.6684 -1.7863
  225MOL0     H30371   5.115   5.605   1.954  0.2188 -1.0598 -1.9897
  225MOL0     H30372   5.157   5.750   1.858 -1.0749  3.3739  0.6581
  225MOL0     H30373   4.787   5.644   1.673 -1.8340  0.3732  1.1361
  225MOL0     H30374   4.985   6.242   2.124  0.3380  0.9501  0.3453
  225MOL0     H30375   4.945   6.472   2.197  0.2783  1.3751  2.6878
  226MOL0     O30376  11.217   1.672   8.845  0.1730 -0.6726 -0.0691
  226MOL0     C30377  11.298   1.743   8.909  0.5046 -0.8034 -0.1884
  226MOL0     O30378  11.262   1.835   9.005 -0.0519  0.5045 -0.8913
  226MOL0     C30379  11.131   1.853   9.056  0.5517 -0.3033  0.0923
  226MOL0     C30380  11.102   1.974   9.111  0.0966  0.1538  0.4656
  226MOL0     C30381  10.967   2.008   9.135  0.5323 -0.0810  0.1483
  226MOL0     C30382  10.863   1.921   9.124 -0.0615  0.9376  0.3073
  226MOL0     O30383  10.737   1.956   9.170 -0.3103 -0.2590  0.0588
  226MOL0     C30384  10.696   1.889   9.300 -0.4969  0.1780  1.3806
  226MOL0     C30385  10.541   1.905   9.318 -0.3672  0.6816 -0.5605
  226MOL0     C30386  10.460   1.821   9.217  0.2390  0.4550 -0.6860
  226MOL0     C30387  10.309   1.846   9.233 -0.2863 -0.2386 -0.6558
  226MOL0     C30388  10.229   1.762   9.141 -0.3564  0.7196  0.1637
  226MOL0     C30389  10.078   1.799   9.160  0.4138 -0.4127  0.0183
  226MOL0     C30390   9.991   1.725   9.051 -0.3688 -0.3496  1.2892
  226MOL0     C30391   9.967   1.588   9.109 -0.1380 -0.8441  1.4928
  226MOL0     N30392   9.854   1.522   9.051  0.2993 -0.2974  0.5106
  226MOL0     C30393   9.850   1.467   8.927 -0.4063  0.1397  1.1137
  226MOL0     C30394   9.726   1.411   8.910 -0.3280  0.1528 -0.1576
  226MOL0     C30395   9.678   1.340   8.786 -0.4543 -1.3041 -0.3469
  226MOL0     C30396   9.563   1.242   8.798  0.1300  0.4253  0.9442
  226MOL0     C30397   9.433   1.318   8.825 -0.0324  0.3164  0.6141
  226MOL0     C30398   9.303   1.241   8.776 -0.8403  0.4978  0.2367
  226MOL0     O30399   9.296   1.218   8.632  0.9479 -0.0256 -0.1321
  226MOL0     C30400   9.319   1.084   8.596  0.4460  0.3245 -0.1386
  226MOL0     C30401   9.267   1.058   8.470 -0.1206  1.6962  0.2339
  226MOL0     C30402   9.247   0.923   8.416 -0.4059 -0.2049 -0.2160
  226MOL0     C30403   9.163   0.897   8.295  0.2316  0.4459 -0.2667
  226MOL0     C30404   9.310   0.823   8.487 -0.9120  0.3579  0.1325
  226MOL0     C30405   9.322   0.691   8.427  0.5582  0.7152  0.2083
  226MOL0     O30406   9.278   0.589   8.501  0.3091 -0.5506 -0.2961
  226MOL0     C30407   9.315   0.460   8.462 -0.0687 -0.3798 -0.2495
  226MOL0     C30408   9.370   0.381   8.561 -0.0806  0.2986  0.3462
  226MOL0     C30409   9.393   0.241   8.543 -0.5615 -0.1708 -0.6395
  226MOL0     C30410   9.364   0.183   8.418 -0.1286 -0.0234 -0.4400
  226MOL0     O30411   9.391   0.051   8.413 -0.2791 -0.0665 -0.6909
  226MOL0     C30412   9.438  -0.008   8.292  0.1130  0.3373 -0.6471
  226MOL0     C30413   9.528  -0.125   8.345  0.1585 -0.3981 -0.2688
  226MOL0     C30414   9.609  -0.196   8.234  0.4683  0.1775  0.5680
  226MOL0     C30415   9.694  -0.101   8.145 -0.5083  0.6499  0.2556
  226MOL0     C30416   9.820  -0.165   8.087  0.2055 -0.1778  1.2230
  226MOL0     C30417   9.892  -0.052   8.007 -0.4324 -0.5717 -0.4047
  226MOL0     C30418  10.042  -0.079   7.990 -0.1428  0.5658 -0.5762
  226MOL0     C30419  10.114   0.014   7.907 -0.5621 -0.4485 -0.2983
  226MOL0    Cl30420  10.061   0.023   7.742  0.5850  0.2081  0.9347
  226MOL0     C30421   9.315   0.268   8.319 -0.4842 -0.1793  0.4952
  226MOL0     C30422   9.295   0.403   8.338 -0.2169  0.4260  0.1707
  226MOL0     O30423   9.370   0.681   8.315 -0.0161  0.7897  0.7540
  226MOL0     C30424   9.372   0.853   8.609  0.2327  0.6811  0.1116
  226MOL0     C30425   9.379   0.981   8.670  0.1644  0.9775  0.2182
  226MOL0     N30426   9.652   1.433   9.028  0.1624 -0.4850  0.9070
  226MOL0     N30427   9.732   1.491   9.115  0.0784  0.2221  0.2445
  226MOL0     C30428  10.892   1.792   9.074 -0.9311 -0.1203  0.1643
  226MOL0     C30429  11.025   1.762   9.034 -0.0255 -0.4225  0.7157
  226MOL0     C30430  11.440   1.759   8.870  0.1400  0.5184  0.4711
  226MOL0     C30431  11.515   1.880   8.889 -0.2297 -0.5945  0.3014
  226MOL0     C30432  11.652   1.885   8.847 -0.2211 -0.6517 -1.2232
  226MOL0     C30433  11.705   1.773   8.790 -0.0195  0.1879 -0.0135
  226MOL0     O30434  11.821   1.765   8.733 -1.1597  0.6924  0.4491
  226MOL0     C30435  11.920   1.674   8.800  0.3777  0.4232 -0.6511
  226MOL0     C30436  12.063   1.712   8.743 -0.5997 -0.5655 -0.4096
  226MOL0     C30437  12.172   1.629   8.817 -0.8209  0.6677  0.1407
  226MOL0     C30438  12.316   1.669   8.771  0.0620  0.1613 -0.5886
  226MOL0     C30439  12.410   1.598   8.858  0.9917  1.0831  0.5988
  226MOL0     C30440  12.505   1.553   8.920  0.2580  0.1828 -0.5410
  226MOL0     C30441  11.626   1.662   8.761 -0.0597 -0.2399 -0.3356
  226MOL0     C30442  11.499   1.652   8.798 -1.0235 -0.2787  0.3674
  226MOL0     H30443  11.185   2.042   9.129 -1.7938  2.4149  1.1781
  226MOL0     H30444  10.927   2.104   9.166 -0.1548 -0.4093  0.2878
  226MOL0     H30445  10.728   1.785   9.293  0.5387  0.4849  1.3149
  226MOL0     H30446  10.748   1.932   9.386  1.4851 -2.2174  1.4783
  226MOL0     H30447  10.517   1.873   9.420  2.6984 -1.1356 -0.2827
  226MOL0     H30448  10.515   2.010   9.307 -1.2032  0.3127 -2.5907
  226MOL0     H30449  10.502   1.851   9.121  1.4396  2.5145  0.4193
  226MOL0     H30450  10.479   1.717   9.246 -0.4632  0.8093  1.1359
  226MOL0     H30451  10.272   1.822   9.334  0.2493 -0.3048 -0.4722
  226MOL0     H30452  10.293   1.954   9.223  0.4160 -0.1475 -0.8201
  226MOL0     H30453  10.266   1.769   9.038 -0.5001 -0.8032 -0.0217
  226MOL0     H30454  10.252   1.660   9.174  1.1571  1.7471  2.5345
  226MOL0     H30455  10.045   1.779   9.263  4.0235 -0.7875  1.2842
  226MOL0     H30456  10.070   1.906   9.143  1.6124 -0.6392 -2.3434
  226MOL0     H30457   9.895   1.767   9.020  1.0071  0.4465 -2.3494
  226MOL0     H30458  10.055   1.713   8.964  1.7870  0.3343  2.7092
  226MOL0     H30459   9.953   1.598   9.217 -0.9964 -0.8181  1.3861
  226MOL0     H30460  10.061   1.532   9.100  0.7149  0.5609  1.4333
  226MOL0     H30461   9.929   1.464   8.853 -1.4889 -2.4431 -0.0269
  226MOL0     H30462   9.659   1.421   8.715 -0.4814 -0.3302  0.7328
  226MOL0     H30463   9.758   1.287   8.733  2.5038  1.1995  1.2571
  226MOL0     H30464   9.592   1.161   8.867  1.4760  0.5604  0.5658
  226MOL0     H30465   9.546   1.192   8.702 -0.1353 -1.0140  1.7048
  226MOL0     H30466   9.425   1.403   8.757 -0.5812  1.3433  1.9251
  226MOL0     H30467   9.438   1.347   8.931  2.5884  2.1950  0.0949
  226MOL0     H30468   9.234   1.321   8.803  0.9286  2.6592 -1.2598
  226MOL0     H30469   9.277   1.146   8.824  1.9897 -1.2963 -1.4382
  226MOL0     H30470   9.220   1.138   8.415 -1.2132  0.8357 -0.1361
  226MOL0     H30471   9.084   0.970   8.275 -2.1046 -2.5118 -2.9683
  226MOL0     H30472   9.217   0.892   8.200  0.0058 -0.4493 -0.3625
  226MOL0     H30473   9.112   0.801   8.313  0.3939  0.4135  0.0293
  226MOL0     H30474   9.381   0.425   8.660 -0.3334  1.0309  0.0569
  226MOL0     H30475   9.438   0.183   8.623  0.8427 -1.7924 -2.5013
  226MOL0     H30476   9.352  -0.051   8.239  1.9806 -0.4803 -3.2289
  226MOL0     H30477   9.494   0.065   8.231 -2.3618  1.8701 -1.2518
  226MOL0     H30478   9.608  -0.081   8.405  1.5022  1.5290 -3.2488
  226MOL0     H30479   9.461  -0.188   8.404  0.0421 -0.5820 -0.5903
  226MOL0     H30480   9.554  -0.258   8.162  1.7273  0.3305 -0.5666
  226MOL0     H30481   9.679  -0.264   8.283 -0.9525 -0.8204  1.2787
  226MOL0     H30482   9.632  -0.074   8.059 -0.7075 -0.9055 -0.1088
  226MOL0     H30483   9.719  -0.010   8.201 -2.8026  2.6643 -1.7410
  226MOL0     H30484   9.798  -0.253   8.026  0.1556 -0.5994  1.8424
  226MOL0     H30485   9.890  -0.197   8.164  1.5192  0.5305  0.3594
  226MOL0     H30486   9.839  -0.039   7.912 -1.5846  0.8930  0.3835
  226MOL0     H30487   9.881   0.045   8.056  0.7651 -0.6063 -0.0411
  226MOL0     H30488  10.044  -0.171   7.930 -0.3590  0.1749  0.0009
  226MOL0     H30489  10.092  -0.085   8.087 -0.8710  0.8288 -0.1814
  226MOL0     H30490  10.220  -0.011   7.898 -0.2381  1.1234 -1.2448
  226MOL0     H30491  10.098   0.113   7.951 -1.1227 -0.8105  0.3210
  226MOL0     H30492   9.306   0.225   8.220  1.5580  0.5783 -0.0680
  226MOL0     H30493   9.258   0.462   8.255  1.8812  3.1546  1.0145
  226MOL0     H30494   9.425   0.771   8.656 -1.5351 -1.1621 -0.9424
  226MOL0     H30495   9.420   0.989   8.770  0.3820 -0.2949  0.2493
  226MOL0     H30496  10.816   1.720   9.047 -2.2276 -0.0184  3.1618
  226MOL0     H30497  11.033   1.667   8.982 -0.6905  0.1106 -0.4084
  226MOL0     H30498  11.468   1.967   8.934 -0.0063 -1.4074  2.1813
  226MOL0     H30499  11.697   1.984   8.847 -1.8364  0.1128  0.0607
  226MOL0     H30500  11.907   1.682   8.909  1.1043  0.0171 -0.5285
  226MOL0     H30501  11.902   1.569   8.776 -3.6029  0.7859  0.0020
  226MOL0     H30502  12.091   1.818   8.751  2.5333 -1.4363  2.0910
  226MOL0     H30503  12.070   1.689   8.637  0.4933  0.6537 -0.6283
  226MOL0     H30504  12.150   1.525   8.791 -1.8418  0.7451  0.6379
  226MOL0     H30505  12.160   1.653   8.923  1.6039  3.7036 -0.1256
  226MOL0     H30506  12.347   1.774   8.765  1.0821 -0.1038 -0.2537
  226MOL0     H30507  12.328   1.631   8.669  1.2124 -1.5570  0.1326
  226MOL0     H30508  12.591   1.516   8.972  0.0260  1.1237  0.5543
  226MOL0     H30509  11.676   1.585   8.703  0.0274  0.9577 -1.8976
  226MOL0     H30510  11.440   1.563   8.781  0.1772 -1.0285 -0.0318
  227MOL0     O30511   3.516  10.150   9.260  0.5722 -0.1746  0.5269
  227MOL0     C30512   3.574  10.141   9.151  1.2059 -0.3276  0.4365
  227MOL0     O30513   3.692  10.082   9.133  0.3424  0.0942  0.0025
  227MOL0     C30514   3.734  10.001   9.228 -0.2709 -0.2203  0.3508
  227MOL0     C30515   3.674   9.872   9.258 -0.1552  0.1920 -0.1300
  227MOL0     C30516   3.733   9.790   9.363 -0.5152  0.1442  0.2871
  227MOL0     C30517   3.845   9.831   9.430 -0.5206 -0.4163 -0.2337
  227MOL0     O30518   3.887   9.739   9.528 -0.4109 -0.0864 -0.1542
  227MOL0     C30519   4.005   9.777   9.605 -0.7628 -0.0071 -0.6165
  227MOL0     C30520   4.037   9.659   9.702  0.1924 -0.1926  0.2540
  227MOL0     C30521   4.052   9.708   9.850  0.6790 -0.1023  0.9622
  227MOL0     C30522   4.044   9.593   9.951  0.7272 -0.5131 -0.5447
  227MOL0     C30523   4.167   9.499   9.952  0.1380  0.7797  0.0019
  227MOL0     C30524   4.266   9.522  10.068 -0.1875  0.0256 -0.4219
  227MOL0     C30525   4.345   9.649  10.057  0.0858 -0.6282 -1.0651
  227MOL0     C30526   4.478   9.638  10.134  0.7165 -0.4291  0.1066
  227MOL0     N30527   4.540   9.771  10.112 -0.4592  0.6016 -0.6344
  227MOL0     C30528   4.656   9.808  10.186  0.6360 -0.5509  0.2676
  227MOL0     C30529   4.717   9.900  10.110  0.6296  0.1964 -0.1231
  227MOL0     C30530   4.848   9.960  10.141 -0.6903 -0.1100  0.0259
  227MOL0     C30531   4.859  10.028  10.279  0.0467 -0.1368 -0.4769
  227MOL0     C30532   4.982  10.121  10.292  0.1426 -0.6675  0.4182
  227MOL0     C30533   5.008  10.159  10.430 -1.4503 -0.2444 -0.1131
  227MOL0     O30534   5.105  10.265  10.442 -0.1366 -0.3096  0.4964
  227MOL0     C30535   5.116  10.376  10.367  0.5675 -0.3547  0.7998
  227MOL0     C30536   5.017  10.481  10.356  0.3403 -0.0973  0.3171
  227MOL0     C30537   5.036  10.583  10.260  0.3104 -0.2237  0.2385
  227MOL0     C30538   4.911  10.680  10.256  0.1050 -0.4297 -0.0166
  227MOL0     C30539   5.161  10.583  10.176  0.5217 -0.0406  0.2475
  227MOL0     C30540   5.182  10.689  10.071  0.7646 -0.5156 -0.8326
  227MOL0     O30541   5.077  10.789  10.058 -0.0760  0.4205  0.3941
  227MOL0     C30542   5.097  10.885   9.960 -0.4536 -0.3176 -0.3021
  227MOL0     C30543   5.206  10.984   9.961  1.1420 -0.7034  0.2392
  227MOL0     C30544   5.224  11.075   9.849 -0.4406 -0.1322 -0.0409
  227MOL0     C30545   5.138  11.071   9.741 -0.1143 -0.8513 -0.0137
  227MOL0     O30546   5.133  11.157   9.636  1.4755  0.2824  0.0371
  227MOL0     C30547   5.244  11.236   9.619 -0.0990  0.3361 -0.2522
  227MOL0     C30548   5.224  11.329   9.493  0.0959 -0.1388 -0.2929
  227MOL0     C30549   5.332  11.432   9.488  0.3920 -0.6676  0.0197
  227MOL0     C30550   5.470  11.393   9.433  0.8454  0.1842 -0.4858
  227MOL0     C30551   5.477  11.348   9.290  0.3528  0.2717 -0.4149
  227MOL0     C30552   5.421  11.450   9.197  0.0971 -0.1407  0.0402
  227MOL0     C30553   5.510  11.578   9.202 -0.0857 -0.3022 -0.8320
  227MOL0     C30554   5.536  11.617   9.061  0.6951  0.4333  0.0366
  227MOL0    Cl30555   5.637  11.755   9.041 -0.0730  0.1031  0.0104
  227MOL0     C30556   5.036  10.980   9.741 -0.4137 -0.0066  0.1810
  227MOL0     C30557   5.018  10.895   9.849 -0.7706  0.5511  0.3935
  227MOL0     O30558   5.277  10.680   9.995 -0.0312  0.3843 -0.0418
  227MOL0     C30559   5.253  10.491  10.195  1.1588 -0.5843  0.2695
  227MOL0     C30560   5.236  10.392  10.292  0.1276  0.3262 -0.5270
  227MOL0     N30561   4.649   9.911   9.986 -0.2143 -0.3235 -0.5555
  227MOL0     N30562   4.541   9.840   9.987  0.3046 -0.7650  0.4219
  227MOL0     C30563   3.903   9.952   9.395 -0.4976  0.1467 -0.3592
  227MOL0     C30564   3.847  10.039   9.300 -0.4983 -0.0847  0.4511
  227MOL0     C30565   3.495  10.190   9.029 -0.1801  0.3412 -0.1813
  227MOL0     C30566   3.365  10.233   9.046 -0.5304 -0.9394 -0.0494
  227MOL0     C30567   3.298  10.287   8.935  0.3494  0.1648  0.3337
  227MOL0     C30568   3.365  10.282   8.808  0.1588 -0.4984 -0.3890
  227MOL0     O30569   3.325  10.351   8.700 -0.2564 -0.0290  0.4818
  227MOL0     C30570   3.202  10.411   8.698  0.0219 -0.2914  0.9901
  227MOL0     C30571   3.080  10.322   8.661 -0.5466  0.5591  0.6556
  227MOL0     C30572   3.113  10.252   8.529 -0.2923  0.7096  0.3474
  227MOL0     C30573   2.977  10.236   8.451 -0.3000 -0.1873 -0.0188
  227MOL0     C30574   2.917  10.365   8.427 -0.0732  0.4899  0.5095
  227MOL0     C30575   2.870  10.477   8.431 -0.2631  0.2114  0.2422
  227MOL0     C30576   3.484  10.226   8.796  0.0383 -0.0113  1.1078
  227MOL0     C30577   3.555  10.182   8.904  0.4999 -0.1172 -0.2135
  227MOL0     H30578   3.592   9.836   9.197  0.8216 -1.1782 -0.6975
  227MOL0     H30579   3.690   9.698   9.402  0.3004  0.5073  2.1459
  227MOL0     H30580   4.093   9.795   9.544  0.7205 -4.5864 -0.1968
  227MOL0     H30581   3.994   9.870   9.661  1.7555 -0.0796  0.1166
  227MOL0     H30582   3.948   9.596   9.707 -1.1494  1.7107  3.0291
  227MOL0     H30583   4.127   9.612   9.660  0.1727 -0.8878  0.9670
  227MOL0     H30584   4.146   9.762   9.863  0.5497  0.8857 -1.5399
  227MOL0     H30585   3.973   9.781   9.871  0.6960  0.5879 -1.0942
  227MOL0     H30586   4.018   9.639  10.047 -2.4497 -1.7670 -0.6780
  227MOL0     H30587   3.956   9.537   9.920 -1.1884  1.3622  1.1708
  227MOL0     H30588   4.141   9.396   9.977  3.8434  0.5511  4.0290
  227MOL0     H30589   4.217   9.499   9.854 -0.8903 -1.3455 -0.6047
  227MOL0     H30590   4.211   9.537  10.161  0.0368  0.0194 -0.2872
  227MOL0     H30591   4.333   9.436  10.075  1.4859  1.3177  0.5096
  227MOL0     H30592   4.379   9.660   9.954  1.0969  1.7910 -0.5497
  227MOL0     H30593   4.303   9.742  10.097  2.4650  0.5901 -1.2544
  227MOL0     H30594   4.536   9.553  10.096 -2.2729 -1.7987 -1.6988
  227MOL0     H30595   4.460   9.623  10.240  2.0114 -0.1254  0.3925
  227MOL0     H30596   4.707   9.768  10.273  0.2346  1.6765  1.6330
  227MOL0     H30597   4.913   9.872  10.141 -1.3975 -0.6534 -1.1515
  227MOL0     H30598   4.876  10.031  10.064  2.2181  0.7523  1.7091
  227MOL0     H30599   4.863   9.956  10.362  1.6684 -0.8399 -1.1193
  227MOL0     H30600   4.777  10.099  10.288 -0.8418 -1.2865  1.0255
  227MOL0     H30601   4.957  10.212  10.236 -1.1013 -0.2095  1.6834
  227MOL0     H30602   5.071  10.084  10.238 -1.2108 -2.3171 -0.7933
  227MOL0     H30603   5.045  10.066  10.474  1.3451  0.6603 -0.3749
  227MOL0     H30604   4.916  10.193  10.480 -1.3361  0.3526 -0.3058
  227MOL0     H30605   4.926  10.499  10.412  1.5022 -1.3572  2.7742
  227MOL0     H30606   4.951  10.781  10.268 -1.0214 -0.0394  0.5656
  227MOL0     H30607   4.840  10.662  10.175 -0.3912  0.5978  0.1723
  227MOL0     H30608   4.851  10.693  10.346 -1.3935  0.0502 -1.0526
  227MOL0     H30609   5.266  10.995  10.051 -0.1497 -0.3537  1.0890
  227MOL0     H30610   5.298  11.153   9.863 -0.1527 -0.1860 -1.1263
  227MOL0     H30611   5.245  11.301   9.707  0.8381 -0.9727  0.7474
  227MOL0     H30612   5.338  11.180   9.616 -0.6185 -0.5738  0.1435
  227MOL0     H30613   5.201  11.279   9.399  2.7554 -0.3115 -0.9194
  227MOL0     H30614   5.136  11.390   9.516 -1.1893 -0.8962 -2.8038
  227MOL0     H30615   5.342  11.472   9.589 -1.7433 -2.3334  0.9742
  227MOL0     H30616   5.287  11.518   9.439 -2.3946 -0.0150  3.3166
  227MOL0     H30617   5.548  11.466   9.454  1.5284  0.1689 -2.7202
  227MOL0     H30618   5.515  11.306   9.481  3.2129 -0.0422 -2.8751
  227MOL0     H30619   5.420  11.256   9.279 -1.3100  1.1467  0.4746
  227MOL0     H30620   5.581  11.327   9.265 -0.0717  0.1862 -2.2762
  227MOL0     H30621   5.420  11.400   9.100 -1.5837 -0.2001  0.0679
  227MOL0     H30622   5.316  11.471   9.218  0.1035  1.0059 -0.9808
  227MOL0     H30623   5.610  11.560   9.244  0.3033  0.1406 -1.5407
  227MOL0     H30624   5.458  11.660   9.252  0.1669 -0.7408  0.1808
  227MOL0     H30625   5.444  11.640   9.006  0.9842  3.3465  0.5735
  227MOL0     H30626   5.584  11.531   9.015  2.8083  1.7719 -0.3781
  227MOL0     H30627   4.966  10.979   9.658 -1.1377  1.5359  0.7366
  227MOL0     H30628   4.944  10.816   9.844  1.5567 -1.7147 -2.3694
  227MOL0     H30629   5.350  10.475  10.148  2.6740 -1.1376  3.3091
  227MOL0     H30630   5.313  10.317  10.298 -0.4879 -0.2523  0.3909
  227MOL0     H30631   3.974   9.992   9.467 -0.3069 -2.4510  1.0100
  227MOL0     H30632   3.886  10.139   9.285 -0.2872 -0.4062 -1.3228
  227MOL0     H30633   3.315  10.240   9.142 -1.4128  0.8052 -0.6027
  227MOL0     H30634   3.204  10.338   8.954  1.4029  2.0171  0.8678
  227MOL0     H30635   3.181  10.462   8.792 -1.2232 -1.1567  1.2023
  227MOL0     H30636   3.204  10.492   8.623 -0.1439  0.4824  1.8053
  227MOL0     H30637   2.991  10.385   8.668 -1.3721 -0.7163  2.2522
  227MOL0     H30638   3.062  10.233   8.721  1.3661 -0.5769 -0.3581
  227MOL0     H30639   3.165  10.157   8.545 -0.3934  0.1543 -2.2384
  227MOL0     H30640   3.187  10.308   8.471  2.5122 -2.1815  0.8606
  227MOL0     H30641   2.906  10.170   8.503 -0.1223  0.3661  0.9527
  227MOL0     H30642   3.002  10.196   8.352 -0.0215  0.9227 -0.4077
  227MOL0     H30643   2.815  10.565   8.457 -0.2168  0.0269  0.9973
  227MOL0     H30644   3.537  10.226   8.701  0.1167 -0.9894  1.1411
  227MOL0     H30645   3.656  10.148   8.883  0.1569 -0.1111 -2.0593
  228MOL0     O30646  10.260   2.314   5.272 -0.1475 -1.3502  0.3115
  228MOL0     C30647  10.196   2.232   5.334 -1.6076 -0.0419 -0.4183
  228MOL0     O30648  10.251   2.151   5.427 -0.5470  0.1992  0.2128
  228MOL0     C30649  10.391   2.145   5.431 -0.5306 -0.6842  0.4599
  228MOL0     C30650  10.455   2.204   5.534 -0.6256 -0.3243  0.9493
  228MOL0     C30651  10.592   2.206   5.524 -0.2102  1.0769  0.6901
  228MOL0     C30652  10.654   2.141   5.422 -0.4744 -0.3949  0.6224
  228MOL0     O30653  10.791   2.159   5.402 -0.3322  0.9106  0.0774
  228MOL0     C30654  10.868   2.247   5.486 -0.1860 -0.2788  0.2614
  228MOL0     C30655  11.017   2.209   5.477 -0.0280  0.4266  0.2461
  228MOL0     C30656  11.073   2.223   5.338 -0.5080 -0.2418 -0.0807
  228MOL0     C30657  11.074   2.091   5.265 -0.1328  0.5515  0.4913
  228MOL0     C30658  11.087   2.088   5.115 -0.6458  0.0089 -0.0128
  228MOL0     C30659  11.215   2.140   5.053  0.4544  0.6195 -0.3427
  228MOL0     C30660  11.347   2.077   5.100 -0.4033  0.0015 -0.1192
  228MOL0     C30661  11.374   1.941   5.038  0.3697 -0.1641 -0.0843
  228MOL0     N30662  11.272   1.834   5.046 -0.5210  0.4823 -0.1534
  228MOL0     C30663  11.207   1.794   4.936  0.7055  1.0149  0.3731
  228MOL0     C30664  11.126   1.699   4.988 -0.4693  0.3060 -0.2255
  228MOL0     C30665  11.027   1.612   4.918  0.7338  0.1514  0.5720
  228MOL0     C30666  10.877   1.666   4.943  0.5253  0.6537  0.6325
  228MOL0     C30667  10.816   1.615   5.072  0.4782  0.4603 -0.6228
  228MOL0     C30668  10.680   1.661   5.083 -0.1140  0.5035  0.0953
  228MOL0     O30669  10.642   1.626   5.213 -1.0261 -0.5225  0.4453
  228MOL0     C30670  10.516   1.659   5.250  0.9522 -0.8338  0.1210
  228MOL0     C30671  10.420   1.731   5.169  0.8590  0.3253  0.4185
  228MOL0     C30672  10.285   1.742   5.213 -0.0232  0.0772 -0.0805
  228MOL0     C30673  10.200   1.833   5.132  0.5301  0.0611 -0.8569
  228MOL0     C30674  10.249   1.685   5.337  0.0294 -0.0841 -0.2929
  228MOL0     C30675  10.106   1.693   5.391  0.2022 -0.8232 -0.1795
  228MOL0     O30676  10.100   1.663   5.519 -0.2165 -0.0971 -0.2684
  228MOL0     C30677   9.981   1.670   5.577  0.1809  0.3444 -0.0679
  228MOL0     C30678   9.940   1.796   5.628 -1.3423  0.2600 -0.4830
  228MOL0     C30679   9.818   1.815   5.696 -0.3536  0.8200 -0.0228
  228MOL0     C30680   9.722   1.707   5.700 -0.7660 -0.2413 -0.2365
  228MOL0     O30681   9.602   1.736   5.764  0.2161 -0.3232 -0.2520
  228MOL0     C30682   9.489   1.655   5.713 -0.4342 -0.3476 -0.2034
  228MOL0     C30683   9.368   1.699   5.797 -0.4337  0.6798 -0.0033
  228MOL0     C30684   9.235   1.701   5.711 -0.1065  0.7085  0.0139
  228MOL0     C30685   9.122   1.731   5.810 -0.5542  0.5298 -0.2354
  228MOL0     C30686   8.978   1.708   5.751  0.3816  0.3667  0.0261
  228MOL0     C30687   8.870   1.780   5.839  0.3143 -0.0620  0.2690
  228MOL0     C30688   8.725   1.779   5.777 -1.2384 -0.2023 -0.3646
  228MOL0     C30689   8.622   1.862   5.850  0.0982  1.1114  0.2223
  228MOL0    Cl30690   8.457   1.828   5.787 -0.0001  0.0896 -0.2756
  228MOL0     C30691   9.766   1.578   5.661 -0.4552 -0.0767  0.7604
  228MOL0     C30692   9.888   1.564   5.592  0.1875  0.4640 -0.5321
  228MOL0     O30693  10.016   1.735   5.326 -0.1752 -0.8171  0.1241
  228MOL0     C30694  10.352   1.624   5.420  0.2207 -1.1323  0.0048
  228MOL0     C30695  10.476   1.613   5.377 -0.4385  0.7394  0.1341
  228MOL0     N30696  11.137   1.696   5.124  0.6070  0.3952  0.3123
  228MOL0     N30697  11.218   1.790   5.157 -0.9691  0.3808  0.5983
  228MOL0     C30698  10.591   2.058   5.325  0.8425  0.1996  0.1113
  228MOL0     C30699  10.451   2.062   5.335 -0.1084 -0.4933  0.0922
  228MOL0     C30700  10.058   2.211   5.291  0.1360 -0.7096  0.1178
  228MOL0     C30701   9.982   2.308   5.221 -0.1355 -0.1244 -0.0161
  228MOL0     C30702   9.858   2.289   5.190 -0.5633 -0.3141 -0.6870
  228MOL0     C30703   9.785   2.179   5.226  0.0902 -0.4508  1.5405
  228MOL0     O30704   9.651   2.164   5.183 -0.7840  0.1630 -0.2329
  228MOL0     C30705   9.610   2.029   5.170 -0.4296 -1.3262  0.0786
  228MOL0     C30706   9.482   2.023   5.087 -0.6292 -0.9934 -0.1418
  228MOL0     C30707   9.492   2.099   4.957  0.1541  0.8055  0.2251
  228MOL0     C30708   9.615   2.082   4.873  0.1717  1.2449  0.8328
  228MOL0     C30709   9.612   2.156   4.746 -0.4578  1.0983  0.0421
  228MOL0     C30710   9.605   2.208   4.639 -0.1088  0.7660 -0.7978
  228MOL0     C30711   9.851   2.083   5.309 -0.5637  0.1408  0.7215
  228MOL0     C30712   9.988   2.095   5.330 -0.8058  0.6555  0.4221
  228MOL0     H30713  10.398   2.252   5.613  0.7294  0.5644  1.4291
  228MOL0     H30714  10.638   2.278   5.592  1.1259  2.9335 -2.0124
  228MOL0     H30715  10.845   2.348   5.454  1.8150  1.0253  2.5485
  228MOL0     H30716  10.841   2.221   5.589 -1.0685 -0.7696 -0.0920
  228MOL0     H30717  11.064   2.279   5.547 -0.2074  2.7972 -1.8855
  228MOL0     H30718  11.029   2.107   5.516  0.1543  0.1609 -0.4991
  228MOL0     H30719  11.031   2.295   5.268 -0.7219 -2.0749 -1.9134
  228MOL0     H30720  11.178   2.255   5.344  0.2749 -1.9329 -2.9953
  228MOL0     H30721  11.149   2.020   5.304 -2.0098 -2.4076 -0.9477
  228MOL0     H30722  10.980   2.041   5.289  1.1896 -2.6565 -0.4373
  228MOL0     H30723  11.067   1.992   5.068 -0.1757  1.1688 -2.7338
  228MOL0     H30724  11.006   2.153   5.080  0.3502  0.0537 -2.3705
  228MOL0     H30725  11.215   2.127   4.945  2.1140 -2.8861 -0.0601
  228MOL0     H30726  11.206   2.247   5.073  3.3570  1.2533 -1.8752
  228MOL0     H30727  11.430   2.144   5.077  0.6222 -1.1717  0.0566
  228MOL0     H30728  11.335   2.062   5.208 -0.2700  0.2942 -0.0644
  228MOL0     H30729  11.464   1.902   5.087  0.2477  1.2523  1.3543
  228MOL0     H30730  11.409   1.951   4.935 -0.1886 -2.7461 -0.5908
  228MOL0     H30731  11.235   1.820   4.834  3.9309 -1.7101  0.3991
  228MOL0     H30732  11.042   1.603   4.810 -1.8757  0.9532  0.0701
  228MOL0     H30733  11.033   1.510   4.958 -0.6479 -0.0200  0.4000
  228MOL0     H30734  10.811   1.623   4.867  0.3261 -0.8640  1.6249
  228MOL0     H30735  10.876   1.775   4.932 -0.1979  0.4998 -1.1065
  228MOL0     H30736  10.873   1.648   5.160  0.7784 -1.1888 -0.1638
  228MOL0     H30737  10.811   1.506   5.075 -1.9011  0.5380  0.9749
  228MOL0     H30738  10.610   1.618   5.011 -1.7358  1.5496  0.9875
  228MOL0     H30739  10.682   1.769   5.061  0.5331  0.3377 -0.7007
  228MOL0     H30740  10.432   1.768   5.068 -1.3457  0.4845  0.1757
  228MOL0     H30741  10.109   1.782   5.100  0.1645 -0.1448  0.4879
  228MOL0     H30742  10.177   1.927   5.184 -1.8810  1.3666 -3.9168
  228MOL0     H30743  10.255   1.861   5.041  1.6377  0.1577 -0.1806
  228MOL0     H30744  10.008   1.880   5.622 -0.8988  0.0021  0.6949
  228MOL0     H30745   9.778   1.906   5.739  0.4891  0.3045  1.9857
  228MOL0     H30746   9.466   1.676   5.608  0.5442 -3.6853 -1.2005
  228MOL0     H30747   9.508   1.547   5.721  1.5027  0.1182  3.5334
  228MOL0     H30748   9.356   1.635   5.885 -0.9790  2.4735  1.2945
  228MOL0     H30749   9.381   1.801   5.835  1.4092  0.0376  1.2487
  228MOL0     H30750   9.209   1.606   5.662 -0.6493  1.8943 -2.1474
  228MOL0     H30751   9.232   1.775   5.630 -2.4124 -0.7899 -1.4080
  228MOL0     H30752   9.130   1.668   5.899  0.8015  1.0573  0.0443
  228MOL0     H30753   9.127   1.837   5.837 -1.3945  0.5462 -0.1287
  228MOL0     H30754   8.945   1.604   5.741 -2.1333  0.9430  1.6622
  228MOL0     H30755   8.971   1.752   5.651  0.3987 -0.9552 -0.5843
  228MOL0     H30756   8.871   1.730   5.936  1.7275 -0.5887  0.0202
  228MOL0     H30757   8.889   1.886   5.859 -2.9457  1.0743 -1.8121
  228MOL0     H30758   8.693   1.675   5.779 -0.0087 -0.8075  5.1407
  228MOL0     H30759   8.744   1.823   5.679  2.4512  1.2599  0.8170
  228MOL0     H30760   8.649   1.963   5.817 -2.9355  0.6202 -4.8373
  228MOL0     H30761   8.623   1.853   5.959 -0.9908  0.8727  0.2235
  228MOL0     H30762   9.708   1.495   5.700  1.7194 -0.9567  2.2871
  228MOL0     H30763   9.912   1.462   5.566  0.5677 -0.4674  2.9492
  228MOL0     H30764  10.327   1.602   5.523  0.5955 -0.8076  0.1646
  228MOL0     H30765  10.534   1.544   5.438  0.1385  0.5964 -0.5549
  228MOL0     H30766  10.628   1.995   5.244 -5.6627 -0.1916 -3.2143
  228MOL0     H30767  10.390   1.988   5.284  0.0708 -0.9075  0.4752
  228MOL0     H30768  10.031   2.399   5.188 -0.4003  0.5008  1.2575
  228MOL0     H30769   9.806   2.359   5.124 -0.8034  0.2548  0.0865
  228MOL0     H30770   9.685   1.966   5.121  1.0607 -0.9413  1.7463
  228MOL0     H30771   9.587   1.974   5.262 -2.5900  0.7678  0.8838
  228MOL0     H30772   9.412   2.072   5.156  1.6418 -0.6985  2.1241
  228MOL0     H30773   9.466   1.915   5.081 -0.0495 -1.4628  3.9221
  228MOL0     H30774   9.468   2.205   4.971 -0.0514  0.7128  0.5834
  228MOL0     H30775   9.415   2.060   4.890  0.1543  1.4876 -0.1903
  228MOL0     H30776   9.625   1.977   4.846  1.1421  1.3552  0.7428
  228MOL0     H30777   9.700   2.112   4.935 -0.2193  0.9601  1.5245
  228MOL0     H30778   9.593   2.253   4.542 -0.5511 -2.1712 -2.1969
  228MOL0     H30779   9.809   1.988   5.339  0.4565 -0.9884 -1.1957
  228MOL0     H30780  10.038   2.011   5.376 -0.7247 -0.2189 -1.2029
  229MOL0     O30781   6.082   4.961   2.557 -0.6215 -1.3814  0.8744
  229MOL0     C30782   6.202   4.978   2.510  0.7896 -0.2743 -0.8197
  229MOL0     O30783   6.307   4.893   2.528 -0.0620 -0.1082 -0.0496
  229MOL0     C30784   6.293   4.761   2.555  0.0173 -0.3131  0.9621
  229MOL0     C30785   6.224   4.681   2.469 -0.2648  0.1975  0.6555
  229MOL0     C30786   6.234   4.547   2.490 -0.1428  0.8064  0.2955
  229MOL0     C30787   6.276   4.482   2.604  0.8104 -0.2264 -0.2814
  229MOL0     O30788   6.272   4.345   2.605 -0.6663 -0.0162 -0.0290
  229MOL0     C30789   6.338   4.274   2.718 -0.2582 -0.0959  0.7961
  229MOL0     C30790   6.329   4.119   2.718  1.1338 -0.0409  0.1862
  229MOL0     C30791   6.383   4.079   2.853 -0.5585  0.4223  0.1936
  229MOL0     C30792   6.388   3.923   2.889 -0.0125 -0.5354  0.2539
  229MOL0     C30793   6.243   3.885   2.906  0.2293  0.0669 -1.2604
  229MOL0     C30794   6.217   3.739   2.935 -0.4150 -0.3554  0.0875
  229MOL0     C30795   6.248   3.712   3.081  0.2606  0.5976  0.3109
  229MOL0     C30796   6.190   3.589   3.148  0.1359  1.7087  0.0914
  229MOL0     N30797   6.043   3.577   3.140 -0.3956 -0.0537 -0.1646
  229MOL0     C30798   5.970   3.523   3.046  0.6475 -0.5344 -1.2720
  229MOL0     C30799   5.845   3.545   3.080  0.2403  0.1647  0.2199
  229MOL0     C30800   5.718   3.516   3.007  0.3461 -0.0706  0.5658
  229MOL0     C30801   5.597   3.489   3.101  0.3190  0.4971  0.6588
  229MOL0     C30802   5.462   3.522   3.039  0.5157 -0.3883 -0.5123
  229MOL0     C30803   5.344   3.500   3.125 -0.3040 -0.8124  0.0821
  229MOL0     O30804   5.231   3.531   3.048 -0.6439 -0.5298 -0.0795
  229MOL0     C30805   5.106   3.483   3.074 -0.3113  0.3252 -1.2757
  229MOL0     C30806   5.001   3.495   2.990 -0.9034  0.4681  0.0937
  229MOL0     C30807   4.874   3.446   3.013  0.2891 -1.2459  0.1609
  229MOL0     C30808   4.774   3.469   2.898 -0.8170 -0.3116 -0.5965
  229MOL0     C30809   4.847   3.399   3.148  0.3548  0.9594 -0.1493
  229MOL0     C30810   4.714   3.355   3.197 -0.2956  0.3890  0.1512
  229MOL0     O30811   4.706   3.346   3.328 -0.4458 -0.5107 -0.1083
  229MOL0     C30812   4.616   3.264   3.393 -0.4354 -0.2104 -0.3746
  229MOL0     C30813   4.596   3.284   3.531  0.6022  0.0187  0.4586
  229MOL0     C30814   4.499   3.211   3.606 -0.0367  0.0199 -0.3003
  229MOL0     C30815   4.426   3.114   3.536 -0.0683  0.0124 -0.3844
  229MOL0     O30816   4.336   3.044   3.611  0.3749 -0.2324 -0.0824
  229MOL0     C30817   4.380   2.913   3.598 -0.6125 -0.5315  0.2888
  229MOL0     C30818   4.293   2.832   3.695 -0.8994 -0.0862  1.2692
  229MOL0     C30819   4.326   2.684   3.690 -0.3235 -0.3439  0.7348
  229MOL0     C30820   4.229   2.599   3.773  0.4895 -0.2605 -0.3815
  229MOL0     C30821   4.229   2.454   3.725 -0.3451  0.3503 -0.1804
  229MOL0     C30822   4.131   2.366   3.802  0.0711 -0.0134 -0.2407
  229MOL0     C30823   4.151   2.223   3.773 -0.2974 -0.8728 -0.0411
  229MOL0     C30824   4.054   2.140   3.846  0.2436 -0.4274 -0.7027
  229MOL0    Cl30825   4.068   1.976   3.777  0.0228  0.4634 -0.0771
  229MOL0     C30826   4.443   3.089   3.402  0.4805 -0.9619  0.2134
  229MOL0     C30827   4.532   3.169   3.333  0.5725 -0.5569 -0.6099
  229MOL0     O30828   4.620   3.365   3.118  0.9573 -0.0393  0.3571
  229MOL0     C30829   4.952   3.382   3.241 -0.2819  0.4349  0.0410
  229MOL0     C30830   5.080   3.430   3.205 -0.6630 -0.5300  0.2074
  229MOL0     N30831   5.845   3.584   3.211 -0.1961 -0.0846  0.0205
  229MOL0     N30832   5.966   3.620   3.242  0.5179  0.2253 -1.0184
  229MOL0     C30833   6.341   4.565   2.696  0.3838 -0.5155 -0.3141
  229MOL0     C30834   6.345   4.704   2.670  0.7740 -0.0193 -0.9450
  229MOL0     C30835   6.221   5.109   2.434 -1.1661 -0.1335 -0.3764
  229MOL0     C30836   6.351   5.151   2.398  0.0096  0.5274 -0.0711
  229MOL0     C30837   6.359   5.260   2.308 -0.4554 -0.2136 -0.1961
  229MOL0     C30838   6.256   5.343   2.274 -0.5060  0.2995  0.1364
  229MOL0     O30839   6.257   5.453   2.195  1.4581  0.1798  0.0110
  229MOL0     C30840   6.359   5.548   2.238 -0.0710 -0.3997 -0.4717
  229MOL0     C30841   6.325   5.604   2.375 -0.4550  0.1070 -0.4644
  229MOL0     C30842   6.258   5.739   2.373  0.1981 -0.1086 -0.1260
  229MOL0     C30843   6.116   5.747   2.306 -0.4167 -0.3381 -0.5463
  229MOL0     C30844   6.050   5.867   2.357 -0.2518 -0.3648  0.9942
  229MOL0     C30845   5.990   5.966   2.394  0.0534  0.6303  0.3794
  229MOL0     C30846   6.126   5.312   2.312 -0.1001  0.4751  0.4384
  229MOL0     C30847   6.110   5.195   2.396 -0.7569  0.8311 -0.7967
  229MOL0     H30848   6.177   4.735   2.387  2.0858  5.1353  2.1636
  229MOL0     H30849   6.190   4.495   2.405  1.5999  2.0690 -1.4695
  229MOL0     H30850   6.444   4.303   2.723 -0.4607  0.8472 -0.0380
  229MOL0     H30851   6.285   4.317   2.804  1.6554  1.4383  1.3105
  229MOL0     H30852   6.225   4.091   2.701  1.3632  0.1190 -1.6855
  229MOL0     H30853   6.374   4.073   2.629 -1.6963  0.0014 -1.3586
  229MOL0     H30854   6.489   4.109   2.855 -0.4410  0.0424 -0.2326
  229MOL0     H30855   6.335   4.138   2.931 -2.9008  1.4657 -1.9144
  229MOL0     H30856   6.433   3.866   2.807 -0.8704 -0.3180 -0.3921
  229MOL0     H30857   6.434   3.903   2.986  0.2766  1.3712  0.5444
  229MOL0     H30858   6.203   3.951   2.984 -0.0406 -1.0272 -0.4429
  229MOL0     H30859   6.202   3.908   2.807  0.7548  0.4224 -1.4000
  229MOL0     H30860   6.112   3.719   2.913 -0.8892  1.5283  0.4524
  229MOL0     H30861   6.274   3.668   2.874  0.0653 -1.9178  2.2366
  229MOL0     H30862   6.356   3.715   3.096  0.5827  0.2689 -1.6825
  229MOL0     H30863   6.205   3.790   3.145 -0.9724  1.0926 -1.0503
  229MOL0     H30864   6.216   3.598   3.253  3.2830 -1.1795 -0.2810
  229MOL0     H30865   6.242   3.497   3.120 -3.0338 -0.5320  1.1499
  229MOL0     H30866   6.010   3.475   2.957 -0.0683  0.3352 -2.0752
  229MOL0     H30867   5.700   3.600   2.940 -0.6362  0.0178  0.9300
  229MOL0     H30868   5.727   3.434   2.935  1.3141  0.5457 -0.0274
  229MOL0     H30869   5.605   3.546   3.193  3.6024  0.4659  0.5087
  229MOL0     H30870   5.596   3.385   3.135  2.3908  0.1136 -0.2844
  229MOL0     H30871   5.439   3.465   2.948 -0.5710  0.2608 -0.6570
  229MOL0     H30872   5.466   3.629   3.020  2.9827 -0.0407  1.4755
  229MOL0     H30873   5.344   3.559   3.217  2.3716 -1.7920  0.8082
  229MOL0     H30874   5.359   3.397   3.157  0.8801 -0.8328 -0.5180
  229MOL0     H30875   5.028   3.538   2.894 -1.2116 -1.5656 -0.9680
  229MOL0     H30876   4.692   3.535   2.929  1.2634  1.2257  2.1017
  229MOL0     H30877   4.818   3.520   2.812 -1.5982  1.2140 -0.1174
  229MOL0     H30878   4.732   3.373   2.867  1.8066 -1.7829  0.1254
  229MOL0     H30879   4.654   3.364   3.576  0.1018  0.6163  0.0776
  229MOL0     H30880   4.476   3.225   3.711 -0.9178  1.0866 -0.6053
  229MOL0     H30881   4.360   2.866   3.501  3.8657  1.8138 -2.0823
  229MOL0     H30882   4.486   2.889   3.612 -0.3058 -0.1150 -1.1430
  229MOL0     H30883   4.315   2.861   3.798  1.8227  1.0682  0.4692
  229MOL0     H30884   4.185   2.843   3.681 -1.1407  0.3406  3.2356
  229MOL0     H30885   4.427   2.665   3.727  0.3525  0.9329 -0.3845
  229MOL0     H30886   4.317   2.659   3.583 -0.9621  0.1010  0.6832
  229MOL0     H30887   4.263   2.595   3.877 -2.9024 -0.8901  0.8360
  229MOL0     H30888   4.133   2.652   3.775  1.0080  0.6857  1.1880
  229MOL0     H30889   4.327   2.407   3.731 -0.2278  0.3016 -1.9049
  229MOL0     H30890   4.186   2.441   3.625 -0.3299  0.9152 -0.2643
  229MOL0     H30891   4.146   2.390   3.908 -0.7250  4.1619 -0.8879
  229MOL0     H30892   4.031   2.402   3.777  0.3388  0.6741 -0.3581
  229MOL0     H30893   4.244   2.186   3.818 -0.1922 -1.4934 -0.7492
  229MOL0     H30894   4.156   2.197   3.667  2.4970 -1.5142  0.1586
  229MOL0     H30895   3.952   2.167   3.818  0.8027  0.8214 -1.6279
  229MOL0     H30896   4.071   2.155   3.953  2.7551  0.6223 -1.1719
  229MOL0     H30897   4.388   3.023   3.335  4.0931 -1.5458 -2.4979
  229MOL0     H30898   4.548   3.153   3.226 -3.4023 -0.9960 -1.2843
  229MOL0     H30899   4.939   3.330   3.335 -0.2803 -1.5393 -0.9927
  229MOL0     H30900   5.149   3.430   3.289 -0.6920  4.8128  0.5591
  229MOL0     H30901   6.371   4.533   2.795 -0.7448  1.2243  0.6440
  229MOL0     H30902   6.391   4.779   2.735 -0.8387  0.3433 -0.1744
  229MOL0     H30903   6.440   5.094   2.423  0.1511 -0.0306 -1.7128
  229MOL0     H30904   6.462   5.281   2.284 -0.0780  0.0734  1.4929
  229MOL0     H30905   6.453   5.493   2.234 -0.7812 -1.5574 -2.0014
  229MOL0     H30906   6.376   5.629   2.166 -1.7472  0.2399 -0.2004
  229MOL0     H30907   6.424   5.600   2.421 -0.9330  1.2991  0.7342
  229MOL0     H30908   6.262   5.536   2.433  0.1897 -0.0386  0.0719
  229MOL0     H30909   6.321   5.809   2.318  1.4808 -0.0017  1.4102
  229MOL0     H30910   6.256   5.782   2.474  0.2928 -1.5430  0.5111
  229MOL0     H30911   6.056   5.658   2.326  0.6650 -0.7152  1.2316
  229MOL0     H30912   6.130   5.759   2.198 -0.3812  3.8708 -0.2500
  229MOL0     H30913   5.941   6.059   2.414 -1.2737 -0.2989  1.6459
  229MOL0     H30914   6.030   5.356   2.290  1.4113  3.2511 -0.9984
  229MOL0     H30915   6.011   5.159   2.419 -0.3723  1.7711  3.0030
  230MOL0     O30916   6.591   1.575   2.096 -0.0058 -0.1845 -0.2746
  230MOL0     C30917   6.671   1.501   2.052  0.1809  0.4893  0.6832
  230MOL0     O30918   6.688   1.376   2.095  0.4069 -0.3515 -0.4572
  230MOL0     C30919   6.609   1.335   2.201 -0.9473  0.4329  0.2868
  230MOL0     C30920   6.503   1.256   2.177 -0.0461 -0.0851  0.4451
  230MOL0     C30921   6.417   1.221   2.291  0.1146  0.6601  0.1287
  230MOL0     C30922   6.449   1.257   2.418 -0.1379  0.0301  0.0463
  230MOL0     O30923   6.371   1.210   2.518 -0.1898  0.0247  0.8100
  230MOL0     C30924   6.431   1.208   2.655  0.6266 -0.0200 -0.2143
  230MOL0     C30925   6.323   1.172   2.753 -0.3093  0.2975 -0.2950
  230MOL0     C30926   6.217   1.284   2.767 -0.8491 -0.7431  0.4551
  230MOL0     C30927   6.103   1.249   2.868  0.6115 -1.0851  1.1691
  230MOL0     C30928   5.991   1.350   2.855 -0.2583  0.3201 -0.7658
  230MOL0     C30929   5.887   1.351   2.974 -0.2883  0.7655 -0.3613
  230MOL0     C30930   5.784   1.232   2.971 -0.0141 -0.4914 -0.4340
  230MOL0     C30931   5.669   1.254   3.076 -0.1605  0.1553  0.1642
  230MOL0     N30932   5.570   1.140   3.060  0.0096 -0.3576  0.3400
  230MOL0     C30933   5.559   1.034   3.142  0.7863 -0.0409  0.4907
  230MOL0     C30934   5.429   0.994   3.131 -0.1726 -0.7629  0.2521
  230MOL0     C30935   5.347   0.885   3.204 -0.6396 -0.6565 -0.1294
  230MOL0     C30936   5.254   0.809   3.107  0.0361  0.0578 -0.1087
  230MOL0     C30937   5.172   0.700   3.173 -0.2386 -0.5492  0.3266
  230MOL0     C30938   5.078   0.776   3.273 -0.0326 -0.2731  0.4463
  230MOL0     O30939   4.948   0.722   3.275  0.8346  0.9017  0.3193
  230MOL0     C30940   4.925   0.591   3.316 -0.5636  0.5797  0.4554
  230MOL0     C30941   5.023   0.511   3.387  0.6857 -0.2385 -1.0433
  230MOL0     C30942   5.010   0.375   3.423  0.6421  0.5533  1.0096
  230MOL0     C30943   5.125   0.308   3.486  1.0232 -0.0015  0.0298
  230MOL0     C30944   4.883   0.314   3.390 -0.0625 -0.4828 -0.1951
  230MOL0     C30945   4.847   0.175   3.435  0.2149  0.0909  0.0574
  230MOL0     O30946   4.720   0.133   3.404  0.2921 -0.5182 -0.2092
  230MOL0     C30947   4.676   0.011   3.452 -0.4002 -0.2816 -0.0661
  230MOL0     C30948   4.582  -0.044   3.365  0.3967 -0.1111  0.0363
  230MOL0     C30949   4.501  -0.155   3.399  0.5958 -0.4161 -0.6357
  230MOL0     C30950   4.526  -0.223   3.519 -0.6962 -0.9098 -0.8429
  230MOL0     O30951   4.460  -0.340   3.551  0.3745 -0.0575 -0.0430
  230MOL0     C30952   4.482  -0.423   3.660 -0.0513 -0.1870 -0.1418
  230MOL0     C30953   4.434  -0.566   3.635  0.3385  0.0068 -0.2140
  230MOL0     C30954   4.287  -0.592   3.610  0.2007  0.5339 -0.6474
  230MOL0     C30955   4.198  -0.540   3.726 -0.1151 -0.1589 -0.6264
  230MOL0     C30956   4.051  -0.582   3.713 -1.4770  0.1346 -0.3077
  230MOL0     C30957   3.988  -0.511   3.593  0.7115  0.7231 -0.3128
  230MOL0     C30958   3.839  -0.546   3.576  0.9112 -0.1053  0.3075
  230MOL0     C30959   3.808  -0.692   3.542  0.2055 -0.0272 -0.7522
  230MOL0    Cl30960   3.634  -0.729   3.518  0.3042  0.7298 -0.4836
  230MOL0     C30961   4.622  -0.163   3.608 -0.6150 -0.5100 -0.1148
  230MOL0     C30962   4.703  -0.051   3.573 -1.1177 -0.1237  0.2012
  230MOL0     O30963   4.932   0.110   3.503  0.3018  0.6326 -0.7856
  230MOL0     C30964   4.784   0.390   3.326  0.4168 -0.4137 -0.3073
  230MOL0     C30965   4.804   0.527   3.286  0.3552 -0.8164  0.1676
  230MOL0     N30966   5.362   1.068   3.039 -0.2163 -0.0690  0.1910
  230MOL0     N30967   5.450   1.154   2.996  0.0823 -0.2211 -0.9524
  230MOL0     C30968   6.568   1.328   2.435  0.3575 -0.0763  0.0677
  230MOL0     C30969   6.655   1.364   2.329  0.1414  0.5034 -0.5940
  230MOL0     C30970   6.771   1.550   1.948 -0.0634  0.7137  0.4591
  230MOL0     C30971   6.892   1.491   1.914 -0.0149  0.0540  0.0509
  230MOL0     C30972   6.972   1.549   1.810 -0.5885  0.2519 -0.6657
  230MOL0     C30973   6.929   1.650   1.730 -0.6537  0.1372  0.6968
  230MOL0     O30974   7.015   1.699   1.632  0.1630  0.4262 -0.8250
  230MOL0     C30975   7.133   1.765   1.695  0.4417  1.0782  0.4099
  230MOL0     C30976   7.117   1.918   1.696  0.0618 -1.4476 -0.4850
  230MOL0     C30977   7.224   1.984   1.785  0.4225  0.4859 -0.1781
  230MOL0     C30978   7.371   1.972   1.731 -0.4678  0.1772 -0.1070
  230MOL0     C30979   7.382   2.034   1.598  0.3395 -0.0516 -0.6217
  230MOL0     C30980   7.364   2.091   1.491  0.9941  0.6030 -0.6215
  230MOL0     C30981   6.808   1.704   1.758  0.8210  0.1543 -0.4780
  230MOL0     C30982   6.737   1.663   1.875 -0.3229 -0.4957  0.2659
  230MOL0     H30983   6.489   1.232   2.072  1.2440  2.6867 -0.4589
  230MOL0     H30984   6.337   1.148   2.288 -1.2213  2.0309  1.0694
  230MOL0     H30985   6.516   1.140   2.660  0.8144  0.0797 -1.6870
  230MOL0     H30986   6.475   1.304   2.682  1.4551 -0.1617 -1.0188
  230MOL0     H30987   6.291   1.076   2.710 -0.0364 -0.2874  0.7745
  230MOL0     H30988   6.365   1.152   2.852 -1.7744  1.9399  0.7175
  230MOL0     H30989   6.272   1.376   2.791 -1.2458 -0.5951  0.8126
  230MOL0     H30990   6.163   1.308   2.674  0.4196  2.2503  0.3562
  230MOL0     H30991   6.063   1.149   2.846  0.6025 -1.0182  0.8795
  230MOL0     H30992   6.148   1.239   2.967  2.1200 -2.0698  0.4300
  230MOL0     H30993   6.033   1.451   2.849  1.2828 -0.2939 -0.6465
  230MOL0     H30994   5.945   1.335   2.757  0.7745  1.7047 -1.4951
  230MOL0     H30995   5.940   1.348   3.070 -1.1684 -1.7779  0.1261
  230MOL0     H30996   5.831   1.444   2.966  3.7417  3.5583  0.6528
  230MOL0     H30997   5.740   1.225   2.871 -2.5674 -0.1819  0.5910
  230MOL0     H30998   5.836   1.137   2.983  1.5388  0.2153 -1.2447
  230MOL0     H30999   5.627   1.353   3.055 -0.1818  0.5558  1.9407
  230MOL0     H31000   5.714   1.260   3.175  2.3470 -1.0070 -0.8129
  230MOL0     H31001   5.633   0.993   3.210  1.0407 -0.2107  0.1175
  230MOL0     H31002   5.420   0.812   3.240  0.2962 -1.4622 -3.3351
  230MOL0     H31003   5.296   0.942   3.282  1.0753 -0.2904  0.7815
  230MOL0     H31004   5.322   0.760   3.037  3.4124  0.3411  2.6951
  230MOL0     H31005   5.191   0.882   3.057  0.7104  0.9428  0.3027
  230MOL0     H31006   5.247   0.634   3.218  0.9495  0.7807  0.3438
  230MOL0     H31007   5.115   0.642   3.099  1.5628  1.1066 -2.5956
  230MOL0     H31008   5.071   0.875   3.226  1.9632  0.3449  1.3322
  230MOL0     H31009   5.117   0.793   3.374 -1.7713  0.8168  0.9787
  230MOL0     H31010   5.109   0.565   3.425  0.3030  0.1598 -0.7295
  230MOL0     H31011   5.147   0.209   3.445  1.1366  0.8290 -2.0343
  230MOL0     H31012   5.210   0.374   3.466  0.6025  0.0644 -1.6288
  230MOL0     H31013   5.090   0.303   3.590 -2.9314  3.3712 -0.8895
  230MOL0     H31014   4.567  -0.003   3.265 -3.1116 -0.6072  0.2187
  230MOL0     H31015   4.425  -0.184   3.326 -0.3642  0.8447 -0.1757
  230MOL0     H31016   4.589  -0.440   3.671 -0.2711 -0.9662  1.0167
  230MOL0     H31017   4.442  -0.370   3.747  1.4576  1.9433 -0.6777
  230MOL0     H31018   4.497  -0.603   3.553  2.5249 -0.0565  1.3952
  230MOL0     H31019   4.468  -0.627   3.719 -0.5116 -0.8468 -0.4725
  230MOL0     H31020   4.270  -0.700   3.606 -2.4347  0.8058  1.0141
  230MOL0     H31021   4.262  -0.549   3.513  0.6115  1.3312 -0.4087
  230MOL0     H31022   4.237  -0.573   3.823 -1.7389 -0.2271  0.0469
  230MOL0     H31023   4.211  -0.431   3.729 -1.6399  0.0274  1.1240
  230MOL0     H31024   3.997  -0.562   3.806 -1.9418 -1.9360 -0.0905
  230MOL0     H31025   4.066  -0.689   3.697  3.0913  0.8006 -2.1903
  230MOL0     H31026   4.001  -0.402   3.598 -2.0766  1.0676  1.6847
  230MOL0     H31027   4.028  -0.557   3.502 -0.6991  0.1765 -0.6854
  230MOL0     H31028   3.807  -0.470   3.505 -1.3713  0.2896  1.6632
  230MOL0     H31029   3.775  -0.538   3.664  0.0486 -0.6805 -0.2546
  230MOL0     H31030   3.852  -0.757   3.618 -0.4103  0.9640  0.4972
  230MOL0     H31031   3.864  -0.713   3.451  0.3681  0.9399 -0.8827
  230MOL0     H31032   4.639  -0.214   3.703 -1.5572 -2.9199 -1.1676
  230MOL0     H31033   4.770  -0.006   3.647  1.4410 -2.9040 -0.2030
  230MOL0     H31034   4.682   0.361   3.303  0.1430  0.4079 -0.1749
  230MOL0     H31035   4.734   0.580   3.223  0.5122 -0.1159  0.5731
  230MOL0     H31036   6.611   1.360   2.529  0.9845  1.8481 -0.8145
  230MOL0     H31037   6.745   1.424   2.338  0.8490 -0.6058  0.0947
  230MOL0     H31038   6.933   1.404   1.964  1.8030  0.4102 -0.7474
  230MOL0     H31039   7.072   1.515   1.786  0.2608 -0.1386  2.8378
  230MOL0     H31040   7.171   1.714   1.785 -0.5796 -2.1020 -0.8443
  230MOL0     H31041   7.217   1.754   1.626  0.2857  0.5872  0.2963
  230MOL0     H31042   7.022   1.953   1.737  0.5618 -1.1295  0.4354
  230MOL0     H31043   7.129   1.965   1.598 -0.6934  1.0409  0.5527
  230MOL0     H31044   7.205   1.960   1.890 -1.0064  0.4631 -0.4308
  230MOL0     H31045   7.198   2.090   1.778 -2.0864 -0.1214 -1.1178
  230MOL0     H31046   7.413   1.871   1.732 -0.1894  0.2693 -1.2251
  230MOL0     H31047   7.443   2.031   1.790 -2.8266  2.8926  0.2829
  230MOL0     H31048   7.345   2.148   1.402 -0.6164  1.7001  0.3662
  230MOL0     H31049   6.773   1.784   1.694  1.6175 -1.2048 -2.7346
  230MOL0     H31050   6.644   1.707   1.911 -1.3461 -2.8177  0.6960
  231MOL0     O31051   2.049   0.663   4.522 -0.0645  0.6196 -0.7834
  231MOL0     C31052   2.147   0.704   4.585 -0.6228  0.0623 -0.0240
  231MOL0     O31053   2.172   0.686   4.714  0.5731  0.2555  0.2031
  231MOL0     C31054   2.083   0.599   4.778  0.0840  0.1557  1.4695
  231MOL0     C31055   2.120   0.462   4.760 -0.7190  0.4457  0.1576
  231MOL0     C31056   2.036   0.364   4.816 -0.3703 -0.7270 -0.4028
  231MOL0     C31057   1.921   0.397   4.893 -0.3093 -0.5168  0.6261
  231MOL0     O31058   1.831   0.308   4.939  0.3623  0.0407  0.3472
  231MOL0     C31059   1.861   0.281   5.079 -0.6204 -0.0642  0.4480
  231MOL0     C31060   1.727   0.240   5.150 -1.0565 -0.2958  0.4707
  231MOL0     C31061   1.632   0.359   5.128 -0.1894 -0.5239 -0.7506
  231MOL0     C31062   1.534   0.362   5.256  0.8800  0.7006  0.0784
  231MOL0     C31063   1.437   0.481   5.231  0.6327  0.3917  0.1250
  231MOL0     C31064   1.324   0.432   5.141  0.3305  0.0531  0.6204
  231MOL0     C31065   1.271   0.545   5.053  0.1570  0.1994  0.2985
  231MOL0     C31066   1.130   0.505   4.997  0.3326 -0.1328 -0.7955
  231MOL0     N31067   1.030   0.609   5.023  0.2456  0.1937 -0.4828
  231MOL0     C31068   0.959   0.635   5.147 -0.1398  0.9113  0.3554
  231MOL0     C31069   0.890   0.747   5.122 -0.5509 -0.6508 -0.1420
  231MOL0     C31070   0.821   0.836   5.221 -0.6979 -0.4582  0.2609
  231MOL0     C31071   0.684   0.775   5.246 -0.3784 -0.2684 -0.4826
  231MOL0     C31072   0.602   0.878   5.321  0.0347 -0.7790 -0.1122
  231MOL0     C31073   0.653   0.917   5.455  0.1949  0.4177 -0.3804
  231MOL0     O31074   0.557   0.989   5.544 -1.0400  0.6787 -0.0420
  231MOL0     C31075   0.466   0.928   5.617  0.6505  0.7153  0.0248
  231MOL0     C31076   0.434   0.796   5.596  0.2922 -0.0874  0.6408
  231MOL0     C31077   0.325   0.743   5.670 -0.9354  0.4109  0.3741
  231MOL0     C31078   0.284   0.602   5.639  0.0544  0.4609  1.5377
  231MOL0     C31079   0.249   0.834   5.756 -0.0086  0.3478  0.1475
  231MOL0     C31080   0.126   0.790   5.829 -0.2946  0.3970  1.1359
  231MOL0     O31081   0.042   0.708   5.755  0.1206 -0.3630 -0.3491
  231MOL0     C31082  -0.090   0.688   5.798  0.0597  0.0350  0.8349
  231MOL0     C31083  -0.156   0.764   5.896 -0.0744  1.3385 -0.2984
  231MOL0     C31084  -0.277   0.716   5.949 -0.0362 -0.1703  0.4643
  231MOL0     C31085  -0.340   0.599   5.891 -0.6720  0.1232 -0.5129
  231MOL0     O31086  -0.448   0.540   5.949 -0.0757  0.0143  0.1190
  231MOL0     C31087  -0.460   0.527   6.093  1.2088  0.6763  0.3139
  231MOL0     C31088  -0.615   0.533   6.117  0.3133  0.9065 -0.0176
  231MOL0     C31089  -0.666   0.404   6.190  0.5873 -0.2633 -0.3494
  231MOL0     C31090  -0.822   0.421   6.216  0.5302  0.2103 -0.6858
  231MOL0     C31091  -0.869   0.292   6.289 -0.8391  0.6241  0.1965
  231MOL0     C31092  -1.014   0.278   6.271 -0.0693 -0.3774 -0.0289
  231MOL0     C31093  -1.075   0.145   6.304  0.4066 -0.0189 -0.3474
  231MOL0     C31094  -1.229   0.141   6.281  0.3089 -0.5030  0.1968
  231MOL0    Cl31095  -1.305   0.291   6.363 -0.1959  0.3192 -0.1961
  231MOL0     C31096  -0.286   0.539   5.775 -0.4179  0.4800  0.2128
  231MOL0     C31097  -0.161   0.586   5.737  0.2461  0.3864  0.0226
  231MOL0     O31098   0.111   0.826   5.944  0.1552 -0.6667  0.1893
  231MOL0     C31099   0.298   0.963   5.783  0.6328 -0.3433 -0.1357
  231MOL0     C31100   0.402   1.010   5.712 -0.6994  0.2889 -0.1881
  231MOL0     N31101   0.924   0.787   4.989  0.0872 -0.1055  0.1282
  231MOL0     N31102   1.001   0.702   4.934  0.4022 -0.7063  0.0301
  231MOL0     C31103   1.889   0.532   4.900 -0.0762  0.2731 -0.2567
  231MOL0     C31104   1.976   0.637   4.862 -0.0250 -0.2946 -0.0057
  231MOL0     C31105   2.249   0.772   4.497  0.3469  0.7581  0.3732
  231MOL0     C31106   2.378   0.814   4.553 -0.9291 -0.4387 -0.3139
  231MOL0     C31107   2.466   0.886   4.471 -0.2198 -0.5825  0.8608
  231MOL0     C31108   2.424   0.939   4.342  0.3801  0.2150 -0.6364
  231MOL0     O31109   2.489   1.033   4.274 -0.2064 -0.5637  0.8338
  231MOL0     C31110   2.622   1.068   4.319 -0.0927  0.0235  0.2143
  231MOL0     C31111   2.692   1.155   4.218 -0.5530 -0.3734 -0.5273
  231MOL0     C31112   2.816   1.203   4.277  0.3971  0.2268  0.7353
  231MOL0     C31113   2.893   1.276   4.168  0.0106 -0.4952  0.2851
  231MOL0     C31114   3.017   1.341   4.218  0.1324 -0.8949  0.7415
  231MOL0     C31115   3.126   1.377   4.252  0.8205 -0.5909 -1.0521
  231MOL0     C31116   2.304   0.900   4.288  0.8524  0.2250  0.5811
  231MOL0     C31117   2.221   0.809   4.360 -0.1532  0.2943 -0.4236
  231MOL0     H31118   2.213   0.443   4.707  1.1257  1.7731  2.7206
  231MOL0     H31119   2.068   0.263   4.795  1.2783 -0.1922 -0.6597
  231MOL0     H31120   1.928   0.195   5.087  3.1469  2.6440  0.3675
  231MOL0     H31121   1.902   0.357   5.145  0.5847 -1.6946  1.6528
  231MOL0     H31122   1.702   0.149   5.095  2.6119  0.4334 -2.9158
  231MOL0     H31123   1.744   0.212   5.254  0.2377 -1.9327 -0.1367
  231MOL0     H31124   1.684   0.455   5.123 -1.1880  0.5256  4.3279
  231MOL0     H31125   1.568   0.340   5.041 -0.2086  2.1221 -1.3757
  231MOL0     H31126   1.475   0.270   5.252  0.3135  1.0372  0.4278
  231MOL0     H31127   1.582   0.368   5.354  1.4946  0.7298 -0.2249
  231MOL0     H31128   1.390   0.508   5.326 -0.2025  2.3529 -0.7836
  231MOL0     H31129   1.484   0.571   5.189 -0.4650  0.1764 -1.6820
  231MOL0     H31130   1.338   0.343   5.079  1.7178  1.1556 -0.7298
  231MOL0     H31131   1.249   0.399   5.213  1.1449 -1.1103  0.9575
  231MOL0     H31132   1.261   0.639   5.107  2.0523 -0.0048  1.0992
  231MOL0     H31133   1.344   0.577   4.978  1.8784  0.5772  2.0431
  231MOL0     H31134   1.097   0.417   5.053 -0.6064  0.6223 -0.1314
  231MOL0     H31135   1.147   0.482   4.891 -0.7582  0.3886 -1.1026
  231MOL0     H31136   0.974   0.581   5.240 -0.0908  2.2722  1.1686
  231MOL0     H31137   0.869   0.848   5.319 -2.2817  2.1807  0.8056
  231MOL0     H31138   0.812   0.936   5.178 -0.5538  0.1675  1.6271
  231MOL0     H31139   0.705   0.685   5.305  0.6082  1.3413  1.7512
  231MOL0     H31140   0.623   0.769   5.155 -0.9248 -1.0121 -0.0822
  231MOL0     H31141   0.504   0.831   5.335  0.0535 -0.1547  2.8186
  231MOL0     H31142   0.590   0.969   5.262  0.3434 -2.1772 -2.4372
  231MOL0     H31143   0.740   0.983   5.457  0.7869 -0.1752 -2.8661
  231MOL0     H31144   0.693   0.826   5.501  2.1811  1.1306 -0.6013
  231MOL0     H31145   0.486   0.721   5.537 -1.9256 -1.2299  0.0329
  231MOL0     H31146   0.372   0.537   5.638 -0.2624  0.0324  1.2935
  231MOL0     H31147   0.222   0.558   5.717 -3.7321  2.2447 -0.1703
  231MOL0     H31148   0.230   0.593   5.544  2.5724 -4.1823  0.2492
  231MOL0     H31149  -0.119   0.861   5.928 -2.9953  3.1102 -1.7694
  231MOL0     H31150  -0.339   0.765   6.023 -3.6720  0.0732 -2.4738
  231MOL0     H31151  -0.408   0.436   6.124  1.1244 -0.5322 -2.7028
  231MOL0     H31152  -0.417   0.611   6.147 -0.6183  1.1672  1.1091
  231MOL0     H31153  -0.634   0.617   6.184 -0.5866  0.7611 -0.0894
  231MOL0     H31154  -0.672   0.549   6.026  2.3658  0.3700 -1.4791
  231MOL0     H31155  -0.617   0.401   6.288  0.6112 -2.3236 -0.3820
  231MOL0     H31156  -0.641   0.310   6.139 -2.5970 -0.6155 -1.4607
  231MOL0     H31157  -0.843   0.508   6.278 -1.2166 -0.9049  0.3895
  231MOL0     H31158  -0.868   0.431   6.117 -0.1239 -1.4076 -0.5860
  231MOL0     H31159  -0.856   0.303   6.397  1.0935  0.8265 -0.0158
  231MOL0     H31160  -0.816   0.203   6.254  2.8534  3.7997 -3.4234
  231MOL0     H31161  -1.059   0.363   6.322  4.6513  2.1255  0.4595
  231MOL0     H31162  -1.045   0.298   6.168 -4.8603 -1.9162  0.8376
  231MOL0     H31163  -1.063   0.118   6.409  0.9668 -2.5341 -0.9969
  231MOL0     H31164  -1.022   0.063   6.255 -3.4237 -2.9731  0.0015
  231MOL0     H31165  -1.262   0.038   6.301  1.9512 -1.0721  0.1773
  231MOL0     H31166  -1.250   0.152   6.174 -1.7742  0.6965  0.6931
  231MOL0     H31167  -0.326   0.443   5.742 -0.9601  0.8332 -0.1624
  231MOL0     H31168  -0.108   0.542   5.653  0.2330 -1.6894  1.0559
  231MOL0     H31169   0.254   1.025   5.861  2.0310 -1.4186  1.5846
  231MOL0     H31170   0.452   1.101   5.743  0.2004 -0.2362 -0.0433
  231MOL0     H31171   1.791   0.571   4.926  0.4693  2.4817 -1.2715
  231MOL0     H31172   1.953   0.743   4.867 -0.3101 -0.3782  0.4873
  231MOL0     H31173   2.395   0.785   4.656 -2.4981 -2.6357 -0.5923
  231MOL0     H31174   2.564   0.906   4.513  0.8878 -0.9400 -1.3840
  231MOL0     H31175   2.620   1.122   4.414  1.3025 -0.1061  0.3380
  231MOL0     H31176   2.686   0.980   4.327  1.0952  0.9974  2.0941
  231MOL0     H31177   2.630   1.244   4.207  1.2505  0.8867 -0.8115
  231MOL0     H31178   2.716   1.115   4.118 -0.0360  1.0474 -0.9876
  231MOL0     H31179   2.876   1.123   4.321  0.8597 -1.2044 -2.2701
  231MOL0     H31180   2.802   1.279   4.355 -1.1020 -0.8908  1.6153
  231MOL0     H31181   2.827   1.341   4.109  0.2670 -1.1967 -0.8005
  231MOL0     H31182   2.932   1.209   4.091 -1.9316 -0.3978 -0.8553
  231MOL0     H31183   3.217   1.428   4.277  1.0293 -1.5963  0.3179
  231MOL0     H31184   2.267   0.926   4.189 -0.8364 -2.1420  0.5180
  231MOL0     H31185   2.128   0.778   4.313 -0.6310  0.7798  0.1944
  232MOL0     O31186   9.935   1.770  10.425  0.7314  0.5566 -0.1281
  232MOL0     C31187   9.919   1.891  10.455 -0.2630 -0.0456 -0.2551
  232MOL0     O31188   9.811   1.948  10.530 -0.2569 -0.5163 -0.1673
  232MOL0     C31189   9.707   1.860  10.551 -0.4948 -0.1452 -0.2381
  232MOL0     C31190   9.652   1.853  10.674  0.4937 -0.2837  0.7873
  232MOL0     C31191   9.548   1.758  10.700  0.1448  0.0555  0.9226
  232MOL0     C31192   9.490   1.681  10.597  0.0833 -0.2086 -0.4297
  232MOL0     O31193   9.384   1.596  10.602 -1.3173 -0.5885  0.0520
  232MOL0     C31194   9.356   1.539  10.735  0.0641  0.2195 -0.2742
  232MOL0     C31195   9.325   1.388  10.725 -0.6573 -0.5037 -0.1232
  232MOL0     C31196   9.285   1.320  10.851  0.1650 -0.4097 -0.7495
  232MOL0     C31197   9.272   1.165  10.835 -0.5878  0.0525 -0.6815
  232MOL0     C31198   9.227   1.121  10.979 -0.4919  0.2130  0.0024
  232MOL0     C31199   9.143   1.002  10.956 -0.2429  0.5666 -0.1405
  232MOL0     C31200   9.082   0.944  11.081  1.0780  0.3749 -0.1212
  232MOL0     C31201   9.011   0.806  11.068 -0.3369  0.2365  0.0747
  232MOL0     N31202   8.884   0.817  10.993  0.0536 -0.2622  0.6931
  232MOL0     C31203   8.751   0.807  11.031  0.0067  0.0017 -0.2296
  232MOL0     C31204   8.670   0.812  10.923  0.3886 -0.9126 -0.1199
  232MOL0     C31205   8.522   0.794  10.917  0.6256  0.3386 -0.0634
  232MOL0     C31206   8.457   0.802  11.059  0.2001 -0.2699  0.8582
  232MOL0     C31207   8.444   0.951  11.110 -0.1191  0.7201 -0.3502
  232MOL0     C31208   8.311   1.012  11.063 -0.1384  0.4280  0.5070
  232MOL0     O31209   8.201   0.938  11.112  0.0483 -0.1052  0.2749
  232MOL0     C31210   8.076   0.972  11.063 -0.2227 -0.4132  0.1998
  232MOL0     C31211   7.981   0.872  11.079 -0.2029  0.1842  0.6156
  232MOL0     C31212   7.846   0.889  11.016  0.3968 -0.9169 -0.0681
  232MOL0     C31213   7.750   0.773  11.033 -0.2188 -0.7555  0.3148
  232MOL0     C31214   7.809   1.012  10.959  1.2451  0.0129  0.2781
  232MOL0     C31215   7.679   1.039  10.892  0.0186  0.5864 -0.2925
  232MOL0     O31216   7.651   1.168  10.872 -0.1252  0.2382 -0.1187
  232MOL0     C31217   7.524   1.203  10.847 -0.9104 -0.3445 -0.3751
  232MOL0     C31218   7.498   1.244  10.716  0.2674 -0.5230  0.0812
  232MOL0     C31219   7.373   1.282  10.681 -0.7739  0.2820 -0.2962
  232MOL0     C31220   7.269   1.294  10.785  0.3775 -0.2675  0.1386
  232MOL0     O31221   7.139   1.335  10.747 -0.8170  0.8767 -0.4353
  232MOL0     C31222   7.100   1.461  10.798  0.0097  0.4219  0.4066
  232MOL0     C31223   7.054   1.533  10.676  0.0566  0.2466  0.3169
  232MOL0     C31224   6.913   1.484  10.634  0.0740  0.6350  0.5721
  232MOL0     C31225   6.881   1.539  10.500  0.2897 -0.3386 -0.4464
  232MOL0     C31226   6.867   1.697  10.492 -0.1894 -0.1076 -0.5059
  232MOL0     C31227   6.788   1.747  10.365 -0.9422  0.3162 -0.1858
  232MOL0     C31228   6.783   1.904  10.348  0.1083  0.1405 -0.3627
  232MOL0     C31229   6.647   1.941  10.283 -0.2781 -1.0700  0.0942
  232MOL0    Cl31230   6.631   2.112  10.253  0.3124  0.0507  0.0567
  232MOL0     C31231   7.292   1.239  10.912 -0.5601  0.0077 -0.1724
  232MOL0     C31232   7.422   1.196  10.942  0.0765 -0.0076 -0.0949
  232MOL0     O31233   7.602   0.946  10.866 -0.1850 -0.3532 -0.7524
  232MOL0     C31234   7.894   1.109  10.954 -0.5599 -1.3247 -0.4934
  232MOL0     C31235   8.024   1.092  11.001 -0.2347 -1.1546 -0.0677
  232MOL0     N31236   8.757   0.829  10.815  0.3368 -0.2992 -0.6790
  232MOL0     N31237   8.876   0.831  10.853  0.6496  1.0101  1.0884
  232MOL0     C31238   9.540   1.697  10.464 -0.2109  1.0126  0.5794
  232MOL0     C31239   9.654   1.784  10.445 -0.4241 -0.1306  0.1006
  232MOL0     C31240  10.020   1.988  10.417  0.6583  0.8933 -0.3877
  232MOL0     C31241  10.139   1.940  10.340 -0.0826  0.0362  0.0877
  232MOL0     C31242  10.237   2.035  10.311  0.0449  0.7804  0.0546
  232MOL0     C31243  10.243   2.159  10.372  0.0025 -0.0312  0.2117
  232MOL0     O31244  10.345   2.252  10.358 -0.4677 -0.0839  0.4454
  232MOL0     C31245  10.474   2.205  10.356 -0.8372  0.7751  0.0854
  232MOL0     C31246  10.540   2.221  10.221  0.5962 -0.6762  0.0170
  232MOL0     C31247  10.692   2.197  10.223 -0.7685  0.2446 -0.2710
  232MOL0     C31248  10.781   2.283  10.121  0.1013 -0.3994  0.6874
  232MOL0     C31249  10.755   2.423  10.127  0.2254 -0.2744  0.0611
  232MOL0     C31250  10.732   2.545  10.125 -0.3256 -0.8399  0.5195
  232MOL0     C31251  10.119   2.201  10.443 -0.3439 -0.2134  1.0000
  232MOL0     C31252  10.009   2.119  10.454  0.1616  0.6941  0.4654
  232MOL0     H31253   9.698   1.916  10.749  1.5478 -0.3867  0.2436
  232MOL0     H31254   9.516   1.739  10.802  1.5485  1.9905  1.7714
  232MOL0     H31255   9.433   1.551  10.811 -1.5452 -1.8595  1.8566
  232MOL0     H31256   9.264   1.587  10.770 -0.5147 -0.9176 -0.1979
  232MOL0     H31257   9.251   1.380  10.644  0.1900 -2.1183 -0.7668
  232MOL0     H31258   9.416   1.337  10.693  0.3667  0.3264  1.3623
  232MOL0     H31259   9.358   1.330  10.932 -0.4355 -0.4440 -0.1916
  232MOL0     H31260   9.190   1.368  10.877 -0.4916 -1.5807 -0.9529
  232MOL0     H31261   9.194   1.150  10.760 -0.1858 -0.9891 -0.9044
  232MOL0     H31262   9.359   1.106  10.805 -1.7462 -1.5514 -1.0045
  232MOL0     H31263   9.314   1.099  11.041 -0.7552 -1.8825 -0.3151
  232MOL0     H31264   9.180   1.208  11.026  2.8652  1.1980  1.9431
  232MOL0     H31265   9.062   1.035  10.889 -0.8877  0.2869  0.4951
  232MOL0     H31266   9.199   0.925  10.901 -1.5802  1.5984 -3.2161
  232MOL0     H31267   9.161   0.930  11.156  1.6846 -0.4497 -0.8894
  232MOL0     H31268   9.000   1.000  11.126 -0.5824 -2.2154  0.3052
  232MOL0     H31269   8.974   0.766  11.163  1.5138 -2.9349 -0.3965
  232MOL0     H31270   9.075   0.730  11.022 -0.3974  0.0894  0.2379
  232MOL0     H31271   8.720   0.788  11.134  2.2745  0.2259  0.5397
  232MOL0     H31272   8.480   0.869  10.850  2.4531 -2.8569 -5.4130
  232MOL0     H31273   8.499   0.699  10.867  2.9989 -0.1953 -0.2317
  232MOL0     H31274   8.517   0.745  11.131 -0.1480 -2.3422 -0.4077
  232MOL0     H31275   8.361   0.750  11.057  0.6119 -1.2320 -3.2527
  232MOL0     H31276   8.524   1.012  11.068  1.5768 -1.7634 -0.9667
  232MOL0     H31277   8.442   0.953  11.219 -0.8887  0.0045 -0.3330
  232MOL0     H31278   8.308   1.020  10.954 -1.0235  0.2160  0.5113
  232MOL0     H31279   8.320   1.109  11.113  2.0433 -1.5165  4.3962
  232MOL0     H31280   8.011   0.780  11.127 -0.2236  0.0109  0.2976
  232MOL0     H31281   7.653   0.815  11.063  0.3801  1.8746 -1.1891
  232MOL0     H31282   7.734   0.710  10.945 -0.1247 -0.2740 -0.0502
  232MOL0     H31283   7.787   0.712  11.116 -1.7990 -1.2028  0.7416
  232MOL0     H31284   7.581   1.249  10.645  0.6291 -1.6584  0.4164
  232MOL0     H31285   7.342   1.307  10.581 -3.6402 -4.6818 -0.9566
  232MOL0     H31286   7.017   1.453  10.869  0.7203 -0.1089  1.2005
  232MOL0     H31287   7.178   1.523  10.845 -0.4227 -0.6539  2.6857
  232MOL0     H31288   7.058   1.642  10.685  1.0850  0.3283 -0.8988
  232MOL0     H31289   7.120   1.508  10.593  2.7141  2.0711  1.7325
  232MOL0     H31290   6.832   1.501  10.706 -0.2207  0.1031  0.3767
  232MOL0     H31291   6.917   1.375  10.621 -1.9299  0.1011  3.4546
  232MOL0     H31292   6.949   1.512  10.420  1.9240  5.0571 -1.2433
  232MOL0     H31293   6.782   1.511  10.464 -0.9909  2.5093  0.5350
  232MOL0     H31294   6.970   1.735  10.487 -0.6646  1.0490 -2.5199
  232MOL0     H31295   6.821   1.730  10.585  1.5747  0.3210  0.2467
  232MOL0     H31296   6.849   1.710  10.281  0.2409  1.5176  0.1086
  232MOL0     H31297   6.687   1.705  10.364 -1.8138  2.2224  1.3376
  232MOL0     H31298   6.872   1.944  10.300 -0.0555  2.3379  0.9967
  232MOL0     H31299   6.786   1.945  10.450 -0.7791 -2.2599  0.6947
  232MOL0     H31300   6.569   1.910  10.354  1.0992 -1.2484  1.5759
  232MOL0     H31301   6.635   1.878  10.195 -2.3777 -1.0863  0.3303
  232MOL0     H31302   7.205   1.236  10.977 -0.8896 -0.4738 -0.6244
  232MOL0     H31303   7.434   1.155  11.042 -3.1575 -1.2754 -0.1247
  232MOL0     H31304   7.876   1.205  10.905 -2.7719 -0.7801  1.2032
  232MOL0     H31305   8.095   1.175  11.001  0.2927 -1.6004 -0.8843
  232MOL0     H31306   9.494   1.643  10.383 -0.9067  2.6863 -0.1981
  232MOL0     H31307   9.690   1.790  10.343 -2.7908  1.4417 -0.7226
  232MOL0     H31308  10.148   1.841  10.296 -1.1367  0.9740 -2.4488
  232MOL0     H31309  10.323   2.012  10.249  0.0599  2.1917 -0.4893
  232MOL0     H31310  10.525   2.256  10.439  0.7998 -1.1237  0.3279
  232MOL0     H31311  10.486   2.099  10.381  3.1548  0.7492 -1.1879
  232MOL0     H31312  10.526   2.320  10.175  2.3481 -1.2050 -1.7743
  232MOL0     H31313  10.496   2.154  10.147 -3.3661  2.4514 -0.7903
  232MOL0     H31314  10.710   2.089  10.221 -4.0133 -0.4189  0.5838
  232MOL0     H31315  10.711   2.231  10.325 -2.1977  1.6457 -0.4376
  232MOL0     H31316  10.756   2.241  10.023  0.5567 -0.2718  0.5175
  232MOL0     H31317  10.886   2.263  10.141  0.2535  0.6963  1.0159
  232MOL0     H31318  10.709   2.649  10.114 -1.9929 -1.1851  0.5449
  232MOL0     H31319  10.106   2.302  10.480 -0.4469  0.4084 -0.6548
  232MOL0     H31320   9.923   2.156  10.508 -0.5033 -0.8940  0.5594
  233MOL0     O31321   4.648   7.639   3.515  0.3837  0.0241 -0.0934
  233MOL0     C31322   4.723   7.645   3.415 -0.1938  0.2379  0.2098
  233MOL0     O31323   4.684   7.628   3.280  0.4326 -0.8854 -0.1628
  233MOL0     C31324   4.547   7.616   3.262 -0.1331  0.4136  0.0247
  233MOL0     C31325   4.451   7.714   3.303 -0.2498 -0.0597 -0.7776
  233MOL0     C31326   4.315   7.688   3.292  0.0547  0.0584  0.0728
  233MOL0     C31327   4.266   7.571   3.237 -0.5843 -0.5723 -0.9022
  233MOL0     O31328   4.128   7.544   3.220 -0.0361 -0.1123 -0.5684
  233MOL0     C31329   4.034   7.612   3.312 -0.3269  0.3368  0.2588
  233MOL0     C31330   3.897   7.572   3.274  0.4244  0.9475 -0.0037
  233MOL0     C31331   3.786   7.662   3.327 -0.3665  0.6623  0.1403
  233MOL0     C31332   3.650   7.609   3.339  0.5612  0.8545 -0.3135
  233MOL0     C31333   3.598   7.583   3.193  0.2014 -0.0201 -0.4237
  233MOL0     C31334   3.453   7.532   3.170 -0.6088  0.2257 -0.1482
  233MOL0     C31335   3.346   7.634   3.188  0.0221 -0.9880 -0.3585
  233MOL0     C31336   3.212   7.597   3.116  0.3543 -0.5004  0.0127
  233MOL0     N31337   3.121   7.719   3.129  0.1362 -0.1710  0.1438
  233MOL0     C31338   3.106   7.812   3.026  0.4035  0.5485  0.5234
  233MOL0     C31339   3.001   7.886   3.063  0.6178 -0.2977 -0.0605
  233MOL0     C31340   2.947   7.997   2.976  0.2853 -0.1202 -0.9825
  233MOL0     C31341   3.053   8.112   2.962  0.7743  0.5522 -0.6746
  233MOL0     C31342   3.084   8.187   3.087 -0.0675 -0.1321 -0.1179
  233MOL0     C31343   2.975   8.222   3.193 -1.0619  0.3987 -0.0710
  233MOL0     O31344   2.873   8.289   3.109  0.5115  0.2152 -0.4697
  233MOL0     C31345   2.752   8.335   3.176 -0.0253 -0.1604  0.0543
  233MOL0     C31346   2.735   8.317   3.311 -0.0070  0.2580  0.5146
  233MOL0     C31347   2.622   8.377   3.374  0.0187  0.3459 -0.2656
  233MOL0     C31348   2.596   8.333   3.518  0.1842  0.0734 -1.0387
  233MOL0     C31349   2.529   8.449   3.298  0.5792 -0.1042  0.1962
  233MOL0     C31350   2.410   8.521   3.346 -0.1591  0.6636 -0.0317
  233MOL0     O31351   2.318   8.556   3.246 -0.0690 -0.7116 -0.7652
  233MOL0     C31352   2.204   8.623   3.281 -0.4260 -0.4098  0.7010
  233MOL0     C31353   2.080   8.562   3.252  0.8243 -0.8226 -0.4364
  233MOL0     C31354   1.964   8.632   3.302 -0.3711  0.5697 -0.2524
  233MOL0     C31355   1.972   8.763   3.352  0.5335 -0.0733  0.1180
  233MOL0     O31356   1.866   8.836   3.387 -0.1850 -0.6348  0.2474
  233MOL0     C31357   1.751   8.769   3.448 -0.1377  0.1270 -0.3045
  233MOL0     C31358   1.669   8.888   3.514  0.4701  0.3175 -0.2059
  233MOL0     C31359   1.553   8.827   3.602 -0.3416 -0.2627  0.7347
  233MOL0     C31360   1.483   8.940   3.677  0.8201  0.3634 -0.7327
  233MOL0     C31361   1.350   8.895   3.741 -0.2897  0.1361 -0.0970
  233MOL0     C31362   1.292   9.009   3.822  0.2492 -0.5893  0.0225
  233MOL0     C31363   1.216   8.969   3.942  0.5737 -0.4244 -0.8263
  233MOL0     C31364   1.088   8.887   3.902  0.0473 -0.2463  0.0685
  233MOL0    Cl31365   0.987   8.853   4.045 -0.2691  0.1669  0.4271
  233MOL0     C31366   2.093   8.821   3.360 -0.5065 -0.7136 -0.4780
  233MOL0     C31367   2.209   8.758   3.323 -0.2631 -0.7003 -1.2383
  233MOL0     O31368   2.397   8.531   3.467 -0.3155  0.0175 -0.4613
  233MOL0     C31369   2.554   8.458   3.162  0.4383  0.2795  0.2277
  233MOL0     C31370   2.662   8.410   3.097 -0.0523  0.7694  0.7770
  233MOL0     N31371   2.952   7.833   3.182  0.5191  0.1521 -0.8281
  233MOL0     N31372   3.020   7.737   3.222 -1.1568  0.5186  1.1251
  233MOL0     C31373   4.358   7.474   3.186 -0.0955  0.4343 -0.3192
  233MOL0     C31374   4.496   7.499   3.198  0.6924  0.4973 -0.1392
  233MOL0     C31375   4.870   7.666   3.442  0.9032  0.4523  0.2500
  233MOL0     C31376   4.961   7.615   3.338 -1.3040 -0.1784 -0.3963
  233MOL0     C31377   5.095   7.644   3.355  0.1240  0.1334 -0.5333
  233MOL0     C31378   5.147   7.694   3.472  0.3882  0.2653  0.2088
  233MOL0     O31379   5.285   7.700   3.493 -0.0697 -0.5640  0.2712
  233MOL0     C31380   5.391   7.714   3.395 -0.7851  0.8970 -0.2800
  233MOL0     C31381   5.465   7.582   3.360  0.0849  0.6468  0.2460
  233MOL0     C31382   5.562   7.581   3.238 -0.6700 -0.8528 -0.3729
  233MOL0     C31383   5.655   7.706   3.233 -0.2994  0.2708  0.2061
  233MOL0     C31384   5.741   7.696   3.112  0.2936  0.0808  0.7484
  233MOL0     C31385   5.823   7.685   3.022 -0.3302 -0.4415  0.7127
  233MOL0     C31386   5.062   7.725   3.582  1.0253 -0.4480  0.6166
  233MOL0     C31387   4.920   7.715   3.562  0.0311  0.1732 -0.1350
  233MOL0     H31388   4.489   7.804   3.350 -2.5401 -0.2098  1.5862
  233MOL0     H31389   4.241   7.762   3.322  1.3186 -0.3719  5.3828
  233MOL0     H31390   4.060   7.581   3.414  1.7334  0.2025 -0.2720
  233MOL0     H31391   4.042   7.721   3.313  0.8982  0.2715 -0.8378
  233MOL0     H31392   3.901   7.569   3.165  1.2621 -1.0561  0.0346
  233MOL0     H31393   3.879   7.471   3.312 -1.6919  0.5421 -1.8746
  233MOL0     H31394   3.832   7.688   3.423 -1.0265 -1.3035  1.0515
  233MOL0     H31395   3.787   7.753   3.266  1.0556  2.1607  2.2472
  233MOL0     H31396   3.644   7.514   3.392 -1.0842 -0.7751 -3.1347
  233MOL0     H31397   3.580   7.676   3.391  1.2518  0.8946  0.5911
  233MOL0     H31398   3.616   7.671   3.132  0.4858  0.6870  0.6464
  233MOL0     H31399   3.646   7.495   3.149 -1.7048 -1.1374 -0.4147
  233MOL0     H31400   3.450   7.504   3.064  0.4336 -0.6608  0.0296
  233MOL0     H31401   3.439   7.449   3.241 -0.1442  1.3121  1.2608
  233MOL0     H31402   3.325   7.643   3.295  1.7945  5.0607 -0.1695
  233MOL0     H31403   3.385   7.731   3.155 -0.1412 -0.3235  1.2927
  233MOL0     H31404   3.170   7.512   3.171  1.3718 -1.2621 -0.3450
  233MOL0     H31405   3.225   7.582   3.008  1.3826  2.3267 -0.3284
  233MOL0     H31406   3.169   7.831   2.939 -1.0662  3.0353 -0.1092
  233MOL0     H31407   2.930   7.958   2.875 -0.9632  0.7426 -1.1302
  233MOL0     H31408   2.853   8.037   3.014  1.4866  2.3020 -0.3182
  233MOL0     H31409   3.014   8.183   2.889 -0.9176  1.3051  0.8821
  233MOL0     H31410   3.152   8.073   2.935  0.8768 -0.6416  1.1854
  233MOL0     H31411   3.121   8.286   3.058 -2.2662  0.9799  0.6105
  233MOL0     H31412   3.165   8.126   3.128  1.5479  1.9816  0.0105
  233MOL0     H31413   3.011   8.274   3.282 -1.0638 -1.8167  1.3049
  233MOL0     H31414   2.934   8.133   3.242 -0.4799  1.1246  1.8035
  233MOL0     H31415   2.802   8.248   3.361  4.4940  1.1457 -3.5188
  233MOL0     H31416   2.612   8.415   3.588 -1.7520 -0.3640 -0.0058
  233MOL0     H31417   2.495   8.295   3.539  0.6804  0.4183  2.3940
  233MOL0     H31418   2.667   8.259   3.555 -2.0186 -0.7057  2.0109
  233MOL0     H31419   2.085   8.460   3.216  2.6172 -0.9897  0.2238
  233MOL0     H31420   1.864   8.591   3.290 -0.0680 -1.7915  3.5836
  233MOL0     H31421   1.685   8.715   3.379  0.6908 -1.5310  0.1541
  233MOL0     H31422   1.789   8.701   3.525  0.1238 -0.4841 -0.9605
  233MOL0     H31423   1.738   8.955   3.567 -2.1141  3.4036 -0.4986
  233MOL0     H31424   1.619   8.937   3.430 -0.3840  0.4954  0.3962
  233MOL0     H31425   1.598   8.749   3.665  0.3166 -1.2239 -0.8598
  233MOL0     H31426   1.486   8.770   3.537 -1.9354  0.0539  2.0297
  233MOL0     H31427   1.542   9.005   3.742  1.1254 -0.3521 -0.2810
  233MOL0     H31428   1.454   9.008   3.596  0.4415  1.2618  0.1382
  233MOL0     H31429   1.374   8.818   3.815  3.8685  1.2449 -0.0636
  233MOL0     H31430   1.280   8.848   3.671  0.8249 -0.1837 -1.0326
  233MOL0     H31431   1.372   9.074   3.860 -0.7835  0.2574  0.8166
  233MOL0     H31432   1.226   9.065   3.756 -1.8574 -2.4307  0.4679
  233MOL0     H31433   1.174   9.051   4.001  0.1232 -1.0872 -0.2084
  233MOL0     H31434   1.262   8.913   4.024 -0.7221 -1.4633 -0.7706
  233MOL0     H31435   1.113   8.788   3.864  0.6435 -1.1848  2.7039
  233MOL0     H31436   1.030   8.938   3.825  1.7882 -1.5954 -2.2887
  233MOL0     H31437   2.099   8.916   3.412 -0.5435 -1.6388  1.2886
  233MOL0     H31438   2.308   8.796   3.343 -0.9082 -0.3097  1.7034
  233MOL0     H31439   2.488   8.509   3.093 -1.5326 -1.5104  0.6920
  233MOL0     H31440   2.684   8.427   2.992  0.8171 -0.3956  0.7579
  233MOL0     H31441   4.318   7.378   3.154  1.4566  0.0015 -1.0922
  233MOL0     H31442   4.560   7.428   3.147  0.4679  0.0797  0.1524
  233MOL0     H31443   4.908   7.574   3.253 -3.0226  2.9737 -0.9910
  233MOL0     H31444   5.165   7.618   3.276  1.2309  0.6927  0.2288
  233MOL0     H31445   5.343   7.749   3.303 -0.7218 -0.8254 -1.0134
  233MOL0     H31446   5.473   7.782   3.420  1.4743 -1.5993 -0.3787
  233MOL0     H31447   5.390   7.503   3.353 -0.8709  1.5687 -0.4212
  233MOL0     H31448   5.531   7.551   3.442  3.6598  1.6063 -2.0679
  233MOL0     H31449   5.500   7.574   3.148  1.0814  0.3724 -1.7485
  233MOL0     H31450   5.619   7.488   3.243 -0.9361 -1.0586 -1.0771
  233MOL0     H31451   5.725   7.712   3.317 -1.2635  0.0708  1.0535
  233MOL0     H31452   5.598   7.799   3.233  0.3933  0.7004  0.2488
  233MOL0     H31453   5.884   7.671   2.935  4.1251 -0.7612  3.5488
  233MOL0     H31454   5.103   7.762   3.675  0.2081 -1.0433  1.2409
  233MOL0     H31455   4.864   7.737   3.652 -0.6943 -1.5308 -0.1205
  234MOL0     O31456   6.619   5.005   7.268 -0.2785  0.2879 -0.6278
  234MOL0     C31457   6.670   4.893   7.243  0.4701  1.0764 -0.8965
  234MOL0     O31458   6.602   4.778   7.202  0.3993 -0.0814 -0.1282
  234MOL0     C31459   6.471   4.768   7.232  0.0408  0.5321 -0.4028
  234MOL0     C31460   6.420   4.649   7.165 -0.0215  0.2192  0.3245
  234MOL0     C31461   6.297   4.593   7.196  0.1829  0.2594  0.6312
  234MOL0     C31462   6.213   4.666   7.271  0.0577  0.0125 -0.7072
  234MOL0     O31463   6.090   4.607   7.297  0.3615 -0.4624  0.1659
  234MOL0     C31464   5.983   4.703   7.332  0.0256  0.5078 -0.9411
  234MOL0     C31465   5.861   4.625   7.329  0.2393  0.1186 -0.0545
  234MOL0     C31466   5.861   4.493   7.390 -0.3308  0.5813  0.5012
  234MOL0     C31467   5.713   4.431   7.383 -0.1562  0.1821  0.7981
  234MOL0     C31468   5.708   4.330   7.495 -0.3149 -0.3052 -0.0738
  234MOL0     C31469   5.583   4.241   7.462  0.7454  0.1995 -0.3563
  234MOL0     C31470   5.542   4.157   7.581 -0.5515  0.6032  0.2154
  234MOL0     C31471   5.456   4.245   7.674 -0.9882  0.4102  0.6015
  234MOL0     N31472   5.327   4.275   7.626 -0.8578  0.7587  0.3407
  234MOL0     C31473   5.266   4.393   7.625  0.4576  0.5305 -0.0339
  234MOL0     C31474   5.136   4.368   7.602 -0.0209  0.5566 -0.8487
  234MOL0     C31475   5.025   4.464   7.594  0.3232  0.9739 -0.6849
  234MOL0     C31476   5.048   4.572   7.705  0.1176 -0.1709  0.5946
  234MOL0     C31477   4.958   4.686   7.676  0.5697 -0.3374 -0.7835
  234MOL0     C31478   4.806   4.666   7.692 -0.8632  0.3165 -0.2946
  234MOL0     O31479   4.782   4.621   7.827  1.4240  0.8917  0.6916
  234MOL0     C31480   4.647   4.580   7.856 -0.1818 -0.6567 -1.3035
  234MOL0     C31481   4.637   4.479   7.952 -0.2301 -0.2293 -0.0136
  234MOL0     C31482   4.517   4.417   7.995 -0.4546  0.0295  0.5083
  234MOL0     C31483   4.524   4.331   8.112  0.6672  0.2931 -0.7773
  234MOL0     C31484   4.396   4.465   7.933  0.7715 -0.3993 -0.7618
  234MOL0     C31485   4.260   4.423   7.981  0.4934 -1.3003  0.6024
  234MOL0     O31486   4.155   4.508   7.964 -0.4513 -0.4204  0.6900
  234MOL0     C31487   4.039   4.473   8.017 -0.0896 -0.2377 -0.3419
  234MOL0     C31488   3.918   4.499   7.947  0.5001  0.2998  0.5328
  234MOL0     C31489   3.791   4.461   7.996  0.6615  0.3039 -0.3436
  234MOL0     C31490   3.777   4.397   8.117 -1.0266  1.0227 -0.0145
  234MOL0     O31491   3.659   4.337   8.158  0.3427 -0.5819 -0.2492
  234MOL0     C31492   3.540   4.398   8.096  0.9875  0.8096  0.0894
  234MOL0     C31493   3.409   4.334   8.152  0.1160 -0.5685  0.3949
  234MOL0     C31494   3.353   4.397   8.273 -0.3883  0.4462  0.5957
  234MOL0     C31495   3.238   4.322   8.342 -0.1384 -0.6202 -0.6782
  234MOL0     C31496   3.104   4.304   8.272 -0.0663  0.5242  0.4870
  234MOL0     C31497   3.030   4.436   8.249 -0.5012  0.0274  0.2569
  234MOL0     C31498   2.962   4.484   8.379  0.1586 -0.2358  0.4347
  234MOL0     C31499   2.912   4.629   8.368 -1.2182  0.3907 -0.3976
  234MOL0    Cl31500   2.832   4.675   8.519 -0.2296  0.0579  0.4048
  234MOL0     C31501   3.889   4.385   8.203 -0.3865 -0.4082 -0.1947
  234MOL0     C31502   4.017   4.421   8.147 -0.2451 -0.1235  0.1942
  234MOL0     O31503   4.250   4.311   8.024 -0.0399 -0.0125  0.6972
  234MOL0     C31504   4.411   4.574   7.844  0.6715  0.2395  0.3048
  234MOL0     C31505   4.530   4.622   7.805 -0.2026  0.7351  0.0602
  234MOL0     N31506   5.119   4.232   7.582 -0.6564  0.0087 -0.3663
  234MOL0     N31507   5.234   4.179   7.595 -0.9047 -0.3851 -0.0002
  234MOL0     C31508   6.259   4.786   7.344  1.0140  1.0632 -0.1587
  234MOL0     C31509   6.389   4.833   7.322 -0.6994 -0.2494  0.2222
  234MOL0     C31510   6.811   4.875   7.280 -0.3989 -0.3829 -0.7816
  234MOL0     C31511   6.875   4.965   7.371  0.4050  0.2169  0.1879
  234MOL0     C31512   7.011   4.971   7.378  0.1076 -0.5187 -0.5383
  234MOL0     C31513   7.088   4.878   7.311 -0.3051  0.1638  0.2666
  234MOL0     O31514   7.220   4.896   7.322 -0.2558 -0.3017  0.4916
  234MOL0     C31515   7.316   4.808   7.247  0.1298 -0.1162 -0.4704
  234MOL0     C31516   7.464   4.826   7.308  0.3641  0.5420  0.3319
  234MOL0     C31517   7.459   4.840   7.458  0.3579 -0.0462  0.4669
  234MOL0     C31518   7.602   4.807   7.515  0.6295 -0.2821 -0.1163
  234MOL0     C31519   7.683   4.923   7.554 -0.8233 -0.2819  0.4055
  234MOL0     C31520   7.735   5.031   7.570 -0.5537 -0.4334 -0.3571
  234MOL0     C31521   7.035   4.780   7.234 -0.0859  0.8241  0.1713
  234MOL0     C31522   6.898   4.777   7.223  0.6849  0.3359  0.9194
  234MOL0     H31523   6.492   4.598   7.101  0.6359 -0.7401  1.7662
  234MOL0     H31524   6.280   4.494   7.156  0.9936  0.6634 -0.7919
  234MOL0     H31525   5.995   4.744   7.433 -2.0751  0.8644 -0.7908
  234MOL0     H31526   5.972   4.792   7.269 -0.7295  0.7586 -0.4754
  234MOL0     H31527   5.783   4.683   7.379  1.2791  2.5874 -1.1251
  234MOL0     H31528   5.827   4.620   7.225 -1.7467  1.3058  0.4763
  234MOL0     H31529   5.938   4.429   7.346 -0.6075 -0.0882  0.9848
  234MOL0     H31530   5.902   4.498   7.491 -1.0373 -1.9126  0.9643
  234MOL0     H31531   5.631   4.504   7.383  0.4046  0.8510 -0.7192
  234MOL0     H31532   5.708   4.386   7.283  0.5385  1.7272  0.0391
  234MOL0     H31533   5.804   4.279   7.492 -0.1448  0.0648 -1.3770
  234MOL0     H31534   5.692   4.374   7.594 -1.7030 -2.5882  0.7816
  234MOL0     H31535   5.501   4.299   7.418  2.6741  3.0852 -0.4224
  234MOL0     H31536   5.615   4.170   7.385 -1.4512 -0.1279 -1.0254
  234MOL0     H31537   5.493   4.065   7.547 -0.5709  1.4252 -2.2064
  234MOL0     H31538   5.633   4.133   7.637  1.4913  0.9542 -2.7317
  234MOL0     H31539   5.510   4.338   7.696  1.3246 -0.5522 -0.7553
  234MOL0     H31540   5.431   4.178   7.757  0.8794 -0.4008  0.5525
  234MOL0     H31541   5.314   4.490   7.632  0.9186  0.3636 -0.8101
  234MOL0     H31542   5.010   4.498   7.491 -0.6684  3.0395  0.0892
  234MOL0     H31543   4.932   4.414   7.622  1.3138  0.7573  2.5857
  234MOL0     H31544   5.149   4.613   7.698 -0.0401  0.2565  0.8210
  234MOL0     H31545   5.025   4.536   7.805  2.4001  0.9830  1.5995
  234MOL0     H31546   4.972   4.731   7.577  0.2149  3.4887  0.7258
  234MOL0     H31547   4.984   4.763   7.750 -0.5635  1.3261 -2.0646
  234MOL0     H31548   4.768   4.598   7.616 -0.5930 -0.1075 -0.0522
  234MOL0     H31549   4.766   4.761   7.654  1.2825  0.2878 -2.9704
  234MOL0     H31550   4.730   4.449   7.998 -0.5953 -0.5139  0.5533
  234MOL0     H31551   4.440   4.356   8.177 -0.6143  1.2593 -2.7058
  234MOL0     H31552   4.516   4.226   8.082 -4.8138  0.5748 -1.2848
  234MOL0     H31553   4.620   4.336   8.164  0.5512 -2.2999 -0.1730
  234MOL0     H31554   3.913   4.544   7.849 -2.3540 -0.2472  0.3501
  234MOL0     H31555   3.699   4.490   7.947 -0.2012  1.4740  1.8469
  234MOL0     H31556   3.534   4.507   8.090 -0.2142  0.8098  0.9039
  234MOL0     H31557   3.536   4.370   7.991 -0.8293 -0.6910  0.5143
  234MOL0     H31558   3.335   4.327   8.072  1.1653 -2.1962 -0.4720
  234MOL0     H31559   3.425   4.226   8.160 -3.2739 -1.3374 -1.2204
  234MOL0     H31560   3.312   4.496   8.252 -2.2093 -0.0711  1.4298
  234MOL0     H31561   3.439   4.405   8.339  0.1451  0.6921 -0.1217
  234MOL0     H31562   3.297   4.230   8.355  1.5031  0.1998 -1.9289
  234MOL0     H31563   3.213   4.351   8.445 -0.8585 -2.0795 -0.4066
  234MOL0     H31564   3.045   4.228   8.323 -1.6256  0.9283 -0.6532
  234MOL0     H31565   3.131   4.272   8.171 -0.5526 -1.1996  0.8748
  234MOL0     H31566   3.102   4.507   8.209  0.5552 -1.3933 -0.4688
  234MOL0     H31567   2.945   4.413   8.183 -1.7777  4.3792  0.0969
  234MOL0     H31568   3.028   4.477   8.466  0.0396  0.0656  0.5489
  234MOL0     H31569   2.880   4.416   8.403 -1.2205  0.8195 -1.0654
  234MOL0     H31570   2.832   4.633   8.294  1.3240 -2.6364 -3.7184
  234MOL0     H31571   2.992   4.698   8.340 -2.1842  2.5333  1.7988
  234MOL0     H31572   3.887   4.333   8.298  1.5469  2.3406  1.4933
  234MOL0     H31573   4.103   4.394   8.208  0.1340 -2.1149 -1.1157
  234MOL0     H31574   4.321   4.610   7.795  1.0782 -0.4446 -0.9940
  234MOL0     H31575   4.526   4.677   7.712 -0.3085  0.2314 -0.2369
  234MOL0     H31576   6.188   4.845   7.402  0.3749  1.0512 -0.8987
  234MOL0     H31577   6.426   4.926   7.363  1.0741 -0.8262  0.0243
  234MOL0     H31578   6.820   5.036   7.432  0.0708 -0.3549  0.5530
  234MOL0     H31579   7.059   5.045   7.441 -0.4021  0.6442 -1.4644
  234MOL0     H31580   7.292   4.702   7.247 -0.7649  0.0601  0.6734
  234MOL0     H31581   7.313   4.842   7.143 -2.1779  0.0005 -0.4267
  234MOL0     H31582   7.495   4.923   7.270  2.2923  1.1771  3.2023
  234MOL0     H31583   7.536   4.749   7.281  2.5218  1.5317  2.8688
  234MOL0     H31584   7.385   4.775   7.504  0.7399  0.4849  1.8934
  234MOL0     H31585   7.432   4.943   7.484  0.4521 -0.4869  2.4795
  234MOL0     H31586   7.659   4.751   7.440  0.2134  0.5938 -1.1098
  234MOL0     H31587   7.590   4.737   7.598  3.3356 -1.8588 -0.9256
  234MOL0     H31588   7.786   5.120   7.603  1.2397 -1.1525 -1.0741
  234MOL0     H31589   7.102   4.726   7.168  0.0097 -0.9764  1.6587
  234MOL0     H31590   6.870   4.708   7.144  4.8628 -0.6021  0.0222
  235MOL0     O31591   8.883   9.970   7.709  0.2837 -0.1992  0.2335
  235MOL0     C31592   8.866   9.869   7.630  0.7052 -0.0121 -0.0887
  235MOL0     O31593   8.809   9.870   7.505  0.6759  0.1344 -0.8826
  235MOL0     C31594   8.763   9.994   7.463  0.0444  0.2512 -0.3507
  235MOL0     C31595   8.623  10.010   7.446  0.7367  0.6279  0.4466
  235MOL0     C31596   8.572  10.134   7.401 -0.8218 -0.5775  0.7310
  235MOL0     C31597   8.662  10.239   7.366  0.1149 -0.4478  0.1078
  235MOL0     O31598   8.601  10.353   7.314 -0.1117 -1.1414  0.8442
  235MOL0     C31599   8.593  10.467   7.401  0.4901  0.3834  0.1083
  235MOL0     C31600   8.477  10.454   7.505 -0.4404  0.0849  0.9495
  235MOL0     C31601   8.328  10.448   7.445  0.5229 -0.1159  0.1725
  235MOL0     C31602   8.266  10.589   7.455 -0.4305  0.8105  1.0414
  235MOL0     C31603   8.129  10.579   7.385  0.0518  0.0897 -0.0736
  235MOL0     C31604   8.039  10.696   7.418  1.0052 -0.3650 -0.4747
  235MOL0     C31605   7.916  10.721   7.320 -0.1103 -1.0225  0.6055
  235MOL0     C31606   7.840  10.842   7.381  0.5850 -0.2511 -0.5856
  235MOL0     N31607   7.739  10.900   7.288 -0.9937  0.5242 -0.6485
  235MOL0     C31608   7.602  10.909   7.312 -0.7042  0.6266 -0.2592
  235MOL0     C31609   7.552  10.965   7.196  0.9460 -0.2791  0.3014
  235MOL0     C31610   7.415  10.986   7.128 -0.4308 -0.7015  0.5582
  235MOL0     C31611   7.308  10.915   7.217 -0.1162 -0.0354 -0.1848
  235MOL0     C31612   7.156  10.922   7.185  0.3410 -0.1224  0.8225
  235MOL0     C31613   7.111  11.065   7.178 -0.6598 -0.8853  0.1893
  235MOL0     O31614   6.984  11.070   7.111 -0.3194 -0.0208  0.0072
  235MOL0     C31615   6.870  11.069   7.191  0.0407  0.9530 -0.4330
  235MOL0     C31616   6.759  11.100   7.126  0.7685 -0.0319  0.4690
  235MOL0     C31617   6.630  11.102   7.197 -0.2142 -0.2090  0.1581
  235MOL0     C31618   6.512  11.117   7.100  0.1931  0.0973  0.3532
  235MOL0     C31619   6.622  11.071   7.333  0.4684  0.1291  1.6214
  235MOL0     C31620   6.494  11.061   7.408  0.0449  0.1017 -0.6088
  235MOL0     O31621   6.509  11.023   7.539 -0.0645 -0.1252  0.2966
  235MOL0     C31622   6.398  11.024   7.619 -0.4674  0.1936  0.3101
  235MOL0     C31623   6.398  11.118   7.722 -0.6083  0.5839 -0.3376
  235MOL0     C31624   6.292  11.118   7.815 -0.2842 -0.4070  0.2234
  235MOL0     C31625   6.195  11.016   7.804  0.2165  0.9942 -0.5487
  235MOL0     O31626   6.083  11.028   7.875 -0.7454 -0.4481 -0.4612
  235MOL0     C31627   5.972  11.074   7.805 -0.0690 -0.7130 -0.4527
  235MOL0     C31628   5.882  11.135   7.910 -0.7614  0.0432 -0.0312
  235MOL0     C31629   5.755  11.198   7.851  0.3329 -0.7512 -0.3775
  235MOL0     C31630   5.779  11.339   7.803 -0.2695 -0.2501  0.2330
  235MOL0     C31631   5.648  11.397   7.750  0.2391 -0.9379 -0.2710
  235MOL0     C31632   5.670  11.541   7.687  1.6164  0.7855  0.6785
  235MOL0     C31633   5.540  11.580   7.621  0.0516  0.6223  0.1296
  235MOL0     C31634   5.535  11.736   7.613  0.5896  0.0045 -0.5481
  235MOL0    Cl31635   5.494  11.817   7.766  0.0470  0.1107 -0.2328
  235MOL0     C31636   6.204  10.918   7.698 -0.2093  0.0409 -0.8260
  235MOL0     C31637   6.317  10.916   7.611  0.4234 -0.3627  0.4138
  235MOL0     O31638   6.381  11.083   7.358 -1.0215  0.3751 -0.1589
  235MOL0     C31639   6.744  11.056   7.403  0.3360  0.1599 -0.2975
  235MOL0     C31640   6.858  11.048   7.333 -0.5204  0.1925 -0.5015
  235MOL0     N31641   7.668  10.997   7.113 -0.0621 -0.0850  0.9111
  235MOL0     N31642   7.772  10.958   7.165 -0.2648 -0.1702 -0.1067
  235MOL0     C31643   8.795  10.221   7.392  0.3416  0.0993  0.6580
  235MOL0     C31644   8.855  10.097   7.434 -0.0787 -0.7008 -0.3487
  235MOL0     C31645   8.919   9.740   7.674 -0.3762 -0.5343 -0.0016
  235MOL0     C31646   8.992   9.725   7.796  0.5884  0.2370  0.0161
  235MOL0     C31647   9.060   9.606   7.832 -0.0391 -0.5271  0.0030
  235MOL0     C31648   9.057   9.496   7.738  0.7065 -0.2628 -0.2248
  235MOL0     O31649   9.104   9.366   7.775  0.7188 -0.6059 -0.4668
  235MOL0     C31650   9.249   9.349   7.771  0.4030 -0.1647 -0.3890
  235MOL0     C31651   9.318   9.355   7.631 -1.1421 -0.1007 -0.3060
  235MOL0     C31652   9.466   9.380   7.636 -0.0420  0.2255 -0.4229
  235MOL0     C31653   9.552   9.255   7.681  0.1621 -0.8187  0.2530
  235MOL0     C31654   9.690   9.263   7.635 -0.0423  0.2751  0.0034
  235MOL0     C31655   9.813   9.268   7.620  0.2305 -0.5180 -0.9726
  235MOL0     C31656   8.985   9.513   7.620  0.1048 -0.0464  0.3174
  235MOL0     C31657   8.927   9.633   7.580  0.6263  0.6031  0.0524
  235MOL0     H31658   8.562   9.931   7.487 -2.6872  2.2549 -1.1155
  235MOL0     H31659   8.464  10.146   7.393 -0.7262  1.2253  1.6796
  235MOL0     H31660   8.686  10.501   7.449  1.1076  0.6786 -1.2417
  235MOL0     H31661   8.559  10.558   7.351 -0.3028 -0.2670 -0.5476
  235MOL0     H31662   8.501  10.365   7.564  2.0140  0.8263  1.2190
  235MOL0     H31663   8.485  10.545   7.565  0.0003 -0.6183  1.9936
  235MOL0     H31664   8.330  10.411   7.342  0.0081 -2.8992  1.0682
  235MOL0     H31665   8.259  10.380   7.496 -0.6214 -1.7932 -3.3462
  235MOL0     H31666   8.255  10.611   7.561 -0.9556 -1.7070  1.5769
  235MOL0     H31667   8.335  10.660   7.408  0.1450 -0.7851 -0.6572
  235MOL0     H31668   8.155  10.584   7.279 -0.5685 -0.9180 -0.2966
  235MOL0     H31669   8.084  10.480   7.396  0.1084 -0.0483 -0.9895
  235MOL0     H31670   8.000  10.667   7.515  0.3886  3.5119  0.5799
  235MOL0     H31671   8.101  10.784   7.438  0.2870 -0.0849  0.5800
  235MOL0     H31672   7.959  10.749   7.223  1.0026 -3.0050  0.4782
  235MOL0     H31673   7.857  10.630   7.309  1.1763 -1.7273 -0.7119
  235MOL0     H31674   7.909  10.926   7.400 -0.7297  0.7928 -0.2452
  235MOL0     H31675   7.781  10.811   7.468  0.1782  0.8312 -0.4493
  235MOL0     H31676   7.547  10.862   7.393  1.6366 -2.7278 -0.3595
  235MOL0     H31677   7.403  11.095   7.128  1.3860 -0.4553 -0.8029
  235MOL0     H31678   7.418  10.950   7.025  1.1015 -1.4021  0.8195
  235MOL0     H31679   7.326  10.965   7.312  1.9218  1.1230 -1.1207
  235MOL0     H31680   7.338  10.810   7.223 -2.8000 -1.0353 -2.2112
  235MOL0     H31681   7.095  10.865   7.256  0.4260  0.7169  1.5780
  235MOL0     H31682   7.151  10.873   7.087  1.0039 -1.1952  1.3113
  235MOL0     H31683   7.179  11.127   7.119  1.1494 -3.3198 -0.4359
  235MOL0     H31684   7.113  11.113   7.277  1.0778  2.5797 -1.3481
  235MOL0     H31685   6.754  11.121   7.020 -1.9055 -1.5032  0.2078
  235MOL0     H31686   6.470  11.215   7.127  0.2399  0.1074  0.3855
  235MOL0     H31687   6.551  11.133   6.999 -0.2527 -1.4919 -0.0947
  235MOL0     H31688   6.452  11.026   7.104  1.0578 -0.4446  2.1585
  235MOL0     H31689   6.470  11.199   7.730 -1.5731  1.3958  0.4668
  235MOL0     H31690   6.276  11.199   7.886  1.6456  0.9747 -0.8366
  235MOL0     H31691   6.007  11.155   7.740  1.3561 -2.0892 -1.4531
  235MOL0     H31692   5.922  10.997   7.745 -0.5448  0.7697 -2.0598
  235MOL0     H31693   5.848  11.053   7.974 -1.6396 -0.5314 -1.1849
  235MOL0     H31694   5.936  11.212   7.966 -0.5177  1.4351 -2.0687
  235MOL0     H31695   5.678  11.199   7.929  3.0379  0.3088  2.5085
  235MOL0     H31696   5.707  11.140   7.772  0.4997 -2.4467  0.7141
  235MOL0     H31697   5.817  11.397   7.887 -1.4807  0.3368  0.4084
  235MOL0     H31698   5.847  11.357   7.719 -2.5658 -0.5396 -1.8113
  235MOL0     H31699   5.560  11.399   7.815 -0.1412  0.9495 -0.7763
  235MOL0     H31700   5.634  11.333   7.662  4.0892 -1.9021 -0.3647
  235MOL0     H31701   5.710  11.617   7.754  0.9773  0.8937  0.9424
  235MOL0     H31702   5.746  11.528   7.609  0.0381 -1.1706 -0.6275
  235MOL0     H31703   5.453  11.544   7.677 -1.5608  1.7219 -1.5364
  235MOL0     H31704   5.551  11.539   7.520  1.0733 -2.7835  1.4878
  235MOL0     H31705   5.459  11.768   7.541 -1.2346  0.9439  1.6867
  235MOL0     H31706   5.633  11.767   7.576  1.5221 -2.7151 -0.6081
  235MOL0     H31707   6.126  10.842   7.694 -0.9932  0.8750 -1.8866
  235MOL0     H31708   6.320  10.849   7.526 -0.0556 -1.5289  1.2877
  235MOL0     H31709   6.749  11.034   7.509 -2.8886 -1.8596 -0.4237
  235MOL0     H31710   6.953  11.023   7.379 -0.0498 -0.7418 -1.9108
  235MOL0     H31711   8.857  10.307   7.369 -0.9704  0.8559 -0.1557
  235MOL0     H31712   8.960  10.072   7.438  0.2859  0.4109 -1.9036
  235MOL0     H31713   9.001   9.804   7.870  0.9122  0.5375 -0.3391
  235MOL0     H31714   9.100   9.608   7.933 -2.1776  0.3425  0.8960
  235MOL0     H31715   9.281   9.433   7.833 -0.2920  1.3439 -1.9870
  235MOL0     H31716   9.269   9.253   7.821  0.6645 -0.9740 -2.0004
  235MOL0     H31717   9.279   9.441   7.575 -0.1683  2.7714  3.0561
  235MOL0     H31718   9.289   9.261   7.583 -0.2946  0.3515 -1.7673
  235MOL0     H31719   9.473   9.458   7.713 -2.1629 -0.4700  0.5595
  235MOL0     H31720   9.503   9.409   7.537  2.1308 -0.0108  0.2752
  235MOL0     H31721   9.500   9.167   7.642 -1.9223  1.2327 -1.9927
  235MOL0     H31722   9.558   9.248   7.790  0.6588 -0.7198  0.2341
  235MOL0     H31723   9.917   9.286   7.599  0.0614  2.1418 -0.0042
  235MOL0     H31724   8.989   9.427   7.554  0.4196  1.5804 -1.9308
  235MOL0     H31725   8.880   9.637   7.482 -1.7988 -0.5813  1.0804
  236MOL0     O31726   0.089   8.103   8.487  0.0783 -0.6489 -0.0123
  236MOL0     C31727   0.089   8.116   8.369  0.3159 -0.2649  0.1784
  236MOL0     O31728  -0.024   8.170   8.305  0.5694 -0.2422 -0.3029
  236MOL0     C31729  -0.134   8.205   8.379 -0.1769 -0.0973  0.3197
  236MOL0     C31730  -0.254   8.200   8.311 -0.7273  1.5894 -0.6879
  236MOL0     C31731  -0.378   8.253   8.359 -0.5170  0.1644 -0.0881
  236MOL0     C31732  -0.375   8.316   8.479 -0.1625  0.1507  0.1369
  236MOL0     O31733  -0.489   8.368   8.534 -0.0551  0.4204 -0.0116
  236MOL0     C31734  -0.617   8.317   8.485 -0.3464 -0.2891 -0.5727
  236MOL0     C31735  -0.726   8.353   8.593 -0.7126 -0.8256  0.4868
  236MOL0     C31736  -0.868   8.324   8.549  0.1131  0.1887 -0.6521
  236MOL0     C31737  -0.934   8.444   8.498 -0.3276 -0.0061  1.1060
  236MOL0     C31738  -1.081   8.412   8.460  0.0380 -0.4093  0.2698
  236MOL0     C31739  -1.177   8.409   8.575  0.0860 -0.6740  0.3879
  236MOL0     C31740  -1.329   8.384   8.542  0.0998 -0.3300  0.1393
  236MOL0     C31741  -1.356   8.242   8.513  0.1925  0.6769 -0.5098
  236MOL0     N31742  -1.483   8.222   8.435  0.8617 -0.3128  0.2575
  236MOL0     C31743  -1.542   8.297   8.336  0.0192  0.7125 -0.1705
  236MOL0     C31744  -1.659   8.231   8.305  1.0839  0.1967 -0.0745
  236MOL0     C31745  -1.763   8.262   8.198 -0.0840 -0.4790 -0.2151
  236MOL0     C31746  -1.794   8.151   8.111  0.6371  0.0728 -0.1764
  236MOL0     C31747  -1.905   8.055   8.151 -0.4036 -0.0636 -0.0667
  236MOL0     C31748  -1.906   7.929   8.072  0.1752  0.3798  0.8670
  236MOL0     O31749  -1.921   7.941   7.922 -0.6000 -0.0532  0.4519
  236MOL0     C31750  -2.042   7.953   7.859  0.4151 -0.0271 -0.0899
  236MOL0     C31751  -2.040   7.944   7.726  0.7426  0.2863  0.6196
  236MOL0     C31752  -2.159   7.930   7.652  0.6704 -0.4276  0.8309
  236MOL0     C31753  -2.150   7.949   7.506 -0.5010  0.4988  0.0300
  236MOL0     C31754  -2.284   7.921   7.709  0.0907 -0.0238  0.9804
  236MOL0     C31755  -2.416   7.890   7.636  0.9955  0.7550  0.6266
  236MOL0     O31756  -2.536   7.937   7.686 -0.0897 -0.1094  1.1496
  236MOL0     C31757  -2.663   7.886   7.672  0.5840 -0.4455 -0.1092
  236MOL0     C31758  -2.773   7.961   7.697 -0.2138 -0.0289  0.5058
  236MOL0     C31759  -2.909   7.925   7.673 -0.1227  0.0892 -0.4213
  236MOL0     C31760  -2.928   7.788   7.624 -0.6952 -0.6870  0.5510
  236MOL0     O31761  -3.050   7.725   7.603  0.2230 -0.7392 -0.0927
  236MOL0     C31762  -3.174   7.792   7.623  0.5319 -0.3224 -0.0819
  236MOL0     C31763  -3.224   7.761   7.767 -0.6074  0.3981 -0.3143
  236MOL0     C31764  -3.364   7.822   7.787  0.4200  0.4300  0.0942
  236MOL0     C31765  -3.469   7.739   7.708  0.2553  0.1883  0.2116
  236MOL0     C31766  -3.615   7.753   7.752 -0.0795  1.3223 -0.0131
  236MOL0     C31767  -3.631   7.695   7.887  0.1111  0.5345 -0.9228
  236MOL0     C31768  -3.779   7.664   7.912  1.0426 -0.1680 -0.7285
  236MOL0     C31769  -3.862   7.794   7.921  0.8349  0.2284 -0.1687
  236MOL0    Cl31770  -3.812   7.900   8.049 -0.4351 -0.0137 -0.1912
  236MOL0     C31771  -2.809   7.711   7.602  0.7521 -0.4195 -1.2865
  236MOL0     C31772  -2.680   7.761   7.622  0.1593  0.0078  0.4925
  236MOL0     O31773  -2.411   7.822   7.531  0.1103  0.2714  0.3327
  236MOL0     C31774  -2.288   7.934   7.849  0.1725 -0.6996 -0.7892
  236MOL0     C31775  -2.168   7.958   7.925  0.5650  0.3359  0.6602
  236MOL0     N31776  -1.667   8.134   8.403 -0.1165 -0.2860  0.0487
  236MOL0     N31777  -1.564   8.119   8.472  0.5875  0.1280  0.1825
  236MOL0     C31778  -0.259   8.331   8.552  0.5279  0.2584  0.1286
  236MOL0     C31779  -0.141   8.272   8.501  0.1400  0.8050 -0.3355
  236MOL0     C31780   0.196   8.039   8.292  0.7803  0.0552 -0.7834
  236MOL0     C31781   0.218   8.069   8.156  0.3012 -0.0098 -0.1904
  236MOL0     C31782   0.316   8.000   8.089  0.4266 -0.8338  0.9893
  236MOL0     C31783   0.396   7.911   8.146 -0.9083  0.3642 -0.5381
  236MOL0     O31784   0.485   7.821   8.087  0.8091 -0.4752  0.8131
  236MOL0     C31785   0.597   7.881   8.017 -0.1262 -0.4474 -0.1685
  236MOL0     C31786   0.664   7.761   7.951 -1.2018  0.4082  0.1824
  236MOL0     C31787   0.797   7.805   7.887  0.2039 -0.0438  0.0226
  236MOL0     C31788   0.856   7.709   7.784 -0.6962  0.5730 -0.3421
  236MOL0     C31789   1.002   7.714   7.769 -0.7712  0.1090 -0.0064
  236MOL0     C31790   1.120   7.740   7.760 -0.4127 -0.5795 -0.8217
  236MOL0     C31791   0.375   7.886   8.280 -0.2072 -0.0403 -0.9429
  236MOL0     C31792   0.276   7.946   8.363 -0.1201 -0.3941  0.2497
  236MOL0     H31793  -0.255   8.146   8.217 -3.6187  0.9358 -0.3639
  236MOL0     H31794  -0.474   8.253   8.308  0.1442  1.0416 -1.3915
  236MOL0     H31795  -0.645   8.373   8.395  1.8021  0.3015 -0.9515
  236MOL0     H31796  -0.617   8.209   8.473 -1.2729 -0.6664  2.1687
  236MOL0     H31797  -0.701   8.300   8.686 -3.0807 -0.5136  1.3758
  236MOL0     H31798  -0.707   8.460   8.609 -0.0588 -0.7739 -0.5430
  236MOL0     H31799  -0.860   8.244   8.475  0.3826 -1.3625  0.9993
  236MOL0     H31800  -0.910   8.285   8.642 -0.3039  1.8796 -0.0788
  236MOL0     H31801  -0.943   8.516   8.580 -0.7270 -1.8398  2.7227
  236MOL0     H31802  -0.877   8.477   8.410 -0.0247  0.1777  1.3637
  236MOL0     H31803  -1.113   8.481   8.381 -1.0094  0.7672  1.6707
  236MOL0     H31804  -1.093   8.318   8.406 -1.6037  0.4823 -0.9976
  236MOL0     H31805  -1.140   8.340   8.651 -1.4157 -0.9641  0.8899
  236MOL0     H31806  -1.177   8.506   8.626 -0.2143 -0.5476  0.1536
  236MOL0     H31807  -1.403   8.425   8.611  0.4808  1.6487 -0.5559
  236MOL0     H31808  -1.340   8.443   8.450 -1.2174  0.1988  0.6206
  236MOL0     H31809  -1.347   8.187   8.607 -1.3878 -2.1902 -1.9124
  236MOL0     H31810  -1.280   8.205   8.444 -1.4590  0.9736 -2.6092
  236MOL0     H31811  -1.510   8.389   8.288 -1.7530  0.1077 -2.6416
  236MOL0     H31812  -1.853   8.294   8.250  0.5931 -2.2032  2.1828
  236MOL0     H31813  -1.721   8.341   8.135  0.5452 -2.0186 -1.8322
  236MOL0     H31814  -1.707   8.093   8.078 -0.8964 -0.9831 -2.6075
  236MOL0     H31815  -1.825   8.192   8.014 -0.5474  0.9392  0.5337
  236MOL0     H31816  -1.999   8.110   8.148 -1.8294 -2.3980 -0.0889
  236MOL0     H31817  -1.891   8.025   8.255 -2.1511 -1.2264 -0.1287
  236MOL0     H31818  -1.979   7.859   8.114 -0.7687 -0.8507 -2.5145
  236MOL0     H31819  -1.814   7.875   8.098 -1.1104 -3.3410 -1.5105
  236MOL0     H31820  -1.944   7.949   7.676  0.6608 -1.6105  0.2167
  236MOL0     H31821  -2.163   7.855   7.452  0.8225  1.0301 -1.2738
  236MOL0     H31822  -2.223   8.024   7.473 -1.4024  0.4721  1.8492
  236MOL0     H31823  -2.050   7.983   7.479  0.6558  0.1409  3.4406
  236MOL0     H31824  -2.757   8.057   7.745 -0.8184 -0.6173  1.9469
  236MOL0     H31825  -2.988   7.993   7.704 -1.9792 -1.2927 -1.8762
  236MOL0     H31826  -3.158   7.897   7.600 -0.1633 -0.8530 -3.6161
  236MOL0     H31827  -3.241   7.751   7.547  0.2330  0.5071 -0.2713
  236MOL0     H31828  -3.231   7.652   7.780 -0.6292  0.3066 -1.0322
  236MOL0     H31829  -3.160   7.811   7.840  4.2159 -5.1734 -0.0208
  236MOL0     H31830  -3.355   7.924   7.750  0.9280  0.3176 -0.0906
  236MOL0     H31831  -3.398   7.825   7.891 -1.4001 -0.6614 -0.4201
  236MOL0     H31832  -3.459   7.778   7.607 -2.6557 -1.7363 -0.9600
  236MOL0     H31833  -3.442   7.633   7.696  1.0140  0.4858 -0.8728
  236MOL0     H31834  -3.681   7.698   7.684 -0.9538 -1.5200  2.8768
  236MOL0     H31835  -3.642   7.859   7.755  1.3459  1.7890 -1.8831
  236MOL0     H31836  -3.573   7.604   7.904 -0.5915 -0.0837 -1.7733
  236MOL0     H31837  -3.591   7.763   7.964 -1.8208 -0.5296  1.1466
  236MOL0     H31838  -3.812   7.609   8.000  1.4129  0.4080 -0.2240
  236MOL0     H31839  -3.818   7.605   7.828 -1.2965 -0.3164  0.3773
  236MOL0     H31840  -3.965   7.759   7.932  0.8416 -0.8492 -2.8166
  236MOL0     H31841  -3.867   7.853   7.829 -2.4311  1.0618  0.4095
  236MOL0     H31842  -2.836   7.608   7.582  0.7834 -0.8415  0.6841
  236MOL0     H31843  -2.599   7.689   7.613 -0.2657 -0.3497 -0.5411
  236MOL0     H31844  -2.386   7.932   7.897  0.1493  2.9269 -0.4400
  236MOL0     H31845  -2.178   7.981   8.030 -2.1211 -0.3120  0.6373
  236MOL0     H31846  -0.245   8.391   8.642  1.7820  1.3023 -0.7346
  236MOL0     H31847  -0.052   8.296   8.558  0.1420 -2.0727  1.0863
  236MOL0     H31848   0.159   8.147   8.109  1.2455  3.0566  3.2892
  236MOL0     H31849   0.339   8.016   7.984  0.5297  0.9391  1.2591
  236MOL0     H31850   0.553   7.932   7.930  1.2228  1.7883  0.3618
  236MOL0     H31851   0.656   7.950   8.078  1.1861 -1.8275  0.1914
  236MOL0     H31852   0.596   7.731   7.871  1.0989  3.6340 -3.3119
  236MOL0     H31853   0.690   7.681   8.021 -0.7529  1.6425  1.4561
  236MOL0     H31854   0.879   7.814   7.958  0.9457  2.4333 -1.0164
  236MOL0     H31855   0.778   7.901   7.836 -2.8992  0.2674  1.5370
  236MOL0     H31856   0.803   7.728   7.690 -0.9263  1.2707 -0.0818
  236MOL0     H31857   0.840   7.608   7.822  0.3125  0.1619 -0.9990
  236MOL0     H31858   1.224   7.761   7.744 -0.5683  0.5802 -0.3816
  236MOL0     H31859   0.437   7.808   8.322  0.2007  0.7873  0.0210
  236MOL0     H31860   0.287   7.926   8.469  1.0340  0.3703  0.2978
  237MOL0     O31861   7.402  10.180   9.878  0.2478  0.2252 -0.8791
  237MOL0     C31862   7.436  10.262   9.798 -0.5669  0.5548 -0.4066
  237MOL0     O31863   7.362  10.363   9.749 -0.3534  0.5032  0.8379
  237MOL0     C31864   7.238  10.399   9.804 -0.4098  0.5123  0.0920
  237MOL0     C31865   7.242  10.533   9.844  0.5182 -0.2810  0.7732
  237MOL0     C31866   7.129  10.582   9.913 -0.6585  0.2919 -0.0334
  237MOL0     C31867   7.013  10.508   9.931  0.6318  0.5499  0.0947
  237MOL0     O31868   6.900  10.549   9.993  0.0838  0.2503  0.3265
  237MOL0     C31869   6.887  10.674  10.059  0.5689  1.1210  0.1211
  237MOL0     C31870   6.755  10.665  10.141 -0.1803 -0.4239  0.2757
  237MOL0     C31871   6.632  10.686  10.054 -0.1693  0.6111 -0.6675
  237MOL0     C31872   6.511  10.606  10.125 -0.8631  0.1239  0.4699
  237MOL0     C31873   6.374  10.628  10.046  0.0025 -0.0734 -0.2216
  237MOL0     C31874   6.346  10.522   9.933  0.2222 -0.2677 -0.0532
  237MOL0     C31875   6.216  10.535   9.855  1.4740 -1.1170  1.1503
  237MOL0     C31876   6.205  10.405   9.775  0.0127 -0.5067 -0.0789
  237MOL0     N31877   6.102  10.425   9.668  1.2600  0.7630 -0.2875
  237MOL0     C31878   5.967  10.417   9.698 -0.4048  0.3372 -0.3848
  237MOL0     C31879   5.900  10.448   9.586  0.0907 -0.3806  0.1708
  237MOL0     C31880   5.750  10.447   9.565 -0.1800 -0.1041  0.7836
  237MOL0     C31881   5.694  10.403   9.431 -0.1453  0.7460 -0.3799
  237MOL0     C31882   5.717  10.521   9.329  0.3223  0.8213 -0.0675
  237MOL0     C31883   5.648  10.492   9.193 -0.4984 -0.1590  0.6505
  237MOL0     O31884   5.510  10.533   9.204 -0.4731  0.5259  0.3937
  237MOL0     C31885   5.438  10.549   9.080  0.5079  0.5273 -0.7181
  237MOL0     C31886   5.488  10.533   8.952 -0.5188 -0.2351  0.3111
  237MOL0     C31887   5.408  10.550   8.838 -0.3978  0.3825 -0.3998
  237MOL0     C31888   5.483  10.535   8.706  0.3612  0.0620 -0.2813
  237MOL0     C31889   5.272  10.578   8.854  0.5291  1.0550  1.0904
  237MOL0     C31890   5.177  10.575   8.738 -0.0243  0.2269  0.7063
  237MOL0     O31891   5.213  10.499   8.621 -0.1086  0.0949  0.1843
  237MOL0     C31892   5.119  10.489   8.521 -0.8259 -0.2156  0.1476
  237MOL0     C31893   4.981  10.465   8.550  0.0962  0.8618  0.0240
  237MOL0     C31894   4.897  10.434   8.439 -0.4269  0.3840 -0.3723
  237MOL0     C31895   4.949  10.417   8.313 -0.5400 -0.2722 -0.3369
  237MOL0     O31896   4.889  10.400   8.192 -0.1776  0.1493  0.0128
  237MOL0     C31897   4.743  10.406   8.185 -0.7304  0.1495  0.3093
  237MOL0     C31898   4.710  10.361   8.048 -0.3702  0.2913 -0.2610
  237MOL0     C31899   4.557  10.334   8.020 -0.3195  0.7115 -0.2491
  237MOL0     C31900   4.476  10.463   8.027 -0.2530 -1.1101  0.2798
  237MOL0     C31901   4.330  10.428   7.975 -0.0176 -1.0513 -0.3414
  237MOL0     C31902   4.244  10.545   7.926  0.3366  0.0733 -0.3860
  237MOL0     C31903   4.123  10.485   7.865  0.4195  0.0149 -0.4991
  237MOL0     C31904   4.032  10.597   7.820  0.1457  0.0391  0.5899
  237MOL0    Cl31905   3.943  10.663   7.964  0.1994 -0.0963  0.2492
  237MOL0     C31906   5.084  10.429   8.297  0.0734 -0.1533  0.4208
  237MOL0     C31907   5.170  10.480   8.388 -0.0067  0.3583 -0.3359
  237MOL0     O31908   5.083  10.655   8.748  0.1682  0.0596  0.0025
  237MOL0     C31909   5.220  10.593   8.979 -0.7526  0.1650  0.3253
  237MOL0     C31910   5.305  10.590   9.086  0.2837  0.3506 -0.0895
  237MOL0     N31911   5.992  10.446   9.485  0.0188 -1.0855 -0.2621
  237MOL0     N31912   6.110  10.442   9.534 -0.2958  0.0454  0.6438
  237MOL0     C31913   7.008  10.374   9.884  0.0695  0.1240 -0.7439
  237MOL0     C31914   7.119  10.321   9.819 -0.5761  0.2427 -0.6640
  237MOL0     C31915   7.584  10.262   9.750  0.5137  0.6742 -1.1220
  237MOL0     C31916   7.638  10.375   9.685 -0.1690  0.6021  0.3895
  237MOL0     C31917   7.775  10.389   9.665 -0.3589 -0.1508 -0.1005
  237MOL0     C31918   7.871  10.285   9.691  0.3610 -1.7653 -0.7751
  237MOL0     O31919   8.008  10.315   9.666  0.6805  0.1277  0.1486
  237MOL0     C31920   8.104  10.219   9.714 -0.0532  0.1706 -0.1227
  237MOL0     C31921   8.239  10.258   9.661 -0.5381  0.5914 -0.2708
  237MOL0     C31922   8.353  10.158   9.715 -0.3598 -1.0987  0.5784
  237MOL0     C31923   8.472  10.164   9.630 -0.4079  0.7056  0.3029
  237MOL0     C31924   8.532  10.295   9.624  0.0314  0.4637 -0.8286
  237MOL0     C31925   8.594  10.399   9.607  0.7012  0.0209  0.0735
  237MOL0     C31926   7.816  10.172   9.753 -0.5927  0.5878 -0.0497
  237MOL0     C31927   7.680  10.159   9.792  0.4003 -0.9724  0.4813
  237MOL0     H31928   7.333  10.589   9.825  0.1253  0.6613  1.5570
  237MOL0     H31929   7.143  10.676   9.966  0.5443 -0.8133  1.7276
  237MOL0     H31930   6.974  10.693  10.122  0.4465  0.5846  0.4636
  237MOL0     H31931   6.887  10.758   9.988  2.9798  1.4331  0.4225
  237MOL0     H31932   6.761  10.567  10.189 -1.8228 -0.6783  0.0178
  237MOL0     H31933   6.748  10.744  10.217 -1.7096  0.8250 -1.0972
  237MOL0     H31934   6.613  10.792  10.033 -0.6659  1.0475  1.6713
  237MOL0     H31935   6.654  10.642   9.957  1.9893  2.0499 -0.8959
  237MOL0     H31936   6.534  10.499  10.135 -1.6403 -0.0814  0.1303
  237MOL0     H31937   6.494  10.642  10.227 -3.1709  1.6038 -0.3562
  237MOL0     H31938   6.296  10.623  10.122  1.5727  0.2768  1.5095
  237MOL0     H31939   6.372  10.726   9.998 -0.7257 -0.3545 -0.7743
  237MOL0     H31940   6.436  10.522   9.871  0.4159  0.5244  0.2124
  237MOL0     H31941   6.347  10.428   9.989  1.9031  1.2148  2.5931
  237MOL0     H31942   6.129  10.542   9.920 -0.1748 -3.3799 -0.6128
  237MOL0     H31943   6.220  10.619   9.785 -0.5788 -1.7955  0.1486
  237MOL0     H31944   6.188  10.326   9.849 -0.8872  0.0678  0.3417
  237MOL0     H31945   6.295  10.375   9.719 -1.1174 -1.9801 -1.1946
  237MOL0     H31946   5.937  10.395   9.799  3.8389  5.8806  2.6735
  237MOL0     H31947   5.724  10.373   9.642  1.3146  1.8673  3.3603
  237MOL0     H31948   5.710  10.546   9.587 -1.3507 -0.4805  0.4126
  237MOL0     H31949   5.588  10.379   9.445  0.0295  0.6019  0.7619
  237MOL0     H31950   5.752  10.321   9.390 -0.7961  0.8324 -1.5189
  237MOL0     H31951   5.823  10.536   9.307  0.4240  0.1810 -0.0477
  237MOL0     H31952   5.677  10.612   9.374 -1.4646  0.3243 -0.5438
  237MOL0     H31953   5.657  10.385   9.172 -1.7499 -0.1379 -0.0897
  237MOL0     H31954   5.703  10.547   9.116 -3.0840  3.7556  1.2425
  237MOL0     H31955   5.589  10.499   8.929 -0.7456  0.5080 -2.0403
  237MOL0     H31956   5.437  10.456   8.646  1.5284 -1.0330  0.2302
  237MOL0     H31957   5.475  10.626   8.646 -2.9092  0.4149  0.5160
  237MOL0     H31958   5.588  10.505   8.715  0.0823 -1.3222 -1.3790
  237MOL0     H31959   4.934  10.472   8.648 -1.1903 -2.4147 -0.2191
  237MOL0     H31960   4.788  10.426   8.445 -0.5253  1.7421  0.0503
  237MOL0     H31961   4.703  10.332   8.254  0.2433  0.4400  1.2025
  237MOL0     H31962   4.700  10.503   8.210  0.3412  0.9108 -0.6662
  237MOL0     H31963   4.745  10.432   7.973 -0.0655 -3.7442 -4.4406
  237MOL0     H31964   4.768  10.271   8.025  0.5483  0.3694  1.5420
  237MOL0     H31965   4.537  10.255   8.094  2.4552 -1.8197 -1.9824
  237MOL0     H31966   4.533  10.295   7.921 -0.8932  1.6148 -0.4798
  237MOL0     H31967   4.481  10.506   8.127  0.9123  1.3737 -0.7878
  237MOL0     H31968   4.518  10.531   7.953  0.0516 -2.1301 -0.5135
  237MOL0     H31969   4.283  10.377   8.059  0.4214  0.0633  0.6021
  237MOL0     H31970   4.339  10.356   7.893  1.5164 -0.3749 -0.8077
  237MOL0     H31971   4.210  10.617   8.001 -0.6278 -2.0038  1.2626
  237MOL0     H31972   4.296  10.603   7.848  1.2366 -3.7255 -2.8629
  237MOL0     H31973   4.073  10.429   7.945 -0.4799  0.0974 -0.9881
  237MOL0     H31974   4.165  10.418   7.789  0.9784 -0.0839 -0.1134
  237MOL0     H31975   3.964  10.557   7.744 -0.8039  1.1825  0.8170
  237MOL0     H31976   4.086  10.681   7.775  2.4797 -0.9260  1.4380
  237MOL0     H31977   5.125  10.400   8.201 -1.1697  0.6744 -0.3927
  237MOL0     H31978   5.278  10.495   8.383 -0.2301  2.2035 -0.2818
  237MOL0     H31979   5.114  10.609   8.998 -0.4388  2.3437  0.4261
  237MOL0     H31980   5.254  10.593   9.182  2.3704  2.1030  1.0799
  237MOL0     H31981   6.917  10.322   9.910  0.6114 -1.6369 -2.1476
  237MOL0     H31982   7.115  10.218   9.785 -2.6510  0.3867 -1.0253
  237MOL0     H31983   7.572  10.458   9.659  0.3159  1.4290  1.7206
  237MOL0     H31984   7.799  10.488   9.627 -1.8031  0.1672 -0.2477
  237MOL0     H31985   8.110  10.224   9.823 -1.2289 -1.0170  0.0135
  237MOL0     H31986   8.079  10.115   9.691 -0.1841 -0.2944  1.9349
  237MOL0     H31987   8.268  10.359   9.691 -0.1624  0.0517  1.2803
  237MOL0     H31988   8.229  10.243   9.553  0.6641  0.8610 -0.4266
  237MOL0     H31989   8.313  10.057   9.723 -0.9798 -0.8280  0.9793
  237MOL0     H31990   8.387  10.176   9.817 -2.7799  0.3624  1.2146
  237MOL0     H31991   8.453  10.143   9.524  1.3313  2.1810 -0.3522
  237MOL0     H31992   8.549  10.096   9.666  0.5776  1.3388 -0.5357
  237MOL0     H31993   8.617  10.503   9.592 -0.8108  0.2677 -0.8132
  237MOL0     H31994   7.881  10.086   9.767 -1.9298 -0.2106  1.7690
  237MOL0     H31995   7.632  10.077   9.846 -1.3867  0.9682  2.0368
  238MOL0     O31996   0.483   5.948  10.211  0.2629  0.3996  0.6701
  238MOL0     C31997   0.540   5.841  10.242  0.2276  0.0750 -0.1493
  238MOL0     O31998   0.476   5.726  10.269 -0.6532 -0.1414  0.1686
  238MOL0     C31999   0.342   5.719  10.241  0.0783 -0.5875  0.1116
  238MOL0     C32000   0.238   5.738  10.337 -0.1719  0.8012 -0.0814
  238MOL0     C32001   0.108   5.741  10.292  0.6752 -0.3400  0.1436
  238MOL0     C32002   0.082   5.728  10.160  0.1274  0.6180  0.9778
  238MOL0     O32003  -0.045   5.730  10.115 -0.2235  0.0207  0.2256
  238MOL0     C32004  -0.156   5.762  10.199 -1.3013 -0.4801  0.6386
  238MOL0     C32005  -0.299   5.742  10.138 -0.2370 -0.2089  0.5470
  238MOL0     C32006  -0.424   5.790  10.212  0.7701 -0.7705  0.1354
  238MOL0     C32007  -0.545   5.803  10.116 -0.3873 -0.1798  0.0919
  238MOL0     C32008  -0.676   5.839  10.184  0.1158 -0.7291  0.2639
  238MOL0     C32009  -0.685   5.989  10.198 -1.0377  0.0146  0.5396
  238MOL0     C32010  -0.829   6.038  10.225 -0.1759 -0.8409 -0.4295
  238MOL0     C32011  -0.852   6.185  10.249 -0.6033 -0.1856  0.6337
  238MOL0     N32012  -0.942   6.223  10.368  0.2681 -0.1241 -0.2885
  238MOL0     C32013  -1.056   6.288  10.364 -0.5429  0.2797 -0.4828
  238MOL0     C32014  -1.098   6.304  10.498 -0.4547 -0.0755  0.0649
  238MOL0     C32015  -1.221   6.365  10.563 -0.0039  0.5058  0.6035
  238MOL0     C32016  -1.195   6.512  10.571  0.7511  0.3106  0.4403
  238MOL0     C32017  -1.298   6.576  10.664 -0.2663 -0.2282 -0.6834
  238MOL0     C32018  -1.280   6.725  10.664  0.2682 -0.0275 -0.3351
  238MOL0     O32019  -1.360   6.786  10.767 -0.3886 -0.3803  0.4128
  238MOL0     C32020  -1.316   6.820  10.891  0.2627 -0.0409 -1.2808
  238MOL0     C32021  -1.205   6.758  10.957  0.2228 -0.5616  0.2607
  238MOL0     C32022  -1.156   6.811  11.075  0.0663  0.2108  0.3319
  238MOL0     C32023  -1.038   6.740  11.126 -0.4698 -0.0395  0.2882
  238MOL0     C32024  -1.231   6.901  11.145 -0.0641 -0.2675 -0.1618
  238MOL0     C32025  -1.194   6.943  11.281  0.8427 -0.3020  0.1494
  238MOL0     O32026  -1.305   6.965  11.364  0.0031 -0.5001 -0.1623
  238MOL0     C32027  -1.282   6.972  11.497 -0.7345 -0.4999  0.9986
  238MOL0     C32028  -1.282   7.094  11.571  0.0041 -0.4100  0.4295
  238MOL0     C32029  -1.284   7.086  11.713 -0.1829  0.1261 -0.5669
  238MOL0     C32030  -1.299   6.963  11.772 -0.5228  0.1347 -0.2431
  238MOL0     O32031  -1.314   6.954  11.909 -0.1370 -0.8121 -0.1050
  238MOL0     C32032  -1.406   6.853  11.958 -0.4510 -0.1270 -0.5309
  238MOL0     C32033  -1.442   6.899  12.110 -0.0431  0.5491  0.4667
  238MOL0     C32034  -1.565   6.819  12.164 -0.9322 -0.2590  0.3231
  238MOL0     C32035  -1.628   6.882  12.287 -0.3148  0.0685 -1.2407
  238MOL0     C32036  -1.747   6.789  12.328 -0.6160 -0.3742  0.2033
  238MOL0     C32037  -1.719   6.657  12.402  0.0507 -1.0969  0.3665
  238MOL0     C32038  -1.847   6.588  12.454 -0.4670 -0.9777  0.6572
  238MOL0     C32039  -1.807   6.459  12.532  0.1848 -0.4514  0.3807
  238MOL0    Cl32040  -1.953   6.366  12.580  0.3881  0.2548  0.1748
  238MOL0     C32041  -1.289   6.839  11.695  0.5535 -0.1883 -0.4116
  238MOL0     C32042  -1.284   6.848  11.559  0.3712  0.3328 -0.2534
  238MOL0     O32043  -1.075   6.953  11.317  0.0631  1.0113  0.7322
  238MOL0     C32044  -1.341   6.957  11.085  0.0207 -0.5488  0.2183
  238MOL0     C32045  -1.374   6.929  10.949  0.0903  0.1803 -0.7018
  238MOL0     N32046  -0.990   6.266  10.576 -0.8188  0.8036  0.3240
  238MOL0     N32047  -0.896   6.217  10.498  0.5785  0.6434  0.2530
  238MOL0     C32048   0.177   5.730  10.056 -0.2709 -0.3201  0.0944
  238MOL0     C32049   0.307   5.720  10.102 -0.6894  0.7484 -0.2373
  238MOL0     C32050   0.690   5.853  10.258 -0.9768  0.8504  0.3303
  238MOL0     C32051   0.765   5.741  10.310 -0.2828 -0.3738  0.2789
  238MOL0     C32052   0.908   5.751  10.306  0.1362  0.4567 -0.6226
  238MOL0     C32053   0.968   5.867  10.260  1.1334 -0.1376  0.3344
  238MOL0     O32054   1.105   5.900  10.272  0.5018 -0.2502  0.3772
  238MOL0     C32055   1.188   5.803  10.329 -0.4159  0.4844  0.6081
  238MOL0     C32056   1.246   5.694  10.223  0.9424 -0.9624 -0.4407
  238MOL0     C32057   1.322   5.779  10.113  0.3957  0.2063  0.5114
  238MOL0     C32058   1.369   5.693   9.991 -0.2995  0.2080 -0.0888
  238MOL0     C32059   1.460   5.582  10.022 -0.0642 -0.2861  0.1062
  238MOL0     C32060   1.525   5.483  10.044  0.8032  0.3604  0.0669
  238MOL0     C32061   0.899   5.971  10.200 -0.0762  0.4670  0.9559
  238MOL0     C32062   0.758   5.962  10.195 -0.5834  0.4337 -0.3669
  238MOL0     H32063   0.259   5.755  10.442  1.2071  1.3830 -0.4350
  238MOL0     H32064   0.039   5.753  10.375  0.8259 -1.1750  0.3993
  238MOL0     H32065  -0.142   5.716  10.297  2.7009  2.1672  1.5693
  238MOL0     H32066  -0.148   5.870  10.220  1.1955 -0.4218 -0.3035
  238MOL0     H32067  -0.298   5.792  10.040  0.6044 -2.5399 -0.7189
  238MOL0     H32068  -0.308   5.635  10.116  0.6746  0.2159 -2.3118
  238MOL0     H32069  -0.458   5.741  10.303 -0.4729  3.3673  2.1794
  238MOL0     H32070  -0.396   5.891  10.244  0.3199 -0.5824 -0.0551
  238MOL0     H32071  -0.521   5.876  10.039 -1.8022  0.4298  0.2017
  238MOL0     H32072  -0.549   5.708  10.061 -3.6630 -1.0150  1.5232
  238MOL0     H32073  -0.762   5.816  10.120 -0.5329  0.4787  0.6645
  238MOL0     H32074  -0.682   5.791  10.282  2.1078  0.6752  1.1371
  238MOL0     H32075  -0.616   6.021  10.277  2.0082  0.0635 -1.9811
  238MOL0     H32076  -0.659   6.035  10.103  0.5072  2.2743  1.9499
  238MOL0     H32077  -0.900   6.005  10.150 -2.1152  0.6296  0.6718
  238MOL0     H32078  -0.851   5.984  10.318  1.0250  0.5057  0.6929
  238MOL0     H32079  -0.903   6.225  10.160  0.8364 -0.4797 -0.3531
  238MOL0     H32080  -0.753   6.226  10.272  1.3734 -1.5056 -4.2981
  238MOL0     H32081  -1.118   6.323  10.283 -1.1241  2.4281  0.8088
  238MOL0     H32082  -1.302   6.332  10.497  0.3967  0.2062  0.2545
  238MOL0     H32083  -1.237   6.337  10.667 -2.1191  1.9513  0.7387
  238MOL0     H32084  -1.215   6.556  10.472  1.2137 -0.3658  0.0333
  238MOL0     H32085  -1.096   6.529  10.614  0.7595  0.9553  0.1750
  238MOL0     H32086  -1.293   6.535  10.765 -1.6342  0.6261 -0.2471
  238MOL0     H32087  -1.398   6.548  10.631 -1.2681  1.0633  1.1152
  238MOL0     H32088  -1.317   6.761  10.568  2.2370  0.7434 -0.8664
  238MOL0     H32089  -1.173   6.745  10.671  0.2032 -0.1033  1.1023
  238MOL0     H32090  -1.157   6.672  10.910  0.3060  0.8180 -2.3543
  238MOL0     H32091  -1.066   6.703  11.225 -1.0353  1.9185  0.9072
  238MOL0     H32092  -1.009   6.656  11.062  0.0070 -1.1580  1.9031
  238MOL0     H32093  -0.954   6.808  11.139  0.5564 -1.1905 -0.0648
  238MOL0     H32094  -1.266   7.186  11.517  0.1909 -1.3343 -1.1640
  238MOL0     H32095  -1.286   7.179  11.768  0.3765  0.7106 -1.4977
  238MOL0     H32096  -1.499   6.847  11.901 -1.0424 -0.6292  0.4496
  238MOL0     H32097  -1.362   6.753  11.968 -0.3762  0.1214  3.6051
  238MOL0     H32098  -1.365   6.882  12.186 -1.5514 -0.5113  1.8187
  238MOL0     H32099  -1.467   7.006  12.111  1.2106  1.0071 -3.0651
  238MOL0     H32100  -1.509   6.730  12.195  2.0067 -0.0823 -3.6363
  238MOL0     H32101  -1.634   6.796  12.082  2.0626  1.4117 -2.9692
  238MOL0     H32102  -1.547   6.898  12.360 -1.1371 -0.8180 -0.0922
  238MOL0     H32103  -1.678   6.979  12.277 -1.5585 -0.5008 -0.7389
  238MOL0     H32104  -1.812   6.785  12.240  0.7582  2.3471 -1.0528
  238MOL0     H32105  -1.799   6.852  12.401  1.9057  2.3241 -0.1335
  238MOL0     H32106  -1.666   6.587  12.336  2.2775 -1.0491  1.9733
  238MOL0     H32107  -1.654   6.669  12.490  3.6976 -0.0240 -2.2300
  238MOL0     H32108  -1.915   6.571  12.370  0.2444  2.5362 -0.8063
  238MOL0     H32109  -1.901   6.658  12.520 -2.4059 -0.6689 -1.1589
  238MOL0     H32110  -1.747   6.486  12.620  0.2649  3.7702 -0.7931
  238MOL0     H32111  -1.751   6.398  12.460  1.6258  0.8121  0.3857
  238MOL0     H32112  -1.287   6.740  11.738  0.7596 -1.0323 -2.2435
  238MOL0     H32113  -1.292   6.756  11.503  0.9486 -1.2682  2.1480
  238MOL0     H32114  -1.382   7.047  11.130 -0.4078 -0.9634  0.6668
  238MOL0     H32115  -1.461   6.978  10.906  0.1046  1.0836  0.2600
  238MOL0     H32116   0.153   5.726   9.950  1.5466 -0.3228 -0.3490
  238MOL0     H32117   0.390   5.708  10.034  0.6539  1.8367  1.1646
  238MOL0     H32118   0.714   5.650  10.339  0.7017 -1.4892 -1.2815
  238MOL0     H32119   0.976   5.669  10.324 -0.9443 -0.4806 -0.7408
  238MOL0     H32120   1.271   5.858  10.374  1.1477 -0.4062 -1.0578
  238MOL0     H32121   1.135   5.756  10.413 -1.3201  2.4435  1.1994
  238MOL0     H32122   1.169   5.630  10.181 -0.1118 -1.6116  2.2646
  238MOL0     H32123   1.315   5.626  10.273  1.2319 -0.4841 -0.1750
  238MOL0     H32124   1.405   5.840  10.151  1.7926 -0.3911 -1.4041
  238MOL0     H32125   1.253   5.854  10.074 -3.9571 -3.4769  0.3038
  238MOL0     H32126   1.420   5.767   9.928 -0.2094  0.1498 -0.0828
  238MOL0     H32127   1.280   5.657   9.940 -0.8885  3.4156 -1.5982
  238MOL0     H32128   1.575   5.389  10.057  1.8118  0.7475 -0.8187
  238MOL0     H32129   0.955   6.059  10.171 -1.2676  0.7006 -0.7712
  238MOL0     H32130   0.697   6.043  10.157 -2.4268 -0.3413  0.8023
  239MOL0     O32131   1.998   4.169   3.503  0.5174  0.0202 -0.0690
  239MOL0     C32132   2.107   4.206   3.457  0.7666  0.5583 -0.1537
  239MOL0     O32133   2.146   4.199   3.325 -0.5950 -0.1360 -0.5124
  239MOL0     C32134   2.058   4.130   3.241 -0.1509  0.8582 -0.2136
  239MOL0     C32135   2.111   4.034   3.166 -0.2844 -0.2408 -0.2583
  239MOL0     C32136   2.026   3.967   3.075  0.7549  0.3976  0.8803
  239MOL0     C32137   1.890   3.996   3.058 -0.4208  1.0779 -0.3596
  239MOL0     O32138   1.823   3.934   2.961 -0.4965  0.7017  0.3169
  239MOL0     C32139   1.703   3.991   2.918 -0.4931 -0.2426 -0.4435
  239MOL0     C32140   1.648   3.900   2.813  0.4694 -0.4120  0.0487
  239MOL0     C32141   1.741   3.893   2.688 -0.5889 -0.4180  0.2159
  239MOL0     C32142   1.709   3.789   2.593 -0.8657 -0.0341 -0.5798
  239MOL0     C32143   1.638   3.837   2.470 -0.6218  0.3633 -0.0976
  239MOL0     C32144   1.484   3.823   2.494 -0.5008 -0.0264 -0.2820
  239MOL0     C32145   1.421   3.863   2.368  0.1799  0.4217 -0.4714
  239MOL0     C32146   1.273   3.874   2.404 -0.1413 -0.0560  0.7071
  239MOL0     N32147   1.208   3.920   2.281  0.1008 -1.0820 -0.3829
  239MOL0     C32148   1.185   3.836   2.175 -0.7134 -0.3723  0.6018
  239MOL0     C32149   1.122   3.917   2.092  0.9981 -0.4174  1.4300
  239MOL0     C32150   1.042   3.874   1.961 -0.4520  0.7973 -0.6309
  239MOL0     C32151   0.952   3.756   2.001 -0.6696 -0.2766  0.2395
  239MOL0     C32152   0.848   3.785   2.113 -0.5070  1.0710  0.3164
  239MOL0     C32153   0.755   3.909   2.078  0.3301  0.2056  0.2853
  239MOL0     O32154   0.625   3.878   2.130 -0.1783  0.6468 -0.2921
  239MOL0     C32155   0.530   3.814   2.054 -0.0898  0.5361 -0.4281
  239MOL0     C32156   0.544   3.779   1.922 -0.2903  0.5203 -0.0745
  239MOL0     C32157   0.443   3.711   1.848  0.6773  0.1197 -0.5410
  239MOL0     C32158   0.480   3.696   1.704 -0.2189  0.1627  0.3492
  239MOL0     C32159   0.325   3.669   1.916  0.5538 -0.3294 -0.4185
  239MOL0     C32160   0.220   3.588   1.861 -0.1592 -0.1771 -0.5201
  239MOL0     O32161   0.108   3.574   1.932  0.3239  0.8853 -0.3743
  239MOL0     C32162   0.014   3.508   1.861  0.2333 -0.7206  0.1841
  239MOL0     C32163  -0.082   3.588   1.789 -0.1208  0.1960 -0.5448
  239MOL0     C32164  -0.183   3.531   1.711 -0.1313 -0.0506  0.1794
  239MOL0     C32165  -0.204   3.392   1.724  0.1442  0.2612 -0.4666
  239MOL0     O32166  -0.313   3.324   1.672 -0.5742  0.4025 -0.8447
  239MOL0     C32167  -0.420   3.395   1.609 -0.0215  1.4594  0.5564
  239MOL0     C32168  -0.549   3.319   1.638 -0.0218  0.4961  0.3007
  239MOL0     C32169  -0.674   3.390   1.578 -0.6558 -0.5102  0.1953
  239MOL0     C32170  -0.674   3.422   1.425  0.3148 -0.0163  1.1440
  239MOL0     C32171  -0.815   3.474   1.382  0.9082  0.0589 -0.4276
  239MOL0     C32172  -0.837   3.618   1.432 -0.8897  0.6584 -0.2156
  239MOL0     C32173  -0.953   3.642   1.534  0.5592 -0.6590 -0.0055
  239MOL0     C32174  -0.949   3.796   1.558 -0.4575 -0.4356 -0.4354
  239MOL0    Cl32175  -1.091   3.860   1.655  0.2024 -0.3047  0.2076
  239MOL0     C32176  -0.115   3.316   1.793  0.1007  0.4381 -0.4609
  239MOL0     C32177  -0.003   3.373   1.857  0.3075  0.6499 -0.4004
  239MOL0     O32178   0.251   3.512   1.767 -0.4654  0.5007 -0.0482
  239MOL0     C32179   0.312   3.707   2.052  0.8556 -0.2343 -0.2345
  239MOL0     C32180   0.414   3.768   2.116 -0.2069  0.3464 -0.6868
  239MOL0     N32181   1.109   4.049   2.143  0.1771 -0.0399  0.2615
  239MOL0     N32182   1.155   4.048   2.264 -0.1772  0.1501  0.0430
  239MOL0     C32183   1.842   4.097   3.136 -0.1930 -0.7745  0.1938
  239MOL0     C32184   1.922   4.162   3.223 -0.0040 -0.5034 -0.3351
  239MOL0     C32185   2.190   4.285   3.553 -0.5139 -0.2783 -0.4241
  239MOL0     C32186   2.312   4.328   3.515 -0.2642  0.1074  0.1735
  239MOL0     C32187   2.385   4.411   3.601 -0.9342  0.6051  0.7933
  239MOL0     C32188   2.338   4.458   3.719  0.0516  0.9477  0.5397
  239MOL0     O32189   2.429   4.524   3.795  0.2882 -0.3589 -0.3538
  239MOL0     C32190   2.380   4.628   3.875 -0.7994  0.1792  0.0849
  239MOL0     C32191   2.477   4.714   3.950  0.7399  0.2564 -0.3561
  239MOL0     C32192   2.572   4.776   3.857 -0.6796 -0.7538 -0.3609
  239MOL0     C32193   2.676   4.867   3.940  0.3613 -0.8101  0.7806
  239MOL0     C32194   2.613   4.986   4.004  0.3354 -0.2339  0.2016
  239MOL0     C32195   2.551   5.078   4.052  0.8072  0.1669  0.3411
  239MOL0     C32196   2.212   4.417   3.766 -0.1752 -0.6768  0.3134
  239MOL0     C32197   2.144   4.328   3.681  0.8259  0.0484 -0.7298
  239MOL0     H32198   2.213   3.997   3.172  0.6240  1.8530 -1.4859
  239MOL0     H32199   2.061   3.878   3.023 -0.7883 -0.4667  1.2550
  239MOL0     H32200   1.630   3.995   2.999 -1.0005 -0.9558 -0.8555
  239MOL0     H32201   1.721   4.096   2.892 -0.2090 -1.1926 -4.9064
  239MOL0     H32202   1.643   3.800   2.857  0.6127 -0.4203  0.0471
  239MOL0     H32203   1.545   3.929   2.789 -0.7569 -3.3870  1.2008
  239MOL0     H32204   1.736   3.997   2.654  3.7873 -1.0649 -3.3179
  239MOL0     H32205   1.847   3.880   2.714 -1.0216 -0.1310  2.3016
  239MOL0     H32206   1.811   3.764   2.564 -0.9401 -1.5189  0.3619
  239MOL0     H32207   1.664   3.697   2.630  1.1221 -1.5369 -1.6900
  239MOL0     H32208   1.668   3.935   2.431  3.9129 -0.6420  0.3028
  239MOL0     H32209   1.665   3.771   2.387  0.7311 -1.5435  1.7636
  239MOL0     H32210   1.449   3.721   2.513 -1.9106  0.5141  0.0821
  239MOL0     H32211   1.452   3.870   2.587  2.0424 -1.6450  1.5580
  239MOL0     H32212   1.446   3.962   2.331  2.3441  1.8306  4.0512
  239MOL0     H32213   1.428   3.787   2.290  0.6073  0.5847 -0.5928
  239MOL0     H32214   1.264   3.945   2.487  1.7115  1.1453 -0.0327
  239MOL0     H32215   1.227   3.781   2.437 -2.6695 -0.0050 -2.2392
  239MOL0     H32216   1.198   3.729   2.163 -0.6121 -0.0640 -3.8290
  239MOL0     H32217   0.979   3.951   1.917 -1.2260  0.1490 -0.6776
  239MOL0     H32218   1.109   3.831   1.886  0.5954 -1.9049  1.6545
  239MOL0     H32219   1.011   3.667   2.026 -0.4544 -0.4355 -0.8078
  239MOL0     H32220   0.895   3.731   1.912 -1.3335  0.1058  0.5515
  239MOL0     H32221   0.899   3.797   2.209  1.0881 -1.0378 -0.1941
  239MOL0     H32222   0.791   3.692   2.122  0.1881  0.6541  0.5201
  239MOL0     H32223   0.744   3.942   1.975 -1.7571  2.0666  1.0110
  239MOL0     H32224   0.799   3.994   2.132  0.2476  1.3877 -1.4281
  239MOL0     H32225   0.626   3.806   1.855 -0.5651  0.3355 -0.4910
  239MOL0     H32226   0.392   3.691   1.640  1.0400  2.5835 -1.7249
  239MOL0     H32227   0.515   3.796   1.676 -1.5567  0.1028 -1.7163
  239MOL0     H32228   0.551   3.617   1.679 -0.3598  0.3222 -0.5940
  239MOL0     H32229  -0.076   3.696   1.785  2.9305  0.0921 -1.5236
  239MOL0     H32230  -0.245   3.597   1.650 -0.2067 -1.7017 -1.6359
  239MOL0     H32231  -0.434   3.487   1.666  4.1869  0.2077  4.1696
  239MOL0     H32232  -0.399   3.413   1.504  0.7877 -0.7706  0.2797
  239MOL0     H32233  -0.544   3.214   1.608  4.2000 -0.3928  3.1768
  239MOL0     H32234  -0.567   3.298   1.744 -1.5258 -0.3636 -0.0838
  239MOL0     H32235  -0.688   3.489   1.622  0.5285  1.1422 -2.9401
  239MOL0     H32236  -0.766   3.338   1.608 -1.4350  1.0319  0.5618
  239MOL0     H32237  -0.591   3.491   1.410  1.0394 -0.7459  1.6985
  239MOL0     H32238  -0.665   3.332   1.363 -2.0006 -0.3417  1.1928
  239MOL0     H32239  -0.901   3.412   1.409 -1.0064  1.4508 -2.9018
  239MOL0     H32240  -0.815   3.484   1.273  0.0520 -2.9125 -0.7857
  239MOL0     H32241  -0.746   3.652   1.483 -0.0740 -1.1113 -0.4190
  239MOL0     H32242  -0.861   3.687   1.351 -1.6339  2.3724  1.3830
  239MOL0     H32243  -0.947   3.583   1.626 -1.7202  2.1137  2.0992
  239MOL0     H32244  -1.048   3.623   1.484  0.8113  2.5845 -1.9697
  239MOL0     H32245  -0.946   3.853   1.464  1.9352 -0.3701 -0.3721
  239MOL0     H32246  -0.855   3.813   1.611  0.6219 -0.3518 -2.2914
  239MOL0     H32247  -0.115   3.208   1.804  3.8463  0.3846  0.6450
  239MOL0     H32248   0.080   3.317   1.896 -0.9581 -0.3852  0.9009
  239MOL0     H32249   0.222   3.682   2.107  1.7729  0.0448  1.4627
  239MOL0     H32250   0.419   3.791   2.222 -1.1090 -0.4830 -0.4491
  239MOL0     H32251   1.737   4.120   3.145 -0.4300 -2.4628  2.6257
  239MOL0     H32252   1.884   4.247   3.279  0.9404 -0.0405 -0.3743
  239MOL0     H32253   2.361   4.288   3.426  0.3093  0.1421  0.4666
  239MOL0     H32254   2.485   4.444   3.576 -0.8242  0.9784  1.6638
  239MOL0     H32255   2.322   4.690   3.806  1.8574  0.8465 -1.7190
  239MOL0     H32256   2.315   4.591   3.954 -2.0382 -1.1330 -1.5007
  239MOL0     H32257   2.539   4.647   4.011  1.3683 -0.0101 -1.2770
  239MOL0     H32258   2.427   4.788   4.013 -0.0060 -2.7001  2.8811
  239MOL0     H32259   2.524   4.826   3.772  2.8475  0.3516 -1.8631
  239MOL0     H32260   2.641   4.713   3.800 -0.5928  1.9057 -3.5387
  239MOL0     H32261   2.751   4.908   3.872 -0.8821 -1.5137 -1.0986
  239MOL0     H32262   2.720   4.797   4.012  0.7074 -0.6084  0.7643
  239MOL0     H32263   2.495   5.163   4.084  0.8984  0.2685  0.2308
  239MOL0     H32264   2.194   4.444   3.869  0.5674 -0.8223  0.4910
  239MOL0     H32265   2.047   4.287   3.706 -0.3394  1.1751 -3.1313
  240MOL0     O32266   9.439   4.209  10.281  0.0912  0.7443  0.5190
  240MOL0     C32267   9.350   4.160  10.209 -1.0852 -0.2014  0.0138
  240MOL0     O32268   9.375   4.061  10.119  0.2706  0.2493  0.1537
  240MOL0     C32269   9.495   4.024  10.074  0.2168 -0.5602  1.0666
  240MOL0     C32270   9.519   3.893  10.034 -0.3254  0.4634  0.0492
  240MOL0     C32271   9.645   3.860   9.968 -0.0006  0.1194 -0.8805
  240MOL0     C32272   9.742   3.952   9.963  0.2585 -0.2770  0.9044
  240MOL0     O32273   9.858   3.904   9.917  0.8406 -0.1394 -0.5932
  240MOL0     C32274   9.983   3.972   9.928  0.8814 -0.6158 -0.3860
  240MOL0     C32275  10.094   3.879   9.873 -0.2445  0.1772 -0.8144
  240MOL0     C32276  10.236   3.928   9.899  0.9958 -0.3054 -0.2207
  240MOL0     C32277  10.285   4.026   9.799  0.6822  1.9404  1.2160
  240MOL0     C32278  10.442   4.050   9.807  0.0258  0.1738 -0.4824
  240MOL0     C32279  10.470   4.137   9.687  0.7592  0.2818 -0.1614
  240MOL0     C32280  10.618   4.186   9.680  0.1826 -0.0602  0.2090
  240MOL0     C32281  10.720   4.097   9.745  0.6970  0.0704  1.3551
  240MOL0     N32282  10.861   4.134   9.714  0.1522 -0.0682 -0.0480
  240MOL0     C32283  10.908   4.150   9.585 -0.3541 -0.7314 -0.4043
  240MOL0     C32284  11.035   4.198   9.595 -0.5242 -0.5213 -0.2122
  240MOL0     C32285  11.132   4.229   9.486 -0.3916 -0.0573 -0.2241
  240MOL0     C32286  11.089   4.356   9.421 -0.5687 -0.0883  0.5523
  240MOL0     C32287  11.217   4.419   9.364 -0.8634  0.1255  0.2080
  240MOL0     C32288  11.265   4.353   9.227 -0.6223  0.0868  0.0447
  240MOL0     O32289  11.369   4.434   9.180  0.5246  0.0266 -0.1227
  240MOL0     C32290  11.364   4.461   9.042  0.3883 -0.3036 -0.2604
  240MOL0     C32291  11.285   4.570   8.998  0.1567  0.0703 -0.2953
  240MOL0     C32292  11.262   4.588   8.860 -1.3284 -1.2997 -0.6870
  240MOL0     C32293  11.165   4.698   8.817  0.1217  0.1003  0.0651
  240MOL0     C32294  11.313   4.500   8.760  0.1118  0.0834  0.0304
  240MOL0     C32295  11.274   4.486   8.610  0.4135 -0.7241 -0.7801
  240MOL0     O32296  11.155   4.540   8.573 -0.3219 -0.7799  0.0966
  240MOL0     C32297  11.116   4.549   8.439  0.0478 -0.0027 -1.3652
  240MOL0     C32298  10.984   4.537   8.426  0.7257  0.5542 -0.1892
  240MOL0     C32299  10.924   4.518   8.301  0.4843 -0.5001  0.3260
  240MOL0     C32300  11.007   4.538   8.184  0.3868  0.0408  0.1542
  240MOL0     O32301  10.958   4.525   8.055 -0.8070  0.4334  0.1300
  240MOL0     C32302  10.996   4.405   7.983 -0.3712  0.6965  0.5419
  240MOL0     C32303  11.085   4.442   7.861  0.5072  0.0010 -0.3113
  240MOL0     C32304  11.031   4.564   7.781 -0.2974  0.3649 -0.1979
  240MOL0     C32305  10.892   4.536   7.714 -0.0988  0.4774 -0.3199
  240MOL0     C32306  10.869   4.638   7.597  0.1044 -0.5624  0.7609
  240MOL0     C32307  10.848   4.564   7.465  0.7348  0.2612 -0.6183
  240MOL0     C32308  10.787   4.642   7.349  0.7924 -0.0022 -0.0032
  240MOL0     C32309  10.807   4.584   7.214 -0.4583  0.4576  0.2841
  240MOL0    Cl32310  10.712   4.430   7.197  0.0913 -0.1298 -0.1190
  240MOL0     C32311  11.146   4.564   8.203  0.5563 -1.2983  0.3800
  240MOL0     C32312  11.204   4.570   8.328  0.2438 -0.0405 -0.0319
  240MOL0     O32313  11.342   4.427   8.535 -0.0674 -0.8291  0.4315
  240MOL0     C32314  11.394   4.401   8.808  0.2356 -0.6291 -0.0256
  240MOL0     C32315  11.421   4.381   8.944 -0.0552  0.4360  0.3222
  240MOL0     N32316  11.054   4.217   9.733  0.5737  0.1946  0.1564
  240MOL0     N32317  10.960   4.164   9.799  0.6833  0.2907 -0.1492
  240MOL0     C32318   9.724   4.092   9.998 -0.7985  0.9572  0.2497
  240MOL0     C32319   9.594   4.123  10.043 -0.7672 -0.6568  0.4597
  240MOL0     C32320   9.215   4.215  10.228  0.0283  0.0061  0.3917
  240MOL0     C32321   9.122   4.204  10.132 -0.2474  0.3035 -0.5043
  240MOL0     C32322   8.987   4.248  10.150  0.0008 -0.3992 -0.8399
  240MOL0     C32323   8.948   4.315  10.273 -0.4403  0.0906 -0.5220
  240MOL0     O32324   8.826   4.363  10.310  0.3027 -0.1994  0.6829
  240MOL0     C32325   8.710   4.350  10.217 -0.2420 -0.4788 -0.3744
  240MOL0     C32326   8.715   4.456  10.105  0.2877  0.6551 -0.3448
  240MOL0     C32327   8.619   4.431   9.983 -1.2520 -0.2607  0.0779
  240MOL0     C32328   8.660   4.347   9.862 -0.7017  0.2732 -0.4478
  240MOL0     C32329   8.776   4.410   9.799  0.1569 -0.8647  1.4712
  240MOL0     C32330   8.858   4.487   9.747  0.3745  0.1796 -0.2587
  240MOL0     C32331   9.045   4.322  10.363 -0.9808 -0.1395  0.1670
  240MOL0     C32332   9.183   4.278  10.346 -0.3653 -0.4357 -0.9506
  240MOL0     H32333   9.436   3.823  10.040 -0.8837  1.0531 -0.5816
  240MOL0     H32334   9.651   3.759   9.929  2.4674  0.7594 -2.3774
  240MOL0     H32335   9.988   4.065   9.871  1.5794 -0.3340  0.1181
  240MOL0     H32336  10.002   4.003  10.031 -0.8107  1.2188 -0.5721
  240MOL0     H32337  10.085   3.782   9.922  0.7879  0.4379 -0.0714
  240MOL0     H32338  10.078   3.868   9.766 -0.4866 -0.4098 -0.7176
  240MOL0     H32339  10.241   3.966  10.002  1.3602 -0.8090 -0.0454
  240MOL0     H32340  10.305   3.844   9.887 -0.2499 -1.1664 -1.7537
  240MOL0     H32341  10.272   3.989   9.697  2.9289  0.2527  1.4739
  240MOL0     H32342  10.228   4.120   9.808  1.0431  2.4051 -0.9418
  240MOL0     H32343  10.465   4.112   9.894 -1.1661  1.6913 -1.2011
  240MOL0     H32344  10.500   3.957   9.809 -0.1719  0.0560  0.1225
  240MOL0     H32345  10.437   4.078   9.601 -0.0628 -4.3458  2.9753
  240MOL0     H32346  10.416   4.232   9.687 -2.2100 -1.2884 -0.0858
  240MOL0     H32347  10.634   4.189   9.571 -0.1681  1.2230  0.1741
  240MOL0     H32348  10.632   4.289   9.713  0.3189  0.2560 -0.7919
  240MOL0     H32349  10.712   3.994   9.707  1.6292  0.7607 -0.8565
  240MOL0     H32350  10.701   4.088   9.852 -0.1380  1.9490  1.4070
  240MOL0     H32351  10.858   4.140   9.489  1.4820  0.0881 -1.5147
  240MOL0     H32352  11.233   4.231   9.527 -0.5679 -0.4662  0.2493
  240MOL0     H32353  11.117   4.152   9.410 -2.1783  1.1926 -1.2179
  240MOL0     H32354  11.048   4.426   9.495 -2.6045  0.0791 -0.6541
  240MOL0     H32355  11.020   4.351   9.336  0.8866 -0.2027 -0.6620
  240MOL0     H32356  11.304   4.412   9.430 -1.5621  3.2256  1.6627
  240MOL0     H32357  11.202   4.525   9.344 -1.9049  0.2514  1.5390
  240MOL0     H32358  11.177   4.340   9.162  0.1233 -0.3922 -0.8988
  240MOL0     H32359  11.314   4.260   9.258 -0.5553 -1.7246 -4.6844
  240MOL0     H32360  11.239   4.631   9.075 -2.2035 -1.3382 -0.4903
  240MOL0     H32361  11.170   4.791   8.875  0.2703  0.1844 -0.0827
  240MOL0     H32362  11.201   4.736   8.721 -0.2363 -0.8479 -0.4512
  240MOL0     H32363  11.062   4.661   8.808  0.0497 -0.0484  1.2750
  240MOL0     H32364  10.914   4.539   8.508  0.3448 -3.1483 -0.2753
  240MOL0     H32365  10.821   4.509   8.268  0.6504  0.6649 -0.6023
  240MOL0     H32366  11.053   4.326   8.032  3.8789 -0.1277 -4.7067
  240MOL0     H32367  10.911   4.351   7.940  1.3487 -1.1563 -0.7214
  240MOL0     H32368  11.186   4.476   7.888 -0.4624  1.0116  2.4437
  240MOL0     H32369  11.097   4.357   7.793 -0.4556  1.7405 -2.7778
  240MOL0     H32370  11.103   4.592   7.703  1.1158 -0.4928  0.7628
  240MOL0     H32371  11.020   4.648   7.851 -0.1607  0.3227 -0.1267
  240MOL0     H32372  10.889   4.437   7.668 -1.3989  0.2830  0.1566
  240MOL0     H32373  10.811   4.534   7.786  2.2056 -0.1313  2.4198
  240MOL0     H32374  10.956   4.702   7.577  0.0016  0.2707  2.7778
  240MOL0     H32375  10.788   4.705   7.627  1.2578  2.3398 -1.9645
  240MOL0     H32376  10.942   4.525   7.426  0.4119  1.5677 -2.9306
  240MOL0     H32377  10.787   4.474   7.476  1.5221 -0.0971  1.0863
  240MOL0     H32378  10.839   4.737   7.360  0.8726  0.3684 -2.8950
  240MOL0     H32379  10.683   4.665   7.374  1.8148  1.4617  3.4393
  240MOL0     H32380  10.915   4.577   7.195 -0.4341 -0.5232  0.6909
  240MOL0     H32381  10.771   4.651   7.136 -1.6151  1.6782  1.7997
  240MOL0     H32382  11.206   4.578   8.114  0.9060 -0.4851  0.7407
  240MOL0     H32383  11.312   4.576   8.339  0.5108 -2.1649 -0.8640
  240MOL0     H32384  11.427   4.320   8.743 -0.6611 -2.2807  1.4856
  240MOL0     H32385  11.487   4.306   8.986 -0.0319  0.2209 -0.1002
  240MOL0     H32386   9.798   4.170   9.990  2.4977 -1.8741  1.0285
  240MOL0     H32387   9.559   4.224  10.060 -1.5515 -0.9942  0.9260
  240MOL0     H32388   9.140   4.149  10.040 -2.6891 -0.4113 -0.6188
  240MOL0     H32389   8.919   4.230  10.067 -0.0652 -1.8401 -0.4838
  240MOL0     H32390   8.707   4.244  10.189  2.3719 -0.7149 -0.0162
  240MOL0     H32391   8.629   4.366  10.289 -0.0080  0.3848 -0.2950
  240MOL0     H32392   8.819   4.462  10.071  0.6243  1.9044  0.8285
  240MOL0     H32393   8.711   4.552  10.156  2.2481 -0.2712  1.7401
  240MOL0     H32394   8.607   4.535   9.949 -0.6551  0.1098  0.9574
  240MOL0     H32395   8.520   4.395  10.009 -1.0811 -1.2415 -0.5848
  240MOL0     H32396   8.571   4.342   9.797  0.3104  2.9762 -2.2520
  240MOL0     H32397   8.690   4.248   9.896 -2.7631 -1.2773 -2.7819
  240MOL0     H32398   8.934   4.547   9.701  0.2613 -0.2437 -1.0198
  240MOL0     H32399   9.026   4.365  10.461  3.6609  1.0561  0.7680
  240MOL0     H32400   9.253   4.287  10.429 -2.2160  1.2960  0.5032
  241MOL0     O32401   2.299   1.299   5.740  0.8721  0.1025  0.9229
  241MOL0     C32402   2.351   1.309   5.632  0.2895  0.7889  0.1694
  241MOL0     O32403   2.289   1.307   5.504  0.1720 -0.1793  0.0598
  241MOL0     C32404   2.161   1.264   5.508 -0.0526 -0.7760 -0.5238
  241MOL0     C32405   2.132   1.128   5.500  0.3815  0.1400  0.9753
  241MOL0     C32406   1.999   1.085   5.498 -0.0951  0.2439 -0.1080
  241MOL0     C32407   1.890   1.188   5.510 -0.8116  0.7170  0.4428
  241MOL0     O32408   1.769   1.129   5.520  0.3062  0.1314 -0.5149
  241MOL0     C32409   1.648   1.202   5.541 -1.0540 -0.2706 -0.2832
  241MOL0     C32410   1.534   1.101   5.534 -0.4507  0.3444 -1.0250
  241MOL0     C32411   1.549   0.977   5.621  0.5587 -1.0827  0.5177
  241MOL0     C32412   1.423   0.905   5.607  0.2257  0.6048 -0.3309
  241MOL0     C32413   1.422   0.795   5.721 -0.2981  0.1079  0.3330
  241MOL0     C32414   1.313   0.692   5.710  0.5558 -0.8096 -0.4463
  241MOL0     C32415   1.338   0.598   5.588  0.3857  0.3906  0.5696
  241MOL0     C32416   1.226   0.491   5.576 -0.3206 -1.3347 -0.7999
  241MOL0     N32417   1.091   0.548   5.561  0.2727  0.0128 -0.2614
  241MOL0     C32418   0.984   0.522   5.646 -0.2023 -0.6185  0.8024
  241MOL0     C32419   0.883   0.583   5.582  0.3712  0.7657 -0.6399
  241MOL0     C32420   0.752   0.510   5.597 -0.3379 -0.3937 -0.4405
  241MOL0     C32421   0.760   0.367   5.527 -0.0486  0.7087  0.3334
  241MOL0     C32422   0.623   0.297   5.524  0.5619 -0.1632 -1.0162
  241MOL0     C32423   0.586   0.236   5.657 -0.0921  0.2253 -0.1456
  241MOL0     O32424   0.539   0.344   5.730  0.2208  0.6993  0.0041
  241MOL0     C32425   0.482   0.337   5.856  0.1476  0.1403 -0.3184
  241MOL0     C32426   0.462   0.464   5.910 -0.0548  0.0707 -0.3736
  241MOL0     C32427   0.394   0.474   6.033  0.2379 -0.3433 -0.0251
  241MOL0     C32428   0.357   0.610   6.075 -0.1657  0.2627 -0.8161
  241MOL0     C32429   0.361   0.362   6.112  0.0628  0.1411 -0.6858
  241MOL0     C32430   0.275   0.342   6.237 -0.1075 -0.0993  0.7547
  241MOL0     O32431   0.282   0.225   6.307 -0.3807 -0.8251  0.0290
  241MOL0     C32432   0.186   0.209   6.402  0.5587 -0.4742 -0.2805
  241MOL0     C32433   0.222   0.227   6.534 -0.5195  0.1001  0.1405
  241MOL0     C32434   0.121   0.198   6.630  0.5615 -0.0863  0.4935
  241MOL0     C32435  -0.014   0.151   6.591 -0.3668 -0.5794 -0.3474
  241MOL0     O32436  -0.121   0.115   6.674 -0.8079 -0.1310  0.3277
  241MOL0     C32437  -0.114   0.159   6.809  0.4554  0.2554  0.4553
  241MOL0     C32438  -0.238   0.108   6.888 -0.4230  0.6170 -0.5143
  241MOL0     C32439  -0.369   0.174   6.846  0.3561  0.7427 -0.4075
  241MOL0     C32440  -0.471   0.149   6.965  0.5857  0.4149  0.3913
  241MOL0     C32441  -0.618   0.178   6.940  0.0685 -0.0091  1.2448
  241MOL0     C32442  -0.701   0.176   7.070  0.4981 -0.4590 -0.6215
  241MOL0     C32443  -0.852   0.176   7.031 -0.1069 -0.1326 -0.0043
  241MOL0     C32444  -0.956   0.205   7.138 -0.2837  0.5570  0.0422
  241MOL0    Cl32445  -0.959   0.081   7.267 -0.0001  0.1292  0.3061
  241MOL0     C32446  -0.036   0.121   6.461 -0.5826  0.2529  0.3580
  241MOL0     C32447   0.060   0.158   6.368  0.8089 -0.6570  0.8292
  241MOL0     O32448   0.216   0.445   6.285  0.6393 -0.2386  0.3309
  241MOL0     C32449   0.415   0.240   6.066  0.0867  1.0998  0.1013
  241MOL0     C32450   0.459   0.224   5.928  0.2514  0.5932 -0.2382
  241MOL0     N32451   0.936   0.652   5.477 -0.1677 -2.1393  0.1281
  241MOL0     N32452   1.061   0.641   5.473  1.6667  0.0478  0.4317
  241MOL0     C32453   1.918   1.322   5.520 -0.7612  0.6943 -0.3181
  241MOL0     C32454   2.054   1.356   5.517  0.5203 -0.1031 -0.2354
  241MOL0     C32455   2.492   1.356   5.639  0.0237  0.2896  0.0359
  241MOL0     C32456   2.562   1.382   5.519  0.6433  0.0929 -0.6735
  241MOL0     C32457   2.701   1.415   5.529  0.7526 -0.3275  0.3160
  241MOL0     C32458   2.766   1.427   5.656 -0.0212  0.7946 -0.5424
  241MOL0     O32459   2.893   1.472   5.679 -0.1795 -0.1681 -0.4297
  241MOL0     C32460   2.929   1.602   5.656  0.6906 -0.2790  0.9625
  241MOL0     C32461   3.081   1.592   5.614 -0.1177  0.1120 -0.2910
  241MOL0     C32462   3.154   1.725   5.645 -0.1142  0.0413  0.6819
  241MOL0     C32463   3.284   1.736   5.563  0.0298  0.6693  0.5882
  241MOL0     C32464   3.342   1.865   5.604 -0.5379  0.2524 -0.5395
  241MOL0     C32465   3.413   1.963   5.632  0.0049  0.1220  0.1252
  241MOL0     C32466   2.695   1.397   5.773  0.0495 -0.4370 -0.6875
  241MOL0     C32467   2.561   1.354   5.768 -0.1600  0.2376 -0.0798
  241MOL0     H32468   2.217   1.062   5.488  0.5653  0.8178 -2.1913
  241MOL0     H32469   1.973   0.980   5.505 -0.8698  0.5154  1.5487
  241MOL0     H32470   1.651   1.242   5.643 -1.1745  0.4226 -0.5418
  241MOL0     H32471   1.624   1.276   5.464 -0.1922 -2.5393 -2.8765
  241MOL0     H32472   1.442   1.157   5.552 -1.8261 -1.1846 -2.8838
  241MOL0     H32473   1.532   1.074   5.428  0.3382 -0.6286 -0.8092
  241MOL0     H32474   1.634   0.913   5.594  1.0982  0.5851 -2.1659
  241MOL0     H32475   1.557   1.002   5.727 -1.1283  0.9845  0.2126
  241MOL0     H32476   1.327   0.956   5.624  0.1731  0.8964 -1.4663
  241MOL0     H32477   1.424   0.848   5.514 -2.7420  4.7527 -3.2603
  241MOL0     H32478   1.517   0.740   5.728 -1.4143 -2.0687 -0.5653
  241MOL0     H32479   1.405   0.846   5.816 -1.8935  0.4950 -0.1340
  241MOL0     H32480   1.289   0.628   5.795  0.2304 -2.5130 -1.7631
  241MOL0     H32481   1.227   0.758   5.691  0.9767  0.5013  1.8402
  241MOL0     H32482   1.333   0.650   5.492 -0.5346 -2.7575 -1.2163
  241MOL0     H32483   1.436   0.551   5.596  0.1197 -0.2922 -0.1140
  241MOL0     H32484   1.225   0.425   5.664 -0.8838  0.0122  0.2420
  241MOL0     H32485   1.251   0.428   5.490  2.1035 -0.2669 -0.9510
  241MOL0     H32486   0.981   0.439   5.715 -0.7264 -1.1984  0.1075
  241MOL0     H32487   0.736   0.500   5.705 -3.6792  1.5834 -0.6168
  241MOL0     H32488   0.680   0.572   5.544  2.6338  2.0682 -1.9217
  241MOL0     H32489   0.832   0.311   5.588 -1.5495 -1.7284 -0.0381
  241MOL0     H32490   0.795   0.368   5.423 -2.4468  2.3451 -0.5511
  241MOL0     H32491   0.630   0.216   5.452  1.7704 -0.3429 -0.7171
  241MOL0     H32492   0.545   0.366   5.489 -1.1788 -2.7167 -2.5020
  241MOL0     H32493   0.673   0.188   5.703 -0.5320 -1.7295 -1.2518
  241MOL0     H32494   0.501   0.170   5.640 -0.6643  1.2695 -1.4980
  241MOL0     H32495   0.488   0.551   5.850 -3.4260  2.4318  1.2868
  241MOL0     H32496   0.250   0.632   6.063 -0.9546 -1.6076  1.7617
  241MOL0     H32497   0.392   0.634   6.176 -0.5384 -1.8430 -0.1399
  241MOL0     H32498   0.413   0.684   6.018 -0.7141  0.3567 -1.2424
  241MOL0     H32499   0.326   0.251   6.552  1.5697 -5.6237 -1.9821
  241MOL0     H32500   0.149   0.219   6.733 -0.5224  2.2005  0.3878
  241MOL0     H32501  -0.021   0.133   6.860  0.2004  0.1523  0.8702
  241MOL0     H32502  -0.131   0.267   6.820 -2.0697 -0.2914  3.5126
  241MOL0     H32503  -0.243  -0.002   6.885 -1.2755  0.4801  2.6300
  241MOL0     H32504  -0.213   0.144   6.988  3.5201 -2.8604  0.0524
  241MOL0     H32505  -0.404   0.133   6.751  0.1215 -4.0589  1.4523
  241MOL0     H32506  -0.355   0.280   6.823 -0.1872  0.6720 -1.0925
  241MOL0     H32507  -0.466   0.043   6.989  0.1865  0.1477 -0.6692
  241MOL0     H32508  -0.426   0.201   7.050  1.2808  1.1047 -0.3806
  241MOL0     H32509  -0.649   0.102   6.867  1.7151  1.7433 -1.4658
  241MOL0     H32510  -0.641   0.274   6.894 -1.2653 -0.0948  1.6808
  241MOL0     H32511  -0.681   0.089   7.133 -2.7276 -1.9935 -1.5075
  241MOL0     H32512  -0.673   0.267   7.125  1.0627  0.3259 -2.1463
  241MOL0     H32513  -0.868   0.075   6.993  0.9676 -0.1037 -0.5765
  241MOL0     H32514  -0.876   0.248   6.952  1.5295  1.3415  0.7674
  241MOL0     H32515  -1.058   0.211   7.100 -0.7295  3.1750  1.4871
  241MOL0     H32516  -0.931   0.303   7.180  0.8924 -0.3416  1.5641
  241MOL0     H32517  -0.130   0.084   6.420  0.0172 -1.6960  0.6561
  241MOL0     H32518   0.039   0.140   6.263 -1.8724 -3.8683  1.7429
  241MOL0     H32519   0.402   0.142   6.112  2.4118  0.5449 -0.3326
  241MOL0     H32520   0.484   0.127   5.885 -1.7576 -0.8332  1.6043
  241MOL0     H32521   1.837   1.394   5.519 -0.9148  0.5493  0.6347
  241MOL0     H32522   2.076   1.462   5.513 -1.2013  0.2315 -1.8223
  241MOL0     H32523   2.520   1.380   5.419  1.4375 -0.3913 -1.0066
  241MOL0     H32524   2.762   1.435   5.442  2.1026  2.0044  1.7032
  241MOL0     H32525   2.876   1.655   5.576 -1.9506  0.0216  2.7858
  241MOL0     H32526   2.909   1.666   5.742 -0.2357  0.1670  0.4249
  241MOL0     H32527   3.085   1.558   5.510 -3.3118 -2.5735  0.2991
  241MOL0     H32528   3.135   1.520   5.676 -0.1112  0.7328  0.4327
  241MOL0     H32529   3.166   1.741   5.752 -0.1174  1.7802  0.4438
  241MOL0     H32530   3.089   1.805   5.608  0.3238  0.1299  0.0933
  241MOL0     H32531   3.254   1.727   5.458  0.5538  2.3371  0.2726
  241MOL0     H32532   3.356   1.655   5.582 -0.3633 -0.0552 -0.8860
  241MOL0     H32533   3.485   2.040   5.648  2.6277 -2.2295  0.4035
  241MOL0     H32534   2.744   1.394   5.870 -2.0718 -1.7655  0.4262
  241MOL0     H32535   2.509   1.322   5.858 -1.2422 -0.2023 -0.8316
  242MOL0     O32536   9.866   9.521   2.900 -0.4129  0.2171 -0.3966
  242MOL0     C32537   9.949   9.430   2.878 -0.7143 -0.1392  0.7440
  242MOL0     O32538   9.927   9.292   2.901 -0.4299 -0.4581  0.0547
  242MOL0     C32539   9.802   9.243   2.926 -0.5102 -0.1351  1.1553
  242MOL0     C32540   9.752   9.134   2.849 -0.6574 -0.5924 -0.3017
  242MOL0     C32541   9.625   9.082   2.875 -0.2282  0.5292 -0.1809
  242MOL0     C32542   9.544   9.137   2.979 -0.6404 -0.4667 -0.4241
  242MOL0     O32543   9.413   9.113   3.010  0.3697 -0.4111 -0.1299
  242MOL0     C32544   9.331   9.083   2.898  0.2753  0.4011  0.4981
  242MOL0     C32545   9.191   9.087   2.948 -0.1724  0.3401 -0.2246
  242MOL0     C32546   9.107   9.010   2.843 -0.0234  0.0701  0.2938
  242MOL0     C32547   8.961   9.038   2.875  0.8104 -0.1093 -0.3314
  242MOL0     C32548   8.864   8.955   2.801  0.4917  0.3883 -0.5948
  242MOL0     C32549   8.723   8.986   2.851 -0.9606 -0.3265 -0.2055
  242MOL0     C32550   8.613   8.959   2.742 -0.6671  0.1065 -0.5367
  242MOL0     C32551   8.478   9.015   2.766  0.0145 -0.2716 -0.4631
  242MOL0     N32552   8.394   8.955   2.870  0.4269  0.5932 -0.4111
  242MOL0     C32553   8.398   8.991   3.004  0.7094 -0.1013  0.6965
  242MOL0     C32554   8.286   8.945   3.065 -0.5475 -0.1711  0.1190
  242MOL0     C32555   8.248   8.965   3.210  1.0224 -0.5643  0.7429
  242MOL0     C32556   8.326   8.887   3.312 -0.3966 -0.1996  0.0647
  242MOL0     C32557   8.270   8.919   3.446 -0.6211 -0.2097 -0.4317
  242MOL0     C32558   8.360   8.858   3.546  0.5848  0.5341 -0.1406
  242MOL0     O32559   8.488   8.928   3.547 -0.8346 -0.1160 -0.7073
  242MOL0     C32560   8.579   8.896   3.645 -0.2427  0.5417 -0.0704
  242MOL0     C32561   8.559   8.790   3.735 -0.7505  0.7873 -0.3852
  242MOL0     C32562   8.669   8.739   3.814  0.8928  0.0684 -0.0258
  242MOL0     C32563   8.637   8.621   3.901  0.3047  0.3783 -0.0956
  242MOL0     C32564   8.796   8.800   3.798  0.3532 -1.0747  0.3592
  242MOL0     C32565   8.924   8.750   3.865  0.3617  0.4491  0.1289
  242MOL0     O32566   9.036   8.828   3.824  0.1893  0.7141 -0.3093
  242MOL0     C32567   9.155   8.764   3.836  0.7090  0.3139 -0.4955
  242MOL0     C32568   9.222   8.741   3.715 -0.1255 -0.0439  0.7430
  242MOL0     C32569   9.342   8.676   3.717 -0.4092 -1.1783 -0.8391
  242MOL0     C32570   9.397   8.623   3.833  0.7718  0.4761 -0.0379
  242MOL0     O32571   9.502   8.540   3.808  0.1920 -0.3824  0.0828
  242MOL0     C32572   9.491   8.422   3.880 -0.5939 -0.4710  0.1113
  242MOL0     C32573   9.503   8.292   3.790 -0.2559  0.1946  1.0330
  242MOL0     C32574   9.658   8.271   3.777 -0.6790 -0.8097 -0.8572
  242MOL0     C32575   9.677   8.154   3.677 -0.2709  0.3628  0.7326
  242MOL0     C32576   9.820   8.157   3.618 -0.5383  0.1390 -0.4425
  242MOL0     C32577   9.925   8.125   3.721 -0.1350 -0.2097 -0.2464
  242MOL0     C32578  10.064   8.118   3.654 -0.0383 -0.9387 -0.9485
  242MOL0     C32579  10.157   8.029   3.738  0.3462  0.4507 -0.7127
  242MOL0    Cl32580  10.092   7.868   3.759 -0.0247 -0.0664  0.0589
  242MOL0     C32581   9.336   8.653   3.953 -0.0703 -1.2679 -0.5288
  242MOL0     C32582   9.213   8.720   3.959  0.0305  0.2468 -0.1711
  242MOL0     O32583   8.936   8.651   3.930  0.1858  0.0400  0.0664
  242MOL0     C32584   8.804   8.920   3.719  0.0583  0.7390  1.1402
  242MOL0     C32585   8.700   8.956   3.636  0.2315  0.2186  0.3034
  242MOL0     N32586   8.220   8.874   2.968 -0.8691 -0.1335  0.2974
  242MOL0     N32587   8.285   8.874   2.851 -0.1047 -0.5778  0.5212
  242MOL0     C32588   9.603   9.241   3.056  0.3462 -0.2616 -0.4733
  242MOL0     C32589   9.725   9.298   3.030 -0.3894 -0.0544 -0.5327
  242MOL0     C32590  10.080   9.464   2.822 -0.5120  0.0681  0.6575
  242MOL0     C32591  10.187   9.371   2.800  0.1293 -0.3501 -0.3282
  242MOL0     C32592  10.301   9.415   2.739  0.4141 -0.0681 -0.2285
  242MOL0     C32593  10.319   9.550   2.702 -0.7922  0.4832  0.2392
  242MOL0     O32594  10.435   9.589   2.636 -0.0553 -0.4165  0.1918
  242MOL0     C32595  10.480   9.509   2.530  0.3210 -0.5425  0.3433
  242MOL0     C32596  10.572   9.597   2.446  0.5080 -0.2451  0.0127
  242MOL0     C32597  10.491   9.671   2.336 -0.8438  0.0316 -0.1195
  242MOL0     C32598  10.496   9.579   2.207 -0.2583  0.2089  0.0512
  242MOL0     C32599  10.435   9.662   2.103 -0.7640  0.5665  0.3203
  242MOL0     C32600  10.366   9.728   2.026 -1.4075 -0.0446 -0.4348
  242MOL0     C32601  10.224   9.640   2.728 -0.0461  0.4397 -0.0233
  242MOL0     C32602  10.101   9.596   2.784 -0.5973  0.9856  0.1049
  242MOL0     H32603   9.806   9.095   2.764 -1.5864 -0.5241 -0.9438
  242MOL0     H32604   9.583   9.002   2.814  1.3085 -0.6191  0.2018
  242MOL0     H32605   9.338   9.156   2.818 -0.4186  0.2394  0.2905
  242MOL0     H32606   9.346   8.981   2.860  2.2829 -0.2865  2.8008
  242MOL0     H32607   9.174   9.040   3.045  1.5017 -2.4147 -1.1297
  242MOL0     H32608   9.158   9.191   2.948 -1.1709  0.0510  1.3253
  242MOL0     H32609   9.131   9.038   2.740  1.0000 -3.1128 -0.4602
  242MOL0     H32610   9.118   8.901   2.837 -3.6893 -0.3678 -0.7827
  242MOL0     H32611   8.949   9.014   2.981  1.2409 -1.1757 -0.5048
  242MOL0     H32612   8.935   9.143   2.858 -2.5672 -0.6636  0.7924
  242MOL0     H32613   8.860   8.973   2.694 -5.8554 -0.8241 -0.9771
  242MOL0     H32614   8.887   8.849   2.819  0.3239  0.8967  3.7235
  242MOL0     H32615   8.713   8.935   2.948  2.8934  1.2165  1.2052
  242MOL0     H32616   8.715   9.093   2.873  0.2541 -0.9163  3.9840
  242MOL0     H32617   8.648   8.984   2.642 -2.2703 -0.3052 -1.2388
  242MOL0     H32618   8.587   8.853   2.733 -1.1835  0.3909 -3.0803
  242MOL0     H32619   8.438   9.002   2.665  2.7124 -0.4179 -1.5805
  242MOL0     H32620   8.482   9.122   2.788 -1.7025 -0.2767  0.0551
  242MOL0     H32621   8.472   9.053   3.053  1.7576 -0.1993 -0.7048
  242MOL0     H32622   8.252   9.072   3.235  0.3469 -0.7005  1.4803
  242MOL0     H32623   8.142   8.941   3.217  0.7147  0.9850  5.8528
  242MOL0     H32624   8.432   8.911   3.304 -0.9224  2.1357 -0.6348
  242MOL0     H32625   8.311   8.781   3.289 -0.6922 -0.5808  1.8927
  242MOL0     H32626   8.170   8.874   3.450  0.0312 -1.5887  0.8639
  242MOL0     H32627   8.254   9.027   3.450  1.7350  0.1548  0.4572
  242MOL0     H32628   8.384   8.753   3.525  0.6216 -0.0859  2.6028
  242MOL0     H32629   8.306   8.871   3.640  1.0956  1.8537 -0.0065
  242MOL0     H32630   8.460   8.746   3.740 -0.8781  0.7533 -2.3570
  242MOL0     H32631   8.529   8.624   3.917  0.0244  1.2171 -1.8480
  242MOL0     H32632   8.665   8.535   3.839 -0.8212 -0.6105  0.7196
  242MOL0     H32633   8.687   8.631   3.997 -0.8207  0.1823  0.5305
  242MOL0     H32634   9.195   8.770   3.614 -0.9693  3.1643  1.7704
  242MOL0     H32635   9.401   8.676   3.626  2.8674  1.5923  1.0638
  242MOL0     H32636   9.564   8.437   3.960 -2.9710  1.7964  2.0569
  242MOL0     H32637   9.400   8.410   3.940  1.0481 -1.8788  2.5105
  242MOL0     H32638   9.457   8.205   3.837 -0.4859  0.5517  1.4760
  242MOL0     H32639   9.463   8.318   3.692 -0.1651  2.2106  1.4844
  242MOL0     H32640   9.701   8.247   3.875 -2.9289 -0.8509  0.1592
  242MOL0     H32641   9.707   8.360   3.737  0.1682 -0.7387  0.2896
  242MOL0     H32642   9.651   8.061   3.727  1.8862 -0.3625  0.6177
  242MOL0     H32643   9.607   8.177   3.596 -1.9403  0.5099  2.1692
  242MOL0     H32644   9.836   8.256   3.575  0.2922  1.3468  2.4064
  242MOL0     H32645   9.820   8.081   3.539 -3.6328  2.4068 -2.8609
  242MOL0     H32646   9.932   8.193   3.806 -1.0971  0.0741 -0.3848
  242MOL0     H32647   9.890   8.030   3.764 -1.0902  1.5759  3.2568
  242MOL0     H32648  10.107   8.219   3.658  2.4430 -1.9950  1.8286
  242MOL0     H32649  10.049   8.084   3.551  0.4359 -1.3553 -0.8768
  242MOL0     H32650  10.175   8.065   3.840  2.9670 -0.4706 -0.7967
  242MOL0     H32651  10.249   8.021   3.680  0.3885  0.3275 -0.6291
  242MOL0     H32652   9.395   8.621   4.038  0.1165  1.3882  0.4187
  242MOL0     H32653   9.166   8.717   4.057 -1.3869 -1.7334 -0.8553
  242MOL0     H32654   8.895   8.976   3.701 -0.0678  0.5530 -0.1550
  242MOL0     H32655   8.719   9.050   3.585  2.6374  1.2985  2.8985
  242MOL0     H32656   9.544   9.274   3.140  0.7773 -3.8371  1.4268
  242MOL0     H32657   9.764   9.379   3.091 -0.1233  0.6076 -1.5369
  242MOL0     H32658  10.181   9.266   2.825  2.6439 -0.4935 -0.0479
  242MOL0     H32659  10.382   9.346   2.718  0.9083 -0.3694  2.3688
  242MOL0     H32660  10.521   9.414   2.566 -1.4768 -1.7958 -0.7175
  242MOL0     H32661  10.398   9.477   2.466 -0.2713 -1.4307  1.5017
  242MOL0     H32662  10.649   9.530   2.406  1.8271  0.9533  0.4823
  242MOL0     H32663  10.627   9.670   2.505  0.7026 -2.3003  2.5342
  242MOL0     H32664  10.547   9.761   2.309 -1.0984  0.3544  0.4200
  242MOL0     H32665  10.390   9.691   2.372 -0.4263 -0.3939  1.3589
  242MOL0     H32666  10.451   9.480   2.218  1.4519 -0.6414 -0.2876
  242MOL0     H32667  10.597   9.556   2.172  0.3395 -0.1110  1.8375
  242MOL0     H32668  10.295   9.796   1.983 -0.8710  0.4964 -0.4798
  242MOL0     H32669  10.232   9.743   2.698  0.3714  0.4407  0.0882
  242MOL0     H32670  10.030   9.676   2.802  0.3218  1.2986  2.7416
  243MOL0     O32671   4.825   2.633   2.546 -0.0511  0.5835 -0.3867
  243MOL0     C32672   4.779   2.649   2.658  0.4295  0.2092  0.3620
  243MOL0     O32673   4.832   2.707   2.766  0.2033  0.0868  0.6100
  243MOL0     C32674   4.956   2.772   2.768  0.4761 -0.0144  0.1810
  243MOL0     C32675   5.028   2.743   2.882  0.0683  0.1031 -0.2734
  243MOL0     C32676   5.144   2.816   2.906  0.3454 -0.2140 -0.4739
  243MOL0     C32677   5.193   2.895   2.806  0.6036  0.0954  0.2826
  243MOL0     O32678   5.318   2.953   2.806 -0.4060  0.5456  1.1693
  243MOL0     C32679   5.360   3.026   2.927 -0.3038  0.9482  0.3856
  243MOL0     C32680   5.484   3.104   2.899  0.4433 -0.1383 -0.9014
  243MOL0     C32681   5.609   3.020   2.926 -0.1233  0.3572  0.5357
  243MOL0     C32682   5.732   3.095   2.864 -0.0178 -0.5423  0.3654
  243MOL0     C32683   5.852   2.998   2.875  0.4908 -0.2934 -0.4700
  243MOL0     C32684   5.985   3.047   2.819  0.1613 -0.5726  1.0315
  243MOL0     C32685   6.046   3.172   2.894  0.2147  0.1983 -0.3755
  243MOL0     C32686   6.195   3.199   2.872  0.6189 -0.6693  0.3548
  243MOL0     N32687   6.235   3.218   2.732  0.2984 -0.3480  0.1849
  243MOL0     C32688   6.177   3.309   2.639  0.3397  0.2460  0.7901
  243MOL0     C32689   6.256   3.304   2.532  0.2533  0.1524  0.3697
  243MOL0     C32690   6.247   3.388   2.406 -0.1999  1.0129  0.2146
  243MOL0     C32691   6.130   3.355   2.318  0.3619  0.1495  0.0348
  243MOL0     C32692   6.113   3.460   2.199  0.5440  0.0147  1.0910
  243MOL0     C32693   6.003   3.432   2.097  0.1666 -0.0077 -1.4443
  243MOL0     O32694   5.887   3.389   2.172  0.1310  0.5480  0.0665
  243MOL0     C32695   5.791   3.320   2.094 -0.2550 -0.2207 -0.0466
  243MOL0     C32696   5.671   3.276   2.157  0.2093  0.1678  0.1869
  243MOL0     C32697   5.561   3.231   2.083  0.5209  0.8759 -0.5962
  243MOL0     C32698   5.438   3.187   2.155 -0.1135  0.0564 -0.3505
  243MOL0     C32699   5.562   3.226   1.941 -0.8128 -0.2958 -0.6467
  243MOL0     C32700   5.451   3.197   1.853  0.8700  0.8420  0.0993
  243MOL0     O32701   5.449   3.270   1.732 -0.4330  0.0566 -0.8329
  243MOL0     C32702   5.356   3.236   1.639 -0.7353 -0.1816 -0.2745
  243MOL0     C32703   5.334   3.097   1.593 -0.0443 -0.8726  0.0733
  243MOL0     C32704   5.231   3.079   1.504 -0.6097 -0.4215  0.6287
  243MOL0     C32705   5.161   3.180   1.441 -0.9454 -0.4006 -1.3887
  243MOL0     O32706   5.061   3.155   1.354  0.2849 -0.2015  0.0522
  243MOL0     C32707   5.079   3.235   1.237 -0.1471 -0.4756  0.4569
  243MOL0     C32708   5.020   3.149   1.128 -0.0922  0.5756 -0.4886
  243MOL0     C32709   4.963   3.233   1.013  0.0657 -0.1073  0.7876
  243MOL0     C32710   5.079   3.271   0.922 -0.5702 -0.3707  0.9283
  243MOL0     C32711   5.034   3.382   0.831  0.4229 -0.2539  0.0236
  243MOL0     C32712   5.148   3.419   0.731  0.8976 -0.1747 -0.2539
  243MOL0     C32713   5.246   3.517   0.797 -0.2972 -0.3028  0.5852
  243MOL0     C32714   5.335   3.559   0.685  0.4006 -0.5019  0.4670
  243MOL0    Cl32715   5.469   3.657   0.756 -0.0885  0.4690  0.2459
  243MOL0     C32716   5.201   3.314   1.471  0.2537  0.3111 -0.3763
  243MOL0     C32717   5.301   3.343   1.563 -0.3687 -0.2429 -0.4360
  243MOL0     O32718   5.360   3.111   1.889  0.6022  0.0069 -0.4152
  243MOL0     C32719   5.684   3.270   1.880  0.5074  0.5647  0.5583
  243MOL0     C32720   5.797   3.306   1.948 -0.7279 -0.0499 -0.9260
  243MOL0     N32721   6.363   3.226   2.564  1.0724 -0.2978 -0.1369
  243MOL0     N32722   6.350   3.177   2.684  0.5290 -0.8057 -0.3281
  243MOL0     C32723   5.118   2.927   2.691  0.0489 -0.4095  0.9589
  243MOL0     C32724   4.993   2.867   2.673 -0.0663 -0.1744 -0.3224
  243MOL0     C32725   4.648   2.588   2.685 -0.2246  0.5030  1.6464
  243MOL0     C32726   4.597   2.564   2.818  0.0153 -0.3713 -0.0925
  243MOL0     C32727   4.482   2.496   2.848  0.4288  0.2331  0.3973
  243MOL0     C32728   4.412   2.438   2.739 -0.6668  0.6977  0.2932
  243MOL0     O32729   4.306   2.350   2.773  0.4812 -0.4161  0.6306
  243MOL0     C32730   4.203   2.370   2.671  0.2334  0.5184  0.2845
  243MOL0     C32731   4.070   2.305   2.727 -0.9137  0.3072 -0.8556
  243MOL0     C32732   3.999   2.407   2.816  0.0237 -0.2576  0.0951
  243MOL0     C32733   3.864   2.367   2.852 -0.0779  0.1736  0.1855
  243MOL0     C32734   3.840   2.248   2.935  0.2108  0.2966 -0.4722
  243MOL0     C32735   3.831   2.153   3.010 -0.4564  0.0279  0.9289
  243MOL0     C32736   4.452   2.473   2.610 -1.3745  0.6245  0.3043
  243MOL0     C32737   4.566   2.542   2.583 -0.9893  0.4291 -0.4989
  243MOL0     H32738   4.992   2.676   2.960  0.9877 -1.7796 -1.3777
  243MOL0     H32739   5.200   2.793   2.996  0.6898 -1.8162 -1.0700
  243MOL0     H32740   5.282   3.100   2.950 -0.6210  0.7850 -0.1564
  243MOL0     H32741   5.387   2.959   3.009  1.3419  0.5946 -0.4159
  243MOL0     H32742   5.477   3.140   2.796 -0.7897  0.3475 -0.6684
  243MOL0     H32743   5.489   3.183   2.974 -0.0648 -2.2077  1.4626
  243MOL0     H32744   5.635   3.010   3.032 -2.9103  0.1263  1.2821
  243MOL0     H32745   5.596   2.916   2.894 -1.9065  0.1550  1.7308
  243MOL0     H32746   5.714   3.117   2.758  1.8261 -1.3139 -0.1335
  243MOL0     H32747   5.748   3.191   2.913  5.4492 -0.9442 -0.1027
  243MOL0     H32748   5.876   2.967   2.977  0.7865 -0.0002 -0.4456
  243MOL0     H32749   5.830   2.900   2.830  1.8658 -1.7689  1.8510
  243MOL0     H32750   6.057   2.968   2.842  0.8949 -0.1073  0.3932
  243MOL0     H32751   5.969   3.064   2.712 -1.1163 -0.6709  1.1842
  243MOL0     H32752   5.979   3.255   2.870 -0.5148 -0.0688  0.6509
  243MOL0     H32753   6.031   3.163   3.002 -2.1406  2.2407 -0.4472
  243MOL0     H32754   6.253   3.121   2.920 -0.6864 -3.3195 -2.0908
  243MOL0     H32755   6.226   3.292   2.920  2.6749 -0.5141 -1.1364
  243MOL0     H32756   6.092   3.374   2.656  0.7423  0.7304  0.9590
  243MOL0     H32757   6.256   3.494   2.434 -1.7180  0.4493  3.3419
  243MOL0     H32758   6.337   3.356   2.353 -2.0400 -3.4829 -0.6365
  243MOL0     H32759   6.036   3.356   2.373  0.3000 -0.4889 -0.0549
  243MOL0     H32760   6.145   3.255   2.275  3.9462  0.3504  0.4566
  243MOL0     H32761   6.207   3.471   2.145 -1.1709  0.3119 -2.0390
  243MOL0     H32762   6.087   3.555   2.247  0.5986  1.7871 -2.1683
  243MOL0     H32763   6.046   3.360   2.026  1.1705 -0.0203 -0.8363
  243MOL0     H32764   5.971   3.520   2.040 -0.5286  1.3022  0.8373
  243MOL0     H32765   5.663   3.280   2.265 -0.2235  1.3982  0.1194
  243MOL0     H32766   5.340   3.210   2.113 -0.9771 -3.1385 -0.3429
  243MOL0     H32767   5.431   3.077   2.160 -2.8116  0.1981  2.4674
  243MOL0     H32768   5.426   3.220   2.259 -2.0774 -0.4365 -0.3829
  243MOL0     H32769   5.393   3.009   1.616  0.3440 -1.4804 -2.9250
  243MOL0     H32770   5.213   2.975   1.477  0.2838 -0.8279  1.5314
  243MOL0     H32771   5.020   3.327   1.240 -1.5134 -1.2862 -0.3592
  243MOL0     H32772   5.185   3.255   1.217  0.2845 -2.9045  0.0342
  243MOL0     H32773   5.099   3.089   1.083 -1.9759 -2.2934 -0.2455
  243MOL0     H32774   4.948   3.079   1.171  1.7089 -2.9491 -2.7370
  243MOL0     H32775   4.919   3.326   1.050  2.4757  2.9667 -3.2189
  243MOL0     H32776   4.886   3.185   0.952  1.7281  1.0999 -2.4655
  243MOL0     H32777   5.169   3.305   0.975  0.5119  1.1976 -1.6882
  243MOL0     H32778   5.106   3.186   0.859  0.0793  1.4866 -1.4592
  243MOL0     H32779   5.007   3.467   0.893 -1.0521 -0.3927 -0.4034
  243MOL0     H32780   4.940   3.354   0.782  0.1353  1.1730 -0.2717
  243MOL0     H32781   5.203   3.326   0.712 -1.8879 -1.6857 -1.5559
  243MOL0     H32782   5.109   3.467   0.642  0.0621 -1.9569 -0.9026
  243MOL0     H32783   5.301   3.463   0.875 -1.9504 -1.0989  1.2486
  243MOL0     H32784   5.187   3.600   0.837 -2.2765 -2.2970  2.0264
  243MOL0     H32785   5.289   3.626   0.612 -0.3512 -0.3523  1.0681
  243MOL0     H32786   5.383   3.472   0.639  0.1422 -0.0925 -0.5858
  243MOL0     H32787   5.153   3.388   1.408 -0.4087 -0.0237 -0.2700
  243MOL0     H32788   5.330   3.444   1.590  2.2975 -2.0096  4.5399
  243MOL0     H32789   5.687   3.274   1.772 -1.3246 -1.0772  0.3910
  243MOL0     H32790   5.891   3.310   1.893  0.2739 -1.5343  0.5722
  243MOL0     H32791   5.145   3.008   2.624 -3.1687  1.2884  1.5310
  243MOL0     H32792   4.931   2.892   2.587 -0.5885 -0.4814 -0.0394
  243MOL0     H32793   4.662   2.579   2.903 -1.1451 -1.1665  0.9789
  243MOL0     H32794   4.453   2.473   2.950  3.3971  1.3306  1.5976
  243MOL0     H32795   4.174   2.474   2.653 -1.0394 -0.0636 -1.2082
  243MOL0     H32796   4.229   2.323   2.576 -2.3445  0.9799 -0.7064
  243MOL0     H32797   4.109   2.220   2.783  4.7549  2.8617 -0.2617
  243MOL0     H32798   4.006   2.267   2.647  0.4599  0.2815 -1.9659
  243MOL0     H32799   3.989   2.507   2.772  0.1315  0.0281  0.7182
  243MOL0     H32800   4.063   2.428   2.901 -1.2606  2.0798  0.5769
  243MOL0     H32801   3.797   2.361   2.765 -0.2386  0.1989  0.3076
  243MOL0     H32802   3.825   2.451   2.909 -0.7094 -1.1765  1.8406
  243MOL0     H32803   3.799   2.077   3.079 -0.9588  1.8518  2.8230
  243MOL0     H32804   4.403   2.439   2.519  0.9026  1.0684 -1.1650
  243MOL0     H32805   4.588   2.545   2.477 -0.3599 -0.2981 -0.3963
  244MOL0     O32806   7.587   6.663   9.067  0.4000 -0.4336 -0.5058
  244MOL0     C32807   7.576   6.784   9.103 -0.0693 -0.1290 -0.4136
  244MOL0     O32808   7.464   6.849   9.127 -0.2089 -0.5882 -0.1266
  244MOL0     C32809   7.342   6.784   9.118  0.7947  0.5003  1.1389
  244MOL0     C32810   7.301   6.709   9.003  0.5069 -0.7937 -0.5114
  244MOL0     C32811   7.177   6.657   8.991  0.2823  1.2025  0.3715
  244MOL0     C32812   7.091   6.682   9.099 -0.9716  1.0480 -0.5681
  244MOL0     O32813   6.967   6.624   9.086 -0.3035  0.1806  0.2383
  244MOL0     C32814   6.856   6.690   9.153  0.1700  0.8852 -0.0737
  244MOL0     C32815   6.714   6.644   9.096 -0.8022 -0.4497 -0.6788
  244MOL0     C32816   6.600   6.734   9.148 -0.4707 -0.0731  1.4997
  244MOL0     C32817   6.451   6.698   9.102 -1.0127  0.1358  0.2535
  244MOL0     C32818   6.358   6.804   9.141 -0.1361 -0.1042 -0.4091
  244MOL0     C32819   6.215   6.757   9.127  0.2318 -0.1573  1.0898
  244MOL0     C32820   6.150   6.835   9.007  0.0091  0.7714  0.5568
  244MOL0     C32821   5.993   6.846   9.026  0.3139  0.1292  0.7006
  244MOL0     N32822   5.928   6.709   9.013 -0.2224 -0.6037  0.3134
  244MOL0     C32823   5.870   6.623   9.103 -1.6497  0.1750  0.1875
  244MOL0     C32824   5.794   6.545   9.016  0.2360 -0.3409 -0.1810
  244MOL0     C32825   5.709   6.427   9.053 -0.2536  0.5485  0.4807
  244MOL0     C32826   5.590   6.403   8.963  0.3113 -0.0407  0.3734
  244MOL0     C32827   5.509   6.282   8.995  0.6294  0.1803 -0.2659
  244MOL0     C32828   5.418   6.236   8.872 -0.3475  0.9111 -0.4881
  244MOL0     O32829   5.326   6.126   8.908 -0.4381  0.5883 -0.2191
  244MOL0     C32830   5.213   6.155   8.981 -0.6053  0.4205 -0.7211
  244MOL0     C32831   5.133   6.041   9.009 -0.0729  0.7461 -0.6654
  244MOL0     C32832   5.004   6.052   9.061 -0.1590 -0.4869  0.2956
  244MOL0     C32833   4.928   5.926   9.087 -0.2603  0.4785  0.0148
  244MOL0     C32834   4.948   6.179   9.068  1.0988 -0.2835  0.0140
  244MOL0     C32835   4.805   6.202   9.100  1.0446  0.0084  0.7964
  244MOL0     O32836   4.771   6.321   9.165 -0.2003 -0.5521  0.5864
  244MOL0     C32837   4.650   6.330   9.222  0.6835  0.2106 -0.1565
  244MOL0     C32838   4.624   6.266   9.351  0.0086  0.0987  0.8045
  244MOL0     C32839   4.503   6.289   9.417  0.3957  0.1924  0.1522
  244MOL0     C32840   4.395   6.359   9.346 -1.0310 -0.3116 -0.3301
  244MOL0     O32841   4.265   6.372   9.400 -0.5724  0.0003  0.0512
  244MOL0     C32842   4.187   6.247   9.429 -0.7057  0.1175  0.0966
  244MOL0     C32843   4.045   6.280   9.469 -0.6823 -0.5951  0.5048
  244MOL0     C32844   3.964   6.330   9.354  0.4683  0.0775  0.3816
  244MOL0     C32845   3.819   6.364   9.405 -0.3117 -0.6719 -0.3089
  244MOL0     C32846   3.753   6.453   9.303  0.6046 -0.3589  0.6058
  244MOL0     C32847   3.616   6.496   9.342  0.4503  0.8406  0.3126
  244MOL0     C32848   3.516   6.381   9.337 -0.6132 -0.0926  0.1791
  244MOL0     C32849   3.369   6.448   9.338  0.4968  0.5990  0.0582
  244MOL0    Cl32850   3.332   6.534   9.182 -0.3428  0.4803 -0.0287
  244MOL0     C32851   4.424   6.425   9.226  0.2328  0.4002  0.2051
  244MOL0     C32852   4.549   6.412   9.163  0.5531  0.6699 -0.3579
  244MOL0     O32853   4.718   6.118   9.075  0.7693  0.0755  0.0195
  244MOL0     C32854   5.034   6.289   9.051  0.3965  0.0048  0.5534
  244MOL0     C32855   5.170   6.277   9.014 -0.5156  0.0632  0.5913
  244MOL0     N32856   5.818   6.571   8.876  0.0368  0.1359  0.1653
  244MOL0     N32857   5.897   6.674   8.884 -0.7882  0.4804 -0.5841
  244MOL0     C32858   7.130   6.744   9.216  0.3635  0.4595  0.3188
  244MOL0     C32859   7.261   6.788   9.229 -0.8398  0.2449 -0.6736
  244MOL0     C32860   7.704   6.866   9.113 -0.4183  0.1065  0.7741
  244MOL0     C32861   7.822   6.817   9.048  0.1898  0.1658  0.6890
  244MOL0     C32862   7.938   6.892   9.046  0.4989 -0.6335 -0.4053
  244MOL0     C32863   7.944   7.014   9.117 -0.0400 -0.2445  0.2233
  244MOL0     O32864   8.071   7.081   9.120  0.0670  0.3810 -0.1307
  244MOL0     C32865   8.089   7.186   9.211  0.1563  0.1514 -0.2038
  244MOL0     C32866   8.235   7.225   9.202  0.3679 -0.3828 -0.6046
  244MOL0     C32867   8.340   7.155   9.291  0.4941  0.0058  0.3352
  244MOL0     C32868   8.459   7.245   9.308 -0.6911 -0.1681 -0.5348
  244MOL0     C32869   8.554   7.203   9.201 -0.3142 -0.6634 -0.3408
  244MOL0     C32870   8.636   7.171   9.118 -0.6145 -0.6485 -0.7615
  244MOL0     C32871   7.835   7.058   9.184  0.3240  0.1628 -0.0113
  244MOL0     C32872   7.718   6.988   9.192  0.3868  0.1787  0.8230
  244MOL0     H32873   7.375   6.685   8.927 -0.6056 -3.4694 -0.8441
  244MOL0     H32874   7.153   6.594   8.906 -0.2810  2.1159 -0.1638
  244MOL0     H32875   6.860   6.668   9.260  0.0990  0.8433 -0.0801
  244MOL0     H32876   6.857   6.799   9.144 -1.8388  0.8728 -0.8331
  244MOL0     H32877   6.702   6.650   8.987 -2.3565  1.1911 -0.4646
  244MOL0     H32878   6.703   6.539   9.125  0.7586 -0.6005 -0.5141
  244MOL0     H32879   6.607   6.742   9.257  0.9645  1.4152  1.3521
  244MOL0     H32880   6.625   6.834   9.109 -0.3257 -0.0537  1.6389
  244MOL0     H32881   6.435   6.682   8.995 -1.6250 -3.2336  0.7350
  244MOL0     H32882   6.424   6.603   9.150 -0.5588 -0.5558 -0.8122
  244MOL0     H32883   6.376   6.813   9.248 -0.2312 -3.1409 -0.0358
  244MOL0     H32884   6.373   6.895   9.082 -1.2117 -0.4600 -1.2791
  244MOL0     H32885   6.212   6.650   9.101  3.2013 -0.5492  2.0506
  244MOL0     H32886   6.160   6.777   9.219  0.0356  0.0042  0.9388
  244MOL0     H32887   6.182   6.939   8.992 -0.7379  1.1356  1.4038
  244MOL0     H32888   6.171   6.773   8.920 -1.2687 -1.0743  1.5121
  244MOL0     H32889   5.969   6.917   8.947 -1.7611 -1.3229 -0.0683
  244MOL0     H32890   5.964   6.871   9.129 -2.6858 -2.2775  0.6188
  244MOL0     H32891   5.893   6.617   9.209  1.9057 -2.3062 -0.5291
  244MOL0     H32892   5.782   6.345   9.051  2.4445  2.7753  0.6456
  244MOL0     H32893   5.677   6.445   9.156 -1.6362  0.0127  0.1566
  244MOL0     H32894   5.627   6.389   8.861 -0.6132  0.9691 -0.1218
  244MOL0     H32895   5.520   6.487   8.965 -0.7363 -0.8789  3.2597
  244MOL0     H32896   5.442   6.305   9.078 -1.4110  2.1460 -2.2930
  244MOL0     H32897   5.564   6.193   9.026  1.3729  1.3838  2.0823
  244MOL0     H32898   5.477   6.227   8.781  1.8841  0.2551  0.9519
  244MOL0     H32899   5.357   6.323   8.846 -4.0668 -0.8559  1.4528
  244MOL0     H32900   5.175   5.948   8.974 -1.7915  0.6877 -2.7831
  244MOL0     H32901   4.838   5.910   9.027  0.0188 -1.2342  0.0074
  244MOL0     H32902   4.986   5.833   9.080 -0.6331  0.1467  1.0682
  244MOL0     H32903   4.890   5.928   9.190  0.4537 -1.4384  0.3608
  244MOL0     H32904   4.711   6.215   9.390 -0.1686 -1.3690 -0.5980
  244MOL0     H32905   4.476   6.255   9.517 -3.8403  2.0910 -0.1171
  244MOL0     H32906   4.188   6.187   9.338  1.4367  0.0649  0.1010
  244MOL0     H32907   4.223   6.186   9.512 -0.8308  1.1640  0.9498
  244MOL0     H32908   3.990   6.203   9.524 -0.4038 -0.2710  1.2536
  244MOL0     H32909   4.048   6.369   9.533  0.2831 -0.4068  0.2169
  244MOL0     H32910   3.958   6.249   9.281  1.8089  0.6448 -0.3769
  244MOL0     H32911   4.006   6.420   9.309 -3.2811  2.2412  0.8004
  244MOL0     H32912   3.774   6.268   9.431  4.8377 -2.6711  2.9098
  244MOL0     H32913   3.823   6.417   9.500  0.5710  0.6097 -1.0250
  244MOL0     H32914   3.764   6.420   9.199  1.8414 -2.1826  1.2765
  244MOL0     H32915   3.812   6.545   9.300  1.1153 -0.6579 -3.0223
  244MOL0     H32916   3.619   6.529   9.446 -0.3470  0.0315  0.6012
  244MOL0     H32917   3.578   6.571   9.272  0.5775  0.1780 -0.4915
  244MOL0     H32918   3.530   6.315   9.423 -0.8116  4.2058  3.8841
  244MOL0     H32919   3.543   6.313   9.255 -1.2482  0.4436 -0.4892
  244MOL0     H32920   3.354   6.510   9.427 -0.6869 -2.2823  2.0472
  244MOL0     H32921   3.299   6.364   9.347  2.5703 -1.1826  0.3891
  244MOL0     H32922   4.356   6.483   9.165  0.0656 -1.6720 -1.7028
  244MOL0     H32923   4.563   6.448   9.062 -1.5080  1.6863 -0.3438
  244MOL0     H32924   4.991   6.386   9.076  1.4964  0.4229  0.8447
  244MOL0     H32925   5.223   6.371   9.003 -2.4134  1.0782 -0.5753
  244MOL0     H32926   7.054   6.744   9.294  0.4819 -2.0530  0.5332
  244MOL0     H32927   7.281   6.832   9.326 -1.1587 -1.2499  0.0969
  244MOL0     H32928   7.823   6.720   9.001  2.1353  0.3377  0.2952
  244MOL0     H32929   8.024   6.851   8.994 -1.0423 -2.1993 -1.8332
  244MOL0     H32930   8.023   7.267   9.179  0.4216 -0.0470 -1.2762
  244MOL0     H32931   8.068   7.153   9.313  1.7920  2.2407  0.9043
  244MOL0     H32932   8.240   7.333   9.215 -1.6624  0.1288 -3.2066
  244MOL0     H32933   8.277   7.218   9.101  3.0332 -1.2984  0.4545
  244MOL0     H32934   8.369   7.054   9.259  2.8685  0.8683 -0.4407
  244MOL0     H32935   8.300   7.139   9.392  2.5886 -1.4479  0.9888
  244MOL0     H32936   8.511   7.233   9.403  0.3239  0.2609 -1.0230
  244MOL0     H32937   8.429   7.348   9.290  2.3184  0.8447 -0.2814
  244MOL0     H32938   8.709   7.135   9.049  0.7436  1.7801 -0.6875
  244MOL0     H32939   7.845   7.151   9.239 -0.6751  1.4919 -1.9383
  244MOL0     H32940   7.632   7.031   9.243  0.1295 -0.9397  1.3882
  245MOL0     O32941   5.439   4.828   5.259  0.5150 -0.4638  0.8400
  245MOL0     C32942   5.448   4.827   5.138  0.3362 -0.1683 -0.3257
  245MOL0     O32943   5.350   4.770   5.045 -0.8223  0.0982  0.4097
  245MOL0     C32944   5.233   4.719   5.091 -0.4393  0.3802  0.6369
  245MOL0     C32945   5.229   4.631   5.202 -0.6102 -0.2248 -0.5126
  245MOL0     C32946   5.108   4.570   5.249  0.4190 -0.0057  0.5539
  245MOL0     C32947   4.995   4.590   5.162  0.2655 -0.4673  0.2665
  245MOL0     O32948   4.867   4.546   5.178  0.0274  0.1588  0.2066
  245MOL0     C32949   4.857   4.420   5.247  0.4493  0.0407  0.5719
  245MOL0     C32950   4.722   4.348   5.217 -0.2277 -0.3162 -0.0390
  245MOL0     C32951   4.605   4.432   5.263 -0.4269 -0.6340  0.4566
  245MOL0     C32952   4.475   4.401   5.181 -0.3955 -0.1446  0.0337
  245MOL0     C32953   4.357   4.497   5.212  0.0281  1.1813 -0.5594
  245MOL0     C32954   4.226   4.460   5.129 -0.8120  0.0183 -0.8363
  245MOL0     C32955   4.147   4.358   5.213 -0.5727 -0.4527 -0.6341
  245MOL0     C32956   4.016   4.322   5.143  0.5887 -0.8300  0.1852
  245MOL0     N32957   4.044   4.286   5.002  0.7080 -0.0171  0.3209
  245MOL0     C32958   4.108   4.169   4.971 -0.1369 -0.2876  0.6926
  245MOL0     C32959   4.109   4.165   4.834 -0.7132 -0.4542  0.2366
  245MOL0     C32960   4.187   4.068   4.755  0.2801 -0.0269  0.7986
  245MOL0     C32961   4.304   4.010   4.825 -0.8698  0.5792  0.0278
  245MOL0     C32962   4.339   3.884   4.738  0.3930 -0.1940 -0.7077
  245MOL0     C32963   4.467   3.817   4.790  0.1062  0.1870 -0.1166
  245MOL0     O32964   4.578   3.868   4.724 -0.0295 -0.0551 -0.2966
  245MOL0     C32965   4.707   3.799   4.748  0.2155 -0.1503 -0.8861
  245MOL0     C32966   4.728   3.672   4.823  0.6818 -1.0631  0.1452
  245MOL0     C32967   4.851   3.613   4.827 -0.7178  0.3994  0.6062
  245MOL0     C32968   4.853   3.483   4.908 -0.1816  0.1262  0.6162
  245MOL0     C32969   4.967   3.672   4.758  0.1905  0.1298 -0.3993
  245MOL0     C32970   5.101   3.616   4.750 -0.9317 -0.1446 -0.0913
  245MOL0     O32971   5.188   3.678   4.662  0.4116  0.3080  0.0621
  245MOL0     C32972   5.316   3.617   4.637 -0.0967  0.0678  0.0475
  245MOL0     C32973   5.361   3.646   4.504 -0.6256  0.0893  0.1430
  245MOL0     C32974   5.480   3.582   4.465 -0.1607 -0.0968  0.4654
  245MOL0     C32975   5.558   3.511   4.553 -0.5718  0.2793  0.1293
  245MOL0     O32976   5.666   3.444   4.500 -0.0054 -0.5609  0.0578
  245MOL0     C32977   5.771   3.390   4.580  0.7675 -1.0238 -0.6759
  245MOL0     C32978   5.876   3.336   4.484  0.0830  0.4113  0.6868
  245MOL0     C32979   5.947   3.217   4.557 -0.1778 -0.4385 -0.0133
  245MOL0     C32980   6.029   3.136   4.454  0.7033  0.4392  0.9969
  245MOL0     C32981   6.128   3.047   4.524 -0.7850  0.0224 -0.1607
  245MOL0     C32982   6.226   2.993   4.422  0.0685  0.0787 -0.6886
  245MOL0     C32983   6.337   2.907   4.478  0.9296  0.6019  0.2060
  245MOL0     C32984   6.405   2.821   4.364 -0.5277 -0.2421  0.0968
  245MOL0    Cl32985   6.501   2.695   4.450  0.3343  0.4519  0.1794
  245MOL0     C32986   5.514   3.484   4.685 -0.1736  0.0179  0.4608
  245MOL0     C32987   5.394   3.532   4.714 -0.3072 -0.7085  0.4916
  245MOL0     O32988   5.125   3.520   4.822 -0.0107 -0.1633  0.1515
  245MOL0     C32989   4.942   3.794   4.693  0.6957  0.3489 -0.4325
  245MOL0     C32990   4.819   3.860   4.695 -0.1624  0.1270  0.9581
  245MOL0     N32991   4.033   4.274   4.788 -1.2155  0.8874  0.3213
  245MOL0     N32992   3.996   4.340   4.888 -0.1768  0.3291  0.0205
  245MOL0     C32993   5.004   4.672   5.046  0.0172 -0.0756 -0.6573
  245MOL0     C32994   5.116   4.739   5.021 -0.1172 -0.4534  0.6659
  245MOL0     C32995   5.569   4.891   5.089 -0.6461  0.1976  0.7962
  245MOL0     C32996   5.667   4.942   5.178  0.8680  0.7134 -0.0532
  245MOL0     C32997   5.785   4.987   5.140 -0.4658 -0.3977 -0.2349
  245MOL0     C32998   5.819   4.982   5.005  0.0555  0.2374 -0.6219
  245MOL0     O32999   5.945   5.014   4.962 -0.7585 -0.0111  0.1058
  245MOL0     C33000   5.998   4.975   4.841  0.6176  0.3197  0.1147
  245MOL0     C33001   6.136   5.037   4.819 -0.8059  0.5686  0.5404
  245MOL0     C33002   6.231   5.013   4.938 -0.2235 -0.9972  0.1469
  245MOL0     C33003   6.363   5.092   4.919 -0.2845  0.7492 -0.6355
  245MOL0     C33004   6.470   5.035   5.008 -0.3965 -0.1582 -0.1523
  245MOL0     C33005   6.541   4.983   5.085  1.1418  0.2961  0.6880
  245MOL0     C33006   5.724   4.930   4.909  0.2601  0.0320 -0.2956
  245MOL0     C33007   5.601   4.882   4.952  0.0741  1.2835 -0.2916
  245MOL0     H33008   5.313   4.618   5.269 -0.1736 -0.0259 -1.0145
  245MOL0     H33009   5.103   4.515   5.342 -1.6045  0.0903  0.5394
  245MOL0     H33010   4.947   4.364   5.220  2.3306  1.7882  2.7672
  245MOL0     H33011   4.876   4.418   5.355  1.4341  0.8756  0.4338
  245MOL0     H33012   4.708   4.329   5.110 -0.9016  2.5255 -0.5570
  245MOL0     H33013   4.733   4.252   5.267  2.5578  0.5217  1.1127
  245MOL0     H33014   4.607   4.425   5.372  6.0232 -0.8834  0.6789
  245MOL0     H33015   4.631   4.538   5.256 -3.0019  0.0968  0.7641
  245MOL0     H33016   4.500   4.397   5.075 -0.2320 -1.7522  0.1166
  245MOL0     H33017   4.456   4.297   5.208  0.7352 -0.4138 -0.1631
  245MOL0     H33018   4.337   4.503   5.320 -0.1663 -0.7752 -0.4455
  245MOL0     H33019   4.370   4.594   5.164  2.6875 -0.6389 -3.9095
  245MOL0     H33020   4.179   4.558   5.121 -1.6300 -0.2482  0.4218
  245MOL0     H33021   4.256   4.426   5.029 -3.0744  0.5419 -1.7663
  245MOL0     H33022   4.208   4.269   5.229 -0.1771 -0.0373  0.1893
  245MOL0     H33023   4.118   4.397   5.311 -1.1523 -2.8672  0.2349
  245MOL0     H33024   3.949   4.409   5.145  0.4759 -0.7929 -2.4262
  245MOL0     H33025   3.964   4.232   5.179  0.5695 -0.9819 -0.2225
  245MOL0     H33026   4.169   4.111   5.040 -2.1137 -2.4915  0.7411
  245MOL0     H33027   4.104   4.000   4.738 -0.0630  0.9104 -1.5723
  245MOL0     H33028   4.223   4.112   4.662 -0.8743  0.6135  0.6428
  245MOL0     H33029   4.293   3.979   4.929 -2.2599  0.6265 -0.0847
  245MOL0     H33030   4.386   4.080   4.808  0.5694 -1.5003 -2.1171
  245MOL0     H33031   4.365   3.909   4.635  1.4112  2.6704  0.1607
  245MOL0     H33032   4.254   3.815   4.746  0.3282  0.1076  1.8349
  245MOL0     H33033   4.471   3.710   4.765 -3.2664 -0.5050  1.7246
  245MOL0     H33034   4.474   3.828   4.898 -3.7261 -1.5939  0.5025
  245MOL0     H33035   4.635   3.624   4.851 -0.5309  1.5779  0.9567
  245MOL0     H33036   4.752   3.458   4.941 -0.1320 -1.2857 -0.2218
  245MOL0     H33037   4.896   3.397   4.856  1.2799  0.2691  1.5253
  245MOL0     H33038   4.917   3.490   4.996  1.7638 -1.0897 -0.6213
  245MOL0     H33039   5.291   3.714   4.455 -1.0600 -0.7527 -0.4425
  245MOL0     H33040   5.520   3.596   4.366 -0.7940  0.3648  0.2699
  245MOL0     H33041   5.822   3.468   4.637 -1.7473  0.4716 -0.3185
  245MOL0     H33042   5.725   3.314   4.645 -0.0809 -1.0989 -1.3427
  245MOL0     H33043   5.831   3.297   4.393  0.9081  2.7041 -0.7882
  245MOL0     H33044   5.949   3.412   4.454 -0.7775  0.3908 -1.5941
  245MOL0     H33045   5.878   3.150   4.607 -3.8396  0.6459 -3.1703
  245MOL0     H33046   6.015   3.260   4.632 -2.7014  0.8509  1.6587
  245MOL0     H33047   5.964   3.077   4.389  3.1254 -0.6420 -0.6022
  245MOL0     H33048   6.073   3.221   4.401 -1.5548 -0.1022 -2.0044
  245MOL0     H33049   6.080   2.978   4.593 -0.3011 -2.2251 -1.9232
  245MOL0     H33050   6.183   3.112   4.592 -1.0657 -0.1782  0.2590
  245MOL0     H33051   6.166   2.920   4.366 -0.9769  1.4311 -1.3972
  245MOL0     H33052   6.259   3.083   4.369 -1.7455  1.0113 -0.3198
  245MOL0     H33053   6.303   2.820   4.536 -0.4722  1.6506  1.0123
  245MOL0     H33054   6.404   2.963   4.543  1.6226 -0.6264  0.5924
  245MOL0     H33055   6.473   2.882   4.303  0.9839 -0.6316  1.3368
  245MOL0     H33056   6.322   2.780   4.306 -1.8971  0.9466  1.1491
  245MOL0     H33057   5.567   3.427   4.761 -2.4977 -1.7264  0.8997
  245MOL0     H33058   5.365   3.515   4.818 -2.7809 -1.8397 -0.3013
  245MOL0     H33059   5.002   3.843   4.617 -0.1515  2.3341  0.1172
  245MOL0     H33060   4.812   3.961   4.655 -1.0380  0.1411  1.1271
  245MOL0     H33061   4.913   4.687   4.988 -0.1784 -0.3313 -0.4256
  245MOL0     H33062   5.126   4.802   4.932  1.9798 -1.1917  0.3258
  245MOL0     H33063   5.648   4.923   5.283  2.1704 -1.4546 -0.1452
  245MOL0     H33064   5.850   5.023   5.219 -1.1428  0.0295  0.1350
  245MOL0     H33065   5.993   4.866   4.849 -2.8793  0.4254  1.1337
  245MOL0     H33066   5.937   5.005   4.755 -0.5014  0.3834  0.9149
  245MOL0     H33067   6.138   5.141   4.787 -1.5415  0.1775 -0.8717
  245MOL0     H33068   6.183   4.977   4.741  1.1488 -0.6788  2.5592
  245MOL0     H33069   6.251   4.908   4.958 -0.5654 -1.3407 -1.2106
  245MOL0     H33070   6.179   5.053   5.026 -0.9893 -0.4724 -0.5234
  245MOL0     H33071   6.344   5.196   4.946 -0.0157  1.2053 -2.1205
  245MOL0     H33072   6.404   5.084   4.818 -1.3241 -1.1283 -0.9714
  245MOL0     H33073   6.591   4.928   5.162  0.6114 -0.4650  0.4909
  245MOL0     H33074   5.752   4.927   4.804 -1.1875 -0.1853 -0.6991
  245MOL0     H33075   5.536   4.816   4.895 -0.1293 -1.0538  2.4035
  246MOL0     O33076   8.108   6.851   5.250 -0.7432 -0.2732 -0.1600
  246MOL0     C33077   8.187   6.897   5.338 -0.2321  0.8079 -0.1007
  246MOL0     O33078   8.152   6.965   5.449  0.3736 -0.2891  0.0850
  246MOL0     C33079   8.021   7.009   5.453  0.1364  1.6599  0.6341
  246MOL0     C33080   7.968   7.132   5.417  0.4635  0.3503  0.7462
  246MOL0     C33081   7.839   7.171   5.435 -0.2761 -0.0689 -0.4458
  246MOL0     C33082   7.756   7.086   5.504  0.2776  0.0229  0.3731
  246MOL0     O33083   7.636   7.140   5.538 -0.2492  0.7912 -0.7078
  246MOL0     C33084   7.528   7.045   5.551  0.9184  0.3408 -0.8960
  246MOL0     C33085   7.398   7.128   5.544  0.0416  0.2317  1.0198
  246MOL0     C33086   7.264   7.069   5.580  0.3805  0.6293  0.0372
  246MOL0     C33087   7.247   6.985   5.710 -0.0218 -0.3751  0.5674
  246MOL0     C33088   7.264   7.071   5.834 -0.3821  0.1059  0.1008
  246MOL0     C33089   7.277   6.985   5.964  0.7453  0.1155  0.4587
  246MOL0     C33090   7.266   7.068   6.100 -0.4471  0.5750  0.3704
  246MOL0     C33091   7.383   7.164   6.118  1.3535  0.0289 -0.6549
  246MOL0     N33092   7.516   7.093   6.118  0.3071 -0.5082  0.9502
  246MOL0     C33093   7.598   7.115   6.012 -0.2368  0.2667  0.1931
  246MOL0     C33094   7.701   7.027   6.031  0.6837 -0.4875  0.1934
  246MOL0     C33095   7.808   6.972   5.926  0.4945 -0.9835 -0.9241
  246MOL0     C33096   7.945   6.938   5.986 -0.6101  0.0571 -0.3270
  246MOL0     C33097   8.037   6.885   5.870 -0.5759  0.2419 -0.5703
  246MOL0     C33098   8.173   6.825   5.930  0.2838  0.1307 -0.5424
  246MOL0     O33099   8.248   6.765   5.826  0.0776  0.2196 -0.8710
  246MOL0     C33100   8.384   6.746   5.848 -0.5006  0.3626 -0.6114
  246MOL0     C33101   8.451   6.764   5.974 -0.3753 -0.2282  0.4676
  246MOL0     C33102   8.595   6.759   5.975  0.2437 -0.4621  0.7909
  246MOL0     C33103   8.662   6.750   6.106  0.0032  0.0429  1.0342
  246MOL0     C33104   8.660   6.742   5.849  0.5158 -0.4221 -0.3354
  246MOL0     C33105   8.811   6.730   5.829  0.6171  1.1773 -0.0695
  246MOL0     O33106   8.892   6.784   5.931 -0.2990 -0.4802  0.2245
  246MOL0     C33107   8.996   6.863   5.890  0.2271 -1.1267  0.1160
  246MOL0     C33108   9.075   6.921   5.987  0.1777  0.5007  0.2988
  246MOL0     C33109   9.182   7.002   5.962 -0.9547  0.4651  1.0103
  246MOL0     C33110   9.230   7.025   5.827  0.4299  0.7543  0.0485
  246MOL0     O33111   9.341   7.098   5.793 -0.1109 -0.3658 -0.0165
  246MOL0     C33112   9.456   7.116   5.884  0.0980  0.6162  0.2286
  246MOL0     C33113   9.566   7.180   5.809 -0.8686 -0.5972  0.1825
  246MOL0     C33114   9.693   7.214   5.892  0.0580  0.0453 -0.1874
  246MOL0     C33115   9.803   7.111   5.886 -0.6146  0.8000 -0.5871
  246MOL0     C33116   9.907   7.147   5.987 -0.3690 -0.4934  0.3638
  246MOL0     C33117  10.042   7.080   5.975 -1.1061  1.3148 -0.0902
  246MOL0     C33118  10.138   7.154   6.065 -0.1415 -0.0870 -0.2178
  246MOL0     C33119  10.285   7.107   6.058 -0.6407  0.4667  0.2266
  246MOL0    Cl33120  10.311   6.932   6.090 -0.3495 -0.2224 -0.9340
  246MOL0     C33121   9.159   6.952   5.730 -0.8800 -0.2917 -0.8903
  246MOL0     C33122   9.054   6.869   5.762 -0.1595  0.6084 -0.1840
  246MOL0     O33123   8.847   6.660   5.733  0.3336  0.1487  0.4326
  246MOL0     C33124   8.584   6.729   5.732  0.2087 -0.1314 -0.0199
  246MOL0     C33125   8.451   6.727   5.732  0.1720 -0.0675 -0.0084
  246MOL0     N33126   7.676   6.954   6.140  0.2323  0.3772 -0.3007
  246MOL0     N33127   7.563   6.989   6.190 -1.0613  0.2691  0.0435
  246MOL0     C33128   7.801   6.955   5.531  0.1852  1.0011 -0.6706
  246MOL0     C33129   7.931   6.913   5.507 -0.1344  0.6410  0.9746
  246MOL0     C33130   8.332   6.878   5.322  0.0418  0.2459 -0.8350
  246MOL0     C33131   8.421   6.914   5.421  0.3224  0.0213  0.2078
  246MOL0     C33132   8.554   6.882   5.424  0.6230  0.2453  0.1201
  246MOL0     C33133   8.606   6.811   5.309 -0.2010  0.6768 -0.2329
  246MOL0     O33134   8.744   6.771   5.295 -0.2025  0.2492 -0.7825
  246MOL0     C33135   8.839   6.791   5.400 -0.0812  0.4662  1.2440
  246MOL0     C33136   8.970   6.704   5.377  0.6957 -0.7823  0.3856
  246MOL0     C33137   8.925   6.558   5.407  0.2654  0.4328 -1.0440
  246MOL0     C33138   9.035   6.447   5.392  0.2573  0.1801  0.3726
  246MOL0     C33139   9.167   6.497   5.433 -0.0726 -0.4954  0.2158
  246MOL0     C33140   9.277   6.531   5.478  0.4395 -1.0417  0.7924
  246MOL0     C33141   8.519   6.760   5.217 -0.4908 -1.1533 -0.1634
  246MOL0     C33142   8.386   6.804   5.216  1.0749  0.1253  0.2106
  246MOL0     H33143   8.030   7.208   5.370 -2.3746  0.9572 -2.4355
  246MOL0     H33144   7.794   7.268   5.420  0.7407  0.4509 -0.2061
  246MOL0     H33145   7.517   6.972   5.471  1.9779  0.7482 -1.4283
  246MOL0     H33146   7.535   6.984   5.642 -2.8869  0.3043 -0.4707
  246MOL0     H33147   7.410   7.215   5.610 -0.7587 -1.1193  3.0808
  246MOL0     H33148   7.384   7.157   5.440  1.1634 -1.6202  0.2913
  246MOL0     H33149   7.188   7.147   5.579  0.1171  0.4052  1.1900
  246MOL0     H33150   7.245   6.990   5.508  2.4912  0.7609 -0.7344
  246MOL0     H33151   7.144   6.947   5.712  0.4314 -1.7035 -0.2506
  246MOL0     H33152   7.315   6.900   5.704 -1.1631 -1.2377 -0.8427
  246MOL0     H33153   7.352   7.133   5.818  0.1446 -0.8850 -1.0004
  246MOL0     H33154   7.179   7.139   5.847 -1.2830 -1.3587  2.6529
  246MOL0     H33155   7.196   6.912   5.963  1.4114 -0.6286 -0.1265
  246MOL0     H33156   7.363   6.918   5.957  2.4826  2.0130  1.9378
  246MOL0     H33157   7.170   7.120   6.095 -1.8008 -1.4260  2.8906
  246MOL0     H33158   7.258   7.003   6.188  0.7589 -0.9484 -0.6004
  246MOL0     H33159   7.368   7.218   6.212  0.0646 -0.3223 -0.6360
  246MOL0     H33160   7.362   7.234   6.036 -0.7519  1.2628  0.8089
  246MOL0     H33161   7.582   7.185   5.931  1.3572  0.5491  0.0894
  246MOL0     H33162   7.769   6.891   5.864  0.7309 -1.1550 -0.8487
  246MOL0     H33163   7.832   7.057   5.862 -1.2045  1.0033  0.8884
  246MOL0     H33164   7.931   6.873   6.072  1.3024  1.6520  1.2897
  246MOL0     H33165   7.983   7.031   6.030 -0.6341 -0.7613  1.5127
  246MOL0     H33166   8.066   6.961   5.797  1.7828  2.5499  2.4624
  246MOL0     H33167   7.984   6.802   5.821  1.0113 -0.8776 -0.4922
  246MOL0     H33168   8.146   6.749   6.004 -2.0762 -0.0895 -1.5616
  246MOL0     H33169   8.219   6.908   5.983 -1.8909  0.9565  0.1382
  246MOL0     H33170   8.392   6.776   6.065 -2.0055 -0.2584 -0.5526
  246MOL0     H33171   8.713   6.845   6.125  0.6631  0.4069 -1.9680
  246MOL0     H33172   8.594   6.721   6.186  0.4187 -0.0648  1.3535
  246MOL0     H33173   8.740   6.672   6.105 -1.3216 -1.5037  4.2705
  246MOL0     H33174   9.057   6.890   6.089  3.0610  2.5498  1.5697
  246MOL0     H33175   9.236   7.033   6.051  1.2721  2.6736 -0.9492
  246MOL0     H33176   9.430   7.183   5.967  1.3754  3.5240 -1.5702
  246MOL0     H33177   9.487   7.022   5.932 -2.4843 -0.7012 -0.4938
  246MOL0     H33178   9.595   7.119   5.723  0.2702  2.2611 -1.5869
  246MOL0     H33179   9.540   7.276   5.765  2.8136  0.3327 -0.3462
  246MOL0     H33180   9.665   7.233   5.996 -0.8724  0.8666 -0.5681
  246MOL0     H33181   9.734   7.307   5.851  3.1731 -0.8230  0.6972
  246MOL0     H33182   9.767   7.008   5.894 -0.2210  0.6271 -0.9786
  246MOL0     H33183   9.835   7.109   5.781 -0.2146 -2.8607 -0.5111
  246MOL0     H33184   9.868   7.132   6.088 -0.8622 -1.1004  0.0897
  246MOL0     H33185   9.923   7.254   5.971 -2.9292 -0.3471 -2.1763
  246MOL0     H33186  10.040   6.972   5.992 -2.7204  1.2295 -0.6730
  246MOL0     H33187  10.079   7.087   5.872  3.3554  2.6852  1.3755
  246MOL0     H33188  10.100   7.131   6.165  2.9776  1.2588  1.4128
  246MOL0     H33189  10.129   7.261   6.041  2.8604 -0.3274 -3.2157
  246MOL0     H33190  10.352   7.167   6.120  0.8390 -1.4291  0.5658
  246MOL0     H33191  10.318   7.139   5.959 -1.2671 -0.2168 -0.2112
  246MOL0     H33192   9.202   6.960   5.631  0.8271  1.2928 -0.0978
  246MOL0     H33193   9.009   6.813   5.680 -1.7686  1.7587 -0.1135
  246MOL0     H33194   8.636   6.732   5.637  0.0057  0.2763 -0.1213
  246MOL0     H33195   8.393   6.694   5.646 -1.2999 -1.9075  1.5997
  246MOL0     H33196   7.734   6.879   5.570  1.9372 -0.7159 -0.8932
  246MOL0     H33197   7.963   6.810   5.519 -1.9894  0.0193  0.9407
  246MOL0     H33198   8.383   6.980   5.499 -1.5720 -2.7489  1.7962
  246MOL0     H33199   8.621   6.926   5.496  1.0002 -0.2094  0.0446
  246MOL0     H33200   8.866   6.897   5.396 -1.1510  0.7262  0.5422
  246MOL0     H33201   8.798   6.761   5.497 -0.0247 -1.5794  0.6990
  246MOL0     H33202   9.031   6.736   5.462 -0.6140  1.1200  0.6568
  246MOL0     H33203   9.023   6.730   5.285 -1.0553  1.8771  0.0288
  246MOL0     H33204   8.846   6.536   5.334  0.3150  0.4541 -1.1033
  246MOL0     H33205   8.883   6.551   5.508 -0.9034 -1.7169 -1.5980
  246MOL0     H33206   9.043   6.433   5.283  0.7924  0.4813  0.3689
  246MOL0     H33207   9.004   6.355   5.443  0.3973 -2.1263 -3.3021
  246MOL0     H33208   9.371   6.571   5.512  1.0696 -1.2343 -0.6425
  246MOL0     H33209   8.567   6.689   5.151 -0.6681 -2.5003  1.1240
  246MOL0     H33210   8.316   6.765   5.143  0.9272  0.4761  0.1638
  247MOL0     O33211   4.033   5.354   1.120 -0.5351 -0.5601 -0.6737
  247MOL0     C33212   4.105   5.373   1.021  1.3984  0.6503 -0.5044
  247MOL0     O33213   4.053   5.392   0.896 -0.2340  0.6299  0.7486
  247MOL0     C33214   3.913   5.406   0.873  0.3538  0.4987 -0.7476
  247MOL0     C33215   3.854   5.347   0.760 -1.0570  0.3428 -1.1988
  247MOL0     C33216   3.724   5.360   0.736  1.0142  0.2053  0.5509
  247MOL0     C33217   3.641   5.421   0.825  0.7567  0.2536  0.1275
  247MOL0     O33218   3.511   5.428   0.776  0.3065 -0.0478  0.1827
  247MOL0     C33219   3.402   5.442   0.865  0.7713 -0.1597  0.8388
  247MOL0     C33220   3.273   5.443   0.774  0.2940 -0.3747 -0.4293
  247MOL0     C33221   3.148   5.487   0.845  0.0450 -0.1673  0.1212
  247MOL0     C33222   3.039   5.528   0.749  0.0345  0.3434  0.1493
  247MOL0     C33223   2.916   5.563   0.820  0.2765  0.9548 -0.2313
  247MOL0     C33224   2.795   5.504   0.752  0.0309 -0.4709  0.2423
  247MOL0     C33225   2.672   5.548   0.823  0.7354  0.4693 -0.0343
  247MOL0     C33226   2.662   5.488   0.968 -0.1524 -0.6356  0.6258
  247MOL0     N33227   2.540   5.535   1.030  0.4313 -0.4323  0.2583
  247MOL0     C33228   2.505   5.663   1.079  1.1440 -0.2014  0.6355
  247MOL0     C33229   2.388   5.643   1.136  0.2062 -0.1837 -0.3796
  247MOL0     C33230   2.324   5.750   1.223  0.0810  0.0776 -1.3616
  247MOL0     C33231   2.235   5.856   1.146 -0.1173 -0.2641  0.1831
  247MOL0     C33232   2.090   5.812   1.121  0.8075  0.6747 -0.5613
  247MOL0     C33233   2.028   5.737   1.238  0.4222  0.0985 -0.0452
  247MOL0     O33234   1.884   5.719   1.202 -0.1877  0.1962  0.3167
  247MOL0     C33235   1.788   5.762   1.297  0.5975  0.1074  0.8412
  247MOL0     C33236   1.791   5.876   1.382  0.6542 -0.2235  0.5944
  247MOL0     C33237   1.670   5.917   1.446 -0.7505  0.2827 -0.7359
  247MOL0     C33238   1.682   6.025   1.539 -0.7333 -0.3461  0.8514
  247MOL0     C33239   1.560   5.833   1.450  0.1685 -0.9617 -0.2308
  247MOL0     C33240   1.443   5.845   1.548  0.3247  0.1781 -0.6061
  247MOL0     O33241   1.347   5.750   1.531  0.1669  0.2583  0.3103
  247MOL0     C33242   1.231   5.761   1.592 -0.6661  0.9122 -0.1084
  247MOL0     C33243   1.207   5.797   1.723  0.7639 -0.1344 -0.5634
  247MOL0     C33244   1.081   5.803   1.778 -0.7601 -0.5521  0.0256
  247MOL0     C33245   0.976   5.764   1.701  0.9062  0.3365  0.3974
  247MOL0     O33246   0.853   5.751   1.747  0.7774 -0.0560 -0.1675
  247MOL0     C33247   0.832   5.640   1.825 -0.7533  0.3102  0.1576
  247MOL0     C33248   0.689   5.594   1.825  1.4890  0.7503 -0.2796
  247MOL0     C33249   0.651   5.543   1.679  1.1032 -0.0619  1.1218
  247MOL0     C33250   0.522   5.465   1.673 -0.7201  0.1259  0.6470
  247MOL0     C33251   0.509   5.402   1.525  0.0313 -0.0970  0.1658
  247MOL0     C33252   0.406   5.301   1.519  0.1435 -0.6247  0.1276
  247MOL0     C33253   0.458   5.163   1.560 -0.6367 -0.0936 -0.0492
  247MOL0     C33254   0.339   5.072   1.568  1.1381  0.7031 -0.0824
  247MOL0    Cl33255   0.219   5.088   1.703  0.0053 -0.4581 -0.4872
  247MOL0     C33256   0.993   5.733   1.563 -0.8003  0.0920  0.1874
  247MOL0     C33257   1.127   5.726   1.507  0.4522 -0.2684 -0.4336
  247MOL0     O33258   1.435   5.938   1.626  0.0694  0.4016 -0.0449
  247MOL0     C33259   1.551   5.729   1.362  0.2590 -0.5429  0.4532
  247MOL0     C33260   1.665   5.693   1.290  0.3743 -0.1821 -0.0225
  247MOL0     N33261   2.336   5.522   1.096 -0.7401 -1.2105  0.1790
  247MOL0     N33262   2.428   5.458   1.036 -0.5245  0.0316 -0.9491
  247MOL0     C33263   3.690   5.486   0.939 -0.1449 -0.1094  0.9944
  247MOL0     C33264   3.832   5.483   0.964  0.3854 -0.1630  0.4063
  247MOL0     C33265   4.253   5.356   1.029  0.3956  0.8020  0.0938
  247MOL0     C33266   4.347   5.412   0.934  1.0335  0.1229 -0.6796
  247MOL0     C33267   4.479   5.411   0.953 -1.0965  0.2129 -0.4487
  247MOL0     C33268   4.535   5.350   1.074 -0.4005  0.3989  0.0101
  247MOL0     O33269   4.675   5.344   1.083 -0.8685  0.9486  0.4766
  247MOL0     C33270   4.741   5.343   1.212 -0.1810  0.1158 -0.4324
  247MOL0     C33271   4.722   5.472   1.286 -0.9151  0.2869 -0.4880
  247MOL0     C33272   4.810   5.483   1.426  0.6639  0.3493 -0.1269
  247MOL0     C33273   4.756   5.378   1.526 -0.2880  0.9148 -1.5567
  247MOL0     C33274   4.620   5.405   1.568  1.0149  0.0965  0.0901
  247MOL0     C33275   4.501   5.417   1.607  0.0430 -0.7819  0.2001
  247MOL0     C33276   4.443   5.283   1.162 -0.1797 -0.3205  0.2206
  247MOL0     C33277   4.309   5.290   1.140  0.3781 -0.4409  0.6466
  247MOL0     H33278   3.923   5.302   0.689  1.7641  1.4318  0.6508
  247MOL0     H33279   3.683   5.327   0.641  0.1025 -0.2752  1.0966
  247MOL0     H33280   3.409   5.355   0.930  0.1508 -2.4280 -1.9009
  247MOL0     H33281   3.403   5.535   0.923  1.0484  0.0989  0.4303
  247MOL0     H33282   3.293   5.513   0.692 -0.3857  0.9864  0.5412
  247MOL0     H33283   3.258   5.343   0.731  1.0361 -1.4292  1.6281
  247MOL0     H33284   3.116   5.402   0.906 -2.7475 -0.9809 -2.2455
  247MOL0     H33285   3.169   5.572   0.909 -1.6989  0.2241  0.2243
  247MOL0     H33286   3.064   5.622   0.701 -1.2096  2.6923  3.6818
  247MOL0     H33287   3.022   5.448   0.676  3.6632 -0.0681 -0.4334
  247MOL0     H33288   2.920   5.534   0.926 -0.3572  1.4604 -0.0661
  247MOL0     H33289   2.914   5.672   0.832  1.9757  1.0360 -0.3376
  247MOL0     H33290   2.792   5.541   0.649  0.8227  2.1005  1.0646
  247MOL0     H33291   2.802   5.395   0.745  3.0734 -0.2952 -0.4715
  247MOL0     H33292   2.673   5.657   0.835  1.7166  0.3496  1.3048
  247MOL0     H33293   2.585   5.520   0.763  0.9461 -1.6306  0.5622
  247MOL0     H33294   2.744   5.516   1.035  0.0105 -0.3924  0.3312
  247MOL0     H33295   2.650   5.379   0.968 -1.3298 -0.5247  1.5806
  247MOL0     H33296   2.571   5.749   1.091  1.8464 -0.7108  0.5011
  247MOL0     H33297   2.270   5.705   1.307  1.7889  1.6520  0.7020
  247MOL0     H33298   2.399   5.809   1.277  0.4424 -2.1354  0.7185
  247MOL0     H33299   2.289   5.885   1.055  2.2208  2.4102  2.2093
  247MOL0     H33300   2.229   5.945   1.209  1.2627  0.1510 -0.2278
  247MOL0     H33301   2.082   5.747   1.034  4.8507  1.4687 -1.7418
  247MOL0     H33302   2.027   5.900   1.106 -0.2521 -0.5080 -3.6823
  247MOL0     H33303   2.038   5.801   1.327 -1.1517  2.3596 -1.3873
  247MOL0     H33304   2.069   5.639   1.262 -0.8421 -0.5791 -0.5761
  247MOL0     H33305   1.866   5.954   1.387 -0.5987  0.9315  3.0436
  247MOL0     H33306   1.773   6.084   1.517  1.5045 -3.9976 -0.5991
  247MOL0     H33307   1.597   6.093   1.528 -0.0210  1.2284  3.9066
  247MOL0     H33308   1.697   5.999   1.644 -1.2988  0.8106  1.2351
  247MOL0     H33309   1.284   5.824   1.795 -0.3886 -0.3589  0.7889
  247MOL0     H33310   1.049   5.836   1.876  0.6511  1.6160 -0.1687
  247MOL0     H33311   0.900   5.559   1.798 -1.3896 -0.0329 -0.4487
  247MOL0     H33312   0.846   5.660   1.932 -2.1518  0.4988  0.3254
  247MOL0     H33313   0.670   5.514   1.896 -4.2653  3.8153  2.3799
  247MOL0     H33314   0.623   5.678   1.848  1.3783  1.6898 -3.4293
  247MOL0     H33315   0.732   5.485   1.634 -1.8941 -1.9664 -2.3861
  247MOL0     H33316   0.634   5.622   1.605  1.0379 -2.0260 -1.0957
  247MOL0     H33317   0.518   5.390   1.753  3.0042  0.5755  1.4181
  247MOL0     H33318   0.444   5.538   1.695  1.2948  2.4396  0.4648
  247MOL0     H33319   0.604   5.355   1.501  0.0206 -0.3250  0.5596
  247MOL0     H33320   0.496   5.483   1.452  1.1267 -1.3867 -1.5034
  247MOL0     H33321   0.317   5.326   1.576 -1.4211  0.5759 -2.6292
  247MOL0     H33322   0.377   5.287   1.414  1.3125 -1.0283 -0.1685
  247MOL0     H33323   0.503   5.175   1.659 -2.1125  1.6709  0.4601
  247MOL0     H33324   0.538   5.134   1.490  0.0272 -1.4210  1.2006
  247MOL0     H33325   0.369   4.967   1.578 -0.2365  0.3696  0.8328
  247MOL0     H33326   0.283   5.087   1.475  1.3581 -0.2485 -0.3825
  247MOL0     H33327   0.907   5.712   1.501 -0.0872  0.4428 -0.9530
  247MOL0     H33328   1.148   5.683   1.409 -2.8175 -0.9516 -0.9589
  247MOL0     H33329   1.457   5.678   1.343  0.0156  0.0959 -0.0823
  247MOL0     H33330   1.648   5.611   1.221 -1.2175 -0.1867  0.3509
  247MOL0     H33331   3.629   5.541   1.010 -0.1033  0.9976  0.1899
  247MOL0     H33332   3.880   5.537   1.044  3.2215 -2.2652  0.2639
  247MOL0     H33333   4.302   5.478   0.860 -2.0466  2.3976  2.8701
  247MOL0     H33334   4.536   5.463   0.876 -0.0653 -0.9489 -0.5080
  247MOL0     H33335   4.708   5.264   1.281 -1.1573  2.9302  2.5720
  247MOL0     H33336   4.847   5.326   1.194 -0.4339 -1.9464 -0.2918
  247MOL0     H33337   4.617   5.500   1.297 -1.4022 -1.2735 -0.9858
  247MOL0     H33338   4.774   5.534   1.213 -0.5730 -0.2386 -0.6982
  247MOL0     H33339   4.803   5.587   1.459  1.0825  0.7015 -1.0974
  247MOL0     H33340   4.917   5.460   1.416  0.6709 -0.0155  0.6943
  247MOL0     H33341   4.817   5.381   1.616 -2.2031  2.5768 -0.2227
  247MOL0     H33342   4.773   5.276   1.491 -3.1776 -0.2004  0.0095
  247MOL0     H33343   4.410   5.401   1.661 -1.1903 -0.7184 -1.7711
  247MOL0     H33344   4.477   5.240   1.256  2.1226  0.3180 -0.2356
  247MOL0     H33345   4.248   5.229   1.206 -2.9137 -1.6099 -3.0650
  248MOL0     O33346   8.818   4.021   9.938  0.3833 -0.1837  0.7078
  248MOL0     C33347   8.862   3.908   9.938  0.5173  0.2484  1.0925
  248MOL0     O33348   8.838   3.800  10.021  0.3877 -0.0765  0.1779
  248MOL0     C33349   8.774   3.833  10.126  0.0186  0.7180 -1.0150
  248MOL0     C33350   8.655   3.767  10.171 -0.8986  0.5217 -0.4083
  248MOL0     C33351   8.598   3.785  10.297 -0.1959  0.7923  0.3827
  248MOL0     C33352   8.654   3.891  10.373  0.0893 -0.0257 -0.7182
  248MOL0     O33353   8.583   3.924  10.483  1.0103  0.1651 -0.1142
  248MOL0     C33354   8.608   4.048  10.550  0.8995 -1.2372  0.7067
  248MOL0     C33355   8.494   4.088  10.641 -0.2423 -0.6828  0.0401
  248MOL0     C33356   8.514   4.225  10.693  0.4762  0.2594  0.7420
  248MOL0     C33357   8.522   4.328  10.581 -0.2619  0.2281  0.2083
  248MOL0     C33358   8.536   4.472  10.627  0.2780 -1.0517  0.0119
  248MOL0     C33359   8.498   4.560  10.501 -0.9230  0.7649 -0.1688
  248MOL0     C33360   8.525   4.712  10.540  0.1883 -0.0936 -0.6819
  248MOL0     C33361   8.466   4.790  10.436 -0.8591  0.1947  0.2799
  248MOL0     N33362   8.522   4.786  10.304 -0.4570  0.1751  0.0795
  248MOL0     C33363   8.651   4.825  10.258  0.0084 -0.0503  0.3544
  248MOL0     C33364   8.657   4.812  10.118 -0.0461 -0.2170  0.2981
  248MOL0     C33365   8.791   4.832  10.037 -0.3923 -0.0728  0.3703
  248MOL0     C33366   8.790   4.971   9.986 -0.0953 -0.1741  0.3975
  248MOL0     C33367   8.910   5.018   9.913  0.0876 -0.5143 -0.6597
  248MOL0     C33368   9.052   5.001   9.977  0.5283 -0.3919  0.0920
  248MOL0     O33369   9.157   5.041   9.883 -0.4442 -0.3329  0.2384
  248MOL0     C33370   9.283   5.061   9.936 -0.2745  0.5706 -0.6392
  248MOL0     C33371   9.324   5.017  10.066 -0.1163 -0.8465 -0.2794
  248MOL0     C33372   9.451   5.049  10.107  0.1425 -1.0314  0.4091
  248MOL0     C33373   9.477   5.035  10.250 -0.3187  0.5659  0.8062
  248MOL0     C33374   9.553   5.099  10.019 -0.2788 -0.9325  0.6268
  248MOL0     C33375   9.692   5.138  10.055 -0.3562  0.8937  0.5460
  248MOL0     O33376   9.745   5.067  10.164 -0.1768  0.4993  0.2949
  248MOL0     C33377   9.881   5.031  10.168 -0.0754 -0.0943 -0.5978
  248MOL0     C33378   9.930   5.010  10.296 -0.1478 -0.1325 -1.1368
  248MOL0     C33379  10.055   4.962  10.315 -0.5119 -0.7250  0.1444
  248MOL0     C33380  10.130   4.924  10.203 -0.0195 -0.2613 -0.7712
  248MOL0     O33381  10.257   4.870  10.213 -0.0740 -0.3565  0.1048
  248MOL0     C33382  10.289   4.784  10.325  0.3625 -0.6104  0.1034
  248MOL0     C33383  10.385   4.686  10.295  0.6626 -0.2153 -0.0443
  248MOL0     C33384  10.521   4.739  10.275  0.1413  0.4970 -0.6492
  248MOL0     C33385  10.543   4.815  10.144 -0.3744  0.1777  0.2154
  248MOL0     C33386  10.692   4.826  10.096  0.2711  0.9746 -0.3027
  248MOL0     C33387  10.757   4.937  10.174  0.0626  0.3745  0.3872
  248MOL0     C33388  10.902   4.943  10.128 -0.3133  0.3501  0.1730
  248MOL0     C33389  10.913   5.002   9.984  0.0584 -0.1482 -0.5956
  248MOL0    Cl33390  11.082   5.033   9.952  0.7392  0.0195 -0.4535
  248MOL0     C33391  10.089   4.948  10.074  0.1864  0.4381 -1.4080
  248MOL0     C33392   9.963   4.993  10.063 -0.0175  0.0067  0.1582
  248MOL0     O33393   9.758   5.197   9.973  0.0072  0.1423  0.1515
  248MOL0     C33394   9.517   5.119   9.885 -0.8303  0.1079  0.7634
  248MOL0     C33395   9.383   5.099   9.851  0.3272 -0.0440 -0.0276
  248MOL0     N33396   8.530   4.762  10.080  0.9888 -0.5176 -0.2287
  248MOL0     N33397   8.453   4.744  10.189 -0.6465 -0.4270 -0.0569
  248MOL0     C33398   8.773   3.954  10.340  0.2870 -0.6801  1.6746
  248MOL0     C33399   8.836   3.920  10.218  0.0730 -0.5881  1.0501
  248MOL0     C33400   8.972   3.880   9.839  1.4666  0.6218  1.2757
  248MOL0     C33401   9.017   3.985   9.746  0.1843  0.5174 -0.1852
  248MOL0     C33402   9.131   3.965   9.672 -0.9433  0.1708 -0.3136
  248MOL0     C33403   9.202   3.839   9.678  0.2365 -0.2692 -0.1233
  248MOL0     O33404   9.321   3.817   9.621 -0.6862 -0.2300  0.6258
  248MOL0     C33405   9.382   3.907   9.533 -0.2340  0.6094  0.4882
  248MOL0     C33406   9.507   3.854   9.468 -0.1915  0.6958  0.1604
  248MOL0     C33407   9.626   3.818   9.558 -0.4810 -0.2680  0.1388
  248MOL0     C33408   9.708   3.951   9.591  0.1448  0.1626  0.3491
  248MOL0     C33409   9.799   3.979   9.481  0.6829  0.2906  1.3366
  248MOL0     C33410   9.878   3.982   9.379 -0.0058  0.4551  0.2003
  248MOL0     C33411   9.154   3.750   9.764 -0.8995 -0.4251  1.3290
  248MOL0     C33412   9.045   3.762   9.841 -0.5231 -0.2747 -0.1305
  248MOL0     H33413   8.618   3.698  10.096  0.5279  0.1313 -0.7793
  248MOL0     H33414   8.504   3.734  10.317 -0.1658  0.7858  0.5128
  248MOL0     H33415   8.693   4.044  10.619 -0.9662  3.9299  3.8834
  248MOL0     H33416   8.617   4.125  10.474 -0.4375  0.3137  2.0366
  248MOL0     H33417   8.404   4.074  10.581  1.3046 -0.9499 -2.3597
  248MOL0     H33418   8.493   4.019  10.726 -0.3302  1.3914  1.7850
  248MOL0     H33419   8.429   4.256  10.755  1.5842 -0.2621  2.5847
  248MOL0     H33420   8.605   4.220  10.754  0.2879 -0.6907  0.9645
  248MOL0     H33421   8.602   4.306  10.510 -0.1831 -1.4484  0.7913
  248MOL0     H33422   8.437   4.318  10.514  0.3600 -2.6787 -0.2674
  248MOL0     H33423   8.456   4.494  10.699  1.1576  1.6796  0.2901
  248MOL0     H33424   8.637   4.493  10.663  0.5604  0.4812 -1.5069
  248MOL0     H33425   8.552   4.525  10.412  0.5502 -0.8302  1.2650
  248MOL0     H33426   8.391   4.548  10.485 -1.2924 -2.5276  3.3935
  248MOL0     H33427   8.479   4.737  10.636  0.5266 -0.2941 -0.4675
  248MOL0     H33428   8.631   4.731  10.555  0.0453  0.1749  0.0217
  248MOL0     H33429   8.474   4.893  10.472 -2.1652  0.1916  0.6261
  248MOL0     H33430   8.358   4.773  10.438 -1.7188  4.1945 -1.5246
  248MOL0     H33431   8.731   4.857  10.324 -0.0685  0.9232 -0.0014
  248MOL0     H33432   8.877   4.821  10.104  1.3285  0.9287 -1.5298
  248MOL0     H33433   8.800   4.756   9.959  0.8456  1.1863 -0.7773
  248MOL0     H33434   8.768   5.046  10.062 -1.6085  3.1056 -2.9483
  248MOL0     H33435   8.702   4.969   9.921  0.6100 -0.2281 -0.5754
  248MOL0     H33436   8.890   5.124   9.896 -1.6425 -0.9646 -1.6508
  248MOL0     H33437   8.913   4.971   9.814 -0.7382 -1.4592 -0.2547
  248MOL0     H33438   9.050   4.899  10.019 -1.4173  0.8867  3.5208
  248MOL0     H33439   9.048   5.068  10.064 -0.5833  1.6329 -1.4456
  248MOL0     H33440   9.247   4.983  10.134 -0.5033 -0.8095 -0.6976
  248MOL0     H33441   9.523   5.122  10.299  0.3797  0.5484  0.2042
  248MOL0     H33442   9.388   4.999  10.302 -0.6400 -1.1408 -0.8330
  248MOL0     H33443   9.539   4.945  10.247 -3.4908 -1.8232  1.3718
  248MOL0     H33444   9.869   5.037  10.382  1.1531  0.8782 -0.4946
  248MOL0     H33445  10.096   4.963  10.415  0.1468 -1.5028 -0.1030
  248MOL0     H33446  10.319   4.846  10.409 -4.0136  1.4475  0.4087
  248MOL0     H33447  10.199   4.728  10.352  1.1285 -1.1396  1.6389
  248MOL0     H33448  10.377   4.609  10.372 -0.7613  0.5293  0.5799
  248MOL0     H33449  10.365   4.633  10.201 -2.7990  1.9869 -0.7226
  248MOL0     H33450  10.581   4.647  10.275 -1.8198 -0.8520  0.6884
  248MOL0     H33451  10.561   4.791  10.363 -1.8351  0.1382  0.5082
  248MOL0     H33452  10.478   4.762  10.074 -2.5268  1.4134  1.1770
  248MOL0     H33453  10.501   4.914  10.165  0.6654  0.0075  3.7770
  248MOL0     H33454  10.693   4.846   9.988  1.2498 -0.9136 -0.6744
  248MOL0     H33455  10.741   4.729  10.109 -0.9713  0.5267  1.4089
  248MOL0     H33456  10.714   5.035  10.152  0.3398  0.3303 -0.3642
  248MOL0     H33457  10.742   4.908  10.279 -3.0396  3.7430  1.0919
  248MOL0     H33458  10.961   4.851  10.134  0.7092  1.0856  2.9471
  248MOL0     H33459  10.951   5.015  10.195 -3.9601  3.5012 -0.2203
  248MOL0     H33460  10.866   5.100   9.979  1.9495  1.2229  3.8298
  248MOL0     H33461  10.875   4.920   9.922  0.9791  0.9034 -2.6605
  248MOL0     H33462  10.147   4.920   9.987  1.3245  2.0679 -1.2125
  248MOL0     H33463   9.926   4.994   9.961  1.9962 -1.8770 -0.6860
  248MOL0     H33464   9.590   5.147   9.810 -0.6715 -0.9149  0.5151
  248MOL0     H33465   9.350   5.101   9.748 -1.9996 -2.2823  0.5865
  248MOL0     H33466   8.817   4.028  10.406  1.0023 -1.2898  1.8999
  248MOL0     H33467   8.931   3.967  10.196  0.5548 -2.3424 -0.9021
  248MOL0     H33468   8.964   4.080   9.749  0.2032  0.4985  1.5578
  248MOL0     H33469   9.177   4.052   9.628  1.3994  1.1216  3.5958
  248MOL0     H33470   9.311   3.918   9.450  0.1509  1.8157  0.2960
  248MOL0     H33471   9.400   4.002   9.585 -0.7777 -0.4429  2.6654
  248MOL0     H33472   9.548   3.925   9.395 -0.7163  0.3470 -0.4923
  248MOL0     H33473   9.475   3.768   9.408  2.9535 -0.8943  0.5590
  248MOL0     H33474   9.688   3.736   9.519 -0.3225 -0.2505  0.3478
  248MOL0     H33475   9.591   3.779   9.654  0.6615 -2.6125 -0.3194
  248MOL0     H33476   9.779   3.937   9.673  1.3705  1.2829 -0.4760
  248MOL0     H33477   9.650   4.043   9.606 -0.1908  0.1884 -1.0104
  248MOL0     H33478   9.938   3.973   9.291  1.3009  0.9213  1.0030
  248MOL0     H33479   9.194   3.649   9.773 -1.2813 -0.4510  2.9603
  248MOL0     H33480   9.041   3.688   9.920  0.9647 -2.1247 -1.6823
  249MOL0     O33481   6.697   0.119   2.798 -0.2072 -0.4866  0.4221
  249MOL0     C33482   6.666   0.152   2.911 -1.1568  0.0797  1.2409
  249MOL0     O33483   6.541   0.152   2.961 -0.4257 -0.2141  0.0904
  249MOL0     C33484   6.430   0.113   2.892 -0.4319 -0.0654  0.6609
  249MOL0     C33485   6.332   0.212   2.856  0.5526 -0.4083 -0.0267
  249MOL0     C33486   6.207   0.180   2.800 -0.6608 -0.2510  0.3560
  249MOL0     C33487   6.185   0.043   2.775  0.4958 -0.2271 -0.5477
  249MOL0     O33488   6.076  -0.009   2.715 -0.0472 -0.8227  0.1705
  249MOL0     C33489   6.021   0.055   2.591  0.3103 -0.6663  0.1221
  249MOL0     C33490   5.888   0.118   2.631  0.0917 -0.2564 -0.0330
  249MOL0     C33491   5.800  -0.008   2.658  0.2157  0.6688 -0.6211
  249MOL0     C33492   5.657   0.052   2.637  0.3383 -0.6799 -0.7486
  249MOL0     C33493   5.550  -0.060   2.692 -0.5559 -0.6733  0.2232
  249MOL0     C33494   5.531  -0.187   2.597 -0.5992 -0.3109 -0.4007
  249MOL0     C33495   5.440  -0.149   2.477 -0.2091  0.1119  0.0939
  249MOL0     C33496   5.394  -0.274   2.401 -0.2712  0.1177  0.1982
  249MOL0     N33497   5.306  -0.238   2.295  0.3393 -0.0392  0.1874
  249MOL0     C33498   5.339  -0.248   2.163  0.3049  0.6277  0.0382
  249MOL0     C33499   5.226  -0.213   2.085  0.1699  0.0123 -0.3863
  249MOL0     C33500   5.200  -0.225   1.938 -0.4429 -0.6715 -0.6692
  249MOL0     C33501   5.172  -0.101   1.861 -0.0407  0.4912  1.5095
  249MOL0     C33502   5.084  -0.008   1.938 -0.6357 -0.0589 -0.2548
  249MOL0     C33503   5.041   0.104   1.839 -0.9048 -0.5772 -0.4026
  249MOL0     O33504   4.983   0.207   1.922 -0.1013  0.8359  0.2750
  249MOL0     C33505   4.858   0.238   1.909  0.5379 -0.2426  0.3379
  249MOL0     C33506   4.808   0.370   1.946 -0.3941  1.2678  0.7958
  249MOL0     C33507   4.674   0.406   1.940  0.3505  0.9205 -0.1919
  249MOL0     C33508   4.629   0.544   1.990  0.6952 -0.0302  0.2757
  249MOL0     C33509   4.579   0.301   1.918 -0.3813 -0.9881 -0.5588
  249MOL0     C33510   4.443   0.332   1.899 -0.1654 -0.5302 -0.9929
  249MOL0     O33511   4.349   0.254   1.974 -0.3023 -0.4161 -0.0375
  249MOL0     C33512   4.218   0.282   1.950  0.1049 -0.3239 -0.3703
  249MOL0     C33513   4.167   0.408   1.994 -0.3136  0.3347 -0.1952
  249MOL0     C33514   4.030   0.433   1.977  0.1270  1.0040 -1.1063
  249MOL0     C33515   3.948   0.331   1.921 -0.2762  0.2392  0.1992
  249MOL0     O33516   3.818   0.367   1.914 -0.1476 -0.1254 -0.3310
  249MOL0     C33517   3.747   0.325   2.034 -0.1895 -0.7014 -0.6224
  249MOL0     C33518   3.612   0.402   2.050  0.2199 -0.9052  1.4645
  249MOL0     C33519   3.481   0.354   1.986  0.0057 -0.8615 -0.1864
  249MOL0     C33520   3.362   0.451   2.017  0.2544  0.2490 -0.3235
  249MOL0     C33521   3.368   0.590   1.945  0.1988 -0.3900  0.0574
  249MOL0     C33522   3.243   0.682   1.970 -0.0972 -0.4753 -0.5611
  249MOL0     C33523   3.251   0.758   2.101  1.5351  0.2324 -0.1967
  249MOL0     C33524   3.112   0.805   2.151 -0.2675 -0.3863  0.4891
  249MOL0    Cl33525   3.126   0.900   2.287  0.0313  0.1556 -0.1073
  249MOL0     C33526   4.002   0.211   1.871 -0.5588 -0.1497 -0.4030
  249MOL0     C33527   4.135   0.186   1.888 -0.5178  0.2316 -0.0014
  249MOL0     O33528   4.415   0.416   1.816 -0.6220 -0.8996 -0.0866
  249MOL0     C33529   4.617   0.163   1.904 -0.0826 -0.3217 -0.4617
  249MOL0     C33530   4.758   0.137   1.890  0.5450  1.1162 -0.2910
  249MOL0     N33531   5.123  -0.196   2.183  0.6630 -0.1851 -0.7533
  249MOL0     N33532   5.171  -0.208   2.301  0.2262 -0.6780  0.4026
  249MOL0     C33533   6.280  -0.053   2.805  0.0558  0.8356  0.1985
  249MOL0     C33534   6.406  -0.021   2.858  0.7165 -0.0469  0.0631
  249MOL0     C33535   6.777   0.208   2.996  0.1710  0.2105 -0.9260
  249MOL0     C33536   6.915   0.215   2.953  0.6325  0.6873  0.5452
  249MOL0     C33537   7.018   0.258   3.034  0.9209 -0.6646  0.5731
  249MOL0     C33538   6.982   0.307   3.157  0.1143 -0.5922 -0.7087
  249MOL0     O33539   7.084   0.345   3.239  0.3163  0.0986  0.5477
  249MOL0     C33540   7.062   0.399   3.368  0.7622 -0.2270 -0.3440
  249MOL0     C33541   7.178   0.418   3.455  0.3379  0.4870 -0.1656
  249MOL0     C33542   7.278   0.508   3.401 -0.7088 -0.5570 -0.2219
  249MOL0     C33543   7.410   0.519   3.482  0.9651  0.1525 -0.8181
  249MOL0     C33544   7.509   0.599   3.418  0.3716  0.1528  0.1358
  249MOL0     C33545   7.588   0.674   3.356  0.2946  0.3295  0.3855
  249MOL0     C33546   6.843   0.309   3.199  0.4177 -0.0050  0.0946
  249MOL0     C33547   6.750   0.256   3.123  0.3821  0.0100  0.6316
  249MOL0     H33548   6.349   0.315   2.884 -0.0954  0.0965 -1.3859
  249MOL0     H33549   6.136   0.255   2.767  1.0863  0.7436 -1.3272
  249MOL0     H33550   6.080   0.132   2.540 -1.5670  1.2488  0.6954
  249MOL0     H33551   6.005  -0.024   2.517  1.6413 -0.4548 -0.4004
  249MOL0     H33552   5.902   0.176   2.723  2.0693 -0.7320  0.0169
  249MOL0     H33553   5.845   0.181   2.553 -1.9983 -0.8782  0.5693
  249MOL0     H33554   5.821  -0.085   2.583 -0.6058  2.9375 -3.3581
  249MOL0     H33555   5.812  -0.038   2.763  1.6253  1.0730 -0.6371
  249MOL0     H33556   5.642   0.151   2.682 -0.6094 -0.3873 -1.6518
  249MOL0     H33557   5.639   0.069   2.531 -2.2152 -3.0371 -0.7954
  249MOL0     H33558   5.576  -0.078   2.796  4.2352  2.0004 -0.2157
  249MOL0     H33559   5.453  -0.009   2.690  0.9237  2.4187  0.7943
  249MOL0     H33560   5.627  -0.231   2.566  0.4040  0.1659  1.8139
  249MOL0     H33561   5.472  -0.260   2.655  0.3812 -0.8017  0.0071
  249MOL0     H33562   5.349  -0.097   2.507  0.6182  0.5723  1.9617
  249MOL0     H33563   5.508  -0.094   2.411 -3.7831  1.7046 -2.5891
  249MOL0     H33564   5.341  -0.339   2.471  3.3746 -0.8504  2.3561
  249MOL0     H33565   5.487  -0.314   2.359 -0.5794 -1.0997  0.6379
  249MOL0     H33566   5.432  -0.297   2.135  0.4048 -0.6776  2.4124
  249MOL0     H33567   5.285  -0.279   1.895 -0.8192 -0.6772 -1.4171
  249MOL0     H33568   5.106  -0.281   1.939 -1.9829  1.7202 -2.3249
  249MOL0     H33569   5.140  -0.136   1.762  1.1452  0.3929  1.1494
  249MOL0     H33570   5.264  -0.046   1.840 -2.3653  3.5792 -1.6852
  249MOL0     H33571   5.142   0.039   2.018  1.1036  1.5171 -2.3079
  249MOL0     H33572   4.997  -0.058   1.982  0.0426 -1.4208 -0.4093
  249MOL0     H33573   4.977   0.073   1.756 -0.0814 -1.3329 -0.7774
  249MOL0     H33574   5.135   0.142   1.798 -0.6493  1.3865  1.8089
  249MOL0     H33575   4.888   0.438   1.972 -1.0391  1.9330  1.0741
  249MOL0     H33576   4.585   0.595   1.904 -3.6551 -1.3728  1.5007
  249MOL0     H33577   4.540   0.550   2.053  0.1526  0.8149 -0.5548
  249MOL0     H33578   4.707   0.607   2.035 -0.1425  3.4173 -2.5897
  249MOL0     H33579   4.235   0.480   2.039 -0.2572  0.5875 -0.6811
  249MOL0     H33580   3.982   0.522   2.017  1.4992  0.2591  2.6574
  249MOL0     H33581   3.716   0.221   2.030 -0.9836 -0.5237  0.5302
  249MOL0     H33582   3.809   0.359   2.118 -0.8835  1.3384 -0.8612
  249MOL0     H33583   3.583   0.397   2.155 -1.6135 -0.1780  1.0239
  249MOL0     H33584   3.628   0.501   2.007  1.6220 -0.9600  1.7870
  249MOL0     H33585   3.464   0.251   2.020  4.0241 -1.1358  1.5562
  249MOL0     H33586   3.492   0.355   1.877 -0.5853  0.9118 -0.2563
  249MOL0     H33587   3.269   0.396   1.999  0.0453  0.3429  0.4249
  249MOL0     H33588   3.364   0.460   2.126  0.9185 -0.2645 -0.2874
  249MOL0     H33589   3.383   0.579   1.837  1.8258  2.5105 -0.1031
  249MOL0     H33590   3.454   0.640   1.989 -2.0370  2.6332  1.3848
  249MOL0     H33591   3.245   0.763   1.897  0.6378 -0.1691 -0.2171
  249MOL0     H33592   3.151   0.625   1.956  0.5656 -1.3725 -1.4175
  249MOL0     H33593   3.323   0.840   2.092 -1.3119  2.7701 -1.8111
  249MOL0     H33594   3.293   0.686   2.172  1.5065  1.1375  0.7662
  249MOL0     H33595   3.038   0.726   2.168 -0.3424 -0.3615  0.2856
  249MOL0     H33596   3.070   0.862   2.067 -2.3788 -1.5039  0.7137
  249MOL0     H33597   3.935   0.150   1.813  0.6578  0.7362 -2.8557
  249MOL0     H33598   4.177   0.090   1.859  0.6053  0.1381  1.7684
  249MOL0     H33599   4.555   0.074   1.900  0.6535 -0.8802  0.1517
  249MOL0     H33600   4.790   0.035   1.869 -0.5091  0.4662  1.1365
  249MOL0     H33601   6.257  -0.157   2.783  2.0876 -0.2388  2.6114
  249MOL0     H33602   6.486  -0.091   2.876  1.4688  0.2832 -1.8156
  249MOL0     H33603   6.925   0.182   2.850  0.9456  0.8840  0.5115
  249MOL0     H33604   7.121   0.259   3.001  1.2168  0.4164  1.4478
  249MOL0     H33605   7.007   0.492   3.351 -1.7202 -1.9704 -2.6715
  249MOL0     H33606   6.998   0.337   3.431  1.3610  0.1455  0.6494
  249MOL0     H33607   7.227   0.320   3.450 -0.3692  0.0913  0.5172
  249MOL0     H33608   7.140   0.439   3.555  0.0910 -1.4206  0.1782
  249MOL0     H33609   7.238   0.609   3.386  0.5336  0.4239  2.4086
  249MOL0     H33610   7.305   0.456   3.308  1.4151 -2.3173  1.2832
  249MOL0     H33611   7.441   0.418   3.509 -2.4696 -0.8869 -0.3013
  249MOL0     H33612   7.389   0.553   3.583  2.6850 -2.3755  0.4813
  249MOL0     H33613   7.658   0.740   3.310  0.0824  0.2235 -0.0952
  249MOL0     H33614   6.817   0.358   3.292 -2.7851 -3.6550  1.3981
  249MOL0     H33615   6.648   0.264   3.158  0.0688  1.3627 -0.5035
  250MOL0     O33616   2.458   9.057  11.002  0.4791 -0.1153  0.3570
  250MOL0     C33617   2.558   9.056  10.931 -0.7800 -0.1092 -0.9556
  250MOL0     O33618   2.562   9.066  10.793 -0.4065 -0.2911  0.7033
  250MOL0     C33619   2.438   9.082  10.729  0.3662 -0.4339  0.0256
  250MOL0     C33620   2.371   8.970  10.694  0.0227  0.4780  0.1403
  250MOL0     C33621   2.244   8.974  10.637 -0.3899 -1.0817 -0.1634
  250MOL0     C33622   2.185   9.099  10.605 -0.0738  0.0316 -0.9828
  250MOL0     O33623   2.059   9.106  10.556 -0.2832 -0.0469 -0.0089
  250MOL0     C33624   2.004   8.992  10.473 -1.0277 -0.7583 -0.0183
  250MOL0     C33625   1.865   9.032  10.430  0.4916  0.5718  0.2634
  250MOL0     C33626   1.828   8.922  10.331 -0.3572  0.3420  0.2774
  250MOL0     C33627   1.675   8.924  10.299  0.0643  0.1204 -0.7261
  250MOL0     C33628   1.645   8.848  10.174  0.1213 -0.3681  0.1516
  250MOL0     C33629   1.507   8.881  10.118  0.0301  0.4193  0.3916
  250MOL0     C33630   1.403   8.788  10.173 -0.0831 -0.2291  0.0467
  250MOL0     C33631   1.254   8.822  10.146  0.0669  0.4038  0.6503
  250MOL0     N33632   1.160   8.724  10.209 -0.8448 -0.1694  0.1733
  250MOL0     C33633   1.148   8.664  10.341 -0.4477 -0.0919 -0.0994
  250MOL0     C33634   1.028   8.597  10.342  0.3727  0.8284 -0.7289
  250MOL0     C33635   0.961   8.515  10.451 -1.0819  0.4537  1.6233
  250MOL0     C33636   0.876   8.599  10.544 -0.0538  1.2010  0.0277
  250MOL0     C33637   0.768   8.688  10.483 -0.1170 -0.1610  0.2949
  250MOL0     C33638   0.673   8.589  10.433 -0.3028 -0.4596  1.2828
  250MOL0     O33639   0.565   8.645  10.358 -1.3059 -0.5390  0.8024
  250MOL0     C33640   0.436   8.636  10.413  0.0198 -0.6394 -0.4531
  250MOL0     C33641   0.410   8.646  10.549  0.7617 -0.7044  0.0056
  250MOL0     C33642   0.274   8.643  10.597  0.6567 -0.5550  0.5614
  250MOL0     C33643   0.261   8.635  10.750  0.8595 -0.0004 -0.0840
  250MOL0     C33644   0.167   8.650  10.495 -0.7078 -0.6721 -0.4157
  250MOL0     C33645   0.025   8.657  10.533 -0.1720 -0.5683  0.0650
  250MOL0     O33646  -0.065   8.628  10.436 -0.3204  0.8748 -0.1985
  250MOL0     C33647  -0.194   8.671  10.440 -0.2606  0.1316  0.5519
  250MOL0     C33648  -0.302   8.584  10.406 -0.3584  0.3144  0.0853
  250MOL0     C33649  -0.429   8.629  10.417  0.3770 -0.5944  0.4433
  250MOL0     C33650  -0.460   8.764  10.461  1.0405 -0.1676  0.3837
  250MOL0     O33651  -0.585   8.821  10.489  0.1752 -0.7618 -0.2931
  250MOL0     C33652  -0.676   8.761  10.400 -0.0239  1.0138  0.5322
  250MOL0     C33653  -0.815   8.823  10.398  0.3363 -0.6067  0.0972
  250MOL0     C33654  -0.855   8.881  10.530 -0.2090  0.0572 -0.1115
  250MOL0     C33655  -0.997   8.929  10.525  1.2139 -0.7457  0.1880
  250MOL0     C33656  -1.101   8.919  10.637 -0.0240  0.2043 -1.0917
  250MOL0     C33657  -1.203   9.037  10.628 -0.8160  0.0475 -0.4418
  250MOL0     C33658  -1.314   9.010  10.533  0.1067 -0.4416  1.0148
  250MOL0     C33659  -1.416   9.128  10.531  0.4532 -0.2185  0.3060
  250MOL0    Cl33660  -1.499   9.151  10.690  0.0479 -0.0093 -0.2437
  250MOL0     C33661  -0.355   8.851  10.482  0.1323  0.2262 -0.4682
  250MOL0     C33662  -0.226   8.803  10.483 -0.3221  0.5725 -0.9056
  250MOL0     O33663  -0.010   8.683  10.647  0.2155 -0.3156  0.0869
  250MOL0     C33664   0.204   8.649  10.362  0.2843 -0.2124  0.1850
  250MOL0     C33665   0.332   8.628  10.323 -0.7147  0.7703  0.7375
  250MOL0     N33666   0.975   8.609  10.218  0.0142  0.1921  0.7149
  250MOL0     N33667   1.061   8.671  10.142 -0.2832 -0.3552  0.7495
  250MOL0     C33668   2.259   9.216  10.633  0.6225 -0.2937  0.0389
  250MOL0     C33669   2.389   9.200  10.688  0.2537 -1.1535 -0.9157
  250MOL0     C33670   2.688   9.032  11.000  0.4124 -0.1359 -0.3824
  250MOL0     C33671   2.689   8.977  11.130  0.2848 -0.7340 -0.4505
  250MOL0     C33672   2.810   8.977  11.200  0.0213  0.5107 -0.0882
  250MOL0     C33673   2.935   9.014  11.144  0.8668  0.3351 -0.3467
  250MOL0     O33674   3.052   9.008  11.219 -0.9626  0.2738  0.1880
  250MOL0     C33675   3.174   8.960  11.152 -1.2569 -0.4074  0.9064
  250MOL0     C33676   3.176   8.819  11.083  0.3929  0.1593  0.0762
  250MOL0     C33677   3.322   8.793  11.031  0.1327 -1.0296  0.2460
  250MOL0     C33678   3.354   8.665  10.953 -0.3442 -0.3920  0.3160
  250MOL0     C33679   3.281   8.655  10.826 -0.3831 -0.5481  0.1541
  250MOL0     C33680   3.228   8.639  10.718  0.0599  1.1589  0.3034
  250MOL0     C33681   2.930   9.071  11.013 -0.9218 -0.0365  0.0368
  250MOL0     C33682   2.809   9.077  10.941 -0.3540  0.2654 -0.0966
  250MOL0     H33683   2.410   8.872  10.720  0.8773  0.3066 -1.6416
  250MOL0     H33684   2.195   8.879  10.617  1.7381 -2.4511  0.8788
  250MOL0     H33685   2.068   8.985  10.385 -0.3082  0.6474  0.3731
  250MOL0     H33686   1.998   8.897  10.527 -0.1124 -0.4315  0.6655
  250MOL0     H33687   1.794   9.028  10.514 -0.5681 -1.4944 -0.6406
  250MOL0     H33688   1.863   9.132  10.387 -2.0953  1.8125  2.8780
  250MOL0     H33689   1.896   8.924  10.245 -2.8980 -4.2556 -2.2174
  250MOL0     H33690   1.847   8.829  10.385  0.2671  0.8517  0.9442
  250MOL0     H33691   1.628   8.873  10.383  1.5885 -2.6677 -1.4523
  250MOL0     H33692   1.646   9.028  10.280  0.6334  0.2153 -1.1180
  250MOL0     H33693   1.724   8.871  10.102 -0.2908  0.7267  0.0390
  250MOL0     H33694   1.658   8.742  10.199  3.0425  0.2967  1.9760
  250MOL0     H33695   1.480   8.985  10.139  0.9267  0.4605  1.4306
  250MOL0     H33696   1.516   8.875  10.009 -0.2029  5.6064 -0.1664
  250MOL0     H33697   1.427   8.690  10.130 -1.1410 -1.6391  2.4267
  250MOL0     H33698   1.425   8.773  10.280  2.7894 -3.8974 -0.8364
  250MOL0     H33699   1.238   8.814  10.038 -2.1681 -1.3697  1.0497
  250MOL0     H33700   1.232   8.925  10.177 -2.0188 -0.2811  1.5902
  250MOL0     H33701   1.225   8.666  10.417 -0.2272 -3.1007 -0.1178
  250MOL0     H33702   0.909   8.432  10.402  0.7236 -0.1552  0.6609
  250MOL0     H33703   1.033   8.466  10.517 -1.4674 -1.7675  0.4726
  250MOL0     H33704   0.945   8.664  10.599  1.2463 -0.8008  0.8890
  250MOL0     H33705   0.828   8.532  10.616  1.8613  1.3726  1.5658
  250MOL0     H33706   0.809   8.754  10.407  2.7681 -0.5016  1.4300
  250MOL0     H33707   0.718   8.737  10.568  1.5478 -0.5077  1.5249
  250MOL0     H33708   0.635   8.525  10.514 -2.7599 -0.4004  0.2863
  250MOL0     H33709   0.723   8.522  10.363 -0.8885  1.4943 -1.1554
  250MOL0     H33710   0.491   8.675  10.615  1.0502  3.1728 -1.7680
  250MOL0     H33711   0.351   8.638  10.811  0.4235 -2.1083  0.7507
  250MOL0     H33712   0.195   8.714  10.786  1.6193  0.2976  0.6858
  250MOL0     H33713   0.210   8.545  10.784  0.4786  0.8931  1.8267
  250MOL0     H33714  -0.269   8.492  10.361  1.0464 -0.3585  2.3409
  250MOL0     H33715  -0.511   8.559  10.402  1.3075 -1.6082 -0.0260
  250MOL0     H33716  -0.635   8.760  10.299 -1.4771  2.0199 -0.1005
  250MOL0     H33717  -0.703   8.657  10.420  1.0782  0.4464 -0.7652
  250MOL0     H33718  -0.821   8.906  10.326  0.1772 -0.5374  0.1901
  250MOL0     H33719  -0.879   8.745  10.358 -0.5169  0.8200 -1.4493
  250MOL0     H33720  -0.794   8.970  10.550  0.0600  0.3893 -2.1973
  250MOL0     H33721  -0.843   8.800  10.602 -2.7748 -3.8138 -3.5854
  250MOL0     H33722  -0.981   9.032  10.492 -1.4274 -0.2753  0.1283
  250MOL0     H33723  -1.049   8.888  10.438 -0.0382  2.2926 -0.6530
  250MOL0     H33724  -1.054   8.924  10.736 -2.5553 -1.9063  0.3369
  250MOL0     H33725  -1.158   8.826  10.637  0.7668 -0.2859 -1.6181
  250MOL0     H33726  -1.244   9.057  10.727 -3.1443  0.3218 -1.4135
  250MOL0     H33727  -1.159   9.134  10.602 -2.7278  0.4059 -2.6370
  250MOL0     H33728  -1.374   8.919  10.543 -1.4926  0.5601  0.7682
  250MOL0     H33729  -1.278   9.005  10.430  0.2512 -1.7410  1.1026
  250MOL0     H33730  -1.496   9.107  10.459 -0.0175  0.2048  0.7049
  250MOL0     H33731  -1.360   9.216  10.497  1.6479 -0.6771  1.0160
  250MOL0     H33732  -0.367   8.952  10.519  3.1110  1.1638 -1.7176
  250MOL0     H33733  -0.149   8.862  10.531  0.3929 -1.3014  0.3453
  250MOL0     H33734   0.139   8.664  10.276  0.3147 -4.2123 -0.7042
  250MOL0     H33735   0.359   8.626  10.218 -0.3131  1.8877  0.8038
  250MOL0     H33736   2.206   9.308  10.614  1.0127  0.0849  0.7350
  250MOL0     H33737   2.445   9.293  10.701 -1.7383 -0.0389  0.3276
  250MOL0     H33738   2.592   8.953  11.172  0.3738  1.4435  1.1590
  250MOL0     H33739   2.834   8.942  11.301  0.6947  1.7326  0.1986
  250MOL0     H33740   3.199   9.035  11.076 -2.0443  0.2912  1.3207
  250MOL0     H33741   3.263   8.956  11.215  1.5356  4.3557 -2.0711
  250MOL0     H33742   3.109   8.816  10.997  1.4569  1.3363 -0.8257
  250MOL0     H33743   3.139   8.746  11.156 -2.4784 -0.7761 -2.1088
  250MOL0     H33744   3.393   8.809  11.112  0.2469  1.9979 -0.3233
  250MOL0     H33745   3.345   8.875  10.962  1.8138 -0.6845  1.1619
  250MOL0     H33746   3.358   8.572  11.011 -0.2806 -0.9444 -0.5700
  250MOL0     H33747   3.461   8.673  10.933  0.4716 -0.8954  3.7968
  250MOL0     H33748   3.169   8.630  10.629  1.2971 -0.2292 -0.4207
  250MOL0     H33749   3.026   9.098  10.970 -0.9038 -0.0213  0.0853
  250MOL0     H33750   2.815   9.112  10.839  0.7370  1.4821  0.3453
  251MOL0     O33751   3.473  10.700  10.350 -0.3095  0.2533 -0.2371
  251MOL0     C33752   3.489  10.618  10.445 -0.0070 -0.0520  0.9598
  251MOL0     O33753   3.397  10.553  10.517 -0.6622 -0.5509  0.7944
  251MOL0     C33754   3.269  10.556  10.474  0.1157 -0.9804 -0.4297
  251MOL0     C33755   3.213  10.454  10.402  0.3133 -0.4469 -0.6669
  251MOL0     C33756   3.076  10.453  10.375  0.8478 -0.4447 -0.0572
  251MOL0     C33757   2.986  10.555  10.427 -0.0496 -0.2153 -0.0170
  251MOL0     O33758   2.849  10.546  10.408  1.1415 -0.1671  0.2183
  251MOL0     C33759   2.784  10.670  10.380 -0.3282  0.0150 -0.0728
  251MOL0     C33760   2.796  10.712  10.234 -0.0583 -0.3944  0.0275
  251MOL0     C33761   2.810  10.617  10.115  0.5913 -0.2096  0.0359
  251MOL0     C33762   2.686  10.534  10.093  0.3095 -0.4613 -0.2032
  251MOL0     C33763   2.702  10.430   9.978  0.1970  0.2933 -0.3552
  251MOL0     C33764   2.803  10.317  10.008 -0.7143  0.4365 -0.0538
  251MOL0     C33765   2.763  10.224  10.127 -0.9245 -0.3706  0.3377
  251MOL0     C33766   2.646  10.131  10.094  0.6194  0.2338 -0.3717
  251MOL0     N33767   2.668  10.047   9.975  0.1471 -0.5229  0.7142
  251MOL0     C33768   2.651  10.090   9.848 -0.4276  1.2676  0.4420
  251MOL0     C33769   2.701   9.986   9.775  0.7908  0.6786  0.3845
  251MOL0     C33770   2.686   9.980   9.627 -0.0631 -0.3625  0.0479
  251MOL0     C33771   2.814  10.043   9.557 -0.4227 -0.4653  0.0406
  251MOL0     C33772   2.827  10.016   9.409 -0.7604  0.2114 -0.3792
  251MOL0     C33773   2.721  10.075   9.307 -0.4449  0.0644 -0.3505
  251MOL0     O33774   2.718  10.215   9.318  0.2537 -0.4311  0.2919
  251MOL0     C33775   2.640  10.295   9.228 -0.4451 -0.1815 -0.6616
  251MOL0     C33776   2.661  10.432   9.234 -0.2553 -0.3234 -0.2750
  251MOL0     C33777   2.590  10.516   9.142  1.2269 -0.5464  0.1348
  251MOL0     C33778   2.612  10.669   9.149  0.3194  0.1850  0.6767
  251MOL0     C33779   2.503  10.454   9.054 -0.2601 -0.4669 -0.5909
  251MOL0     C33780   2.430  10.527   8.956  0.3062  0.2360  0.0477
  251MOL0     O33781   2.303  10.556   8.984  0.4742  0.3118 -0.1382
  251MOL0     C33782   2.226  10.625   8.900 -0.4050 -0.3519  0.0097
  251MOL0     C33783   2.090  10.598   8.907 -0.2191 -0.3204 -0.0354
  251MOL0     C33784   1.993  10.662   8.826 -0.1309 -0.3174 -0.0980
  251MOL0     C33785   2.044  10.761   8.741  0.0393  0.4782  0.0403
  251MOL0     O33786   1.952  10.844   8.677 -0.7227 -0.4464 -0.5403
  251MOL0     C33787   1.965  10.844   8.531  0.7572  0.1999  0.2916
  251MOL0     C33788   1.864  10.956   8.486 -1.1652 -0.2354 -0.0185
  251MOL0     C33789   1.867  10.987   8.337 -0.3874 -0.2018  0.0356
  251MOL0     C33790   1.814  11.125   8.301  0.0040  0.1363  0.1272
  251MOL0     C33791   1.805  11.133   8.147 -0.1842 -0.3429  0.0540
  251MOL0     C33792   1.761  11.273   8.107  0.3219 -0.2664 -1.1829
  251MOL0     C33793   1.871  11.380   8.100  0.5353  0.6818  0.4175
  251MOL0     C33794   1.867  11.485   8.211  0.7864 -0.8269 -0.0543
  251MOL0    Cl33795   1.989  11.607   8.171 -0.5515 -0.1129 -0.2515
  251MOL0     C33796   2.181  10.793   8.727  0.3510 -0.2935 -0.2691
  251MOL0     C33797   2.273  10.724   8.811 -0.4755 -0.0931  0.1892
  251MOL0     O33798   2.485  10.537   8.847 -0.2399  0.5229 -0.1977
  251MOL0     C33799   2.475  10.320   9.061 -0.0168 -0.0746  0.0763
  251MOL0     C33800   2.538  10.239   9.154 -0.6034 -0.6648  0.0077
  251MOL0     N33801   2.771   9.901   9.860 -0.4904 -0.3443  0.5089
  251MOL0     N33802   2.756   9.940   9.983  0.9435 -0.5664  0.9335
  251MOL0     C33803   3.056  10.651  10.508 -0.2849 -0.3023 -0.2085
  251MOL0     C33804   3.188  10.651  10.543 -0.2548  0.4407  0.0318
  251MOL0     C33805   3.628  10.578  10.479  0.5796 -0.5263 -0.5362
  251MOL0     C33806   3.652  10.489  10.583  0.1969 -0.0287  0.3490
  251MOL0     C33807   3.785  10.472  10.635 -0.0848  0.3023  0.2190
  251MOL0     C33808   3.892  10.530  10.565 -1.0751  0.1860  0.0500
  251MOL0     O33809   4.030  10.512  10.584  0.0695  0.1399 -0.3446
  251MOL0     C33810   4.066  10.432  10.693  0.6327 -0.2416  0.0870
  251MOL0     C33811   4.213  10.430  10.713 -0.2898  0.5088  0.2981
  251MOL0     C33812   4.262  10.325  10.816  0.2715  0.3583 -0.2747
  251MOL0     C33813   4.407  10.318  10.854  0.3440  0.7368  0.0773
  251MOL0     C33814   4.458  10.453  10.865 -0.5322  0.9037  0.0677
  251MOL0     C33815   4.507  10.558  10.870 -0.7193  0.1310  0.6552
  251MOL0     C33816   3.874  10.616  10.454  0.1785  0.0504  0.4082
  251MOL0     C33817   3.736  10.632  10.412  0.3950 -0.7231  0.2266
  251MOL0     H33818   3.272  10.370  10.366  0.4537 -2.0926  2.9802
  251MOL0     H33819   3.038  10.362  10.330  0.4528 -0.7058  0.7904
  251MOL0     H33820   2.679  10.650  10.402 -0.7786  1.3125 -0.9813
  251MOL0     H33821   2.819  10.757  10.436 -0.7279  1.2471 -1.6763
  251MOL0     H33822   2.703  10.770  10.226  0.2734  0.2195  0.5083
  251MOL0     H33823   2.876  10.787  10.233  0.3615 -0.8357 -0.7505
  251MOL0     H33824   2.843  10.672  10.026 -0.4921 -0.2166 -0.3877
  251MOL0     H33825   2.884  10.546  10.151 -3.2388 -2.3294  4.8368
  251MOL0     H33826   2.643  10.487  10.182 -2.6401 -1.2841 -1.9207
  251MOL0     H33827   2.620  10.614  10.060  1.5050  0.8513  0.5120
  251MOL0     H33828   2.611  10.373   9.956 -0.5067  1.5702 -0.8935
  251MOL0     H33829   2.741  10.457   9.879 -2.1275 -0.1598 -1.4641
  251MOL0     H33830   2.813  10.251   9.922 -2.1022  1.4942 -1.0661
  251MOL0     H33831   2.905  10.347  10.036 -0.7652 -1.2232  2.2408
  251MOL0     H33832   2.846  10.158  10.155 -2.1570 -1.5153  1.4264
  251MOL0     H33833   2.744  10.270  10.224 -2.7209 -0.0451 -0.1339
  251MOL0     H33834   2.557  10.192  10.076  1.8401  2.1033 -0.4194
  251MOL0     H33835   2.617  10.073  10.182  0.2628  0.7150 -0.1698
  251MOL0     H33836   2.611  10.182   9.807  1.3873  3.7012  3.6565
  251MOL0     H33837   2.680   9.874   9.601  1.4594 -0.5740  0.4478
  251MOL0     H33838   2.594  10.033   9.603 -0.9787 -2.0249 -0.2787
  251MOL0     H33839   2.903  10.007   9.609 -0.7889 -1.3077  0.0982
  251MOL0     H33840   2.813  10.152   9.562  2.6789 -0.4178  1.5544
  251MOL0     H33841   2.830   9.907   9.395 -2.1805  0.2213 -0.9254
  251MOL0     H33842   2.921  10.050   9.365 -0.1771 -1.1952 -0.2862
  251MOL0     H33843   2.624  10.030   9.328  0.1479 -0.3943  1.6311
  251MOL0     H33844   2.756  10.045   9.207 -1.0543 -2.2487  0.0693
  251MOL0     H33845   2.726  10.477   9.307 -1.5510  1.3480 -0.0810
  251MOL0     H33846   2.520  10.721   9.177 -2.3082 -4.2002  1.1145
  251MOL0     H33847   2.700  10.703   9.204  2.9944  2.0483 -4.1484
  251MOL0     H33848   2.624  10.706   9.047  0.0433 -1.2279  0.1074
  251MOL0     H33849   2.060  10.534   8.990  3.0187 -0.6376  1.0098
  251MOL0     H33850   1.889  10.631   8.834  0.5637 -2.8189 -0.0269
  251MOL0     H33851   2.067  10.870   8.502  0.2583  3.1244  0.8191
  251MOL0     H33852   1.935  10.746   8.491  1.6768 -0.7848  1.9031
  251MOL0     H33853   1.770  10.918   8.526 -0.7794 -1.9661 -0.6982
  251MOL0     H33854   1.898  11.048   8.535  1.0240  0.0049 -1.8028
  251MOL0     H33855   1.804  10.917   8.280 -2.0947  2.4200 -1.5465
  251MOL0     H33856   1.967  10.984   8.294  1.1048  1.8205  3.0521
  251MOL0     H33857   1.723  11.133   8.360  0.1403  0.1469  0.3358
  251MOL0     H33858   1.878  11.204   8.342 -0.4216 -0.1942  1.4903
  251MOL0     H33859   1.732  11.069   8.098 -0.4744 -0.0846  0.1435
  251MOL0     H33860   1.904  11.111   8.107 -0.3215  1.1762 -1.2276
  251MOL0     H33861   1.709  11.273   8.011 -0.4759  0.8179 -0.7787
  251MOL0     H33862   1.684  11.310   8.175 -1.6525 -1.3586 -2.6841
  251MOL0     H33863   1.847  11.431   8.006 -1.6699  2.9931  2.1254
  251MOL0     H33864   1.968  11.331   8.082 -1.1130 -2.5619 -0.4570
  251MOL0     H33865   1.887  11.438   8.308  3.4947 -0.3334 -0.3059
  251MOL0     H33866   1.768  11.530   8.213  1.5585  0.9260  0.2740
  251MOL0     H33867   2.207  10.867   8.653 -0.1581  0.5591  0.3849
  251MOL0     H33868   2.377  10.756   8.810 -0.9882  1.6957  0.8557
  251MOL0     H33869   2.417  10.280   8.978  0.9326  1.5349 -1.4277
  251MOL0     H33870   2.522  10.133   9.169  4.0426 -1.1612  4.1118
  251MOL0     H33871   2.991  10.724  10.554 -0.4839  0.0231 -0.9847
  251MOL0     H33872   3.211  10.735  10.608 -2.7371  0.8358  0.5203
  251MOL0     H33873   3.565  10.460  10.642 -1.6461  1.4010 -1.4918
  251MOL0     H33874   3.807  10.416  10.725  3.0177  2.9980  1.3483
  251MOL0     H33875   4.019  10.454  10.790 -0.0845 -1.6046  0.0631
  251MOL0     H33876   4.037  10.328  10.679 -1.9067 -0.2923  4.0496
  251MOL0     H33877   4.222  10.531  10.755  1.7087 -0.8569  3.4838
  251MOL0     H33878   4.269  10.419  10.620  0.2768 -1.5505  0.8374
  251MOL0     H33879   4.222  10.228  10.785 -3.0556  0.9124  1.7582
  251MOL0     H33880   4.208  10.333  10.911  1.2177 -0.5549  0.3657
  251MOL0     H33881   4.467  10.275  10.774 -0.1185  0.6952 -0.2485
  251MOL0     H33882   4.421  10.264  10.948 -0.0396  0.3361 -0.0911
  251MOL0     H33883   4.537  10.661  10.880 -0.0316 -0.0554  0.5813
  251MOL0     H33884   3.947  10.666  10.390  0.1538 -0.4712 -0.0262
  251MOL0     H33885   3.724  10.700  10.328  2.8672  0.4533  0.7294
  252MOL0     O33886  10.421   9.927   3.640  0.5163  0.6972  0.0596
  252MOL0     C33887  10.432   9.888   3.518  0.6414 -0.0713 -0.6881
  252MOL0     O33888  10.346   9.929   3.411 -0.6002 -0.0024 -0.7479
  252MOL0     C33889  10.230   9.988   3.436  0.0318  0.7331 -0.8142
  252MOL0     C33890  10.197  10.115   3.377 -0.5650  0.0049  0.6726
  252MOL0     C33891  10.070  10.169   3.389  0.3339 -0.1106 -0.0984
  252MOL0     C33892   9.971  10.094   3.459 -0.1470 -0.1109  1.2240
  252MOL0     O33893   9.855  10.158   3.476  0.2669 -1.3870  0.8884
  252MOL0     C33894   9.855  10.235   3.594  0.1029  0.4010 -0.1419
  252MOL0     C33895   9.715  10.295   3.629 -0.1588  0.5096 -0.1617
  252MOL0     C33896   9.694  10.434   3.565 -0.4487  0.4570 -0.0357
  252MOL0     C33897   9.546  10.475   3.593 -0.3098  0.6129 -0.0832
  252MOL0     C33898   9.536  10.620   3.531  1.0804  0.1613  0.1345
  252MOL0     C33899   9.391  10.661   3.554  0.2305  0.0342  0.2887
  252MOL0     C33900   9.294  10.631   3.443 -0.8435  0.0969  0.1556
  252MOL0     C33901   9.152  10.604   3.483  0.3233  0.1399  0.1946
  252MOL0     N33902   9.064  10.721   3.515 -0.2163 -0.6191  0.0020
  252MOL0     C33903   9.010  10.759   3.636  0.0876  0.7719 -0.3120
  252MOL0     C33904   8.934  10.863   3.613  0.6531 -0.1462 -0.1603
  252MOL0     C33905   8.866  10.950   3.715 -1.1330 -0.5498  0.4970
  252MOL0     C33906   8.957  11.055   3.770  0.4038  0.0740 -0.7329
  252MOL0     C33907   8.970  11.161   3.660 -0.0426 -0.0830 -0.3341
  252MOL0     C33908   9.044  11.283   3.726  0.3785  0.0578  0.9566
  252MOL0     O33909   9.169  11.242   3.779  0.5475 -0.8992 -1.0260
  252MOL0     C33910   9.277  11.204   3.703  0.2057 -0.8666  1.1085
  252MOL0     C33911   9.289  11.237   3.567 -0.0382  0.5828 -0.5742
  252MOL0     C33912   9.401  11.192   3.484 -0.0416  0.3826  0.4605
  252MOL0     C33913   9.400  11.232   3.339  0.3337 -0.0082 -0.2535
  252MOL0     C33914   9.494  11.108   3.547 -0.0666 -0.2382  0.1160
  252MOL0     C33915   9.617  11.045   3.482 -0.1612  0.3759 -0.1957
  252MOL0     O33916   9.705  10.969   3.561  0.2056 -0.5904 -0.1452
  252MOL0     C33917   9.808  10.895   3.512 -0.6678  0.0901  0.2801
  252MOL0     C33918   9.787  10.806   3.403 -0.5693 -0.7192 -0.5750
  252MOL0     C33919   9.896  10.732   3.354 -0.2611 -1.1503  0.0374
  252MOL0     C33920  10.023  10.721   3.415  0.2363 -0.2576 -0.1714
  252MOL0     O33921  10.123  10.648   3.365  0.0533  0.0756  0.1344
  252MOL0     C33922  10.215  10.582   3.455  0.4668  0.2611  1.3238
  252MOL0     C33923  10.309  10.488   3.382 -0.0433 -0.3759  0.2303
  252MOL0     C33924  10.409  10.422   3.478  0.5079  1.0509  0.2557
  252MOL0     C33925  10.512  10.354   3.398 -0.0940  0.1898  0.0005
  252MOL0     C33926  10.619  10.285   3.481  0.6298 -0.0048 -0.4337
  252MOL0     C33927  10.726  10.220   3.398 -0.7961 -0.8586 -0.2046
  252MOL0     C33928  10.824  10.124   3.465  0.6183  0.1706  0.0382
  252MOL0     C33929  10.948  10.111   3.387  0.2130 -1.1613 -0.7463
  252MOL0    Cl33930  11.069   9.994   3.448 -0.0922 -0.1817  0.3484
  252MOL0     C33931  10.039  10.807   3.534 -0.3511  0.6966  0.7474
  252MOL0     C33932   9.933  10.889   3.580 -0.0852  0.1456  0.1060
  252MOL0     O33933   9.629  11.050   3.359  0.1896  0.2479 -0.5261
  252MOL0     C33934   9.487  11.087   3.687 -0.3002 -0.0041  1.0332
  252MOL0     C33935   9.383  11.134   3.764  0.3481  0.1014 -0.8078
  252MOL0     N33936   8.920  10.876   3.472  0.2322  0.2225 -0.7280
  252MOL0     N33937   9.004  10.797   3.424  0.1985 -0.2561  0.2374
  252MOL0     C33938  10.004   9.965   3.517 -0.0918 -0.1692  0.1296
  252MOL0     C33939  10.140   9.923   3.511  0.5005  0.1281  0.0208
  252MOL0     C33940  10.550   9.808   3.490 -0.1528  0.1570 -0.0115
  252MOL0     C33941  10.606   9.806   3.361 -0.3664  0.0521 -0.5073
  252MOL0     C33942  10.719   9.740   3.341 -0.0667  0.7038  0.0829
  252MOL0     C33943  10.778   9.662   3.436 -1.1121 -0.0900 -0.8175
  252MOL0     O33944  10.886   9.598   3.388 -0.0643  0.0865 -0.0497
  252MOL0     C33945  10.953   9.542   3.494 -0.2635 -0.0722 -0.6886
  252MOL0     C33946  11.075   9.475   3.436  0.2908  0.3009  0.4488
  252MOL0     C33947  11.053   9.365   3.324  0.3256 -0.6045 -0.1111
  252MOL0     C33948  11.181   9.276   3.290  0.6763 -0.7603  0.0506
  252MOL0     C33949  11.165   9.157   3.203  0.5611 -0.1690 -0.7059
  252MOL0     C33950  11.149   9.054   3.129 -0.7119  0.5523  0.5432
  252MOL0     C33951  10.732   9.666   3.567  0.6809 -0.2761 -0.2180
  252MOL0     C33952  10.615   9.740   3.595  0.7847  0.2399 -0.4836
  252MOL0     H33953  10.268  10.164   3.311 -0.6223  0.3210  0.8471
  252MOL0     H33954  10.047  10.268   3.349  0.5814 -0.4806 -1.1913
  252MOL0     H33955   9.884  10.178   3.684  0.1918 -1.3043 -1.2005
  252MOL0     H33956   9.924  10.318   3.577  1.4246 -0.5426  0.3604
  252MOL0     H33957   9.638  10.218   3.614  1.5953 -1.6503  1.1924
  252MOL0     H33958   9.714  10.313   3.737  1.6168  2.4694 -0.3998
  252MOL0     H33959   9.764  10.511   3.599 -0.7317  1.2175 -1.1304
  252MOL0     H33960   9.715  10.426   3.458  0.8747  0.7751  0.1746
  252MOL0     H33961   9.474  10.405   3.552 -0.2151  0.3537  0.1842
  252MOL0     H33962   9.532  10.485   3.701 -2.3448 -0.1969 -0.2351
  252MOL0     H33963   9.608  10.688   3.578 -0.4787  1.1974  1.1730
  252MOL0     H33964   9.562  10.623   3.425  0.7399 -0.0239  0.0446
  252MOL0     H33965   9.354  10.622   3.649  0.0114  0.8879  0.5717
  252MOL0     H33966   9.403  10.770   3.550 -0.0210  0.0320 -0.7128
  252MOL0     H33967   9.277  10.720   3.381  0.8604  0.2826 -0.0934
  252MOL0     H33968   9.343  10.556   3.380  1.6951  2.8094 -1.3278
  252MOL0     H33969   9.151  10.547   3.576 -2.1559 -0.3603 -0.0752
  252MOL0     H33970   9.101  10.545   3.406 -1.9358 -0.7390  2.2363
  252MOL0     H33971   9.030  10.715   3.733  0.3083  0.4312 -0.5113
  252MOL0     H33972   8.780  11.004   3.675  0.7752  2.0232 -0.4859
  252MOL0     H33973   8.831  10.886   3.796 -0.2524 -1.8903 -0.1480
  252MOL0     H33974   9.056  11.015   3.792  1.1534  2.2496  0.2469
  252MOL0     H33975   8.915  11.086   3.867 -0.4324  1.6482 -1.5409
  252MOL0     H33976   8.871  11.192   3.626 -0.3371 -0.7295 -0.0844
  252MOL0     H33977   9.040  11.115   3.589  2.6450 -1.5193  2.9863
  252MOL0     H33978   8.974  11.316   3.803  0.3562  0.4714  0.7644
  252MOL0     H33979   9.052  11.367   3.656 -1.4060  1.2734  2.1265
  252MOL0     H33980   9.210  11.292   3.519 -1.0242 -0.4173 -0.1434
  252MOL0     H33981   9.361  11.149   3.280 -1.5076  1.5318 -1.3003
  252MOL0     H33982   9.340  11.322   3.327  1.9474  1.2110  0.3733
  252MOL0     H33983   9.494  11.259   3.288 -0.0889  0.9794 -0.5441
  252MOL0     H33984   9.696  10.825   3.347  0.4630  0.0794 -2.0578
  252MOL0     H33985   9.878  10.680   3.261 -1.0044 -0.4407 -0.2231
  252MOL0     H33986  10.280  10.663   3.488  0.7377 -0.3685  2.4175
  252MOL0     H33987  10.160  10.525   3.531 -2.8501 -2.9463 -2.9844
  252MOL0     H33988  10.243  10.414   3.336  1.9663 -3.8056  2.3848
  252MOL0     H33989  10.369  10.551   3.316 -3.4311  3.6293  0.5763
  252MOL0     H33990  10.361  10.347   3.541 -0.6456  2.7046  1.4353
  252MOL0     H33991  10.454  10.493   3.548  1.9609  1.7869 -1.3494
  252MOL0     H33992  10.478  10.272   3.335 -3.7229  0.3856  1.5033
  252MOL0     H33993  10.564  10.427   3.335 -0.1947  0.9218  0.7499
  252MOL0     H33994  10.569  10.211   3.545 -1.6794  2.5365  0.9119
  252MOL0     H33995  10.665  10.359   3.546 -0.8026  2.6788 -2.2894
  252MOL0     H33996  10.675  10.169   3.316  0.4443 -1.6076 -0.5387
  252MOL0     H33997  10.789  10.301   3.360  1.1300 -2.1874  0.0174
  252MOL0     H33998  10.790  10.021   3.470  0.5932  0.1504 -0.5664
  252MOL0     H33999  10.841  10.154   3.569  0.0663  1.3875 -0.2048
  252MOL0     H34000  11.009  10.202   3.381 -0.6996 -0.5879 -1.8550
  252MOL0     H34001  10.926  10.073   3.286  0.1661 -0.8590 -0.8528
  252MOL0     H34002  10.134  10.812   3.586  1.0364 -1.2806 -1.3943
  252MOL0     H34003   9.954  10.932   3.677 -3.0766 -0.5899  1.1635
  252MOL0     H34004   9.566  11.041   3.747 -2.8167 -0.0554  4.6477
  252MOL0     H34005   9.378  11.129   3.872 -1.7549  1.8924 -0.7492
  252MOL0     H34006   9.928   9.919   3.580 -1.6237  0.2929 -1.2961
  252MOL0     H34007  10.164   9.825   3.550 -2.2484 -1.2403 -1.4373
  252MOL0     H34008  10.562   9.848   3.271 -1.2401  1.2844  0.4640
  252MOL0     H34009  10.766   9.748   3.244 -1.0329  0.8700 -0.3813
  252MOL0     H34010  10.990   9.611   3.569  1.4168  0.1582 -1.6820
  252MOL0     H34011  10.889   9.477   3.554 -0.9200 -0.1715 -1.4675
  252MOL0     H34012  11.130   9.428   3.518  0.7533 -0.8319 -0.4926
  252MOL0     H34013  11.134   9.560   3.399  0.3194  0.9581  1.9462
  252MOL0     H34014  11.038   9.429   3.236 -0.4835 -0.1267  0.3589
  252MOL0     H34015  10.965   9.300   3.327  1.8571 -2.7648  0.6445
  252MOL0     H34016  11.214   9.243   3.389  2.3806  1.1431  0.1775
  252MOL0     H34017  11.262   9.340   3.254  0.2308  1.2815  2.3376
  252MOL0     H34018  11.157   8.959   3.079 -0.3584 -0.1121  1.8107
  252MOL0     H34019  10.780   9.609   3.645  0.3833 -1.1464 -0.6542
  252MOL0     H34020  10.577   9.745   3.697  1.6877 -1.4570 -0.0261
  253MOL0     O34021   2.953   1.241   6.866 -0.0139  0.6094  0.4543
  253MOL0     C34022   3.028   1.273   6.959  0.5384  0.5031  1.4221
  253MOL0     O34023   3.000   1.356   7.058 -0.1978 -0.3753 -0.3871
  253MOL0     C34024   2.863   1.384   7.075  0.0137  0.5064  0.2736
  253MOL0     C34025   2.815   1.508   7.040 -0.0936 -0.0798 -0.2533
  253MOL0     C34026   2.680   1.544   7.068  0.9235 -0.2046  0.3298
  253MOL0     C34027   2.594   1.443   7.112 -0.1848  0.0393 -0.7842
  253MOL0     O34028   2.458   1.462   7.107  1.2205 -0.5357 -0.2500
  253MOL0     C34029   2.409   1.590   7.140 -0.0385  0.2636  0.6377
  253MOL0     C34030   2.258   1.592   7.145 -0.0888 -0.4066 -0.8779
  253MOL0     C34031   2.190   1.639   7.012 -0.5238  0.9829  0.1374
  253MOL0     C34032   2.047   1.638   7.032  0.1394  0.6313  0.4547
  253MOL0     C34033   1.972   1.671   6.894  0.1167 -0.1706  0.1892
  253MOL0     C34034   1.819   1.652   6.905 -0.5045  0.1979  0.6145
  253MOL0     C34035   1.759   1.674   6.761 -0.2395  0.2768 -0.2229
  253MOL0     C34036   1.740   1.814   6.707 -0.4192 -0.3115 -0.0074
  253MOL0     N34037   1.655   1.889   6.800  0.0847 -0.4652 -0.3071
  253MOL0     C34038   1.518   1.877   6.814  0.5934  0.0135 -0.2044
  253MOL0     C34039   1.484   1.968   6.912  0.3316  0.7614 -0.9244
  253MOL0     C34040   1.365   2.013   6.980 -0.7030  0.0227 -0.1243
  253MOL0     C34041   1.328   1.899   7.082  0.0972  0.3489 -1.0699
  253MOL0     C34042   1.201   1.941   7.156 -0.1839 -0.4558 -0.3965
  253MOL0     C34043   1.070   1.926   7.080 -0.4377 -0.4065  0.5274
  253MOL0     O34044   1.049   2.043   7.001  0.2451 -0.1172  0.2662
  253MOL0     C34045   0.929   2.038   6.930 -0.1265  0.6346 -0.5694
  253MOL0     C34046   0.902   2.137   6.850 -0.2424  0.0311 -0.1519
  253MOL0     C34047   0.785   2.145   6.774  0.3931  0.0150  0.1779
  253MOL0     C34048   0.782   2.271   6.686 -0.4131  0.3965  0.2691
  253MOL0     C34049   0.682   2.055   6.793 -0.6275 -0.1302  0.8990
  253MOL0     C34050   0.544   2.070   6.743 -0.0040 -0.3845 -0.3157
  253MOL0     O34051   0.484   2.192   6.709  0.3136 -0.4673 -0.7718
  253MOL0     C34052   0.349   2.199   6.684  0.1360 -0.7595  0.0614
  253MOL0     C34053   0.319   2.291   6.575  0.1119 -0.6499 -0.6879
  253MOL0     C34054   0.187   2.336   6.555 -0.2265 -1.1100  0.5326
  253MOL0     C34055   0.077   2.275   6.624 -0.3535 -0.5356 -0.0882
  253MOL0     O34056  -0.043   2.298   6.575  0.2563 -0.2951  0.4238
  253MOL0     C34057  -0.122   2.382   6.670  0.0057 -0.3748 -0.5574
  253MOL0     C34058  -0.229   2.303   6.732  0.3214 -0.3283 -0.3763
  253MOL0     C34059  -0.360   2.304   6.658 -0.2462 -0.3494 -0.7014
  253MOL0     C34060  -0.455   2.206   6.730  0.3430 -0.4921 -0.0286
  253MOL0     C34061  -0.598   2.200   6.675  0.4711 -0.6671 -0.0721
  253MOL0     C34062  -0.683   2.102   6.754 -0.6341 -0.3985 -0.1681
  253MOL0     C34063  -0.802   2.044   6.670 -0.1167  0.7910  0.8951
  253MOL0     C34064  -0.889   1.945   6.736 -0.5910  0.1983 -0.4258
  253MOL0    Cl34065  -0.953   2.012   6.891 -0.4014  0.2634 -0.1959
  253MOL0     C34066   0.103   2.177   6.716 -0.0236  0.8732 -0.3836
  253MOL0     C34067   0.238   2.131   6.745 -0.2354 -0.7298 -0.2408
  253MOL0     O34068   0.489   1.964   6.724  0.6980 -0.4396  0.4948
  253MOL0     C34069   0.713   1.946   6.867 -0.6651  0.1071 -0.4414
  253MOL0     C34070   0.833   1.936   6.937 -0.2625  0.3676  0.2638
  253MOL0     N34071   1.604   2.038   6.951 -0.3330 -0.2168  0.4354
  253MOL0     N34072   1.704   1.986   6.885  0.0584  0.4859 -0.4883
  253MOL0     C34073   2.647   1.319   7.146  0.3631 -0.5286  0.1673
  253MOL0     C34074   2.779   1.284   7.133 -0.2259 -0.0414  0.1162
  253MOL0     C34075   3.171   1.238   6.928  0.5465  0.4440  1.0517
  253MOL0     C34076   3.212   1.183   6.802 -0.7531 -0.8045  0.0471
  253MOL0     C34077   3.341   1.133   6.786  0.5330  0.3030  0.0332
  253MOL0     C34078   3.445   1.157   6.876  0.4391 -0.5719  0.1326
  253MOL0     O34079   3.574   1.120   6.845 -0.3669  0.0397 -1.0183
  253MOL0     C34080   3.665   1.099   6.958  0.2700  0.4005 -0.4876
  253MOL0     C34081   3.818   1.101   6.922 -0.3619 -0.6866 -0.0033
  253MOL0     C34082   3.840   1.183   6.791  0.2957 -0.1997 -0.0055
  253MOL0     C34083   3.982   1.217   6.780 -0.5426 -0.6019  1.1571
  253MOL0     C34084   4.028   1.253   6.639 -0.2178 -0.4932  1.1132
  253MOL0     C34085   4.089   1.281   6.537  0.1219  0.0599 -0.0287
  253MOL0     C34086   3.399   1.215   6.996  0.1971  0.3414  0.0708
  253MOL0     C34087   3.263   1.249   7.029  0.0416  0.5943 -0.6795
  253MOL0     H34088   2.886   1.580   7.001  1.7339 -1.4156  0.4731
  253MOL0     H34089   2.646   1.643   7.041  1.6090 -0.4157 -1.3899
  253MOL0     H34090   2.449   1.613   7.240 -1.1113 -2.4883  1.8068
  253MOL0     H34091   2.439   1.655   7.058  1.9524 -2.5157 -0.9880
  253MOL0     H34092   2.217   1.502   7.193  0.1937  1.2964  2.9040
  253MOL0     H34093   2.237   1.668   7.220  1.4990  1.8305 -2.5712
  253MOL0     H34094   2.220   1.739   6.979 -0.5796  1.1781  0.6642
  253MOL0     H34095   2.210   1.564   6.935  0.5375  0.5627  0.7858
  253MOL0     H34096   2.016   1.537   7.062  1.0066  0.3644  0.4923
  253MOL0     H34097   2.016   1.710   7.108  1.3692 -0.3425  1.9221
  253MOL0     H34098   1.989   1.774   6.863 -0.9034  0.6808  2.2340
  253MOL0     H34099   2.014   1.600   6.823  0.9846  0.0647  0.4551
  253MOL0     H34100   1.792   1.555   6.948 -1.8199 -0.2129 -0.9963
  253MOL0     H34101   1.784   1.736   6.965  2.7819  0.3125  2.5837
  253MOL0     H34102   1.814   1.625   6.680  1.8489  3.0832 -0.6434
  253MOL0     H34103   1.663   1.621   6.755 -0.9214  1.5619 -1.4777
  253MOL0     H34104   1.687   1.811   6.611 -1.1219 -0.5498  0.3818
  253MOL0     H34105   1.835   1.868   6.696 -0.9824  1.8791  3.8577
  253MOL0     H34106   1.457   1.805   6.760 -0.1399  0.1411  0.4370
  253MOL0     H34107   1.390   2.108   7.027 -1.7049  1.1764 -1.8319
  253MOL0     H34108   1.286   2.030   6.906  0.2124  2.1566 -0.6689
  253MOL0     H34109   1.413   1.894   7.151  1.3473  3.9074 -2.1349
  253MOL0     H34110   1.305   1.810   7.022 -0.3388 -0.3253  0.0536
  253MOL0     H34111   1.210   2.043   7.193 -0.2202 -0.8334  0.7013
  253MOL0     H34112   1.185   1.885   7.248 -1.3301 -0.3986 -0.5435
  253MOL0     H34113   0.985   1.903   7.145 -0.3983 -1.2180  0.3045
  253MOL0     H34114   1.083   1.840   7.014  0.5113 -0.9647  1.4052
  253MOL0     H34115   0.979   2.213   6.850  1.0506 -1.2248 -1.1422
  253MOL0     H34116   0.882   2.306   6.658 -0.2908 -0.4283 -0.3526
  253MOL0     H34117   0.725   2.254   6.594 -0.0577  1.2657 -0.1293
  253MOL0     H34118   0.728   2.353   6.736  1.9964  1.8327  0.6704
  253MOL0     H34119   0.391   2.352   6.522  1.0221 -0.7670  0.3731
  253MOL0     H34120   0.180   2.420   6.487 -1.4077 -2.8584 -1.6337
  253MOL0     H34121  -0.058   2.420   6.749  0.1199 -0.5758 -0.5522
  253MOL0     H34122  -0.154   2.473   6.618  1.6279  0.0753 -0.8197
  253MOL0     H34123  -0.186   2.203   6.740  0.0475 -0.4986 -0.9715
  253MOL0     H34124  -0.249   2.340   6.833  1.3167 -0.6948 -0.0312
  253MOL0     H34125  -0.348   2.276   6.553  0.6906  0.5943 -0.8547
  253MOL0     H34126  -0.399   2.405   6.646  0.8255  0.3145  0.9858
  253MOL0     H34127  -0.403   2.109   6.727  2.6078  0.5877 -3.9189
  253MOL0     H34128  -0.468   2.246   6.831  1.3388  0.1302 -0.1358
  253MOL0     H34129  -0.596   2.178   6.568 -0.1832  2.4468 -0.8157
  253MOL0     H34130  -0.636   2.302   6.685  1.1183 -0.3048 -1.1855
  253MOL0     H34131  -0.628   2.012   6.782  0.1052  0.0289 -0.2127
  253MOL0     H34132  -0.721   2.161   6.838  2.7027 -1.1472  2.0825
  253MOL0     H34133  -0.762   2.005   6.576 -0.5550  3.5381 -0.5063
  253MOL0     H34134  -0.858   2.131   6.634  1.0241  0.6674 -1.3072
  253MOL0     H34135  -0.838   1.849   6.751 -0.4558 -0.0087 -1.9960
  253MOL0     H34136  -0.970   1.914   6.669 -0.7105 -0.3872 -0.0122
  253MOL0     H34137   0.020   2.130   6.768  1.6385 -0.6461  1.0303
  253MOL0     H34138   0.274   2.052   6.810  2.0187  1.2307  1.0468
  253MOL0     H34139   0.644   1.863   6.877  0.6196 -0.8822  0.7309
  253MOL0     H34140   0.859   1.840   6.981 -1.2474 -1.5214 -2.8904
  253MOL0     H34141   2.574   1.250   7.187 -1.6780  1.9039  0.8950
  253MOL0     H34142   2.828   1.196   7.173 -0.2307  0.4229  1.1637
  253MOL0     H34143   3.142   1.157   6.724 -0.5511 -0.5290 -0.2279
  253MOL0     H34144   3.363   1.088   6.690 -0.5676 -0.2510  0.0328
  253MOL0     H34145   3.634   1.152   7.048 -1.9567 -1.3893 -0.1304
  253MOL0     H34146   3.657   0.996   6.993 -0.2904  0.1078 -1.4407
  253MOL0     H34147   3.864   1.003   6.907  3.7369  1.2276 -1.4315
  253MOL0     H34148   3.881   1.134   7.005 -2.7840 -1.7069  2.3864
  253MOL0     H34149   3.784   1.275   6.812  2.1205  0.6272  1.5452
  253MOL0     H34150   3.801   1.141   6.698  4.0985  0.9138 -2.3155
  253MOL0     H34151   4.048   1.136   6.814 -1.1402 -1.3082  0.6613
  253MOL0     H34152   4.010   1.303   6.841 -0.2740  0.2517 -0.1137
  253MOL0     H34153   4.137   1.298   6.444  0.7585  2.2397  0.6485
  253MOL0     H34154   3.478   1.236   7.067  0.9337  0.0080 -0.6327
  253MOL0     H34155   3.236   1.290   7.126  0.3280  0.2376 -0.4457
  254MOL0     O34156   5.793   5.505   5.165 -0.5509 -0.0704  0.4464
  254MOL0     C34157   5.900   5.564   5.155  0.5416  0.5867  0.3327
  254MOL0     O34158   5.918   5.701   5.147  0.4014  0.6881  0.1254
  254MOL0     C34159   5.808   5.776   5.129 -0.0869 -0.3323  0.9538
  254MOL0     C34160   5.735   5.756   5.009  0.2867  0.6942  0.1297
  254MOL0     C34161   5.634   5.839   4.973  0.3262  0.0293  0.9707
  254MOL0     C34162   5.599   5.948   5.059 -0.0355 -0.0000  1.0234
  254MOL0     O34163   5.478   6.026   5.047 -0.7512 -0.9453 -0.2124
  254MOL0     C34164   5.367   5.998   4.965 -0.4708 -0.1208  0.7780
  254MOL0     C34165   5.278   5.881   5.020 -0.6314  0.7353  0.0831
  254MOL0     C34166   5.217   5.895   5.161 -0.2351 -0.4303  1.0248
  254MOL0     C34167   5.175   6.036   5.197  0.6486  0.0230  0.2676
  254MOL0     C34168   5.146   6.056   5.341 -0.0420  0.0664 -0.3253
  254MOL0     C34169   5.244   6.026   5.451  0.6050 -0.8254 -0.3089
  254MOL0     C34170   5.380   6.098   5.432 -0.3751 -0.1350 -0.4252
  254MOL0     C34171   5.484   6.097   5.548  0.8482  0.3813 -0.4679
  254MOL0     N34172   5.589   6.191   5.532  0.2192 -0.3728 -0.2360
  254MOL0     C34173   5.562   6.324   5.542 -0.9186  0.4185  0.2710
  254MOL0     C34174   5.687   6.385   5.569  1.7252  0.0144 -0.0057
  254MOL0     C34175   5.710   6.527   5.607  0.4511 -0.5127 -0.2098
  254MOL0     C34176   5.851   6.579   5.591  0.9593 -0.0934  0.0394
  254MOL0     C34177   5.947   6.531   5.703  0.1723  0.3080 -0.8164
  254MOL0     C34178   6.093   6.569   5.673 -0.2876 -0.2566  0.2877
  254MOL0     O34179   6.181   6.509   5.771 -0.4509 -0.1375 -0.4240
  254MOL0     C34180   6.323   6.521   5.759 -0.1951  0.1110  0.3995
  254MOL0     C34181   6.393   6.471   5.873  0.4879 -0.9145 -0.3662
  254MOL0     C34182   6.531   6.439   5.865  0.1092  0.2773 -0.1238
  254MOL0     C34183   6.595   6.379   5.991  0.2675  0.0294  0.0779
  254MOL0     C34184   6.606   6.490   5.752 -0.0735  0.0212  0.3387
  254MOL0     C34185   6.758   6.472   5.746  0.2541  0.4243  0.3868
  254MOL0     O34186   6.817   6.576   5.675 -0.5515 -0.1301  0.3821
  254MOL0     C34187   6.951   6.590   5.653 -0.6761 -0.2673 -0.3292
  254MOL0     C34188   6.985   6.671   5.541 -0.4791  0.0103  0.2984
  254MOL0     C34189   7.118   6.697   5.510 -0.1570 -1.0195 -0.7861
  254MOL0     C34190   7.218   6.656   5.597  0.0382  0.1125 -0.1321
  254MOL0     O34191   7.347   6.682   5.565  0.3320  0.3156  0.1273
  254MOL0     C34192   7.389   6.679   5.422 -0.2278 -0.6203 -0.2945
  254MOL0     C34193   7.536   6.642   5.423 -0.4603  1.2151 -0.2636
  254MOL0     C34194   7.580   6.605   5.288  1.2133 -0.5356  0.0490
  254MOL0     C34195   7.724   6.589   5.272  0.0225  0.6996  0.0418
  254MOL0     C34196   7.757   6.553   5.128 -0.4073  0.3062 -0.1525
  254MOL0     C34197   7.746   6.671   5.033  0.4435  0.3744 -0.6226
  254MOL0     C34198   7.835   6.677   4.909  0.0822  0.2357  0.1695
  254MOL0     C34199   7.817   6.549   4.815  1.1693 -0.0029 -0.5655
  254MOL0    Cl34200   7.639   6.521   4.785 -0.1209  0.0708  0.0291
  254MOL0     C34201   7.185   6.590   5.718 -0.3830 -0.0300  0.4971
  254MOL0     C34202   7.053   6.547   5.738 -0.6191  0.4092 -0.3403
  254MOL0     O34203   6.814   6.377   5.791  0.3887 -0.4250  0.1882
  254MOL0     C34204   6.535   6.561   5.644 -0.8240  0.4269  0.1920
  254MOL0     C34205   6.391   6.565   5.651  0.3967  0.5224  0.1854
  254MOL0     N34206   5.780   6.285   5.568 -0.3302  1.1163 -0.7060
  254MOL0     N34207   5.720   6.172   5.534 -0.1327  0.7467  0.2234
  254MOL0     C34208   5.662   5.970   5.181  0.0411  0.4184  0.2253
  254MOL0     C34209   5.772   5.881   5.214  0.7340 -0.3059 -0.5719
  254MOL0     C34210   6.026   5.483   5.177  0.4313 -0.1936  0.1938
  254MOL0     C34211   6.022   5.339   5.195  0.1962  0.4529  0.1917
  254MOL0     C34212   6.137   5.262   5.237 -0.6601  0.6845 -0.4821
  254MOL0     C34213   6.255   5.323   5.270 -0.3667  0.6102 -0.3899
  254MOL0     O34214   6.369   5.271   5.324  0.0801  0.4865  0.2145
  254MOL0     C34215   6.363   5.136   5.371  0.0182  0.6807 -0.4907
  254MOL0     C34216   6.296   5.128   5.515 -0.2838 -0.4127 -0.1900
  254MOL0     C34217   6.319   4.983   5.580  0.4884 -0.9403 -0.3654
  254MOL0     C34218   6.230   4.888   5.502 -0.4359 -0.0374  0.2037
  254MOL0     C34219   6.090   4.924   5.492  0.4188  0.3049  0.1369
  254MOL0     C34220   5.977   4.967   5.477 -0.0237 -0.2403 -0.8512
  254MOL0     C34221   6.254   5.463   5.251  0.4404  0.1605 -0.4268
  254MOL0     C34222   6.144   5.541   5.205 -0.4533  0.2767 -0.3130
  254MOL0     H34223   5.770   5.672   4.950  1.0049  0.2870  1.1072
  254MOL0     H34224   5.579   5.835   4.880  1.1582  1.2903  0.3985
  254MOL0     H34225   5.305   6.086   4.944  0.0350 -0.0443 -0.5277
  254MOL0     H34226   5.393   5.970   4.862 -3.9457  0.7228 -0.4515
  254MOL0     H34227   5.195   5.873   4.949  0.1140  1.4043 -0.9032
  254MOL0     H34228   5.324   5.783   4.999  1.8048  2.1951 -2.0177
  254MOL0     H34229   5.140   5.818   5.167  1.7925 -2.4646  3.0817
  254MOL0     H34230   5.293   5.857   5.230 -1.1233  1.9374  3.4864
  254MOL0     H34231   5.266   6.095   5.179  0.1244  0.4723 -1.0849
  254MOL0     H34232   5.099   6.081   5.132 -0.7865 -0.6855  1.4091
  254MOL0     H34233   5.117   6.161   5.348  2.7605  0.8027  1.2822
  254MOL0     H34234   5.050   6.008   5.363 -0.4207  0.9963  0.0756
  254MOL0     H34235   5.188   6.071   5.533 -3.1346 -1.7855 -2.0947
  254MOL0     H34236   5.253   5.920   5.476  1.2184 -0.5723  0.5712
  254MOL0     H34237   5.427   6.049   5.345  0.5723  0.0460 -0.0292
  254MOL0     H34238   5.354   6.202   5.411 -1.4346  0.1102  1.8902
  254MOL0     H34239   5.522   5.999   5.577  0.9381  1.1372  2.1708
  254MOL0     H34240   5.435   6.131   5.639  3.2694  0.6581  0.8006
  254MOL0     H34241   5.467   6.372   5.522 -1.1346 -1.1930 -3.2688
  254MOL0     H34242   5.637   6.577   5.542 -1.4117 -0.4069  1.8201
  254MOL0     H34243   5.682   6.547   5.711  0.9172 -2.0480  0.2305
  254MOL0     H34244   5.842   6.687   5.582  0.8833 -0.2629 -2.9406
  254MOL0     H34245   5.882   6.555   5.488 -2.8619 -0.1629 -1.2265
  254MOL0     H34246   5.943   6.423   5.714  2.4989  0.2749  0.2382
  254MOL0     H34247   5.912   6.575   5.798 -2.0032  0.8592 -1.8080
  254MOL0     H34248   6.095   6.677   5.685 -1.6261 -0.2556  0.6469
  254MOL0     H34249   6.116   6.532   5.573 -1.0525 -3.5889  1.2218
  254MOL0     H34250   6.339   6.431   5.958  0.0648 -2.0744 -1.1507
  254MOL0     H34251   6.533   6.393   6.080 -1.1469 -2.1637 -0.4939
  254MOL0     H34252   6.613   6.274   5.965  0.2684  0.0514 -0.0094
  254MOL0     H34253   6.694   6.423   6.007 -0.3120  0.9426  1.2817
  254MOL0     H34254   6.906   6.712   5.480 -0.2481  1.5541  1.0108
  254MOL0     H34255   7.141   6.759   5.424 -0.6997 -0.2280 -0.3759
  254MOL0     H34256   7.329   6.605   5.367 -0.6787 -1.9353  1.8274
  254MOL0     H34257   7.375   6.777   5.376 -0.2760 -0.8536 -0.7857
  254MOL0     H34258   7.601   6.722   5.461  3.9919 -1.8833 -0.4740
  254MOL0     H34259   7.557   6.553   5.484 -2.1078  1.1141  0.1876
  254MOL0     H34260   7.547   6.686   5.221 -0.6570  1.0078  2.6373
  254MOL0     H34261   7.532   6.512   5.258 -2.1492  0.3153  2.2573
  254MOL0     H34262   7.784   6.678   5.293 -0.8396  0.5143  4.1165
  254MOL0     H34263   7.752   6.502   5.332  2.7357  0.4238 -1.4303
  254MOL0     H34264   7.692   6.476   5.087  0.9655 -2.3446  2.2737
  254MOL0     H34265   7.864   6.527   5.128 -0.7005 -1.2747  2.5446
  254MOL0     H34266   7.641   6.688   5.010  0.8024  1.4047 -1.6047
  254MOL0     H34267   7.767   6.764   5.088 -1.2928 -0.3821  1.4821
  254MOL0     H34268   7.942   6.693   4.925 -0.1441  3.1323 -0.7776
  254MOL0     H34269   7.800   6.756   4.843  0.3143 -1.4748 -2.1437
  254MOL0     H34270   7.848   6.464   4.877 -0.2494  1.2398  2.0274
  254MOL0     H34271   7.877   6.554   4.724 -1.1357 -0.4346 -2.2024
  254MOL0     H34272   7.270   6.559   5.779 -1.5187 -2.2206  1.0521
  254MOL0     H34273   7.037   6.486   5.826 -0.9483  3.5990  1.9908
  254MOL0     H34274   6.590   6.605   5.562 -0.5709 -0.6668 -0.2321
  254MOL0     H34275   6.328   6.608   5.574 -0.2910 -0.6917  0.0467
  254MOL0     H34276   5.624   6.033   5.260 -2.3800 -1.0591  0.3491
  254MOL0     H34277   5.824   5.892   5.309 -1.1565 -2.1172  0.7658
  254MOL0     H34278   5.934   5.281   5.168 -0.1868  0.9299  0.4179
  254MOL0     H34279   6.125   5.154   5.243 -0.2450  0.5848 -1.2376
  254MOL0     H34280   6.318   5.066   5.300 -0.4656 -0.6045  0.9906
  254MOL0     H34281   6.464   5.098   5.390 -0.3794 -0.0919  0.1449
  254MOL0     H34282   6.192   5.161   5.512 -0.6227 -1.4774 -0.8990
  254MOL0     H34283   6.345   5.200   5.581  0.6710 -2.1263  1.0878
  254MOL0     H34284   6.300   4.989   5.687  1.2285  0.2336 -0.2884
  254MOL0     H34285   6.425   4.960   5.568  0.3090 -1.1510 -1.7741
  254MOL0     H34286   6.230   4.790   5.550  1.7389  0.7903  2.0056
  254MOL0     H34287   6.275   4.883   5.402  1.6374 -1.2046  1.1343
  254MOL0     H34288   5.879   5.002   5.456 -1.9277 -2.3711  3.2588
  254MOL0     H34289   6.345   5.520   5.270  0.1320  0.0682  1.4915
  254MOL0     H34290   6.159   5.647   5.186  0.2862  0.5372  1.4881
  255MOL0     O34291   8.777  10.443   2.369  0.4412  0.3340 -0.9059
  255MOL0     C34292   8.857  10.527   2.417 -0.5014  0.0664 -0.6511
  255MOL0     O34293   8.840  10.665   2.425  0.3643 -0.4097 -0.2135
  255MOL0     C34294   8.716  10.712   2.417 -0.4524 -0.3733  0.1375
  255MOL0     C34295   8.690  10.795   2.303  0.2048 -0.1204  0.3447
  255MOL0     C34296   8.558  10.845   2.299 -0.2157 -0.7464 -1.4839
  255MOL0     C34297   8.462  10.798   2.393 -0.3657 -0.1820 -0.4757
  255MOL0     O34298   8.328  10.835   2.384 -0.3804 -0.2160 -0.8562
  255MOL0     C34299   8.228  10.735   2.410 -0.3000 -0.4001 -0.0564
  255MOL0     C34300   8.246  10.625   2.314  0.5126  0.2586  0.3539
  255MOL0     C34301   8.249  10.659   2.173 -0.1539 -0.4965 -0.3626
  255MOL0     C34302   8.252  10.547   2.080 -0.9663  0.1136 -0.2640
  255MOL0     C34303   8.393  10.484   2.061  0.0347 -0.3926  0.2166
  255MOL0     C34304   8.494  10.555   1.965 -0.3553  0.1317 -0.0493
  255MOL0     C34305   8.616  10.474   1.939  0.1904 -0.0404 -0.2355
  255MOL0     C34306   8.715  10.481   2.044 -0.5793 -0.2137 -0.2653
  255MOL0     N34307   8.850  10.449   1.998 -0.2973 -0.0662  0.3824
  255MOL0     C34308   8.925  10.521   1.913 -0.6224 -0.4978  0.4142
  255MOL0     C34309   9.036  10.453   1.902 -0.6400 -0.1655  0.6236
  255MOL0     C34310   9.159  10.484   1.823 -0.7055  0.1932 -1.3796
  255MOL0     C34311   9.164  10.456   1.672  0.0223  0.7955 -0.2128
  255MOL0     C34312   9.053  10.521   1.586  0.1853  0.0191 -0.4620
  255MOL0     C34313   8.923  10.434   1.590 -0.9744  0.8562  0.4537
  255MOL0     O34314   8.818  10.515   1.530 -0.0765  0.2259  0.0197
  255MOL0     C34315   8.684  10.484   1.549 -0.1595 -0.1760  0.5311
  255MOL0     C34316   8.637  10.362   1.609  0.4769  0.8198  0.0323
  255MOL0     C34317   8.503  10.340   1.631 -0.1251 -0.5311 -0.0898
  255MOL0     C34318   8.474  10.227   1.718  1.1951  0.4505 -0.1115
  255MOL0     C34319   8.412  10.437   1.596 -0.7490 -1.0679 -0.5114
  255MOL0     C34320   8.262  10.428   1.627 -0.1270  0.3944 -0.8543
  255MOL0     O34321   8.196  10.543   1.639  0.4614 -0.9071  0.6236
  255MOL0     C34322   8.059  10.539   1.648 -0.2673 -0.7274  0.3153
  255MOL0     C34323   7.977  10.582   1.545  0.4271  1.0504 -0.5106
  255MOL0     C34324   7.834  10.559   1.551  0.6563  0.1463 -0.4132
  255MOL0     C34325   7.772  10.542   1.675 -0.4020 -0.7956  1.1158
  255MOL0     O34326   7.638  10.550   1.701 -0.1639  0.1734 -0.4918
  255MOL0     C34327   7.542  10.540   1.599 -0.4242 -0.3369  0.8079
  255MOL0     C34328   7.404  10.539   1.640  0.6570  0.9021 -0.0860
  255MOL0     C34329   7.344  10.657   1.712 -0.7187 -0.5136  0.2253
  255MOL0     C34330   7.184  10.665   1.696 -0.3240 -0.3556  0.2931
  255MOL0     C34331   7.115  10.709   1.827  0.7453 -0.8171 -0.2861
  255MOL0     C34332   6.958  10.712   1.807  0.7188  1.0480 -0.3944
  255MOL0     C34333   6.896  10.755   1.949 -0.5129 -0.0829  0.2099
  255MOL0     C34334   6.772  10.828   1.929 -0.3475 -0.0581  0.3070
  255MOL0    Cl34335   6.671  10.764   1.798  0.0921 -0.2023 -0.1104
  255MOL0     C34336   7.862  10.522   1.786 -0.4252 -0.3390  0.9166
  255MOL0     C34337   8.005  10.506   1.766 -0.0149 -0.1382 -0.3079
  255MOL0     O34338   8.205  10.317   1.621 -0.7331  0.7523 -0.2659
  255MOL0     C34339   8.458  10.552   1.531 -0.0087  0.1151  0.7631
  255MOL0     C34340   8.588  10.573   1.506  0.5229 -0.0164 -0.7537
  255MOL0     N34341   9.037  10.345   1.996  0.5107 -0.7385 -0.3845
  255MOL0     N34342   8.915  10.346   2.052 -0.6295 -0.2436 -0.2392
  255MOL0     C34343   8.507  10.724   2.503 -0.1970  0.7178  0.4046
  255MOL0     C34344   8.630  10.682   2.516 -0.9132 -0.0736  0.1837
  255MOL0     C34345   8.990  10.483   2.445  0.1561 -0.3481 -0.5370
  255MOL0     C34346   9.046  10.380   2.371 -0.1907 -0.3337 -0.6493
  255MOL0     C34347   9.184  10.343   2.390  0.6703  0.0940 -0.9978
  255MOL0     C34348   9.255  10.399   2.499  0.9184 -0.1185  0.2940
  255MOL0     O34349   9.393  10.378   2.516 -0.0199  0.3026  0.1749
  255MOL0     C34350   9.451  10.275   2.431 -0.7204 -0.1881 -0.8913
  255MOL0     C34351   9.597  10.246   2.470  0.6105  0.4396  0.8703
  255MOL0     C34352   9.616  10.215   2.627  0.0495 -0.7018 -0.6047
  255MOL0     C34353   9.750  10.188   2.677 -0.8516 -1.1993 -0.0007
  255MOL0     C34354   9.820  10.090   2.595 -0.0506 -0.2137  0.3778
  255MOL0     C34355   9.901  10.029   2.526  0.2867 -0.4659 -0.3007
  255MOL0     C34356   9.207  10.499   2.572  0.0166 -0.4179 -0.1784
  255MOL0     C34357   9.077  10.546   2.548  1.5359 -0.3028 -0.7976
  255MOL0     H34358   8.776  10.814   2.240 -0.9512 -1.4117 -1.7298
  255MOL0     H34359   8.514  10.909   2.223 -4.5912  0.0144  1.3256
  255MOL0     H34360   8.250  10.682   2.503 -1.2491 -1.3303 -0.3446
  255MOL0     H34361   8.126  10.773   2.419 -0.8243 -2.1178  2.1584
  255MOL0     H34362   8.328  10.560   2.347  0.0897 -0.6166 -0.2690
  255MOL0     H34363   8.148  10.578   2.324 -0.3722  1.1356 -2.9415
  255MOL0     H34364   8.155  10.712   2.158  0.9835  1.7289 -0.1035
  255MOL0     H34365   8.334  10.720   2.140  0.2249 -1.6272 -1.5556
  255MOL0     H34366   8.174  10.474   2.101 -1.3411  0.1555 -1.4315
  255MOL0     H34367   8.212  10.574   1.982 -1.3229 -1.7620 -0.6846
  255MOL0     H34368   8.452  10.474   2.153  1.4060  1.8045 -0.3384
  255MOL0     H34369   8.363  10.389   2.017 -2.5026 -0.4161  1.7562
  255MOL0     H34370   8.458  10.575   1.864  1.2056  0.4380 -0.5657
  255MOL0     H34371   8.521  10.653   2.006  1.1856 -1.9756  4.7488
  255MOL0     H34372   8.591  10.369   1.917  0.1288 -0.5104  1.7941
  255MOL0     H34373   8.658  10.510   1.845 -4.0995 -0.3882 -2.5480
  255MOL0     H34374   8.687  10.413   2.125 -2.2393  2.1561  1.3034
  255MOL0     H34375   8.711  10.579   2.092 -0.4424 -1.4721  2.5210
  255MOL0     H34376   8.901  10.615   1.865 -1.5764  1.8916  4.9867
  255MOL0     H34377   9.174  10.593   1.824  1.4254 -0.0492 -1.1238
  255MOL0     H34378   9.249  10.446   1.873  2.5861  0.3679 -6.4096
  255MOL0     H34379   9.160  10.347   1.662 -4.4530  0.6877  0.6869
  255MOL0     H34380   9.258  10.489   1.626 -0.7695  1.4363 -1.4168
  255MOL0     H34381   9.084  10.529   1.481 -2.3496  0.0164 -1.2853
  255MOL0     H34382   9.033  10.619   1.629  0.2839 -0.4551  0.6973
  255MOL0     H34383   8.908  10.415   1.696 -1.8073  1.5522  0.4659
  255MOL0     H34384   8.943  10.334   1.550 -0.6305 -0.2197  3.1237
  255MOL0     H34385   8.718  10.299   1.645  1.4252  1.4722 -0.8948
  255MOL0     H34386   8.557  10.158   1.735  2.2865  1.6283 -0.5167
  255MOL0     H34387   8.441  10.262   1.816 -0.0654 -0.8076 -0.0496
  255MOL0     H34388   8.386  10.176   1.676  1.3630  0.2010 -0.1679
  255MOL0     H34389   8.018  10.630   1.457  0.5571 -0.9167 -1.5790
  255MOL0     H34390   7.787  10.565   1.453 -1.1613 -0.7062  0.3582
  255MOL0     H34391   7.554  10.627   1.534  0.5115  1.0911  2.7824
  255MOL0     H34392   7.555  10.444   1.549 -0.3735  0.0544  0.0545
  255MOL0     H34393   7.347  10.500   1.555  0.1531  0.5304  0.4137
  255MOL0     H34394   7.398  10.457   1.712 -4.0783  1.7100  0.8102
  255MOL0     H34395   7.396  10.743   1.670 -1.2368 -1.5804 -2.9219
  255MOL0     H34396   7.362  10.646   1.819 -0.3403  0.8621  0.3178
  255MOL0     H34397   7.159  10.741   1.622 -0.9809 -0.1232  0.7466
  255MOL0     H34398   7.144  10.569   1.661  2.6720 -1.5349 -0.2492
  255MOL0     H34399   7.156  10.806   1.856 -1.1340  0.2171 -0.9412
  255MOL0     H34400   7.146  10.642   1.908 -0.3221  0.5071  1.2817
  255MOL0     H34401   6.929  10.782   1.728  2.5049  2.5155  0.1726
  255MOL0     H34402   6.930  10.608   1.790  1.0644  1.1706 -1.8878
  255MOL0     H34403   6.963  10.821   2.005  0.5547 -2.5403  2.0512
  255MOL0     H34404   6.878  10.657   1.994  1.3052  0.1814  1.6547
  255MOL0     H34405   6.792  10.929   1.891 -1.3121  0.2342  0.5374
  255MOL0     H34406   6.719  10.837   2.024 -1.0639 -2.6633  0.2106
  255MOL0     H34407   7.813  10.504   1.882 -1.1555 -0.4078  0.5383
  255MOL0     H34408   8.069  10.477   1.849 -2.1472 -0.6821  1.2439
  255MOL0     H34409   8.396  10.641   1.526  2.9286  2.5024  2.8475
  255MOL0     H34410   8.620  10.673   1.479  0.2620  0.0663 -0.7607
  255MOL0     H34411   8.447  10.677   2.579 -0.5816 -2.1813 -1.5338
  255MOL0     H34412   8.653  10.635   2.611 -2.3141 -2.2759 -0.4930
  255MOL0     H34413   8.997  10.319   2.296 -0.1315 -2.8352  1.2418
  255MOL0     H34414   9.223  10.265   2.325 -0.4795 -1.6736  0.3143
  255MOL0     H34415   9.403  10.177   2.431  0.1684 -0.6411 -1.1166
  255MOL0     H34416   9.456  10.305   2.326  0.5772 -0.0934 -0.8298
  255MOL0     H34417   9.666  10.327   2.444  1.4283 -0.1330  1.1970
  255MOL0     H34418   9.627  10.166   2.402 -0.2008  1.2285 -0.4382
  255MOL0     H34419   9.558  10.127   2.655 -0.6533  0.2441  1.0543
  255MOL0     H34420   9.580  10.302   2.682 -2.5371  0.5122 -3.8758
  255MOL0     H34421   9.741  10.164   2.783 -0.6427  2.0662  0.8888
  255MOL0     H34422   9.810  10.279   2.675 -3.2417  0.5310 -2.4344
  255MOL0     H34423   9.980   9.979   2.473  4.5864  2.8515  2.3979
  255MOL0     H34424   9.274  10.549   2.641  0.4789 -1.0592 -0.1541
  255MOL0     H34425   9.042  10.626   2.612 -0.9042 -0.5830 -1.6714
  256MOL0     O34426   8.595   7.905   1.340  0.0917  0.3128 -0.0832
  256MOL0     C34427   8.661   7.808   1.287 -0.1845  0.0752  0.4303
  256MOL0     O34428   8.625   7.743   1.171  0.0754  0.0927 -0.1466
  256MOL0     C34429   8.505   7.777   1.125  0.3591  0.5718  0.2123
  256MOL0     C34430   8.397   7.689   1.144 -0.9212 -0.0122  0.3232
  256MOL0     C34431   8.277   7.694   1.070  0.5152  0.0831  0.0328
  256MOL0     C34432   8.257   7.795   0.984 -0.1681  0.0071  0.3063
  256MOL0     O34433   8.143   7.799   0.900  0.8755 -0.9832  0.4558
  256MOL0     C34434   8.069   7.679   0.875 -0.2884 -0.3264 -0.7055
  256MOL0     C34435   7.987   7.678   0.746 -0.0203 -1.0907 -0.5955
  256MOL0     C34436   7.870   7.767   0.763  0.4875 -0.0096 -0.1746
  256MOL0     C34437   7.777   7.763   0.640  0.2208  0.2054  0.0094
  256MOL0     C34438   7.641   7.826   0.669 -0.3598  0.3811 -0.2958
  256MOL0     C34439   7.649   7.975   0.681 -1.5655  0.1893  0.0288
  256MOL0     C34440   7.518   8.048   0.698  0.6669 -0.4375 -0.6913
  256MOL0     C34441   7.439   8.085   0.570 -0.4935  0.2224  0.1590
  256MOL0     N34442   7.294   8.135   0.584 -0.2972 -0.4972  0.3913
  256MOL0     C34443   7.197   8.094   0.508  0.6476  0.2686  1.0160
  256MOL0     C34444   7.085   8.151   0.564  0.5723  0.2363 -0.2613
  256MOL0     C34445   6.946   8.140   0.515 -0.0449  0.0976  0.8676
  256MOL0     C34446   6.894   8.261   0.436 -0.0178 -0.4131  0.7365
  256MOL0     C34447   6.779   8.232   0.332 -0.5652 -1.3142  0.9283
  256MOL0     C34448   6.708   8.369   0.285 -0.0452 -0.2386  0.5874
  256MOL0     O34449   6.613   8.340   0.180  0.5228 -1.1250 -0.9069
  256MOL0     C34450   6.483   8.339   0.206 -0.2516  0.7315 -0.1264
  256MOL0     C34451   6.407   8.405   0.306  0.0434  0.0665 -0.1549
  256MOL0     C34452   6.271   8.372   0.328  0.1188 -0.2122 -0.7072
  256MOL0     C34453   6.206   8.425   0.460 -0.7905 -0.1748 -0.0324
  256MOL0     C34454   6.215   8.287   0.243  0.0149  0.0128  0.1888
  256MOL0     C34455   6.077   8.231   0.263  0.8709  0.1612  0.4564
  256MOL0     O34456   6.047   8.110   0.210  0.0350  0.1980 -0.2524
  256MOL0     C34457   5.919   8.061   0.218 -0.2060  0.0667 -0.6562
  256MOL0     C34458   5.874   7.986   0.110 -0.1774 -0.1980 -1.0228
  256MOL0     C34459   5.749   7.927   0.109  0.0133 -1.2702  0.7408
  256MOL0     C34460   5.668   7.930   0.225 -0.0676 -0.2286 -0.4185
  256MOL0     O34461   5.546   7.865   0.233 -0.3760 -0.3500  0.2890
  256MOL0     C34462   5.522   7.749   0.148 -0.6518  1.0617  0.4104
  256MOL0     C34463   5.372   7.723   0.133  0.1049  0.2897  0.0431
  256MOL0     C34464   5.348   7.593   0.052  0.3138 -0.6405 -0.3649
  256MOL0     C34465   5.208   7.543   0.082  1.0006  0.9110  0.2583
  256MOL0     C34466   5.165   7.436  -0.020 -0.7334  0.2000 -0.3733
  256MOL0     C34467   5.016   7.393  -0.017  0.2027  0.6568 -0.1293
  256MOL0     C34468   5.010   7.245  -0.066 -0.1580  0.6609 -0.0832
  256MOL0     C34469   5.007   7.134   0.051  0.5213 -0.6775  0.2668
  256MOL0    Cl34470   4.871   7.169   0.161  0.3502 -0.2433  0.0758
  256MOL0     C34471   5.713   7.992   0.340 -0.2940 -0.1050  0.4668
  256MOL0     C34472   5.836   8.062   0.340 -0.3630  0.4656  0.1671
  256MOL0     O34473   5.991   8.311   0.297  0.0803 -0.8052  0.6249
  256MOL0     C34474   6.287   8.238   0.135 -0.2355 -0.2135 -0.2516
  256MOL0     C34475   6.420   8.258   0.111 -0.2964  0.7736 -0.9855
  256MOL0     N34476   7.122   8.237   0.664 -0.7350  0.1265  0.5578
  256MOL0     N34477   7.250   8.225   0.675 -0.1213 -0.0090 -0.1550
  256MOL0     C34478   8.366   7.885   0.958  0.5722 -0.0351  0.2347
  256MOL0     C34479   8.486   7.874   1.022 -0.4447 -0.2090 -1.2168
  256MOL0     C34480   8.793   7.767   1.359  0.3698  0.2223  0.2341
  256MOL0     C34481   8.839   7.848   1.461 -0.0614  0.5442  0.0522
  256MOL0     C34482   8.958   7.822   1.516 -0.4634 -0.9422  0.2723
  256MOL0     C34483   9.028   7.704   1.483  0.1892  0.4007  0.0110
  256MOL0     O34484   9.158   7.680   1.529 -0.4212  0.6007  0.3407
  256MOL0     C34485   9.241   7.788   1.565  0.2295 -0.0879  0.5614
  256MOL0     C34486   9.392   7.755   1.540  0.3585 -0.2808  0.3405
  256MOL0     C34487   9.442   7.642   1.626  0.3345 -0.1138 -0.8412
  256MOL0     C34488   9.434   7.662   1.780 -0.3854  0.5023  0.0254
  256MOL0     C34489   9.534   7.758   1.828  0.7260  0.1833 -0.9550
  256MOL0     C34490   9.623   7.831   1.863  0.1903 -0.4286  0.3608
  256MOL0     C34491   8.979   7.612   1.392 -0.1025  0.7055  0.9339
  256MOL0     C34492   8.859   7.648   1.326 -0.4710  0.3330  0.1164
  256MOL0     H34493   8.423   7.607   1.210 -0.7259 -0.4294 -0.2711
  256MOL0     H34494   8.211   7.611   1.090  0.5111 -0.2921 -1.4670
  256MOL0     H34495   8.135   7.594   0.856  2.6585  1.0028  2.5858
  256MOL0     H34496   8.010   7.658   0.965 -1.3067  4.9832  0.1768
  256MOL0     H34497   8.048   7.721   0.666 -1.5887  0.8629 -0.8069
  256MOL0     H34498   7.956   7.576   0.720  0.5626 -0.7933 -2.6851
  256MOL0     H34499   7.805   7.736   0.846 -0.9579 -1.1426 -1.6747
  256MOL0     H34500   7.908   7.867   0.785 -1.4545  0.3847  1.6951
  256MOL0     H34501   7.821   7.816   0.555  0.7685 -0.1119  0.0872
  256MOL0     H34502   7.754   7.660   0.612 -1.2967  0.6445 -0.4309
  256MOL0     H34503   7.575   7.794   0.588  1.4498 -1.1709 -1.2214
  256MOL0     H34504   7.598   7.784   0.761  0.4813  2.8046  1.2884
  256MOL0     H34505   7.719   7.994   0.762 -0.5172 -2.3199 -0.2205
  256MOL0     H34506   7.692   8.003   0.584  0.8352 -4.4432 -0.4866
  256MOL0     H34507   7.450   7.997   0.767 -0.6061  2.6375  0.4927
  256MOL0     H34508   7.560   8.135   0.748  0.8073 -1.1276  0.4352
  256MOL0     H34509   7.431   7.994   0.510 -1.3987  1.5175 -1.7827
  256MOL0     H34510   7.502   8.156   0.516  1.5410  0.0355  2.1636
  256MOL0     H34511   7.200   8.022   0.426 -1.3472 -2.0016  2.7781
  256MOL0     H34512   6.929   8.045   0.463  1.0652 -0.2841  1.1629
  256MOL0     H34513   6.894   8.132   0.611  0.2357 -1.6492  0.9004
  256MOL0     H34514   6.973   8.321   0.389 -2.3893  1.8074 -0.7388
  256MOL0     H34515   6.865   8.335   0.511  1.6661  1.6354 -0.4824
  256MOL0     H34516   6.703   8.169   0.379 -3.8022  1.5397 -0.0746
  256MOL0     H34517   6.821   8.186   0.242 -0.6186  3.0057 -1.5897
  256MOL0     H34518   6.777   8.449   0.256  1.4881 -1.8142 -0.3146
  256MOL0     H34519   6.660   8.411   0.374  1.3020 -0.5295  1.4825
  256MOL0     H34520   6.465   8.472   0.368  0.6605  0.6423 -1.3181
  256MOL0     H34521   6.130   8.353   0.488 -0.9379 -0.9893 -2.3401
  256MOL0     H34522   6.281   8.434   0.540  1.3839  1.0924 -2.0644
  256MOL0     H34523   6.154   8.519   0.439  0.6285  0.8180  0.7099
  256MOL0     H34524   5.941   7.977   0.025  0.2301 -1.4073 -0.6045
  256MOL0     H34525   5.718   7.892   0.010  0.3044 -0.7927  0.4791
  256MOL0     H34526   5.558   7.754   0.045 -3.0757 -3.4161 -0.9250
  256MOL0     H34527   5.580   7.668   0.192  1.5839  2.7262  0.7170
  256MOL0     H34528   5.320   7.725   0.229  0.1339  0.1517  0.0624
  256MOL0     H34529   5.331   7.814   0.089 -0.0117 -0.2484 -0.9965
  256MOL0     H34530   5.424   7.521   0.084  1.1493  1.8404  4.1324
  256MOL0     H34531   5.369   7.606  -0.054  2.5866 -1.9929 -0.1380
  256MOL0     H34532   5.212   7.497   0.181 -0.9089  1.7834  0.7806
  256MOL0     H34533   5.134   7.621   0.101 -2.3761 -1.5815 -1.3865
  256MOL0     H34534   5.218   7.341  -0.005 -2.0038 -0.7672 -1.7594
  256MOL0     H34535   5.186   7.460  -0.125  0.5197  0.4269 -0.0827
  256MOL0     H34536   4.979   7.394   0.086  0.6779  0.8755  0.0464
  256MOL0     H34537   4.964   7.462  -0.084  0.5144 -1.0007 -2.1763
  256MOL0     H34538   5.080   7.223  -0.147 -1.2594 -2.2491 -0.3673
  256MOL0     H34539   4.908   7.239  -0.103 -0.5811 -1.0393  1.2049
  256MOL0     H34540   5.105   7.123   0.099  0.7646 -1.5141 -0.3915
  256MOL0     H34541   4.991   7.037   0.004  0.0722 -0.8806  0.8337
  256MOL0     H34542   5.651   8.011   0.427 -2.7897 -1.8662 -0.7914
  256MOL0     H34543   5.868   8.129   0.418  0.1618  3.4632 -2.4115
  256MOL0     H34544   6.242   8.168   0.065 -1.1077 -0.1148  0.1923
  256MOL0     H34545   6.473   8.196   0.039 -1.2791  0.9728 -1.9204
  256MOL0     H34546   8.344   7.946   0.871 -1.7715 -1.0377  0.0629
  256MOL0     H34547   8.575   7.932   1.000 -0.8695  0.6815 -0.6320
  256MOL0     H34548   8.777   7.927   1.502 -1.2839 -0.0029 -0.6817
  256MOL0     H34549   8.992   7.887   1.596 -1.6411 -1.2182  1.0199
  256MOL0     H34550   9.222   7.867   1.492  2.4928 -0.4046 -0.4614
  256MOL0     H34551   9.227   7.818   1.669 -0.7456 -1.3017  0.8048
  256MOL0     H34552   9.451   7.844   1.562  0.5252 -0.9229  2.7279
  256MOL0     H34553   9.405   7.730   1.434  2.0909  2.6074 -0.2288
  256MOL0     H34554   9.543   7.608   1.602 -0.0262 -2.0075  0.1381
  256MOL0     H34555   9.382   7.556   1.597  0.6455  0.2427 -2.6444
  256MOL0     H34556   9.447   7.565   1.828  2.7847  1.2450  0.9283
  256MOL0     H34557   9.332   7.691   1.808 -0.9357 -0.4891 -0.8859
  256MOL0     H34558   9.700   7.903   1.881  0.3121 -0.7750  1.2616
  256MOL0     H34559   9.032   7.522   1.363 -0.6353  1.5030 -3.1398
  256MOL0     H34560   8.832   7.590   1.238  0.5884  0.7923 -0.5251
  257MOL0     O34561   8.320   7.607   4.606  0.3857 -0.3976 -0.2654
  257MOL0     C34562   8.339   7.550   4.713 -0.7513 -0.4345 -0.7240
  257MOL0     O34563   8.246   7.502   4.801 -0.0384 -0.8318  0.5047
  257MOL0     C34564   8.115   7.547   4.790  1.0681 -0.5011  0.5272
  257MOL0     C34565   8.056   7.599   4.907 -0.7934  0.0555 -0.0803
  257MOL0     C34566   7.924   7.645   4.906  0.9995 -0.4732 -0.2784
  257MOL0     C34567   7.842   7.634   4.787 -0.6295 -0.4140 -0.4148
  257MOL0     O34568   7.714   7.681   4.787  0.0766 -0.3685  0.0001
  257MOL0     C34569   7.630   7.630   4.890  0.0283 -0.3408  0.2618
  257MOL0     C34570   7.483   7.672   4.871 -0.4010 -0.9161 -1.0231
  257MOL0     C34571   7.427   7.647   4.732  1.5027  0.1021 -0.2460
  257MOL0     C34572   7.280   7.687   4.708  1.0016  0.1538 -0.1049
  257MOL0     C34573   7.188   7.589   4.784  0.6429  0.2503  0.1351
  257MOL0     C34574   7.035   7.621   4.765 -1.0968  0.0391 -0.3310
  257MOL0     C34575   6.945   7.533   4.847 -0.1521 -0.0651  0.4603
  257MOL0     C34576   6.800   7.556   4.815 -0.0603 -0.7886  0.4703
  257MOL0     N34577   6.723   7.651   4.892  0.3671  0.0785 -0.1254
  257MOL0     C34578   6.642   7.610   4.992 -0.0194  0.1181 -0.1634
  257MOL0     C34579   6.618   7.723   5.069 -0.1618  0.5393  0.6376
  257MOL0     C34580   6.551   7.729   5.206 -0.2927  0.1539 -0.4189
  257MOL0     C34581   6.402   7.690   5.189  0.6233 -0.3409  0.2596
  257MOL0     C34582   6.333   7.688   5.326  0.5429  0.6544 -0.6338
  257MOL0     C34583   6.187   7.691   5.298  0.9704  0.4123 -0.3471
  257MOL0     O34584   6.119   7.718   5.422  1.0255  0.3625  0.0129
  257MOL0     C34585   5.988   7.697   5.434  0.3415 -0.1377  0.4803
  257MOL0     C34586   5.902   7.651   5.339 -0.1072 -0.2405 -0.5838
  257MOL0     C34587   5.764   7.649   5.364 -0.4724 -1.2710 -1.0712
  257MOL0     C34588   5.679   7.622   5.251 -0.5604  0.3077  0.3808
  257MOL0     C34589   5.714   7.698   5.488  0.1423 -0.1664  0.3826
  257MOL0     C34590   5.572   7.724   5.525  0.8351 -0.5040  0.3484
  257MOL0     O34591   5.469   7.713   5.430  0.3732  0.1462  0.1074
  257MOL0     C34592   5.333   7.707   5.463  1.0537  0.6372 -0.1499
  257MOL0     C34593   5.269   7.583   5.459 -0.3911 -0.7835 -0.6755
  257MOL0     C34594   5.130   7.586   5.496  0.6428 -0.5419 -0.5446
  257MOL0     C34595   5.063   7.710   5.523 -0.3959 -0.4652  0.8063
  257MOL0     O34596   4.933   7.742   5.515 -0.3338 -0.5694  0.1757
  257MOL0     C34597   4.834   7.649   5.472 -0.5600  0.3422  0.9776
  257MOL0     C34598   4.720   7.741   5.407 -0.6268 -0.1939 -0.4123
  257MOL0     C34599   4.664   7.845   5.507 -0.3937  0.3737  0.5413
  257MOL0     C34600   4.524   7.889   5.463  0.4794 -0.9837 -0.1153
  257MOL0     C34601   4.447   7.974   5.568 -1.0282  0.5148 -0.2460
  257MOL0     C34602   4.317   8.023   5.504  1.4830 -0.3826  0.1574
  257MOL0     C34603   4.255   8.136   5.588 -0.8459  0.0120  1.2145
  257MOL0     C34604   4.114   8.163   5.552  0.5472  0.2183  0.7406
  257MOL0    Cl34605   4.007   8.018   5.588 -0.6574 -0.4925  0.1875
  257MOL0     C34606   5.137   7.830   5.531 -0.4577  0.8036 -0.6129
  257MOL0     C34607   5.268   7.826   5.496  0.7218  0.0936  0.1359
  257MOL0     O34608   5.556   7.757   5.641 -0.5136  0.4920 -0.1608
  257MOL0     C34609   5.810   7.733   5.589 -0.0771  0.4710  0.0147
  257MOL0     C34610   5.940   7.727   5.560 -0.7738  0.7022 -0.1868
  257MOL0     N34611   6.685   7.824   5.013  0.2682  0.5856  0.2394
  257MOL0     N34612   6.738   7.785   4.907  0.5430  0.4000 -0.2824
  257MOL0     C34613   7.897   7.582   4.669 -0.7666  0.8866  0.2066
  257MOL0     C34614   8.032   7.538   4.676  0.0416  0.3604 -0.2486
  257MOL0     C34615   8.479   7.527   4.744  0.6970  0.4113 -0.2554
  257MOL0     C34616   8.580   7.564   4.658 -0.5441  0.3908  0.6132
  257MOL0     C34617   8.720   7.536   4.673  0.2146 -0.7074  0.6747
  257MOL0     C34618   8.757   7.480   4.785  0.1593  0.1658 -0.5508
  257MOL0     O34619   8.884   7.450   4.829 -0.0561  0.2319  0.6857
  257MOL0     C34620   8.997   7.483   4.753 -0.1473  0.8764 -0.1064
  257MOL0     C34621   9.120   7.423   4.820 -0.2131  0.4584 -0.1287
  257MOL0     C34622   9.141   7.279   4.795  0.6445  0.7821  0.6973
  257MOL0     C34623   9.136   7.245   4.649  0.2843 -0.1727  1.2619
  257MOL0     C34624   9.205   7.120   4.619 -0.6720 -0.6068  0.5382
  257MOL0     C34625   9.261   7.023   4.585 -1.3547  0.6523 -0.3403
  257MOL0     C34626   8.652   7.426   4.867  0.0333 -0.7220 -0.2099
  257MOL0     C34627   8.514   7.460   4.851 -0.4782  0.7126  0.0972
  257MOL0     H34628   8.115   7.609   4.998 -1.2928 -1.5916  0.4413
  257MOL0     H34629   7.879   7.681   4.998 -1.2441 -1.6895 -0.8133
  257MOL0     H34630   7.636   7.521   4.890 -2.9933 -0.6136 -0.7405
  257MOL0     H34631   7.665   7.675   4.983 -0.7040  3.1040 -0.9487
  257MOL0     H34632   7.419   7.624   4.945  1.2132 -4.3747 -1.7030
  257MOL0     H34633   7.476   7.780   4.888 -1.1827 -0.9348 -1.1702
  257MOL0     H34634   7.497   7.688   4.658  1.4155 -1.2855 -1.1422
  257MOL0     H34635   7.434   7.539   4.717 -0.1073  0.0767 -0.9551
  257MOL0     H34636   7.259   7.790   4.736 -0.0076 -0.3424  1.0555
  257MOL0     H34637   7.260   7.674   4.601 -0.9561 -2.6087  0.4779
  257MOL0     H34638   7.210   7.485   4.757 -2.4768 -1.1416  2.4899
  257MOL0     H34639   7.222   7.588   4.888 -0.2331 -1.4184  0.4493
  257MOL0     H34640   7.033   7.730   4.781  0.2727  0.0087  0.2201
  257MOL0     H34641   7.007   7.603   4.661  2.5524 -3.7503 -0.8998
  257MOL0     H34642   6.965   7.429   4.821  1.8075 -0.5768  3.5384
  257MOL0     H34643   6.965   7.541   4.954  2.4308 -1.0574  0.1302
  257MOL0     H34644   6.755   7.457   4.824 -0.5419 -0.8097 -1.6340
  257MOL0     H34645   6.793   7.576   4.708 -0.6463 -0.6200  0.5392
  257MOL0     H34646   6.614   7.505   5.006  0.9472  0.1478  2.6684
  257MOL0     H34647   6.600   7.645   5.255 -0.8566 -1.4221 -2.4382
  257MOL0     H34648   6.557   7.822   5.264  1.4394 -2.2026  3.5630
  257MOL0     H34649   6.393   7.601   5.126  1.5782  0.3850 -0.9799
  257MOL0     H34650   6.356   7.765   5.124  0.2963 -1.2098 -0.5387
  257MOL0     H34651   6.346   7.777   5.388 -0.3727  1.0965 -1.0536
  257MOL0     H34652   6.353   7.596   5.381 -2.7972  1.3850  2.1249
  257MOL0     H34653   6.161   7.590   5.263 -2.4711  1.5583 -1.5458
  257MOL0     H34654   6.167   7.764   5.219  1.8834 -0.1809 -1.1603
  257MOL0     H34655   5.952   7.626   5.245  0.9612  1.4876 -0.5213
  257MOL0     H34656   5.747   7.592   5.171  1.9279  1.6887  1.8528
  257MOL0     H34657   5.606   7.549   5.286 -1.1172  0.4489 -0.4401
  257MOL0     H34658   5.632   7.714   5.214 -2.8610 -1.0776 -0.3724
  257MOL0     H34659   5.317   7.491   5.427 -2.2797 -0.8757 -3.6206
  257MOL0     H34660   5.067   7.497   5.490 -1.5129  0.8412  0.3392
  257MOL0     H34661   4.873   7.574   5.403 -0.2783 -1.0100  2.5701
  257MOL0     H34662   4.788   7.597   5.556 -1.1409  1.1860  1.1968
  257MOL0     H34663   4.762   7.788   5.318 -0.4476 -0.4821 -0.4809
  257MOL0     H34664   4.645   7.671   5.371 -1.7574 -0.1170  1.6577
  257MOL0     H34665   4.728   7.933   5.516 -0.7810  0.8346 -0.9785
  257MOL0     H34666   4.656   7.791   5.602  1.4466 -0.2740  0.3731
  257MOL0     H34667   4.541   7.942   5.369  2.4835 -0.7497  0.3320
  257MOL0     H34668   4.462   7.803   5.436 -2.6677  2.1426 -4.2283
  257MOL0     H34669   4.516   8.058   5.578  3.1634 -2.5096 -0.8101
  257MOL0     H34670   4.435   7.926   5.666  0.6364  1.2118  0.3334
  257MOL0     H34671   4.333   8.053   5.400  0.9359 -1.1891 -0.1704
  257MOL0     H34672   4.245   7.941   5.507  0.0385  0.8791  0.4793
  257MOL0     H34673   4.324   8.220   5.578 -0.8792  0.0564  1.3690
  257MOL0     H34674   4.244   8.103   5.691 -3.3008  0.5948  1.1979
  257MOL0     H34675   4.098   8.192   5.448 -3.4427 -2.8727  0.2480
  257MOL0     H34676   4.085   8.248   5.614  0.3697 -0.1863  1.2236
  257MOL0     H34677   5.090   7.926   5.550  1.6502  1.9641 -0.9840
  257MOL0     H34678   5.325   7.917   5.512  2.6925 -1.3072  1.5197
  257MOL0     H34679   5.784   7.761   5.691 -0.3779 -0.0607  0.0895
  257MOL0     H34680   6.017   7.751   5.634 -0.9342  0.7843 -0.0450
  257MOL0     H34681   7.833   7.582   4.582 -1.4010  0.2984  0.6664
  257MOL0     H34682   8.070   7.497   4.583 -2.0724 -1.2400 -0.4798
  257MOL0     H34683   8.559   7.607   4.560  2.0925 -1.4667 -0.9168
  257MOL0     H34684   8.786   7.554   4.589  0.5809  0.5271  1.2092
  257MOL0     H34685   8.981   7.432   4.657  0.2439 -1.8778  1.1817
  257MOL0     H34686   8.999   7.590   4.731  0.2873  0.4892 -2.1708
  257MOL0     H34687   9.103   7.442   4.927  1.1598 -1.1165  0.4147
  257MOL0     H34688   9.210   7.477   4.792 -0.7282  1.5516  0.2479
  257MOL0     H34689   9.072   7.215   4.851  2.3048 -1.2626  0.5407
  257MOL0     H34690   9.242   7.257   4.831  0.0311 -4.6345 -0.0245
  257MOL0     H34691   9.176   7.328   4.590 -0.4384  0.0251  1.0412
  257MOL0     H34692   9.030   7.223   4.633  0.2287  0.6183  0.4657
  257MOL0     H34693   9.322   6.935   4.579 -0.5665  1.2607 -1.3729
  257MOL0     H34694   8.673   7.378   4.962 -1.4955 -0.5539  0.2289
  257MOL0     H34695   8.443   7.434   4.929 -1.7314 -1.5239 -1.6698
  258MOL0     O34696   1.796   5.197   7.407  0.4812 -0.6720 -0.0596
  258MOL0     C34697   1.895   5.140   7.451  0.3961  1.0315 -0.0604
  258MOL0     O34698   1.901   5.089   7.581  0.0762 -0.0093 -0.2266
  258MOL0     C34699   1.786   5.043   7.652  0.7066 -0.1213 -0.3126
  258MOL0     C34700   1.799   5.033   7.789  0.3021  0.2138  0.0029
  258MOL0     C34701   1.693   4.996   7.868  0.1868  0.1259  0.6035
  258MOL0     C34702   1.570   4.960   7.814 -0.1963 -0.6943  0.2050
  258MOL0     O34703   1.474   4.912   7.894  0.0524  0.3928  0.0273
  258MOL0     C34704   1.355   4.854   7.842 -0.2497 -0.3085  0.3588
  258MOL0     C34705   1.272   4.812   7.961  0.2156 -0.2740  0.5232
  258MOL0     C34706   1.235   4.940   8.046  0.2954 -0.2846 -0.5558
  258MOL0     C34707   1.146   4.923   8.162  0.0830  0.6424 -0.3678
  258MOL0     C34708   1.148   5.032   8.259  0.4507  0.4419 -0.5983
  258MOL0     C34709   1.058   5.019   8.384 -0.1246  0.2694  0.1069
  258MOL0     C34710   1.021   5.161   8.429  0.1412 -0.2148 -0.2427
  258MOL0     C34711   0.944   5.168   8.559  0.2128 -1.3095 -0.2879
  258MOL0     N34712   0.821   5.090   8.562  0.2430  0.4380 -0.4078
  258MOL0     C34713   0.705   5.089   8.486 -0.3667  0.2034 -0.2713
  258MOL0     C34714   0.620   4.994   8.540 -0.3961  0.4143  0.8137
  258MOL0     C34715   0.488   4.936   8.487 -0.0612  0.4042 -0.3597
  258MOL0     C34716   0.382   5.043   8.449 -0.1200 -0.3838 -0.5764
  258MOL0     C34717   0.385   5.075   8.303  0.8276  1.0019 -0.7072
  258MOL0     C34718   0.270   5.168   8.272 -0.0723 -0.2631  0.4720
  258MOL0     O34719   0.261   5.194   8.126 -0.1174  0.4429 -0.3757
  258MOL0     C34720   0.149   5.228   8.061  0.3071 -0.3489  0.3149
  258MOL0     C34721   0.181   5.250   7.928  0.1257 -0.7126  0.7357
  258MOL0     C34722   0.079   5.279   7.833 -0.0868 -0.7676  0.0281
  258MOL0     C34723   0.124   5.314   7.693  0.4173  0.5056 -0.4827
  258MOL0     C34724  -0.057   5.294   7.879  0.3832  0.8800 -0.1228
  258MOL0     C34725  -0.178   5.324   7.794 -0.8104  0.2889  0.4308
  258MOL0     O34726  -0.169   5.282   7.672  0.3681  0.8438  0.7239
  258MOL0     C34727  -0.239   5.331   7.556 -0.2858 -0.8011 -0.4129
  258MOL0     C34728  -0.351   5.412   7.563  0.1007 -0.4254  0.4490
  258MOL0     C34729  -0.420   5.461   7.444 -0.9334 -0.9659 -0.4006
  258MOL0     C34730  -0.370   5.419   7.321  0.9058  0.3691 -0.6772
  258MOL0     O34731  -0.415   5.460   7.201 -0.7954 -0.2812 -0.0554
  258MOL0     C34732  -0.532   5.540   7.194 -0.0480  0.1033 -0.2172
  258MOL0     C34733  -0.569   5.556   7.058 -0.4510 -0.4991 -0.2160
  258MOL0     C34734  -0.681   5.658   7.050  0.4563  0.1842  1.0117
  258MOL0     C34735  -0.650   5.800   7.093  0.4858  0.4730 -0.4424
  258MOL0     C34736  -0.741   5.834   7.207 -0.3396 -0.6393 -0.2277
  258MOL0     C34737  -0.709   5.973   7.267 -0.2272  0.2234  0.3779
  258MOL0     C34738  -0.602   5.949   7.372 -0.1054  0.2422 -0.1060
  258MOL0     C34739  -0.542   6.081   7.423  0.4895 -0.7768 -0.4294
  258MOL0    Cl34740  -0.405   6.051   7.550 -0.1126  0.0690  0.4086
  258MOL0     C34741  -0.261   5.334   7.316  0.1991 -0.7066  0.5429
  258MOL0     C34742  -0.203   5.290   7.430  0.1010  1.3847  0.4876
  258MOL0     O34743  -0.270   5.389   7.842 -0.3189 -0.9149 -0.6126
  258MOL0     C34744  -0.088   5.274   8.023 -0.1841 -0.6328 -0.3687
  258MOL0     C34745   0.020   5.240   8.111 -0.5363 -0.6776  0.1621
  258MOL0     N34746   0.686   4.943   8.651  0.2354  0.5950  0.8127
  258MOL0     N34747   0.808   4.991   8.656 -0.0512 -0.6674 -0.0716
  258MOL0     C34748   1.561   4.959   7.676 -0.1220  0.3166 -0.0847
  258MOL0     C34749   1.664   5.001   7.599  0.6282 -0.2827 -0.2661
  258MOL0     C34750   2.020   5.158   7.386 -0.7362 -0.7833  0.1365
  258MOL0     C34751   2.124   5.083   7.434 -0.7608 -0.2584  0.0498
  258MOL0     C34752   2.251   5.115   7.385  0.6048 -0.3183  0.9453
  258MOL0     C34753   2.274   5.224   7.300  0.4016  0.4090 -0.7876
  258MOL0     O34754   2.401   5.259   7.268  0.2713 -0.7825 -0.1830
  258MOL0     C34755   2.426   5.393   7.300 -0.4188 -0.4515 -0.2173
  258MOL0     C34756   2.585   5.403   7.303  0.2323  0.5337 -0.2975
  258MOL0     C34757   2.632   5.552   7.337  0.2891  1.0813 -0.4993
  258MOL0     C34758   2.780   5.573   7.330  0.0382  0.1866 -0.6065
  258MOL0     C34759   2.822   5.692   7.399  0.4518  0.5248 -0.2597
  258MOL0     C34760   2.824   5.789   7.470 -0.9376 -0.0489 -0.1793
  258MOL0     C34761   2.168   5.292   7.253 -0.5055  0.1967  0.2142
  258MOL0     C34762   2.042   5.257   7.296  0.0511 -0.2178  0.4066
  258MOL0     H34763   1.898   5.053   7.829  0.8207  0.6071 -1.4119
  258MOL0     H34764   1.707   4.986   7.975  0.3394 -0.5573  0.5246
  258MOL0     H34765   1.294   4.922   7.781  0.9051  1.2196  0.8371
  258MOL0     H34766   1.390   4.772   7.780  1.4684  0.2429  0.5521
  258MOL0     H34767   1.179   4.765   7.928 -0.1165  0.3151  0.6077
  258MOL0     H34768   1.332   4.736   8.012  2.7890 -0.1984 -2.0635
  258MOL0     H34769   1.329   4.969   8.094 -0.4462 -0.1873  0.8998
  258MOL0     H34770   1.200   5.016   7.976  0.4364 -0.0159 -0.3324
  258MOL0     H34771   1.044   4.923   8.122  0.9787 -1.9986 -3.0218
  258MOL0     H34772   1.158   4.831   8.219  0.0511  1.8779  1.7309
  258MOL0     H34773   1.252   5.051   8.284  0.3723 -0.4854  0.5389
  258MOL0     H34774   1.121   5.121   8.202 -3.3610 -2.1742 -3.3938
  258MOL0     H34775   0.966   4.963   8.365  0.4665 -1.2060  1.4009
  258MOL0     H34776   1.112   4.962   8.460 -0.4018 -1.0750 -0.6777
  258MOL0     H34777   1.114   5.217   8.442  0.8415 -1.4101  0.0755
  258MOL0     H34778   0.963   5.214   8.353  0.4607 -1.7792 -1.6594
  258MOL0     H34779   0.915   5.267   8.597  0.6880 -0.7243 -1.4177
  258MOL0     H34780   1.024   5.139   8.628  0.2148  0.5386  0.5522
  258MOL0     H34781   0.677   5.147   8.399  0.3113 -2.4701 -2.4200
  258MOL0     H34782   0.502   4.862   8.407  1.7727 -0.0580  0.3345
  258MOL0     H34783   0.453   4.868   8.565 -1.4649 -1.7449 -2.7061
  258MOL0     H34784   0.406   5.137   8.500  0.8252 -1.7422  1.6338
  258MOL0     H34785   0.284   5.025   8.495  1.0396  2.2101  3.4156
  258MOL0     H34786   0.370   4.983   8.244  1.3093 -0.0971  0.8126
  258MOL0     H34787   0.479   5.120   8.271  1.9361  0.0477  1.0582
  258MOL0     H34788   0.272   5.262   8.328  4.6679 -0.9958  1.9925
  258MOL0     H34789   0.175   5.119   8.295 -0.5342  1.7314  3.2794
  258MOL0     H34790   0.277   5.223   7.886 -1.3268 -3.1962 -1.2749
  258MOL0     H34791   0.231   5.298   7.680  0.5695  1.1128  0.0319
  258MOL0     H34792   0.062   5.258   7.622 -1.1459  0.9333  0.5046
  258MOL0     H34793   0.100   5.420   7.685 -0.5207  0.3016 -0.5447
  258MOL0     H34794  -0.388   5.451   7.657 -1.5871  1.4307 -0.8788
  258MOL0     H34795  -0.505   5.525   7.466 -0.6511 -0.1384 -1.6102
  258MOL0     H34796  -0.614   5.484   7.239  0.6721 -0.9907 -0.2250
  258MOL0     H34797  -0.515   5.640   7.235  2.6092 -0.3482 -0.0396
  258MOL0     H34798  -0.482   5.590   7.002  0.9117 -0.5399  1.7734
  258MOL0     H34799  -0.603   5.462   7.014  1.2749 -1.3561  0.1953
  258MOL0     H34800  -0.768   5.621   7.106  1.9208 -3.2853  1.2097
  258MOL0     H34801  -0.716   5.653   6.946  1.0553  2.1278  0.6825
  258MOL0     H34802  -0.546   5.823   7.119  0.5616 -1.6798  1.5024
  258MOL0     H34803  -0.670   5.865   7.008 -0.9652  1.2330  0.4407
  258MOL0     H34804  -0.729   5.756   7.283 -1.0880 -1.8420 -1.3203
  258MOL0     H34805  -0.847   5.840   7.180 -1.0333 -1.4731  2.0719
  258MOL0     H34806  -0.682   6.046   7.189 -1.8375  0.1472 -0.2880
  258MOL0     H34807  -0.801   6.005   7.316 -1.4824  1.0126 -2.2886
  258MOL0     H34808  -0.516   5.897   7.331  1.0484  0.1054  2.2941
  258MOL0     H34809  -0.643   5.897   7.459 -0.8315 -1.6438 -1.5284
  258MOL0     H34810  -0.622   6.133   7.478  1.4995 -0.8760  1.2068
  258MOL0     H34811  -0.507   6.141   7.339  3.0805  0.9001  1.6710
  258MOL0     H34812  -0.229   5.295   7.220 -0.2114  0.0972  0.0711
  258MOL0     H34813  -0.114   5.229   7.444 -0.2100  0.7599 -0.1647
  258MOL0     H34814  -0.191   5.278   8.055 -0.9239 -1.7380 -2.4053
  258MOL0     H34815   0.001   5.224   8.217 -2.0593 -2.8108 -0.3583
  258MOL0     H34816   1.472   4.931   7.621  0.6112 -1.8995 -0.2396
  258MOL0     H34817   1.663   4.999   7.490 -0.2248  0.0231 -0.2690
  258MOL0     H34818   2.110   5.009   7.512 -0.1506 -2.8029 -2.0960
  258MOL0     H34819   2.341   5.075   7.430 -0.0033  0.3826  2.8626
  258MOL0     H34820   2.381   5.463   7.229  1.8049  0.2841 -0.9554
  258MOL0     H34821   2.376   5.417   7.395 -1.7856 -1.1816 -0.7228
  258MOL0     H34822   2.614   5.374   7.202  1.7408 -2.0224  0.7563
  258MOL0     H34823   2.630   5.331   7.372  1.7068 -1.5085 -3.1819
  258MOL0     H34824   2.598   5.583   7.436  1.5367  0.5081  0.1292
  258MOL0     H34825   2.597   5.625   7.264  2.5698  0.3952 -2.4101
  258MOL0     H34826   2.835   5.573   7.235  3.9969  1.7023  1.4711
  258MOL0     H34827   2.819   5.489   7.388 -2.4602 -2.0059 -1.8849
  258MOL0     H34828   2.830   5.871   7.538 -0.1900  0.1824 -0.5125
  258MOL0     H34829   2.181   5.374   7.183 -0.2909 -1.0485 -1.2582
  258MOL0     H34830   1.958   5.312   7.255  0.2634 -0.4619 -0.3697
  259MOL0     O34831   3.493   4.452   2.382  0.1873  0.6439  0.0726
  259MOL0     C34832   3.529   4.488   2.495 -0.1415 -0.5609 -0.0026
  259MOL0     O34833   3.507   4.425   2.619 -0.1773  0.4408 -0.7006
  259MOL0     C34834   3.423   4.324   2.623  0.5150 -0.7240  0.9687
  259MOL0     C34835   3.322   4.353   2.700  0.3442  0.4418 -0.3052
  259MOL0     C34836   3.215   4.252   2.712 -0.6934 -0.8131 -0.1202
  259MOL0     C34837   3.221   4.131   2.649 -0.4768 -0.2713  0.1422
  259MOL0     O34838   3.125   4.038   2.657  0.3003 -0.4270 -0.4428
  259MOL0     C34839   3.097   3.949   2.553  0.1518  0.4014 -0.0079
  259MOL0     C34840   3.051   4.025   2.425  0.3600 -0.3852 -0.0332
  259MOL0     C34841   2.949   4.137   2.441 -0.1134 -0.4904  0.9287
  259MOL0     C34842   2.811   4.089   2.473 -0.0873 -0.1575  0.0424
  259MOL0     C34843   2.685   4.164   2.415 -0.6302 -0.2054 -0.2216
  259MOL0     C34844   2.702   4.197   2.263 -0.7852 -0.5465  0.4828
  259MOL0     C34845   2.561   4.210   2.202 -0.5547  0.0636 -0.5656
  259MOL0     C34846   2.568   4.228   2.045  0.2226  0.5041 -0.7607
  259MOL0     N34847   2.447   4.296   1.994 -0.0722  0.0351 -0.0725
  259MOL0     C34848   2.373   4.405   2.041 -0.4876 -0.1488  0.2420
  259MOL0     C34849   2.289   4.438   1.950  0.3587  0.8145  0.1241
  259MOL0     C34850   2.172   4.536   1.970 -0.1768 -0.7758  0.2517
  259MOL0     C34851   2.038   4.460   1.970 -0.5517 -0.6548 -0.7042
  259MOL0     C34852   2.012   4.394   2.112 -0.3848  0.0031  0.0936
  259MOL0     C34853   1.863   4.344   2.134 -0.1269 -0.8588 -0.8295
  259MOL0     O34854   1.781   4.454   2.187 -0.9822 -0.8184  0.5721
  259MOL0     C34855   1.652   4.445   2.164  0.8446  0.9749 -0.0431
  259MOL0     C34856   1.577   4.559   2.125 -0.2647 -0.0572 -0.4895
  259MOL0     C34857   1.438   4.549   2.108 -0.1110 -0.2124 -0.2781
  259MOL0     C34858   1.365   4.682   2.076  0.9453  0.1723 -0.3730
  259MOL0     C34859   1.376   4.423   2.115  0.2383 -0.4029  0.7387
  259MOL0     C34860   1.236   4.401   2.078 -0.4204  0.1316  0.2242
  259MOL0     O34861   1.152   4.426   2.187 -0.8470  0.5026 -0.4330
  259MOL0     C34862   1.022   4.410   2.156  0.6367  0.1444 -0.2729
  259MOL0     C34863   0.945   4.313   2.226  0.3091  0.1946  0.0488
  259MOL0     C34864   0.813   4.291   2.193  0.2060  0.5685 -0.5065
  259MOL0     C34865   0.744   4.366   2.099 -0.4825  0.8974  0.3960
  259MOL0     O34866   0.609   4.358   2.089 -0.4751  0.5167  0.5323
  259MOL0     C34867   0.544   4.359   1.956  0.9658  0.1766  0.4193
  259MOL0     C34868   0.505   4.218   1.911 -0.2506  0.3398  0.6827
  259MOL0     C34869   0.372   4.169   1.968  0.4272  0.4014 -0.2531
  259MOL0     C34870   0.253   4.206   1.878  0.2270  0.0700  0.4156
  259MOL0     C34871   0.118   4.180   1.946 -1.0788 -0.2509  0.1734
  259MOL0     C34872  -0.009   4.204   1.860  0.4364 -0.4058  0.0154
  259MOL0     C34873  -0.053   4.091   1.760 -0.6682  0.0024  0.2466
  259MOL0     C34874  -0.113   3.972   1.851 -0.8907  0.2614  0.6075
  259MOL0    Cl34875  -0.270   4.026   1.922 -0.3909 -0.4896 -0.1122
  259MOL0     C34876   0.809   4.470   2.031 -0.3893 -0.3942 -1.0280
  259MOL0     C34877   0.949   4.488   2.061 -1.2753  0.0046 -0.6976
  259MOL0     O34878   1.206   4.356   1.968 -0.1495 -0.2982 -0.5124
  259MOL0     C34879   1.445   4.308   2.150 -0.7173 -0.5318 -0.8392
  259MOL0     C34880   1.584   4.322   2.183 -0.1625  0.3661  1.6030
  259MOL0     N34881   2.312   4.363   1.836  0.3554 -0.1463  0.3903
  259MOL0     N34882   2.407   4.277   1.864  0.2602  0.1165 -0.1521
  259MOL0     C34883   3.334   4.109   2.564  0.4251 -0.1964 -0.0724
  259MOL0     C34884   3.438   4.206   2.550  0.3697  0.8611  0.3921
  259MOL0     C34885   3.624   4.595   2.494 -0.5777  0.0214  0.0391
  259MOL0     C34886   3.659   4.669   2.616  0.7198  0.1749 -0.1548
  259MOL0     C34887   3.754   4.773   2.608 -0.0740 -0.5706 -0.9528
  259MOL0     C34888   3.822   4.796   2.485 -0.9084 -0.4999  0.2122
  259MOL0     O34889   3.897   4.904   2.459 -0.5407  0.3703  0.1857
  259MOL0     C34890   3.958   4.972   2.568  0.4260  0.9424  0.1286
  259MOL0     C34891   4.056   4.882   2.642  0.1556  0.4747 -0.0379
  259MOL0     C34892   4.193   4.882   2.581 -0.7263 -0.2194  0.4851
  259MOL0     C34893   4.285   4.785   2.652 -0.7976  0.4871 -0.4643
  259MOL0     C34894   4.276   4.644   2.614  0.2978 -0.0442  1.1432
  259MOL0     C34895   4.269   4.527   2.579 -0.2803  0.3720 -0.3593
  259MOL0     C34896   3.798   4.709   2.380  0.1367 -0.1675  0.9143
  259MOL0     C34897   3.694   4.622   2.380 -1.0809  0.0581 -0.4397
  259MOL0     H34898   3.322   4.453   2.742 -0.4261  0.9966 -1.5771
  259MOL0     H34899   3.126   4.276   2.769 -1.6687 -3.0355 -0.6020
  259MOL0     H34900   3.177   3.876   2.541  1.9014  2.4874 -2.0174
  259MOL0     H34901   3.009   3.891   2.581 -1.0903  0.9538 -2.5301
  259MOL0     H34902   3.134   4.068   2.368 -0.1513  0.4582 -0.1438
  259MOL0     H34903   3.009   3.945   2.364  1.5648 -1.8611  0.9686
  259MOL0     H34904   2.973   4.217   2.511 -0.4889 -0.7555  1.3645
  259MOL0     H34905   2.941   4.188   2.344 -1.2221  0.2887  1.4132
  259MOL0     H34906   2.802   3.980   2.464  2.4771 -0.2821 -2.4728
  259MOL0     H34907   2.805   4.099   2.582 -2.2808 -0.6687  0.0064
  259MOL0     H34908   2.602   4.094   2.429  0.3719 -1.3141  0.4810
  259MOL0     H34909   2.669   4.260   2.464  0.9074  0.2616 -0.5885
  259MOL0     H34910   2.765   4.287   2.265  1.7571 -2.2287  0.3643
  259MOL0     H34911   2.766   4.123   2.214  2.2892  0.5160  2.5722
  259MOL0     H34912   2.497   4.123   2.220 -0.7837  0.0293 -1.5026
  259MOL0     H34913   2.505   4.290   2.250  0.0715  1.1152 -1.5386
  259MOL0     H34914   2.584   4.133   1.994 -0.7163 -1.5218  2.4068
  259MOL0     H34915   2.655   4.292   2.024  0.2042  0.1671 -1.9538
  259MOL0     H34916   2.376   4.452   2.138  2.4795  0.0577  0.1487
  259MOL0     H34917   2.178   4.598   2.060  0.6477  0.3908 -0.5770
  259MOL0     H34918   2.175   4.603   1.883 -1.9567 -1.8968 -0.7500
  259MOL0     H34919   2.044   4.383   1.892  1.2354 -0.0936 -1.1845
  259MOL0     H34920   1.953   4.525   1.950 -2.7744 -2.8733  0.8923
  259MOL0     H34921   2.041   4.470   2.186 -0.0148 -0.4396  0.4082
  259MOL0     H34922   2.084   4.312   2.124  0.5469  0.8455  0.4388
  259MOL0     H34923   1.865   4.271   2.215 -3.2895 -0.3687 -0.1939
  259MOL0     H34924   1.827   4.308   2.037 -0.7553 -0.1129 -0.8826
  259MOL0     H34925   1.615   4.660   2.137 -1.4932  0.1969  1.8686
  259MOL0     H34926   1.310   4.721   2.162 -0.0712 -0.9291 -0.5047
  259MOL0     H34927   1.436   4.757   2.038  3.1201 -0.7077  1.6951
  259MOL0     H34928   1.291   4.647   2.003 -0.8766 -1.8956  2.2616
  259MOL0     H34929   0.998   4.233   2.276 -0.4462 -0.9888 -0.9869
  259MOL0     H34930   0.748   4.214   2.235 -1.0984  1.9287  0.0359
  259MOL0     H34931   0.449   4.413   1.963  0.6560 -0.3466  0.3006
  259MOL0     H34932   0.612   4.393   1.877 -1.2323 -1.2392 -2.2455
  259MOL0     H34933   0.482   4.235   1.806 -2.0714 -0.9465  0.8143
  259MOL0     H34934   0.583   4.143   1.928 -0.5050  0.1386  0.9711
  259MOL0     H34935   0.361   4.203   2.071  0.8688 -0.4367  0.0893
  259MOL0     H34936   0.375   4.061   1.987  1.0066  0.2951 -0.9292
  259MOL0     H34937   0.255   4.314   1.857  2.2859  0.0543  0.3267
  259MOL0     H34938   0.256   4.147   1.786 -0.0247 -2.0869  1.7163
  259MOL0     H34939   0.098   4.242   2.034 -2.5984  1.5589 -1.3486
  259MOL0     H34940   0.124   4.078   1.984 -3.3983 -0.7515 -0.6197
  259MOL0     H34941  -0.096   4.215   1.924 -0.0634 -0.7713 -0.5935
  259MOL0     H34942   0.000   4.297   1.803 -1.4496 -1.4026 -2.0645
  259MOL0     H34943   0.034   4.056   1.705 -3.1665 -1.6191 -3.0442
  259MOL0     H34944  -0.121   4.142   1.690  0.8891  0.8992 -0.6815
  259MOL0     H34945  -0.039   3.937   1.923 -1.9972  1.8756  2.6371
  259MOL0     H34946  -0.138   3.893   1.779 -1.7252  0.9165  0.1624
  259MOL0     H34947   0.766   4.539   1.959 -0.9470 -0.1552 -0.4702
  259MOL0     H34948   1.002   4.575   2.025  1.7800 -0.3128  2.4664
  259MOL0     H34949   1.391   4.214   2.157 -2.0854  0.3495  1.8132
  259MOL0     H34950   1.635   4.227   2.199 -1.3953 -1.2819 -2.8062
  259MOL0     H34951   3.335   4.022   2.499 -3.6496 -2.0762  1.9667
  259MOL0     H34952   3.526   4.195   2.486 -0.5019 -1.2740 -0.5358
  259MOL0     H34953   3.613   4.648   2.712 -2.8964  1.3478 -1.4882
  259MOL0     H34954   3.771   4.839   2.692 -0.0474 -0.7741 -0.7964
  259MOL0     H34955   4.014   5.046   2.509  0.6921 -0.3577 -1.3084
  259MOL0     H34956   3.886   5.032   2.625  0.4646  0.9194  0.2008
  259MOL0     H34957   4.011   4.782   2.644 -0.6082  0.7406 -1.7162
  259MOL0     H34958   4.056   4.903   2.749  0.5796 -0.6556  0.1930
  259MOL0     H34959   4.237   4.977   2.613  0.7113 -0.9339  0.7216
  259MOL0     H34960   4.186   4.874   2.472 -4.8968  1.2356  0.4642
  259MOL0     H34961   4.274   4.789   2.761  1.4375  1.2090 -0.2170
  259MOL0     H34962   4.383   4.823   2.622 -1.2792  1.2029 -1.1997
  259MOL0     H34963   4.256   4.435   2.527 -5.8765  0.6583 -0.1071
  259MOL0     H34964   3.856   4.720   2.289 -0.1400  0.6125  0.8226
  259MOL0     H34965   3.674   4.556   2.297 -0.5837  1.5504 -1.8113
  260MOL0     O34966   4.721   6.732   5.525  0.3125 -0.0287  0.2817
  260MOL0     C34967   4.782   6.831   5.501  0.4656 -0.3375  0.4934
  260MOL0     O34968   4.760   6.920   5.392  0.8308  0.3171 -0.0948
  260MOL0     C34969   4.670   6.895   5.293 -0.1598  0.2567 -0.0522
  260MOL0     C34970   4.648   6.772   5.237  0.3925  1.1434 -0.0915
  260MOL0     C34971   4.557   6.753   5.130 -0.4919 -1.2799  0.4401
  260MOL0     C34972   4.508   6.880   5.068  0.2245 -0.0028  0.4737
  260MOL0     O34973   4.431   6.867   4.954  0.4998  0.1937 -0.3616
  260MOL0     C34974   4.302   6.797   4.960  1.0130 -0.5266 -0.3087
  260MOL0     C34975   4.191   6.873   5.041  0.1339 -0.2191 -0.7929
  260MOL0     C34976   4.176   7.009   4.982  0.1222 -0.1318  1.0997
  260MOL0     C34977   4.059   7.081   5.037 -0.1436 -0.5263 -0.3219
  260MOL0     C34978   4.070   7.236   5.007 -0.0016  0.1778 -0.1781
  260MOL0     C34979   4.031   7.259   4.856 -0.3813  0.5352 -0.2249
  260MOL0     C34980   3.881   7.245   4.826 -0.0931  0.4294 -0.4027
  260MOL0     C34981   3.841   7.279   4.693  0.1732 -0.0629 -0.2111
  260MOL0     N34982   3.879   7.415   4.648 -0.1973  0.1564 -1.0972
  260MOL0     C34983   3.798   7.517   4.670  0.1456  0.3755 -0.6236
  260MOL0     C34984   3.866   7.625   4.622 -0.5140  0.8187 -0.4141
  260MOL0     C34985   3.805   7.754   4.616 -0.1812  0.6118 -0.2738
  260MOL0     C34986   3.906   7.864   4.583 -0.1766 -0.1968 -0.4517
  260MOL0     C34987   4.009   7.893   4.706 -0.0380  0.9377 -0.0670
  260MOL0     C34988   4.140   7.961   4.675  0.1965 -0.3059  0.1864
  260MOL0     O34989   4.106   8.097   4.652 -0.3050  0.0711  0.6764
  260MOL0     C34990   4.208   8.184   4.635 -0.4450  0.9789 -0.6865
  260MOL0     C34991   4.169   8.313   4.608 -0.0707  0.1388 -1.1533
  260MOL0     C34992   4.264   8.414   4.596 -0.6503  0.4161 -0.4720
  260MOL0     C34993   4.216   8.550   4.569 -0.1913 -0.0753 -0.1971
  260MOL0     C34994   4.403   8.385   4.588  0.3617  0.5615  0.1344
  260MOL0     C34995   4.503   8.486   4.560 -0.3021 -0.7375  0.3141
  260MOL0     O34996   4.605   8.452   4.468  0.3787 -0.1495 -0.1974
  260MOL0     C34997   4.716   8.529   4.480 -0.2396  0.0538  0.2523
  260MOL0     C34998   4.769   8.571   4.358 -0.3589 -0.4210  0.2285
  260MOL0     C34999   4.879   8.650   4.364 -0.1178  0.0885 -0.1171
  260MOL0     C35000   4.952   8.683   4.475  0.3729  0.6045  0.2236
  260MOL0     O35001   5.058   8.769   4.488  0.2758 -0.5445  0.0039
  260MOL0     C35002   5.117   8.831   4.368 -0.6753 -0.2258 -0.9576
  260MOL0     C35003   5.213   8.935   4.427  0.4874  0.1298 -0.3114
  260MOL0     C35004   5.318   8.870   4.509  0.9121 -0.2684  0.0772
  260MOL0     C35005   5.418   8.792   4.446  1.2995 -0.7582  1.1143
  260MOL0     C35006   5.559   8.815   4.508 -0.2739  0.0536  0.1282
  260MOL0     C35007   5.662   8.716   4.443  0.9006  0.3556  0.7800
  260MOL0     C35008   5.798   8.734   4.517 -0.1475  0.2435  0.4286
  260MOL0     C35009   5.885   8.627   4.466  0.5688 -0.1584 -0.3227
  260MOL0    Cl35010   6.061   8.665   4.516  0.1847  0.0266  0.0653
  260MOL0     C35011   4.898   8.626   4.590  0.0060 -0.7231 -0.4307
  260MOL0     C35012   4.783   8.548   4.602 -0.6008 -0.4762  0.3277
  260MOL0     O35013   4.498   8.585   4.629  0.3072  0.0092  0.0099
  260MOL0     C35014   4.443   8.252   4.605 -0.5553 -0.0317 -0.7234
  260MOL0     C35015   4.345   8.152   4.634 -0.6198  0.1226 -0.8749
  260MOL0     N35016   3.995   7.587   4.584 -0.2157  0.3683  0.4634
  260MOL0     N35017   3.995   7.461   4.595  0.1990  0.0662  0.1799
  260MOL0     C35018   4.530   7.006   5.127  0.1813 -0.2596  0.6096
  260MOL0     C35019   4.614   7.011   5.236 -0.7564 -0.6185  0.4497
  260MOL0     C35020   4.899   6.855   5.575  0.8162  0.0283 -0.5046
  260MOL0     C35021   4.969   6.975   5.566  0.0281 -0.6896  0.4620
  260MOL0     C35022   5.079   7.005   5.648  0.4499 -1.0251  1.3582
  260MOL0     C35023   5.101   6.924   5.758 -0.3609 -0.2215 -0.3422
  260MOL0     O35024   5.194   6.974   5.847 -0.4750 -0.0750  0.5711
  260MOL0     C35025   5.160   7.088   5.929 -0.5076 -0.2336 -0.0214
  260MOL0     C35026   5.055   7.048   6.031  1.0753  0.1447  0.2281
  260MOL0     C35027   5.099   6.926   6.124 -0.2050 -0.1017 -0.2474
  260MOL0     C35028   5.010   6.917   6.251 -0.4027 -0.6585 -0.1911
  260MOL0     C35029   5.014   7.027   6.345 -0.4379 -0.2211  0.3981
  260MOL0     C35030   5.010   7.131   6.412  1.0018  0.2996 -0.3004
  260MOL0     C35031   5.047   6.793   5.763 -0.4626  0.1742  0.5061
  260MOL0     C35032   4.954   6.762   5.666  1.4846  0.3909  1.0048
  260MOL0     H35033   4.687   6.680   5.280  0.9419 -0.1625 -3.1109
  260MOL0     H35034   4.530   6.658   5.085 -3.0682  0.0125 -0.9827
  260MOL0     H35035   4.265   6.771   4.860 -4.8055 -1.3134  1.6459
  260MOL0     H35036   4.305   6.702   5.014  0.7091 -1.9914 -2.6844
  260MOL0     H35037   4.093   6.825   5.028  0.3427 -0.9736  0.2432
  260MOL0     H35038   4.210   6.879   5.148 -0.8813 -2.4033 -0.4365
  260MOL0     H35039   4.263   7.066   5.015 -0.2298  1.3071 -0.3565
  260MOL0     H35040   4.172   7.006   4.873  5.7119  1.7367  0.5129
  260MOL0     H35041   3.973   7.031   4.992 -1.1783  0.7251  0.1971
  260MOL0     H35042   4.050   7.068   5.146  1.6840  0.6051 -0.0079
  260MOL0     H35043   4.014   7.292   5.082 -3.9015  1.1538 -3.4369
  260MOL0     H35044   4.175   7.267   5.013 -0.2703  1.1373 -0.2803
  260MOL0     H35045   4.064   7.360   4.829 -1.3371  1.1118  0.6809
  260MOL0     H35046   4.078   7.189   4.788 -1.2353 -1.4009  1.0947
  260MOL0     H35047   3.843   7.146   4.852  3.0280 -0.9294 -0.5991
  260MOL0     H35048   3.834   7.312   4.899  0.8829  1.6375 -0.8344
  260MOL0     H35049   3.732   7.285   4.697  0.2397  0.6048  1.4978
  260MOL0     H35050   3.871   7.199   4.625  1.6953  0.2941 -0.0018
  260MOL0     H35051   3.693   7.515   4.698  0.4279 -1.1303  0.4819
  260MOL0     H35052   3.726   7.769   4.542  0.3762 -0.2953 -1.0774
  260MOL0     H35053   3.759   7.771   4.714  1.5361 -2.5011  1.2408
  260MOL0     H35054   3.860   7.958   4.552  2.7070  1.9499  1.2034
  260MOL0     H35055   3.966   7.829   4.499 -0.3400  1.1974 -1.1757
  260MOL0     H35056   4.034   7.804   4.764 -1.8697  1.2059  1.2233
  260MOL0     H35057   3.961   7.965   4.774 -0.4584  2.6380 -2.0455
  260MOL0     H35058   4.194   7.921   4.589  2.5681 -1.5211  2.0796
  260MOL0     H35059   4.210   7.952   4.759 -1.9909 -0.9169  2.0331
  260MOL0     H35060   4.061   8.324   4.611  0.1247  2.4312  1.4623
  260MOL0     H35061   4.107   8.540   4.559 -0.0062 -1.6989 -1.0614
  260MOL0     H35062   4.235   8.622   4.649 -1.4202  0.6462 -0.5243
  260MOL0     H35063   4.254   8.593   4.476 -0.2434  0.4366  0.0180
  260MOL0     H35064   4.716   8.569   4.263  0.0291  1.4727 -0.0572
  260MOL0     H35065   4.904   8.708   4.275  0.2839  0.0532 -0.0306
  260MOL0     H35066   5.155   8.744   4.313  0.0833 -0.2394 -0.4239
  260MOL0     H35067   5.031   8.868   4.311 -1.8169 -0.5878  0.4696
  260MOL0     H35068   5.270   8.990   4.351  3.5102 -0.0812  1.6199
  260MOL0     H35069   5.159   9.005   4.491  3.1192  0.1515  2.0733
  260MOL0     H35070   5.277   8.817   4.596 -0.7981 -1.3668 -1.3274
  260MOL0     H35071   5.368   8.956   4.554 -0.8508 -0.2224  2.1481
  260MOL0     H35072   5.390   8.687   4.437  0.1018 -0.3132 -1.4088
  260MOL0     H35073   5.431   8.825   4.343  0.6657  0.8893  1.5242
  260MOL0     H35074   5.547   8.784   4.612 -0.7367 -0.7996 -0.1766
  260MOL0     H35075   5.602   8.915   4.493  2.5067 -1.1063 -0.2831
  260MOL0     H35076   5.626   8.614   4.462 -3.1769  2.0897  3.8363
  260MOL0     H35077   5.662   8.738   4.336  0.0225  3.1178  1.2686
  260MOL0     H35078   5.787   8.739   4.625 -0.1041  1.2435  0.3984
  260MOL0     H35079   5.850   8.824   4.482  0.8919 -1.0288 -1.5583
  260MOL0     H35080   5.867   8.616   4.359  0.0975  0.7536 -0.3476
  260MOL0     H35081   5.858   8.535   4.519 -2.6469  1.5214  1.2272
  260MOL0     H35082   4.945   8.644   4.686  0.8130 -3.7560 -0.1745
  260MOL0     H35083   4.753   8.507   4.698  1.7742  0.3808  1.5215
  260MOL0     H35084   4.548   8.225   4.600 -0.8988 -2.4919  2.4117
  260MOL0     H35085   4.381   8.051   4.651 -1.7928 -0.4527 -1.6474
  260MOL0     H35086   4.484   7.091   5.078 -0.0089 -0.3102  0.7008
  260MOL0     H35087   4.646   7.108   5.273  2.0138 -0.8402 -1.1506
  260MOL0     H35088   4.942   7.053   5.497  0.2971 -0.6764  0.3713
  260MOL0     H35089   5.126   7.100   5.622 -0.4022 -1.0748 -0.5672
  260MOL0     H35090   5.255   7.109   5.980  1.6340 -1.0332 -3.3455
  260MOL0     H35091   5.130   7.169   5.862  2.4539 -0.4401 -1.7547
  260MOL0     H35092   4.963   7.018   5.979 -0.0946  2.1912  1.0011
  260MOL0     H35093   5.025   7.137   6.087 -1.1841  0.0837 -0.7461
  260MOL0     H35094   5.204   6.928   6.154 -0.5507  2.9410  1.1156
  260MOL0     H35095   5.085   6.833   6.068 -1.7004  1.0403 -1.8829
  260MOL0     H35096   5.040   6.823   6.299 -1.2539 -0.8174  0.0393
  260MOL0     H35097   4.909   6.908   6.211  0.6049 -0.5032 -3.0365
  260MOL0     H35098   5.018   7.226   6.461  2.2382  0.7394 -1.2960
  260MOL0     H35099   5.056   6.711   5.833  0.6746 -2.7543 -2.7853
  260MOL0     H35100   4.910   6.662   5.661 -0.0418  0.9782  1.8038
  261MOL0     O35101   3.426   0.672   2.553 -0.6143  0.4167  0.1380
  261MOL0     C35102   3.370   0.782   2.568  0.1741 -0.3137  0.2101
  261MOL0     O35103   3.239   0.802   2.588 -0.5316  0.1050  0.0148
  261MOL0     C35104   3.157   0.712   2.642  0.0431 -0.6477  0.5456
  261MOL0     C35105   3.021   0.710   2.609  0.3205 -0.5460  1.0787
  261MOL0     C35106   2.929   0.621   2.667  0.1547  0.1075 -0.0329
  261MOL0     C35107   2.970   0.530   2.758 -0.6898 -0.7284 -0.0859
  261MOL0     O35108   2.879   0.448   2.822 -0.1306  0.0736 -0.3897
  261MOL0     C35109   2.898   0.303   2.819 -0.3663 -0.1851  0.0739
  261MOL0     C35110   2.822   0.244   2.942 -0.5144  0.3084 -0.4786
  261MOL0     C35111   2.672   0.226   2.916 -0.6272 -0.0509  0.0560
  261MOL0     C35112   2.600   0.199   3.048 -0.3171  0.0731  0.6070
  261MOL0     C35113   2.451   0.200   3.045  0.7834 -0.0842 -0.6682
  261MOL0     C35114   2.394   0.075   2.964  0.3255  0.8349 -0.6968
  261MOL0     C35115   2.246   0.060   2.988 -0.6014  0.0280  0.3437
  261MOL0     C35116   2.178  -0.056   2.911 -1.3221 -0.4919  0.1736
  261MOL0     N35117   2.041  -0.074   2.949 -0.0364  0.0723  1.0630
  261MOL0     C35118   1.928  -0.027   2.880 -0.9801 -1.2980 -0.1049
  261MOL0     C35119   1.820  -0.069   2.955  0.1854  0.6781  1.0512
  261MOL0     C35120   1.680  -0.046   2.925 -0.3003  0.0719  0.3940
  261MOL0     C35121   1.578  -0.050   3.043  0.1890  0.0549 -0.0675
  261MOL0     C35122   1.568  -0.186   3.117  0.1704 -0.3226 -0.3990
  261MOL0     C35123   1.537  -0.292   3.005  0.0185 -0.0973  0.6302
  261MOL0     O35124   1.488  -0.420   3.048  0.5682 -0.3901  0.2489
  261MOL0     C35125   1.571  -0.512   3.092 -0.9923 -1.2216  0.0071
  261MOL0     C35126   1.519  -0.629   3.162  0.7117  0.2654 -0.5475
  261MOL0     C35127   1.599  -0.736   3.206 -0.5355 -0.5672 -0.0648
  261MOL0     C35128   1.524  -0.850   3.254  0.8498  0.1232  0.6362
  261MOL0     C35129   1.738  -0.721   3.210  0.4368 -0.3453 -0.3307
  261MOL0     C35130   1.824  -0.823   3.276  0.2259 -0.5104 -0.7441
  261MOL0     O35131   1.933  -0.852   3.208  0.0657  0.1891  0.5038
  261MOL0     C35132   2.016  -0.949   3.246  0.8287 -0.6612  0.2856
  261MOL0     C35133   2.071  -1.031   3.148  0.4898  0.5619 -0.2836
  261MOL0     C35134   2.169  -1.115   3.177  0.1755 -0.0462 -0.2056
  261MOL0     C35135   2.216  -1.142   3.306 -0.0551 -0.0194 -0.2464
  261MOL0     O35136   2.304  -1.246   3.315  0.5800 -0.0816  0.3756
  261MOL0     C35137   2.432  -1.192   3.362  0.2631 -0.6158 -1.0052
  261MOL0     C35138   2.533  -1.302   3.367 -0.6046  0.1073  0.7952
  261MOL0     C35139   2.663  -1.251   3.422 -0.2152  0.9752  0.2088
  261MOL0     C35140   2.771  -1.368   3.435  0.0054 -0.0877 -0.1185
  261MOL0     C35141   2.919  -1.322   3.427  0.1455 -0.7942 -1.2052
  261MOL0     C35142   2.946  -1.216   3.539  0.1940  0.5172  0.6339
  261MOL0     C35143   3.091  -1.151   3.528  0.7660 -0.2565 -0.5467
  261MOL0     C35144   3.121  -1.078   3.649  0.4778  0.2488  0.1238
  261MOL0    Cl35145   3.132  -1.191   3.790  0.0031  0.1527  0.4183
  261MOL0     C35146   2.179  -1.050   3.402 -0.4879 -0.5747  0.1411
  261MOL0     C35147   2.084  -0.948   3.371  0.8870  0.4428  0.2056
  261MOL0     O35148   1.786  -0.871   3.381 -0.2596 -0.1641 -0.1750
  261MOL0     C35149   1.795  -0.608   3.151 -0.5589  0.0316  0.0747
  261MOL0     C35150   1.718  -0.509   3.095  0.2271  0.1767  0.7698
  261MOL0     N35151   1.874  -0.135   3.067  0.2022 -0.6483 -0.1336
  261MOL0     N35152   2.004  -0.140   3.058 -0.6564  0.3059  0.6769
  261MOL0     C35153   3.109   0.530   2.797 -0.5933 -0.0012 -0.8374
  261MOL0     C35154   3.198   0.621   2.734  1.1887  0.8923 -0.5909
  261MOL0     C35155   3.447   0.904   2.538 -0.1639  1.1743  0.0563
  261MOL0     C35156   3.581   0.900   2.506 -0.1217  0.3097  0.3730
  261MOL0     C35157   3.648   1.014   2.479 -0.4483  0.3368  0.4245
  261MOL0     C35158   3.588   1.141   2.474  0.2627  0.5544  0.5108
  261MOL0     O35159   3.662   1.254   2.438 -0.0667 -0.3911  0.8931
  261MOL0     C35160   3.609   1.380   2.472  0.4364  0.1363  0.2577
  261MOL0     C35161   3.594   1.404   2.624  1.0225 -0.3429  0.4389
  261MOL0     C35162   3.599   1.557   2.665  0.0552  0.3479 -0.5400
  261MOL0     C35163   3.737   1.615   2.671 -0.8515  0.5222  0.2757
  261MOL0     C35164   3.744   1.752   2.710  0.6843  0.2488  0.4659
  261MOL0     C35165   3.745   1.865   2.744  0.6525  0.1518  0.4219
  261MOL0     C35166   3.453   1.143   2.505  0.3630 -0.6542 -0.0035
  261MOL0     C35167   3.387   1.024   2.529  0.3382 -0.2691 -0.0013
  261MOL0     H35168   3.005   0.786   2.533  2.2500  0.7750  1.9138
  261MOL0     H35169   2.822   0.624   2.649  0.3370  0.8603 -1.0423
  261MOL0     H35170   2.871   0.253   2.725  1.5242 -1.1218 -0.0074
  261MOL0     H35171   3.003   0.276   2.832 -0.4663 -0.9213 -0.5486
  261MOL0     H35172   2.873   0.150   2.966 -1.2059  0.4903  1.8911
  261MOL0     H35173   2.841   0.309   3.028  1.8017 -0.1813 -0.5615
  261MOL0     H35174   2.638   0.322   2.876  1.5347  0.0159 -1.8784
  261MOL0     H35175   2.658   0.142   2.847 -1.1575 -0.0784  0.1941
  261MOL0     H35176   2.641   0.113   3.103 -1.3497 -0.0765  1.1733
  261MOL0     H35177   2.632   0.287   3.103  1.4509  0.9716 -1.7092
  261MOL0     H35178   2.406   0.201   3.145 -0.1212  0.6248 -1.0628
  261MOL0     H35179   2.412   0.293   3.003 -0.7149  1.2054  3.0995
  261MOL0     H35180   2.420   0.089   2.858  0.2703 -1.0515 -1.0084
  261MOL0     H35181   2.439  -0.020   2.994  0.8885  1.7772  1.6665
  261MOL0     H35182   2.218   0.052   3.094 -4.9268 -0.7278 -0.6326
  261MOL0     H35183   2.194   0.152   2.959  1.4887  1.2208  0.2017
  261MOL0     H35184   2.235  -0.148   2.928  1.0066  0.9900  0.8890
  261MOL0     H35185   2.187  -0.027   2.806  1.8576  1.3755  0.8142
  261MOL0     H35186   1.916   0.040   2.795  2.3583 -0.6085 -0.1731
  261MOL0     H35187   1.679   0.053   2.878 -1.0979  0.0488  0.3478
  261MOL0     H35188   1.656  -0.112   2.840  1.3514  2.7923 -2.3900
  261MOL0     H35189   1.478  -0.021   3.011 -1.5164 -2.3624  2.5767
  261MOL0     H35190   1.616   0.020   3.118 -0.0125 -0.2767  0.3451
  261MOL0     H35191   1.491  -0.182   3.195  0.5389  0.2071 -0.0558
  261MOL0     H35192   1.659  -0.201   3.176  0.4895 -0.8932 -1.0268
  261MOL0     H35193   1.627  -0.316   2.947  0.6353  2.5488  0.3542
  261MOL0     H35194   1.470  -0.243   2.934 -1.2282 -0.1945  1.6949
  261MOL0     H35195   1.411  -0.626   3.158  0.7078  0.2314 -0.4565
  261MOL0     H35196   1.587  -0.936   3.230 -1.0625 -1.0092 -0.6292
  261MOL0     H35197   1.506  -0.847   3.362 -0.2655 -1.6481  0.5433
  261MOL0     H35198   1.432  -0.858   3.195  1.9575 -0.5368 -1.0638
  261MOL0     H35199   2.043  -1.029   3.043 -1.3218 -2.6746  0.0065
  261MOL0     H35200   2.195  -1.175   3.091  0.1366  0.6384 -0.7057
  261MOL0     H35201   2.458  -1.111   3.294 -0.3217 -1.2470 -2.0199
  261MOL0     H35202   2.422  -1.152   3.463  1.0437  1.5438 -1.7396
  261MOL0     H35203   2.496  -1.387   3.424 -2.0811 -0.6462 -1.1645
  261MOL0     H35204   2.542  -1.319   3.259 -0.5021  2.9204  0.2970
  261MOL0     H35205   2.640  -1.213   3.522 -0.7171 -0.6156  0.7187
  261MOL0     H35206   2.695  -1.170   3.356 -2.7215  2.0944  0.2373
  261MOL0     H35207   2.764  -1.407   3.537  0.5923  0.5528  0.1780
  261MOL0     H35208   2.749  -1.459   3.379 -1.9481  1.3273 -1.8304
  261MOL0     H35209   2.937  -1.279   3.328 -0.6491  0.4009 -0.8560
  261MOL0     H35210   2.996  -1.400   3.436 -1.4959 -2.7793 -3.0298
  261MOL0     H35211   2.875  -1.133   3.531  1.8142  1.9635  0.5622
  261MOL0     H35212   2.927  -1.274   3.630 -0.7363  2.8659  2.0185
  261MOL0     H35213   3.096  -1.083   3.442  1.3799 -0.9665 -1.1011
  261MOL0     H35214   3.172  -1.225   3.519  0.3332 -0.9930  1.2030
  261MOL0     H35215   3.045  -1.002   3.668 -0.0984  0.0466 -1.2871
  261MOL0     H35216   3.222  -1.034   3.644  1.5085 -1.9446  0.5468
  261MOL0     H35217   2.219  -1.057   3.503  0.0509 -2.4299 -0.1685
  261MOL0     H35218   2.037  -0.877   3.438 -1.4976  0.4823 -1.3866
  261MOL0     H35219   1.902  -0.589   3.147 -0.0786 -2.0101  1.3434
  261MOL0     H35220   1.777  -0.423   3.064  1.1132  0.2224  2.4529
  261MOL0     H35221   3.148   0.468   2.878 -0.2650 -0.2145 -1.1522
  261MOL0     H35222   3.301   0.626   2.768  1.3599  2.1552 -1.2554
  261MOL0     H35223   3.631   0.806   2.484 -1.0738  0.5224 -3.2850
  261MOL0     H35224   3.753   1.019   2.452 -0.9087 -1.8741 -2.1722
  261MOL0     H35225   3.682   1.451   2.433  0.7747 -0.2578  0.1598
  261MOL0     H35226   3.516   1.398   2.417  1.3279  1.3395 -0.9198
  261MOL0     H35227   3.668   1.347   2.680 -0.0427 -1.0181  1.1957
  261MOL0     H35228   3.497   1.369   2.659  1.5583 -2.2583  0.1348
  261MOL0     H35229   3.546   1.578   2.758 -0.2638 -0.6962 -0.4772
  261MOL0     H35230   3.534   1.598   2.587  1.6262  0.9755 -1.5560
  261MOL0     H35231   3.784   1.605   2.573 -2.3710  2.7614 -0.7698
  261MOL0     H35232   3.798   1.565   2.746 -1.3699  1.3493  1.2889
  261MOL0     H35233   3.749   1.968   2.775 -2.0585  0.8323 -1.1134
  261MOL0     H35234   3.403   1.238   2.515 -0.9841 -1.3112 -0.1883
  261MOL0     H35235   3.284   1.044   2.556 -0.1792 -1.5216 -0.9611
  262MOL0     O35236  11.304   7.904   8.127 -0.1277  0.3159 -0.5952
  262MOL0     C35237  11.273   7.835   8.030 -0.3586  0.0395  0.3246
  262MOL0     O35238  11.149   7.817   7.987 -0.2237 -0.0512  0.8146
  262MOL0     C35239  11.043   7.873   8.049 -0.1185  0.3368  0.5433
  262MOL0     C35240  10.955   7.952   7.978 -0.0002  0.1979 -0.9992
  262MOL0     C35241  10.848   8.015   8.037  1.0216 -0.3013  0.3632
  262MOL0     C35242  10.833   8.001   8.182 -0.6272 -0.1158  0.3502
  262MOL0     O35243  10.737   8.072   8.251 -0.1767 -0.0340 -0.7879
  262MOL0     C35244  10.637   7.982   8.306 -0.9464 -1.3798 -0.4183
  262MOL0     C35245  10.517   7.973   8.222  1.0698 -0.4144  0.4799
  262MOL0     C35246  10.464   7.833   8.207 -0.3422  0.0216  0.4649
  262MOL0     C35247  10.326   7.833   8.143  0.3772  0.1147  0.1234
  262MOL0     C35248  10.253   7.697   8.143 -0.9928 -0.8137  0.8383
  262MOL0     C35249  10.206   7.651   8.005  0.5296 -0.1871  0.7087
  262MOL0     C35250  10.114   7.527   8.008 -0.1637 -0.4603 -0.2260
  262MOL0     C35251  10.182   7.394   8.021 -1.1196  0.3309 -0.3246
  262MOL0     N35252  10.083   7.279   8.033 -0.3413 -0.3384  0.3124
  262MOL0     C35253  10.035   7.234   8.150 -0.0043  0.5939  0.7563
  262MOL0     C35254   9.953   7.130   8.113 -0.1287  0.3163  0.3458
  262MOL0     C35255   9.859   7.058   8.213 -0.1505  0.2357  0.5440
  262MOL0     C35256   9.718   7.113   8.209 -0.8109 -0.6709 -0.0693
  262MOL0     C35257   9.727   7.252   8.280  0.1661 -0.1798 -0.6212
  262MOL0     C35258   9.600   7.337   8.233  0.9467  0.1491 -0.3229
  262MOL0     O35259   9.481   7.263   8.278  0.0464 -0.5042  0.5718
  262MOL0     C35260   9.368   7.333   8.257 -0.0151 -0.5385 -0.5843
  262MOL0     C35261   9.318   7.402   8.145  0.0205 -0.3949  0.5298
  262MOL0     C35262   9.202   7.484   8.149  0.0168 -0.1699  0.5664
  262MOL0     C35263   9.167   7.562   8.026 -0.1897 -0.0954 -0.5376
  262MOL0     C35264   9.120   7.491   8.268 -0.0957  0.4508 -0.0743
  262MOL0     C35265   8.990   7.557   8.280 -1.0155 -0.5449 -0.4643
  262MOL0     O35266   8.918   7.507   8.379  0.4760  0.4650  0.0180
  262MOL0     C35267   8.799   7.566   8.419 -0.3632 -0.3011  0.1556
  262MOL0     C35268   8.700   7.594   8.332  0.2476 -0.8689  0.3091
  262MOL0     C35269   8.571   7.628   8.384 -0.3900  0.6188  0.9624
  262MOL0     C35270   8.546   7.645   8.517  0.3186  0.6187  0.2908
  262MOL0     O35271   8.420   7.686   8.571  0.1746 -1.2555 -0.0259
  262MOL0     C35272   8.321   7.738   8.486 -0.1966 -0.9453  0.7527
  262MOL0     C35273   8.212   7.796   8.579  0.2580 -0.3162 -0.4195
  262MOL0     C35274   8.141   7.707   8.681 -0.4273  0.2800  0.2133
  262MOL0     C35275   8.016   7.761   8.750  1.4213  0.2189  0.2668
  262MOL0     C35276   8.036   7.879   8.831 -0.0655  0.4387  0.5654
  262MOL0     C35277   7.903   7.965   8.850 -0.5036 -0.1592  0.2783
  262MOL0     C35278   7.941   8.072   8.948 -0.6928  0.1305  0.0231
  262MOL0     C35279   7.823   8.147   9.011  0.2206 -0.3434  0.0890
  262MOL0    Cl35280   7.888   8.246   9.143  0.3094  0.1985 -0.2784
  262MOL0     C35281   8.648   7.618   8.606 -0.6857  0.4696 -0.3585
  262MOL0     C35282   8.771   7.573   8.558 -0.8413 -0.3245  0.3545
  262MOL0     O35283   8.977   7.667   8.231  0.1006 -0.5032  0.1085
  262MOL0     C35284   9.163   7.421   8.391 -0.3339 -0.3026 -0.1010
  262MOL0     C35285   9.280   7.336   8.368 -0.5853 -0.8299 -0.0173
  262MOL0     N35286   9.958   7.117   7.977  0.7207 -0.2761  0.1307
  262MOL0     N35287  10.031   7.212   7.922 -0.4450  0.3654 -0.5295
  262MOL0     C35288  10.918   7.919   8.257  0.5447 -0.2549  0.4993
  262MOL0     C35289  11.019   7.850   8.188 -0.1807 -0.3387 -0.1626
  262MOL0     C35290  11.376   7.759   7.957 -0.6314  0.3965  0.3937
  262MOL0     C35291  11.508   7.753   8.004 -0.9837  0.5427  0.0282
  262MOL0     C35292  11.605   7.706   7.915  0.1091 -0.0724 -0.0031
  262MOL0     C35293  11.586   7.641   7.797 -0.4824  0.2426  0.0566
  262MOL0     O35294  11.692   7.572   7.739  1.0633 -0.2630 -0.8641
  262MOL0     C35295  11.661   7.513   7.611 -0.4620  1.3574 -0.0074
  262MOL0     C35296  11.780   7.441   7.560  0.5508 -0.0420 -0.0373
  262MOL0     C35297  11.907   7.548   7.544  0.8491  0.2592  0.2406
  262MOL0     C35298  12.026   7.479   7.472 -1.1267  0.1578 -1.0324
  262MOL0     C35299  11.988   7.378   7.370  0.0753  0.6089 -1.1255
  262MOL0     C35300  11.941   7.286   7.300 -0.8979  0.0749  0.7218
  262MOL0     C35301  11.457   7.651   7.745 -0.1682 -0.2571  0.2493
  262MOL0     C35302  11.355   7.718   7.824  0.1963  0.2943 -0.3179
  262MOL0     H35303  10.968   7.970   7.872  0.9528 -0.1179 -0.9529
  262MOL0     H35304  10.775   8.075   7.983  1.6288 -0.1814 -0.3265
  262MOL0     H35305  10.671   7.883   8.340 -0.1927 -0.5233  1.4462
  262MOL0     H35306  10.614   8.020   8.406  2.7524 -3.4296  1.4453
  262MOL0     H35307  10.438   8.033   8.266  0.6184 -2.0543  2.0216
  262MOL0     H35308  10.521   8.011   8.120  0.7805 -1.0600  0.2189
  262MOL0     H35309  10.534   7.774   8.146 -0.6852 -0.3297  0.4055
  262MOL0     H35310  10.454   7.791   8.308  0.2659 -0.8793  0.1626
  262MOL0     H35311  10.251   7.895   8.195 -1.3654 -0.8769 -1.1098
  262MOL0     H35312  10.324   7.862   8.037  1.0996  2.5683  0.7057
  262MOL0     H35313  10.315   7.618   8.186 -1.1686 -1.0684  0.6307
  262MOL0     H35314  10.167   7.694   8.211 -1.0238  2.0340  1.0763
  262MOL0     H35315  10.144   7.731   7.964 -0.6662 -2.3208 -1.9640
  262MOL0     H35316  10.294   7.626   7.945  0.0964  2.4071 -1.2178
  262MOL0     H35317  10.042   7.539   8.089  1.2666 -4.3996  1.8776
  262MOL0     H35318  10.061   7.533   7.912  0.1107 -1.9930 -0.4951
  262MOL0     H35319  10.243   7.404   8.112  0.8286  3.0246 -1.7907
  262MOL0     H35320  10.251   7.367   7.941 -0.3294 -1.2388  0.8236
  262MOL0     H35321  10.050   7.268   8.252 -1.5068  2.4179  0.4387
  262MOL0     H35322   9.865   6.951   8.192  0.4937 -0.0531  2.0802
  262MOL0     H35323   9.894   7.074   8.316 -0.2037  2.8936  0.2359
  262MOL0     H35324   9.657   7.044   8.268  0.8957 -0.9466  1.4443
  262MOL0     H35325   9.671   7.123   8.111  1.8570  1.7371 -1.2344
  262MOL0     H35326   9.810   7.317   8.252 -1.6811  2.1692 -1.0337
  262MOL0     H35327   9.725   7.244   8.389 -0.9039 -1.8165 -0.7195
  262MOL0     H35328   9.596   7.353   8.125  3.5795  2.3630 -0.1964
  262MOL0     H35329   9.617   7.435   8.277 -1.1527  1.0663 -1.3747
  262MOL0     H35330   9.377   7.389   8.055 -0.2445  2.7575 -0.2275
  262MOL0     H35331   9.069   7.522   7.999 -0.3630  0.2525 -0.4214
  262MOL0     H35332   9.158   7.668   8.052 -2.6878 -0.7092  1.6132
  262MOL0     H35333   9.226   7.544   7.936  0.6036  0.8611 -0.2278
  262MOL0     H35334   8.699   7.578   8.225 -0.6349  2.0342 -0.2198
  262MOL0     H35335   8.490   7.664   8.321 -1.0645 -0.7893  0.9716
  262MOL0     H35336   8.345   7.832   8.437 -0.9742  0.8875  3.6378
  262MOL0     H35337   8.276   7.660   8.424 -3.5982  1.7866 -0.4988
  262MOL0     H35338   8.258   7.891   8.608  2.4971 -0.9199 -1.7931
  262MOL0     H35339   8.124   7.814   8.515 -1.5065  2.5337  2.5001
  262MOL0     H35340   8.222   7.694   8.754  0.0501  0.7114 -0.2214
  262MOL0     H35341   8.120   7.611   8.634 -1.1420  0.0658  0.9584
  262MOL0     H35342   7.944   7.775   8.669  0.6567 -2.9469  0.2335
  262MOL0     H35343   7.970   7.686   8.815 -0.7686  0.1968 -1.1920
  262MOL0     H35344   8.098   7.947   8.771  1.6222 -1.9278 -0.4944
  262MOL0     H35345   8.073   7.852   8.930 -0.1410  0.6345  0.6477
  262MOL0     H35346   7.862   8.004   8.756 -1.0904 -0.7286  0.2909
  262MOL0     H35347   7.814   7.912   8.885 -0.9348  0.2145 -0.2299
  262MOL0     H35348   8.014   8.138   8.900  2.3501 -2.5823  0.5573
  262MOL0     H35349   7.985   8.026   9.037 -0.0317  0.0145 -0.3564
  262MOL0     H35350   7.751   8.079   9.058  0.1070  0.9358  1.8888
  262MOL0     H35351   7.775   8.219   8.944 -0.1560  0.5925  1.3260
  262MOL0     H35352   8.634   7.634   8.713  0.5022 -0.8768  0.0316
  262MOL0     H35353   8.856   7.553   8.623 -0.4806  0.8300  0.2506
  262MOL0     H35354   9.112   7.412   8.487  1.0364 -0.6188  0.6284
  262MOL0     H35355   9.310   7.271   8.450 -0.1411 -4.1098 -2.5553
  262MOL0     H35356  10.904   7.923   8.364  1.4908 -1.3047  0.6732
  262MOL0     H35357  11.084   7.793   8.253 -0.1323  0.4416  0.4915
  262MOL0     H35358  11.549   7.783   8.101 -0.5017 -1.0414  0.3536
  262MOL0     H35359  11.709   7.715   7.946  0.7546  1.1294 -2.2762
  262MOL0     H35360  11.579   7.443   7.626  1.1678 -0.7879 -0.6377
  262MOL0     H35361  11.644   7.595   7.540 -0.8311  0.4736 -0.9589
  262MOL0     H35362  11.751   7.393   7.466  1.2841 -0.4961 -0.0358
  262MOL0     H35363  11.810   7.360   7.628 -1.0218 -1.9618 -1.5112
  262MOL0     H35364  11.927   7.584   7.645  1.3388 -0.1819  0.3043
  262MOL0     H35365  11.870   7.633   7.486  1.7118 -0.5553 -1.5585
  262MOL0     H35366  12.092   7.428   7.543 -1.2805 -1.3853 -1.9620
  262MOL0     H35367  12.091   7.552   7.424 -0.0748 -0.9434 -1.3251
  262MOL0     H35368  11.903   7.199   7.250 -2.1303  0.9535  0.0760
  262MOL0     H35369  11.420   7.613   7.650 -2.5207  3.3287 -0.4512
  262MOL0     H35370  11.257   7.729   7.778 -1.1412 -0.5177  2.1421
  263MOL0     O35371  10.309   9.844   8.157 -0.1358  0.3176 -0.1952
  263MOL0     C35372  10.343   9.964   8.148 -0.6695  1.0026  0.1730
  263MOL0     O35373  10.263  10.068   8.184 -0.9952  0.6779  0.3107
  263MOL0     C35374  10.136  10.062   8.234 -1.0319  0.3598 -0.2280
  263MOL0     C35375  10.072   9.952   8.295 -0.3288  0.5123 -0.1292
  263MOL0     C35376   9.946   9.974   8.362 -0.2069  0.4657 -0.2657
  263MOL0     C35377   9.882  10.100   8.355  0.3870 -0.3387 -0.4675
  263MOL0     O35378   9.777  10.116   8.441  0.3491 -0.6410 -0.4611
  263MOL0     C35379   9.680  10.014   8.428 -0.6258  0.5017  0.1847
  263MOL0     C35380   9.546  10.063   8.478  0.4834 -0.0311 -0.6249
  263MOL0     C35381   9.428   9.970   8.469  0.3985  0.0402  0.6050
  263MOL0     C35382   9.440   9.842   8.552  0.8657  0.7771 -0.5535
  263MOL0     C35383   9.331   9.743   8.514 -0.4212 -0.2394 -0.0127
  263MOL0     C35384   9.197   9.765   8.569 -1.3732  0.7893  0.0599
  263MOL0     C35385   9.108   9.638   8.549 -0.2980  0.5301 -0.4672
  263MOL0     C35386   8.983   9.636   8.641 -0.7715 -0.8560 -0.3605
  263MOL0     N35387   8.867   9.573   8.583 -0.2155  0.0517  0.4063
  263MOL0     C35388   8.771   9.632   8.505  0.1216 -0.0771  0.2150
  263MOL0     C35389   8.680   9.538   8.483  1.4932 -0.1340 -0.0486
  263MOL0     C35390   8.555   9.564   8.388 -0.3394  0.9438 -0.3889
  263MOL0     C35391   8.436   9.558   8.475  0.3178  0.1859  0.1879
  263MOL0     C35392   8.419   9.680   8.564 -0.3374 -0.2244 -0.2045
  263MOL0     C35393   8.295   9.682   8.658 -0.1501  0.2201 -0.1004
  263MOL0     O35394   8.187   9.712   8.573 -0.3453  0.2719  0.1955
  263MOL0     C35395   8.075   9.763   8.627  1.0990 -0.4875 -0.2386
  263MOL0     C35396   8.044   9.800   8.755  0.2099  0.0351 -0.1645
  263MOL0     C35397   7.924   9.851   8.795  0.6973  0.2133  0.3169
  263MOL0     C35398   7.907   9.886   8.935 -0.9136 -0.1468  0.6445
  263MOL0     C35399   7.816   9.848   8.704  0.7772  0.3521 -0.2691
  263MOL0     C35400   7.673   9.897   8.738 -0.4875 -0.4230  0.0263
  263MOL0     O35401   7.655   9.988   8.836 -0.2543 -0.0554  0.2423
  263MOL0     C35402   7.540  10.061   8.855  0.2952  0.7603 -0.2865
  263MOL0     C35403   7.434  10.081   8.771  0.9928  0.1597  0.1701
  263MOL0     C35404   7.333  10.174   8.817 -0.5316 -0.2154  0.3035
  263MOL0     C35405   7.327  10.233   8.939  0.7601  0.1502 -0.2649
  263MOL0     O35406   7.223  10.301   8.991  0.1571 -0.6358 -0.6477
  263MOL0     C35407   7.131  10.361   8.896 -0.2984  0.9158 -0.9966
  263MOL0     C35408   7.052  10.473   8.963 -0.3880  0.4123  0.8525
  263MOL0     C35409   6.964  10.419   9.069  0.4166  1.0582  0.0952
  263MOL0     C35410   7.031  10.362   9.196 -0.4888 -1.1540 -0.4489
  263MOL0     C35411   6.930  10.377   9.312  0.0827 -0.0540  0.0892
  263MOL0     C35412   6.899  10.524   9.336  0.2881 -1.0485  0.4107
  263MOL0     C35413   6.813  10.549   9.463 -0.2602 -0.4710  0.3777
  263MOL0     C35414   6.685  10.457   9.474 -0.9883 -0.9965 -0.3738
  263MOL0    Cl35415   6.744  10.310   9.548  0.2408  0.3460  0.2062
  263MOL0     C35416   7.432  10.209   9.025  0.8745  0.2960 -0.6087
  263MOL0     C35417   7.540  10.136   8.982  0.2245  0.6024 -0.8049
  263MOL0     O35418   7.587   9.844   8.668  0.5130 -0.1951  0.4473
  263MOL0     C35419   7.838   9.796   8.577  0.3965 -0.0729 -0.5119
  263MOL0     C35420   7.969   9.765   8.542  0.5764  0.8276 -0.0168
  263MOL0     N35421   8.720   9.418   8.543 -0.2041 -0.3282 -0.6745
  263MOL0     N35422   8.836   9.439   8.604  0.0774 -1.0728  0.1771
  263MOL0     C35423   9.940  10.205   8.287 -0.1094 -0.6578 -1.0968
  263MOL0     C35424  10.069  10.184   8.235 -0.5937  0.0442 -0.3397
  263MOL0     C35425  10.477  10.004   8.111 -0.5790  0.1301 -0.6546
  263MOL0     C35426  10.506  10.142   8.079  0.1502  0.3651 -0.4020
  263MOL0     C35427  10.630  10.182   8.044 -0.4950 -0.3333 -0.3238
  263MOL0     C35428  10.729  10.089   8.023  0.0420 -0.8483 -0.1930
  263MOL0     O35429  10.849  10.134   7.969  0.1552 -0.3157  0.1393
  263MOL0     C35430  10.929  10.032   7.908  0.7908  0.0960 -0.1449
  263MOL0     C35431  11.063  10.084   7.853  0.1597  0.1317 -0.6756
  263MOL0     C35432  11.161  10.129   7.964 -0.1172  0.5171 -0.0734
  263MOL0     C35433  11.294  10.189   7.915  0.9538  0.0108 -1.0496
  263MOL0     C35434  11.371  10.234   8.032 -0.1238 -0.3761  0.4060
  263MOL0     C35435  11.444  10.265   8.131  0.0733  0.5797 -0.0043
  263MOL0     C35436  10.699   9.956   8.040 -0.8412 -0.6455  0.0165
  263MOL0     C35437  10.578   9.908   8.087  1.1389 -0.0752  0.1903
  263MOL0     H35438  10.111   9.853   8.319 -2.8115 -0.2093  1.2954
  263MOL0     H35439   9.894   9.891   8.408  2.3737 -1.2697 -0.2817
  263MOL0     H35440   9.675   9.979   8.325 -0.3543 -0.2604  0.4211
  263MOL0     H35441   9.713   9.927   8.487 -0.4401 -1.6072 -2.8071
  263MOL0     H35442   9.557  10.098   8.581  3.0534 -0.1837 -0.7881
  263MOL0     H35443   9.516  10.153   8.424  1.5375  0.5926 -0.2122
  263MOL0     H35444   9.336  10.024   8.493  0.3500  1.4475 -2.2608
  263MOL0     H35445   9.423   9.943   8.363  0.9075 -3.6442  1.3799
  263MOL0     H35446   9.537   9.792   8.546  2.0086  2.6534  1.0273
  263MOL0     H35447   9.435   9.882   8.654 -1.2411 -1.3153  0.2844
  263MOL0     H35448   9.325   9.728   8.405  2.2309 -4.0558  0.1862
  263MOL0     H35449   9.363   9.646   8.552  0.0496  0.0337  0.2857
  263MOL0     H35450   9.213   9.787   8.675 -1.4354 -5.0970  1.6516
  263MOL0     H35451   9.153   9.854   8.523  2.1385  3.0590  0.6296
  263MOL0     H35452   9.081   9.629   8.443 -0.5633  1.0048 -0.4434
  263MOL0     H35453   9.166   9.550   8.577 -0.2830  0.0040 -2.0693
  263MOL0     H35454   8.950   9.734   8.677 -2.1892 -1.4154 -0.0830
  263MOL0     H35455   9.016   9.581   8.729  1.9048 -0.5115 -1.0510
  263MOL0     H35456   8.758   9.731   8.463 -0.7814 -0.5116 -0.5606
  263MOL0     H35457   8.564   9.660   8.336  1.1193  1.1536  0.2065
  263MOL0     H35458   8.561   9.481   8.317  1.6618 -0.7628  1.6150
  263MOL0     H35459   8.435   9.469   8.539 -2.8514  2.4047  3.7071
  263MOL0     H35460   8.355   9.547   8.402  1.0235  1.6508 -0.8773
  263MOL0     H35461   8.428   9.769   8.500  2.0355 -1.8951 -2.3511
  263MOL0     H35462   8.501   9.684   8.636  0.6379  3.3300 -1.2744
  263MOL0     H35463   8.309   9.758   8.735 -0.8910 -1.0830  1.3551
  263MOL0     H35464   8.300   9.586   8.709 -0.2319  0.8181  1.0546
  263MOL0     H35465   8.118   9.796   8.834 -0.5650  0.4727  0.5985
  263MOL0     H35466   8.000   9.884   8.991  0.4611  0.3086 -1.4993
  263MOL0     H35467   7.849   9.977   8.953 -2.7353 -0.8055 -1.3194
  263MOL0     H35468   7.847   9.804   8.975 -2.0623 -0.6181 -1.8139
  263MOL0     H35469   7.445  10.035   8.674 -1.9377 -3.2782  1.2398
  263MOL0     H35470   7.252  10.192   8.747 -1.0696  0.7665  1.1461
  263MOL0     H35471   7.185  10.402   8.810 -1.3190  0.1135 -2.0488
  263MOL0     H35472   7.059  10.284   8.866 -1.1091  0.5306  1.6604
  263MOL0     H35473   7.119  10.547   9.007 -0.1839 -0.9969  3.0968
  263MOL0     H35474   6.992  10.524   8.887 -1.3773 -0.6044  0.9205
  263MOL0     H35475   6.914  10.334   9.022 -1.2802  1.1003  1.7226
  263MOL0     H35476   6.891  10.498   9.086 -0.1731  0.8169 -1.2050
  263MOL0     H35477   7.075  10.262   9.191 -0.6884 -1.2891  0.4051
  263MOL0     H35478   7.107  10.438   9.215 -0.1115 -0.5768 -3.5984
  263MOL0     H35479   6.975  10.344   9.406 -2.0106 -3.3033  0.1110
  263MOL0     H35480   6.846  10.311   9.288  0.7045 -0.6084 -0.5935
  263MOL0     H35481   6.990  10.584   9.329 -0.3567 -0.0272  0.4266
  263MOL0     H35482   6.837  10.567   9.257  2.0047 -1.3692 -1.1845
  263MOL0     H35483   6.787  10.655   9.460  1.1135 -0.1176 -2.3030
  263MOL0     H35484   6.880  10.531   9.548 -2.7652 -0.1130  2.5551
  263MOL0     H35485   6.636  10.444   9.377 -1.6049  0.2222 -0.2485
  263MOL0     H35486   6.618  10.517   9.536  0.7588  2.1523 -1.3140
  263MOL0     H35487   7.445  10.277   9.109  1.0368  1.3951 -1.5051
  263MOL0     H35488   7.631  10.125   9.040  0.0116  1.7973 -0.2139
  263MOL0     H35489   7.763   9.783   8.499  1.5056 -0.7713 -1.4801
  263MOL0     H35490   7.990   9.726   8.444 -0.3288 -2.2524  0.8932
  263MOL0     H35491   9.897  10.305   8.291  0.7878 -0.2834  1.0476
  263MOL0     H35492  10.113  10.274   8.192  1.5183  0.2180  2.0219
  263MOL0     H35493  10.417  10.204   8.079  0.0000  0.1706 -1.5981
  263MOL0     H35494  10.661  10.281   8.013  0.7189 -1.2650 -2.3120
  263MOL0     H35495  10.957   9.963   7.988  0.0786 -0.3240 -0.2451
  263MOL0     H35496  10.886   9.977   7.823  1.0548  2.1534 -1.6850
  263MOL0     H35497  11.040  10.165   7.783 -0.2645  1.0781  0.5393
  263MOL0     H35498  11.109  10.003   7.795  0.1427 -0.4747  0.1421
  263MOL0     H35499  11.179  10.050   8.038 -0.5406  0.9585  0.5163
  263MOL0     H35500  11.111  10.208   8.021 -1.9085  2.0859 -3.5076
  263MOL0     H35501  11.268  10.273   7.851  1.1298  0.9426  0.0690
  263MOL0     H35502  11.346  10.112   7.857  0.6227 -0.4450 -0.7526
  263MOL0     H35503  11.520  10.284   8.204 -1.0370  0.0895  1.3101
  263MOL0     H35504  10.779   9.885   8.021  2.9918  2.9305  1.2987
  263MOL0     H35505  10.561   9.801   8.102  1.1590 -0.2774 -1.1327
  264MOL0     O35506   0.008   0.265  10.773  0.1051  0.3677  0.3617
  264MOL0     C35507   0.040   0.186  10.685  0.0678 -0.0268  0.3370
  264MOL0     O35508   0.159   0.194  10.624 -0.5402  0.0122 -0.3320
  264MOL0     C35509   0.249   0.295  10.656  0.1783 -0.1101  0.5317
  264MOL0     C35510   0.379   0.252  10.685  0.0368  0.0799 -0.4400
  264MOL0     C35511   0.479   0.346  10.715 -1.3505  0.5403  0.0839
  264MOL0     C35512   0.464   0.480  10.689 -0.1065 -0.1180 -0.2573
  264MOL0     O35513   0.554   0.576  10.721 -0.5051  0.4958  0.1812
  264MOL0     C35514   0.619   0.557  10.846  0.7047  0.2452 -0.1736
  264MOL0     C35515   0.774   0.556  10.832  0.4293 -0.1498  0.2629
  264MOL0     C35516   0.821   0.413  10.787  0.3599  0.4355  0.0518
  264MOL0     C35517   0.975   0.412  10.764 -0.1344  0.4772 -0.0483
  264MOL0     C35518   1.018   0.269  10.704  0.0209 -0.5172  0.0135
  264MOL0     C35519   0.998   0.152  10.814  0.1135  0.5469 -0.3597
  264MOL0     C35520   0.896   0.050  10.784  0.1311  0.5592  0.5267
  264MOL0     C35521   0.853  -0.020  10.918 -0.0634  0.8340  0.5751
  264MOL0     N35522   0.743  -0.116  10.899  0.1079 -0.1546 -0.3864
  264MOL0     C35523   0.622  -0.080  10.842  0.5517 -0.4024  0.2984
  264MOL0     C35524   0.563  -0.199  10.816  0.4019 -0.2244 -0.5446
  264MOL0     C35525   0.426  -0.207  10.751  0.1787 -0.5349  0.1532
  264MOL0     C35526   0.332  -0.256  10.865  0.0236 -0.6510  0.2758
  264MOL0     C35527   0.307  -0.142  10.968  0.0078 -0.5134 -0.2959
  264MOL0     C35528   0.199  -0.042  10.936  0.5788  0.0827 -0.0886
  264MOL0     O35529   0.065  -0.080  10.964 -0.4967 -0.0929  0.4489
  264MOL0     C35530   0.017  -0.043  11.089  0.2374  0.0771  0.5741
  264MOL0     C35531   0.096  -0.020  11.203  0.4475 -0.7748  0.4303
  264MOL0     C35532   0.045  -0.004  11.333 -0.1673  0.1322  0.0019
  264MOL0     C35533   0.143   0.013  11.455 -0.0816 -0.0322 -0.3476
  264MOL0     C35534  -0.098  -0.005  11.350  0.3847 -0.6995  0.2614
  264MOL0     C35535  -0.167  -0.004  11.479 -0.7659 -0.1214  0.0290
  264MOL0     O35536  -0.290   0.051  11.481  0.4976  0.2697  0.1935
  264MOL0     C35537  -0.341   0.100  11.602  1.5132  0.2950 -0.0253
  264MOL0     C35538  -0.267   0.194  11.675 -0.0260  0.4713  0.7531
  264MOL0     C35539  -0.322   0.247  11.797  0.4928 -0.1933 -0.0145
  264MOL0     C35540  -0.445   0.212  11.848 -0.4841 -0.6728  0.3194
  264MOL0     O35541  -0.492   0.246  11.970  0.1829  0.5076 -0.3579
  264MOL0     C35542  -0.628   0.225  12.017 -0.3094 -0.1247  0.0053
  264MOL0     C35543  -0.658   0.263  12.169  0.2707 -0.3639 -0.0610
  264MOL0     C35544  -0.779   0.183  12.212  0.3906 -0.3109  0.5635
  264MOL0     C35545  -0.777   0.149  12.363 -0.0030  1.4999 -0.2503
  264MOL0     C35546  -0.914   0.099  12.418 -0.1450 -0.3329  0.1351
  264MOL0     C35547  -0.912   0.058  12.556 -0.5543 -0.1110 -0.1599
  264MOL0     C35548  -1.043  -0.000  12.614 -0.9023  0.1304  0.0151
  264MOL0     C35549  -1.142   0.101  12.664  0.3016  0.1035  0.0524
  264MOL0    Cl35550  -1.091   0.196  12.811 -0.9058  0.2339 -0.2228
  264MOL0     C35551  -0.521   0.128  11.762 -0.3407  0.5033  0.3320
  264MOL0     C35552  -0.473   0.073  11.641  0.5795  0.1395  0.3406
  264MOL0     O35553  -0.112  -0.052  11.574 -0.1610  0.2438  0.3830
  264MOL0     C35554  -0.182  -0.018  11.227 -0.1143  0.0220 -0.4593
  264MOL0     C35555  -0.123  -0.037  11.103  0.7622  0.1942  1.0276
  264MOL0     N35556   0.648  -0.304  10.846  0.0287  1.3726 -0.1669
  264MOL0     N35557   0.755  -0.256  10.892 -0.5788  0.1888 -1.3112
  264MOL0     C35558   0.335   0.523  10.654 -0.4669 -0.2905 -0.2823
  264MOL0     C35559   0.234   0.433  10.630 -0.5696  1.2460 -0.4305
  264MOL0     C35560  -0.058   0.084  10.644 -0.3369  0.2390  0.3226
  264MOL0     C35561  -0.043   0.012  10.521 -0.6489  0.8946 -0.7271
  264MOL0     C35562  -0.147  -0.074  10.481  0.0491 -0.3054  0.5311
  264MOL0     C35563  -0.246  -0.119  10.568 -0.3221 -0.1765  0.1657
  264MOL0     O35564  -0.317  -0.234  10.541 -0.4198  0.0419  0.6588
  264MOL0     C35565  -0.448  -0.236  10.601  0.1376  0.2649  0.9602
  264MOL0     C35566  -0.548  -0.128  10.566  0.0526  0.7058 -0.7582
  264MOL0     C35567  -0.669  -0.131  10.663 -0.2530 -0.2384  0.5179
  264MOL0     C35568  -0.780  -0.034  10.604 -0.8334  0.0242 -0.0056
  264MOL0     C35569  -0.894  -0.092  10.547  0.2162 -0.5916 -0.0181
  264MOL0     C35570  -0.981  -0.149  10.485  0.5847 -0.4112 -0.2037
  264MOL0     C35571  -0.261  -0.055  10.697  0.0807 -1.0639 -0.0375
  264MOL0     C35572  -0.167   0.047  10.727  0.4478  0.4062  0.0048
  264MOL0     H35573   0.401   0.148  10.706  1.7630  0.9675  2.8286
  264MOL0     H35574   0.576   0.310  10.751 -1.2171  1.0874  0.2826
  264MOL0     H35575   0.584   0.652  10.888  0.0520  0.8374 -1.9578
  264MOL0     H35576   0.589   0.474  10.909  1.7924 -1.0703 -1.3100
  264MOL0     H35577   0.798   0.638  10.764  2.4189  1.6269  2.9127
  264MOL0     H35578   0.817   0.595  10.925 -3.1463 -0.3628  2.1940
  264MOL0     H35579   0.788   0.351  10.871  1.2649  3.1677  2.6351
  264MOL0     H35580   0.779   0.371  10.696 -0.6013 -2.2857  1.6341
  264MOL0     H35581   0.999   0.490  10.690 -0.8229  2.1633  1.4338
  264MOL0     H35582   1.031   0.436  10.854 -0.7855  3.3420 -0.3173
  264MOL0     H35583   0.950   0.254  10.620  1.2879 -2.5307 -0.7036
  264MOL0     H35584   1.118   0.262  10.662 -0.9221  1.0539 -2.7905
  264MOL0     H35585   1.093   0.103  10.839  0.0813 -0.7486 -2.5456
  264MOL0     H35586   0.959   0.199  10.905 -0.6499 -1.3136  0.3221
  264MOL0     H35587   0.809   0.092  10.732  0.7617 -0.0772 -1.1251
  264MOL0     H35588   0.932  -0.032  10.721  1.0304  1.5535 -0.2765
  264MOL0     H35589   0.812   0.048  10.993 -2.2740 -1.5015  1.6747
  264MOL0     H35590   0.937  -0.071  10.965  1.9704  2.9222 -0.5870
  264MOL0     H35591   0.577   0.017  10.823  0.3741 -0.8360 -1.7774
  264MOL0     H35592   0.402  -0.107  10.714  4.3387  0.3810 -0.5797
  264MOL0     H35593   0.435  -0.278  10.669  1.2122  0.0526 -0.2590
  264MOL0     H35594   0.384  -0.336  10.919 -0.1987 -0.7093  0.4037
  264MOL0     H35595   0.239  -0.293  10.822  0.4941 -2.5638  0.7893
  264MOL0     H35596   0.403  -0.094  10.989  0.3333 -0.3888 -1.9217
  264MOL0     H35597   0.275  -0.187  11.062  0.5660  1.5581  0.9334
  264MOL0     H35598   0.195  -0.033  10.827  1.0845 -0.0535 -0.1179
  264MOL0     H35599   0.216   0.055  10.984  1.4859 -0.4969  0.8003
  264MOL0     H35600   0.202  -0.023  11.179 -0.0782  0.6659 -2.5113
  264MOL0     H35601   0.245   0.011  11.416 -0.3160 -0.1183 -0.9681
  264MOL0     H35602   0.130   0.107  11.510  0.5834  0.9285 -1.7730
  264MOL0     H35603   0.134  -0.065  11.532  3.1157  3.3375  3.9689
  264MOL0     H35604  -0.163   0.210  11.646  1.5299 -5.4571  1.7734
  264MOL0     H35605  -0.252   0.312  11.849 -0.0279  0.3309  0.0425
  264MOL0     H35606  -0.699   0.270  11.947  1.1706  0.3017 -1.2582
  264MOL0     H35607  -0.647   0.117  12.012  1.6675 -0.5641  0.8655
  264MOL0     H35608  -0.566   0.238  12.222  0.6490  0.1887 -0.4488
  264MOL0     H35609  -0.671   0.369  12.197  0.4077 -0.3862  0.0925
  264MOL0     H35610  -0.795   0.094  12.151 -1.1455  0.8981 -0.8989
  264MOL0     H35611  -0.868   0.245  12.195  1.0783  0.2762 -1.0806
  264MOL0     H35612  -0.701   0.070  12.374 -2.4185 -0.9150  0.2467
  264MOL0     H35613  -0.743   0.233  12.424  1.1827  0.5627  0.4310
  264MOL0     H35614  -0.969   0.025  12.359 -0.2634  1.1604 -1.7037
  264MOL0     H35615  -0.972   0.191  12.412  0.7267  0.1693 -0.8144
  264MOL0     H35616  -0.833  -0.016  12.571 -0.3916  0.3525  1.4840
  264MOL0     H35617  -0.874   0.143  12.614  0.7926 -1.3440  0.8731
  264MOL0     H35618  -1.022  -0.068  12.697 -0.2075 -0.6863 -0.8063
  264MOL0     H35619  -1.099  -0.055  12.538 -3.6411  2.5890  0.0840
  264MOL0     H35620  -1.232   0.052  12.703  0.5489 -0.6703 -0.3358
  264MOL0     H35621  -1.181   0.168  12.587 -0.7118  0.3079  0.7322
  264MOL0     H35622  -0.620   0.090  11.786 -0.3468  1.5760  2.1902
  264MOL0     H35623  -0.526  -0.010  11.595  0.9730  0.1763 -0.2012
  264MOL0     H35624  -0.290  -0.011  11.240 -0.2452 -0.8825 -1.0311
  264MOL0     H35625  -0.189  -0.053  11.018  0.1978 -2.6415  1.8943
  264MOL0     H35626   0.311   0.629  10.650 -2.5466 -0.7214 -0.7331
  264MOL0     H35627   0.134   0.468  10.605 -1.3174 -0.8786 -0.5791
  264MOL0     H35628   0.039   0.023  10.450  2.7930 -3.3779  2.0971
  264MOL0     H35629  -0.135  -0.131  10.390 -1.1500 -0.2705  0.3290
  264MOL0     H35630  -0.496  -0.331  10.573  0.9677 -0.5031  2.0885
  264MOL0     H35631  -0.436  -0.246  10.709  2.9309 -0.6785  0.6418
  264MOL0     H35632  -0.572  -0.137  10.460 -0.7577  1.0781 -0.6180
  264MOL0     H35633  -0.492  -0.036  10.583 -1.5717  1.6508 -0.2498
  264MOL0     H35634  -0.644  -0.110  10.767  0.4700 -1.8925  0.7113
  264MOL0     H35635  -0.713  -0.232  10.662  2.1180 -1.3464 -0.0488
  264MOL0     H35636  -0.730   0.005  10.514 -2.2681 -2.0285 -1.7977
  264MOL0     H35637  -0.806   0.046  10.674 -1.0778 -1.9438  2.2589
  264MOL0     H35638  -1.060  -0.205  10.440 -0.2211  0.3570  0.2136
  264MOL0     H35639  -0.338  -0.084  10.767 -1.1448  3.4699  0.8031
  264MOL0     H35640  -0.181   0.100  10.821  0.2421 -2.8341  1.9405
  265MOL0     O35641   1.785   4.530   0.268  0.2974 -0.1101 -0.0723
  265MOL0     C35642   1.767   4.587   0.378  0.5206  0.1888  0.7201
  265MOL0     O35643   1.644   4.600   0.442  0.1848 -0.5408 -0.1540
  265MOL0     C35644   1.532   4.526   0.404 -0.0542 -0.7356 -0.2599
  265MOL0     C35645   1.407   4.583   0.421 -0.7723  0.2918 -0.6469
  265MOL0     C35646   1.293   4.509   0.414  0.1833 -0.2619  0.6901
  265MOL0     C35647   1.290   4.374   0.377 -1.0878 -1.0578 -0.2986
  265MOL0     O35648   1.167   4.321   0.377 -0.6561  0.7355 -0.8005
  265MOL0     C35649   1.108   4.261   0.265  0.2887  1.1288  0.1961
  265MOL0     C35650   0.966   4.306   0.243 -0.7682  0.1125  0.2753
  265MOL0     C35651   0.915   4.230   0.121 -0.2480 -0.2970  0.1491
  265MOL0     C35652   0.783   4.292   0.065 -0.6917 -0.4759 -0.7240
  265MOL0     C35653   0.730   4.218  -0.054  0.8101  1.0347 -0.0531
  265MOL0     C35654   0.811   4.238  -0.181 -0.5805  0.4349 -0.0086
  265MOL0     C35655   0.733   4.189  -0.305  0.2427  0.3477 -0.6081
  265MOL0     C35656   0.729   4.029  -0.316 -0.3561 -0.0380 -0.1405
  265MOL0     N35657   0.715   3.984  -0.460 -0.2690  0.8358 -0.0386
  265MOL0     C35658   0.596   3.968  -0.521  0.4193  1.3200  0.5875
  265MOL0     C35659   0.624   3.932  -0.650  0.8405 -0.3569  0.2125
  265MOL0     C35660   0.537   3.899  -0.769  0.5322  0.2295  0.1339
  265MOL0     C35661   0.512   4.018  -0.863  0.3299 -0.6007 -0.6504
  265MOL0     C35662   0.411   3.983  -0.978  0.0339 -0.6529  0.0516
  265MOL0     C35663   0.403   4.101  -1.080 -0.3132 -0.1554 -0.4765
  265MOL0     O35664   0.315   4.090  -1.193  0.1274 -0.2718  0.0071
  265MOL0     C35665   0.178   4.102  -1.176  0.5341 -0.1506 -0.1184
  265MOL0     C35666   0.094   4.051  -1.272 -0.1467 -0.2219 -0.0058
  265MOL0     C35667  -0.045   4.056  -1.261  0.3786 -0.3148 -0.3523
  265MOL0     C35668  -0.136   3.981  -1.351 -0.1686 -0.6774 -0.3153
  265MOL0     C35669  -0.105   4.130  -1.151 -0.1219 -1.2036 -1.1684
  265MOL0     C35670  -0.246   4.158  -1.133  0.8512 -1.6691 -0.0430
  265MOL0     O35671  -0.314   4.088  -1.035  0.9824  0.5621  0.4740
  265MOL0     C35672  -0.438   4.132  -1.001 -0.4453 -0.7299  0.4754
  265MOL0     C35673  -0.517   4.032  -0.964 -0.4203  0.7876 -1.1863
  265MOL0     C35674  -0.655   4.058  -0.936 -0.1058 -0.3014 -0.4889
  265MOL0     C35675  -0.704   4.187  -0.945 -0.1401  0.2222  0.0118
  265MOL0     O35676  -0.840   4.196  -0.914 -1.1286 -1.1506 -0.3548
  265MOL0     C35677  -0.875   4.321  -0.854 -0.0046 -0.3425  0.0681
  265MOL0     C35678  -1.033   4.321  -0.846 -0.2319 -0.4102  0.5694
  265MOL0     C35679  -1.093   4.446  -0.781  0.1392  0.5836  0.0748
  265MOL0     C35680  -1.247   4.453  -0.795  0.1175  0.0356  0.8003
  265MOL0     C35681  -1.283   4.576  -0.715 -0.0612  0.3783 -1.2683
  265MOL0     C35682  -1.423   4.621  -0.740  0.5541  0.2742 -0.0170
  265MOL0     C35683  -1.451   4.772  -0.699  0.4629  0.2546  0.4208
  265MOL0     C35684  -1.598   4.796  -0.677  0.4642  0.6289 -0.6410
  265MOL0    Cl35685  -1.704   4.801  -0.815 -0.7178 -0.9754 -0.3307
  265MOL0     C35686  -0.616   4.292  -0.966 -0.6420  0.1475  0.0875
  265MOL0     C35687  -0.482   4.264  -1.002 -0.2052  0.0029 -0.1952
  265MOL0     O35688  -0.292   4.236  -1.222  0.2840  0.2846  0.8056
  265MOL0     C35689  -0.024   4.174  -1.052  0.9173  0.0309  0.0248
  265MOL0     C35690   0.115   4.162  -1.060 -0.2020  0.1984 -0.1132
  265MOL0     N35691   0.763   3.957  -0.667 -0.0587  0.2987  0.0774
  265MOL0     N35692   0.818   3.970  -0.554 -0.5259 -0.8151  0.6656
  265MOL0     C35693   1.415   4.315   0.358 -0.0625  0.5020  0.2990
  265MOL0     C35694   1.539   4.392   0.363 -0.3063 -0.4972  0.0582
  265MOL0     C35695   1.891   4.641   0.451  0.0792  0.6361  0.5433
  265MOL0     C35696   1.879   4.738   0.547  0.0953 -0.4031  0.1701
  265MOL0     C35697   1.996   4.807   0.603 -0.3559  1.3439 -0.1248
  265MOL0     C35698   2.123   4.768   0.560 -0.0940  0.3033 -0.0667
  265MOL0     O35699   2.242   4.830   0.596  0.0596  0.8832  0.5250
  265MOL0     C35700   2.244   4.940   0.688 -0.5063  0.1366  0.1256
  265MOL0     C35701   2.378   4.934   0.768 -0.4165 -0.5989  0.4661
  265MOL0     C35702   2.498   4.933   0.672 -0.4930 -0.0870 -1.6388
  265MOL0     C35703   2.633   4.944   0.740 -1.0059  0.5921  0.3570
  265MOL0     C35704   2.736   4.942   0.638 -0.5465  0.4018 -0.6500
  265MOL0     C35705   2.816   4.930   0.549 -0.4365 -0.5900 -0.6122
  265MOL0     C35706   2.133   4.671   0.459 -0.4617  0.6562 -0.7216
  265MOL0     C35707   2.017   4.619   0.402 -0.8802  0.1405 -0.0742
  265MOL0     H35708   1.405   4.684   0.461  3.8482  0.3352  0.0417
  265MOL0     H35709   1.207   4.564   0.450 -0.1419  0.8128 -1.5607
  265MOL0     H35710   1.152   4.303   0.174 -2.5511  1.7708 -0.9941
  265MOL0     H35711   1.113   4.152   0.266  0.4827  1.1363  0.1219
  265MOL0     H35712   0.905   4.275   0.328 -1.9000  2.2957  0.3341
  265MOL0     H35713   0.950   4.412   0.220  0.3723  0.0991 -0.7214
  265MOL0     H35714   0.991   4.236   0.043  3.2006 -4.0358  2.7806
  265MOL0     H35715   0.898   4.123   0.138  1.2042 -0.4742  0.6295
  265MOL0     H35716   0.708   4.295   0.144 -1.6937  6.9619 -1.2047
  265MOL0     H35717   0.798   4.395   0.031  0.0157 -1.8171 -5.1278
  265MOL0     H35718   0.723   4.113  -0.022 -2.7328  1.0858 -0.2677
  265MOL0     H35719   0.627   4.247  -0.075 -0.4705 -1.6979  1.8553
  265MOL0     H35720   0.830   4.345  -0.191 -0.2010  0.6962  2.6307
  265MOL0     H35721   0.913   4.200  -0.166 -1.5291 -1.7374  1.3086
  265MOL0     H35722   0.633   4.232  -0.303  0.1606  0.1296  0.4758
  265MOL0     H35723   0.779   4.226  -0.397 -1.3694 -1.6246 -2.3016
  265MOL0     H35724   0.647   3.988  -0.257  0.8707 -1.5876  0.5532
  265MOL0     H35725   0.826   3.993  -0.280 -0.8338 -1.2206 -0.0034
  265MOL0     H35726   0.504   3.984  -0.467  0.3895  0.9505  0.6457
  265MOL0     H35727   0.588   3.821  -0.827 -2.9108 -1.4028 -1.0038
  265MOL0     H35728   0.449   3.851  -0.724  1.1058 -0.8342  0.1674
  265MOL0     H35729   0.605   4.060  -0.904  0.0509  0.3053 -0.3792
  265MOL0     H35730   0.475   4.109  -0.816  4.3539  2.3770 -2.5252
  265MOL0     H35731   0.314   3.972  -0.927 -0.1076 -1.0755 -0.3095
  265MOL0     H35732   0.427   3.887  -1.027 -2.4818 -0.5097 -1.2200
  265MOL0     H35733   0.506   4.112  -1.116 -0.2310  0.7918 -0.0051
  265MOL0     H35734   0.379   4.190  -1.020 -0.2977 -1.2255  1.1522
  265MOL0     H35735   0.133   4.009  -1.364  1.0266 -0.5103  0.5992
  265MOL0     H35736  -0.156   4.039  -1.442  1.8480 -1.3202 -1.2143
  265MOL0     H35737  -0.106   3.881  -1.384 -3.2526 -2.0480  0.6784
  265MOL0     H35738  -0.230   3.960  -1.299  0.5440 -1.5161  0.6648
  265MOL0     H35739  -0.481   3.931  -0.952 -1.5288  0.6288  1.8804
  265MOL0     H35740  -0.713   3.971  -0.906  0.0276  0.5766  2.6828
  265MOL0     H35741  -0.833   4.331  -0.753  2.4052  1.9234 -1.0279
  265MOL0     H35742  -0.851   4.410  -0.913  1.1142 -1.0527 -0.5752
  265MOL0     H35743  -1.068   4.310  -0.949 -0.0549 -0.8581  0.5502
  265MOL0     H35744  -1.074   4.232  -0.797  1.5134 -1.8427 -0.4311
  265MOL0     H35745  -1.062   4.541  -0.827 -1.5892  0.6196 -1.1353
  265MOL0     H35746  -1.061   4.443  -0.677 -0.5994  0.6807  0.3107
  265MOL0     H35747  -1.273   4.474  -0.899  1.3156 -0.0932  0.4662
  265MOL0     H35748  -1.310   4.370  -0.762  1.2203 -1.7738 -1.3474
  265MOL0     H35749  -1.220   4.664  -0.732 -2.4003  1.9806 -2.0633
  265MOL0     H35750  -1.268   4.556  -0.609  0.3416  1.9344 -1.0068
  265MOL0     H35751  -1.448   4.609  -0.846 -0.0545 -0.5671  0.2086
  265MOL0     H35752  -1.485   4.548  -0.687  1.2274 -2.3484 -2.5708
  265MOL0     H35753  -1.415   4.838  -0.779 -0.5913 -1.3070 -1.4629
  265MOL0     H35754  -1.404   4.794  -0.603  1.3453 -1.9246  0.5607
  265MOL0     H35755  -1.617   4.893  -0.630  0.0586  1.3112 -2.1478
  265MOL0     H35756  -1.633   4.715  -0.612  1.6728 -1.6178 -2.6339
  265MOL0     H35757  -0.643   4.396  -0.956  2.1359  0.8777  0.8017
  265MOL0     H35758  -0.414   4.345  -1.026  2.4654 -1.9377  0.4593
  265MOL0     H35759  -0.070   4.233  -0.973 -1.0127  2.1104 -2.4802
  265MOL0     H35760   0.176   4.212  -0.985 -1.2046  1.9998 -0.4623
  265MOL0     H35761   1.401   4.208   0.345  1.0627  0.3925 -0.0637
  265MOL0     H35762   1.631   4.341   0.339  0.1728  0.5907 -0.5031
  265MOL0     H35763   1.788   4.777   0.591  0.5663  1.0955 -0.1273
  265MOL0     H35764   1.977   4.889   0.671 -0.5170 -0.0982  1.6518
  265MOL0     H35765   2.254   5.031   0.627  0.4607  1.0220  1.5623
  265MOL0     H35766   2.169   4.944   0.768 -1.8258  1.0941 -1.0973
  265MOL0     H35767   2.373   4.845   0.832 -2.2973  1.4990  3.4797
  265MOL0     H35768   2.379   5.026   0.827  0.5547 -0.5307  0.3558
  265MOL0     H35769   2.484   5.015   0.601 -0.0656  0.2616 -1.3304
  265MOL0     H35770   2.499   4.847   0.604 -0.3742 -0.5784 -1.0178
  265MOL0     H35771   2.642   4.866   0.816  0.1559  1.2961  0.9745
  265MOL0     H35772   2.648   5.043   0.785  2.8123 -0.8849  2.8389
  265MOL0     H35773   2.872   4.911   0.460 -0.4797 -0.2755 -0.7097
  265MOL0     H35774   2.233   4.641   0.428 -0.3358 -0.3729  0.6125
  265MOL0     H35775   2.017   4.549   0.319 -2.9777  1.5239 -1.3297
  266MOL0     O35776   0.801   8.209   7.267 -0.3789 -0.0253 -0.0743
  266MOL0     C35777   0.815   8.101   7.207 -0.2282 -0.1629 -0.3570
  266MOL0     O35778   0.728   8.000   7.207 -0.2219  0.0181  0.5223
  266MOL0     C35779   0.624   8.009   7.306 -0.7225  0.4664 -0.1861
  266MOL0     C35780   0.517   8.094   7.319 -0.0381 -0.3154 -1.0486
  266MOL0     C35781   0.427   8.091   7.425  0.4249 -0.0536  0.1032
  266MOL0     C35782   0.445   7.995   7.526 -0.8401  1.0472 -0.1154
  266MOL0     O35783   0.367   7.998   7.643 -0.0222  0.6237  0.3704
  266MOL0     C35784   0.227   7.994   7.614 -0.0067 -0.8399 -1.2211
  266MOL0     C35785   0.163   8.066   7.731 -0.0965  0.3480 -0.4335
  266MOL0     C35786   0.018   8.091   7.706 -0.1461  0.3740  0.4896
  266MOL0     C35787  -0.051   8.174   7.816  0.5357  0.3632  0.1638
  266MOL0     C35788  -0.195   8.197   7.793 -0.4815 -0.0385  0.2065
  266MOL0     C35789  -0.266   8.270   7.916  0.6481 -0.1696 -0.6452
  266MOL0     C35790  -0.419   8.308   7.885  0.6526 -0.6107  0.2250
  266MOL0     C35791  -0.476   8.404   7.991 -0.8883  0.8435  0.7252
  266MOL0     N35792  -0.618   8.427   7.952  1.0549  0.1091 -0.2415
  266MOL0     C35793  -0.730   8.366   8.011  0.0336  0.3909  0.0131
  266MOL0     C35794  -0.837   8.436   7.968  0.0282  0.0573  0.5412
  266MOL0     C35795  -0.982   8.405   7.979  0.6810 -1.3633 -0.2447
  266MOL0     C35796  -1.027   8.343   8.105  0.0765  0.5491 -0.4162
  266MOL0     C35797  -1.177   8.355   8.127  1.1069 -1.0460  0.6119
  266MOL0     C35798  -1.258   8.257   8.039  0.3533 -0.2300  0.1069
  266MOL0     O35799  -1.288   8.142   8.117  0.0735 -0.3583 -0.3906
  266MOL0     C35800  -1.371   8.048   8.057  0.2348  1.1398  0.6786
  266MOL0     C35801  -1.342   8.009   7.921  0.5501 -0.4540  0.1211
  266MOL0     C35802  -1.407   7.900   7.854  0.0291 -0.5412  0.4086
  266MOL0     C35803  -1.368   7.877   7.714 -1.0283 -0.4650 -0.1841
  266MOL0     C35804  -1.504   7.818   7.927 -0.5442 -0.5159 -0.2689
  266MOL0     C35805  -1.566   7.698   7.862  0.2260  0.7733  0.7047
  266MOL0     O35806  -1.661   7.630   7.948  0.2444  0.3500  0.8187
  266MOL0     C35807  -1.721   7.526   7.895 -0.4409 -0.2967  0.7067
  266MOL0     C35808  -1.665   7.395   7.901  0.2957  0.9805  0.0388
  266MOL0     C35809  -1.735   7.287   7.844 -0.5730 -0.3613  0.0603
  266MOL0     C35810  -1.858   7.301   7.779 -0.4742  0.4056 -0.2942
  266MOL0     O35811  -1.930   7.186   7.744  0.5312 -0.7544  0.2945
  266MOL0     C35812  -2.059   7.193   7.811 -0.3369  0.6117 -0.6280
  266MOL0     C35813  -2.136   7.065   7.795  0.5412 -0.4895 -0.2613
  266MOL0     C35814  -2.066   6.947   7.857  1.1508  0.3124 -1.3499
  266MOL0     C35815  -2.102   6.932   8.011  0.3515  0.9411  0.7012
  266MOL0     C35816  -2.027   6.819   8.069 -0.4773 -0.1603  0.1046
  266MOL0     C35817  -1.893   6.859   8.122  0.4377  0.4434 -0.7581
  266MOL0     C35818  -1.801   6.750   8.169 -1.1236 -0.5520 -0.9725
  266MOL0     C35819  -1.718   6.686   8.058 -1.7173  0.8791  0.2907
  266MOL0    Cl35820  -1.591   6.580   8.110  0.3202 -0.0181 -0.2532
  266MOL0     C35821  -1.908   7.435   7.776 -0.3635  0.3136 -0.2606
  266MOL0     C35822  -1.840   7.548   7.829  0.0460  0.5548 -0.4657
  266MOL0     O35823  -1.527   7.649   7.757  0.0304  0.5847 -0.0447
  266MOL0     C35824  -1.529   7.859   8.062 -0.3112 -0.0316  0.4425
  266MOL0     C35825  -1.463   7.966   8.129 -0.0182 -0.2141 -0.3067
  266MOL0     N35826  -0.789   8.535   7.883 -0.6401  0.5689 -0.3822
  266MOL0     N35827  -0.656   8.533   7.874  0.4222  0.0545  0.6461
  266MOL0     C35828   0.552   7.907   7.514  0.5236 -0.8930  0.0767
  266MOL0     C35829   0.649   7.918   7.413  0.0021 -0.4195 -0.8145
  266MOL0     C35830   0.943   8.073   7.129 -0.4937 -0.8891  0.2881
  266MOL0     C35831   0.962   7.955   7.070 -0.7914  0.3524 -0.9170
  266MOL0     C35832   1.085   7.924   7.001 -0.9255 -0.7026 -0.2790
  266MOL0     C35833   1.181   8.022   6.988  0.7418 -1.5430 -0.3127
  266MOL0     O35834   1.296   7.990   6.926  0.0019 -0.4071  0.2369
  266MOL0     C35835   1.373   8.091   6.854  1.5857 -0.1906  0.2401
  266MOL0     C35836   1.493   8.124   6.932  0.4539  0.5722 -0.8351
  266MOL0     C35837   1.601   8.196   6.846  0.1586 -0.0219  0.0275
  266MOL0     C35838   1.736   8.171   6.919 -0.7670  0.0183 -0.1479
  266MOL0     C35839   1.858   8.198   6.840 -0.2343  0.5564  0.0959
  266MOL0     C35840   1.952   8.192   6.762 -1.3423 -0.2338  0.0269
  266MOL0     C35841   1.157   8.149   7.053 -0.0562  0.2653  1.3102
  266MOL0     C35842   1.039   8.175   7.122  0.1444  0.1295  0.0994
  266MOL0     H35843   0.494   8.156   7.233  2.0590  1.6742 -0.2945
  266MOL0     H35844   0.336   8.151   7.415  0.8397  0.7770  1.1159
  266MOL0     H35845   0.190   8.050   7.528 -2.3563  1.7385  1.2724
  266MOL0     H35846   0.189   7.891   7.608 -2.6598 -0.1876  1.8354
  266MOL0     H35847   0.170   8.001   7.819  1.1515  0.3740 -0.4901
  266MOL0     H35848   0.224   8.153   7.760  1.3386 -0.5480 -0.6485
  266MOL0     H35849   0.005   8.154   7.617 -1.0175  0.1186  0.4309
  266MOL0     H35850  -0.036   7.998   7.690 -0.0245  0.5427 -1.1839
  266MOL0     H35851  -0.043   8.125   7.913  0.8976  1.4739  0.7061
  266MOL0     H35852   0.003   8.269   7.816  1.5597 -0.1527  2.4946
  266MOL0     H35853  -0.215   8.254   7.702 -0.5640 -1.5034 -0.7408
  266MOL0     H35854  -0.246   8.102   7.772  0.7288 -0.6277 -0.2149
  266MOL0     H35855  -0.259   8.213   8.009  4.0375  2.1860  0.7366
  266MOL0     H35856  -0.222   8.368   7.938 -3.3845  1.5317  0.8028
  266MOL0     H35857  -0.413   8.360   7.789  3.7944  1.3185  1.3190
  266MOL0     H35858  -0.482   8.219   7.879  1.5723 -1.1885 -1.6202
  266MOL0     H35859  -0.420   8.498   7.988  1.9066 -0.7022 -0.2498
  266MOL0     H35860  -0.460   8.351   8.085 -0.3907 -3.5161 -1.5380
  266MOL0     H35861  -0.746   8.277   8.071 -1.5513  0.8884  0.3757
  266MOL0     H35862  -1.041   8.497   7.978  0.4890 -1.4422  1.5786
  266MOL0     H35863  -1.023   8.349   7.894 -0.5384 -1.7344  0.5706
  266MOL0     H35864  -0.972   8.401   8.179 -2.2886  1.9406  0.3506
  266MOL0     H35865  -1.017   8.235   8.116  2.1520  0.4472 -2.5004
  266MOL0     H35866  -1.205   8.459   8.109  2.0068 -0.7101  1.0808
  266MOL0     H35867  -1.214   8.335   8.229  1.9505 -1.4999  0.8445
  266MOL0     H35868  -1.202   8.242   7.946 -1.5702  0.0112 -1.1640
  266MOL0     H35869  -1.349   8.310   8.008  1.6335  1.3655 -1.1433
  266MOL0     H35870  -1.267   8.058   7.861  0.8323  1.2690  1.7914
  266MOL0     H35871  -1.295   7.948   7.673  0.9573 -2.1411  0.2773
  266MOL0     H35872  -1.309   7.785   7.718  0.7030  0.6469  0.9385
  266MOL0     H35873  -1.457   7.867   7.651  0.4821 -1.1748 -2.3458
  266MOL0     H35874  -1.580   7.375   7.965  0.6674 -4.2663 -1.6287
  266MOL0     H35875  -1.705   7.183   7.840 -3.6959 -1.3266 -2.1044
  266MOL0     H35876  -2.049   7.213   7.918  2.2230  2.0884 -1.0572
  266MOL0     H35877  -2.121   7.272   7.768  2.3672  2.8179 -0.8175
  266MOL0     H35878  -2.238   7.071   7.835 -0.4937  1.0519 -2.9235
  266MOL0     H35879  -2.149   7.045   7.688  1.0225  0.5672 -0.5279
  266MOL0     H35880  -1.959   6.967   7.850  0.7825  2.6472 -0.9635
  266MOL0     H35881  -2.083   6.850   7.809  2.3371 -1.5081  1.6227
  266MOL0     H35882  -2.089   7.030   8.059 -0.3530  1.4569 -0.1394
  266MOL0     H35883  -2.205   6.898   8.019  0.3226  0.0293 -2.2905
  266MOL0     H35884  -2.006   6.746   7.990  2.5053 -1.4894  1.9651
  266MOL0     H35885  -2.089   6.776   8.149 -1.9002  0.8532 -0.4084
  266MOL0     H35886  -1.834   6.934   8.068 -2.4779  4.3459  1.0332
  266MOL0     H35887  -1.914   6.919   8.210 -2.0171  0.6219 -1.3742
  266MOL0     H35888  -1.855   6.680   8.233  1.5066 -0.0913  2.0245
  266MOL0     H35889  -1.731   6.795   8.240 -1.5733 -0.3914 -0.6247
  266MOL0     H35890  -1.677   6.755   7.984  0.4068  1.4268  1.8913
  266MOL0     H35891  -1.791   6.626   8.003 -1.3230  1.2200 -0.6212
  266MOL0     H35892  -1.999   7.461   7.723 -1.7583 -1.7763  1.0026
  266MOL0     H35893  -1.887   7.645   7.834  0.1431  0.5373  2.4633
  266MOL0     H35894  -1.595   7.800   8.124 -2.2360 -1.6503 -2.8627
  266MOL0     H35895  -1.481   7.976   8.235 -0.8714 -0.3346 -0.4329
  266MOL0     H35896   0.577   7.842   7.597  0.6322 -0.7026  0.1970
  266MOL0     H35897   0.737   7.858   7.432  0.1864 -0.1375 -0.7641
  266MOL0     H35898   0.897   7.868   7.075  1.9246 -1.8041 -0.3195
  266MOL0     H35899   1.107   7.829   6.954  1.4719 -0.1865 -0.3285
  266MOL0     H35900   1.403   8.040   6.762  1.0707 -2.2809  1.1810
  266MOL0     H35901   1.318   8.180   6.825  1.0156 -1.5626 -3.3173
  266MOL0     H35902   1.536   8.032   6.971  1.2754  1.7395  1.1726
  266MOL0     H35903   1.476   8.178   7.026 -1.1784  0.9037 -1.2721
  266MOL0     H35904   1.583   8.298   6.811  0.5418 -1.1167 -3.7979
  266MOL0     H35905   1.606   8.138   6.753  0.0411 -0.0414  0.0336
  266MOL0     H35906   1.744   8.067   6.953  0.3020 -0.1446 -0.8429
  266MOL0     H35907   1.736   8.236   7.008 -3.2889  2.2235 -1.6299
  266MOL0     H35908   2.046   8.187   6.711 -0.8063 -3.0513  1.1359
  266MOL0     H35909   1.230   8.228   7.037 -0.4705  0.5473  0.7839
  266MOL0     H35910   1.013   8.267   7.172 -0.6545 -1.4711  2.8499
  267MOL0     O35911   5.848   7.679   6.345 -0.8858  0.0175 -0.2229
  267MOL0     C35912   5.925   7.773   6.326  0.1454 -0.2216  0.0353
  267MOL0     O35913   5.890   7.905   6.319 -0.3253  0.5166  0.7543
  267MOL0     C35914   5.782   7.937   6.390 -0.3234  0.2001 -0.0886
  267MOL0     C35915   5.806   8.028   6.487  0.2752 -0.7182 -0.9886
  267MOL0     C35916   5.705   8.075   6.567  0.5231 -0.2402 -0.6274
  267MOL0     C35917   5.569   8.036   6.551 -0.1108 -0.8603 -0.5101
  267MOL0     O35918   5.476   8.102   6.631  0.3163  0.1190 -0.1933
  267MOL0     C35919   5.338   8.074   6.599  0.5184  0.3579  0.3975
  267MOL0     C35920   5.254   8.169   6.688 -0.2302 -0.2634 -0.5020
  267MOL0     C35921   5.102   8.142   6.708  0.0032  0.4141  0.8539
  267MOL0     C35922   5.071   7.991   6.716  0.5062  0.3402 -0.6008
  267MOL0     C35923   4.920   7.953   6.719 -0.6424  0.0819  0.3324
  267MOL0     C35924   4.846   8.036   6.822  0.0836 -0.1366 -0.1763
  267MOL0     C35925   4.714   7.971   6.854 -0.6205  0.4165 -0.4970
  267MOL0     C35926   4.627   8.077   6.925 -0.0989 -0.1708  0.0388
  267MOL0     N35927   4.507   8.009   6.977 -0.4722  0.3730  0.2081
  267MOL0     C35928   4.417   7.949   6.889  0.3583 -0.0935 -0.9777
  267MOL0     C35929   4.336   7.883   6.971 -0.3853 -0.5055 -0.8687
  267MOL0     C35930   4.208   7.804   6.939 -0.7809 -0.3098  0.5999
  267MOL0     C35931   4.094   7.904   6.914 -0.7173 -0.3395 -0.0436
  267MOL0     C35932   3.965   7.838   6.854  0.1943 -0.1276 -0.7172
  267MOL0     C35933   3.846   7.922   6.830  0.6533  0.0821 -0.1947
  267MOL0     O35934   3.728   7.855   6.788 -0.7773 -0.1303 -0.0552
  267MOL0     C35935   3.604   7.910   6.768 -0.2518 -1.0393  0.4857
  267MOL0     C35936   3.571   8.037   6.818 -1.1224  0.4664 -0.2464
  267MOL0     C35937   3.443   8.095   6.808  0.6389  0.1486  0.0495
  267MOL0     C35938   3.402   8.219   6.879 -0.6100  0.1519  0.3173
  267MOL0     C35939   3.347   8.025   6.724 -0.1932 -0.2373  0.2811
  267MOL0     C35940   3.218   8.076   6.700  0.3090  0.5321  0.7214
  267MOL0     O35941   3.130   7.982   6.662 -0.2982  0.1676  0.2181
  267MOL0     C35942   2.993   7.997   6.665 -0.5784 -0.2590  0.0190
  267MOL0     C35943   2.921   7.974   6.782 -0.6133 -0.4417 -0.5532
  267MOL0     C35944   2.781   7.984   6.777  0.2473  0.2228 -0.2596
  267MOL0     C35945   2.715   8.025   6.653  0.4111 -0.1473 -1.3139
  267MOL0     O35946   2.580   8.043   6.662  0.6965 -0.4394  0.5896
  267MOL0     C35947   2.525   8.146   6.581 -0.5666 -0.0197  0.0620
  267MOL0     C35948   2.391   8.179   6.648 -0.2325 -1.0028 -0.0938
  267MOL0     C35949   2.317   8.286   6.575 -0.2220 -0.2659  0.4130
  267MOL0     C35950   2.268   8.230   6.440 -0.6298  0.5317 -0.4341
  267MOL0     C35951   2.154   8.315   6.377 -0.3164  0.3474 -0.0060
  267MOL0     C35952   2.086   8.279   6.244  0.4905  0.7724  0.7000
  267MOL0     C35953   1.988   8.152   6.245  0.7237  0.7295  0.7702
  267MOL0     C35954   1.860   8.171   6.332 -0.6830  1.4275 -0.4410
  267MOL0    Cl35955   1.703   8.136   6.263  0.6359  0.1050 -0.4596
  267MOL0     C35956   2.791   8.028   6.537 -0.4888 -0.3814  0.4449
  267MOL0     C35957   2.931   8.005   6.544 -0.1767 -0.6572 -0.0113
  267MOL0     O35958   3.173   8.184   6.736 -0.9499 -0.3305  0.2664
  267MOL0     C35959   3.375   7.897   6.678 -0.5491 -0.6954 -0.0032
  267MOL0     C35960   3.502   7.836   6.700  1.1209  1.1388 -0.0703
  267MOL0     N35961   4.378   7.897   7.101 -0.2916  0.6042 -0.8714
  267MOL0     N35962   4.481   7.981   7.108  0.5651  0.2098 -0.4273
  267MOL0     C35963   5.547   7.957   6.438  0.2232  0.4090  0.1693
  267MOL0     C35964   5.648   7.904   6.353  0.1514  0.6093 -0.4003
  267MOL0     C35965   6.065   7.745   6.294  0.3892  0.9394 -0.0286
  267MOL0     C35966   6.160   7.848   6.279  0.3679  0.1637  0.2643
  267MOL0     C35967   6.291   7.817   6.229  0.0580  0.7087  0.0642
  267MOL0     C35968   6.324   7.683   6.203 -0.6239 -0.0803 -0.5591
  267MOL0     O35969   6.447   7.645   6.162  1.1274 -0.2967  0.0025
  267MOL0     C35970   6.563   7.709   6.208 -0.2183  0.5522 -0.1719
  267MOL0     C35971   6.644   7.757   6.088  0.3842 -0.0389  0.7472
  267MOL0     C35972   6.783   7.829   6.120  0.2782  0.0795 -0.3312
  267MOL0     C35973   6.887   7.743   6.198  0.0340 -0.1560 -0.0035
  267MOL0     C35974   7.006   7.819   6.207 -0.4435 -0.0255  0.5477
  267MOL0     C35975   7.114   7.885   6.207  0.1779  0.6545 -0.8341
  267MOL0     C35976   6.236   7.579   6.235  0.0321 -0.2835  0.5760
  267MOL0     C35977   6.104   7.618   6.271 -0.1001  0.8354 -0.0378
  267MOL0     H35978   5.909   8.060   6.498  0.2918 -0.7981 -0.9142
  267MOL0     H35979   5.727   8.141   6.650 -0.1356 -1.1123  0.2825
  267MOL0     H35980   5.320   8.088   6.492 -3.5363 -3.0311  0.3955
  267MOL0     H35981   5.312   7.970   6.619 -0.7917  0.0781 -2.3276
  267MOL0     H35982   5.296   8.138   6.784 -0.5996 -2.7372 -1.0801
  267MOL0     H35983   5.268   8.273   6.657 -1.4518 -0.0682 -0.4749
  267MOL0     H35984   5.053   8.200   6.787 -2.0444 -1.1174  0.7979
  267MOL0     H35985   5.055   8.183   6.619 -2.7205 -0.1611  1.9059
  267MOL0     H35986   5.112   7.943   6.626 -1.6071  1.9753 -2.5598
  267MOL0     H35987   5.117   7.953   6.807 -0.6190 -0.3907 -0.3288
  267MOL0     H35988   4.873   7.953   6.620  0.1468  1.4954 -0.0827
  267MOL0     H35989   4.921   7.848   6.750  1.9804  1.0850  4.4700
  267MOL0     H35990   4.910   8.039   6.911  0.9581 -0.8744 -0.7620
  267MOL0     H35991   4.836   8.137   6.780  0.6305  0.4926  1.1167
  267MOL0     H35992   4.658   7.941   6.765 -2.9747  0.0728  0.9912
  267MOL0     H35993   4.715   7.877   6.910  2.8256  2.2633  2.9757
  267MOL0     H35994   4.604   8.154   6.850  0.5070 -0.4349 -0.4239
  267MOL0     H35995   4.682   8.118   7.010  0.0766  0.2415 -0.2703
  267MOL0     H35996   4.416   7.959   6.781  1.5920  0.4731 -0.9566
  267MOL0     H35997   4.215   7.739   6.851 -1.1034  0.3222  0.0990
  267MOL0     H35998   4.177   7.738   7.021  0.9651  0.8031  2.2196
  267MOL0     H35999   4.133   7.970   6.836  1.4925  0.4875  1.6463
  267MOL0     H36000   4.062   7.967   6.998  0.3508 -1.8787  1.6083
  267MOL0     H36001   3.938   7.755   6.920 -0.6624  0.8537  0.2101
  267MOL0     H36002   3.987   7.798   6.755 -1.4766 -0.9800 -0.7768
  267MOL0     H36003   3.866   8.000   6.755 -1.1622  1.6787  0.9111
  267MOL0     H36004   3.824   7.969   6.926 -1.3053  2.4313 -1.6759
  267MOL0     H36005   3.639   8.087   6.887  0.5380 -1.7825 -0.1601
  267MOL0     H36006   3.326   8.193   6.954  1.3079 -3.4054  1.2615
  267MOL0     H36007   3.487   8.260   6.934 -1.0632 -0.8403  1.8186
  267MOL0     H36008   3.376   8.296   6.806  3.0238 -1.9565 -3.6345
  267MOL0     H36009   2.970   7.940   6.873 -0.4806 -2.5846 -1.3753
  267MOL0     H36010   2.729   7.971   6.871 -1.8026  2.9445 -0.8749
  267MOL0     H36011   2.598   8.228   6.592 -1.4533  1.0078 -1.3838
  267MOL0     H36012   2.515   8.119   6.476  2.3264  1.8719 -0.8237
  267MOL0     H36013   2.326   8.092   6.661 -0.0128 -1.5764 -2.4678
  267MOL0     H36014   2.418   8.205   6.751  0.9330 -1.8702 -0.1542
  267MOL0     H36015   2.373   8.375   6.544 -3.0482  1.5238  0.1581
  267MOL0     H36016   2.239   8.315   6.646  4.1094 -0.3035  5.9440
  267MOL0     H36017   2.339   8.215   6.358 -0.2951 -0.9948  0.1090
  267MOL0     H36018   2.248   8.125   6.460  2.7790 -0.7273 -2.6383
  267MOL0     H36019   2.195   8.416   6.364 -2.2223  0.9396 -2.2127
  267MOL0     H36020   2.075   8.327   6.452  1.8314 -0.1012  2.4350
  267MOL0     H36021   2.026   8.360   6.203 -1.6021 -1.3486 -0.6660
  267MOL0     H36022   2.167   8.255   6.174 -0.4340  0.0588 -0.1495
  267MOL0     H36023   2.037   8.062   6.284  0.8180  1.9383  3.6754
  267MOL0     H36024   1.956   8.132   6.143  2.6148 -2.4891  0.6777
  267MOL0     H36025   1.864   8.271   6.378 -1.8017  0.9187  0.8266
  267MOL0     H36026   1.874   8.093   6.408  1.7379  0.7009 -1.5452
  267MOL0     H36027   2.758   8.045   6.435  3.6030  0.3757 -0.9547
  267MOL0     H36028   3.000   8.020   6.461  0.0256 -1.1968  0.0561
  267MOL0     H36029   3.304   7.821   6.646 -1.9363  0.5737 -0.0626
  267MOL0     H36030   3.511   7.732   6.670 -0.3898  1.3619 -1.4583
  267MOL0     H36031   5.446   7.932   6.411 -0.3357  0.0277  2.3982
  267MOL0     H36032   5.624   7.834   6.273  1.6308 -2.3576  1.5509
  267MOL0     H36033   6.134   7.952   6.289  0.0755  0.2941 -1.5019
  267MOL0     H36034   6.367   7.893   6.212  0.2954  0.1836 -1.3379
  267MOL0     H36035   6.540   7.797   6.269 -3.7321 -1.7976  2.2290
  267MOL0     H36036   6.607   7.640   6.280  0.4377  1.9801  0.8587
  267MOL0     H36037   6.581   7.832   6.039 -2.1737 -1.6686  1.3762
  267MOL0     H36038   6.661   7.675   6.017  0.1375 -0.5280  1.2465
  267MOL0     H36039   6.760   7.923   6.172  0.9226 -0.5484  1.1514
  267MOL0     H36040   6.829   7.845   6.022  0.1932  0.9100 -0.2476
  267MOL0     H36041   6.908   7.645   6.155 -0.1667  0.0383 -0.5476
  267MOL0     H36042   6.848   7.721   6.298  0.0985 -0.2373  0.0035
  267MOL0     H36043   7.202   7.944   6.220 -1.3627  2.6053  1.5621
  267MOL0     H36044   6.252   7.473   6.217 -0.0465  0.1195 -2.3121
  267MOL0     H36045   6.027   7.542   6.273 -0.2269  0.9782  1.3639
  268MOL0     O36046   5.006   0.003   6.299 -0.1277  0.3833 -0.0314
  268MOL0     C36047   5.033  -0.099   6.238 -0.2408  0.1209 -0.7857
  268MOL0     O36048   4.942  -0.184   6.187  0.6080 -0.0934 -0.0239
  268MOL0     C36049   4.821  -0.171   6.243 -0.7022 -0.3029 -0.2426
  268MOL0     C36050   4.723  -0.076   6.211 -0.1973  0.3303 -0.4918
  268MOL0     C36051   4.590  -0.083   6.260 -0.4467 -1.3300  0.2462
  268MOL0     C36052   4.550  -0.187   6.336 -0.0958  0.0551 -0.0165
  268MOL0     O36053   4.417  -0.196   6.372  0.2515  1.1693 -0.7540
  268MOL0     C36054   4.348  -0.273   6.279 -0.2434 -0.3934 -0.5144
  268MOL0     C36055   4.276  -0.178   6.187  0.1471 -0.0706 -0.1807
  268MOL0     C36056   4.163  -0.234   6.107 -0.3707  0.5791  1.1385
  268MOL0     C36057   4.029  -0.231   6.199 -0.0415  0.1026 -0.2878
  268MOL0     C36058   3.908  -0.268   6.123  0.1540  0.3792 -0.9422
  268MOL0     C36059   3.907  -0.408   6.057  0.4292 -0.0044  0.4625
  268MOL0     C36060   3.775  -0.441   5.985 -0.1703 -0.2928 -0.6857
  268MOL0     C36061   3.800  -0.560   5.898 -0.0886  0.5447 -0.1282
  268MOL0     N36062   3.813  -0.685   5.985 -0.2050  0.3354  0.1573
  268MOL0     C36063   3.912  -0.743   6.060  0.2406 -0.3508  0.2080
  268MOL0     C36064   3.874  -0.868   6.092 -0.1935  0.8252  0.2953
  268MOL0     C36065   3.963  -0.968   6.169 -0.6928 -0.5433  0.5953
  268MOL0     C36066   3.907  -1.104   6.203 -0.9888  0.1715  0.2450
  268MOL0     C36067   3.798  -1.093   6.317  0.2727 -0.3465 -0.1171
  268MOL0     C36068   3.779  -1.220   6.388  0.7955 -0.1189  0.1601
  268MOL0     O36069   3.765  -1.325   6.282 -0.3838 -0.3555 -0.1761
  268MOL0     C36070   3.641  -1.373   6.244  0.0573  0.9927 -0.2119
  268MOL0     C36071   3.521  -1.329   6.296 -0.1977 -0.5922 -0.2396
  268MOL0     C36072   3.396  -1.375   6.253  0.4525 -0.0993  0.2246
  268MOL0     C36073   3.279  -1.329   6.330  0.1697 -0.4107  0.1271
  268MOL0     C36074   3.399  -1.480   6.158 -0.7350 -0.0143 -0.4358
  268MOL0     C36075   3.276  -1.544   6.102 -0.1184  0.0890  1.2901
  268MOL0     O36076   3.161  -1.476   6.114  0.0858 -0.3290 -0.1069
  268MOL0     C36077   3.034  -1.520   6.140 -0.0719 -0.5086  0.2240
  268MOL0     C36078   2.928  -1.434   6.155 -0.0359 -0.4109 -0.7966
  268MOL0     C36079   2.798  -1.479   6.172  0.6524  0.7967 -0.8898
  268MOL0     C36080   2.769  -1.611   6.179 -0.1379 -0.1878 -0.1436
  268MOL0     O36081   2.641  -1.652   6.195 -0.1338  0.0755  0.0943
  268MOL0     C36082   2.596  -1.722   6.073 -0.5906 -0.1965  0.1728
  268MOL0     C36083   2.538  -1.618   5.970  0.4212  0.0834 -0.2556
  268MOL0     C36084   2.424  -1.523   6.035 -0.8806 -0.1855 -0.4803
  268MOL0     C36085   2.361  -1.434   5.932  0.8300 -0.0936  0.3434
  268MOL0     C36086   2.238  -1.356   5.968  0.2715  0.2332 -0.0647
  268MOL0     C36087   2.249  -1.262   6.086 -0.2692 -0.3321 -0.2571
  268MOL0     C36088   2.130  -1.171   6.095 -0.0192 -0.3446  0.1056
  268MOL0     C36089   2.011  -1.239   6.157  0.5063  0.7716 -0.2101
  268MOL0    Cl36090   1.915  -1.303   6.016 -0.3588  0.2451 -0.1641
  268MOL0     C36091   2.882  -1.695   6.202  0.5254 -0.0136 -0.3056
  268MOL0     C36092   3.012  -1.658   6.171 -0.3409 -0.2252 -0.1279
  268MOL0     O36093   3.294  -1.639   6.024  0.9034 -0.2682  0.5997
  268MOL0     C36094   3.521  -1.540   6.121 -0.1809  0.0689  0.7031
  268MOL0     C36095   3.639  -1.485   6.156 -0.8800  0.6291 -0.2072
  268MOL0     N36096   3.746  -0.878   6.060 -0.1566  0.0274 -0.4829
  268MOL0     N36097   3.713  -0.774   5.988  0.1420  0.5122 -0.7629
  268MOL0     C36098   4.645  -0.289   6.374  0.2374 -0.0945  0.6497
  268MOL0     C36099   4.779  -0.274   6.333  0.7088  0.0833 -0.3271
  268MOL0     C36100   5.178  -0.132   6.219 -0.3549  0.8024  0.1655
  268MOL0     C36101   5.279  -0.069   6.292  0.7880  0.0047 -0.1573
  268MOL0     C36102   5.414  -0.101   6.267 -0.3285 -0.0866 -0.3240
  268MOL0     C36103   5.452  -0.192   6.165  0.2542  0.2231 -0.0618
  268MOL0     O36104   5.586  -0.223   6.126  0.0787  0.8094 -0.2202
  268MOL0     C36105   5.688  -0.153   6.195  0.5824  0.8102  0.3270
  268MOL0     C36106   5.827  -0.179   6.141  0.5193  0.6659  0.4817
  268MOL0     C36107   5.839  -0.120   5.995 -0.2221  0.6040 -0.0738
  268MOL0     C36108   5.965  -0.155   5.918 -0.4129 -0.1664  0.6499
  268MOL0     C36109   6.070  -0.093   5.976  0.0053 -0.3475 -0.0569
  268MOL0     C36110   6.170  -0.030   5.998 -0.3259  0.3281  0.0522
  268MOL0     C36111   5.350  -0.258   6.099  0.1099  1.3195  0.1696
  268MOL0     C36112   5.214  -0.231   6.120 -0.0574  0.5446 -0.1973
  268MOL0     H36113   4.743   0.007   6.144 -0.6229  0.2853 -0.6752
  268MOL0     H36114   4.517  -0.006   6.239  0.9084 -0.2720 -0.8025
  268MOL0     H36115   4.408  -0.347   6.227 -0.6764 -3.1124  2.5975
  268MOL0     H36116   4.272  -0.322   6.341 -2.1663  1.2676 -1.4001
  268MOL0     H36117   4.242  -0.090   6.243  0.2121 -1.2544  1.7881
  268MOL0     H36118   4.359  -0.143   6.124 -0.2634 -0.2160 -0.8083
  268MOL0     H36119   4.149  -0.176   6.015 -0.1520 -0.2130  0.5915
  268MOL0     H36120   4.193  -0.335   6.076 -1.3730  1.0997 -1.8690
  268MOL0     H36121   4.045  -0.303   6.280  1.3935  1.0333  0.3027
  268MOL0     H36122   4.010  -0.131   6.237  0.1734  1.7250 -3.9945
  268MOL0     H36123   3.825  -0.281   6.193 -0.8567  1.8072 -1.8145
  268MOL0     H36124   3.874  -0.195   6.049  2.3500 -1.0613 -3.5434
  268MOL0     H36125   3.985  -0.409   5.980 -1.2773 -5.1282 -1.5875
  268MOL0     H36126   3.930  -0.481   6.136  0.2698  1.1680  1.6409
  268MOL0     H36127   3.693  -0.456   6.056 -0.1304  1.4275 -0.2269
  268MOL0     H36128   3.759  -0.353   5.922  5.2134 -0.8483 -3.4225
  268MOL0     H36129   3.880  -0.536   5.829 -0.2913 -0.1301 -0.6129
  268MOL0     H36130   3.718  -0.578   5.828 -2.0155  0.5784  1.9887
  268MOL0     H36131   4.007  -0.698   6.088 -0.5318  1.3918  0.1125
  268MOL0     H36132   4.048  -0.979   6.101  0.0515  1.0093  1.2180
  268MOL0     H36133   3.993  -0.919   6.263  0.8669  1.5791 -0.9014
  268MOL0     H36134   3.982  -1.175   6.239 -0.9470  1.4778  3.0143
  268MOL0     H36135   3.871  -1.150   6.111  1.2900 -0.1490 -0.5520
  268MOL0     H36136   3.703  -1.072   6.267  0.0586 -0.7790  0.1015
  268MOL0     H36137   3.808  -1.012   6.389 -3.3666  0.3160 -0.1702
  268MOL0     H36138   3.695  -1.204   6.456  1.5777  0.5898  0.9919
  268MOL0     H36139   3.866  -1.232   6.453 -0.6579 -2.9146  1.7378
  268MOL0     H36140   3.519  -1.253   6.374 -0.8828 -1.9048  1.0693
  268MOL0     H36141   3.225  -1.408   6.383 -0.2091  2.3672  4.3540
  268MOL0     H36142   3.308  -1.268   6.416  1.0764  1.0998 -1.1859
  268MOL0     H36143   3.202  -1.281   6.269 -1.3232 -1.3602  1.1984
  268MOL0     H36144   2.946  -1.327   6.153  0.2351 -0.2679  2.7368
  268MOL0     H36145   2.716  -1.410   6.155  0.5967  1.5379  1.9511
  268MOL0     H36146   2.675  -1.774   6.017  0.5307  1.2360  0.3641
  268MOL0     H36147   2.522  -1.800   6.092 -3.2052  1.9807 -0.4667
  268MOL0     H36148   2.621  -1.563   5.925 -0.1268 -0.5079 -2.0809
  268MOL0     H36149   2.488  -1.672   5.889 -0.6623 -0.9407  1.0606
  268MOL0     H36150   2.476  -1.478   6.120 -2.5349  1.2238 -0.1434
  268MOL0     H36151   2.351  -1.591   6.078  0.8366 -1.1556  1.0197
  268MOL0     H36152   2.437  -1.367   5.891  1.0051  1.1058  2.4497
  268MOL0     H36153   2.323  -1.502   5.856  1.5791 -3.3545  2.6560
  268MOL0     H36154   2.147  -1.416   5.974 -2.4683  4.0871  0.9208
  268MOL0     H36155   2.218  -1.291   5.882  0.7868  1.8329  0.9807
  268MOL0     H36156   2.263  -1.326   6.174  0.4089 -1.4810 -1.1651
  268MOL0     H36157   2.340  -1.202   6.071  1.2847 -1.8910  2.2761
  268MOL0     H36158   2.119  -1.122   5.998  1.1369  1.3499  0.7799
  268MOL0     H36159   2.151  -1.089   6.165 -0.9709 -0.9351  1.1151
  268MOL0     H36160   1.963  -1.157   6.211  2.2764  4.5892 -3.8643
  268MOL0     H36161   2.036  -1.315   6.231 -1.8404  0.1230  0.0180
  268MOL0     H36162   2.865  -1.801   6.217  2.1161 -0.0827  1.2978
  268MOL0     H36163   3.097  -1.725   6.177  0.6814  0.8618 -1.5097
  268MOL0     H36164   3.530  -1.623   6.051  0.5803 -0.6834  1.6573
  268MOL0     H36165   3.737  -1.508   6.114 -0.5335  1.8056 -0.0935
  268MOL0     H36166   4.620  -0.371   6.440 -0.1222 -0.9327 -0.4913
  268MOL0     H36167   4.858  -0.336   6.374  0.2305 -0.2029  0.1623
  268MOL0     H36168   5.254   0.010   6.362 -1.6000 -0.0756 -0.8391
  268MOL0     H36169   5.497  -0.056   6.320  2.1639 -4.3666 -0.1748
  268MOL0     H36170   5.678  -0.044   6.188  3.6391  1.1891  0.4255
  268MOL0     H36171   5.694  -0.174   6.302  0.3650  1.0367  0.3842
  268MOL0     H36172   5.857  -0.284   6.138  3.0216  1.3056  0.1448
  268MOL0     H36173   5.899  -0.128   6.207  0.6975  1.2743 -0.1698
  268MOL0     H36174   5.821  -0.013   6.011  1.8931  1.1188 -0.8657
  268MOL0     H36175   5.758  -0.159   5.932  1.8331 -1.5110 -1.5427
  268MOL0     H36176   5.950  -0.119   5.815  0.3585  3.0178  1.5449
  268MOL0     H36177   5.972  -0.264   5.918 -0.4080 -0.1662  0.7112
  268MOL0     H36178   6.266   0.015   6.015  0.2478  0.1716 -2.3755
  268MOL0     H36179   5.388  -0.335   6.033  1.2437  1.1596  0.9945
  268MOL0     H36180   5.139  -0.298   6.079 -0.3166  0.9378 -0.3771
  269MOL0     O36181   2.854   1.750   1.837  0.0074 -0.7595  0.1796
  269MOL0     C36182   2.898   1.762   1.725 -0.5072 -0.7589  0.9805
  269MOL0     O36183   2.829   1.764   1.611  0.1656  0.2419  0.4017
  269MOL0     C36184   2.697   1.750   1.602  0.4166  0.2150  0.6952
  269MOL0     C36185   2.629   1.630   1.576  0.1894 -0.4114  0.9128
  269MOL0     C36186   2.489   1.617   1.587 -0.1616 -0.1931  0.6128
  269MOL0     C36187   2.405   1.729   1.608  0.7992 -0.2497  0.7281
  269MOL0     O36188   2.270   1.728   1.609 -0.3165  0.1981 -0.6110
  269MOL0     C36189   2.198   1.603   1.602  0.0155  0.5594 -0.4376
  269MOL0     C36190   2.063   1.608   1.678 -0.4331 -0.2921 -0.4258
  269MOL0     C36191   2.077   1.640   1.827  0.1736  0.6661  0.8236
  269MOL0     C36192   1.947   1.630   1.905  0.7909  0.1398 -1.5342
  269MOL0     C36193   1.972   1.667   2.057 -0.3112  0.3508  0.1372
  269MOL0     C36194   1.873   1.603   2.161  0.3926  0.5532  0.2137
  269MOL0     C36195   1.838   1.450   2.125  0.7399  0.8569 -0.4060
  269MOL0     C36196   1.793   1.369   2.253  0.7666  0.0458 -0.0360
  269MOL0     N36197   1.646   1.396   2.274  0.4948 -0.0530  0.0041
  269MOL0     C36198   1.590   1.481   2.371  0.2867 -0.7987  0.3822
  269MOL0     C36199   1.452   1.462   2.349  0.1187 -0.3740 -0.0715
  269MOL0     C36200   1.342   1.552   2.423  0.3767 -0.8193 -0.3780
  269MOL0     C36201   1.336   1.693   2.364 -0.3655  0.4254  0.7392
  269MOL0     C36202   1.213   1.768   2.410  0.2280  0.3445  0.2513
  269MOL0     C36203   1.207   1.914   2.367  0.1146 -0.8004  0.6596
  269MOL0     O36204   1.296   1.992   2.452  0.1935  0.2786 -0.2088
  269MOL0     C36205   1.420   2.043   2.403 -0.3222  0.2724 -1.1276
  269MOL0     C36206   1.481   2.130   2.493 -0.5657  0.7369 -0.5616
  269MOL0     C36207   1.598   2.194   2.462 -0.5477 -0.1371  0.7276
  269MOL0     C36208   1.655   2.291   2.556 -0.3750  0.2580 -0.1530
  269MOL0     C36209   1.666   2.164   2.336  0.9533 -0.1733 -0.4360
  269MOL0     C36210   1.790   2.235   2.279 -0.5379 -0.0836 -0.4030
  269MOL0     O36211   1.853   2.335   2.352  0.2285 -0.5246 -0.3215
  269MOL0     C36212   1.952   2.405   2.283 -0.1989  0.6719  0.1566
  269MOL0     C36213   2.064   2.421   2.357 -0.2025 -0.2396 -0.3624
  269MOL0     C36214   2.177   2.489   2.304 -0.2812 -0.4794 -0.1792
  269MOL0     C36215   2.163   2.554   2.178 -0.3218 -0.2150 -0.1999
  269MOL0     O36216   2.274   2.631   2.135  0.4450 -0.1451  0.2259
  269MOL0     C36217   2.344   2.724   2.223 -0.1273  0.0844 -0.3782
  269MOL0     C36218   2.434   2.814   2.143 -0.0649  0.3418  0.4358
  269MOL0     C36219   2.352   2.902   2.044  0.9202  0.2599  0.3852
  269MOL0     C36220   2.427   3.035   2.017  0.1123  0.5457  0.6277
  269MOL0     C36221   2.573   3.017   1.980 -0.2088 -0.9737  0.2451
  269MOL0     C36222   2.596   3.000   1.828 -0.5148 -0.8055 -0.2151
  269MOL0     C36223   2.750   2.972   1.794 -0.4440 -0.1237  0.6359
  269MOL0     C36224   2.766   3.000   1.644 -0.3443 -0.1721 -0.7417
  269MOL0    Cl36225   2.755   3.185   1.612  0.0207  0.6255 -0.0308
  269MOL0     C36226   2.043   2.551   2.105 -0.5089 -0.6734 -0.4966
  269MOL0     C36227   1.941   2.469   2.153 -0.0452  0.7563  0.2194
  269MOL0     O36228   1.838   2.195   2.172  0.1119 -0.1166 -0.2723
  269MOL0     C36229   1.601   2.074   2.253  0.5839  0.7458 -0.2188
  269MOL0     C36230   1.489   2.009   2.286  0.5600 -0.1500 -0.4670
  269MOL0     N36231   1.430   1.372   2.257  0.5782  1.2776  0.5798
  269MOL0     N36232   1.547   1.326   2.209  0.3774  0.0270 -0.2353
  269MOL0     C36233   2.472   1.860   1.618 -0.7520  1.2057  0.1954
  269MOL0     C36234   2.619   1.868   1.626  0.6637 -0.8199  0.3933
  269MOL0     C36235   3.046   1.772   1.711 -0.1703  0.1691 -0.7147
  269MOL0     C36236   3.104   1.746   1.587  0.2254  0.0611  0.1642
  269MOL0     C36237   3.252   1.729   1.575  0.4509 -0.6461 -0.3059
  269MOL0     C36238   3.331   1.757   1.687  0.4840  1.1449 -0.4693
  269MOL0     O36239   3.472   1.742   1.696  0.3807  0.0670  0.3731
  269MOL0     C36240   3.525   1.640   1.606 -0.0719 -0.3931 -0.4243
  269MOL0     C36241   3.638   1.554   1.664 -0.7024 -0.7159  0.3868
  269MOL0     C36242   3.700   1.455   1.564  0.6732 -0.5668 -0.1910
  269MOL0     C36243   3.839   1.500   1.538  0.1455 -0.0417 -0.3265
  269MOL0     C36244   3.885   1.420   1.421 -0.8623  0.9389 -0.0498
  269MOL0     C36245   3.918   1.355   1.326  0.2170  0.7447  0.6325
  269MOL0     C36246   3.265   1.800   1.802 -0.0684  0.3497  0.1307
  269MOL0     C36247   3.130   1.791   1.820  0.5257 -0.2405  0.2426
  269MOL0     H36248   2.686   1.537   1.580 -1.2649 -1.3435  0.6090
  269MOL0     H36249   2.445   1.519   1.570  1.4579 -0.7604 -0.6590
  269MOL0     H36250   2.186   1.572   1.498  0.6659 -0.7685 -0.1454
  269MOL0     H36251   2.255   1.525   1.653 -0.6783  2.4745  3.7097
  269MOL0     H36252   2.009   1.687   1.626  0.7359  0.0185 -1.2152
  269MOL0     H36253   2.019   1.508   1.663 -0.7527 -0.1265 -0.5972
  269MOL0     H36254   2.143   1.571   1.880 -2.2895 -0.8887  2.0471
  269MOL0     H36255   2.113   1.742   1.840 -4.5840  2.5166  1.6945
  269MOL0     H36256   1.873   1.700   1.866 -1.0630 -1.3541 -0.8265
  269MOL0     H36257   1.907   1.529   1.891 -4.6079  1.5563  1.2187
  269MOL0     H36258   2.068   1.629   2.093 -0.7647 -1.4505 -0.4340
  269MOL0     H36259   1.972   1.776   2.070  1.2695  0.4443 -0.4201
  269MOL0     H36260   1.935   1.606   2.250  3.6498  0.5513 -1.8869
  269MOL0     H36261   1.787   1.671   2.168  1.4283  1.9381  0.0215
  269MOL0     H36262   1.757   1.445   2.051  0.9934  1.2747 -0.7171
  269MOL0     H36263   1.926   1.389   2.103 -0.5364 -1.7506  1.2102
  269MOL0     H36264   1.848   1.408   2.340 -1.1266 -0.1748  1.3252
  269MOL0     H36265   1.823   1.263   2.246  3.9651  0.9491 -2.5636
  269MOL0     H36266   1.636   1.559   2.430 -0.0232 -1.8105  2.0173
  269MOL0     H36267   1.249   1.495   2.414  0.6123 -1.0366 -1.5649
  269MOL0     H36268   1.367   1.561   2.529 -0.4286  0.2843 -0.2691
  269MOL0     H36269   1.329   1.696   2.255 -0.2218 -1.1076  0.6592
  269MOL0     H36270   1.428   1.746   2.391 -0.4750  1.5733 -0.9495
  269MOL0     H36271   1.195   1.758   2.517 -0.6057  0.5442  0.1349
  269MOL0     H36272   1.140   1.706   2.357  3.7349 -1.9161 -2.3947
  269MOL0     H36273   1.107   1.958   2.364  0.2130 -0.4058  2.4767
  269MOL0     H36274   1.237   1.925   2.262  1.5901  2.2621  1.2862
  269MOL0     H36275   1.429   2.154   2.586 -1.0550  2.9636 -1.3425
  269MOL0     H36276   1.759   2.267   2.580 -1.4779 -4.6198  0.8345
  269MOL0     H36277   1.649   2.389   2.509 -1.3483  0.8811  1.2278
  269MOL0     H36278   1.595   2.304   2.646  1.9683  2.8792  1.1795
  269MOL0     H36279   2.069   2.389   2.460  2.6763 -0.6007 -0.5244
  269MOL0     H36280   2.264   2.506   2.366  1.9838 -0.3980 -3.1260
  269MOL0     H36281   2.266   2.778   2.276 -2.6520 -2.0545 -1.6548
  269MOL0     H36282   2.409   2.670   2.293 -2.0233 -3.4749 -1.1451
  269MOL0     H36283   2.485   2.870   2.221 -1.0335 -1.0126  2.1005
  269MOL0     H36284   2.510   2.759   2.086 -0.4568  0.7503 -0.5033
  269MOL0     H36285   2.255   2.928   2.086 -0.1359 -1.1853 -1.0640
  269MOL0     H36286   2.335   2.841   1.955 -1.3880  0.8453  0.3568
  269MOL0     H36287   2.375   3.098   1.944  0.9610  1.0739  0.4636
  269MOL0     H36288   2.423   3.087   2.113 -0.3837  1.5887  0.0644
  269MOL0     H36289   2.617   2.930   2.029 -2.3424 -3.2566 -1.6619
  269MOL0     H36290   2.632   3.107   2.004 -0.3882 -0.9181  0.4783
  269MOL0     H36291   2.540   2.917   1.783 -0.5854 -0.2798 -1.1272
  269MOL0     H36292   2.572   3.094   1.776  2.2310 -0.5340 -1.1434
  269MOL0     H36293   2.758   2.863   1.801  0.9728 -0.0449  0.5886
  269MOL0     H36294   2.828   3.032   1.843 -0.7657  0.7807  0.0703
  269MOL0     H36295   2.689   2.945   1.590 -0.2434 -0.2174 -0.8381
  269MOL0     H36296   2.870   2.984   1.616  0.5526 -0.7153  2.5298
  269MOL0     H36297   2.028   2.621   2.023  2.5039  2.1138  1.0830
  269MOL0     H36298   1.855   2.451   2.090  0.3533  0.3257 -0.2148
  269MOL0     H36299   1.644   2.048   2.157 -1.1321  1.9741 -1.3757
  269MOL0     H36300   1.452   1.925   2.229 -2.7668  0.7971  0.0915
  269MOL0     H36301   2.419   1.953   1.632 -1.2857  0.9050  0.1781
  269MOL0     H36302   2.668   1.964   1.636 -0.5473  0.4221 -3.5350
  269MOL0     H36303   3.040   1.715   1.505  1.3298 -1.7307 -0.0714
  269MOL0     H36304   3.297   1.699   1.481  1.4718  1.3123 -0.4946
  269MOL0     H36305   3.449   1.565   1.583  1.1278 -1.6451 -0.4513
  269MOL0     H36306   3.563   1.698   1.522  2.0324 -0.0378  0.7137
  269MOL0     H36307   3.603   1.491   1.747 -2.2382 -2.3223 -1.3694
  269MOL0     H36308   3.722   1.615   1.697  0.2466 -0.2639 -2.5358
  269MOL0     H36309   3.640   1.442   1.474  0.0321 -1.4548  0.3567
  269MOL0     H36310   3.711   1.358   1.612 -0.1486 -1.2072 -1.2434
  269MOL0     H36311   3.904   1.500   1.626 -0.8900  2.7518  0.5325
  269MOL0     H36312   3.843   1.605   1.509  1.3882  0.6721  2.2114
  269MOL0     H36313   3.935   1.313   1.229 -0.9522  0.5945  0.4815
  269MOL0     H36314   3.329   1.817   1.888 -0.4879  1.1746  0.2912
  269MOL0     H36315   3.097   1.807   1.922  4.0747  1.2546  1.3120
  270MOL0     O36316  10.713   3.053   9.297 -0.0881 -0.7306 -0.2899
  270MOL0     C36317  10.764   2.953   9.342 -0.3260 -0.0254  0.0083
  270MOL0     O36318  10.711   2.861   9.420 -0.7935  0.0979  0.0170
  270MOL0     C36319  10.576   2.845   9.422 -0.5158 -0.4248 -0.1792
  270MOL0     C36320  10.501   2.920   9.510 -0.0458 -0.6700 -0.8876
  270MOL0     C36321  10.367   2.898   9.534  0.3411 -0.1302  0.1994
  270MOL0     C36322  10.293   2.820   9.439  0.1187 -1.1156 -1.0710
  270MOL0     O36323  10.155   2.812   9.454 -0.0627 -0.2442  1.1736
  270MOL0     C36324  10.078   2.725   9.362 -1.0984 -0.6706  0.6920
  270MOL0     C36325   9.938   2.738   9.409  0.4124  0.0558 -0.1332
  270MOL0     C36326   9.863   2.616   9.345  0.4062  0.5270  0.2059
  270MOL0     C36327   9.724   2.656   9.305  0.6183 -0.4622 -0.3361
  270MOL0     C36328   9.633   2.538   9.272  0.9738 -0.0636 -0.1804
  270MOL0     C36329   9.502   2.586   9.224  0.1305 -0.3553  0.3472
  270MOL0     C36330   9.387   2.490   9.223 -1.2823  0.1841 -0.3801
  270MOL0     C36331   9.425   2.366   9.145  0.0893  0.5036 -0.0313
  270MOL0     N36332   9.394   2.389   9.008 -0.0970  0.5297  0.2263
  270MOL0     C36333   9.267   2.391   8.947 -0.8021  1.0228 -0.9339
  270MOL0     C36334   9.287   2.421   8.815  0.9236 -0.6705 -0.0075
  270MOL0     C36335   9.171   2.418   8.713  0.8520 -0.3849 -0.6363
  270MOL0     C36336   9.128   2.272   8.699 -0.4164 -0.1630 -0.3830
  270MOL0     C36337   9.009   2.254   8.608 -0.1674  0.2764  0.8111
  270MOL0     C36338   8.881   2.324   8.644 -0.2111  0.4331 -0.8550
  270MOL0     O36339   8.855   2.313   8.788 -0.9753 -0.1717 -0.0260
  270MOL0     C36340   8.768   2.402   8.842 -0.1460 -0.9780 -0.3981
  270MOL0     C36341   8.787   2.416   8.980  0.3234 -0.2461 -0.3923
  270MOL0     C36342   8.719   2.502   9.064  0.4709  0.0060 -0.3220
  270MOL0     C36343   8.748   2.497   9.206  0.0471  0.0158 -0.8683
  270MOL0     C36344   8.633   2.587   8.989  0.3433 -0.5649 -1.1277
  270MOL0     C36345   8.547   2.691   9.069 -0.0941  0.1798  0.3131
  270MOL0     O36346   8.473   2.776   8.994 -0.0540  0.1814  0.4674
  270MOL0     C36347   8.357   2.808   9.052  0.1027 -0.2517  0.2035
  270MOL0     C36348   8.245   2.724   9.063  0.0901  0.6906 -0.0140
  270MOL0     C36349   8.111   2.764   9.103 -0.7837 -0.1345 -0.2684
  270MOL0     C36350   8.108   2.894   9.157 -0.4963  0.3854 -0.5358
  270MOL0     O36351   7.995   2.921   9.221  0.0329  0.4897  0.3795
  270MOL0     C36352   7.987   3.040   9.300  0.3842 -0.4533 -0.0394
  270MOL0     C36353   7.842   3.056   9.358  0.0053  0.2492  0.5531
  270MOL0     C36354   7.740   3.116   9.266 -0.5613 -0.0761  0.7839
  270MOL0     C36355   7.613   3.153   9.352  0.3336 -0.2976 -0.5330
  270MOL0     C36356   7.498   3.198   9.261  0.0767  0.5935 -0.2897
  270MOL0     C36357   7.367   3.243   9.335  0.2281  0.4110  0.5061
  270MOL0     C36358   7.261   3.279   9.237  0.3865 -0.4299  0.1511
  270MOL0     C36359   7.278   3.431   9.198 -0.1077  0.2780 -0.2134
  270MOL0    Cl36360   7.141   3.464   9.082 -0.1850  0.3556 -0.1606
  270MOL0     C36361   8.210   2.984   9.143 -0.0523  0.5200  0.0782
  270MOL0     C36362   8.334   2.939   9.086 -0.0449 -0.3864 -1.0398
  270MOL0     O36363   8.556   2.692   9.190  0.3181 -0.6255 -0.0402
  270MOL0     C36364   8.614   2.592   8.848 -0.9686  0.3014 -0.1039
  270MOL0     C36365   8.693   2.499   8.773  0.2024  0.0269 -0.0048
  270MOL0     N36366   9.425   2.446   8.792 -0.0485  0.0177  0.9261
  270MOL0     N36367   9.481   2.434   8.910  0.3771  0.6872 -0.6548
  270MOL0     C36368  10.371   2.746   9.349  0.4024  0.4250 -0.1480
  270MOL0     C36369  10.513   2.756   9.342  0.6480 -1.2919 -0.3537
  270MOL0     C36370  10.906   2.949   9.329 -0.2428 -0.6241  0.7020
  270MOL0     C36371  10.985   2.859   9.403 -0.6710  0.5884  0.0790
  270MOL0     C36372  11.127   2.854   9.385  0.4642 -0.1938  0.0102
  270MOL0     C36373  11.194   2.947   9.305 -0.7438  0.2487 -0.2548
  270MOL0     O36374  11.327   2.949   9.286  0.0123 -0.2112 -0.4608
  270MOL0     C36375  11.396   3.073   9.299 -0.7658  0.2664  0.0503
  270MOL0     C36376  11.526   3.057   9.385 -0.5669  0.0080  0.4160
  270MOL0     C36377  11.517   2.982   9.516 -0.0598 -0.1957 -0.6844
  270MOL0     C36378  11.649   3.004   9.595 -0.2426  0.4310  0.0643
  270MOL0     C36379  11.643   2.949   9.731 -0.2966 -1.0767  0.4181
  270MOL0     C36380  11.652   2.911   9.840  0.3804 -0.3363 -0.5345
  270MOL0     C36381  11.114   3.030   9.225  0.1039  1.0947 -0.2500
  270MOL0     C36382  10.972   3.031   9.236  0.3038  0.5968  0.6323
  270MOL0     H36383  10.550   2.993   9.574  0.8303 -0.0428 -2.2516
  270MOL0     H36384  10.318   2.960   9.607  1.1856 -3.4977  3.9922
  270MOL0     H36385  10.078   2.745   9.254  2.1279 -1.5509  0.4002
  270MOL0     H36386  10.116   2.623   9.371  1.5852  0.2773  1.1468
  270MOL0     H36387   9.920   2.735   9.517 -0.5562 -2.1809 -0.2910
  270MOL0     H36388   9.902   2.838   9.385  1.3024  0.7527  1.2853
  270MOL0     H36389   9.902   2.595   9.244  1.1836 -1.6261  0.8934
  270MOL0     H36390   9.870   2.522   9.401  1.9827  0.6523  0.2688
  270MOL0     H36391   9.674   2.712   9.384  3.0616  0.4571  0.6434
  270MOL0     H36392   9.722   2.723   9.218  2.1302 -2.0519 -1.6648
  270MOL0     H36393   9.673   2.475   9.192  1.1021  0.3518 -0.4504
  270MOL0     H36394   9.610   2.485   9.365 -0.5579 -1.6487 -1.4058
  270MOL0     H36395   9.462   2.672   9.279  0.2994 -0.3926  0.5279
  270MOL0     H36396   9.525   2.616   9.121  0.7215 -0.3585  0.4783
  270MOL0     H36397   9.364   2.460   9.326 -0.7688  1.0194 -0.0069
  270MOL0     H36398   9.300   2.550   9.192 -0.1603  0.9780 -2.0935
  270MOL0     H36399   9.353   2.294   9.185 -1.0992  0.2243 -2.4698
  270MOL0     H36400   9.529   2.331   9.151  0.3226  0.0789 -4.0561
  270MOL0     H36401   9.180   2.363   9.006  2.2463  0.2147  3.7548
  270MOL0     H36402   9.085   2.473   8.752  2.4925  0.8397  1.5074
  270MOL0     H36403   9.198   2.455   8.614  0.1947  0.4861 -0.5005
  270MOL0     H36404   9.094   2.234   8.796  1.8347  1.8918  1.3243
  270MOL0     H36405   9.216   2.219   8.663 -1.8641 -0.6307 -3.5811
  270MOL0     H36406   8.988   2.148   8.594  1.7987 -0.4490  2.7564
  270MOL0     H36407   9.037   2.287   8.507  2.9218 -2.4528  0.6280
  270MOL0     H36408   8.801   2.272   8.591  0.0051  0.2082 -0.9643
  270MOL0     H36409   8.904   2.428   8.620  2.7295  1.1781  3.8562
  270MOL0     H36410   8.854   2.348   9.031 -0.9854 -1.2848  0.0074
  270MOL0     H36411   8.806   2.411   9.240 -0.7728 -0.0381  0.5059
  270MOL0     H36412   8.806   2.586   9.230  1.3568 -1.6726  3.2049
  270MOL0     H36413   8.663   2.504   9.276  1.0464  2.4912  0.2181
  270MOL0     H36414   8.243   2.623   9.022 -3.0700 -0.9840  3.6016
  270MOL0     H36415   8.030   2.698   9.134  0.4806 -1.0504  1.2124
  270MOL0     H36416   8.054   3.033   9.385  1.9080 -1.2557 -1.2498
  270MOL0     H36417   8.011   3.126   9.237 -0.9892  0.6290  0.8387
  270MOL0     H36418   7.811   2.954   9.382 -0.8671 -0.4422 -3.0281
  270MOL0     H36419   7.849   3.122   9.446 -1.1983 -0.9994  1.6237
  270MOL0     H36420   7.709   3.044   9.190 -0.4205 -1.2755  1.8188
  270MOL0     H36421   7.777   3.206   9.216  0.7333 -2.2924 -2.5843
  270MOL0     H36422   7.578   3.065   9.406  1.4840 -2.2241 -2.7464
  270MOL0     H36423   7.627   3.231   9.428 -0.6407 -3.0574  2.7346
  270MOL0     H36424   7.468   3.107   9.208 -0.4059 -0.5349  1.7928
  270MOL0     H36425   7.538   3.271   9.190 -0.1968 -0.8574 -2.0205
  270MOL0     H36426   7.325   3.149   9.372 -5.2562  2.2522 -0.1095
  270MOL0     H36427   7.393   3.315   9.413  0.6127 -0.3483  1.0864
  270MOL0     H36428   7.160   3.257   9.272  0.3534  1.1039  1.1259
  270MOL0     H36429   7.279   3.225   9.144 -1.7116 -3.7716  1.4911
  270MOL0     H36430   7.269   3.498   9.284 -2.0842 -0.7803  0.4697
  270MOL0     H36431   7.371   3.454   9.146  1.6745 -0.1411  2.5677
  270MOL0     H36432   8.214   3.086   9.182  1.9259  1.1999 -1.7127
  270MOL0     H36433   8.411   3.014   9.071  0.5381 -0.7094  0.2346
  270MOL0     H36434   8.557   2.667   8.794 -0.5359  1.5823  1.1705
  270MOL0     H36435   8.694   2.500   8.664  2.0262 -1.4333 -0.0663
  270MOL0     H36436  10.316   2.686   9.277  1.0936  0.4753 -0.7356
  270MOL0     H36437  10.565   2.691   9.272 -0.6817 -1.7001 -1.0016
  270MOL0     H36438  10.940   2.798   9.482 -0.4001  1.5835  1.0180
  270MOL0     H36439  11.179   2.779   9.443 -1.3117 -0.3341  1.4983
  270MOL0     H36440  11.424   3.091   9.195 -2.2195 -0.7685 -0.5574
  270MOL0     H36441  11.341   3.158   9.340 -1.4100  1.0599 -2.2677
  270MOL0     H36442  11.564   3.157   9.408 -2.5676  0.5332  1.7400
  270MOL0     H36443  11.592   2.995   9.324  1.9596 -1.3044  4.1356
  270MOL0     H36444  11.503   2.881   9.477 -2.8526  0.3035 -1.1996
  270MOL0     H36445  11.427   3.019   9.565  1.9504  1.8714  1.7134
  270MOL0     H36446  11.658   3.113   9.601 -2.7928  0.7350 -0.6143
  270MOL0     H36447  11.731   2.952   9.545  1.6889  3.0023  0.3613
  270MOL0     H36448  11.654   2.885   9.944 -0.2996 -1.6821 -0.8338
  270MOL0     H36449  11.159   3.108   9.165  1.3092  0.3114 -0.3989
  270MOL0     H36450  10.914   3.086   9.163  0.0742 -1.1208 -0.5494
  271MOL0     O36451  10.432   6.282   0.917  0.0030 -0.7929  0.3301
  271MOL0     C36452  10.529   6.338   0.966 -1.0418  0.1198  0.1755
  271MOL0     O36453  10.543   6.379   1.096 -0.3374 -0.1076  0.3991
  271MOL0     C36454  10.454   6.358   1.192  0.2040 -0.7790 -0.9854
  271MOL0     C36455  10.422   6.471   1.276 -0.6283 -0.9887 -0.9747
  271MOL0     C36456  10.315   6.471   1.369  0.1370 -0.4916 -0.4211
  271MOL0     C36457  10.230   6.362   1.378  0.2424  0.0254 -0.5901
  271MOL0     O36458  10.123   6.379   1.465  1.1040  0.0290 -0.0776
  271MOL0     C36459  10.054   6.274   1.527 -0.6602  0.2476  0.4334
  271MOL0     C36460   9.956   6.332   1.625  0.0967 -0.9543 -0.0582
  271MOL0     C36461   9.815   6.325   1.569 -0.0644  0.7105 -1.0759
  271MOL0     C36462   9.735   6.449   1.611 -0.3805 -0.2979  0.5535
  271MOL0     C36463   9.594   6.426   1.567 -0.4882  0.9110 -0.5234
  271MOL0     C36464   9.496   6.549   1.591 -0.0328 -0.0466  0.6663
  271MOL0     C36465   9.355   6.508   1.564  0.0489 -0.3709  0.1443
  271MOL0     C36466   9.273   6.496   1.698 -0.1058  0.3378  0.8558
  271MOL0     N36467   9.129   6.471   1.668  0.3867 -0.5074  1.0488
  271MOL0     C36468   9.019   6.513   1.734  0.0531 -0.4132  0.3287
  271MOL0     C36469   8.912   6.466   1.668 -0.1078 -0.5607 -0.4468
  271MOL0     C36470   8.764   6.500   1.703 -0.6155  0.2295  0.7033
  271MOL0     C36471   8.693   6.388   1.787 -0.5047  0.0978  1.1952
  271MOL0     C36472   8.539   6.398   1.772 -0.3566 -0.2412 -0.6495
  271MOL0     C36473   8.472   6.313   1.879 -0.9101 -0.8061 -1.1796
  271MOL0     O36474   8.328   6.343   1.877 -0.0791  0.4035 -0.3311
  271MOL0     C36475   8.261   6.406   1.976 -0.5149 -0.5999 -0.3502
  271MOL0     C36476   8.124   6.370   1.992  0.5590 -0.1543 -0.4927
  271MOL0     C36477   8.041   6.426   2.091  0.0892 -1.1465  1.2920
  271MOL0     C36478   7.898   6.367   2.096 -0.5661 -0.2498  0.6777
  271MOL0     C36479   8.087   6.530   2.167  0.7756 -0.7104 -0.4212
  271MOL0     C36480   8.016   6.595   2.280 -0.2538 -0.1330 -0.1859
  271MOL0     O36481   7.892   6.544   2.325  1.1975  0.2139  0.4872
  271MOL0     C36482   7.852   6.533   2.452  0.1368 -0.7813 -0.3910
  271MOL0     C36483   7.712   6.531   2.480 -0.5272  0.0432 -0.0401
  271MOL0     C36484   7.661   6.543   2.611 -0.1766 -0.0859  0.8956
  271MOL0     C36485   7.749   6.553   2.719 -0.0734  0.7791  0.1657
  271MOL0     O36486   7.718   6.550   2.852  0.3164 -0.1219 -0.1402
  271MOL0     C36487   7.580   6.519   2.892  0.7428 -0.4818 -0.1441
  271MOL0     C36488   7.560   6.516   3.038 -0.3289  0.5271  0.2249
  271MOL0     C36489   7.413   6.499   3.075  0.7441 -0.0245 -0.0781
  271MOL0     C36490   7.414   6.458   3.233 -0.0112  0.0509  0.3846
  271MOL0     C36491   7.264   6.447   3.282  0.5084 -0.2961 -0.4337
  271MOL0     C36492   7.252   6.434   3.430  0.1349 -0.0555  0.1916
  271MOL0     C36493   7.113   6.411   3.496  0.2314 -0.3586 -0.2224
  271MOL0     C36494   7.010   6.504   3.444  1.0956 -1.4353 -0.4091
  271MOL0    Cl36495   6.933   6.449   3.285 -0.2903  0.2034 -0.2434
  271MOL0     C36496   7.882   6.568   2.697 -0.6769  0.2451  0.4559
  271MOL0     C36497   7.933   6.549   2.568 -1.1999  0.5141 -0.0100
  271MOL0     O36498   8.062   6.696   2.329  0.3431 -0.1128  0.5029
  271MOL0     C36499   8.224   6.560   2.147  0.1259 -0.0027 -0.7478
  271MOL0     C36500   8.318   6.499   2.064  0.4724  0.4416 -0.4116
  271MOL0     N36501   8.953   6.381   1.571  0.0145  0.8827  0.2321
  271MOL0     N36502   9.083   6.383   1.567 -0.3989 -0.6044 -0.5703
  271MOL0     C36503  10.260   6.247   1.299  0.2101 -0.9467 -0.1841
  271MOL0     C36504  10.368   6.247   1.205 -0.0491  0.3281  0.7228
  271MOL0     C36505  10.635   6.360   0.871 -0.5438 -0.2324 -0.6467
  271MOL0     C36506  10.765   6.333   0.912  0.2476  0.2442 -0.1966
  271MOL0     C36507  10.859   6.333   0.802 -0.6083  0.1315  0.4313
  271MOL0     C36508  10.837   6.380   0.675 -0.2799  0.7046  0.2088
  271MOL0     O36509  10.930   6.402   0.573 -0.5970 -0.7540 -0.1282
  271MOL0     C36510  11.068   6.355   0.591 -0.5826  0.3596  0.7043
  271MOL0     C36511  11.164   6.464   0.637 -2.1375  0.1253  0.2844
  271MOL0     C36512  11.315   6.447   0.597  0.4582 -0.7513  0.0042
  271MOL0     C36513  11.338   6.456   0.446  0.6538  0.8447 -0.9202
  271MOL0     C36514  11.481   6.452   0.433  0.2187  0.2080 -0.7813
  271MOL0     C36515  11.598   6.446   0.404 -0.0850 -0.3116  0.1361
  271MOL0     C36516  10.708   6.418   0.646  0.3023  0.5642 -0.2396
  271MOL0     C36517  10.611   6.407   0.742  0.1757  0.1699 -0.0171
  271MOL0     H36518  10.487   6.556   1.254  0.0691 -1.8898 -2.5722
  271MOL0     H36519  10.295   6.552   1.438 -3.1714 -0.0041 -1.7794
  271MOL0     H36520  10.009   6.217   1.445  0.6477  1.1662 -0.9681
  271MOL0     H36521  10.138   6.224   1.575  0.0897  1.0849  0.0170
  271MOL0     H36522   9.960   6.283   1.723 -1.0371  0.9647  1.0159
  271MOL0     H36523   9.984   6.433   1.657  2.3120 -1.8977  1.2592
  271MOL0     H36524   9.821   6.321   1.460  0.5742  2.1097 -1.1256
  271MOL0     H36525   9.775   6.229   1.602  2.5719 -1.4375 -3.5480
  271MOL0     H36526   9.734   6.459   1.720 -1.3324  3.1713  0.3610
  271MOL0     H36527   9.781   6.540   1.572  0.9353 -1.0447  0.2961
  271MOL0     H36528   9.603   6.396   1.462  0.6448 -1.8668  0.2794
  271MOL0     H36529   9.557   6.335   1.615 -0.0723  1.2809  0.5267
  271MOL0     H36530   9.500   6.584   1.695  2.9579 -0.2681  0.7091
  271MOL0     H36531   9.528   6.631   1.526  0.8522 -1.2038 -0.3898
  271MOL0     H36532   9.301   6.578   1.501  1.0715 -0.5446 -0.9584
  271MOL0     H36533   9.346   6.413   1.510  1.8116 -0.4601 -0.0784
  271MOL0     H36534   9.280   6.588   1.756  1.4117  0.9564 -0.2365
  271MOL0     H36535   9.316   6.423   1.768 -2.1093  1.8070  3.8502
  271MOL0     H36536   9.022   6.583   1.816 -0.3774 -1.4368  1.2517
  271MOL0     H36537   8.760   6.600   1.747  1.5396  1.3449 -1.4233
  271MOL0     H36538   8.714   6.502   1.606 -0.3837  2.8735  0.5586
  271MOL0     H36539   8.727   6.399   1.891  1.7589  3.3273  0.2851
  271MOL0     H36540   8.721   6.290   1.748 -1.7314 -0.1562  0.8989
  271MOL0     H36541   8.518   6.367   1.670  0.4230  0.8428 -1.1556
  271MOL0     H36542   8.508   6.501   1.793  0.0512 -0.2208 -0.1012
  271MOL0     H36543   8.510   6.325   1.980 -1.7487  1.9473 -1.1075
  271MOL0     H36544   8.483   6.209   1.848  0.5887 -1.2353  0.6336
  271MOL0     H36545   8.090   6.275   1.953 -0.0202 -0.1819  0.0616
  271MOL0     H36546   7.874   6.307   2.184 -1.7758  0.2886  0.7361
  271MOL0     H36547   7.825   6.449   2.084  1.1805  1.2839  0.0400
  271MOL0     H36548   7.883   6.306   2.006 -0.7915  1.4693 -0.5006
  271MOL0     H36549   7.652   6.523   2.389 -0.5251 -1.5403  0.0694
  271MOL0     H36550   7.556   6.568   2.620  0.2428  1.3829  2.1505
  271MOL0     H36551   7.502   6.582   2.850 -0.9790 -0.8279  2.3355
  271MOL0     H36552   7.552   6.420   2.856  0.4934  0.6233 -3.2965
  271MOL0     H36553   7.607   6.426   3.077 -2.1938  0.0805  1.5748
  271MOL0     H36554   7.593   6.607   3.089  2.8865 -0.5201  0.2434
  271MOL0     H36555   7.371   6.414   3.021 -0.2080  0.6008 -0.3348
  271MOL0     H36556   7.354   6.589   3.056  0.5792  0.4436  2.3235
  271MOL0     H36557   7.459   6.360   3.250 -3.0766 -0.8814  5.5805
  271MOL0     H36558   7.472   6.528   3.294 -0.3099 -0.3669  1.1649
  271MOL0     H36559   7.224   6.359   3.231  2.2603 -2.0874  1.1193
  271MOL0     H36560   7.213   6.538   3.248 -0.5127 -0.2559  1.1071
  271MOL0     H36561   7.316   6.350   3.459  1.3262 -0.5662 -3.3410
  271MOL0     H36562   7.299   6.524   3.470  1.3951  0.4501 -2.2019
  271MOL0     H36563   7.132   6.428   3.603  2.8094 -1.6201 -0.3751
  271MOL0     H36564   7.088   6.304   3.490 -2.4747  0.1825  0.1138
  271MOL0     H36565   7.043   6.607   3.432  1.2905 -1.1534  1.9576
  271MOL0     H36566   6.929   6.506   3.517 -1.9601  1.8606 -3.5034
  271MOL0     H36567   7.949   6.595   2.778 -1.0643  0.2850  0.7672
  271MOL0     H36568   8.042   6.552   2.572 -1.1941  4.6026  2.5040
  271MOL0     H36569   8.263   6.644   2.203 -1.1861  0.8208 -1.0119
  271MOL0     H36570   8.423   6.525   2.061  0.0970  2.2279  0.5963
  271MOL0     H36571  10.205   6.153   1.295  2.4153 -2.2653 -1.9533
  271MOL0     H36572  10.381   6.169   1.130 -0.5948 -1.8592  2.8032
  271MOL0     H36573  10.795   6.305   1.012  0.0068 -2.6385 -0.8507
  271MOL0     H36574  10.962   6.309   0.827 -0.3445 -1.3400 -1.7656
  271MOL0     H36575  11.063   6.268   0.657  2.0426 -1.0497 -0.7865
  271MOL0     H36576  11.087   6.329   0.486  0.7911  0.3587  0.9396
  271MOL0     H36577  11.152   6.487   0.743 -1.2037  2.1756 -0.0025
  271MOL0     H36578  11.140   6.551   0.576 -0.7154  1.1516  1.1066
  271MOL0     H36579  11.341   6.353   0.646  0.4102 -0.1441  1.2586
  271MOL0     H36580  11.358   6.534   0.650 -1.4584 -0.0747  0.5124
  271MOL0     H36581  11.294   6.544   0.398  1.2903  2.2284  0.9251
  271MOL0     H36582  11.296   6.365   0.403 -1.5683  0.9511  0.8108
  271MOL0     H36583  11.703   6.437   0.383  0.3734  0.0767  2.0250
  271MOL0     H36584  10.678   6.457   0.550  1.0133  1.1381 -0.2375
  271MOL0     H36585  10.506   6.433   0.731  0.1486  0.0583 -0.0286
  272MOL0     O36586   0.986   4.655   1.688 -0.5984 -0.1777  0.6424
  272MOL0     C36587   1.002   4.726   1.592  0.2196  0.1871  0.1897
  272MOL0     O36588   0.916   4.753   1.495  0.5865 -0.6578 -0.0471
  272MOL0     C36589   0.786   4.696   1.510 -0.5073  0.0271  0.6106
  272MOL0     C36590   0.765   4.583   1.433  0.1431 -0.2254 -0.8392
  272MOL0     C36591   0.641   4.523   1.427  0.0125 -1.0237 -0.3040
  272MOL0     C36592   0.536   4.574   1.497 -0.1054  0.1842 -0.0757
  272MOL0     O36593   0.417   4.509   1.487 -0.1669  0.0395  0.3759
  272MOL0     C36594   0.317   4.523   1.585 -0.4449 -0.0125  0.6004
  272MOL0     C36595   0.199   4.433   1.562  0.0638 -1.0307 -0.0119
  272MOL0     C36596   0.131   4.428   1.423  0.2817  0.1228 -0.0116
  272MOL0     C36597  -0.009   4.359   1.418  0.0410 -0.3465  0.4152
  272MOL0     C36598  -0.013   4.269   1.293 -0.1920 -0.9903 -0.3407
  272MOL0     C36599  -0.161   4.224   1.256  0.3096  0.2324  0.6543
  272MOL0     C36600  -0.232   4.137   1.366 -0.4155  0.9881  0.0041
  272MOL0     C36601  -0.159   4.006   1.392  0.8915  0.3704  0.6268
  272MOL0     N36602  -0.264   3.915   1.448  0.1562  0.2746  1.2997
  272MOL0     C36603  -0.367   3.938   1.534  0.6799  0.5793  0.0674
  272MOL0     C36604  -0.426   3.823   1.555  0.0535  0.9749  0.1195
  272MOL0     C36605  -0.540   3.776   1.639 -0.3522  0.1346  0.0904
  272MOL0     C36606  -0.502   3.767   1.788  0.7053 -0.5400 -0.3231
  272MOL0     C36607  -0.605   3.684   1.863 -1.0523  0.3924  0.2299
  272MOL0     C36608  -0.567   3.663   2.006 -0.0175 -0.2487 -0.0670
  272MOL0     O36609  -0.440   3.604   2.019  0.0332 -0.3816  0.4112
  272MOL0     C36610  -0.423   3.469   2.032 -0.8412  0.0857 -0.2383
  272MOL0     C36611  -0.299   3.429   2.072 -0.4187 -0.8536  0.7053
  272MOL0     C36612  -0.273   3.291   2.101  0.4533  0.6990  0.5481
  272MOL0     C36613  -0.132   3.267   2.154 -0.2989 -0.4512  0.2675
  272MOL0     C36614  -0.367   3.193   2.065  0.4136 -0.0115 -0.2736
  272MOL0     C36615  -0.345   3.045   2.061 -0.7593 -0.3893  0.1246
  272MOL0     O36616  -0.452   2.966   2.042  0.1388  0.6074  0.1736
  272MOL0     C36617  -0.457   2.856   2.135  0.3701  0.0505  0.1063
  272MOL0     C36618  -0.488   2.872   2.275  0.0223  1.0065 -0.4321
  272MOL0     C36619  -0.514   2.758   2.354  0.3982 -0.6010  0.7889
  272MOL0     C36620  -0.524   2.631   2.300  0.5881  0.1936 -0.1843
  272MOL0     O36621  -0.582   2.535   2.382 -0.6258  0.5062  0.6798
  272MOL0     C36622  -0.633   2.412   2.314 -0.0019  0.6570 -0.6787
  272MOL0     C36623  -0.729   2.331   2.399  0.0338  0.8329 -0.7284
  272MOL0     C36624  -0.770   2.204   2.337  0.3029 -0.1840 -0.8361
  272MOL0     C36625  -0.782   2.203   2.186 -0.3062  0.3596 -0.2649
  272MOL0     C36626  -0.871   2.090   2.140 -0.8114 -0.2619  0.2316
  272MOL0     C36627  -0.862   2.062   1.993 -0.2820 -0.5550  1.1021
  272MOL0     C36628  -0.736   1.981   1.940  0.3427  0.0070 -0.2413
  272MOL0     C36629  -0.761   1.940   1.793  0.0868 -0.0299  0.3096
  272MOL0    Cl36630  -0.614   1.883   1.718 -0.0346  0.3604 -0.6290
  272MOL0     C36631  -0.501   2.619   2.160 -0.0146  0.4423  0.5737
  272MOL0     C36632  -0.467   2.729   2.077  0.2590  0.7224 -0.4026
  272MOL0     O36633  -0.232   3.004   2.090  0.5173 -0.7704  0.0797
  272MOL0     C36634  -0.488   3.236   2.009 -0.5681  0.2606 -0.1352
  272MOL0     C36635  -0.510   3.368   1.992 -0.7102 -0.1297 -0.4313
  272MOL0     N36636  -0.364   3.728   1.469  0.6601  0.5035  0.5810
  272MOL0     N36637  -0.268   3.784   1.408  0.0868 -0.6515  0.4649
  272MOL0     C36638   0.549   4.686   1.575 -0.3585 -1.8715  0.5189
  272MOL0     C36639   0.677   4.749   1.579  0.2709  0.0987 -0.0784
  272MOL0     C36640   1.130   4.797   1.573 -0.3352  0.3424  1.0899
  272MOL0     C36641   1.161   4.859   1.450 -0.7525  0.9694 -0.5234
  272MOL0     C36642   1.284   4.918   1.432 -0.4140  0.4678  0.1544
  272MOL0     C36643   1.373   4.928   1.539  0.0044 -0.7246  0.2584
  272MOL0     O36644   1.490   5.002   1.528 -0.5444  0.3541 -0.5485
  272MOL0     C36645   1.587   5.010   1.642 -0.0002  0.5527  0.3259
  272MOL0     C36646   1.682   4.888   1.665  0.4581 -0.1664 -0.0661
  272MOL0     C36647   1.785   4.861   1.563  0.1135 -0.0961  0.0316
  272MOL0     C36648   1.903   4.790   1.625  0.3432  0.5228 -0.2503
  272MOL0     C36649   1.964   4.716   1.512  0.2022  1.2661 -0.5304
  272MOL0     C36650   2.023   4.681   1.415 -0.0139 -0.0803  0.5309
  272MOL0     C36651   1.342   4.869   1.661 -0.2417  0.0660  0.2305
  272MOL0     C36652   1.225   4.792   1.673 -0.4997 -0.3314  0.5004
  272MOL0     H36653   0.843   4.530   1.381 -2.0919 -3.8136 -0.8950
  272MOL0     H36654   0.617   4.437   1.367 -1.3185  0.9585 -2.8133
  272MOL0     H36655   0.364   4.500   1.681  3.0113  1.8584 -0.4607
  272MOL0     H36656   0.283   4.627   1.591 -1.4815 -0.0697 -2.4433
  272MOL0     H36657   0.230   4.333   1.592  3.1450 -0.1276  0.0745
  272MOL0     H36658   0.132   4.478   1.636  0.9125  2.4768 -1.1822
  272MOL0     H36659   0.121   4.526   1.375 -0.3686 -0.1109 -0.3775
  272MOL0     H36660   0.199   4.373   1.357 -0.7437 -2.7986  1.2355
  272MOL0     H36661  -0.027   4.304   1.511  0.4585  1.0580  1.3591
  272MOL0     H36662  -0.096   4.424   1.401 -2.8694 -4.4880 -2.8031
  272MOL0     H36663   0.039   4.309   1.206 -1.7194  2.7919  0.2723
  272MOL0     H36664   0.054   4.188   1.321  0.6170 -0.4242 -0.6228
  272MOL0     H36665  -0.223   4.313   1.247  1.9958  1.3299 -0.9989
  272MOL0     H36666  -0.154   4.165   1.164  3.4154  2.0618 -0.4355
  272MOL0     H36667  -0.229   4.197   1.458  1.8175  0.1813  0.5179
  272MOL0     H36668  -0.336   4.124   1.336 -0.2740 -0.3722  0.0649
  272MOL0     H36669  -0.069   4.014   1.453  1.0018  1.5572  0.3363
  272MOL0     H36670  -0.120   3.963   1.299 -1.5566 -2.3897  0.7400
  272MOL0     H36671  -0.391   4.029   1.588  1.8289  0.7982  0.2399
  272MOL0     H36672  -0.630   3.839   1.632 -0.3764  0.0898  0.0064
  272MOL0     H36673  -0.576   3.676   1.612  1.1524 -0.2084 -0.7532
  272MOL0     H36674  -0.509   3.870   1.825 -1.7269 -0.5881 -0.4629
  272MOL0     H36675  -0.397   3.746   1.809  0.6652 -1.2137 -0.7820
  272MOL0     H36676  -0.618   3.585   1.819  0.3058 -0.4898  1.7044
  272MOL0     H36677  -0.706   3.725   1.860 -2.3511 -2.6125 -0.2361
  272MOL0     H36678  -0.646   3.614   2.064  1.1076 -0.9001  0.9835
  272MOL0     H36679  -0.552   3.766   2.038  0.7151 -0.1534 -0.6989
  272MOL0     H36680  -0.221   3.504   2.080 -1.5375  0.1263  3.5866
  272MOL0     H36681  -0.071   3.237   2.068 -1.1695  1.0305 -0.9187
  272MOL0     H36682  -0.079   3.358   2.185  0.5052 -1.5352  2.2825
  272MOL0     H36683  -0.108   3.193   2.231  0.6086 -1.6344 -1.1002
  272MOL0     H36684  -0.490   2.970   2.321  1.3286  0.3264  1.1478
  272MOL0     H36685  -0.541   2.762   2.459 -0.2587 -0.1567  0.6136
  272MOL0     H36686  -0.679   2.446   2.221  0.6910  2.0987 -0.5119
  272MOL0     H36687  -0.549   2.349   2.281 -0.9733  0.6156 -3.2368
  272MOL0     H36688  -0.692   2.314   2.501  0.4883  3.9520 -0.2617
  272MOL0     H36689  -0.812   2.398   2.420  1.4714  2.2974  0.5683
  272MOL0     H36690  -0.869   2.187   2.381 -0.3658  1.8604 -1.4260
  272MOL0     H36691  -0.705   2.123   2.371 -1.2214 -1.6755 -1.3081
  272MOL0     H36692  -0.824   2.299   2.154  0.6145  0.1590 -2.1944
  272MOL0     H36693  -0.677   2.188   2.160 -0.7608 -1.0658 -1.4215
  272MOL0     H36694  -0.974   2.104   2.175 -0.6572 -0.5816  0.8293
  272MOL0     H36695  -0.839   2.002   2.196 -1.9565  0.7750  2.6470
  272MOL0     H36696  -0.956   2.010   1.973 -0.3108 -0.0936 -0.0137
  272MOL0     H36697  -0.874   2.153   1.934  0.2844 -0.6634  0.8081
  272MOL0     H36698  -0.725   1.894   2.004  1.5913  0.1738 -0.2043
  272MOL0     H36699  -0.650   2.044   1.963 -1.3269  1.4965  2.3011
  272MOL0     H36700  -0.797   2.023   1.732  0.5880  1.7411  2.3026
  272MOL0     H36701  -0.836   1.860   1.786  0.2959 -0.3951  1.8550
  272MOL0     H36702  -0.509   2.517   2.124 -0.1058  0.8861 -0.7066
  272MOL0     H36703  -0.444   2.714   1.972  1.7980 -0.4787  0.0690
  272MOL0     H36704  -0.557   3.167   1.962 -0.7691  0.0101  0.5166
  272MOL0     H36705  -0.601   3.398   1.940  0.4496  1.5709 -1.5959
  272MOL0     H36706   0.469   4.735   1.630  2.1581  3.1149  0.2892
  272MOL0     H36707   0.692   4.840   1.637  2.0966 -2.2186  3.4213
  272MOL0     H36708   1.091   4.853   1.367 -0.8007 -0.9785 -0.3811
  272MOL0     H36709   1.313   4.945   1.331 -0.8635  1.7471  0.3532
  272MOL0     H36710   1.652   5.090   1.604 -1.2219  0.8653 -1.1653
  272MOL0     H36711   1.554   5.035   1.743  0.9986  4.7491 -0.2117
  272MOL0     H36712   1.621   4.801   1.689 -2.1063  1.8311  1.2222
  272MOL0     H36713   1.730   4.923   1.756 -3.7471  0.0576  2.3269
  272MOL0     H36714   1.808   4.959   1.520 -0.8449 -0.5234 -1.5264
  272MOL0     H36715   1.731   4.808   1.484 -0.1688 -0.8406  0.7067
  272MOL0     H36716   1.863   4.720   1.699  0.9292  1.1766  0.6948
  272MOL0     H36717   1.980   4.848   1.676 -0.2486  0.9712  0.1414
  272MOL0     H36718   2.071   4.647   1.325 -1.1385  1.2907 -0.6486
  272MOL0     H36719   1.399   4.900   1.748  1.3911 -3.5519  0.5978
  272MOL0     H36720   1.222   4.717   1.751  0.5073 -0.5680  0.3350
  273MOL0     O36721   7.187   7.749   0.380 -0.1157 -0.4178  0.8075
  273MOL0     C36722   7.183   7.650   0.451 -0.2669 -0.2320  0.3130
  273MOL0     O36723   7.062   7.591   0.492 -0.6250  0.3478  0.2603
  273MOL0     C36724   6.949   7.671   0.475 -0.6217 -0.3355 -0.4366
  273MOL0     C36725   6.875   7.668   0.351  0.3141 -0.6890  0.0695
  273MOL0     C36726   6.762   7.748   0.346 -0.7289 -0.3019  0.8426
  273MOL0     C36727   6.719   7.836   0.435  0.1092  0.0220 -0.6770
  273MOL0     O36728   6.611   7.920   0.413 -1.4618 -0.0223  0.2728
  273MOL0     C36729   6.556   8.004   0.520 -0.1007 -0.2029  0.1617
  273MOL0     C36730   6.426   8.067   0.467  0.7849 -0.3810  0.0301
  273MOL0     C36731   6.298   7.988   0.500  0.5629  0.8774 -0.5917
  273MOL0     C36732   6.289   7.873   0.395 -0.3701 -0.6966 -0.1065
  273MOL0     C36733   6.157   7.798   0.407  0.5207  0.5785  0.3057
  273MOL0     C36734   6.153   7.686   0.309 -0.2413 -0.5452  0.8112
  273MOL0     C36735   6.038   7.589   0.324 -0.1722  0.0543 -0.5936
  273MOL0     C36736   5.911   7.643   0.279  0.7326  0.3039  0.3837
  273MOL0     N36737   5.793   7.564   0.304  0.0542 -0.4019  0.2581
  273MOL0     C36738   5.707   7.559   0.412 -0.3482  0.8067 -0.4394
  273MOL0     C36739   5.618   7.463   0.373  0.3404  0.0004  0.3948
  273MOL0     C36740   5.518   7.421   0.476  0.1019 -0.5863 -1.2513
  273MOL0     C36741   5.385   7.402   0.416  1.2012 -0.5348  0.5128
  273MOL0     C36742   5.272   7.405   0.519  0.2281 -0.0407  0.0427
  273MOL0     C36743   5.133   7.396   0.465  0.4178  1.3732 -0.0998
  273MOL0     O36744   5.112   7.523   0.399  0.2054 -0.0765  0.0587
  273MOL0     C36745   4.988   7.567   0.370  0.1706  0.6142 -0.1945
  273MOL0     C36746   4.963   7.703   0.373 -1.0649  0.5198  0.7395
  273MOL0     C36747   4.847   7.764   0.339 -0.5580  0.7925 -0.0243
  273MOL0     C36748   4.861   7.911   0.326  0.0448 -0.4344  0.1650
  273MOL0     C36749   4.735   7.681   0.320  0.5545  0.5868 -0.4677
  273MOL0     C36750   4.596   7.736   0.290 -0.1670 -0.3283  0.2353
  273MOL0     O36751   4.502   7.646   0.299  0.4037  0.7423  0.2636
  273MOL0     C36752   4.375   7.677   0.331 -0.0426  0.7434  0.0633
  273MOL0     C36753   4.282   7.736   0.250 -0.6353  0.2268  0.2337
  273MOL0     C36754   4.149   7.744   0.299 -0.2918 -0.7497 -0.0473
  273MOL0     C36755   4.107   7.703   0.425 -0.0015 -0.0017 -0.0008
  273MOL0     O36756   3.975   7.696   0.458 -0.8869 -0.3195  0.6459
  273MOL0     C36757   3.941   7.710   0.593  0.9282 -0.4864 -1.0133
  273MOL0     C36758   3.792   7.755   0.600  0.4314 -0.2338 -0.1310
  273MOL0     C36759   3.746   7.780   0.755  0.2655  0.1569  0.0393
  273MOL0     C36760   3.608   7.851   0.766  0.6860  0.2104 -0.8380
  273MOL0     C36761   3.550   7.871   0.909 -1.0264  0.1539  0.6238
  273MOL0     C36762   3.497   7.742   0.954  0.7529  0.1863 -0.4859
  273MOL0     C36763   3.447   7.750   1.105 -0.8188  0.1611  0.6681
  273MOL0     C36764   3.302   7.772   1.106 -0.4037  0.1173 -0.2751
  273MOL0    Cl36765   3.243   7.885   0.978  0.1340  0.1987 -0.2241
  273MOL0     C36766   4.208   7.645   0.502  1.9005  0.2525 -0.2085
  273MOL0     C36767   4.331   7.633   0.453 -0.6897  0.2802  0.6931
  273MOL0     O36768   4.575   7.853   0.266  0.4360 -0.4850  0.1019
  273MOL0     C36769   4.755   7.537   0.334 -0.8274 -0.4489  0.1334
  273MOL0     C36770   4.880   7.487   0.353  0.4122 -0.1961 -0.9412
  273MOL0     N36771   5.651   7.398   0.256 -0.2754  0.4178 -0.0953
  273MOL0     N36772   5.756   7.467   0.210  0.0142 -0.6134 -0.5702
  273MOL0     C36773   6.799   7.839   0.554 -0.2662  0.4347 -0.4737
  273MOL0     C36774   6.916   7.763   0.564  0.4684 -0.4284 -0.4046
  273MOL0     C36775   7.304   7.586   0.506 -0.2662  0.2005 -0.1361
  273MOL0     C36776   7.293   7.521   0.628 -0.1170 -0.1315  0.6358
  273MOL0     C36777   7.397   7.456   0.685  0.0623 -0.1947  0.1043
  273MOL0     C36778   7.514   7.444   0.612 -0.0975  0.4963  0.6270
  273MOL0     O36779   7.627   7.374   0.653  0.2882 -0.5549  0.0968
  273MOL0     C36780   7.624   7.270   0.757  0.6358 -0.5714 -0.2142
  273MOL0     C36781   7.653   7.338   0.897 -0.5163  0.4110  1.0957
  273MOL0     C36782   7.795   7.390   0.909  0.0241 -0.0428 -0.9914
  273MOL0     C36783   7.896   7.277   0.881 -0.7894  0.1588  0.7137
  273MOL0     C36784   8.016   7.298   0.961 -0.2368  0.0411 -0.0150
  273MOL0     C36785   8.097   7.333   1.047 -0.1180  0.1365  0.2398
  273MOL0     C36786   7.531   7.528   0.507  0.0176  0.0575  0.6390
  273MOL0     C36787   7.433   7.604   0.457  0.1363  0.7667 -0.3728
  273MOL0     H36788   6.880   7.604   0.264  2.0356  0.5815 -0.8299
  273MOL0     H36789   6.705   7.747   0.254 -0.6867  3.3290  0.6523
  273MOL0     H36790   6.521   7.937   0.600 -2.8461  0.9720  0.0449
  273MOL0     H36791   6.617   8.085   0.560 -0.2905 -0.1901  0.4269
  273MOL0     H36792   6.406   8.166   0.507  2.6028 -1.0071  2.7070
  273MOL0     H36793   6.432   8.087   0.359 -1.7924 -0.0992 -0.1374
  273MOL0     H36794   6.280   7.958   0.603 -0.8588 -0.2578 -1.1495
  273MOL0     H36795   6.225   8.067   0.478 -1.1955 -0.3636  0.5790
  273MOL0     H36796   6.294   7.907   0.291  2.6315  1.1716  0.5379
  273MOL0     H36797   6.381   7.816   0.408  0.4839  0.6355 -0.2020
  273MOL0     H36798   6.154   7.755   0.508  6.5573 -1.0777  0.1834
  273MOL0     H36799   6.069   7.860   0.386 -1.0825 -0.8231  2.4284
  273MOL0     H36800   6.154   7.728   0.208  1.5826 -1.3481  0.4608
  273MOL0     H36801   6.249   7.636   0.323  0.5201  1.1730  2.1915
  273MOL0     H36802   6.066   7.505   0.259  0.3402 -0.4793  0.2964
  273MOL0     H36803   6.035   7.549   0.425  2.9760 -0.0040 -0.4192
  273MOL0     H36804   5.914   7.665   0.172 -1.0494 -1.4829 -0.1011
  273MOL0     H36805   5.895   7.737   0.332  1.2643  0.8765 -0.4518
  273MOL0     H36806   5.707   7.626   0.498 -2.0502  2.3626 -1.5898
  273MOL0     H36807   5.559   7.325   0.507  0.0729 -0.8693 -2.0704
  273MOL0     H36808   5.513   7.484   0.566  1.7185 -0.1538 -1.4255
  273MOL0     H36809   5.385   7.307   0.363 -0.9740  0.3775 -1.2230
  273MOL0     H36810   5.361   7.488   0.353 -3.2288 -2.8750 -1.4040
  273MOL0     H36811   5.288   7.505   0.561 -1.0547 -0.1884  0.9689
  273MOL0     H36812   5.284   7.325   0.593 -0.8195  0.5507  0.8840
  273MOL0     H36813   5.058   7.369   0.540  1.5703 -1.0770  0.2727
  273MOL0     H36814   5.137   7.307   0.402 -2.3252  0.6053  0.6713
  273MOL0     H36815   5.056   7.757   0.381 -1.2498  1.5723 -2.6656
  273MOL0     H36816   4.961   7.953   0.343  0.4957 -2.3590  3.0634
  273MOL0     H36817   4.818   7.939   0.230 -0.0130 -1.5454 -0.1381
  273MOL0     H36818   4.793   7.950   0.403 -2.5093 -1.6277 -1.3763
  273MOL0     H36819   4.307   7.767   0.149  0.6592 -1.4861 -0.0216
  273MOL0     H36820   4.064   7.780   0.242  0.2765  3.5363  1.4528
  273MOL0     H36821   3.945   7.614   0.645  3.3908  1.4630  2.8951
  273MOL0     H36822   4.002   7.785   0.644 -0.8882  0.1425  0.3557
  273MOL0     H36823   3.789   7.847   0.541  0.3289 -1.1899 -1.6669
  273MOL0     H36824   3.724   7.676   0.566  0.5398 -0.0302 -0.8505
  273MOL0     H36825   3.830   7.847   0.779  2.6287 -2.4089 -0.4667
  273MOL0     H36826   3.745   7.690   0.818 -0.7742  1.4582  1.9901
  273MOL0     H36827   3.607   7.951   0.722  1.3691 -0.4733 -2.5183
  273MOL0     H36828   3.534   7.803   0.701 -0.8192 -0.2234  1.1044
  273MOL0     H36829   3.468   7.942   0.893 -1.6161 -0.1823  2.0284
  273MOL0     H36830   3.632   7.894   0.979  0.4034  0.3880 -1.0520
  273MOL0     H36831   3.415   7.707   0.891  1.2884 -0.1775 -0.9933
  273MOL0     H36832   3.577   7.667   0.956  1.6618  1.1101  2.1528
  273MOL0     H36833   3.496   7.833   1.155 -0.7124  1.0613 -0.8761
  273MOL0     H36834   3.495   7.666   1.157 -0.7218 -1.3924 -1.7179
  273MOL0     H36835   3.265   7.803   1.204 -1.6706 -3.2164  0.4366
  273MOL0     H36836   3.259   7.673   1.087 -1.2822  0.4984 -0.3174
  273MOL0     H36837   4.179   7.607   0.600 -0.4249  1.5701 -0.3180
  273MOL0     H36838   4.394   7.591   0.531 -0.3503  0.1643  0.3637
  273MOL0     H36839   4.671   7.468   0.346 -1.7527  1.0364  3.4187
  273MOL0     H36840   4.886   7.379   0.357 -2.0643 -0.4630 -2.5050
  273MOL0     H36841   6.777   7.911   0.631 -1.7020 -0.1075 -0.3651
  273MOL0     H36842   6.972   7.788   0.653  0.2065  1.4714 -0.7213
  273MOL0     H36843   7.206   7.538   0.690 -0.1987  1.0334  0.2302
  273MOL0     H36844   7.387   7.414   0.784 -0.5941 -1.5989 -0.5369
  273MOL0     H36845   7.525   7.225   0.773 -0.5437  2.3900  1.9144
  273MOL0     H36846   7.692   7.192   0.723  1.6082  0.2275 -0.1394
  273MOL0     H36847   7.641   7.261   0.973 -1.8843 -0.9373 -0.4110
  273MOL0     H36848   7.577   7.414   0.918 -2.4459 -1.5543  1.5186
  273MOL0     H36849   7.809   7.439   1.006 -1.5556  0.7580 -1.1447
  273MOL0     H36850   7.815   7.468   0.835  0.0597  0.9381  0.0218
  273MOL0     H36851   7.921   7.295   0.776 -2.1114  1.4187  0.5881
  273MOL0     H36852   7.848   7.179   0.892 -0.3455 -0.2769 -0.9311
  273MOL0     H36853   8.175   7.356   1.117  2.2175  0.1187 -2.2084
  273MOL0     H36854   7.627   7.526   0.456 -0.0314 -3.1337  0.4693
  273MOL0     H36855   7.445   7.665   0.368  2.1318  0.3650 -0.4144
  274MOL0     O36856  10.676   7.940   8.642 -0.8646 -0.1900 -0.5386
  274MOL0     C36857  10.676   7.888   8.752  0.0221 -0.6226 -0.0833
  274MOL0     O36858  10.783   7.817   8.806 -0.3392  0.3414 -0.7989
  274MOL0     C36859  10.888   7.797   8.721 -0.3610  0.1892 -0.0310
  274MOL0     C36860  10.977   7.895   8.678  0.6472  0.3186 -0.4029
  274MOL0     C36861  11.080   7.871   8.588 -0.8965  0.2145  0.0195
  274MOL0     C36862  11.102   7.738   8.543 -1.1976 -0.7044 -0.2357
  274MOL0     O36863  11.193   7.693   8.463 -0.0915 -0.2622  0.6369
  274MOL0     C36864  11.325   7.728   8.493 -0.3533  0.5354  0.5263
  274MOL0     C36865  11.412   7.668   8.379  0.3158  0.4333  0.5175
  274MOL0     C36866  11.419   7.513   8.383 -0.0533 -0.1427 -0.0997
  274MOL0     C36867  11.532   7.486   8.280 -0.4605  1.1685  0.0703
  274MOL0     C36868  11.523   7.332   8.239  0.1385  0.0154 -0.1059
  274MOL0     C36869  11.630   7.295   8.135 -0.4351 -0.4375  0.3947
  274MOL0     C36870  11.771   7.303   8.194 -0.1046  0.8552 -0.6160
  274MOL0     C36871  11.848   7.437   8.167 -0.1965 -0.2756 -0.5713
  274MOL0     N36872  11.986   7.411   8.118  0.3382  0.4913 -0.1169
  274MOL0     C36873  12.028   7.370   7.986 -0.1702 -0.3040 -0.5634
  274MOL0     C36874  12.157   7.327   8.015  0.2554  0.4274 -0.4203
  274MOL0     C36875  12.251   7.253   7.916 -0.6149 -0.5981  0.2464
  274MOL0     C36876  12.385   7.331   7.892 -0.8909  0.8255 -0.7527
  274MOL0     C36877  12.500   7.250   7.815 -0.0818 -0.0730 -0.4721
  274MOL0     C36878  12.467   7.231   7.669 -0.1548 -0.1904  0.3503
  274MOL0     O36879  12.455   7.354   7.603  0.0692  0.2170 -0.5146
  274MOL0     C36880  12.414   7.370   7.476  0.6259  0.2708  0.2159
  274MOL0     C36881  12.414   7.499   7.419 -0.4264  0.2409  0.4519
  274MOL0     C36882  12.359   7.528   7.292 -0.9360  0.7420 -0.0311
  274MOL0     C36883  12.355   7.680   7.253  0.9894 -0.5865 -0.1226
  274MOL0     C36884  12.324   7.416   7.209  0.4718 -0.6428 -0.8021
  274MOL0     C36885  12.273   7.421   7.073  1.1064 -0.7567 -0.5822
  274MOL0     O36886  12.232   7.305   7.021 -0.7260 -0.5391 -0.0733
  274MOL0     C36887  12.186   7.292   6.893 -0.5020 -0.7915  0.4412
  274MOL0     C36888  12.285   7.274   6.789  0.0544  0.7494  0.4867
  274MOL0     C36889  12.247   7.286   6.653  0.4121  0.6874  0.1169
  274MOL0     C36890  12.110   7.307   6.617 -0.0093  0.2837 -0.8686
  274MOL0     O36891  12.056   7.329   6.492  0.6063 -0.0460  0.0915
  274MOL0     C36892  12.149   7.332   6.384 -0.5598  0.3426 -0.4443
  274MOL0     C36893  12.080   7.411   6.272  0.7407  1.4940  0.9756
  274MOL0     C36894  11.965   7.326   6.213  0.5880  0.4052  1.0278
  274MOL0     C36895  11.881   7.396   6.108 -0.4044 -0.4029 -0.0571
  274MOL0     C36896  11.779   7.297   6.050 -0.5235 -0.5762 -0.8677
  274MOL0     C36897  11.664   7.255   6.148 -0.9240  0.4069  0.1862
  274MOL0     C36898  11.582   7.372   6.198  0.5986  0.2432  0.8583
  274MOL0     C36899  11.462   7.312   6.274 -0.9781 -0.7210 -0.3936
  274MOL0    Cl36900  11.411   7.424   6.408  0.5367 -0.1553  0.0186
  274MOL0     C36901  12.019   7.300   6.725  0.3220 -0.1187 -0.3539
  274MOL0     C36902  12.054   7.303   6.857  0.0498  1.1920 -0.0263
  274MOL0     O36903  12.258   7.530   7.022  0.2769  0.1318 -0.1573
  274MOL0     C36904  12.328   7.288   7.268  0.0022  0.1711 -0.3878
  274MOL0     C36905  12.366   7.262   7.399  0.1081  0.0459 -0.0871
  274MOL0     N36906  12.186   7.346   8.147  0.0537 -0.7422 -0.3006
  274MOL0     N36907  12.095   7.404   8.207 -0.7594 -0.0238  0.3818
  274MOL0     C36908  11.013   7.640   8.585 -0.1072 -0.3194  0.2410
  274MOL0     C36909  10.916   7.671   8.670  1.0775 -0.3983 -0.5215
  274MOL0     C36910  10.560   7.905   8.835 -0.1121  0.3756  1.0284
  274MOL0     C36911  10.545   7.831   8.954 -0.0378 -0.5762  0.6658
  274MOL0     C36912  10.428   7.853   9.034 -0.5626  0.8050  1.1747
  274MOL0     C36913  10.328   7.941   8.999  0.6656  0.3992 -0.4067
  274MOL0     O36914  10.222   7.956   9.088  0.1547  0.6364 -0.2324
  274MOL0     C36915  10.131   8.068   9.063 -0.2402  0.4059 -0.5950
  274MOL0     C36916  10.039   8.072   9.181 -0.5699 -0.2866  0.1302
  274MOL0     C36917   9.957   7.945   9.177  0.7939  0.5565 -0.0372
  274MOL0     C36918   9.835   7.952   9.268  0.2070 -0.0688 -0.0865
  274MOL0     C36919   9.748   8.069   9.257  0.0777  0.0843 -1.0787
  274MOL0     C36920   9.669   8.154   9.240 -0.0228 -0.5554 -0.7184
  274MOL0     C36921  10.349   8.019   8.887 -0.3934  0.5255  0.4596
  274MOL0     C36922  10.461   7.998   8.806 -0.2780 -0.0106  0.6336
  274MOL0     H36923  10.961   7.999   8.704 -2.8523 -0.5073  1.5311
  274MOL0     H36924  11.145   7.953   8.558  0.6127 -1.3707 -1.2783
  274MOL0     H36925  11.331   7.836   8.501  1.7256  0.4231  1.0120
  274MOL0     H36926  11.366   7.689   8.586 -3.1016  0.4567  1.7976
  274MOL0     H36927  11.371   7.693   8.281 -1.3749 -1.7838  0.5766
  274MOL0     H36928  11.508   7.720   8.384  0.3050  0.7005 -1.4112
  274MOL0     H36929  11.454   7.480   8.481 -1.0785  0.3480  0.4470
  274MOL0     H36930  11.318   7.479   8.360 -1.2004  2.6435  0.4900
  274MOL0     H36931  11.520   7.543   8.188  1.3308  0.9819 -0.3150
  274MOL0     H36932  11.619   7.527   8.331 -1.9359  1.5370  2.4452
  274MOL0     H36933  11.538   7.264   8.324 -1.2771  2.1536  1.9807
  274MOL0     H36934  11.426   7.297   8.202 -0.2580 -0.8819  1.6642
  274MOL0     H36935  11.599   7.198   8.096 -2.5684  1.0740 -1.9414
  274MOL0     H36936  11.627   7.354   8.043  3.1306  0.5936  0.7729
  274MOL0     H36937  11.768   7.268   8.298 -0.2951  3.7639  0.4801
  274MOL0     H36938  11.833   7.227   8.147 -1.3682 -1.0711  0.6698
  274MOL0     H36939  11.847   7.502   8.255  2.1775 -0.0342 -0.6618
  274MOL0     H36940  11.793   7.492   8.090  0.7345  2.9771  0.9045
  274MOL0     H36941  11.955   7.354   7.907 -1.6228 -0.0505  0.6838
  274MOL0     H36942  12.270   7.153   7.955  0.2213 -1.9327 -3.2484
  274MOL0     H36943  12.194   7.236   7.825 -0.5800  0.3267  0.0364
  274MOL0     H36944  12.417   7.362   7.992  0.5543 -0.0325 -0.9299
  274MOL0     H36945  12.370   7.425   7.839 -1.8401  1.0535 -0.1024
  274MOL0     H36946  12.526   7.156   7.865 -1.2880  2.1400  5.1125
  274MOL0     H36947  12.592   7.309   7.823 -0.2718  0.0018  2.4291
  274MOL0     H36948  12.373   7.177   7.654 -0.5400 -0.0675  2.1177
  274MOL0     H36949  12.543   7.171   7.619  0.0758 -0.4317  0.9775
  274MOL0     H36950  12.451   7.585   7.474 -1.3811  1.0113 -0.0645
  274MOL0     H36951  12.433   7.704   7.180  0.3335 -1.0984 -0.9999
  274MOL0     H36952  12.259   7.697   7.205 -0.4205 -1.6039  2.1721
  274MOL0     H36953  12.364   7.740   7.345 -1.3994 -0.2150 -0.0804
  274MOL0     H36954  12.385   7.256   6.829  0.6423 -0.5447 -1.3869
  274MOL0     H36955  12.328   7.264   6.585  0.4482 -2.6119  1.0724
  274MOL0     H36956  12.235   7.392   6.415 -1.8558  1.5029  1.0312
  274MOL0     H36957  12.196   7.238   6.353  0.1567  0.8033 -0.7830
  274MOL0     H36958  12.053   7.508   6.315  0.5242  0.6267  2.8728
  274MOL0     H36959  12.146   7.429   6.186 -1.1019 -2.2887 -1.5136
  274MOL0     H36960  11.905   7.272   6.287  0.5819  0.8749  1.3675
  274MOL0     H36961  12.025   7.251   6.159 -0.4380  0.2715  0.0367
  274MOL0     H36962  11.845   7.491   6.149 -1.7296  0.3636 -2.7594
  274MOL0     H36963  11.951   7.423   6.029  0.9190 -0.0554  1.1783
  274MOL0     H36964  11.826   7.210   6.003 -0.4152 -1.3039  0.5558
  274MOL0     H36965  11.734   7.356   5.969  0.1717  0.4567 -0.5186
  274MOL0     H36966  11.599   7.183   6.096  1.0567 -1.7740  0.5603
  274MOL0     H36967  11.702   7.194   6.230  2.0898 -1.3085 -2.2772
  274MOL0     H36968  11.554   7.416   6.102  2.2614  1.2761  0.7990
  274MOL0     H36969  11.637   7.440   6.265  0.9938 -0.2881  1.0776
  274MOL0     H36970  11.494   7.223   6.327 -2.6178 -1.2073 -0.1599
  274MOL0     H36971  11.379   7.281   6.210 -3.0249  0.5511  1.5122
  274MOL0     H36972  11.915   7.321   6.701  1.1183  2.0447 -2.2523
  274MOL0     H36973  11.973   7.304   6.928 -0.0442  0.4628 -0.1105
  274MOL0     H36974  12.297   7.196   7.219 -0.1072  0.7528 -1.4531
  274MOL0     H36975  12.371   7.159   7.431  2.0405  0.3445  0.7228
  274MOL0     H36976  11.010   7.544   8.534  0.0650  0.1238 -0.6240
  274MOL0     H36977  10.849   7.590   8.696 -0.3873 -0.0768 -2.9835
  274MOL0     H36978  10.619   7.757   8.980 -0.2011 -1.4220 -1.1084
  274MOL0     H36979  10.414   7.783   9.116  2.4395 -1.9293 -0.4264
  274MOL0     H36980  10.185   8.163   9.063 -1.0514  0.9349  1.6774
  274MOL0     H36981  10.068   8.060   8.974  1.8885  1.1093 -2.2496
  274MOL0     H36982   9.978   8.163   9.177 -1.2527 -0.6804 -4.3050
  274MOL0     H36983  10.111   8.074   9.263  1.8665 -3.5544 -1.7107
  274MOL0     H36984  10.028   7.870   9.213  1.1593  0.8857 -0.0627
  274MOL0     H36985   9.925   7.939   9.073 -0.8500  2.8416  0.2542
  274MOL0     H36986   9.874   7.947   9.370  1.2183  2.0511 -0.3226
  274MOL0     H36987   9.781   7.857   9.263  0.1720 -0.0044 -1.0245
  274MOL0     H36988   9.592   8.223   9.209 -1.4050 -1.3375  0.8502
  274MOL0     H36989  10.283   8.102   8.862  0.4125  1.4054  1.1797
  274MOL0     H36990  10.471   8.062   8.719 -0.5585  0.2700  0.8053
  275MOL0     O36991   1.021   6.347   8.195 -0.0355 -0.2493  0.9545
  275MOL0     C36992   1.090   6.382   8.288  0.0490  0.7816 -1.2315
  275MOL0     O36993   1.043   6.419   8.408 -0.7290  0.2823 -0.4295
  275MOL0     C36994   0.910   6.401   8.439  0.4395  0.0234  0.8301
  275MOL0     C36995   0.863   6.272   8.427 -0.5371  0.0139  0.2917
  275MOL0     C36996   0.742   6.234   8.483  0.4676 -0.0163  0.6087
  275MOL0     C36997   0.659   6.331   8.554  0.2090 -0.4483  0.5826
  275MOL0     O36998   0.543   6.288   8.604  0.0014 -0.6011 -0.7003
  275MOL0     C36999   0.434   6.383   8.615 -0.8892  0.4167  0.0193
  275MOL0     C37000   0.299   6.325   8.661  0.1366 -0.1597 -0.5110
  275MOL0     C37001   0.174   6.404   8.625 -0.1099 -0.5738  0.2976
  275MOL0     C37002   0.050   6.362   8.709  0.5103  0.6399 -0.7754
  275MOL0     C37003  -0.078   6.440   8.680 -0.6113  0.6193  0.1397
  275MOL0     C37004  -0.176   6.426   8.802 -0.3052  0.7330  0.6049
  275MOL0     C37005  -0.309   6.496   8.776 -0.0638  0.1771 -0.0221
  275MOL0     C37006  -0.400   6.510   8.897  0.8075  0.0569 -0.4623
  275MOL0     N37007  -0.461   6.381   8.954 -0.9188 -0.4761  0.3217
  275MOL0     C37008  -0.566   6.303   8.893  0.0557  0.0224 -0.9100
  275MOL0     C37009  -0.570   6.189   8.964 -0.7013 -0.0120  0.7618
  275MOL0     C37010  -0.653   6.075   8.937  0.6861  0.2551  0.2651
  275MOL0     C37011  -0.795   6.087   8.996 -1.9495 -0.3672  0.3827
  275MOL0     C37012  -0.869   5.966   8.951  0.1164 -0.3465 -0.2143
  275MOL0     C37013  -1.019   5.981   8.978  0.6418  0.1888 -0.5183
  275MOL0     O37014  -1.085   6.029   8.865  0.2068 -0.1587 -0.4092
  275MOL0     C37015  -1.221   6.062   8.873 -0.5817 -0.7218 -0.0546
  275MOL0     C37016  -1.295   6.085   8.994  0.0467  0.5923  0.4755
  275MOL0     C37017  -1.424   6.131   9.000 -0.6558  0.2270 -0.4181
  275MOL0     C37018  -1.488   6.131   9.136  0.7257 -0.7219 -0.4571
  275MOL0     C37019  -1.501   6.143   8.883  0.3635 -0.0876  0.5026
  275MOL0     C37020  -1.639   6.190   8.887  0.0304 -0.7946 -0.3389
  275MOL0     O37021  -1.669   6.307   8.949  0.6210 -0.3555 -0.1645
  275MOL0     C37022  -1.795   6.341   8.953  0.5457 -0.1469  0.4313
  275MOL0     C37023  -1.834   6.468   8.886 -0.2086  0.6832 -0.4837
  275MOL0     C37024  -1.970   6.517   8.893 -0.9119  0.1698 -1.1403
  275MOL0     C37025  -2.064   6.436   8.961  0.0793  0.2954 -0.9591
  275MOL0     O37026  -2.202   6.467   8.971 -0.1605  0.2088 -0.3445
  275MOL0     C37027  -2.269   6.539   8.864  0.4678 -0.0993 -0.0142
  275MOL0     C37028  -2.268   6.474   8.729 -0.1922  0.3223 -0.1406
  275MOL0     C37029  -2.365   6.553   8.636 -0.6107 -0.1692  0.3928
  275MOL0     C37030  -2.356   6.526   8.493  0.7475 -0.4800 -0.8959
  275MOL0     C37031  -2.470   6.586   8.407 -1.0582 -0.6673  0.4367
  275MOL0     C37032  -2.606   6.541   8.439  0.0700 -0.5201  0.0976
  275MOL0     C37033  -2.707   6.588   8.338  0.2191 -0.6454  0.1774
  275MOL0     C37034  -2.852   6.564   8.376 -0.8605  0.7650  0.2643
  275MOL0    Cl37035  -2.965   6.620   8.239 -0.5064 -0.2199  0.2012
  275MOL0     C37036  -2.032   6.318   9.019  0.0685 -0.0905 -0.4092
  275MOL0     C37037  -1.900   6.274   9.025  0.4031 -0.1676  0.4563
  275MOL0     O37038  -1.717   6.125   8.821  0.3631  0.7576  0.0660
  275MOL0     C37039  -1.437   6.121   8.756 -0.6914 -0.6241  0.1151
  275MOL0     C37040  -1.298   6.078   8.757  0.4555  0.5053  0.1969
  275MOL0     N37041  -0.462   6.190   9.052 -0.5049 -0.0206 -0.1556
  275MOL0     N37042  -0.409   6.310   9.060 -0.6845  0.7078  0.0079
  275MOL0     C37043   0.707   6.470   8.540  0.4557 -0.0529 -0.3736
  275MOL0     C37044   0.834   6.502   8.494  0.4385  1.0552  0.7227
  275MOL0     C37045   1.234   6.382   8.272 -0.3233 -0.9407  0.9620
  275MOL0     C37046   1.316   6.464   8.347  0.3788 -0.0035 -0.3785
  275MOL0     C37047   1.455   6.473   8.319  0.3104  0.2301  0.0498
  275MOL0     C37048   1.501   6.401   8.204 -0.1063 -0.2427 -0.7244
  275MOL0     O37049   1.626   6.404   8.155  0.0835  0.3909  0.5395
  275MOL0     C37050   1.735   6.402   8.251 -1.3852  0.2231  0.2207
  275MOL0     C37051   1.776   6.257   8.262  0.0828  0.6729 -0.7540
  275MOL0     C37052   1.893   6.245   8.347 -0.7162  0.6500 -0.3650
  275MOL0     C37053   1.921   6.103   8.377 -0.5089  0.0723  0.1777
  275MOL0     C37054   2.049   6.085   8.440  0.1693 -0.4396  0.2027
  275MOL0     C37055   2.155   6.060   8.485 -0.4301  0.4406  0.1823
  275MOL0     C37056   1.419   6.316   8.128  0.5933  0.4331 -0.1550
  275MOL0     C37057   1.292   6.304   8.166 -0.2170 -1.0916  1.3471
  275MOL0     H37058   0.938   6.202   8.391 -2.6099 -2.6211  0.7685
  275MOL0     H37059   0.714   6.130   8.474 -0.5944  0.4259 -1.9100
  275MOL0     H37060   0.465   6.463   8.683 -2.6928  1.2193 -0.0502
  275MOL0     H37061   0.422   6.440   8.523 -0.1684  0.2596 -0.1739
  275MOL0     H37062   0.296   6.223   8.622  0.6550 -0.4365  0.1413
  275MOL0     H37063   0.288   6.321   8.770 -2.9870  0.9917 -0.6748
  275MOL0     H37064   0.193   6.510   8.647  1.9971 -0.9904  0.6625
  275MOL0     H37065   0.157   6.396   8.518  1.5998 -0.8865  0.0191
  275MOL0     H37066   0.034   6.257   8.682 -0.8445  0.7503 -0.4781
  275MOL0     H37067   0.075   6.366   8.815 -1.6941 -0.9855 -0.1205
  275MOL0     H37068  -0.055   6.545   8.663 -0.2413  0.1333 -2.8493
  275MOL0     H37069  -0.100   6.401   8.580  1.5231 -2.3029  0.6757
  275MOL0     H37070  -0.198   6.320   8.816 -1.4999  1.1168  1.9780
  275MOL0     H37071  -0.131   6.453   8.898  0.9003 -0.0892  0.2826
  275MOL0     H37072  -0.301   6.601   8.746 -2.1785  0.8971  1.6726
  275MOL0     H37073  -0.363   6.441   8.698  1.4975  0.8343 -1.6404
  275MOL0     H37074  -0.484   6.575   8.869 -0.1894 -1.7925 -2.0924
  275MOL0     H37075  -0.340   6.548   8.980  3.0466 -1.8814 -1.0674
  275MOL0     H37076  -0.621   6.333   8.804 -0.1935  1.6894 -0.2318
  275MOL0     H37077  -0.661   6.071   8.828  1.8727 -0.5379  0.1876
  275MOL0     H37078  -0.602   5.984   8.971  1.2435 -0.4086 -2.1699
  275MOL0     H37079  -0.838   6.180   8.957  1.2980  0.2210 -2.2929
  275MOL0     H37080  -0.786   6.107   9.103  2.9528  1.5670 -0.0976
  275MOL0     H37081  -0.839   5.870   8.993 -3.7320 -1.6227  0.0100
  275MOL0     H37082  -0.861   5.964   8.842  0.6580  0.0517 -0.1836
  275MOL0     H37083  -1.032   6.041   9.069  4.3457 -1.3372  1.2036
  275MOL0     H37084  -1.052   5.877   8.986  1.5746 -0.0922 -0.2351
  275MOL0     H37085  -1.251   6.070   9.092 -1.9651 -0.1278  1.3169
  275MOL0     H37086  -1.423   6.134   9.224 -1.1259 -2.4025  1.0544
  275MOL0     H37087  -1.560   6.212   9.153 -0.5305 -2.4297  3.8360
  275MOL0     H37088  -1.546   6.039   9.145 -1.9825  0.8151 -1.0659
  275MOL0     H37089  -1.754   6.527   8.843  0.7268  2.4997  3.3333
  275MOL0     H37090  -2.002   6.599   8.828  1.8160 -0.2404 -3.1945
  275MOL0     H37091  -2.375   6.532   8.889  0.1452  0.2902 -1.2147
  275MOL0     H37092  -2.234   6.643   8.865  0.4885 -0.1067  0.0610
  275MOL0     H37093  -2.163   6.474   8.697  0.5551  0.0792  2.1397
  275MOL0     H37094  -2.306   6.372   8.742  0.4605  0.0867 -0.0528
  275MOL0     H37095  -2.363   6.661   8.653  1.1336 -0.2391  0.7980
  275MOL0     H37096  -2.466   6.528   8.672 -1.3801  1.9974 -0.0909
  275MOL0     H37097  -2.261   6.573   8.463  0.1740  1.5892  0.3467
  275MOL0     H37098  -2.364   6.420   8.470 -1.6009 -0.3948 -0.6703
  275MOL0     H37099  -2.444   6.579   8.301  0.7510  1.5686  0.6653
  275MOL0     H37100  -2.470   6.695   8.417 -0.3419 -0.5069 -1.0660
  275MOL0     H37101  -2.600   6.432   8.438  0.2736 -0.5089 -0.5690
  275MOL0     H37102  -2.624   6.573   8.542 -0.7870 -3.4476  0.9547
  275MOL0     H37103  -2.687   6.537   8.243 -0.6196  0.5344 -0.6632
  275MOL0     H37104  -2.695   6.695   8.314  0.6595 -1.3526 -3.3557
  275MOL0     H37105  -2.886   6.618   8.465 -3.9564 -0.6705  0.0811
  275MOL0     H37106  -2.865   6.458   8.400 -0.0130  0.7378  0.6584
  275MOL0     H37107  -2.109   6.269   9.078  1.1352  0.1023  1.1874
  275MOL0     H37108  -1.875   6.187   9.085  0.7359 -0.2304  0.2249
  275MOL0     H37109  -1.485   6.140   8.660 -0.0279  2.2700  0.2525
  275MOL0     H37110  -1.243   6.071   8.663  0.1960  4.2508 -0.3880
  275MOL0     H37111   0.649   6.554   8.578  1.1306  0.0164  0.5248
  275MOL0     H37112   0.868   6.605   8.492 -0.5414  1.3830 -0.3734
  275MOL0     H37113   1.285   6.519   8.435  1.0553 -1.6943  0.9853
  275MOL0     H37114   1.513   6.544   8.377  0.6101  0.9822 -1.1273
  275MOL0     H37115   1.826   6.448   8.212 -0.5674 -2.5427 -1.4297
  275MOL0     H37116   1.714   6.444   8.350 -0.9826 -1.4003  1.0200
  275MOL0     H37117   1.810   6.216   8.167  1.5199 -1.9073  0.7514
  275MOL0     H37118   1.693   6.195   8.297 -1.0094  0.8352 -2.8985
  275MOL0     H37119   1.886   6.299   8.442  0.6986  0.0495  0.1038
  275MOL0     H37120   1.979   6.275   8.287 -1.7941 -1.5455 -3.2451
  275MOL0     H37121   1.922   6.042   8.286 -1.5182 -0.1108  0.2680
  275MOL0     H37122   1.834   6.064   8.431 -0.7988  1.1416  0.4928
  275MOL0     H37123   2.249   6.052   8.536  0.4676 -0.8775 -1.5612
  275MOL0     H37124   1.465   6.260   8.047 -0.0226 -1.5298  0.7786
  275MOL0     H37125   1.232   6.238   8.104 -1.7512  2.7301 -1.6306
  276MOL0     O37126   1.496  11.006   1.885  0.5348 -0.6472 -0.8345
  276MOL0     C37127   1.511  10.962   1.998  0.2501  0.8347 -0.2898
  276MOL0     O37128   1.432  10.864   2.054 -0.2923  0.5713 -0.3982
  276MOL0     C37129   1.306  10.843   2.000 -0.5563 -0.7753  0.6721
  276MOL0     C37130   1.285  10.727   1.926 -0.2090  0.3899  0.1833
  276MOL0     C37131   1.156  10.711   1.872  0.2426 -0.3440  0.3234
  276MOL0     C37132   1.050  10.815   1.896  0.2487 -0.2849  0.2954
  276MOL0     O37133   0.922  10.814   1.857  0.2992 -0.2395  0.5641
  276MOL0     C37134   0.871  10.684   1.831 -0.9699 -0.3005  0.3031
  276MOL0     C37135   0.727  10.682   1.792  0.2814  0.1254  0.7621
  276MOL0     C37136   0.624  10.730   1.897  0.0722 -0.5726 -0.0017
  276MOL0     C37137   0.493  10.796   1.833 -0.6210  0.3442 -0.4852
  276MOL0     C37138   0.385  10.697   1.777 -0.4487 -0.7788  0.5696
  276MOL0     C37139   0.318  10.604   1.881  0.1708 -0.4153  0.8391
  276MOL0     C37140   0.236  10.499   1.811 -0.6732  0.5887  0.5704
  276MOL0     C37141   0.148  10.420   1.908 -0.3532 -0.1996 -0.5033
  276MOL0     N37142   0.017  10.387   1.848  0.6681  0.1074 -0.0396
  276MOL0     C37143  -0.109  10.402   1.900 -0.9572  0.7832  0.0615
  276MOL0     C37144  -0.198  10.359   1.810  0.6935  0.5825 -0.4521
  276MOL0     C37145  -0.338  10.359   1.835  0.5418 -0.1812  0.7891
  276MOL0     C37146  -0.412  10.257   1.743  0.0397  0.7969 -1.0886
  276MOL0     C37147  -0.561  10.262   1.761  0.4200 -1.0368  0.3014
  276MOL0     C37148  -0.634  10.152   1.687  0.7629 -0.1601 -0.3037
  276MOL0     O37149  -0.778  10.171   1.692 -0.3917  0.1128 -0.0111
  276MOL0     C37150  -0.864  10.065   1.668  0.3254  0.1202  1.0693
  276MOL0     C37151  -1.005  10.081   1.693 -0.0797 -0.5110  0.0056
  276MOL0     C37152  -1.094   9.981   1.683  0.4740  0.1118 -0.3618
  276MOL0     C37153  -1.239  10.015   1.703 -0.6159  0.4854  0.4816
  276MOL0     C37154  -1.057   9.853   1.625 -0.2843 -0.2555 -1.3952
  276MOL0     C37155  -1.145   9.732   1.622  0.0551  0.5944 -0.7101
  276MOL0     O37156  -1.227   9.696   1.732 -0.0651 -0.1460  0.0204
  276MOL0     C37157  -1.279   9.567   1.751 -0.1489 -0.1795 -0.2376
  276MOL0     C37158  -1.401   9.553   1.823 -0.9781 -0.4222 -0.5372
  276MOL0     C37159  -1.446   9.427   1.857 -0.2275  0.2625  0.2611
  276MOL0     C37160  -1.380   9.305   1.836  0.0011  0.5714  0.0828
  276MOL0     O37161  -1.422   9.184   1.896 -0.0974 -0.7810 -0.7195
  276MOL0     C37162  -1.328   9.077   1.904 -0.6398  0.0405  0.7773
  276MOL0     C37163  -1.388   8.954   1.978 -0.1939  0.0215 -0.3157
  276MOL0     C37164  -1.281   8.842   1.977 -0.1604 -0.5405 -0.5086
  276MOL0     C37165  -1.291   8.747   1.861  0.9558  0.0455 -0.1732
  276MOL0     C37166  -1.408   8.655   1.889 -0.7010  0.8120 -0.0111
  276MOL0     C37167  -1.468   8.600   1.769 -0.2107  0.3418  0.6494
  276MOL0     C37168  -1.376   8.525   1.677  0.7224 -0.6597 -0.4763
  276MOL0     C37169  -1.461   8.446   1.571  0.6960  0.0236  0.3233
  276MOL0    Cl37170  -1.357   8.341   1.457 -0.2215  0.4314 -0.1454
  276MOL0     C37171  -1.262   9.324   1.757 -0.2821 -0.1202  1.2954
  276MOL0     C37172  -1.211   9.450   1.720  0.9107  0.5713  0.0336
  276MOL0     O37173  -1.125   9.659   1.518 -0.2400 -0.3927  0.5754
  276MOL0     C37174  -0.919   9.832   1.607  0.1416  0.2685  0.4616
  276MOL0     C37175  -0.829   9.936   1.626  0.3917  0.0494 -0.1665
  276MOL0     N37176  -0.125  10.302   1.706 -0.9926 -0.1179 -0.2048
  276MOL0     N37177   0.004  10.321   1.735  0.2063  1.4022  0.7542
  276MOL0     C37178   1.084  10.925   1.971  0.2741  0.4752 -1.0485
  276MOL0     C37179   1.209  10.939   2.026  0.7903 -0.5355  0.4222
  276MOL0     C37180   1.626  11.003   2.080  0.0501 -0.0836 -0.1888
  276MOL0     C37181   1.643  10.973   2.217 -0.3184  0.1434 -0.1942
  276MOL0     C37182   1.769  11.006   2.280  0.0076 -0.3219 -0.5660
  276MOL0     C37183   1.863  11.078   2.207 -0.9340 -0.8071 -0.4691
  276MOL0     O37184   1.981  11.108   2.270  0.8542  0.2825  0.2231
  276MOL0     C37185   2.091  11.163   2.200  0.0030  0.5222 -0.6145
  276MOL0     C37186   2.220  11.170   2.289 -0.0417  0.7051  0.5426
  276MOL0     C37187   2.300  11.044   2.274  0.7329  0.3332 -0.6148
  276MOL0     C37188   2.435  11.052   2.354  0.2634 -0.1519  0.4123
  276MOL0     C37189   2.472  10.924   2.422  0.3379 -0.4359  0.4502
  276MOL0     C37190   2.497  10.820   2.480  0.1152  0.0614  0.7135
  276MOL0     C37191   1.834  11.107   2.069  0.4072  0.4425 -0.0677
  276MOL0     C37192   1.724  11.074   2.002  0.4864  0.2786 -0.2655
  276MOL0     H37193   1.357  10.646   1.914 -2.3310 -1.5024 -0.3206
  276MOL0     H37194   1.141  10.628   1.804  1.7010  0.7835 -1.4515
  276MOL0     H37195   0.920  10.640   1.744 -0.6752  1.1405 -0.2831
  276MOL0     H37196   0.879  10.618   1.918 -1.6741  0.1757  0.7338
  276MOL0     H37197   0.725  10.756   1.712 -0.5336 -1.1453 -0.4248
  276MOL0     H37198   0.692  10.585   1.754  0.5672  0.0247  0.7494
  276MOL0     H37199   0.604  10.649   1.968  1.9756 -0.3694  0.8300
  276MOL0     H37200   0.673  10.803   1.963 -0.4205 -1.0055  0.8597
  276MOL0     H37201   0.435  10.850   1.909 -0.3556  0.4691 -0.3725
  276MOL0     H37202   0.541  10.870   1.768  4.2170 -0.3067  1.9285
  276MOL0     H37203   0.319  10.744   1.704  1.0457 -0.6154 -0.7238
  276MOL0     H37204   0.440  10.629   1.712 -1.4008 -1.1033  0.0977
  276MOL0     H37205   0.390  10.545   1.939  1.3003 -2.9210 -2.7887
  276MOL0     H37206   0.257  10.662   1.952  1.7598  2.3337  0.1132
  276MOL0     H37207   0.173  10.528   1.726  0.4174 -0.1314 -0.5101
  276MOL0     H37208   0.304  10.429   1.762 -2.6389 -1.0209  0.0148
  276MOL0     H37209   0.118  10.478   1.995 -3.9486 -3.6142  0.8635
  276MOL0     H37210   0.202  10.332   1.943  0.1312  1.3434  3.0637
  276MOL0     H37211  -0.127  10.436   2.002 -1.4711  0.7570 -0.0150
  276MOL0     H37212  -0.360  10.324   1.936  2.1547 -1.7817  0.6271
  276MOL0     H37213  -0.381  10.458   1.816 -2.9097 -1.4521  1.0967
  276MOL0     H37214  -0.367  10.161   1.771 -0.0703  1.4189  1.4490
  276MOL0     H37215  -0.391  10.279   1.638 -3.3490 -1.7766 -2.4884
  276MOL0     H37216  -0.597  10.354   1.716  2.1030 -0.5989 -0.2051
  276MOL0     H37217  -0.590  10.244   1.865 -2.5793 -1.5921 -0.5520
  276MOL0     H37218  -0.610  10.056   1.734 -1.6590 -1.3023 -1.2270
  276MOL0     H37219  -0.610  10.133   1.582  1.1697 -2.5097  0.1396
  276MOL0     H37220  -1.037  10.183   1.709  0.9665  0.8301 -4.7507
  276MOL0     H37221  -1.301  10.012   1.613 -2.9134 -0.9594  2.0280
  276MOL0     H37222  -1.286   9.949   1.777 -0.1252  0.3747  0.6997
  276MOL0     H37223  -1.256  10.121   1.724  0.2111  0.9862 -1.1853
  276MOL0     H37224  -1.463   9.639   1.848 -4.3196 -2.8899  0.5727
  276MOL0     H37225  -1.543   9.414   1.903 -0.3587  2.9772  0.8638
  276MOL0     H37226  -1.301   9.042   1.805 -2.3896  1.6852 -0.3600
  276MOL0     H37227  -1.236   9.115   1.950 -0.6509  1.0490 -0.0082
  276MOL0     H37228  -1.411   8.992   2.078  4.3194 -0.8195  1.2714
  276MOL0     H37229  -1.475   8.915   1.925 -0.0882 -0.6303 -0.0150
  276MOL0     H37230  -1.295   8.785   2.069  0.3071  2.3353  1.4930
  276MOL0     H37231  -1.177   8.872   1.990 -1.0350  5.0182 -3.0507
  276MOL0     H37232  -1.311   8.808   1.773 -0.4132 -1.7574 -1.1925
  276MOL0     H37233  -1.199   8.690   1.846  1.5980  1.1960 -0.7054
  276MOL0     H37234  -1.494   8.701   1.938 -0.3056  0.9135  0.6006
  276MOL0     H37235  -1.367   8.575   1.952 -2.6618  0.9395  1.5055
  276MOL0     H37236  -1.540   8.526   1.804  0.4695 -0.5166  0.2841
  276MOL0     H37237  -1.523   8.673   1.709 -1.0760  0.7875  1.9414
  276MOL0     H37238  -1.314   8.459   1.739  1.5817  1.2468  0.7875
  276MOL0     H37239  -1.322   8.611   1.638 -1.4016  1.0854  0.1966
  276MOL0     H37240  -1.517   8.513   1.505  3.1749 -0.8762 -2.9436
  276MOL0     H37241  -1.522   8.364   1.612  0.7144 -0.9592 -1.4965
  276MOL0     H37242  -1.204   9.244   1.713 -0.4541  1.4733 -2.0946
  276MOL0     H37243  -1.122   9.438   1.658 -0.5459 -2.0930 -1.7336
  276MOL0     H37244  -0.882   9.736   1.574  0.1385 -0.4193  2.3386
  276MOL0     H37245  -0.724   9.926   1.600  0.9481  2.6810  0.7160
  276MOL0     H37246   1.012  10.999   2.004  1.1710  1.1515 -0.5420
  276MOL0     H37247   1.245  11.029   2.075  2.8133 -0.5552 -0.9184
  276MOL0     H37248   1.553  10.946   2.271  1.6306 -0.8935  2.8481
  276MOL0     H37249   1.776  10.980   2.385 -3.0679 -0.7141 -0.3713
  276MOL0     H37250   2.110  11.102   2.111  0.6188 -0.5994  0.2629
  276MOL0     H37251   2.066  11.259   2.155  0.5510  0.2885 -1.4421
  276MOL0     H37252   2.187  11.189   2.392 -0.3736 -1.1719  0.8190
  276MOL0     H37253   2.275  11.260   2.260 -0.7026  1.3455  1.2177
  276MOL0     H37254   2.321  11.017   2.170 -1.2425 -0.9727 -0.7511
  276MOL0     H37255   2.237  10.961   2.307  0.3671  0.8039 -0.1079
  276MOL0     H37256   2.418  11.128   2.431 -1.2680 -0.1816  0.1291
  276MOL0     H37257   2.512  11.078   2.281  0.8225 -0.3350  0.9304
  276MOL0     H37258   2.523  10.731   2.533 -0.0118  0.0364  0.7327
  276MOL0     H37259   1.926  11.135   2.019  1.3651 -1.7761  0.2945
  276MOL0     H37260   1.713  11.104   1.898 -0.7491  0.6792 -0.0375
  277MOL0     O37261   1.423   3.180   8.096  0.4546 -0.5081  0.4700
  277MOL0     C37262   1.474   3.114   8.016  0.6841  1.0168  0.4840
  277MOL0     O37263   1.405   3.048   7.909 -0.5026 -0.8343  0.6629
  277MOL0     C37264   1.268   3.041   7.906 -0.2497  0.3951  0.3689
  277MOL0     C37265   1.217   2.910   7.863  0.0643 -0.2728 -0.0088
  277MOL0     C37266   1.076   2.891   7.843  0.0038  0.0208  0.0662
  277MOL0     C37267   0.984   2.991   7.878 -0.5770 -0.4308  0.1696
  277MOL0     O37268   0.848   2.968   7.900  0.7354  0.9311 -0.8511
  277MOL0     C37269   0.787   2.846   7.861 -0.0148 -0.1409 -0.4050
  277MOL0     C37270   0.648   2.837   7.921 -0.7920  0.6165  0.2327
  277MOL0     C37271   0.594   2.699   7.876 -0.5407  0.3545 -0.1505
  277MOL0     C37272   0.459   2.675   7.935 -0.4844  0.6003  0.5279
  277MOL0     C37273   0.398   2.548   7.866 -1.0762  0.0586  0.7523
  277MOL0     C37274   0.263   2.489   7.926 -0.4287 -0.0966  0.0233
  277MOL0     C37275   0.162   2.606   7.931  0.6980 -0.2022 -0.3646
  277MOL0     C37276   0.021   2.558   7.960 -0.0361  0.5661 -1.0676
  277MOL0     N37277  -0.040   2.497   7.847 -0.2948  0.3419 -0.3994
  277MOL0     C37278  -0.075   2.546   7.729  0.7824  0.2919 -0.1383
  277MOL0     C37279  -0.105   2.449   7.652 -0.2162  0.9170  1.0330
  277MOL0     C37280  -0.147   2.442   7.504  0.5950  0.4838  0.2058
  277MOL0     C37281  -0.273   2.343   7.496  0.0746 -0.8087 -0.0842
  277MOL0     C37282  -0.400   2.409   7.563 -0.8093 -0.4847  0.8591
  277MOL0     C37283  -0.418   2.411   7.711 -0.6931 -0.1282 -0.5969
  277MOL0     O37284  -0.556   2.404   7.744 -0.8305 -0.2341 -0.3040
  277MOL0     C37285  -0.631   2.513   7.739 -0.9443 -0.0525 -0.7972
  277MOL0     C37286  -0.589   2.644   7.726  0.6016 -0.5211  0.1442
  277MOL0     C37287  -0.676   2.749   7.729 -0.6479  1.3862  0.0507
  277MOL0     C37288  -0.619   2.892   7.731 -0.2047 -0.8156 -0.6889
  277MOL0     C37289  -0.813   2.727   7.736  0.5523  0.5034  0.2310
  277MOL0     C37290  -0.918   2.830   7.730 -0.1831  0.6050  0.4690
  277MOL0     O37291  -1.031   2.809   7.805  0.5923 -0.3121 -0.0176
  277MOL0     C37292  -1.132   2.902   7.815  0.0977  0.5245  0.5390
  277MOL0     C37293  -1.262   2.851   7.859 -1.1074 -0.2306 -0.6822
  277MOL0     C37294  -1.362   2.946   7.880  0.2869  0.2148 -0.2692
  277MOL0     C37295  -1.345   3.081   7.863  0.5022 -0.0720  0.6813
  277MOL0     O37296  -1.459   3.166   7.875 -0.7549 -0.6814  0.2301
  277MOL0     C37297  -1.434   3.301   7.908  0.2394 -1.4772  0.1653
  277MOL0     C37298  -1.470   3.388   7.783  0.2141  0.0283 -0.0967
  277MOL0     C37299  -1.617   3.390   7.755  0.5134  0.1375  0.3467
  277MOL0     C37300  -1.657   3.417   7.607 -0.2823 -1.0704 -0.4613
  277MOL0     C37301  -1.816   3.422   7.586 -0.3454  0.7462  0.2936
  277MOL0     C37302  -1.888   3.547   7.639  0.5457  0.2907  0.1615
  277MOL0     C37303  -1.846   3.690   7.601  0.2297  0.2407 -0.3497
  277MOL0     C37304  -1.763   3.761   7.708  0.4268 -0.0513 -0.7142
  277MOL0    Cl37305  -1.668   3.894   7.649  0.3144 -0.2829 -0.0077
  277MOL0     C37306  -1.226   3.133   7.811  0.3992 -0.5339 -0.3732
  277MOL0     C37307  -1.124   3.044   7.794 -0.4820 -0.3637  0.0387
  277MOL0     O37308  -0.893   2.913   7.649  0.7988 -0.1389  0.0028
  277MOL0     C37309  -0.860   2.596   7.753 -0.0160 -0.8762 -0.5625
  277MOL0     C37310  -0.769   2.494   7.752  0.1381  0.2097 -0.3737
  277MOL0     N37311  -0.088   2.337   7.728  0.1314 -0.0811  0.3080
  277MOL0     N37312  -0.051   2.358   7.841 -0.2462 -0.1984  0.1721
  277MOL0     C37313   1.036   3.109   7.929  0.1475 -0.5145  0.0974
  277MOL0     C37314   1.174   3.137   7.936  1.2960 -0.4926  0.2177
  277MOL0     C37315   1.619   3.099   8.024 -0.0828  0.6536  1.1983
  277MOL0     C37316   1.676   2.980   7.976  0.1821  0.9318  0.5689
  277MOL0     C37317   1.814   2.954   7.988  0.8835  0.3162  0.5529
  277MOL0     C37318   1.893   3.060   8.027  0.2666  0.4527 -0.2283
  277MOL0     O37319   2.031   3.039   8.022 -0.4364  0.2695  0.3541
  277MOL0     C37320   2.127   3.126   8.092 -0.1300 -1.0461 -0.3178
  277MOL0     C37321   2.267   3.079   8.090  0.5943 -0.3219  0.1102
  277MOL0     C37322   2.273   2.927   8.072 -0.2376  0.0718 -0.2439
  277MOL0     C37323   2.414   2.870   8.088  0.2747 -0.6703 -0.2068
  277MOL0     C37324   2.507   2.903   7.980 -0.3074  0.7727  0.2467
  277MOL0     C37325   2.573   2.923   7.877  0.5048  0.0511  0.7749
  277MOL0     C37326   1.839   3.179   8.084  0.0731  0.4257  0.2799
  277MOL0     C37327   1.703   3.202   8.080  0.3761  0.5805  0.1041
  277MOL0     H37328   1.285   2.828   7.840  0.4710 -0.4196  1.5871
  277MOL0     H37329   1.046   2.794   7.806 -1.5221  0.1060  0.9563
  277MOL0     H37330   0.783   2.852   7.752 -1.9891  0.5813 -0.3371
  277MOL0     H37331   0.838   2.757   7.898 -0.7269  0.1330  1.3219
  277MOL0     H37332   0.649   2.853   8.029 -0.3606  0.0152  0.3234
  277MOL0     H37333   0.587   2.912   7.870 -1.5902 -0.4452 -0.4024
  277MOL0     H37334   0.572   2.691   7.769 -2.0048 -0.0127  0.1512
  277MOL0     H37335   0.664   2.618   7.897  0.4985  1.5457  1.1906
  277MOL0     H37336   0.475   2.641   8.038 -0.4857 -1.2065 -0.0428
  277MOL0     H37337   0.399   2.766   7.927 -1.9825 -0.5273 -5.0649
  277MOL0     H37338   0.380   2.592   7.767  1.5330  1.8423  0.9604
  277MOL0     H37339   0.479   2.477   7.851  1.4317  2.7612  0.6489
  277MOL0     H37340   0.225   2.414   7.856  0.0087  0.4195 -0.7829
  277MOL0     H37341   0.284   2.426   8.014 -0.3329  0.2142  0.2256
  277MOL0     H37342   0.196   2.675   8.008 -0.0480 -2.6542  2.3297
  277MOL0     H37343   0.151   2.658   7.835  0.5964 -1.6917 -1.2116
  277MOL0     H37344  -0.032   2.646   7.997 -0.0190 -0.0489  0.5022
  277MOL0     H37345   0.026   2.501   8.053 -0.5105  3.2180  0.6748
  277MOL0     H37346  -0.071   2.650   7.701 -1.0284 -0.4022 -3.4472
  277MOL0     H37347  -0.168   2.539   7.457 -0.6645  0.9643  1.6460
  277MOL0     H37348  -0.059   2.394   7.462  0.7405  1.5446 -0.7550
  277MOL0     H37349  -0.254   2.245   7.541 -1.4632 -1.1456 -0.1199
  277MOL0     H37350  -0.291   2.321   7.390 -0.0345 -0.1421 -0.2058
  277MOL0     H37351  -0.487   2.354   7.525  0.2522 -1.9715  0.4750
  277MOL0     H37352  -0.418   2.508   7.521 -3.2096 -0.8377  0.9209
  277MOL0     H37353  -0.367   2.496   7.759 -0.8703  0.4022 -1.3406
  277MOL0     H37354  -0.363   2.328   7.757 -2.6980 -1.0736  0.2127
  277MOL0     H37355  -0.484   2.668   7.719  0.0198  1.9844 -1.4000
  277MOL0     H37356  -0.516   2.893   7.768 -0.5450 -0.9187  0.2759
  277MOL0     H37357  -0.608   2.931   7.629  1.6500  1.3452  0.2426
  277MOL0     H37358  -0.685   2.957   7.788  2.3783  2.1626 -0.8130
  277MOL0     H37359  -1.265   2.748   7.894 -4.0919  0.1231  0.4222
  277MOL0     H37360  -1.452   2.908   7.927 -1.9033  5.5731  0.6880
  277MOL0     H37361  -1.493   3.320   7.998 -0.9315 -0.0840 -0.8399
  277MOL0     H37362  -1.330   3.316   7.938  0.2071  2.6687 -1.0633
  277MOL0     H37363  -1.444   3.492   7.805 -3.4997  0.9262  0.8065
  277MOL0     H37364  -1.421   3.361   7.689  1.3051 -1.2598  0.8124
  277MOL0     H37365  -1.656   3.464   7.825  0.4670 -0.8935  1.4432
  277MOL0     H37366  -1.660   3.293   7.781  0.3365  0.1095 -0.0451
  277MOL0     H37367  -1.626   3.518   7.578 -3.1980 -0.1301 -0.6074
  277MOL0     H37368  -1.598   3.352   7.541 -1.4513 -0.2687 -2.3944
  277MOL0     H37369  -1.863   3.341   7.641  1.1059  0.6086  1.3801
  277MOL0     H37370  -1.840   3.415   7.479  0.3288 -1.6961  0.2431
  277MOL0     H37371  -1.992   3.547   7.605  0.9690  1.6425 -1.2845
  277MOL0     H37372  -1.886   3.554   7.748  1.6098 -0.2991  0.1908
  277MOL0     H37373  -1.932   3.753   7.575  0.4489 -0.2221 -2.2947
  277MOL0     H37374  -1.786   3.686   7.510  0.0656  2.9027 -0.6487
  277MOL0     H37375  -1.699   3.700   7.773  1.9945  4.0020  1.9029
  277MOL0     H37376  -1.826   3.808   7.784  1.7626 -1.0473  1.1002
  277MOL0     H37377  -1.206   3.240   7.803  0.5586 -0.5968 -0.8199
  277MOL0     H37378  -1.025   3.084   7.772  0.1266 -1.8381  0.0293
  277MOL0     H37379  -0.966   2.582   7.771  0.1651  0.0675  1.4554
  277MOL0     H37380  -0.819   2.399   7.772 -1.6448  1.4868  1.7429
  277MOL0     H37381   0.970   3.183   7.973  1.5762  2.3986 -2.2701
  277MOL0     H37382   1.209   3.231   7.979  0.2170  0.3729 -0.7242
  277MOL0     H37383   1.604   2.916   7.925  0.1578  0.7659  0.8090
  277MOL0     H37384   1.853   2.856   7.962  2.4512  0.8503  0.8063
  277MOL0     H37385   2.140   3.225   8.047  1.6640 -1.5628 -1.0628
  277MOL0     H37386   2.095   3.138   8.196 -0.1789  1.1249 -0.5341
  277MOL0     H37387   2.310   3.097   8.189 -0.2781  1.1629  0.2525
  277MOL0     H37388   2.327   3.125   8.011 -1.4496  1.5467 -0.4758
  277MOL0     H37389   2.232   2.902   7.973  1.1360 -1.2249 -0.5154
  277MOL0     H37390   2.212   2.874   8.146 -3.1596  1.0707 -1.7593
  277MOL0     H37391   2.407   2.761   8.093 -3.4992 -0.4830  1.5880
  277MOL0     H37392   2.460   2.890   8.185  0.1136 -0.5603 -0.1525
  277MOL0     H37393   2.632   2.936   7.788  0.4945  1.9943  1.0154
  277MOL0     H37394   1.897   3.261   8.123 -1.4490  2.0937 -0.7856
  277MOL0     H37395   1.668   3.298   8.116  1.0214  0.4715  1.0658
  278MOL0     O37396   2.019   6.511   2.807  0.0776 -0.3419  0.3177
  278MOL0     C37397   2.074   6.503   2.701  0.0017 -0.9594 -0.1115
  278MOL0     O37398   2.048   6.585   2.594 -0.4483  0.2173 -0.0964
  278MOL0     C37399   1.963   6.693   2.606 -0.2596  0.0677  0.1195
  278MOL0     C37400   1.856   6.701   2.520 -0.0514 -0.0218 -0.8174
  278MOL0     C37401   1.790   6.824   2.505 -0.2691  0.9379 -0.1116
  278MOL0     C37402   1.818   6.931   2.589  1.0024  0.0246  0.1829
  278MOL0     O37403   1.744   7.041   2.585  0.0115 -0.0887 -0.4807
  278MOL0     C37404   1.816   7.171   2.569 -0.3767 -0.9174 -0.3143
  278MOL0     C37405   1.765   7.285   2.662 -0.3236 -0.1728  0.8073
  278MOL0     C37406   1.811   7.289   2.806 -0.5211  0.4797 -0.4428
  278MOL0     C37407   1.954   7.353   2.824  0.6819  0.2757  0.6998
  278MOL0     C37408   1.983   7.402   2.974  0.4187 -0.4488  1.1800
  278MOL0     C37409   1.992   7.285   3.070 -0.4036  1.2109 -0.9884
  278MOL0     C37410   1.991   7.336   3.214 -0.1229  0.0306 -0.3804
  278MOL0     C37411   2.124   7.413   3.244 -0.5264 -0.3823  0.2240
  278MOL0     N37412   2.136   7.422   3.386  0.5329  0.1757  0.4361
  278MOL0     C37413   2.080   7.517   3.470 -1.1213 -0.1557 -0.1369
  278MOL0     C37414   2.136   7.488   3.592 -0.2363 -0.7818 -0.4213
  278MOL0     C37415   2.130   7.564   3.720 -0.4142 -0.6968 -0.5179
  278MOL0     C37416   2.231   7.678   3.738  0.4610 -0.1486  0.1127
  278MOL0     C37417   2.224   7.749   3.876  0.0083 -0.1338 -0.0336
  278MOL0     C37418   2.093   7.835   3.891 -0.3262  0.3338  0.1170
  278MOL0     O37419   2.069   7.886   4.019 -1.0145  0.6142 -0.8295
  278MOL0     C37420   1.952   7.945   4.046  0.7492  0.1114  0.0970
  278MOL0     C37421   1.859   7.985   3.952 -0.1871 -0.3253  0.2911
  278MOL0     C37422   1.735   8.038   3.994  0.8215  0.3641  0.1312
  278MOL0     C37423   1.637   8.061   3.877 -0.1130 -0.1544  0.3137
  278MOL0     C37424   1.708   8.071   4.132 -0.5236 -0.3422 -1.3040
  278MOL0     C37425   1.579   8.124   4.181  0.5844 -0.1464  0.2633
  278MOL0     O37426   1.565   8.128   4.317  0.0025  0.4599  0.1703
  278MOL0     C37427   1.447   8.160   4.358  0.6222 -0.3041  0.1022
  278MOL0     C37428   1.369   8.056   4.409 -0.6241 -1.4121  0.0262
  278MOL0     C37429   1.245   8.075   4.465 -0.6708 -0.2357 -0.3361
  278MOL0     C37430   1.195   8.207   4.478 -0.0873 -0.2002  0.4401
  278MOL0     O37431   1.072   8.233   4.541  0.8614  0.9794  0.0088
  278MOL0     C37432   0.972   8.331   4.495 -0.3957  0.4728 -0.7415
  278MOL0     C37433   0.854   8.332   4.597 -0.9357  0.1095 -0.0004
  278MOL0     C37434   0.736   8.414   4.559  0.0116 -0.6553 -0.5575
  278MOL0     C37435   0.633   8.416   4.677 -0.8655  0.6345  0.6400
  278MOL0     C37436   0.513   8.498   4.634 -0.6272  0.6005  0.6379
  278MOL0     C37437   0.396   8.447   4.722 -1.3222 -0.3666 -0.3151
  278MOL0     C37438   0.402   8.530   4.860  0.4897  0.2763  0.9062
  278MOL0     C37439   0.292   8.489   4.958 -0.4511 -0.1771  0.0981
  278MOL0    Cl37440   0.148   8.412   4.878  0.1017 -0.1266  0.7793
  278MOL0     C37441   1.274   8.309   4.421  1.1329  0.3049 -0.3548
  278MOL0     C37442   1.400   8.288   4.366 -0.9514  0.5631  0.6440
  278MOL0     O37443   1.492   8.164   4.100 -0.6287  0.2152  0.6274
  278MOL0     C37444   1.814   8.048   4.224  0.4133  0.1476 -0.1830
  278MOL0     C37445   1.931   7.984   4.180  0.5204  0.2599 -0.2924
  278MOL0     N37446   2.225   7.381   3.581 -0.7024  0.1923 -0.2791
  278MOL0     N37447   2.217   7.340   3.459 -0.1352  0.3247  0.6337
  278MOL0     C37448   1.920   6.915   2.685  0.1007  0.1007  0.5378
  278MOL0     C37449   1.986   6.795   2.695  0.3556  0.8948 -0.4139
  278MOL0     C37450   2.152   6.384   2.684  0.0851 -0.0694  0.6841
  278MOL0     C37451   2.210   6.320   2.794  0.2527 -0.2117 -0.4815
  278MOL0     C37452   2.289   6.211   2.778 -0.9749 -0.1029 -0.5941
  278MOL0     C37453   2.322   6.174   2.650  0.3349 -0.9469  0.0643
  278MOL0     O37454   2.421   6.076   2.648 -0.0649 -0.5661  0.3693
  278MOL0     C37455   2.445   6.003   2.526  0.3183 -0.9375 -0.5553
  278MOL0     C37456   2.514   5.873   2.565 -0.6258 -0.5894 -0.4867
  278MOL0     C37457   2.443   5.753   2.647  0.1722 -0.3908  0.1090
  278MOL0     C37458   2.330   5.805   2.747 -0.4768  0.2544 -0.1732
  278MOL0     C37459   2.243   5.689   2.768  0.3510 -0.1855 -0.3129
  278MOL0     C37460   2.182   5.583   2.770  0.4177 -1.0646  0.8129
  278MOL0     C37461   2.277   6.244   2.536 -0.0227 -0.3263 -1.1252
  278MOL0     C37462   2.189   6.343   2.551 -0.3155 -0.8032  0.1964
  278MOL0     H37463   1.829   6.617   2.457  0.4263 -0.2884 -0.6806
  278MOL0     H37464   1.705   6.819   2.438 -0.1848  1.3294 -0.2495
  278MOL0     H37465   1.924   7.174   2.588 -0.7622  0.9044  2.2830
  278MOL0     H37466   1.819   7.205   2.465 -0.4688 -0.4972 -0.1858
  278MOL0     H37467   1.780   7.383   2.614 -2.0431 -0.6937 -0.9306
  278MOL0     H37468   1.656   7.277   2.660 -0.3447  0.1948 -0.2378
  278MOL0     H37469   1.735   7.344   2.862 -2.3454 -1.0743 -1.2669
  278MOL0     H37470   1.819   7.188   2.847  2.1239  0.6211 -0.4568
  278MOL0     H37471   2.042   7.306   2.779 -0.1761 -1.0029  0.2796
  278MOL0     H37472   1.932   7.448   2.774  2.5364  0.1332 -0.5078
  278MOL0     H37473   2.075   7.460   2.972  1.1564 -1.6018 -0.8515
  278MOL0     H37474   1.902   7.465   3.014  1.1185 -0.9442  3.5040
  278MOL0     H37475   1.909   7.214   3.061 -0.3435 -0.1281  4.9520
  278MOL0     H37476   2.081   7.221   3.057 -2.5792 -2.9027  2.0414
  278MOL0     H37477   1.911   7.408   3.232  0.4876  0.4008  0.9763
  278MOL0     H37478   1.983   7.244   3.273  1.0740 -1.7013 -2.7586
  278MOL0     H37479   2.106   7.508   3.193 -1.4914 -0.1581  0.9448
  278MOL0     H37480   2.214   7.363   3.207  0.2180  0.1408  1.2513
  278MOL0     H37481   2.045   7.614   3.437  1.2756  1.3895  1.5032
  278MOL0     H37482   2.026   7.596   3.726 -0.2104 -0.1224  0.0790
  278MOL0     H37483   2.140   7.497   3.806 -0.3419 -0.1896 -0.1303
  278MOL0     H37484   2.219   7.750   3.656 -2.2600 -0.2533  0.3331
  278MOL0     H37485   2.332   7.638   3.723  0.0411 -2.1792  2.1293
  278MOL0     H37486   2.311   7.811   3.896 -2.5332  3.9796 -0.5374
  278MOL0     H37487   2.220   7.676   3.957  2.1907  0.1299  0.3558
  278MOL0     H37488   2.007   7.768   3.882  1.0028 -1.4134 -0.1991
  278MOL0     H37489   2.082   7.914   3.816  0.6723  1.2781  0.9309
  278MOL0     H37490   1.876   7.974   3.845  0.3107  1.2307  0.1847
  278MOL0     H37491   1.630   8.170   3.866 -0.6140 -0.0375  1.5393
  278MOL0     H37492   1.670   8.013   3.785  1.5952  0.5771  0.5053
  278MOL0     H37493   1.537   8.020   3.896 -0.6127  0.6765 -0.4602
  278MOL0     H37494   1.419   7.960   4.415  0.1474 -1.0296 -0.0631
  278MOL0     H37495   1.185   7.993   4.501 -0.6107 -1.1565 -2.2387
  278MOL0     H37496   1.013   8.432   4.491 -0.4209  0.4621 -2.9531
  278MOL0     H37497   0.941   8.303   4.393  1.4281  3.5233 -2.2626
  278MOL0     H37498   0.815   8.232   4.618 -0.4871 -0.4485 -1.6704
  278MOL0     H37499   0.888   8.376   4.691 -1.6507  3.0937 -1.0025
  278MOL0     H37500   0.695   8.369   4.468  0.3483 -2.5861  0.2032
  278MOL0     H37501   0.765   8.517   4.534  1.1942 -1.5562 -3.2330
  278MOL0     H37502   0.617   8.316   4.719  1.3234 -0.8357 -1.7974
  278MOL0     H37503   0.678   8.474   4.758 -0.5510  0.6680  0.4416
  278MOL0     H37504   0.486   8.479   4.530  1.4975  2.8645 -0.4300
  278MOL0     H37505   0.524   8.604   4.658 -0.3744  0.1703  2.5492
  278MOL0     H37506   0.305   8.461   4.663 -0.5611 -2.2810 -2.1005
  278MOL0     H37507   0.403   8.339   4.743 -0.0016 -0.7261 -2.3100
  278MOL0     H37508   0.384   8.633   4.826  1.4848 -0.0277 -0.6466
  278MOL0     H37509   0.502   8.529   4.904  1.2020  2.3689 -0.4629
  278MOL0     H37510   0.247   8.571   5.016 -5.4012 -3.7181  1.9956
  278MOL0     H37511   0.325   8.414   5.030 -2.5238  1.1751  2.6542
  278MOL0     H37512   1.229   8.407   4.418 -1.0647 -0.5516  1.5032
  278MOL0     H37513   1.462   8.367   4.326 -0.7624 -0.7247 -1.8336
  278MOL0     H37514   1.812   8.063   4.331  2.0968 -1.5404  0.1434
  278MOL0     H37515   2.007   7.956   4.253 -2.1687 -0.5978  2.4269
  278MOL0     H37516   1.953   7.007   2.732  1.1391  1.6345 -2.8652
  278MOL0     H37517   2.072   6.773   2.758  0.4696  3.4894  0.4377
  278MOL0     H37518   2.183   6.358   2.892 -2.9422  0.4534 -1.5125
  278MOL0     H37519   2.338   6.161   2.861 -1.7556  0.1213  0.0180
  278MOL0     H37520   2.353   5.983   2.470  0.4292 -0.8227 -0.7784
  278MOL0     H37521   2.500   6.053   2.446  1.7015 -0.1770  0.8043
  278MOL0     H37522   2.606   5.909   2.614 -2.8594 -0.0242  3.7843
  278MOL0     H37523   2.555   5.824   2.477  0.3023  1.0824 -1.0352
  278MOL0     H37524   2.529   5.708   2.697  0.1679  2.1128  2.6435
  278MOL0     H37525   2.402   5.679   2.577  0.6442 -2.6251  2.0378
  278MOL0     H37526   2.261   5.878   2.702 -1.8231 -0.3799  0.7803
  278MOL0     H37527   2.370   5.847   2.840  1.0273 -0.0003 -0.6848
  278MOL0     H37528   2.130   5.490   2.776 -0.7306 -0.3737  1.8169
  278MOL0     H37529   2.321   6.231   2.438 -2.1964 -1.7088 -2.0033
  278MOL0     H37530   2.150   6.379   2.457 -1.4491 -1.4830  0.3915
  279MOL0     O37531  10.841   9.298   0.060 -0.0629 -0.5049 -0.2753
  279MOL0     C37532  10.844   9.353  -0.046  0.3946  0.1364 -0.6121
  279MOL0     O37533  10.729   9.396  -0.115  0.1783  0.6832 -0.2294
  279MOL0     C37534  10.613   9.360  -0.047  0.1182  0.1795  0.2489
  279MOL0     C37535  10.567   9.236  -0.011  0.2664  0.1485  0.4477
  279MOL0     C37536  10.450   9.213   0.060 -0.5391  0.1181  1.1093
  279MOL0     C37537  10.361   9.326   0.091 -0.3724 -0.1653  0.2394
  279MOL0     O37538  10.247   9.319   0.177 -0.9649  0.4263  0.2050
  279MOL0     C37539  10.219   9.192   0.238 -0.4905 -0.9451 -0.3256
  279MOL0     C37540  10.133   9.108   0.149 -0.0964  0.4140  0.2302
  279MOL0     C37541  10.004   9.177   0.110  0.9419 -0.5527 -0.4926
  279MOL0     C37542   9.880   9.082   0.076 -0.3486 -0.3318 -0.0818
  279MOL0     C37543   9.749   9.149   0.083 -0.0552  0.3038 -0.1058
  279MOL0     C37544   9.634   9.051   0.066 -0.5352 -0.0907  0.7601
  279MOL0     C37545   9.499   9.111   0.113 -0.3174 -0.1585  0.2442
  279MOL0     C37546   9.391   9.016   0.092  0.1569  0.0650 -1.0012
  279MOL0     N37547   9.269   9.082   0.143  0.0669  0.1037 -0.0643
  279MOL0     C37548   9.172   9.150   0.073  0.1392  0.2486  0.4167
  279MOL0     C37549   9.088   9.194   0.167  0.4883 -0.8447  0.1678
  279MOL0     C37550   8.956   9.261   0.125 -1.4365 -0.2545  0.1594
  279MOL0     C37551   8.872   9.167   0.047  0.0438 -0.0378 -0.0531
  279MOL0     C37552   8.871   9.031   0.102  0.7771  0.6868  0.8506
  279MOL0     C37553   8.776   8.929   0.038 -0.5989  0.0663 -0.3712
  279MOL0     O37554   8.636   8.977   0.051  0.7962 -0.4141  0.5444
  279MOL0     C37555   8.555   8.958   0.161  0.5446  0.2026 -0.5653
  279MOL0     C37556   8.423   8.998   0.154 -0.0676 -0.6156  0.1081
  279MOL0     C37557   8.337   8.987   0.260  0.4348  0.0329 -0.6108
  279MOL0     C37558   8.201   9.046   0.235  0.4622  0.0779  0.9082
  279MOL0     C37559   8.376   8.934   0.386  0.0746  0.0697  0.2057
  279MOL0     C37560   8.288   8.912   0.505 -0.0327  0.0052  0.5058
  279MOL0     O37561   8.346   8.850   0.608 -0.0031  0.6452 -0.1355
  279MOL0     C37562   8.271   8.859   0.722 -0.0529  1.0217 -0.1410
  279MOL0     C37563   8.338   8.911   0.831  0.2292 -0.4900 -0.1377
  279MOL0     C37564   8.281   8.916   0.957  0.7432  0.5195  0.6616
  279MOL0     C37565   8.151   8.858   0.982  0.7504  0.3791  1.0517
  279MOL0     O37566   8.109   8.835   1.112 -0.3905 -0.3442  0.3040
  279MOL0     C37567   8.154   8.923   1.219 -0.0017  0.0813  0.5729
  279MOL0     C37568   8.113   8.894   1.361  0.1663  0.5771  0.4237
  279MOL0     C37569   7.963   8.908   1.388 -0.4608  0.3854 -0.5726
  279MOL0     C37570   7.921   8.914   1.535 -0.0674  0.1621 -0.3176
  279MOL0     C37571   7.770   8.956   1.549 -0.4712  0.7626 -1.4257
  279MOL0     C37572   7.736   9.083   1.474  0.7005  0.1171  1.1599
  279MOL0     C37573   7.611   9.154   1.522 -0.7184 -0.1309  0.8002
  279MOL0     C37574   7.561   9.259   1.423 -0.5342  0.2121  0.3252
  279MOL0    Cl37575   7.417   9.337   1.502 -0.1276 -0.0055  0.1919
  279MOL0     C37576   8.079   8.801   0.873 -0.4549  0.9737  0.4505
  279MOL0     C37577   8.141   8.806   0.740 -0.5653 -0.9682  0.3586
  279MOL0     O37578   8.181   8.964   0.505 -0.0218  0.4675  0.7689
  279MOL0     C37579   8.511   8.895   0.398 -0.0701  0.1867  0.0435
  279MOL0     C37580   8.601   8.905   0.281 -0.1511 -0.5161 -0.0629
  279MOL0     N37581   9.127   9.154   0.289 -0.4917  0.1317  0.4054
  279MOL0     N37582   9.243   9.093   0.271  0.4384  0.1327 -0.1918
  279MOL0     C37583  10.404   9.447   0.046 -0.9554  0.6947 -0.2382
  279MOL0     C37584  10.522   9.461  -0.020 -0.3268 -0.2796  0.6115
  279MOL0     C37585  10.972   9.380  -0.107 -0.0836  0.1709  0.1997
  279MOL0     C37586  10.969   9.476  -0.212  0.5830  0.6477 -1.3506
  279MOL0     C37587  11.089   9.523  -0.272  0.2383  0.5387 -1.0247
  279MOL0     C37588  11.214   9.469  -0.241  0.5991 -0.2928 -0.5270
  279MOL0     O37589  11.328   9.504  -0.310  0.0820 -0.5162 -0.6726
  279MOL0     C37590  11.451   9.425  -0.290  0.0632 -0.1282 -0.3552
  279MOL0     C37591  11.553   9.473  -0.400 -0.1349  0.0619 -0.1363
  279MOL0     C37592  11.505   9.428  -0.544 -0.1728  0.3275 -0.4778
  279MOL0     C37593  11.607   9.440  -0.659  0.1446  0.6239  0.3499
  279MOL0     C37594  11.731   9.370  -0.634  0.0671  0.3216 -0.2283
  279MOL0     C37595  11.838   9.335  -0.605 -0.4301 -0.4702  0.1778
  279MOL0     C37596  11.210   9.370  -0.145  0.6934 -0.1737 -0.8270
  279MOL0     C37597  11.097   9.329  -0.074  0.0823  1.5831  0.0461
  279MOL0     H37598  10.627   9.147  -0.027 -1.0525 -1.1077  2.1683
  279MOL0     H37599  10.425   9.112   0.092 -0.0697  0.3683  2.3355
  279MOL0     H37600  10.303   9.131   0.272 -2.1881 -2.0232  2.2440
  279MOL0     H37601  10.167   9.221   0.329  0.5402  0.5318 -0.1619
  279MOL0     H37602  10.186   9.072   0.060  1.0677  1.4033  0.4976
  279MOL0     H37603  10.103   9.017   0.201 -0.9394  0.4674 -0.1486
  279MOL0     H37604   9.963   9.229   0.197  0.2012 -1.0019 -0.5542
  279MOL0     H37605  10.033   9.251   0.036 -0.2542  1.4504  0.9480
  279MOL0     H37606   9.909   9.038  -0.020 -1.8658  2.2684 -1.8622
  279MOL0     H37607   9.881   9.008   0.156 -1.8095  2.1029  2.3558
  279MOL0     H37608   9.743   9.196   0.182 -0.3180  2.5143 -1.1357
  279MOL0     H37609   9.736   9.230   0.011 -2.1041  0.1951  0.0629
  279MOL0     H37610   9.633   9.004  -0.032  1.0011  0.7536  0.3032
  279MOL0     H37611   9.671   8.966   0.125  0.2379 -2.1060 -2.4137
  279MOL0     H37612   9.514   9.132   0.220 -1.2132  0.5275  0.2503
  279MOL0     H37613   9.477   9.205   0.061  1.6612 -0.5469 -1.3737
  279MOL0     H37614   9.420   8.933   0.157 -0.3386 -0.2767 -1.2062
  279MOL0     H37615   9.385   8.975  -0.010  1.1711  0.8895 -1.4110
  279MOL0     H37616   9.163   9.156  -0.035  2.5243  1.9012  0.2402
  279MOL0     H37617   8.904   9.280   0.219  0.8828  3.5147  0.9186
  279MOL0     H37618   8.985   9.349   0.066 -2.8871  0.2544  0.1545
  279MOL0     H37619   8.915   9.169  -0.053  0.3896  3.1395  0.0711
  279MOL0     H37620   8.771   9.208   0.050 -1.0134 -2.2085 -2.3434
  279MOL0     H37621   8.863   9.035   0.211  0.1024  0.2032  0.8247
  279MOL0     H37622   8.970   8.987   0.085  1.5181  0.9992  3.8429
  279MOL0     H37623   8.793   8.833   0.089  1.4099 -0.2021 -1.4487
  279MOL0     H37624   8.798   8.915  -0.068 -1.7457  0.6024 -0.6994
  279MOL0     H37625   8.396   9.026   0.053 -2.2480 -2.9541 -0.0631
  279MOL0     H37626   8.118   8.986   0.274 -0.1404  0.3117  0.0150
  279MOL0     H37627   8.191   9.141   0.288 -0.4024  0.8007 -0.5017
  279MOL0     H37628   8.173   9.066   0.131 -2.2161  1.0753  1.7245
  279MOL0     H37629   8.437   8.946   0.803  0.2904 -0.3731  0.2134
  279MOL0     H37630   8.328   8.968   1.041 -2.5485  0.8471  2.4617
  279MOL0     H37631   8.263   8.916   1.221  0.0128 -1.1481 -1.4902
  279MOL0     H37632   8.132   9.029   1.199 -1.2394  0.2059  2.3940
  279MOL0     H37633   8.145   8.790   1.375 -1.8019  0.1945  2.5934
  279MOL0     H37634   8.161   8.958   1.436 -1.4660  3.4453 -0.8094
  279MOL0     H37635   7.919   8.826   1.331  0.1601 -1.5278  1.5902
  279MOL0     H37636   7.939   9.006   1.346 -0.9904  0.0107 -1.1586
  279MOL0     H37637   7.942   8.823   1.591  1.7730  1.2955  0.9678
  279MOL0     H37638   7.982   8.992   1.582 -1.3224 -0.6557  2.9154
  279MOL0     H37639   7.750   8.970   1.655  0.0305  0.4491 -1.2849
  279MOL0     H37640   7.710   8.869   1.518 -1.3995  1.1083 -0.6213
  279MOL0     H37641   7.819   9.153   1.489 -1.2571  2.4155  1.9413
  279MOL0     H37642   7.718   9.052   1.370 -1.4368  0.8460  1.2674
  279MOL0     H37643   7.639   9.206   1.614  3.0464  0.9416 -0.7664
  279MOL0     H37644   7.527   9.084   1.518 -0.6437 -0.1853 -0.5224
  279MOL0     H37645   7.524   9.210   1.332  2.0816 -2.3112  0.4943
  279MOL0     H37646   7.632   9.339   1.399 -0.8573  0.5465  0.4598
  279MOL0     H37647   7.996   8.734   0.890 -0.1789  0.0777 -1.4159
  279MOL0     H37648   8.096   8.752   0.657  0.4347  1.8239 -2.1762
  279MOL0     H37649   8.542   8.871   0.499 -1.9581  0.0103  0.6147
  279MOL0     H37650   8.703   8.873   0.294 -0.6128 -0.6841  5.0474
  279MOL0     H37651  10.336   9.529   0.070 -0.2183  0.6509  2.3770
  279MOL0     H37652  10.551   9.562  -0.047 -1.2129  0.1381  1.1898
  279MOL0     H37653  10.874   9.514  -0.247 -3.0010 -4.1788  1.9071
  279MOL0     H37654  11.080   9.602  -0.346  2.4797  2.3322  0.4440
  279MOL0     H37655  11.487   9.450  -0.190  0.8823 -2.4908 -0.0016
  279MOL0     H37656  11.437   9.317  -0.305  2.0454 -0.2976 -1.3164
  279MOL0     H37657  11.650   9.437  -0.365  0.8023  3.5846  1.2957
  279MOL0     H37658  11.564   9.581  -0.392  1.4689 -0.0310 -0.6621
  279MOL0     H37659  11.425   9.497  -0.574  1.4034  2.0769 -0.9207
  279MOL0     H37660  11.453   9.333  -0.536  1.3492 -0.3736  2.0862
  279MOL0     H37661  11.624   9.545  -0.684 -3.2882  1.5266  1.2569
  279MOL0     H37662  11.570   9.395  -0.752 -0.0377  1.7810 -0.1446
  279MOL0     H37663  11.928   9.287  -0.570 -0.2833 -0.2652  0.0852
  279MOL0     H37664  11.303   9.327  -0.110  1.5305  0.0769 -2.6576
  279MOL0     H37665  11.096   9.256   0.007 -4.1283  0.5814 -0.6776
  280MOL0     O37666   4.194   9.159   8.444 -0.0351 -0.2901 -0.0466
  280MOL0     C37667   4.175   9.209   8.331  0.4807 -0.7052 -1.1678
  280MOL0     O37668   4.114   9.149   8.229  0.0939  0.6681  0.6982
  280MOL0     C37669   4.067   9.016   8.222 -0.3762  0.3397 -0.6075
  280MOL0     C37670   4.152   8.911   8.267  0.2597 -0.0515 -0.3167
  280MOL0     C37671   4.094   8.784   8.257 -0.7426 -0.2049 -0.6447
  280MOL0     C37672   3.970   8.757   8.194  0.3811 -0.2719 -0.4320
  280MOL0     O37673   3.931   8.628   8.159 -0.2568  0.0055 -0.5419
  280MOL0     C37674   3.954   8.524   8.251  0.7010 -0.4915 -0.2707
  280MOL0     C37675   3.868   8.413   8.197 -0.6901  0.7554 -0.2605
  280MOL0     C37676   3.809   8.330   8.309  0.2374 -0.6018  0.9322
  280MOL0     C37677   3.903   8.253   8.403  1.1429 -0.5710 -0.6020
  280MOL0     C37678   3.831   8.200   8.531 -0.0857  0.2969  0.3176
  280MOL0     C37679   3.727   8.087   8.498  0.0194  0.3145  0.3773
  280MOL0     C37680   3.671   8.028   8.620 -0.1725 -0.0949 -0.0119
  280MOL0     C37681   3.534   7.974   8.605  0.3360 -0.9907 -0.7349
  280MOL0     N37682   3.424   8.075   8.614  0.2364 -0.4786 -0.3640
  280MOL0     C37683   3.293   8.048   8.646 -0.0833 -0.2310  0.0714
  280MOL0     C37684   3.209   8.145   8.598  0.0121  0.2794  0.6005
  280MOL0     C37685   3.063   8.154   8.586  0.7721 -0.4150  0.2075
  280MOL0     C37686   3.015   8.108   8.445  0.0460 -0.9436 -0.1559
  280MOL0     C37687   2.870   8.125   8.423  0.2862  0.4491 -1.7441
  280MOL0     C37688   2.780   8.038   8.516 -1.1201 -0.1282 -0.1827
  280MOL0     O37689   2.659   8.046   8.456 -0.4036  0.6538 -0.1989
  280MOL0     C37690   2.568   7.948   8.490 -0.2827 -0.2853  0.2591
  280MOL0     C37691   2.587   7.839   8.581 -0.8258 -0.7871  0.7980
  280MOL0     C37692   2.489   7.750   8.611 -0.5233  0.1942  0.7352
  280MOL0     C37693   2.510   7.653   8.724  0.1107  0.3971 -0.5991
  280MOL0     C37694   2.362   7.750   8.529  0.3783 -0.2571 -0.3589
  280MOL0     C37695   2.247   7.644   8.540 -0.2952 -0.4196  0.3770
  280MOL0     O37696   2.133   7.674   8.463  0.1063  0.5580  0.5908
  280MOL0     C37697   2.022   7.582   8.459  0.1685  0.9522  0.0449
  280MOL0     C37698   1.879   7.619   8.478 -0.1716 -0.0863  0.8741
  280MOL0     C37699   1.781   7.521   8.473 -0.1723 -0.1442 -0.8193
  280MOL0     C37700   1.820   7.394   8.433  0.7600 -1.4593  0.0579
  280MOL0     O37701   1.734   7.283   8.445  0.4724 -0.3915 -0.3701
  280MOL0     C37702   1.599   7.298   8.394 -0.9054  0.3855 -0.2274
  280MOL0     C37703   1.521   7.194   8.471  0.8795 -0.0465  1.2421
  280MOL0     C37704   1.492   7.243   8.620  0.2914  1.0403  0.7666
  280MOL0     C37705   1.390   7.150   8.690 -0.3800  0.7864 -0.2772
  280MOL0     C37706   1.309   7.230   8.794  0.0307  0.5047  0.5640
  280MOL0     C37707   1.196   7.171   8.871  1.1298  0.2404 -0.9234
  280MOL0     C37708   1.122   7.279   8.952 -0.4062 -0.3176 -0.6748
  280MOL0     C37709   0.998   7.232   9.021 -0.8776 -0.3852  0.5605
  280MOL0    Cl37710   1.033   7.080   9.112  0.2918  0.3896 -0.0754
  280MOL0     C37711   1.949   7.362   8.403  0.3876  0.0444 -0.1224
  280MOL0     C37712   2.051   7.449   8.427 -0.3237 -0.0633 -0.7190
  280MOL0     O37713   2.258   7.552   8.612  0.3627 -0.4362 -0.2745
  280MOL0     C37714   2.351   7.850   8.425  0.4057  0.6630  0.4283
  280MOL0     C37715   2.453   7.946   8.405 -0.0637  0.0195 -0.6848
  280MOL0     N37716   3.292   8.236   8.538 -0.8316  0.3773  0.2904
  280MOL0     N37717   3.423   8.199   8.550  0.3373  0.2270 -1.1716
  280MOL0     C37718   3.896   8.866   8.147 -0.4278  0.2997  0.4341
  280MOL0     C37719   3.939   8.996   8.161  0.2313 -0.2801  0.2433
  280MOL0     C37720   4.231   9.339   8.297 -0.1751  0.1524  0.7156
  280MOL0     C37721   4.167   9.418   8.193 -0.2424  0.0044 -1.3563
  280MOL0     C37722   4.214   9.546   8.177  0.1804 -0.3235 -0.1027
  280MOL0     C37723   4.331   9.596   8.237  0.3096  0.6492  0.0162
  280MOL0     O37724   4.365   9.724   8.190 -0.6996 -0.3336 -0.1552
  280MOL0     C37725   4.482   9.788   8.239 -0.2302  0.7589  0.2595
  280MOL0     C37726   4.537   9.902   8.163 -0.0921 -0.5182  0.1466
  280MOL0     C37727   4.627   9.853   8.051 -0.6159 -0.0955  0.0923
  280MOL0     C37728   4.742   9.953   8.005  0.2719  0.4053 -0.1214
  280MOL0     C37729   4.852   9.981   8.102  0.7275  0.1269 -0.6832
  280MOL0     C37730   4.952  10.028   8.158  0.0253 -0.3971  0.4807
  280MOL0     C37731   4.399   9.515   8.329  0.2266  0.5107 -0.4843
  280MOL0     C37732   4.348   9.392   8.361 -0.0448 -0.2714  0.1157
  280MOL0     H37733   4.253   8.935   8.299  0.5958  0.6550 -1.8078
  280MOL0     H37734   4.160   8.700   8.279  0.1970  0.5859 -0.3820
  280MOL0     H37735   4.059   8.494   8.253  0.0134 -3.2097 -0.8131
  280MOL0     H37736   3.922   8.536   8.354 -1.7235  0.7555 -1.0850
  280MOL0     H37737   3.787   8.452   8.134 -0.8129  0.0095 -0.5740
  280MOL0     H37738   3.918   8.351   8.122  1.4315  0.2120  1.5091
  280MOL0     H37739   3.754   8.396   8.377  1.6048 -0.6552  2.1486
  280MOL0     H37740   3.729   8.267   8.270 -0.6159 -0.1363  1.9103
  280MOL0     H37741   3.929   8.161   8.351  1.2207 -0.1535 -1.3194
  280MOL0     H37742   3.995   8.305   8.430  0.0348  1.4096 -0.3918
  280MOL0     H37743   3.905   8.152   8.596 -0.4091 -0.9410 -0.2079
  280MOL0     H37744   3.781   8.279   8.588  0.1450  1.2773 -0.8054
  280MOL0     H37745   3.648   8.128   8.434  0.3566  0.1801 -0.1322
  280MOL0     H37746   3.775   8.002   8.450  4.6620  1.7386  1.9294
  280MOL0     H37747   3.746   7.955   8.651  3.6080  2.9229 -1.3146
  280MOL0     H37748   3.664   8.108   8.694  1.6116 -1.4171  1.7010
  280MOL0     H37749   3.524   7.913   8.695 -0.1270 -0.5250 -0.4655
  280MOL0     H37750   3.520   7.915   8.514  0.7021 -1.8204 -0.2676
  280MOL0     H37751   3.247   7.963   8.694  2.4879 -1.4738  0.5032
  280MOL0     H37752   3.023   8.085   8.661 -2.4224  1.7566  0.6472
  280MOL0     H37753   3.038   8.257   8.609  1.5632  0.0641 -0.9345
  280MOL0     H37754   3.043   8.003   8.435 -2.1549 -1.4768 -1.1215
  280MOL0     H37755   3.082   8.161   8.375  1.5123  0.6141  2.2693
  280MOL0     H37756   2.844   8.088   8.323 -0.5291  2.1352 -2.1930
  280MOL0     H37757   2.850   8.233   8.423  1.3671  0.6745 -0.3670
  280MOL0     H37758   2.777   8.071   8.620 -1.1817 -1.3340  0.2133
  280MOL0     H37759   2.824   7.938   8.520  0.1492  0.4184  0.1603
  280MOL0     H37760   2.676   7.828   8.642  0.4107 -2.2140 -1.1237
  280MOL0     H37761   2.479   7.553   8.692  1.3952 -0.3932  0.5113
  280MOL0     H37762   2.614   7.648   8.757  0.5527  1.0694 -1.8285
  280MOL0     H37763   2.442   7.672   8.807 -1.0408 -2.0754 -0.8639
  280MOL0     H37764   1.846   7.721   8.496  0.1606  0.1207  0.3457
  280MOL0     H37765   1.674   7.527   8.492 -0.1488 -0.1259 -0.6927
  280MOL0     H37766   1.546   7.394   8.392 -0.0966  0.8335 -0.4277
  280MOL0     H37767   1.607   7.269   8.288 -2.6575  0.9558 -0.5515
  280MOL0     H37768   1.428   7.168   8.419  1.7777  2.8685 -2.2358
  280MOL0     H37769   1.586   7.108   8.490 -0.9366 -1.8184 -0.0839
  280MOL0     H37770   1.445   7.341   8.606 -0.2038  1.4037  4.2286
  280MOL0     H37771   1.583   7.267   8.676 -0.5013  1.6238  1.8435
  280MOL0     H37772   1.318   7.096   8.629 -0.7313 -0.6150  1.2805
  280MOL0     H37773   1.448   7.079   8.750  0.9408  2.6641  0.8000
  280MOL0     H37774   1.270   7.311   8.732  4.1730 -0.2931 -3.6692
  280MOL0     H37775   1.381   7.270   8.867 -0.5128  1.2067  0.7176
  280MOL0     H37776   1.125   7.121   8.805  0.6383  1.5418 -1.3992
  280MOL0     H37777   1.236   7.096   8.941  1.7834  1.7897  0.4187
  280MOL0     H37778   1.086   7.351   8.878  1.0705  0.2028 -0.9291
  280MOL0     H37779   1.185   7.333   9.024  0.3095 -3.6639  1.4496
  280MOL0     H37780   0.927   7.198   8.945  1.0655 -2.0516 -0.6559
  280MOL0     H37781   0.958   7.309   9.087 -1.6396  2.4528 -2.8921
  280MOL0     H37782   1.980   7.260   8.384  1.0404 -0.2559  2.3461
  280MOL0     H37783   2.156   7.423   8.420 -0.3845 -0.9665  1.1486
  280MOL0     H37784   2.263   7.859   8.362 -1.0898 -4.1541  1.4153
  280MOL0     H37785   2.441   8.015   8.322 -1.0561 -0.1441 -0.6939
  280MOL0     H37786   3.801   8.835   8.104  1.3658 -1.5617 -2.6078
  280MOL0     H37787   3.875   9.083   8.150  0.3723  0.1938  2.6182
  280MOL0     H37788   4.075   9.382   8.149 -0.2220 -1.3849 -0.3252
  280MOL0     H37789   4.153   9.598   8.104 -0.9787  0.0713  1.0929
  280MOL0     H37790   4.478   9.822   8.343 -3.2613  0.5477  0.2808
  280MOL0     H37791   4.565   9.716   8.248  0.9833  2.2385  1.7012
  280MOL0     H37792   4.590   9.972   8.229  2.9310 -2.1184 -0.3790
  280MOL0     H37793   4.468   9.963   8.104  0.9810  1.1144  0.4957
  280MOL0     H37794   4.557   9.827   7.971  1.8726 -1.8832 -1.6592
  280MOL0     H37795   4.675   9.759   8.078  1.1544  0.7930  0.1396
  280MOL0     H37796   4.691  10.046   7.980  1.9280  0.7640 -2.5889
  280MOL0     H37797   4.785   9.923   7.908 -2.1423 -3.5000 -0.2325
  280MOL0     H37798   5.034  10.048   8.223 -1.0936  0.6119  1.6344
  280MOL0     H37799   4.489   9.547   8.380  1.3641 -3.1539  0.0949
  280MOL0     H37800   4.398   9.324   8.429  0.6469 -1.9418 -1.9257
  281MOL0     O37801   1.675   7.085   8.949 -0.2251 -0.1645 -0.3148
  281MOL0     C37802   1.756   7.067   9.043 -0.2206 -0.9304  0.4206
  281MOL0     O37803   1.730   6.987   9.157 -0.4410 -0.3660 -0.4241
  281MOL0     C37804   1.608   6.955   9.198  0.7925 -0.3022  0.2640
  281MOL0     C37805   1.606   6.835   9.277 -0.4661 -0.2498 -0.5723
  281MOL0     C37806   1.488   6.797   9.331  0.3011 -0.9297  0.3875
  281MOL0     C37807   1.372   6.875   9.313 -0.4475 -0.0457  0.6705
  281MOL0     O37808   1.261   6.831   9.371  0.6793 -0.1592 -0.4339
  281MOL0     C37809   1.230   6.898   9.493 -0.0373 -0.4991 -0.1321
  281MOL0     C37810   1.296   6.829   9.615  0.6116 -0.1638 -0.3225
  281MOL0     C37811   1.250   6.688   9.643 -0.3695 -0.2286  0.4192
  281MOL0     C37812   1.113   6.687   9.705  0.4351 -0.9293 -0.7131
  281MOL0     C37813   1.120   6.714   9.854  0.1430  0.0375 -0.7905
  281MOL0     C37814   1.005   6.647   9.932 -0.2327  0.6646  0.1523
  281MOL0     C37815   1.035   6.634  10.086 -0.1954  0.0379 -0.1683
  281MOL0     C37816   1.038   6.765  10.152 -0.3696  0.2551 -0.8842
  281MOL0     N37817   0.909   6.846  10.138 -0.1223 -0.2566  0.7515
  281MOL0     C37818   0.793   6.839  10.214 -0.0039 -0.0027 -0.0919
  281MOL0     C37819   0.711   6.931  10.163 -0.5046  0.4667  0.3090
  281MOL0     C37820   0.571   6.956  10.204  0.6648 -0.2076 -0.1919
  281MOL0     C37821   0.563   7.070  10.317  0.0967  0.0546  0.1112
  281MOL0     C37822   0.429   7.073  10.384  0.0055  0.7458 -0.1588
  281MOL0     C37823   0.321   7.149  10.313  0.2668 -0.3856 -0.3960
  281MOL0     O37824   0.231   7.177  10.427 -0.3602  0.2178 -0.3757
  281MOL0     C37825   0.102   7.208  10.400  0.1235 -0.3577 -0.6093
  281MOL0     C37826   0.013   7.220  10.506 -0.2497 -0.2179 -0.3109
  281MOL0     C37827  -0.123   7.235  10.487 -0.0913  0.4756  0.2369
  281MOL0     C37828  -0.210   7.244  10.608  0.7407 -0.4844 -0.1888
  281MOL0     C37829  -0.172   7.238  10.352  0.3760 -0.1184  0.4595
  281MOL0     C37830  -0.311   7.259  10.309  0.2369  0.0806  0.1141
  281MOL0     O37831  -0.340   7.300  10.185  0.2320  0.2018 -1.1338
  281MOL0     C37832  -0.474   7.328  10.171 -1.0527 -0.4229  0.0363
  281MOL0     C37833  -0.581   7.243  10.150  0.1553 -0.1013 -0.3715
  281MOL0     C37834  -0.716   7.279  10.139  0.4203  0.4946 -0.1337
  281MOL0     C37835  -0.748   7.418  10.132  0.0845 -0.6493  0.5420
  281MOL0     O37836  -0.878   7.464  10.118  0.2269  0.1968  0.2178
  281MOL0     C37837  -0.980   7.365  10.097  0.4986 -0.4324  0.2228
  281MOL0     C37838  -1.117   7.418  10.065  0.3548  0.4520  0.3907
  281MOL0     C37839  -1.163   7.509  10.170  0.0476  0.4717 -0.2123
  281MOL0     C37840  -1.316   7.552  10.165 -0.5456  0.2769  0.2828
  281MOL0     C37841  -1.372   7.569  10.021 -0.2572 -0.3368 -1.0860
  281MOL0     C37842  -1.495   7.665  10.005 -0.2637 -0.7332 -0.7623
  281MOL0     C37843  -1.493   7.806  10.057  0.4434  0.0765 -0.1100
  281MOL0     C37844  -1.607   7.897   9.993  0.0730  0.1739 -1.0389
  281MOL0    Cl37845  -1.764   7.868  10.066  0.5079  0.1587 -0.0051
  281MOL0     C37846  -0.637   7.512  10.141 -0.5500  0.4675  0.1015
  281MOL0     C37847  -0.505   7.468  10.172 -0.5576  0.5289  1.1017
  281MOL0     O37848  -0.397   7.211  10.388 -0.3846 -1.0146  0.0440
  281MOL0     C37849  -0.078   7.225  10.251  0.6621 -0.3984  0.2031
  281MOL0     C37850   0.053   7.201  10.271  0.4199 -0.1565  0.2056
  281MOL0     N37851   0.780   6.993  10.057 -0.0658 -0.5852  0.3881
  281MOL0     N37852   0.894   6.933  10.037  0.4747  0.3772  0.5018
  281MOL0     C37853   1.365   6.980   9.220 -0.3527  0.3341  0.0263
  281MOL0     C37854   1.487   7.030   9.170  0.4231  0.6907 -0.5517
  281MOL0     C37855   1.881   7.149   9.035  0.0097  0.1954  0.7042
  281MOL0     C37856   1.916   7.227   8.924  0.1726  0.5093 -0.2318
  281MOL0     C37857   2.041   7.299   8.926  0.3382 -0.3158  0.0849
  281MOL0     C37858   2.136   7.286   9.032  0.8204 -0.2354 -1.0726
  281MOL0     O37859   2.245   7.374   9.030 -0.0377  0.2582  0.4404
  281MOL0     C37860   2.349   7.361   8.927  1.2285 -0.0889 -0.4420
  281MOL0     C37861   2.384   7.214   8.890  0.1316  0.1006  0.1275
  281MOL0     C37862   2.330   7.162   8.759  0.5526  0.0008  0.4536
  281MOL0     C37863   2.397   7.027   8.723  1.5023  0.2652 -0.5538
  281MOL0     C37864   2.540   7.046   8.685 -0.2324  0.8180 -0.7610
  281MOL0     C37865   2.661   7.069   8.671  0.9418  0.2989 -0.5157
  281MOL0     C37866   2.101   7.205   9.141 -0.4964 -0.1502  0.8382
  281MOL0     C37867   1.975   7.140   9.138  1.0156 -0.4426 -0.1982
  281MOL0     H37868   1.694   6.777   9.303 -1.0366 -0.6442  0.5616
  281MOL0     H37869   1.478   6.706   9.389 -0.3479 -0.3084  1.2858
  281MOL0     H37870   1.264   7.002   9.487  1.1376 -0.8460  0.4017
  281MOL0     H37871   1.122   6.908   9.508  0.0493  1.8880 -0.7212
  281MOL0     H37872   1.405   6.822   9.609  0.9948 -0.0570  3.7183
  281MOL0     H37873   1.281   6.894   9.701  0.2021 -1.3807  0.5380
  281MOL0     H37874   1.235   6.636   9.548  0.4569 -0.3186  0.3346
  281MOL0     H37875   1.321   6.642   9.712 -0.1268  0.8547  0.9161
  281MOL0     H37876   1.043   6.752   9.650  0.9131 -0.9898 -1.3977
  281MOL0     H37877   1.084   6.583   9.689 -0.8227 -0.5123 -1.2558
  281MOL0     H37878   1.212   6.677   9.898 -0.1546  0.4230  0.1732
  281MOL0     H37879   1.120   6.822   9.869 -1.1040  0.0669 -0.8923
  281MOL0     H37880   0.913   6.700   9.907 -0.0892  0.5078 -0.7407
  281MOL0     H37881   0.982   6.547   9.895 -3.4330  0.7396  1.5871
  281MOL0     H37882   0.960   6.568  10.130 -0.3569  0.1448 -0.2791
  281MOL0     H37883   1.129   6.581  10.103 -1.4465 -1.8662  1.2072
  281MOL0     H37884   1.114   6.831  10.110  0.9291  0.2962  1.3625
  281MOL0     H37885   1.063   6.756  10.258  0.4738  1.0431 -0.9992
  281MOL0     H37886   0.775   6.776  10.300  1.6676 -1.3459 -0.6459
  281MOL0     H37887   0.516   6.985  10.114  0.2351  1.5906  0.5910
  281MOL0     H37888   0.527   6.862  10.239 -0.7677  1.1574  1.9301
  281MOL0     H37889   0.576   7.171  10.276  0.7819 -0.7992 -1.9303
  281MOL0     H37890   0.638   7.046  10.393 -1.0756 -3.3433  0.3831
  281MOL0     H37891   0.431   7.129  10.478 -2.5680 -0.5395  0.7314
  281MOL0     H37892   0.393   6.977  10.423  1.5767  1.6752  4.2649
  281MOL0     H37893   0.277   7.086  10.236  1.7751 -0.4319 -1.2631
  281MOL0     H37894   0.360   7.243  10.274  0.2144  1.6716  3.9294
  281MOL0     H37895   0.053   7.214  10.607 -1.3772 -0.8626  0.1238
  281MOL0     H37896  -0.298   7.183  10.588  0.6226  0.0147 -1.2748
  281MOL0     H37897  -0.164   7.201  10.697  0.9155  2.0312  1.0163
  281MOL0     H37898  -0.238   7.346  10.633  1.3224 -0.9454  2.6222
  281MOL0     H37899  -0.573   7.135  10.139 -3.1118 -0.9468  3.3419
  281MOL0     H37900  -0.789   7.201  10.124 -0.8074  1.6900 -0.6191
  281MOL0     H37901  -0.959   7.291  10.020  0.4412 -2.6452  2.2172
  281MOL0     H37902  -0.992   7.308  10.190 -1.6240  2.0576  1.6284
  281MOL0     H37903  -1.109   7.465   9.966 -0.9443 -0.4655 -0.1663
  281MOL0     H37904  -1.190   7.339  10.051 -1.4567  2.5501 -4.1639
  281MOL0     H37905  -1.105   7.601  10.163  1.5424 -0.4049  0.1336
  281MOL0     H37906  -1.151   7.458  10.266 -1.4739 -3.4695 -1.8819
  281MOL0     H37907  -1.375   7.479  10.221 -0.5424  0.6701  0.8047
  281MOL0     H37908  -1.303   7.649  10.214 -1.8917  0.2075  0.8349
  281MOL0     H37909  -1.373   7.467   9.980  0.4500 -0.1535 -1.5857
  281MOL0     H37910  -1.291   7.614   9.962  2.3403 -0.3951  2.1521
  281MOL0     H37911  -1.517   7.682   9.900 -1.0820  0.6907 -0.3943
  281MOL0     H37912  -1.579   7.610  10.049 -0.0476 -1.0360 -0.7178
  281MOL0     H37913  -1.398   7.855  10.033  0.6405 -0.9026 -1.4326
  281MOL0     H37914  -1.505   7.801  10.165 -1.1202  2.6704 -0.0566
  281MOL0     H37915  -1.606   7.880   9.885  2.5507 -0.6994 -0.9473
  281MOL0     H37916  -1.590   8.003  10.016 -1.3455  0.3934 -0.9119
  281MOL0     H37917  -0.652   7.619  10.131  0.3986  0.6931  0.9678
  281MOL0     H37918  -0.429   7.544  10.186 -2.4060  2.6642  0.1247
  281MOL0     H37919  -0.116   7.241  10.151 -2.1833  3.2161  1.6364
  281MOL0     H37920   0.109   7.197  10.178 -0.5263  1.6558 -0.4928
  281MOL0     H37921   1.273   7.034   9.203  0.5983  2.0095 -0.0644
  281MOL0     H37922   1.472   7.118   9.109 -2.0166  2.8231  2.8019
  281MOL0     H37923   1.859   7.240   8.833 -0.9550  2.0524  0.6425
  281MOL0     H37924   2.073   7.360   8.842  1.9080 -1.4011 -0.1458
  281MOL0     H37925   2.313   7.421   8.843  0.7206  2.1319  1.2550
  281MOL0     H37926   2.443   7.400   8.970  0.9056 -2.2418  2.5122
  281MOL0     H37927   2.328   7.156   8.964  0.6580  0.3523  0.7241
  281MOL0     H37928   2.493   7.211   8.898  0.2540  0.6609 -1.1334
  281MOL0     H37929   2.352   7.234   8.679  0.5193 -1.8890 -1.3190
  281MOL0     H37930   2.221   7.159   8.770  0.5214 -0.1283  0.1150
  281MOL0     H37931   2.350   6.990   8.631  3.2163  0.3161 -1.4908
  281MOL0     H37932   2.373   6.958   8.804 -0.5599  2.1190  0.5163
  281MOL0     H37933   2.767   7.084   8.678  1.2889 -1.8086 -0.5930
  281MOL0     H37934   2.161   7.172   9.225 -3.2938 -1.7582  2.3606
  281MOL0     H37935   1.957   7.076   9.224  4.1877  0.7978  1.5518
  282MOL0     O37936   2.191   2.937   1.449  0.4458 -0.1334  0.3501
  282MOL0     C37937   2.179   2.973   1.332  0.4090 -0.0429  0.6577
  282MOL0     O37938   2.064   2.980   1.258  0.1095 -0.2401 -0.1455
  282MOL0     C37939   1.935   2.964   1.307 -0.0639 -0.1067  0.3307
  282MOL0     C37940   1.893   2.871   1.400  1.0191  0.0268  0.4378
  282MOL0     C37941   1.759   2.855   1.438  0.5275 -0.2984 -0.3077
  282MOL0     C37942   1.658   2.933   1.375  0.3233  0.1814  0.3665
  282MOL0     O37943   1.523   2.920   1.397 -0.0653  0.2239  0.5189
  282MOL0     C37944   1.486   2.834   1.514  0.3617 -0.7463  0.7253
  282MOL0     C37945   1.338   2.837   1.549 -0.2196 -0.5949  0.2176
  282MOL0     C37946   1.243   2.767   1.448  0.4544  0.4465  0.3365
  282MOL0     C37947   1.100   2.742   1.516 -0.0860 -0.1385 -0.1575
  282MOL0     C37948   0.996   2.692   1.417 -0.7892 -0.9950  0.4273
  282MOL0     C37949   0.861   2.728   1.468  1.5198 -0.3433  1.3102
  282MOL0     C37950   0.745   2.682   1.378 -0.8496 -0.1279  0.9885
  282MOL0     C37951   0.632   2.793   1.371  0.0962 -0.3895  0.2463
  282MOL0     N37952   0.545   2.773   1.254  0.4454  0.6427 -0.5948
  282MOL0     C37953   0.587   2.788   1.121 -0.5337  0.0460 -0.1059
  282MOL0     C37954   0.484   2.761   1.036  0.4210  0.0021  0.3399
  282MOL0     C37955   0.479   2.762   0.888 -0.2073 -0.1122 -0.6629
  282MOL0     C37956   0.554   2.635   0.828 -0.2110  0.5527  0.1822
  282MOL0     C37957   0.699   2.627   0.862 -0.3830  0.2046 -1.0371
  282MOL0     C37958   0.766   2.514   0.772 -0.3370 -0.4007 -0.2534
  282MOL0     O37959   0.908   2.494   0.816  0.0336  0.0097  0.4732
  282MOL0     C37960   0.993   2.434   0.731 -1.0803  0.5021  1.2628
  282MOL0     C37961   0.959   2.383   0.605  0.2601  1.2140  0.3522
  282MOL0     C37962   1.048   2.300   0.527 -0.0356  0.1128 -0.2959
  282MOL0     C37963   1.007   2.243   0.396  1.0107  0.8953 -0.2518
  282MOL0     C37964   1.171   2.266   0.586  0.3615 -0.1676 -0.6921
  282MOL0     C37965   1.288   2.187   0.522 -0.2656 -0.4424 -0.6952
  282MOL0     O37966   1.286   2.167   0.382  0.4842 -0.1502 -0.1768
  282MOL0     C37967   1.402   2.130   0.324 -0.8157  0.6644  0.6689
  282MOL0     C37968   1.475   2.227   0.252  0.2204  0.5088 -0.4646
  282MOL0     C37969   1.607   2.201   0.197  0.3682 -1.2335  0.6214
  282MOL0     C37970   1.660   2.075   0.221 -0.8386 -0.0171  0.1250
  282MOL0     O37971   1.789   2.041   0.194 -0.9800 -0.4351 -0.3623
  282MOL0     C37972   1.862   2.107   0.090  0.5625  0.5350 -0.1096
  282MOL0     C37973   1.999   2.051   0.082 -0.5151 -0.1236 -0.9301
  282MOL0     C37974   2.094   2.144   0.003  0.7798  0.3923 -0.1994
  282MOL0     C37975   2.239   2.153   0.056 -0.1752  0.3225  0.3529
  282MOL0     C37976   2.262   2.248   0.176 -0.0558  0.0582 -0.1499
  282MOL0     C37977   2.401   2.257   0.233 -0.5336  0.8521 -0.0340
  282MOL0     C37978   2.442   2.113   0.268 -0.0742 -1.1055  0.0075
  282MOL0     C37979   2.537   2.103   0.381  1.1896 -0.3217  0.2644
  282MOL0    Cl37980   2.453   2.124   0.541  0.0191 -0.3841 -0.1511
  282MOL0     C37981   1.589   1.981   0.292 -0.6456  0.9645 -0.3848
  282MOL0     C37982   1.463   2.010   0.341 -0.6134 -0.0467  0.3981
  282MOL0     O37983   1.383   2.160   0.595  0.0596 -0.4903  0.7440
  282MOL0     C37984   1.200   2.317   0.711 -0.8004 -1.6746 -0.2194
  282MOL0     C37985   1.114   2.399   0.784  0.1195 -0.3080 -0.5255
  282MOL0     N37986   0.383   2.725   1.115 -0.3267 -0.2979 -0.3563
  282MOL0     N37987   0.421   2.733   1.242 -0.1670 -0.9076 -0.4643
  282MOL0     C37988   1.701   3.022   1.276 -0.9108  0.3478  0.3187
  282MOL0     C37989   1.834   3.038   1.238 -0.8291 -0.3425 -0.4036
  282MOL0     C37990   2.300   3.006   1.267  1.3713  0.2338  0.2348
  282MOL0     C37991   2.295   3.098   1.163 -0.0442 -0.2134  0.6187
  282MOL0     C37992   2.407   3.150   1.109 -0.0245 -0.6935 -0.3880
  282MOL0     C37993   2.532   3.106   1.157  0.1473 -0.3782  0.3970
  282MOL0     O37994   2.640   3.166   1.096 -0.0207  0.6676 -0.2758
  282MOL0     C37995   2.767   3.139   1.148 -1.1891  0.3420  0.4215
  282MOL0     C37996   2.789   3.202   1.283 -0.1074  0.0421 -0.7234
  282MOL0     C37997   2.808   3.354   1.291 -0.0789 -0.7363  0.2597
  282MOL0     C37998   2.919   3.425   1.194  0.0200 -0.3773 -0.8201
  282MOL0     C37999   3.054   3.395   1.243  0.4372 -0.1516  0.1978
  282MOL0     C38000   3.147   3.347   1.300 -0.2958  0.6750  0.6654
  282MOL0     C38001   2.535   3.003   1.254  1.0243  0.7818  0.4898
  282MOL0     C38002   2.418   2.948   1.301 -0.6040  0.0059 -0.5534
  282MOL0     H38003   1.968   2.831   1.467  3.3082  3.6738  0.3130
  282MOL0     H38004   1.728   2.781   1.511 -1.2872 -1.0406 -1.7360
  282MOL0     H38005   1.518   2.730   1.498 -0.7269 -1.1713  1.2018
  282MOL0     H38006   1.545   2.868   1.600  3.4905  1.9248 -2.1623
  282MOL0     H38007   1.331   2.781   1.643  0.9473  0.7265  1.1312
  282MOL0     H38008   1.305   2.939   1.569  0.2340 -0.3936 -0.0448
  282MOL0     H38009   1.233   2.837   1.364 -2.9326  0.8566  0.9117
  282MOL0     H38010   1.291   2.676   1.411 -2.1240 -0.7582 -0.2795
  282MOL0     H38011   1.103   2.658   1.586  1.0602 -0.5363 -0.6532
  282MOL0     H38012   1.066   2.837   1.558 -1.4866 -0.6471 -0.0818
  282MOL0     H38013   1.026   2.747   1.327  2.8525 -3.2964  0.0106
  282MOL0     H38014   1.005   2.584   1.403  5.5672 -1.5287  4.2997
  282MOL0     H38015   0.832   2.700   1.570 -4.8095  2.7397  0.8768
  282MOL0     H38016   0.859   2.837   1.478  2.6294  0.0488 -1.7668
  282MOL0     H38017   0.785   2.673   1.277 -2.5426 -1.3408  0.3734
  282MOL0     H38018   0.708   2.585   1.412 -0.0471  0.2779  3.1910
  282MOL0     H38019   0.687   2.886   1.357  0.1922 -0.7187 -1.9539
  282MOL0     H38020   0.588   2.801   1.471  3.2987  0.6986  1.6874
  282MOL0     H38021   0.687   2.817   1.089 -1.1117  0.7876 -1.3190
  282MOL0     H38022   0.374   2.778   0.859 -0.6311  0.6734  1.1586
  282MOL0     H38023   0.520   2.856   0.851 -0.5200  0.3651  0.1885
  282MOL0     H38024   0.551   2.638   0.719 -1.3873 -2.5501  0.0441
  282MOL0     H38025   0.503   2.540   0.849 -2.8975  2.0335  0.8501
  282MOL0     H38026   0.709   2.595   0.966 -0.0669  1.9029 -0.5279
  282MOL0     H38027   0.763   2.715   0.849  1.2926 -0.9269 -0.8816
  282MOL0     H38028   0.745   2.549   0.671 -1.0685  0.9947  0.3597
  282MOL0     H38029   0.721   2.416   0.791 -0.4455 -0.2436  0.3365
  282MOL0     H38030   0.860   2.393   0.561  0.9943 -0.9396 -1.9977
  282MOL0     H38031   1.015   2.135   0.382 -1.7510  0.8539 -2.3119
  282MOL0     H38032   0.899   2.261   0.389  0.1836 -2.9774  0.2600
  282MOL0     H38033   1.055   2.290   0.310  2.7278  1.8523  1.1674
  282MOL0     H38034   1.430   2.325   0.240 -0.4047  0.5217  1.6120
  282MOL0     H38035   1.656   2.277   0.138 -2.1846 -0.5385 -0.7483
  282MOL0     H38036   1.826   2.092  -0.013  2.6753  1.2194 -1.0046
  282MOL0     H38037   1.882   2.214   0.101 -2.3155  1.0490  0.9957
  282MOL0     H38038   2.032   2.048   0.186 -0.4842  3.3289 -0.7184
  282MOL0     H38039   2.011   1.953   0.035  1.2002  0.6971 -2.3435
  282MOL0     H38040   2.064   2.246  -0.023  3.5224  0.9605 -1.4507
  282MOL0     H38041   2.098   2.098  -0.096  1.4559  0.3191 -0.1380
  282MOL0     H38042   2.264   2.049   0.080 -1.3335  0.1978  1.0854
  282MOL0     H38043   2.313   2.181  -0.020 -0.3397  0.2486  0.1629
  282MOL0     H38044   2.192   2.221   0.255 -0.9323  0.3060 -0.8242
  282MOL0     H38045   2.241   2.350   0.142  2.2649  0.0901 -1.7461
  282MOL0     H38046   2.473   2.300   0.163 -0.4532  0.5461 -0.1379
  282MOL0     H38047   2.408   2.316   0.325 -2.8921 -1.6907  1.9538
  282MOL0     H38048   2.496   2.070   0.183 -0.2886 -0.1146 -0.6485
  282MOL0     H38049   2.360   2.047   0.297 -0.4932 -1.7290 -2.3807
  282MOL0     H38050   2.608   2.185   0.368  2.5005 -1.2411  1.2749
  282MOL0     H38051   2.597   2.011   0.373  0.0952 -0.8707 -2.9319
  282MOL0     H38052   1.641   1.888   0.310 -3.2211 -0.9012 -1.8509
  282MOL0     H38053   1.414   1.928   0.393 -0.6257 -2.4402 -3.0459
  282MOL0     H38054   1.297   2.299   0.756 -0.3070 -0.2745 -0.6577
  282MOL0     H38055   1.136   2.443   0.880 -1.3842 -0.2468 -0.1826
  282MOL0     H38056   1.629   3.090   1.231 -2.2298 -0.3905  1.2402
  282MOL0     H38057   1.853   3.110   1.160 -0.6435  0.9564  0.7962
  282MOL0     H38058   2.200   3.150   1.151  1.2106  2.4845  1.6382
  282MOL0     H38059   2.388   3.216   1.025  0.9227 -0.9771 -0.8316
  282MOL0     H38060   2.778   3.030   1.144  0.6283  0.5346 -1.4534
  282MOL0     H38061   2.854   3.170   1.089 -1.8732 -0.2772 -0.9647
  282MOL0     H38062   2.886   3.164   1.316  0.0355  1.8711  1.2122
  282MOL0     H38063   2.712   3.172   1.355  2.3697 -0.0287  2.1044
  282MOL0     H38064   2.823   3.377   1.397  0.9242 -0.4888  0.0667
  282MOL0     H38065   2.710   3.392   1.260 -0.2728 -0.1454  1.5548
  282MOL0     H38066   2.907   3.533   1.200  1.9551 -0.1489 -0.2345
  282MOL0     H38067   2.923   3.390   1.090  2.2278 -0.4204 -0.7785
  282MOL0     H38068   3.241   3.310   1.336 -0.6616 -0.6737  0.3053
  282MOL0     H38069   2.627   2.958   1.288 -0.1532 -1.8531  0.4545
  282MOL0     H38070   2.418   2.874   1.381 -0.3086 -1.2837 -1.7191
  283MOL0     O38071  10.594   0.671   3.037 -0.0622  0.5943 -0.3418
  283MOL0     C38072  10.712   0.698   3.041  0.3668  0.7675  0.1433
  283MOL0     O38073  10.771   0.821   3.059  0.1147  0.5165 -0.1090
  283MOL0     C38074  10.698   0.930   3.106  0.1943 -0.4632 -0.4568
  283MOL0     C38075  10.763   1.014   3.199 -0.1484  0.8272  0.8884
  283MOL0     C38076  10.710   1.138   3.231  0.1419  0.2094  0.6828
  283MOL0     C38077  10.589   1.186   3.177  0.8026  0.7138  0.1246
  283MOL0     O38078  10.543   1.309   3.216 -1.2001 -0.3393  0.0847
  283MOL0     C38079  10.438   1.353   3.138  0.2138 -0.6695  0.5108
  283MOL0     C38080  10.429   1.505   3.150  0.0218  0.3452  0.1043
  283MOL0     C38081  10.347   1.565   3.030 -0.5779  0.8623  0.7329
  283MOL0     C38082  10.349   1.722   3.029  0.0598  0.0747 -0.0175
  283MOL0     C38083  10.238   1.786   2.931 -0.7218  0.2423  0.2163
  283MOL0     C38084  10.094   1.767   2.982  0.2657 -0.1203  0.0910
  283MOL0     C38085   9.992   1.825   2.892  0.3098 -0.0554  0.6779
  283MOL0     C38086   9.850   1.797   2.945 -0.2721 -0.0428 -0.7589
  283MOL0     N38087   9.744   1.850   2.860  0.5110 -0.4500  0.2962
  283MOL0     C38088   9.691   1.973   2.874 -0.1921  0.5971  0.2699
  283MOL0     C38089   9.600   1.985   2.778  0.5648 -0.2339  1.6483
  283MOL0     C38090   9.502   2.096   2.740 -0.4926  0.1860 -0.6345
  283MOL0     C38091   9.363   2.064   2.821 -0.1558  0.9601 -0.1694
  283MOL0     C38092   9.387   2.074   2.969 -0.7682  0.3410 -0.6871
  283MOL0     C38093   9.255   2.040   3.047 -0.6757 -0.4160  0.4798
  283MOL0     O38094   9.147   2.124   2.993 -0.4717  0.3517  0.1262
  283MOL0     C38095   9.020   2.114   3.046  0.0952 -0.1037  0.1468
  283MOL0     C38096   8.919   2.203   3.003  0.5579 -0.0274 -1.3994
  283MOL0     C38097   8.788   2.201   3.066  0.0040  0.6062 -0.1478
  283MOL0     C38098   8.696   2.315   3.038 -0.0280 -0.3202 -0.2807
  283MOL0     C38099   8.752   2.088   3.152  0.1039  0.2627  0.1532
  283MOL0     C38100   8.616   2.078   3.218 -0.1409 -0.0261 -0.2258
  283MOL0     O38101   8.514   2.146   3.167 -0.1047 -0.5576  0.2402
  283MOL0     C38102   8.394   2.167   3.221  0.2271  0.1134 -0.3491
  283MOL0     C38103   8.299   2.231   3.136  0.6905  0.1430 -0.9399
  283MOL0     C38104   8.162   2.244   3.168 -0.8825 -0.6261  0.1049
  283MOL0     C38105   8.118   2.196   3.293  0.6425  0.8325 -0.7430
  283MOL0     O38106   7.981   2.194   3.304  0.0702  0.0362 -0.7460
  283MOL0     C38107   7.929   2.064   3.358 -0.4032 -0.8617  0.0527
  283MOL0     C38108   7.773   2.063   3.337  0.1079  0.7250 -0.1919
  283MOL0     C38109   7.688   2.173   3.393  0.3122  0.7389 -0.6815
  283MOL0     C38110   7.550   2.187   3.324  0.1194  0.3660  0.2270
  283MOL0     C38111   7.483   2.303   3.397 -0.5350  0.7193  0.6832
  283MOL0     C38112   7.329   2.310   3.351 -0.2016 -0.9741 -0.6194
  283MOL0     C38113   7.236   2.381   3.454  0.5615  0.0678  0.9825
  283MOL0     C38114   7.084   2.333   3.443 -0.6723 -0.1699 -0.1694
  283MOL0    Cl38115   7.006   2.352   3.274 -0.0789 -0.3950 -0.1900
  283MOL0     C38116   8.208   2.127   3.374 -0.0258 -0.5858 -1.8899
  283MOL0     C38117   8.344   2.109   3.341  0.6389 -0.5920 -0.5495
  283MOL0     O38118   8.601   1.999   3.308 -0.3355  0.3643 -0.0491
  283MOL0     C38119   8.857   2.002   3.190  0.9845  0.4301  0.7747
  283MOL0     C38120   8.981   2.006   3.134  0.5238 -0.1841  0.1107
  283MOL0     N38121   9.602   1.861   2.714 -0.2390 -0.0332  0.1542
  283MOL0     N38122   9.690   1.781   2.759 -0.7715 -0.5623  0.2975
  283MOL0     C38123  10.514   1.096   3.100 -0.6451 -0.1440  0.5841
  283MOL0     C38124  10.573   0.972   3.059 -0.2953  0.9865 -0.6078
  283MOL0     C38125  10.811   0.593   3.003  1.1244  0.7669 -0.2282
  283MOL0     C38126  10.953   0.620   2.999 -0.3532 -0.5331 -0.9399
  283MOL0     C38127  11.038   0.532   2.937  0.2508 -0.1772 -0.0137
  283MOL0     C38128  10.989   0.411   2.888 -0.4443  0.9929 -0.6308
  283MOL0     O38129  11.079   0.334   2.818 -0.7649 -0.2675  0.6855
  283MOL0     C38130  11.032   0.248   2.705 -0.4837 -1.5903 -0.1253
  283MOL0     C38131  11.153   0.190   2.643  0.0724  0.2067  1.2131
  283MOL0     C38132  11.233   0.097   2.737 -0.0474 -0.5076 -0.4176
  283MOL0     C38133  11.360   0.047   2.680  0.8068  0.7712  0.4211
  283MOL0     C38134  11.361  -0.059   2.576 -0.4090 -0.6210  0.5493
  283MOL0     C38135  11.360  -0.152   2.493 -0.6279  0.5629 -0.8654
  283MOL0     C38136  10.852   0.376   2.907 -0.7567 -0.5270 -0.2960
  283MOL0     C38137  10.763   0.473   2.949  0.4367  0.0265  0.4106
  283MOL0     H38138  10.858   0.982   3.241 -0.9232 -0.8585  1.4566
  283MOL0     H38139  10.771   1.204   3.293  0.4073 -2.0227  2.9553
  283MOL0     H38140  10.464   1.326   3.036  1.3859 -3.1793  1.4070
  283MOL0     H38141  10.342   1.303   3.158  0.2510 -0.4779  1.1962
  283MOL0     H38142  10.389   1.530   3.249  3.0042 -1.0413  1.8085
  283MOL0     H38143  10.526   1.555   3.151 -0.4109  1.2439 -0.8943
  283MOL0     H38144  10.383   1.537   2.931  0.9319  0.0286  1.4785
  283MOL0     H38145  10.243   1.532   3.041 -1.6166  1.2059 -5.1019
  283MOL0     H38146  10.333   1.763   3.129 -2.2952 -0.5597 -0.0822
  283MOL0     H38147  10.448   1.752   2.992  0.5018 -1.7211 -0.4024
  283MOL0     H38148  10.261   1.890   2.906 -2.0814 -0.1300 -3.0096
  283MOL0     H38149  10.241   1.726   2.840 -2.2464 -0.8496  0.8433
  283MOL0     H38150  10.073   1.660   2.989 -1.0322  0.1775  1.1703
  283MOL0     H38151  10.094   1.813   3.081 -0.2715  1.4312 -0.6056
  283MOL0     H38152  10.005   1.933   2.898  1.0134  0.1287 -2.6892
  283MOL0     H38153   9.994   1.788   2.789 -3.8911  0.4856  0.2363
  283MOL0     H38154   9.844   1.842   3.045  2.1016 -0.1629 -0.4899
  283MOL0     H38155   9.842   1.688   2.953  2.8900 -0.3338 -0.2697
  283MOL0     H38156   9.700   2.047   2.953  0.5303  1.4599 -0.6064
  283MOL0     H38157   9.548   2.192   2.766  0.5302 -0.5627  0.4103
  283MOL0     H38158   9.480   2.098   2.633  1.0679 -1.1154 -1.0154
  283MOL0     H38159   9.327   1.963   2.799  0.0408  1.0899 -1.1396
  283MOL0     H38160   9.286   2.141   2.807  1.1141  2.2942  0.0374
  283MOL0     H38161   9.419   2.174   3.001 -1.3778  0.7511 -1.3438
  283MOL0     H38162   9.469   2.009   3.001 -0.7793 -0.0621 -1.4595
  283MOL0     H38163   9.260   2.058   3.155 -0.9287 -2.4714  0.8866
  283MOL0     H38164   9.235   1.932   3.038  2.0345 -1.0384  1.0584
  283MOL0     H38165   8.956   2.281   2.937  4.5101 -0.2177  0.2887
  283MOL0     H38166   8.609   2.296   2.974  0.3403  0.2795 -0.9686
  283MOL0     H38167   8.648   2.349   3.130  2.2600  0.6008  0.6472
  283MOL0     H38168   8.757   2.399   3.003 -0.6960  0.3683  0.1751
  283MOL0     H38169   8.329   2.274   3.041 -1.2999  0.8955 -1.2663
  283MOL0     H38170   8.091   2.299   3.107  1.3251  0.8350 -1.3023
  283MOL0     H38171   7.981   1.988   3.300  3.3014  0.5502  1.2460
  283MOL0     H38172   7.947   2.058   3.466  2.5886  2.6665 -0.0795
  283MOL0     H38173   7.759   2.076   3.230  0.5445 -0.5611 -0.4171
  283MOL0     H38174   7.734   1.965   3.368 -0.1222  1.7707  3.3120
  283MOL0     H38175   7.743   2.268   3.393  1.3471  0.1717 -1.6337
  283MOL0     H38176   7.673   2.144   3.497  0.2710 -2.6214 -1.5223
  283MOL0     H38177   7.572   2.193   3.217  2.2539 -1.3649  0.5042
  283MOL0     H38178   7.498   2.094   3.347 -1.5705  1.3714  0.6782
  283MOL0     H38179   7.535   2.398   3.382 -0.7856  0.8947  0.9330
  283MOL0     H38180   7.474   2.283   3.504  1.1199 -0.6558  0.6205
  283MOL0     H38181   7.336   2.344   3.248  3.4254 -2.9905 -1.2316
  283MOL0     H38182   7.297   2.205   3.347  0.9578 -1.3452 -0.5232
  283MOL0     H38183   7.232   2.490   3.439 -1.6484  0.1693  2.0015
  283MOL0     H38184   7.263   2.361   3.558 -0.9250  1.2847  1.6387
  283MOL0     H38185   7.035   2.373   3.532 -1.6015 -1.7461  0.0632
  283MOL0     H38186   7.079   2.224   3.453  1.9320 -0.5430 -1.9403
  283MOL0     H38187   8.171   2.080   3.465  0.7400  0.1029 -1.2069
  283MOL0     H38188   8.400   2.038   3.401  0.0716 -1.0582 -0.5564
  283MOL0     H38189   8.841   1.917   3.256 -0.0147  1.1375  1.4836
  283MOL0     H38190   9.054   1.932   3.168 -0.0677 -0.7923  0.0748
  283MOL0     H38191  10.416   1.119   3.059 -0.6000  2.1434  1.6538
  283MOL0     H38192  10.522   0.909   2.987  1.6827  0.3238 -1.4822
  283MOL0     H38193  10.990   0.715   3.036  0.5056 -1.2611  0.1282
  283MOL0     H38194  11.142   0.557   2.918  0.6103 -2.1887 -0.9184
  283MOL0     H38195  10.971   0.178   2.763  1.2668 -0.2198  3.6890
  283MOL0     H38196  10.959   0.297   2.639 -1.3116 -0.0374  1.8181
  283MOL0     H38197  11.224   0.262   2.600  0.2229 -0.0088  1.1036
  283MOL0     H38198  11.117   0.123   2.564  2.2060 -0.5979  0.8677
  283MOL0     H38199  11.159   0.018   2.756  1.1901 -1.0330  2.8519
  283MOL0     H38200  11.256   0.139   2.836  2.3498 -1.4274 -0.5254
  283MOL0     H38201  11.412  -0.001   2.763  0.6503 -0.9292 -0.4258
  283MOL0     H38202  11.418   0.131   2.642  0.2091  0.7415 -0.6057
  283MOL0     H38203  11.361  -0.236   2.428  2.1204 -2.1035  2.2828
  283MOL0     H38204  10.825   0.274   2.882  1.4896 -1.6005  1.2835
  283MOL0     H38205  10.657   0.449   2.945  0.6051 -0.6821 -2.2931
  284MOL0     O38206   7.569   6.966   0.607 -0.6456  0.8129  0.2684
  284MOL0     C38207   7.642   7.010   0.520 -0.9038  0.6140  0.5308
  284MOL0     O38208   7.605   7.068   0.399  0.1873 -0.0514  0.3026
  284MOL0     C38209   7.480   7.056   0.349  0.7568 -1.4147  0.1369
  284MOL0     C38210   7.371   7.103   0.419  0.0112  1.2318 -0.6428
  284MOL0     C38211   7.246   7.068   0.381 -0.2441  0.6693 -0.4214
  284MOL0     C38212   7.224   6.987   0.273  0.6564 -0.0572  0.4800
  284MOL0     O38213   7.092   6.948   0.247 -1.0688 -0.5073  0.6641
  284MOL0     C38214   7.049   6.940   0.109 -0.1361  0.5231 -0.6924
  284MOL0     C38215   7.046   6.788   0.063  0.5408  0.5565 -0.0337
  284MOL0     C38216   6.914   6.715   0.118  0.2001 -0.3612  0.6062
  284MOL0     C38217   6.861   6.605   0.028 -0.2309 -0.2303 -0.1443
  284MOL0     C38218   6.711   6.569   0.074 -0.6560 -1.1043  0.1455
  284MOL0     C38219   6.671   6.436   0.023 -0.4962  0.0783 -0.8129
  284MOL0     C38220   6.538   6.401   0.069 -0.5202  0.5469  0.0655
  284MOL0     C38221   6.478   6.283  -0.005  0.0648  0.0442 -0.2867
  284MOL0     N38222   6.354   6.235   0.063 -1.0320  0.2608  1.0942
  284MOL0     C38223   6.357   6.137   0.159  0.5961 -0.4414 -0.0007
  284MOL0     C38224   6.233   6.131   0.207 -0.4930  1.0704  0.1780
  284MOL0     C38225   6.192   6.036   0.315 -0.2126 -0.1258  0.1800
  284MOL0     C38226   6.037   5.992   0.305 -0.1277 -0.5580  0.6764
  284MOL0     C38227   6.024   5.887   0.411  0.1641 -0.3631  0.4056
  284MOL0     C38228   5.896   5.800   0.417  0.1223  0.0866  0.5698
  284MOL0     O38229   5.853   5.742   0.289  0.2475 -0.0563  0.1513
  284MOL0     C38230   5.723   5.703   0.287  0.1225  0.4645 -0.0364
  284MOL0     C38231   5.671   5.621   0.381  0.1208  1.4273 -1.2835
  284MOL0     C38232   5.540   5.570   0.360  0.1040  1.2953  0.1893
  284MOL0     C38233   5.481   5.500   0.474 -0.0303 -0.8425  0.2423
  284MOL0     C38234   5.467   5.592   0.237  0.2310 -0.5691  0.5074
  284MOL0     C38235   5.331   5.545   0.201 -0.5470 -0.0680 -1.1898
  284MOL0     O38236   5.256   5.612   0.107 -0.4751  0.4582  0.2197
  284MOL0     C38237   5.128   5.584   0.073 -0.6520  0.3669 -0.6802
  284MOL0     C38238   5.087   5.497  -0.036 -0.1749 -0.6458 -0.5981
  284MOL0     C38239   4.961   5.437  -0.046 -0.3231  0.3005 -0.3804
  284MOL0     C38240   4.867   5.488   0.042  0.4687 -0.9827 -0.4190
  284MOL0     O38241   4.740   5.437   0.030 -0.2936  0.2099  0.0033
  284MOL0     C38242   4.629   5.515   0.081  0.9677  0.3387  0.2664
  284MOL0     C38243   4.501   5.486  -0.005  0.8306 -0.0311  0.1122
  284MOL0     C38244   4.374   5.557   0.043  0.7865  0.5270 -0.8997
  284MOL0     C38245   4.256   5.550  -0.068 -0.0696 -0.2946 -0.1140
  284MOL0     C38246   4.124   5.591   0.011  0.1241  0.1122  0.4470
  284MOL0     C38247   4.029   5.669  -0.080  0.4302 -0.8481  0.1960
  284MOL0     C38248   3.878   5.648  -0.042 -0.3568 -0.9044  0.8330
  284MOL0     C38249   3.788   5.700  -0.161 -0.7930  0.6932  0.4133
  284MOL0    Cl38250   3.611   5.682  -0.124  0.2420 -0.1606 -0.3316
  284MOL0     C38251   4.895   5.596   0.135 -0.8352  0.9049  0.5098
  284MOL0     C38252   5.023   5.634   0.150 -0.6323 -0.0642 -0.7586
  284MOL0     O38253   5.297   5.440   0.251 -0.0484  0.0175  0.3968
  284MOL0     C38254   5.531   5.683   0.142  0.1532 -0.0320  0.2659
  284MOL0     C38255   5.659   5.737   0.176  0.7713  0.2918 -0.5510
  284MOL0     N38256   6.161   6.224   0.142  0.0907  0.2918  0.2711
  284MOL0     N38257   6.234   6.296   0.062 -0.7188  0.1743 -0.3620
  284MOL0     C38258   7.330   6.945   0.201 -0.6133  0.0329  0.0982
  284MOL0     C38259   7.457   6.993   0.223 -0.9775 -0.1521  0.5399
  284MOL0     C38260   7.788   7.000   0.534 -0.8992  0.1298  0.2409
  284MOL0     C38261   7.885   7.039   0.435 -0.9685 -0.1681 -0.5673
  284MOL0     C38262   8.017   7.017   0.458 -0.9190  0.0847 -0.6847
  284MOL0     C38263   8.066   6.976   0.579 -0.1056 -0.9894  0.3444
  284MOL0     O38264   8.208   6.961   0.592 -0.7817 -1.0545  1.0046
  284MOL0     C38265   8.268   6.942   0.718  1.5675  0.0458 -0.7801
  284MOL0     C38266   8.419   6.945   0.709 -0.5096  0.1009  0.3825
  284MOL0     C38267   8.470   6.968   0.848 -0.5376  0.7581 -0.7293
  284MOL0     C38268   8.629   6.973   0.849  0.2301  0.1561  0.6395
  284MOL0     C38269   8.692   6.857   0.787  0.4374 -0.7518  0.2180
  284MOL0     C38270   8.734   6.750   0.740 -1.1873 -0.4461  0.7393
  284MOL0     C38271   7.970   6.952   0.680  0.4574  0.1453  1.4530
  284MOL0     C38272   7.837   6.961   0.659  0.3425 -0.8662 -0.0420
  284MOL0     H38273   7.378   7.160   0.511  0.1069  1.2042 -0.6319
  284MOL0     H38274   7.162   7.107   0.438 -2.4899 -1.5115 -2.0191
  284MOL0     H38275   6.951   6.981   0.082 -0.9320 -0.7176  0.1866
  284MOL0     H38276   7.123   6.978   0.038  0.8519 -0.7658 -0.3882
  284MOL0     H38277   7.038   6.786  -0.046 -3.2976 -0.1748  0.0878
  284MOL0     H38278   7.139   6.738   0.090  0.8496 -2.0752 -4.8179
  284MOL0     H38279   6.936   6.668   0.215 -1.0154 -0.2056  0.9730
  284MOL0     H38280   6.833   6.787   0.132  1.3712  1.2496 -0.4400
  284MOL0     H38281   6.862   6.652  -0.070 -1.6637 -0.6141 -0.3692
  284MOL0     H38282   6.926   6.517   0.038 -2.8644 -2.1671  1.2005
  284MOL0     H38283   6.709   6.556   0.183 -3.0144  0.5851  0.3807
  284MOL0     H38284   6.643   6.653   0.057 -2.0235 -2.1418  0.3356
  284MOL0     H38285   6.664   6.449  -0.085 -2.2198  2.5475 -0.5011
  284MOL0     H38286   6.743   6.355   0.038  1.8807  2.2073 -0.1122
  284MOL0     H38287   6.540   6.365   0.172  0.2906 -1.4276 -0.5974
  284MOL0     H38288   6.482   6.494   0.057  0.8133  1.6495  1.8137
  284MOL0     H38289   6.554   6.204  -0.007  0.0656  0.0188  0.4013
  284MOL0     H38290   6.465   6.308  -0.111 -0.5929  2.9486  0.3826
  284MOL0     H38291   6.435   6.065   0.185  0.5723  0.7905  4.0688
  284MOL0     H38292   6.263   5.954   0.304 -0.8397 -0.4326 -2.2789
  284MOL0     H38293   6.207   6.070   0.418  0.9345  2.0302 -0.6374
  284MOL0     H38294   5.991   5.972   0.208  0.1022  1.6895  0.0333
  284MOL0     H38295   5.975   6.075   0.342 -0.3669 -0.4284 -0.0100
  284MOL0     H38296   6.041   5.942   0.504 -1.2417  2.4494 -0.8568
  284MOL0     H38297   6.103   5.814   0.394  0.7437  0.3557 -0.0499
  284MOL0     H38298   5.814   5.867   0.444 -0.2308 -0.6893  1.4654
  284MOL0     H38299   5.900   5.722   0.494 -4.4063 -2.1386 -1.0575
  284MOL0     H38300   5.726   5.594   0.471 -1.6362 -2.1914 -1.0992
  284MOL0     H38301   5.443   5.406   0.433  0.8616 -1.0459 -0.1509
  284MOL0     H38302   5.559   5.489   0.550  2.0031  3.0382 -0.9970
  284MOL0     H38303   5.398   5.559   0.513  1.8025  1.1288  1.3467
  284MOL0     H38304   5.162   5.470  -0.110  0.7148 -0.0906  0.0893
  284MOL0     H38305   4.932   5.358  -0.114  2.1411  1.2487 -2.6780
  284MOL0     H38306   4.606   5.474   0.180 -0.7976 -0.4738 -0.4336
  284MOL0     H38307   4.638   5.624   0.077  3.2027  0.2077  0.5872
  284MOL0     H38308   4.525   5.503  -0.110  2.2125  0.0627  0.4253
  284MOL0     H38309   4.482   5.378   0.004  0.2302  0.2543  5.5834
  284MOL0     H38310   4.398   5.661   0.065  2.4158  0.1635 -0.8563
  284MOL0     H38311   4.343   5.507   0.135  5.5258 -0.0286  0.6327
  284MOL0     H38312   4.277   5.625  -0.144 -0.4780  1.3446  1.3300
  284MOL0     H38313   4.242   5.450  -0.109 -0.7400  0.0750 -0.8104
  284MOL0     H38314   4.151   5.652   0.097  3.0993 -0.6229  0.1407
  284MOL0     H38315   4.071   5.502   0.044  0.6844 -0.7388 -0.8634
  284MOL0     H38316   4.048   5.775  -0.096 -0.4338 -0.9052 -1.4304
  284MOL0     H38317   4.054   5.635  -0.180  1.8649  0.8427 -0.0655
  284MOL0     H38318   3.847   5.707   0.045 -4.6753  2.6919 -2.6332
  284MOL0     H38319   3.862   5.541  -0.028 -0.2573 -0.8256  1.5696
  284MOL0     H38320   3.813   5.649  -0.254  1.2513 -1.2730  1.9388
  284MOL0     H38321   3.805   5.806  -0.182 -0.3330  0.8001  1.2620
  284MOL0     H38322   4.829   5.612   0.219 -0.5237 -2.2998  1.5014
  284MOL0     H38323   5.049   5.695   0.236 -0.3778  1.1129 -1.6329
  284MOL0     H38324   5.479   5.724   0.056 -2.1711  0.4075  1.7799
  284MOL0     H38325   5.710   5.798   0.102  0.9090 -0.7284 -1.3156
  284MOL0     H38326   7.323   6.859   0.136  1.6920 -0.0053 -0.1883
  284MOL0     H38327   7.541   6.954   0.166 -0.8635  1.0122 -0.1236
  284MOL0     H38328   7.864   7.068   0.332  1.0716 -1.0876 -1.3054
  284MOL0     H38329   8.089   7.035   0.379 -0.1104 -1.7043 -0.4071
  284MOL0     H38330   8.227   7.011   0.793 -0.6500 -2.1944  0.2288
  284MOL0     H38331   8.244   6.845   0.762  1.3917  1.6038  2.9474
  284MOL0     H38332   8.435   7.027   0.638  0.4249 -1.4534 -1.2665
  284MOL0     H38333   8.462   6.856   0.664  2.8036  1.4960  0.5403
  284MOL0     H38334   8.435   6.885   0.909  1.1283 -1.1177 -2.1874
  284MOL0     H38335   8.437   7.066   0.885 -0.7570  0.6368 -0.6026
  284MOL0     H38336   8.672   6.977   0.949  3.1362 -0.4857 -0.4900
  284MOL0     H38337   8.669   7.062   0.799  0.6211 -0.9735 -1.1827
  284MOL0     H38338   8.782   6.664   0.697 -2.0133  0.4407 -2.1771
  284MOL0     H38339   8.001   6.920   0.780  1.1980 -4.0878  0.0583
  284MOL0     H38340   7.768   6.935   0.738 -0.0528 -1.3076 -0.5270
  285MOL0     O38341   1.625   4.278   8.600 -0.6110  0.2062  0.1826
  285MOL0     C38342   1.607   4.382   8.527 -0.4431  0.4541 -0.9751
  285MOL0     O38343   1.698   4.443   8.445 -0.2600 -0.9775  0.7370
  285MOL0     C38344   1.822   4.398   8.467  0.2428 -0.8362  0.7659
  285MOL0     C38345   1.864   4.270   8.442  0.7095  0.2908  0.7712
  285MOL0     C38346   1.997   4.229   8.456  0.9417 -0.6311  0.1153
  285MOL0     C38347   2.100   4.314   8.497 -0.1209  0.0557 -0.0465
  285MOL0     O38348   2.227   4.267   8.514 -1.1738  0.2853  0.0770
  285MOL0     C38349   2.281   4.299   8.640 -1.2189 -0.5836 -0.6318
  285MOL0     C38350   2.431   4.251   8.667 -0.0720  0.6781  0.1927
  285MOL0     C38351   2.443   4.112   8.601 -0.4744  0.0267  0.5118
  285MOL0     C38352   2.591   4.068   8.581  0.3206  0.2151 -0.4941
  285MOL0     C38353   2.602   3.924   8.518  0.0146  0.4046 -0.9835
  285MOL0     C38354   2.746   3.886   8.467  0.1937 -0.3463 -0.2403
  285MOL0     C38355   2.800   3.954   8.339  0.5664 -0.4750  1.3009
  285MOL0     C38356   2.729   3.915   8.204 -0.2340 -0.1602 -0.3839
  285MOL0     N38357   2.770   3.994   8.095  0.2615  0.0811  0.1317
  285MOL0     C38358   2.890   3.993   8.030  0.1881 -0.7310  0.7575
  285MOL0     C38359   2.885   4.108   7.958  0.1093  0.5950  0.6246
  285MOL0     C38360   2.977   4.151   7.849 -0.4904  0.3116  0.1307
  285MOL0     C38361   2.905   4.159   7.716 -0.5038  1.1949  0.6121
  285MOL0     C38362   2.834   4.041   7.640 -0.9802  0.2164 -0.1046
  285MOL0     C38363   2.791   4.106   7.507  0.7166 -0.0772  0.1323
  285MOL0     O38364   2.695   4.216   7.513 -0.3079 -0.1293  0.4819
  285MOL0     C38365   2.565   4.186   7.508  0.2978 -0.2570  0.6680
  285MOL0     C38366   2.509   4.121   7.401 -0.1618  0.3601 -0.1342
  285MOL0     C38367   2.376   4.080   7.403 -0.3084  0.5709 -0.3889
  285MOL0     C38368   2.339   3.965   7.309  0.5263 -0.2893 -0.6066
  285MOL0     C38369   2.290   4.141   7.504 -0.3203 -1.5935  0.7462
  285MOL0     C38370   2.152   4.099   7.521 -0.3787  0.4113 -0.6500
  285MOL0     O38371   2.091   4.152   7.629 -1.0584 -0.3675 -0.3506
  285MOL0     C38372   1.964   4.124   7.684 -0.3956  0.2885  0.0607
  285MOL0     C38373   1.934   4.194   7.800  0.4655 -0.4835  0.7883
  285MOL0     C38374   1.822   4.158   7.889 -0.9576  1.4089 -1.3980
  285MOL0     C38375   1.733   4.056   7.848 -1.1045 -0.8697  0.1515
  285MOL0     O38376   1.612   4.029   7.900  0.5571  0.3696  0.4482
  285MOL0     C38377   1.570   4.099   8.013 -0.1247  0.8249 -0.6107
  285MOL0     C38378   1.430   4.044   8.050  0.4070 -0.8741  0.0808
  285MOL0     C38379   1.445   3.888   8.083 -1.1613  0.0135  0.4663
  285MOL0     C38380   1.338   3.833   8.181  0.0851 -0.6010  0.0254
  285MOL0     C38381   1.400   3.708   8.240  0.2482 -0.0819  0.8478
  285MOL0     C38382   1.318   3.649   8.355 -0.2391  0.4556 -0.5010
  285MOL0     C38383   1.400   3.551   8.430 -0.0316 -0.3240 -0.6979
  285MOL0     C38384   1.340   3.515   8.561  0.9269  0.2034 -0.1892
  285MOL0    Cl38385   1.163   3.497   8.549  0.0480 -0.0321  0.2251
  285MOL0     C38386   1.766   3.994   7.725  0.4734  0.0112  0.3508
  285MOL0     C38387   1.880   4.016   7.649 -0.1256  0.7972 -0.1041
  285MOL0     O38388   2.107   4.003   7.457  0.7770  0.1092  1.4392
  285MOL0     C38389   2.345   4.239   7.587 -0.2794  1.1469  0.2438
  285MOL0     C38390   2.483   4.260   7.593 -0.8191 -0.5411  0.1499
  285MOL0     N38391   2.761   4.163   7.980 -0.0154  0.0416  0.4898
  285MOL0     N38392   2.692   4.095   8.058  0.4584  0.4819  0.6946
  285MOL0     C38393   2.058   4.440   8.528 -0.2131  0.3632 -0.8266
  285MOL0     C38394   1.925   4.482   8.511 -0.2416 -0.4021  0.4951
  285MOL0     C38395   1.476   4.451   8.538  0.0827  1.0018  0.1242
  285MOL0     C38396   1.451   4.549   8.446 -0.5543  0.6513  0.5765
  285MOL0     C38397   1.321   4.605   8.431  0.8990  0.1533 -0.8928
  285MOL0     C38398   1.211   4.564   8.508  0.0018 -0.7682 -0.9099
  285MOL0     O38399   1.090   4.630   8.483 -1.1676 -0.5448  0.5321
  285MOL0     C38400   0.984   4.570   8.549  0.4192 -0.4960 -0.3960
  285MOL0     C38401   0.859   4.631   8.492 -0.6931 -1.3205  0.3397
  285MOL0     C38402   0.821   4.590   8.352 -0.2614  0.3221  0.3745
  285MOL0     C38403   0.711   4.683   8.295  0.3322  0.2646  0.1307
  285MOL0     C38404   0.578   4.632   8.344 -0.2203 -0.1001 -0.4769
  285MOL0     C38405   0.472   4.575   8.364 -0.7253 -0.2034 -0.4930
  285MOL0     C38406   1.240   4.466   8.607 -0.5031 -0.4320 -0.2893
  285MOL0     C38407   1.373   4.407   8.621  0.1385 -0.2964  0.7855
  285MOL0     H38408   1.795   4.189   8.422  0.6857  0.1419  1.4376
  285MOL0     H38409   2.027   4.126   8.440  2.0633 -0.2735 -0.1249
  285MOL0     H38410   2.277   4.406   8.658 -0.7064 -0.2933 -2.0751
  285MOL0     H38411   2.213   4.251   8.711 -1.0760  1.6712  1.1217
  285MOL0     H38412   2.515   4.303   8.619 -0.4396  0.6151 -0.5350
  285MOL0     H38413   2.451   4.258   8.774  0.4143 -0.2905  0.1768
  285MOL0     H38414   2.376   4.044   8.654 -1.9078 -2.4057 -3.8934
  285MOL0     H38415   2.405   4.110   8.498 -1.2851  3.0362  0.6562
  285MOL0     H38416   2.635   4.140   8.512 -0.3717  0.7680 -0.3626
  285MOL0     H38417   2.648   4.070   8.674 -0.5954 -0.4655  0.0984
  285MOL0     H38418   2.568   3.851   8.592 -0.0524  0.4621 -0.9580
  285MOL0     H38419   2.531   3.918   8.435 -0.4687  0.1191 -0.5579
  285MOL0     H38420   2.814   3.914   8.548 -1.1216  0.8602  0.5000
  285MOL0     H38421   2.733   3.778   8.456  2.5749 -0.7208  0.0077
  285MOL0     H38422   2.799   4.062   8.354  2.2407 -0.2856  0.2820
  285MOL0     H38423   2.901   3.913   8.327 -0.8438 -3.7007 -1.1537
  285MOL0     H38424   2.622   3.930   8.219 -1.0850 -4.7941 -0.4439
  285MOL0     H38425   2.748   3.809   8.183 -0.1318 -0.1625 -0.2811
  285MOL0     H38426   2.968   3.917   8.027  2.2471  1.3002 -2.1304
  285MOL0     H38427   3.015   4.249   7.879 -0.3113 -0.3003  2.0489
  285MOL0     H38428   3.061   4.082   7.843 -0.4828 -0.0823  3.1389
  285MOL0     H38429   2.974   4.199   7.642 -1.0570  0.3500 -0.3841
  285MOL0     H38430   2.814   4.219   7.729 -0.9376  0.1642  2.7951
  285MOL0     H38431   2.753   4.005   7.703  0.0987  0.1198  1.2764
  285MOL0     H38432   2.899   3.959   7.609 -0.7134  0.2196  0.4288
  285MOL0     H38433   2.751   4.024   7.446  0.5572  0.1913 -0.1228
  285MOL0     H38434   2.873   4.140   7.443 -1.3206  0.0791 -2.6013
  285MOL0     H38435   2.565   4.092   7.313  1.8899  1.0028  0.9053
  285MOL0     H38436   2.277   4.002   7.227  2.0830  1.0415 -1.2366
  285MOL0     H38437   2.426   3.924   7.258 -1.1639 -1.4807 -2.6786
  285MOL0     H38438   2.283   3.887   7.362  1.2439 -0.1236  0.4278
  285MOL0     H38439   2.008   4.266   7.834  1.8432 -0.3381 -2.2306
  285MOL0     H38440   1.802   4.209   7.983 -0.3018 -0.2971 -0.2966
  285MOL0     H38441   1.640   4.095   8.096 -1.3927 -1.2058  0.4351
  285MOL0     H38442   1.543   4.203   7.991 -1.4651  0.4662 -0.7998
  285MOL0     H38443   1.379   4.094   8.133  2.2017  1.5755 -0.1854
  285MOL0     H38444   1.368   4.053   7.960 -0.8131 -1.2562  0.8492
  285MOL0     H38445   1.541   3.866   8.130 -1.1487 -1.3701 -0.1522
  285MOL0     H38446   1.445   3.838   7.986  0.3504  0.4586  0.2066
  285MOL0     H38447   1.320   3.902   8.264  3.4934  1.5785 -0.8540
  285MOL0     H38448   1.245   3.817   8.125 -1.5679  0.6428  2.2471
  285MOL0     H38449   1.497   3.749   8.268 -0.7317  1.6168  1.9574
  285MOL0     H38450   1.420   3.634   8.163 -2.1760  0.2897 -0.2310
  285MOL0     H38451   1.277   3.728   8.418 -0.7327 -0.4749  0.3650
  285MOL0     H38452   1.238   3.600   8.299 -0.3073  0.1878 -0.1694
  285MOL0     H38453   1.500   3.588   8.454 -1.3286  1.5529  2.5450
  285MOL0     H38454   1.399   3.461   8.368 -2.3468 -0.4278 -0.6040
  285MOL0     H38455   1.366   3.603   8.619  2.4072 -0.5363  0.3457
  285MOL0     H38456   1.379   3.423   8.606 -0.0858 -0.6417 -0.9947
  285MOL0     H38457   1.706   3.910   7.691  0.6705 -0.7552  1.8420
  285MOL0     H38458   1.889   3.948   7.565 -2.7523  0.1337  0.0476
  285MOL0     H38459   2.283   4.296   7.655  0.2114  2.1579 -0.1269
  285MOL0     H38460   2.522   4.321   7.674 -0.5322 -1.3538  0.6390
  285MOL0     H38461   2.127   4.518   8.560 -0.4906 -0.0924  1.0060
  285MOL0     H38462   1.898   4.586   8.529  0.2125 -0.3237  0.7300
  285MOL0     H38463   1.539   4.581   8.392  1.1150  0.4102  3.0263
  285MOL0     H38464   1.315   4.684   8.357  1.4955  1.3380  0.2865
  285MOL0     H38465   0.984   4.464   8.524  0.6198 -1.0962  1.9503
  285MOL0     H38466   0.993   4.589   8.656  0.8566 -2.5233 -0.0335
  285MOL0     H38467   0.876   4.740   8.491  3.6816 -1.7585 -2.5544
  285MOL0     H38468   0.773   4.610   8.555 -0.4680  0.1657  1.2182
  285MOL0     H38469   0.808   4.482   8.364  2.0545  0.0941  1.1070
  285MOL0     H38470   0.910   4.600   8.289  0.4722 -1.3660  1.0917
  285MOL0     H38471   0.709   4.685   8.185  1.7925  0.5362  0.0941
  285MOL0     H38472   0.719   4.788   8.325 -0.0701  0.7021 -1.2189
  285MOL0     H38473   0.386   4.511   8.364 -1.3699  0.4843  2.6233
  285MOL0     H38474   1.169   4.437   8.683 -1.8571 -0.2696 -1.4358
  285MOL0     H38475   1.396   4.329   8.693  1.6814 -2.0780 -1.4977
  286MOL0     O38476   5.369   5.902   1.090 -0.6581 -0.2928  0.3549
  286MOL0     C38477   5.391   5.876   0.968 -0.2254 -0.2647 -0.0262
  286MOL0     O38478   5.321   5.901   0.852 -0.0348  0.5328  1.0390
  286MOL0     C38479   5.196   5.958   0.876  0.2219  0.2596  0.0579
  286MOL0     C38480   5.084   5.875   0.871 -0.0971 -0.0715  0.0087
  286MOL0     C38481   4.958   5.936   0.889  0.1027  0.8772  0.1663
  286MOL0     C38482   4.941   6.071   0.919  0.2499  0.2893  0.0970
  286MOL0     O38483   4.809   6.110   0.941 -0.4755 -0.0774 -0.2690
  286MOL0     C38484   4.784   6.247   0.955 -0.1218 -0.0100  0.1930
  286MOL0     C38485   4.769   6.338   0.835 -0.6291 -0.8865 -0.0339
  286MOL0     C38486   4.877   6.339   0.738  0.6644 -0.5836 -0.5383
  286MOL0     C38487   4.867   6.457   0.631 -0.6252 -0.4758  0.2804
  286MOL0     C38488   4.981   6.429   0.528 -0.6822 -0.3156  0.5533
  286MOL0     C38489   5.019   6.556   0.457  0.0030 -0.7889 -0.0844
  286MOL0     C38490   5.152   6.552   0.373  0.4342  1.0533 -0.6582
  286MOL0     C38491   5.288   6.533   0.449 -0.3722 -0.2370  0.8835
  286MOL0     N38492   5.400   6.569   0.349 -0.7103 -0.5358 -0.8459
  286MOL0     C38493   5.454   6.486   0.258 -0.1245  0.1885  0.1541
  286MOL0     C38494   5.529   6.560   0.175 -0.3937  0.9731 -0.2674
  286MOL0     C38495   5.608   6.497   0.062 -0.9333 -0.6206 -0.3272
  286MOL0     C38496   5.592   6.574  -0.069  0.6911 -0.1696  0.0876
  286MOL0     C38497   5.648   6.499  -0.195  1.2449 -0.7844 -0.4953
  286MOL0     C38498   5.794   6.490  -0.181  0.0585  0.1530  0.0919
  286MOL0     O38499   5.831   6.627  -0.173 -0.1823  0.7760  0.2303
  286MOL0     C38500   5.937   6.666  -0.104  0.0008 -0.9228  0.5418
  286MOL0     C38501   5.979   6.601   0.015 -0.1815 -0.7253  0.3168
  286MOL0     C38502   6.089   6.639   0.084 -1.0772  0.0685  0.3990
  286MOL0     C38503   6.108   6.585   0.224  0.9009 -0.1282  0.4226
  286MOL0     C38504   6.183   6.731   0.025 -0.9408 -0.6187  0.0979
  286MOL0     C38505   6.317   6.767   0.090  0.1871 -0.7143 -0.7981
  286MOL0     O38506   6.360   6.697   0.206  0.0338 -0.3954 -0.3757
  286MOL0     C38507   6.465   6.740   0.289  0.8543  0.3327 -0.5053
  286MOL0     C38508   6.527   6.860   0.293 -0.8904 -0.4636  0.4458
  286MOL0     C38509   6.620   6.884   0.391  0.6209  0.1101 -0.6282
  286MOL0     C38510   6.659   6.788   0.480  0.6357 -0.5543  0.1943
  286MOL0     O38511   6.772   6.801   0.557 -0.2301  1.0276 -0.6700
  286MOL0     C38512   6.875   6.891   0.549 -0.2769 -0.4866  0.3165
  286MOL0     C38513   6.884   6.945   0.694  0.4400  0.1833 -0.1044
  286MOL0     C38514   6.994   7.057   0.703  0.8804 -0.4838  0.0294
  286MOL0     C38515   7.135   7.008   0.697  0.0379  0.2676  0.0455
  286MOL0     C38516   7.166   6.928   0.820  0.7771 -0.2060 -0.0489
  286MOL0     C38517   7.317   6.888   0.821  0.3936  0.4595  0.1105
  286MOL0     C38518   7.413   6.984   0.895 -0.6711  0.6117  0.2744
  286MOL0     C38519   7.395   6.990   1.041 -0.6372  0.7518  0.8023
  286MOL0    Cl38520   7.522   7.089   1.132 -0.1595 -0.1812 -0.0368
  286MOL0     C38521   6.594   6.655   0.484 -0.0286 -0.4656 -0.0611
  286MOL0     C38522   6.497   6.635   0.384 -0.7163 -1.3515  0.5420
  286MOL0     O38523   6.385   6.851   0.021  0.0453  1.3478  0.0384
  286MOL0     C38524   6.148   6.782  -0.111  0.3245 -0.5193  0.4061
  286MOL0     C38525   6.018   6.761  -0.159  0.6506 -0.2683 -0.6457
  286MOL0     N38526   5.521   6.692   0.214 -0.5532 -0.2086 -0.1142
  286MOL0     N38527   5.434   6.696   0.311 -0.1541  1.0080 -0.1783
  286MOL0     C38528   5.054   6.146   0.928  0.6691  0.1203  0.1658
  286MOL0     C38529   5.181   6.097   0.901 -0.2088 -0.2481 -0.2025
  286MOL0     C38530   5.529   5.834   0.937  0.4841 -0.4995  0.1845
  286MOL0     C38531   5.560   5.794   0.803  0.6618 -0.1366 -0.5102
  286MOL0     C38532   5.686   5.786   0.762 -0.1152  0.9732 -0.8339
  286MOL0     C38533   5.801   5.814   0.849  0.2300  0.5536  0.2039
  286MOL0     O38534   5.925   5.796   0.795 -0.7537  0.5955  0.2895
  286MOL0     C38535   6.047   5.833   0.860  0.0020  0.4906  0.1472
  286MOL0     C38536   6.160   5.856   0.764  0.9745  0.4535  0.6188
  286MOL0     C38537   6.292   5.884   0.838  0.1745 -0.2938  0.2863
  286MOL0     C38538   6.417   5.872   0.744  0.0124 -0.6022  0.2584
  286MOL0     C38539   6.449   5.986   0.651 -0.0971  0.1952  0.0558
  286MOL0     C38540   6.469   6.080   0.574  0.0085 -0.2310 -0.6515
  286MOL0     C38541   5.768   5.848   0.984 -0.3944  0.0532 -0.2117
  286MOL0     C38542   5.633   5.853   1.027 -1.2431  0.0128 -0.5365
  286MOL0     H38543   5.091   5.771   0.842 -1.6865 -0.5344  1.1325
  286MOL0     H38544   4.876   5.866   0.889  0.5569  0.3348  0.1583
  286MOL0     H38545   4.690   6.260   1.008 -1.2973 -0.3899 -1.6952
  286MOL0     H38546   4.854   6.301   1.019 -0.2866 -0.9325  1.1828
  286MOL0     H38547   4.686   6.301   0.773  1.2790  0.3179 -3.5375
  286MOL0     H38548   4.755   6.441   0.868 -2.8749 -1.3297  0.6146
  286MOL0     H38549   4.975   6.352   0.785  1.0028 -2.4878 -0.6383
  286MOL0     H38550   4.885   6.239   0.695  0.1126  0.1506 -2.4659
  286MOL0     H38551   4.773   6.453   0.575 -0.7963  1.8120  0.3248
  286MOL0     H38552   4.854   6.549   0.688 -3.4704 -2.7170  3.7037
  286MOL0     H38553   5.066   6.381   0.577  2.0333  0.2957 -3.1106
  286MOL0     H38554   4.951   6.358   0.450 -1.9225  1.7152 -0.9304
  286MOL0     H38555   4.931   6.586   0.399 -0.8788  1.1877  2.0917
  286MOL0     H38556   5.034   6.642   0.523  2.8315 -0.8496 -0.5365
  286MOL0     H38557   5.142   6.470   0.301  0.7155 -1.1575  1.6633
  286MOL0     H38558   5.159   6.649   0.323  0.7288  2.8346  2.5590
  286MOL0     H38559   5.299   6.433   0.493 -0.6650 -0.9379 -0.6011
  286MOL0     H38560   5.282   6.609   0.527  0.8955  0.2559  0.5286
  286MOL0     H38561   5.427   6.384   0.232 -0.7007  1.0042 -2.9378
  286MOL0     H38562   5.714   6.495   0.090 -0.6263 -4.2609 -1.1670
  286MOL0     H38563   5.580   6.392   0.051  2.6480 -1.8538  0.7806
  286MOL0     H38564   5.638   6.669  -0.041 -1.6474  0.6777  1.2918
  286MOL0     H38565   5.486   6.598  -0.083  0.4680 -0.1008  1.7246
  286MOL0     H38566   5.627   6.562  -0.283  1.3195  0.8020  0.5747
  286MOL0     H38567   5.597   6.404  -0.210 -0.0713 -0.2842  0.5660
  286MOL0     H38568   5.842   6.438  -0.264 -0.3309  0.3021 -0.2268
  286MOL0     H38569   5.811   6.436  -0.087 -0.1481  0.5809  0.3775
  286MOL0     H38570   5.907   6.533   0.059  0.6998 -3.7328 -2.4983
  286MOL0     H38571   6.013   6.546   0.261  0.5408  0.2779 -0.0617
  286MOL0     H38572   6.171   6.496   0.223 -0.6713 -1.3025  1.1682
  286MOL0     H38573   6.137   6.667   0.289 -2.8698  0.3299  1.7538
  286MOL0     H38574   6.506   6.930   0.213 -0.1383 -1.6014 -0.7821
  286MOL0     H38575   6.677   6.976   0.400  2.4914 -1.0460 -0.0978
  286MOL0     H38576   6.966   6.836   0.524 -1.1974 -2.1595  0.4155
  286MOL0     H38577   6.876   6.965   0.469 -0.4454  0.6475  1.3316
  286MOL0     H38578   6.783   6.974   0.723 -0.9672 -1.1579 -3.1185
  286MOL0     H38579   6.906   6.866   0.766 -2.8343 -0.6901  0.1010
  286MOL0     H38580   6.990   7.108   0.800  0.3884  3.5157 -1.9001
  286MOL0     H38581   6.971   7.133   0.629 -0.8374 -0.7027  0.2905
  286MOL0     H38582   7.159   6.962   0.601 -0.2802  0.8024 -0.2926
  286MOL0     H38583   7.197   7.096   0.715  1.5546 -1.0409  1.7246
  286MOL0     H38584   7.105   6.837   0.826  0.7769 -0.1418  1.0655
  286MOL0     H38585   7.144   6.986   0.909  2.1671  2.0339 -1.0777
  286MOL0     H38586   7.315   6.791   0.870  1.9154  0.4009  0.0973
  286MOL0     H38587   7.346   6.866   0.718 -2.5953 -2.1952 -0.3196
  286MOL0     H38588   7.412   7.081   0.845  2.3098  0.5777 -0.0573
  286MOL0     H38589   7.517   6.951   0.879 -0.5153  1.1040  0.2648
  286MOL0     H38590   7.399   6.886   1.074  1.0193 -0.4496 -2.6693
  286MOL0     H38591   7.295   7.029   1.060 -0.8963  0.4148  0.1741
  286MOL0     H38592   6.617   6.587   0.565  0.1095  2.9549  3.0177
  286MOL0     H38593   6.445   6.540   0.371 -0.9967 -0.7753 -5.2882
  286MOL0     H38594   6.218   6.846  -0.163 -1.4346  2.1538  1.1442
  286MOL0     H38595   5.982   6.822  -0.242  0.2800  0.1926 -0.1553
  286MOL0     H38596   5.055   6.248   0.965 -0.2753 -0.1004  0.8604
  286MOL0     H38597   5.268   6.161   0.908 -0.8905  0.4853  2.2347
  286MOL0     H38598   5.483   5.767   0.731 -0.3104  2.7671 -0.6938
  286MOL0     H38599   5.705   5.756   0.660 -1.0097 -0.9298 -0.4805
  286MOL0     H38600   6.036   5.928   0.914 -4.6589  0.0397  0.4203
  286MOL0     H38601   6.070   5.755   0.933 -0.5390  2.7575  2.9105
  286MOL0     H38602   6.126   5.946   0.712  0.3521  0.3433  0.8244
  286MOL0     H38603   6.179   5.775   0.694 -1.2219 -1.8090  2.4443
  286MOL0     H38604   6.302   5.796   0.903  0.8043 -1.6550 -1.5522
  286MOL0     H38605   6.286   5.973   0.901  1.0725  1.2375 -1.6995
  286MOL0     H38606   6.412   5.774   0.694 -0.9366 -2.0678  2.9973
  286MOL0     H38607   6.501   5.858   0.813  0.9111  3.6731  0.3036
  286MOL0     H38608   6.491   6.166   0.514 -1.3275 -0.2741 -1.2312
  286MOL0     H38609   5.841   5.881   1.058 -1.2667  3.2130 -0.5992
  286MOL0     H38610   5.619   5.882   1.131  1.0622 -1.4802  0.2634
  287MOL0     O38611   4.652   2.895   5.664 -0.0847 -0.8820 -0.3761
  287MOL0     C38612   4.749   2.954   5.712  0.6742  0.2498  0.3379
  287MOL0     O38613   4.754   3.087   5.742  0.0087 -0.0786 -0.2286
  287MOL0     C38614   4.654   3.167   5.708 -0.0095 -0.1634  0.2737
  287MOL0     C38615   4.539   3.168   5.788 -0.1175 -0.0862  0.1797
  287MOL0     C38616   4.436   3.262   5.760 -0.0419  0.0410 -0.2885
  287MOL0     C38617   4.435   3.339   5.647 -0.8353  0.1053 -0.3426
  287MOL0     O38618   4.329   3.420   5.626  0.1682 -0.5751 -0.4156
  287MOL0     C38619   4.310   3.458   5.486  0.2360 -0.5753  0.1360
  287MOL0     C38620   4.172   3.536   5.489  0.3154  0.2968 -0.3770
  287MOL0     C38621   4.046   3.450   5.521  0.0017 -0.1598  0.8082
  287MOL0     C38622   3.907   3.498   5.496 -0.7823  0.3823 -0.3060
  287MOL0     C38623   3.800   3.392   5.523 -0.1224  0.0460 -0.1471
  287MOL0     C38624   3.665   3.441   5.468  0.4890 -0.2114  0.0810
  287MOL0     C38625   3.574   3.313   5.477  0.1239 -0.3523 -0.1122
  287MOL0     C38626   3.437   3.352   5.420  0.2540  0.0116  0.3885
  287MOL0     N38627   3.355   3.230   5.410  0.1379  0.0196  0.4177
  287MOL0     C38628   3.304   3.155   5.510 -0.7941 -0.3371  0.0087
  287MOL0     C38629   3.275   3.039   5.449 -0.2375  0.0808 -0.4200
  287MOL0     C38630   3.225   2.910   5.505  0.3468 -0.6006 -0.1016
  287MOL0     C38631   3.235   2.897   5.659 -0.1300 -0.0425  0.3305
  287MOL0     C38632   3.104   2.914   5.734  0.5101 -0.3228  0.4729
  287MOL0     C38633   3.023   3.044   5.702 -1.7517  0.6556 -0.9898
  287MOL0     O38634   2.993   3.094   5.835  0.4661 -0.4831  0.0377
  287MOL0     C38635   2.878   3.158   5.839  0.2510 -0.7069 -0.3207
  287MOL0     C38636   2.857   3.278   5.772  0.4432 -0.6244  1.1709
  287MOL0     C38637   2.728   3.341   5.775 -0.0602  0.3358  0.7229
  287MOL0     C38638   2.719   3.481   5.709 -0.8390  0.7962  0.6337
  287MOL0     C38639   2.623   3.283   5.850 -1.0407 -0.4782  0.3810
  287MOL0     C38640   2.499   3.354   5.856  0.0710 -0.0500 -0.6482
  287MOL0     O38641   2.426   3.355   5.744 -0.7551 -0.1362  0.0598
  287MOL0     C38642   2.322   3.441   5.722 -0.2888 -0.1561 -0.6380
  287MOL0     C38643   2.334   3.577   5.757 -0.6800 -0.5181 -0.0379
  287MOL0     C38644   2.236   3.670   5.715 -0.1140  0.4130  0.1851
  287MOL0     C38645   2.121   3.632   5.641 -0.3107  0.1211 -1.0247
  287MOL0     O38646   2.034   3.734   5.620  0.4323  0.2866  0.5824
  287MOL0     C38647   1.933   3.702   5.526  0.5159  0.3539  0.1740
  287MOL0     C38648   1.842   3.825   5.497  1.0181  0.8568  0.3546
  287MOL0     C38649   1.693   3.811   5.513  0.8285 -1.0373 -0.2180
  287MOL0     C38650   1.627   3.940   5.448 -0.5979  0.0137 -1.0209
  287MOL0     C38651   1.471   3.929   5.450 -0.4764 -0.0555 -1.1168
  287MOL0     C38652   1.415   3.909   5.591  0.0368 -0.6096  0.0672
  287MOL0     C38653   1.260   3.916   5.595  1.1072 -0.7298  0.9724
  287MOL0     C38654   1.212   4.056   5.623 -0.1351  1.1277  0.1279
  287MOL0    Cl38655   1.058   4.038   5.697 -0.1702  0.0412 -0.2220
  287MOL0     C38656   2.123   3.508   5.588 -0.1800 -0.4225  0.5143
  287MOL0     C38657   2.215   3.409   5.632  0.6547  0.4380 -0.2572
  287MOL0     O38658   2.463   3.392   5.966  0.0195  0.2568  0.3411
  287MOL0     C38659   2.646   3.164   5.918  0.1899  0.0465  0.4722
  287MOL0     C38660   2.771   3.104   5.911 -0.2770  0.1136 -0.0949
  287MOL0     N38661   3.317   3.036   5.317 -0.6747 -0.2337 -0.1179
  287MOL0     N38662   3.372   3.153   5.298 -0.0974  0.6691 -0.4633
  287MOL0     C38663   4.553   3.333   5.558  0.1411  0.3688 -0.3694
  287MOL0     C38664   4.655   3.249   5.593 -1.1374 -0.2524  0.2125
  287MOL0     C38665   4.860   2.881   5.756 -0.2883 -0.0585 -0.7036
  287MOL0     C38666   4.903   2.764   5.699  0.0729  0.8401 -0.6815
  287MOL0     C38667   5.010   2.691   5.755  0.5273  0.3707  1.3587
  287MOL0     C38668   5.097   2.758   5.842  0.6449  0.5085 -0.1521
  287MOL0     O38669   5.214   2.701   5.896 -0.2000  0.6564 -0.0670
  287MOL0     C38670   5.260   2.568   5.855  0.1682  0.0885 -0.3735
  287MOL0     C38671   5.185   2.448   5.932 -0.0517  0.5905 -0.1463
  287MOL0     C38672   5.274   2.393   6.044 -0.7962 -0.3489  0.4662
  287MOL0     C38673   5.255   2.244   6.072  0.0253 -0.9053  0.2948
  287MOL0     C38674   5.119   2.219   6.112  1.1015  0.5053  0.6953
  287MOL0     C38675   5.007   2.205   6.150 -0.2157  0.2604  0.9323
  287MOL0     C38676   5.059   2.875   5.898 -0.9179  1.6934  0.3392
  287MOL0     C38677   4.943   2.938   5.857  0.3292 -0.4037  0.1134
  287MOL0     H38678   4.537   3.096   5.870 -0.8537 -0.9740 -0.6033
  287MOL0     H38679   4.355   3.278   5.831 -0.3638  0.0082 -0.6460
  287MOL0     H38680   4.393   3.523   5.458 -2.9058  2.9842 -1.8756
  287MOL0     H38681   4.300   3.381   5.409 -0.2825  0.0690 -0.4441
  287MOL0     H38682   4.182   3.623   5.554 -0.3062  0.6052 -0.6834
  287MOL0     H38683   4.161   3.580   5.390 -0.6019  2.2201  0.5357
  287MOL0     H38684   4.063   3.356   5.468 -1.2096  0.3982 -0.6693
  287MOL0     H38685   4.050   3.435   5.629  0.1170  1.5972  1.0847
  287MOL0     H38686   3.886   3.589   5.552  0.3464  0.9956 -0.8444
  287MOL0     H38687   3.900   3.518   5.388 -2.7146 -0.4199 -0.3762
  287MOL0     H38688   3.816   3.306   5.456 -0.5999  1.0180 -1.5513
  287MOL0     H38689   3.784   3.366   5.628 -1.3976  2.1198  0.2310
  287MOL0     H38690   3.621   3.525   5.522 -0.0902 -0.7908  0.5245
  287MOL0     H38691   3.676   3.485   5.369  1.1381  4.6332  2.0505
  287MOL0     H38692   3.606   3.232   5.411  0.5797  0.8675 -1.4334
  287MOL0     H38693   3.561   3.285   5.582  3.2473 -0.7718  0.2606
  287MOL0     H38694   3.457   3.389   5.319 -0.3815 -2.6111 -0.7724
  287MOL0     H38695   3.394   3.440   5.469  0.4579  0.9102 -0.9857
  287MOL0     H38696   3.301   3.182   5.615 -2.2074  0.1596 -0.1364
  287MOL0     H38697   3.122   2.893   5.472  0.9082 -1.3519 -1.5818
  287MOL0     H38698   3.280   2.823   5.469 -3.0111 -1.6380 -3.3775
  287MOL0     H38699   3.306   2.971   5.698  0.1529  2.0428 -3.6306
  287MOL0     H38700   3.267   2.797   5.687  0.1451  0.9236  4.0355
  287MOL0     H38701   3.112   2.906   5.843 -2.0807 -0.1091  0.7452
  287MOL0     H38702   3.039   2.832   5.701  0.2201  0.2104 -0.3005
  287MOL0     H38703   2.934   3.013   5.647 -2.7969 -1.8720  1.8445
  287MOL0     H38704   3.073   3.120   5.641 -0.0252  1.2886  1.1221
  287MOL0     H38705   2.928   3.324   5.705  1.0516 -1.9260  0.8907
  287MOL0     H38706   2.693   3.463   5.604  1.1370  1.4621 -0.0136
  287MOL0     H38707   2.639   3.543   5.750  0.0662  1.8584  0.8418
  287MOL0     H38708   2.802   3.551   5.722 -1.3590  2.4740 -3.4799
  287MOL0     H38709   2.424   3.607   5.811 -0.9569 -0.0208  0.1592
  287MOL0     H38710   2.232   3.770   5.757 -2.9059 -0.1885  1.6068
  287MOL0     H38711   1.977   3.677   5.429 -0.3358  1.7237 -0.5920
  287MOL0     H38712   1.866   3.619   5.552  0.1271  0.5354 -0.2206
  287MOL0     H38713   1.876   3.915   5.549 -1.3565  1.7184  0.5160
  287MOL0     H38714   1.855   3.839   5.389 -0.7345 -1.7666 -0.2888
  287MOL0     H38715   1.661   3.804   5.618 -0.6761 -2.5115 -0.7365
  287MOL0     H38716   1.652   3.720   5.468  1.0864 -0.7330 -1.0841
  287MOL0     H38717   1.669   4.024   5.504 -1.7533 -0.4126  0.5527
  287MOL0     H38718   1.658   3.955   5.345  2.0938  3.7643  0.1291
  287MOL0     H38719   1.439   3.850   5.381  1.0400  0.1360 -2.0690
  287MOL0     H38720   1.433   4.023   5.408  0.0924 -0.2492 -2.0842
  287MOL0     H38721   1.456   3.819   5.638  3.8268  0.5089 -0.7815
  287MOL0     H38722   1.460   3.990   5.650 -1.7337  0.9882 -0.6776
  287MOL0     H38723   1.236   3.848   5.678  1.9085 -1.1742  0.8476
  287MOL0     H38724   1.199   3.877   5.513 -4.4473  0.3241  4.0969
  287MOL0     H38725   1.205   4.096   5.522  3.6896  1.7738 -0.0159
  287MOL0     H38726   1.281   4.120   5.679  0.1828  1.2848 -0.4427
  287MOL0     H38727   2.056   3.471   5.511  3.1863 -1.3225 -2.2359
  287MOL0     H38728   2.207   3.309   5.589 -4.2621  0.4712 -0.0222
  287MOL0     H38729   2.557   3.123   5.966  0.4305  0.4597  1.2743
  287MOL0     H38730   2.770   3.014   5.972  0.7606 -0.9811 -1.5974
  287MOL0     H38731   4.544   3.381   5.460 -2.4793 -0.4229 -0.6065
  287MOL0     H38732   4.748   3.240   5.536 -0.2343 -2.9363  1.8990
  287MOL0     H38733   4.837   2.731   5.619  0.0301  1.3871 -0.8774
  287MOL0     H38734   5.031   2.591   5.717  1.8415  0.6837  1.2192
  287MOL0     H38735   5.234   2.567   5.749 -1.4796 -2.5424 -0.0467
  287MOL0     H38736   5.369   2.569   5.855  0.2855 -0.9400 -3.2433
  287MOL0     H38737   5.173   2.366   5.861  2.0131  1.7495 -1.9580
  287MOL0     H38738   5.086   2.487   5.960 -1.2589 -2.9146  0.9454
  287MOL0     H38739   5.261   2.449   6.137  2.9204  1.6379 -0.0457
  287MOL0     H38740   5.380   2.398   6.018 -0.9438  0.3070 -0.0427
  287MOL0     H38741   5.331   2.206   6.141  0.3214 -0.9594 -0.0608
  287MOL0     H38742   5.263   2.206   5.970 -0.2283 -0.4364  0.0943
  287MOL0     H38743   4.905   2.190   6.179 -0.6853  0.9143 -0.3013
  287MOL0     H38744   5.118   2.930   5.971  0.4768 -0.9144  1.3239
  287MOL0     H38745   4.917   3.035   5.898 -2.9799 -0.4220 -1.6547
  288MOL0     O38746   3.703   3.130   7.837 -0.7240  0.5180 -1.3336
  288MOL0     C38747   3.742   3.187   7.740  0.2797  0.1938 -0.0651
  288MOL0     O38748   3.660   3.236   7.636 -0.5801  0.2224 -0.5180
  288MOL0     C38749   3.532   3.196   7.626  0.5257 -0.0613  0.3176
  288MOL0     C38750   3.496   3.081   7.552  0.2756 -0.4954 -0.6249
  288MOL0     C38751   3.354   3.054   7.527 -0.3595 -0.4577 -0.3540
  288MOL0     C38752   3.263   3.144   7.576  0.3343 -0.3048 -0.6363
  288MOL0     O38753   3.136   3.117   7.539 -0.7395 -0.7212  0.5378
  288MOL0     C38754   3.041   3.221   7.534 -1.1151 -0.5842 -0.1140
  288MOL0     C38755   2.909   3.151   7.510  0.8051 -0.1709 -0.1568
  288MOL0     C38756   2.784   3.226   7.557 -0.9452  0.3439 -0.0313
  288MOL0     C38757   2.673   3.207   7.449 -0.1174  0.3879  0.2996
  288MOL0     C38758   2.529   3.238   7.502  0.2184  0.4553 -0.6269
  288MOL0     C38759   2.505   3.382   7.555 -0.5580 -0.5434 -0.3874
  288MOL0     C38760   2.382   3.392   7.645 -0.1444 -0.2104  0.0185
  288MOL0     C38761   2.261   3.463   7.586  0.4903 -0.0366 -0.9592
  288MOL0     N38762   2.169   3.488   7.695  0.3596 -0.1166  0.4387
  288MOL0     C38763   2.091   3.603   7.708  0.7308 -0.2001 -0.4029
  288MOL0     C38764   2.014   3.576   7.821 -0.1358  0.1078 -0.3826
  288MOL0     C38765   1.907   3.669   7.877  0.6930  0.0693 -0.4659
  288MOL0     C38766   1.918   3.691   8.021 -0.0445 -0.5094 -1.1003
  288MOL0     C38767   1.852   3.819   8.063 -0.2610  0.1933  0.3997
  288MOL0     C38768   1.836   3.815   8.210  0.3835  0.2279 -1.0468
  288MOL0     O38769   1.785   3.940   8.257  0.3260  0.0825 -0.4531
  288MOL0     C38770   1.701   3.928   8.374 -1.0946  0.4454  0.0943
  288MOL0     C38771   1.728   3.834   8.473  0.0100  0.3016 -0.0551
  288MOL0     C38772   1.642   3.815   8.578  0.1885  0.1634 -0.5278
  288MOL0     C38773   1.674   3.695   8.667  0.3994  0.0272  0.3523
  288MOL0     C38774   1.529   3.893   8.600 -0.3069 -0.5369  0.4344
  288MOL0     C38775   1.432   3.882   8.712 -1.2043  0.1379  0.3223
  288MOL0     O38776   1.352   3.993   8.733  0.1379 -0.2706  1.0735
  288MOL0     C38777   1.224   3.991   8.775 -0.4955  0.7068 -0.7761
  288MOL0     C38778   1.134   3.892   8.738  0.0411 -0.4167  0.3408
  288MOL0     C38779   1.002   3.915   8.788 -0.9083 -0.4281 -0.1257
  288MOL0     C38780   0.965   4.029   8.862  0.2807 -0.7147  0.0525
  288MOL0     O38781   0.836   4.044   8.904 -0.7999  0.2523 -0.1426
  288MOL0     C38782   0.805   4.153   8.997  0.0002  0.2054  0.6505
  288MOL0     C38783   0.655   4.137   9.043  0.1318 -0.0717 -1.2642
  288MOL0     C38784   0.624   4.245   9.148 -0.0634 -0.1835  0.0509
  288MOL0     C38785   0.478   4.252   9.173 -0.2936 -0.4693 -1.1019
  288MOL0     C38786   0.441   4.372   9.265 -0.1217  0.2136  0.1438
  288MOL0     C38787   0.294   4.374   9.292  0.3573  0.5346 -1.0022
  288MOL0     C38788   0.270   4.445   9.427 -0.7724  0.7303  0.3304
  288MOL0     C38789   0.314   4.588   9.423  0.1935 -0.5461 -0.0500
  288MOL0    Cl38790   0.281   4.654   9.589  0.0899  0.5403  0.3596
  288MOL0     C38791   1.060   4.132   8.884  0.4505  0.6694 -0.7563
  288MOL0     C38792   1.192   4.108   8.849  0.9882 -0.1074  0.3886
  288MOL0     O38793   1.408   3.772   8.758 -0.7763 -0.1383 -0.2711
  288MOL0     C38794   1.511   3.999   8.505  0.2368 -0.2408  0.2966
  288MOL0     C38795   1.597   4.011   8.392  0.3486  0.2482  0.2944
  288MOL0     N38796   2.051   3.451   7.874  0.7226 -0.2414 -0.0104
  288MOL0     N38797   2.156   3.406   7.802  0.5477 -0.2411  0.1790
  288MOL0     C38798   3.302   3.254   7.661 -0.1183  0.6571 -1.3266
  288MOL0     C38799   3.434   3.279   7.689 -0.3958 -0.5220  0.4007
  288MOL0     C38800   3.882   3.220   7.729  0.0837  0.5504  1.2091
  288MOL0     C38801   3.938   3.316   7.642  0.4253 -0.1862 -0.3196
  288MOL0     C38802   4.073   3.347   7.651  0.6638 -0.2392  0.4777
  288MOL0     C38803   4.159   3.290   7.745  0.2555 -0.4236  0.5613
  288MOL0     O38804   4.286   3.323   7.739  0.0031 -0.3397 -0.2443
  288MOL0     C38805   4.391   3.271   7.828  0.6975 -0.2571  0.6246
  288MOL0     C38806   4.538   3.329   7.802  0.2203  1.3971 -0.3326
  288MOL0     C38807   4.591   3.304   7.659  0.0744 -0.4121  1.2113
  288MOL0     C38808   4.725   3.378   7.635  1.1411 -0.3090 -0.1820
  288MOL0     C38809   4.847   3.301   7.671  1.2374 -0.5466 -0.0451
  288MOL0     C38810   4.937   3.241   7.727 -0.3444 -1.0858 -0.2748
  288MOL0     C38811   4.106   3.193   7.834  0.4124  1.2595 -0.8875
  288MOL0     C38812   3.970   3.161   7.819 -0.2726  1.0194 -0.6270
  288MOL0     H38813   3.580   3.029   7.507  1.6699  0.7840  0.3781
  288MOL0     H38814   3.324   2.976   7.457  0.9530  0.1660 -1.6664
  288MOL0     H38815   3.030   3.285   7.622 -0.3877  2.9225 -2.3570
  288MOL0     H38816   3.063   3.294   7.455 -0.6739  0.2702  0.7648
  288MOL0     H38817   2.901   3.127   7.404 -1.7589  1.0995 -0.3274
  288MOL0     H38818   2.915   3.057   7.565  1.4373  1.1027  2.0679
  288MOL0     H38819   2.747   3.178   7.649 -1.0978  1.5466  0.5537
  288MOL0     H38820   2.796   3.334   7.569 -0.9947  0.2798  0.6745
  288MOL0     H38821   2.694   3.275   7.367 -1.5445 -2.8149 -2.9683
  288MOL0     H38822   2.671   3.101   7.424 -0.1703 -0.8706  4.6657
  288MOL0     H38823   2.453   3.204   7.431 -0.1518 -1.3101  0.5604
  288MOL0     H38824   2.518   3.169   7.586  2.5382 -2.0242 -2.2048
  288MOL0     H38825   2.591   3.411   7.615 -0.2240 -2.5722  0.2059
  288MOL0     H38826   2.493   3.451   7.471  1.5512 -0.8854 -1.0088
  288MOL0     H38827   2.341   3.291   7.656 -3.1738  0.7764 -1.1723
  288MOL0     H38828   2.415   3.416   7.746  2.3259 -1.4642 -0.4079
  288MOL0     H38829   2.215   3.393   7.516  2.0664  0.3757 -2.4755
  288MOL0     H38830   2.279   3.553   7.527  2.2573  1.3851  1.5810
  288MOL0     H38831   2.089   3.693   7.648  2.6511  0.8405  0.9626
  288MOL0     H38832   1.909   3.769   7.833  1.2685  0.9123  1.3544
  288MOL0     H38833   1.813   3.617   7.860  0.7040  0.1250 -0.6983
  288MOL0     H38834   2.024   3.693   8.050  0.2145 -2.4307 -1.8029
  288MOL0     H38835   1.866   3.608   8.069  1.8634 -1.3498 -0.3711
  288MOL0     H38836   1.751   3.830   8.024 -0.3117  2.3021  1.0059
  288MOL0     H38837   1.910   3.903   8.024  0.4983  0.0936  1.2530
  288MOL0     H38838   1.932   3.792   8.258  0.4696 -2.0258 -2.1424
  288MOL0     H38839   1.771   3.730   8.234 -1.1097  0.7546 -3.0078
  288MOL0     H38840   1.815   3.770   8.466  0.2613  0.6357  0.0342
  288MOL0     H38841   1.585   3.635   8.687 -0.7229  1.5512  0.1294
  288MOL0     H38842   1.752   3.626   8.633  0.8543  0.5243  0.3888
  288MOL0     H38843   1.708   3.729   8.765 -1.5023  2.4499  0.2623
  288MOL0     H38844   1.164   3.811   8.672 -0.7532  0.1966 -0.8200
  288MOL0     H38845   0.912   3.861   8.760 -1.4421  1.1224 -1.5461
  288MOL0     H38846   0.869   4.140   9.085 -0.4056  0.7745  1.0362
  288MOL0     H38847   0.819   4.251   8.951 -1.5294 -0.0853 -0.5154
  288MOL0     H38848   0.587   4.136   8.957  1.1472 -0.9951 -2.0977
  288MOL0     H38849   0.650   4.038   9.089  0.3652  0.5518  0.1234
  288MOL0     H38850   0.664   4.340   9.112 -1.2566  0.3295  0.0402
  288MOL0     H38851   0.674   4.222   9.243  0.7709  1.8403  0.1541
  288MOL0     H38852   0.428   4.251   9.075 -1.2797 -1.2767 -0.6093
  288MOL0     H38853   0.433   4.167   9.226 -1.3045  0.6055 -0.1570
  288MOL0     H38854   0.473   4.465   9.218  1.8450 -1.0778 -1.1969
  288MOL0     H38855   0.508   4.380   9.351  1.2318  1.1484 -0.9555
  288MOL0     H38856   0.236   4.417   9.211  0.5360 -0.8601 -1.9006
  288MOL0     H38857   0.267   4.269   9.303  3.3014 -0.5088 -2.5669
  288MOL0     H38858   0.316   4.386   9.506 -0.4901 -0.1141 -0.4379
  288MOL0     H38859   0.163   4.444   9.449 -1.0760  1.1085 -0.9925
  288MOL0     H38860   0.258   4.639   9.344 -0.9373 -0.5714  0.7036
  288MOL0     H38861   0.421   4.593   9.401  0.4155  0.6877  1.1246
  288MOL0     H38862   1.043   4.222   8.942  0.6613  0.3153 -0.1329
  288MOL0     H38863   1.268   4.183   8.869 -0.3493  1.0043  1.5354
  288MOL0     H38864   1.441   4.081   8.513  1.0787  0.8810 -2.5380
  288MOL0     H38865   1.590   4.100   8.330  2.5325 -0.8233 -1.6583
  288MOL0     H38866   3.225   3.302   7.721 -0.0442 -0.8883  0.0721
  288MOL0     H38867   3.462   3.359   7.756  0.8343 -0.7627  0.2037
  288MOL0     H38868   3.885   3.351   7.554 -2.7097  0.6319  1.7683
  288MOL0     H38869   4.116   3.423   7.587  2.1817 -1.2105  0.2724
  288MOL0     H38870   4.359   3.307   7.927 -1.2691 -1.7385  0.5823
  288MOL0     H38871   4.383   3.162   7.826  0.8777 -0.3611  2.9108
  288MOL0     H38872   4.597   3.270   7.873 -1.0338  0.0649 -0.3699
  288MOL0     H38873   4.529   3.437   7.821  1.5813  1.2217  1.6765
  288MOL0     H38874   4.521   3.349   7.588  0.8113 -1.8229 -0.4674
  288MOL0     H38875   4.606   3.198   7.638  1.8573 -0.1786  1.1425
  288MOL0     H38876   4.734   3.473   7.689 -0.7433  0.6476 -1.4373
  288MOL0     H38877   4.738   3.410   7.532 -1.7705  2.6592  0.2083
  288MOL0     H38878   5.005   3.187   7.790 -0.4666  0.2323  1.0717
  288MOL0     H38879   4.165   3.127   7.896 -2.2831  0.2172  0.7322
  288MOL0     H38880   3.937   3.086   7.891 -2.6154  0.4446 -2.2006
  289MOL0     O38881   1.408   4.371   8.177 -0.2901 -0.7021  0.7582
  289MOL0     C38882   1.311   4.344   8.107 -0.0111  0.0639 -0.1012
  289MOL0     O38883   1.307   4.347   7.969  0.1638 -0.5650  0.1296
  289MOL0     C38884   1.413   4.390   7.890  0.1819 -0.4781  0.5609
  289MOL0     C38885   1.507   4.488   7.932 -0.4747  0.3800 -0.3340
  289MOL0     C38886   1.608   4.526   7.843 -0.1045  1.2595  0.4261
  289MOL0     C38887   1.626   4.456   7.716  0.3192 -0.1379 -0.4926
  289MOL0     O38888   1.727   4.480   7.619 -0.0822 -0.0550 -0.9259
  289MOL0     C38889   1.859   4.512   7.666 -1.1055 -0.2247 -0.6815
  289MOL0     C38890   1.885   4.668   7.640 -0.0585  1.0970  0.2721
  289MOL0     C38891   1.997   4.715   7.734  0.3194 -0.3754  0.1378
  289MOL0     C38892   2.136   4.644   7.698  0.0695  0.1255 -1.1210
  289MOL0     C38893   2.252   4.708   7.782  0.7794  0.5234  0.1495
  289MOL0     C38894   2.295   4.833   7.708 -0.0871  0.1203  0.3521
  289MOL0     C38895   2.430   4.887   7.762 -0.1921 -0.5772 -0.1755
  289MOL0     C38896   2.421   4.978   7.890  0.9489 -0.1022  0.1691
  289MOL0     N38897   2.320   5.082   7.884 -0.0771 -0.7955 -0.8439
  289MOL0     C38898   2.335   5.190   7.799  0.4346  0.4054 -0.6946
  289MOL0     C38899   2.219   5.248   7.809  0.5279  0.1219 -0.5339
  289MOL0     C38900   2.187   5.369   7.715 -0.1820  0.2222 -0.4747
  289MOL0     C38901   2.073   5.455   7.770 -0.2963  0.6092  0.0167
  289MOL0     C38902   1.930   5.413   7.717 -0.2634 -0.5170 -0.6191
  289MOL0     C38903   1.816   5.494   7.770 -0.5815 -0.0158 -0.2538
  289MOL0     O38904   1.698   5.413   7.763 -0.1580  0.0691 -0.7213
  289MOL0     C38905   1.579   5.471   7.796  0.3716  0.3872  0.5374
  289MOL0     C38906   1.472   5.376   7.792 -0.4763 -1.2103 -0.2878
  289MOL0     C38907   1.339   5.405   7.832 -0.8628 -0.4141  0.0948
  289MOL0     C38908   1.247   5.289   7.839 -0.4835  0.5799 -0.7296
  289MOL0     C38909   1.313   5.547   7.855  0.3380 -0.1147  0.1660
  289MOL0     C38910   1.186   5.590   7.899  0.0736 -0.6838  0.0848
  289MOL0     O38911   1.155   5.717   7.865 -0.0406 -0.5556  0.1846
  289MOL0     C38912   1.047   5.788   7.915  0.0951  0.0474 -0.0467
  289MOL0     C38913   1.069   5.906   7.997  0.1927  0.5225 -0.1671
  289MOL0     C38914   0.960   5.970   8.049  0.3454  0.3533 -0.9845
  289MOL0     C38915   0.828   5.930   8.027 -0.3227  0.1790 -0.0514
  289MOL0     O38916   0.718   5.974   8.085 -0.0341  0.4465 -0.2687
  289MOL0     C38917   0.727   5.974   8.230 -0.8836  0.7683 -0.2162
  289MOL0     C38918   0.646   5.861   8.292  0.4634  0.0172  0.1157
  289MOL0     C38919   0.502   5.851   8.244  0.7248 -0.2700 -0.5434
  289MOL0     C38920   0.482   5.799   8.110 -0.2287  0.7882  0.7587
  289MOL0     C38921   0.332   5.756   8.100  0.6806 -1.3046  0.4970
  289MOL0     C38922   0.313   5.677   7.976  0.5283 -1.1671  1.4755
  289MOL0     C38923   0.177   5.623   7.940 -0.0552 -0.1570  0.6321
  289MOL0     C38924   0.062   5.720   7.905  0.0777 -0.3432  0.0848
  289MOL0    Cl38925  -0.072   5.647   7.824 -0.0164  0.2429  0.3101
  289MOL0     C38926   0.809   5.830   7.925 -0.9925 -0.6577  0.3956
  289MOL0     C38927   0.916   5.753   7.874  0.7389  0.1187  0.5999
  289MOL0     O38928   1.110   5.514   7.951  0.4882 -0.0437 -0.5207
  289MOL0     C38929   1.423   5.641   7.846  1.1014 -0.2575  0.1341
  289MOL0     C38930   1.551   5.605   7.825  0.1736 -0.0811  0.3749
  289MOL0     N38931   2.125   5.176   7.884 -0.0184  0.6487 -0.6164
  289MOL0     N38932   2.189   5.071   7.927 -0.2871 -0.7361  0.6897
  289MOL0     C38933   1.537   4.353   7.682 -0.4817  0.0580 -0.2044
  289MOL0     C38934   1.424   4.336   7.760 -1.0897  0.0342 -0.4366
  289MOL0     C38935   1.178   4.319   8.175  0.0346  0.0493  0.3419
  289MOL0     C38936   1.171   4.271   8.303  0.9210  0.1233  0.6084
  289MOL0     C38937   1.053   4.230   8.355 -0.4252  0.7162  0.8589
  289MOL0     C38938   0.929   4.232   8.283 -0.9569 -0.0590  0.6626
  289MOL0     O38939   0.804   4.180   8.318  0.0797  0.3561 -0.4482
  289MOL0     C38940   0.784   4.155   8.451 -0.8557  0.7021 -0.5911
  289MOL0     C38941   0.650   4.235   8.485  0.5960 -0.2050  0.6642
  289MOL0     C38942   0.649   4.280   8.630  0.3211  0.3302  0.0125
  289MOL0     C38943   0.538   4.377   8.656  0.5564 -0.2323  0.1146
  289MOL0     C38944   0.412   4.315   8.656 -0.2628  0.7687  0.4240
  289MOL0     C38945   0.307   4.246   8.656  0.0367  0.3618 -0.6478
  289MOL0     C38946   0.938   4.293   8.157 -0.8250  0.5649 -0.0927
  289MOL0     C38947   1.059   4.335   8.107 -0.5718  0.0217  1.0637
  289MOL0     H38948   1.505   4.528   8.033  2.4230 -2.4297  1.0352
  289MOL0     H38949   1.684   4.597   7.876  0.6220  0.3285  0.7921
  289MOL0     H38950   1.872   4.477   7.768 -2.2771 -1.9324 -1.0884
  289MOL0     H38951   1.928   4.446   7.612  0.7181 -0.2851  1.5826
  289MOL0     H38952   1.918   4.686   7.537 -1.4734  0.1412 -0.3771
  289MOL0     H38953   1.795   4.726   7.661 -0.4020  0.1376  1.5967
  289MOL0     H38954   2.001   4.825   7.731 -1.3247 -0.3143 -0.9385
  289MOL0     H38955   1.978   4.686   7.838  0.4968 -3.0902 -0.5305
  289MOL0     H38956   2.136   4.536   7.714 -1.8934  0.3598  0.8672
  289MOL0     H38957   2.166   4.651   7.593  0.9199  0.6860 -0.8487
  289MOL0     H38958   2.218   4.714   7.886  0.2359  0.0456  0.0013
  289MOL0     H38959   2.329   4.629   7.785 -1.3747 -1.9406 -2.7637
  289MOL0     H38960   2.310   4.809   7.602  2.0253 -0.2819  0.7001
  289MOL0     H38961   2.218   4.910   7.716 -2.4650 -2.1303  0.2911
  289MOL0     H38962   2.497   4.804   7.784  2.5596  0.5828 -3.3088
  289MOL0     H38963   2.480   4.951   7.689  1.2809  1.7347  2.6057
  289MOL0     H38964   2.524   5.009   7.910  0.5089  2.1475 -0.7718
  289MOL0     H38965   2.390   4.908   7.968  0.2521 -2.1680 -1.8312
  289MOL0     H38966   2.419   5.223   7.739  0.3371  3.2648  0.5982
  289MOL0     H38967   2.271   5.438   7.713  0.1448 -0.0957  1.3602
  289MOL0     H38968   2.160   5.324   7.618  1.5503  1.2294 -1.4735
  289MOL0     H38969   2.087   5.563   7.760 -4.8139  1.2077 -2.8124
  289MOL0     H38970   2.068   5.443   7.879  1.0817 -2.3563 -0.1607
  289MOL0     H38971   1.919   5.319   7.771 -0.7668  0.9677  2.0302
  289MOL0     H38972   1.925   5.412   7.608  1.2045 -0.9669 -0.7042
  289MOL0     H38973   1.815   5.582   7.706  1.1343  0.7920  0.7548
  289MOL0     H38974   1.844   5.523   7.872 -2.6381  0.8896  0.1074
  289MOL0     H38975   1.494   5.273   7.765 -2.4387 -1.8848  0.5282
  289MOL0     H38976   1.182   5.289   7.751  0.5777 -4.2586 -1.8299
  289MOL0     H38977   1.304   5.195   7.844  0.2351  1.0824  1.9191
  289MOL0     H38978   1.175   5.279   7.920 -0.4644  0.9664 -0.6634
  289MOL0     H38979   1.173   5.922   8.021  0.2374 -2.1744  1.9176
  289MOL0     H38980   0.976   6.058   8.111  1.0897 -0.6495  0.2716
  289MOL0     H38981   0.832   5.955   8.254 -0.1280  1.6600 -2.5232
  289MOL0     H38982   0.687   6.071   8.260 -3.4323  0.0135 -0.9491
  289MOL0     H38983   0.699   5.766   8.277  0.3195  0.1671 -1.5195
  289MOL0     H38984   0.642   5.877   8.400  0.7346  0.1577  0.1063
  289MOL0     H38985   0.448   5.945   8.259  0.9629 -0.5884  3.3098
  289MOL0     H38986   0.453   5.787   8.318  2.3298 -1.4485 -0.4457
  289MOL0     H38987   0.514   5.864   8.028  0.8141 -0.4885  0.1039
  289MOL0     H38988   0.549   5.714   8.089 -0.2545  0.5979  1.4433
  289MOL0     H38989   0.271   5.847   8.105  2.0552 -0.4163  2.0615
  289MOL0     H38990   0.286   5.699   8.182  0.1254  0.4301  1.4583
  289MOL0     H38991   0.339   5.746   7.895  1.3202  0.6882  3.2263
  289MOL0     H38992   0.376   5.588   7.970 -0.4736 -1.8428  0.4725
  289MOL0     H38993   0.140   5.572   8.029  0.5207 -1.0350  0.3904
  289MOL0     H38994   0.186   5.558   7.853  1.5283  1.3756 -0.4132
  289MOL0     H38995   0.097   5.797   7.836 -1.7830  0.9156  0.4784
  289MOL0     H38996   0.008   5.769   7.987 -0.3583  0.2451 -0.5481
  289MOL0     H38997   0.714   5.793   7.888 -0.1694 -3.1900  0.6402
  289MOL0     H38998   0.909   5.671   7.804  5.3818 -0.1801  0.2026
  289MOL0     H38999   1.404   5.748   7.854  1.8115 -0.1003 -0.1812
  289MOL0     H39000   1.623   5.686   7.830 -1.0757  0.9761  1.8928
  289MOL0     H39001   1.558   4.301   7.589 -1.4627 -0.7269  0.0007
  289MOL0     H39002   1.358   4.257   7.724  0.4938 -0.9923 -1.2269
  289MOL0     H39003   1.263   4.244   8.354  0.4383  0.6376  1.7634
  289MOL0     H39004   1.061   4.168   8.443 -2.4559 -1.7194 -0.5282
  289MOL0     H39005   0.765   4.050   8.475 -0.6648  0.8283  0.1313
  289MOL0     H39006   0.854   4.185   8.529 -1.1379 -2.7830  1.1763
  289MOL0     H39007   0.565   4.171   8.459  1.2984 -1.1832  0.7111
  289MOL0     H39008   0.640   4.320   8.417 -0.9579 -0.1748  0.9064
  289MOL0     H39009   0.749   4.323   8.635  1.5377 -1.7768 -2.9716
  289MOL0     H39010   0.638   4.193   8.695  1.7692  0.3920  0.3583
  289MOL0     H39011   0.541   4.468   8.594 -2.5742  0.1772  0.3896
  289MOL0     H39012   0.559   4.422   8.754  2.0197  1.8098 -1.0669
  289MOL0     H39013   0.212   4.197   8.643 -1.3904  1.4750  3.8021
  289MOL0     H39014   0.843   4.306   8.108 -0.4107  2.7974 -0.4351
  289MOL0     H39015   1.070   4.352   8.000  3.7213 -2.1976  0.9170
  290MOL0     O39016   7.767   8.488   1.742  0.3600  0.0846 -0.8620
  290MOL0     C39017   7.856   8.552   1.799  0.1574  0.7267 -0.0513
  290MOL0     O39018   7.834   8.632   1.912  0.2617 -0.0342  0.2149
  290MOL0     C39019   7.720   8.616   1.977  0.2366  1.0364  0.0581
  290MOL0     C39020   7.704   8.579   2.110 -0.2226 -0.1963 -0.1533
  290MOL0     C39021   7.584   8.587   2.176 -0.1377 -0.5460 -0.2635
  290MOL0     C39022   7.465   8.610   2.102  0.2044 -0.2116 -0.1522
  290MOL0     O39023   7.342   8.579   2.164 -0.2434  0.3190  0.1561
  290MOL0     C39024   7.219   8.637   2.119  0.0171 -0.5238 -0.1243
  290MOL0     C39025   7.135   8.548   2.015 -0.2237 -0.5463  0.1359
  290MOL0     C39026   7.009   8.631   1.980  0.5115  0.0290 -0.5008
  290MOL0     C39027   7.021   8.746   1.875  0.8053  0.7567  0.3547
  290MOL0     C39028   6.887   8.792   1.822 -0.7815  0.4004  0.2112
  290MOL0     C39029   6.895   8.917   1.736  0.6203 -0.1511 -0.1955
  290MOL0     C39030   6.751   8.970   1.698  0.4318  0.1174  0.1516
  290MOL0     C39031   6.752   9.077   1.586  0.5896 -0.5244 -0.2963
  290MOL0     N39032   6.818   9.203   1.631  0.6914 -0.1936  0.2545
  290MOL0     C39033   6.948   9.227   1.598  0.3830 -0.0707 -0.6722
  290MOL0     C39034   6.969   9.350   1.646 -0.4253 -0.4620  0.6427
  290MOL0     C39035   7.094   9.427   1.626 -0.2001  0.7059  0.3069
  290MOL0     C39036   7.052   9.571   1.567 -0.7286 -0.0320 -0.0352
  290MOL0     C39037   7.152   9.602   1.454 -1.1894 -0.2415  1.1338
  290MOL0     C39038   7.111   9.737   1.393  0.3351 -0.3378  0.0001
  290MOL0     O39039   7.179   9.765   1.264  0.8377 -0.3301 -0.1300
  290MOL0     C39040   7.311   9.739   1.258 -0.3288 -0.3938 -0.9653
  290MOL0     C39041   7.354   9.649   1.158  0.4419 -0.3464 -0.1751
  290MOL0     C39042   7.493   9.615   1.145  0.3744  0.9367  0.4766
  290MOL0     C39043   7.534   9.529   1.026  0.2744 -0.2740 -0.6399
  290MOL0     C39044   7.588   9.674   1.228  0.7628 -0.3415  0.2336
  290MOL0     C39045   7.732   9.650   1.223 -0.4528  0.8628  0.4463
  290MOL0     O39046   7.815   9.760   1.234 -0.1510  0.2401 -0.2129
  290MOL0     C39047   7.945   9.732   1.198 -0.2662 -0.4842 -0.0327
  290MOL0     C39048   8.028   9.650   1.277 -0.8250 -1.1586 -0.0471
  290MOL0     C39049   8.159   9.622   1.246 -0.2172  0.3452  0.6172
  290MOL0     C39050   8.223   9.693   1.138 -0.0458  0.2298  0.1173
  290MOL0     O39051   8.355   9.666   1.124 -0.2138  0.1867 -0.9475
  290MOL0     C39052   8.423   9.721   1.014 -0.5565  0.1387  0.0938
  290MOL0     C39053   8.556   9.646   0.991 -0.0851  0.6020  0.8076
  290MOL0     C39054   8.672   9.692   1.081  0.0007  0.3123  0.0173
  290MOL0     C39055   8.805   9.627   1.031 -0.5347 -0.7866  0.4185
  290MOL0     C39056   8.909   9.611   1.143  0.0948  0.4626 -0.7784
  290MOL0     C39057   8.985   9.735   1.179 -0.6598 -0.8679  0.0357
  290MOL0     C39058   9.064   9.715   1.314 -0.1162 -0.4738 -1.1619
  290MOL0     C39059   9.192   9.636   1.297 -0.1154  0.8599  0.2281
  290MOL0    Cl39060   9.283   9.690   1.152 -0.2243  0.1141  0.5304
  290MOL0     C39061   8.149   9.786   1.064  1.1825  0.8067 -0.6411
  290MOL0     C39062   8.014   9.801   1.095  0.4844 -0.1790  0.5810
  290MOL0     O39063   7.768   9.530   1.226  0.0922  0.8949  0.3514
  290MOL0     C39064   7.539   9.744   1.337 -0.7470  0.3785  0.2309
  290MOL0     C39065   7.406   9.776   1.359 -0.5814 -0.8664 -0.5870
  290MOL0     N39066   6.849   9.403   1.693  0.3627  0.3322 -0.1137
  290MOL0     N39067   6.761   9.310   1.685 -0.0178 -0.5815  0.7374
  290MOL0     C39068   7.477   8.650   1.970  0.1911 -0.3577 -0.1738
  290MOL0     C39069   7.602   8.668   1.916  0.1596  0.3381  0.1273
  290MOL0     C39070   7.977   8.562   1.728 -0.5246  0.0478 -0.0059
  290MOL0     C39071   8.015   8.469   1.630 -0.5054 -0.2745 -0.5590
  290MOL0     C39072   8.136   8.485   1.557  0.8227  0.4419  0.6784
  290MOL0     C39073   8.225   8.591   1.586  0.3701  0.5646 -0.6297
  290MOL0     O39074   8.346   8.621   1.526  0.4162 -0.1323 -0.0469
  290MOL0     C39075   8.365   8.554   1.397 -0.7222 -0.5711  0.0963
  290MOL0     C39076   8.507   8.543   1.336 -0.8935  0.0603 -0.6478
  290MOL0     C39077   8.575   8.683   1.342  0.3186 -1.0644  0.1112
  290MOL0     C39078   8.526   8.781   1.228 -1.5063  0.8825 -1.1775
  290MOL0     C39079   8.613   8.769   1.110 -0.2543  0.6855  0.8243
  290MOL0     C39080   8.681   8.747   1.016 -0.3561 -0.6407  0.2005
  290MOL0     C39081   8.191   8.677   1.683  0.5013 -0.4075 -1.2086
  290MOL0     C39082   8.068   8.661   1.760 -0.2941 -0.5796 -0.4073
  290MOL0     H39083   7.793   8.546   2.163  0.2024 -0.2066 -0.8617
  290MOL0     H39084   7.591   8.555   2.279  3.3463  0.1794 -0.1454
  290MOL0     H39085   7.155   8.654   2.206 -0.7366 -2.9198 -0.1484
  290MOL0     H39086   7.229   8.735   2.071 -0.8446  0.3198  1.3566
  290MOL0     H39087   7.202   8.527   1.930  0.0931  0.4292  0.1280
  290MOL0     H39088   7.104   8.458   2.069  1.3326  0.0784  2.2080
  290MOL0     H39089   6.935   8.557   1.947  0.1913 -0.0594  0.3858
  290MOL0     H39090   6.969   8.671   2.074 -2.5950  0.7430 -1.9936
  290MOL0     H39091   7.075   8.830   1.920 -0.2481  1.1908  0.8422
  290MOL0     H39092   7.086   8.707   1.795 -0.3891 -0.9981  0.1864
  290MOL0     H39093   6.828   8.719   1.766 -1.6597  2.8305 -2.2938
  290MOL0     H39094   6.830   8.812   1.913  1.0349 -1.4633  1.8667
  290MOL0     H39095   6.944   8.999   1.788 -2.0090  1.0312  0.5988
  290MOL0     H39096   6.945   8.892   1.642 -1.5418  0.9701 -1.7441
  290MOL0     H39097   6.697   8.880   1.669  1.1913 -0.3006 -0.0016
  290MOL0     H39098   6.699   9.007   1.787 -0.4352  2.6408 -1.3101
  290MOL0     H39099   6.649   9.113   1.577  0.2440  0.5108  4.6726
  290MOL0     H39100   6.794   9.033   1.495  0.0784  1.1166 -1.3841
  290MOL0     H39101   7.025   9.163   1.557  1.5412  1.8782 -1.7008
  290MOL0     H39102   7.146   9.442   1.721  0.7249 -0.1125 -0.0645
  290MOL0     H39103   7.154   9.375   1.551  0.9909  1.6018  0.6058
  290MOL0     H39104   7.050   9.645   1.648 -1.2816 -0.9714  0.8240
  290MOL0     H39105   6.953   9.562   1.521 -0.1797  4.9343 -2.9697
  290MOL0     H39106   7.148   9.525   1.376 -0.8704  1.7028 -0.9138
  290MOL0     H39107   7.253   9.605   1.496  0.5074 -0.0530 -2.5240
  290MOL0     H39108   7.115   9.812   1.472  0.5454 -0.0207 -0.3053
  290MOL0     H39109   7.006   9.726   1.364 -0.8435  3.2923  2.2215
  290MOL0     H39110   7.289   9.593   1.091  1.1041 -3.0872  1.3275
  290MOL0     H39111   7.446   9.490   0.974 -1.6531  1.4469  1.2019
  290MOL0     H39112   7.603   9.587   0.964 -0.8327  0.7310 -0.9606
  290MOL0     H39113   7.591   9.441   1.057  0.0622 -0.5978 -1.1539
  290MOL0     H39114   7.990   9.593   1.361  2.0249 -2.9875  0.1585
  290MOL0     H39115   8.218   9.556   1.308  0.1374 -0.4639 -0.5455
  290MOL0     H39116   8.356   9.703   0.929  0.1293 -0.8287 -0.2559
  290MOL0     H39117   8.433   9.830   1.022 -0.3298  0.4070 -2.8076
  290MOL0     H39118   8.538   9.540   0.971 -3.4512  1.4442 -1.5761
  290MOL0     H39119   8.594   9.671   0.892 -3.7442 -1.0277 -1.1812
  290MOL0     H39120   8.658   9.680   1.189 -0.7281 -2.3561 -0.3234
  290MOL0     H39121   8.686   9.801   1.072  1.5332  0.5407  3.3253
  290MOL0     H39122   8.785   9.524   1.000  1.4361 -1.1001  0.0338
  290MOL0     H39123   8.855   9.677   0.947 -1.1958 -0.7325  0.0500
  290MOL0     H39124   8.986   9.535   1.126 -0.7574 -1.0131  1.5904
  290MOL0     H39125   8.855   9.585   1.234  1.5658  2.0451  0.6341
  290MOL0     H39126   9.048   9.765   1.095 -0.9899 -0.8086 -0.1944
  290MOL0     H39127   8.919   9.822   1.177  2.7567  1.9587 -1.4685
  290MOL0     H39128   8.997   9.667   1.386 -2.1129  2.4773 -0.8784
  290MOL0     H39129   9.086   9.816   1.350  1.0920 -0.5072 -1.7435
  290MOL0     H39130   9.161   9.532   1.285  0.1608  0.8295 -0.2760
  290MOL0     H39131   9.256   9.643   1.385 -0.5122  0.1679  0.5736
  290MOL0     H39132   8.201   9.840   0.986 -0.8384  1.4890 -1.5747
  290MOL0     H39133   7.959   9.865   1.027  3.4757  1.3568 -0.6093
  290MOL0     H39134   7.609   9.785   1.409  2.6083 -0.8336 -2.1106
  290MOL0     H39135   7.390   9.840   1.445  2.0517  0.0775 -0.7023
  290MOL0     H39136   7.384   8.658   1.915 -0.3198 -1.9935  0.4113
  290MOL0     H39137   7.617   8.703   1.814  0.8204 -1.4506 -0.4361
  290MOL0     H39138   7.945   8.390   1.602  1.1566 -2.4850  1.1713
  290MOL0     H39139   8.150   8.406   1.483 -0.5180  1.2768 -0.5111
  290MOL0     H39140   8.330   8.450   1.392 -3.1767  0.1586 -5.1964
  290MOL0     H39141   8.311   8.612   1.321  0.9375 -0.4566 -1.0431
  290MOL0     H39142   8.509   8.512   1.231  3.1027 -1.1121 -0.3717
  290MOL0     H39143   8.568   8.468   1.388  1.4482  1.5763 -1.1117
  290MOL0     H39144   8.683   8.676   1.356  0.3614  0.0437  0.5014
  290MOL0     H39145   8.544   8.735   1.434  0.3270  2.3661 -1.6431
  290MOL0     H39146   8.517   8.883   1.267 -3.3085  0.1634  0.4947
  290MOL0     H39147   8.427   8.745   1.199 -2.0553  2.1121 -0.9073
  290MOL0     H39148   8.753   8.715   0.943 -0.4127  0.4387 -0.3414
  290MOL0     H39149   8.266   8.755   1.696 -0.1271 -0.1017  0.8995
  290MOL0     H39150   8.063   8.722   1.850  2.2469 -1.0011  0.0965
  291MOL0     O39151   0.001  11.012   9.632  0.7375  0.3384  0.2050
  291MOL0     C39152   0.049  10.909   9.671 -0.7430  0.0348  0.5827
  291MOL0     O39153   0.006  10.785   9.632  0.1143 -0.1135 -0.0546
  291MOL0     C39154  -0.121  10.749   9.623 -0.7132 -0.5691 -0.7677
  291MOL0     C39155  -0.233  10.816   9.675 -1.1946 -1.4006 -0.3106
  291MOL0     C39156  -0.361  10.763   9.688 -0.4230 -1.0702 -0.3725
  291MOL0     C39157  -0.393  10.638   9.639  0.2844  0.5603 -0.2475
  291MOL0     O39158  -0.513  10.579   9.637  0.2843 -0.2050 -0.2066
  291MOL0     C39159  -0.618  10.640   9.565 -0.2001  0.1940 -0.0355
  291MOL0     C39160  -0.748  10.576   9.605 -0.3125  1.3055  0.2122
  291MOL0     C39161  -0.811  10.633   9.726  0.1195  0.0921 -0.1014
  291MOL0     C39162  -0.826  10.791   9.716 -1.3113 -0.1388  0.2596
  291MOL0     C39163  -0.920  10.844   9.828  0.0355  0.4075  0.4451
  291MOL0     C39164  -0.863  10.813   9.970 -0.7470 -0.4135  0.2013
  291MOL0     C39165  -0.713  10.852   9.989 -0.0618  0.1124  0.0129
  291MOL0     C39166  -0.678  10.997   9.972 -0.5435 -0.1976  0.3786
  291MOL0     N39167  -0.747  11.087  10.067  0.0661 -0.2655  0.3793
  291MOL0     C39168  -0.858  11.153  10.031 -0.6211  0.2761  0.6940
  291MOL0     C39169  -0.876  11.244  10.135  0.1600  0.1006  0.3693
  291MOL0     C39170  -0.961  11.362  10.143 -0.6797  0.5812  0.2856
  291MOL0     C39171  -0.885  11.486  10.191 -1.0135 -0.3115  0.7196
  291MOL0     C39172  -0.941  11.616  10.127 -0.5962  0.2211  0.8515
  291MOL0     C39173  -1.063  11.666  10.190  0.4183 -0.1498 -0.0338
  291MOL0     O39174  -1.064  11.671  10.328  0.1782 -0.2259 -0.3875
  291MOL0     C39175  -1.167  11.722  10.403  0.4232  0.5639  0.6867
  291MOL0     C39176  -1.183  11.680  10.535 -0.1682 -0.7710  0.2205
  291MOL0     C39177  -1.285  11.734  10.622 -0.5695  0.3111 -0.2186
  291MOL0     C39178  -1.271  11.698  10.774  0.1814  0.1820  0.7124
  291MOL0     C39179  -1.383  11.820  10.577 -0.3886 -0.3858  0.1640
  291MOL0     C39180  -1.499  11.881  10.656  0.1301 -0.2162  0.7620
  291MOL0     O39181  -1.518  11.860  10.786  0.6652 -0.0430  0.2620
  291MOL0     C39182  -1.644  11.879  10.847 -0.4970 -0.1712  0.2005
  291MOL0     C39183  -1.731  11.988  10.814  0.6276 -0.2060  0.9690
  291MOL0     C39184  -1.845  12.013  10.881  0.9754 -0.6080 -0.3651
  291MOL0     C39185  -1.883  11.928  10.985  0.3679 -0.6979  0.3037
  291MOL0     O39186  -1.993  11.973  11.050  0.2115  0.0094 -0.1631
  291MOL0     C39187  -2.037  11.909  11.174  0.3967 -0.2470 -0.2336
  291MOL0     C39188  -1.976  11.978  11.299 -0.2587  1.1030 -0.3819
  291MOL0     C39189  -2.049  12.114  11.313 -0.4675  0.6948 -1.1496
  291MOL0     C39190  -1.980  12.194  11.423 -0.2401  0.3628 -0.4152
  291MOL0     C39191  -2.027  12.337  11.439 -0.7364  0.2302 -0.7344
  291MOL0     C39192  -2.155  12.334  11.515 -0.5433  0.6952  0.5972
  291MOL0     C39193  -2.206  12.470  11.543 -0.1109 -0.2774 -0.1179
  291MOL0     C39194  -2.356  12.468  11.573  0.6106  0.4376 -0.3485
  291MOL0    Cl39195  -2.463  12.441  11.436  0.0243 -0.2401  0.0690
  291MOL0     C39196  -1.801  11.813  11.020 -0.5659 -0.8144  0.1346
  291MOL0     C39197  -1.679  11.793  10.946  0.3665 -0.0126  0.7179
  291MOL0     O39198  -1.579  11.944  10.577 -0.4696  0.4503 -0.6271
  291MOL0     C39199  -1.377  11.847  10.428  0.5608 -0.3496  0.3752
  291MOL0     C39200  -1.271  11.797  10.349  0.2650 -1.5117  0.4105
  291MOL0     N39201  -0.781  11.219  10.234  0.2075  0.2072  0.3258
  291MOL0     N39202  -0.708  11.120  10.185  0.2045 -0.0642 -0.3860
  291MOL0     C39203  -0.291  10.571   9.575  0.3968 -0.5125 -0.7084
  291MOL0     C39204  -0.153  10.620   9.566  0.9403 -0.5022 -0.6426
  291MOL0     C39205   0.177  10.924   9.748  0.2047 -0.2302  0.3267
  291MOL0     C39206   0.261  11.031   9.741 -0.6008  0.8212 -0.2020
  291MOL0     C39207   0.373  11.039   9.818  0.4634 -0.2787  0.2264
  291MOL0     C39208   0.411  10.943   9.905  0.0903 -0.3364 -0.6689
  291MOL0     O39209   0.539  10.963   9.957  0.5161  0.0869 -0.6704
  291MOL0     C39210   0.626  10.851   9.947 -0.1377  0.7881 -1.0852
  291MOL0     C39211   0.754  10.894   9.881  0.0011  0.1306  0.1555
  291MOL0     C39212   0.869  10.951   9.976 -0.0485  0.0074  0.4833
  291MOL0     C39213   0.836  11.092  10.018 -0.3109 -0.2917 -0.2846
  291MOL0     C39214   0.962  11.134  10.090  0.5080  0.5096  1.0668
  291MOL0     C39215   1.064  11.165  10.144  0.7597 -0.1913  0.4327
  291MOL0     C39216   0.326  10.833   9.919  0.1757  0.0949 -0.3711
  291MOL0     C39217   0.211  10.825   9.843  0.1295  0.0958 -0.3440
  291MOL0     H39218  -0.224  10.917   9.714 -0.0134 -0.9368 -1.7182
  291MOL0     H39219  -0.450  10.815   9.724 -1.1375 -3.7102  2.0857
  291MOL0     H39220  -0.617  10.749   9.567  4.3290  0.3942  3.6779
  291MOL0     H39221  -0.605  10.608   9.461 -1.7444 -0.5543 -0.0300
  291MOL0     H39222  -0.821  10.588   9.524  0.5274 -1.9787 -1.2126
  291MOL0     H39223  -0.728  10.468   9.609  0.8582  1.2827 -2.9847
  291MOL0     H39224  -0.911  10.589   9.733 -0.2000  0.8299  0.1548
  291MOL0     H39225  -0.762  10.606   9.820 -0.2609  0.1220  0.1090
  291MOL0     H39226  -0.728  10.840   9.722 -0.8020 -1.0503 -0.4152
  291MOL0     H39227  -0.881  10.819   9.625 -1.1938 -0.4089  0.1041
  291MOL0     H39228  -0.926  10.953   9.817 -1.9311  0.5037  1.9908
  291MOL0     H39229  -1.018  10.801   9.808  1.2110 -1.7045 -1.1665
  291MOL0     H39230  -0.927  10.869  10.039  0.6605  0.1054  1.1182
  291MOL0     H39231  -0.861  10.706   9.990  0.9426 -0.4097  0.1821
  291MOL0     H39232  -0.685  10.798  10.080 -1.0799 -3.4161 -1.5847
  291MOL0     H39233  -0.650  10.797   9.919  0.4966 -3.4174  2.9715
  291MOL0     H39234  -0.717  11.028   9.875 -2.8250  0.0626  1.3007
  291MOL0     H39235  -0.570  11.010   9.976 -0.8493  4.2003  4.3925
  291MOL0     H39236  -0.922  11.130   9.947  0.1705 -1.0952  0.4441
  291MOL0     H39237  -0.999  11.377  10.041 -1.2908  2.3757  0.7589
  291MOL0     H39238  -1.041  11.356  10.216  3.0028  1.4445  4.8232
  291MOL0     H39239  -0.779  11.482  10.167 -1.2322 -2.3171 -0.1249
  291MOL0     H39240  -0.889  11.489  10.300  1.1312  1.9598  0.8281
  291MOL0     H39241  -0.959  11.598  10.021 -2.4380 -0.5857  1.2652
  291MOL0     H39242  -0.862  11.692  10.119 -0.1309 -0.4442 -2.2171
  291MOL0     H39243  -1.145  11.599  10.164  1.6956 -1.5887 -0.4577
  291MOL0     H39244  -1.086  11.763  10.143 -2.3628 -0.9507 -0.5170
  291MOL0     H39245  -1.105  11.615  10.574  0.5711 -2.2425 -3.3075
  291MOL0     H39246  -1.185  11.632  10.787 -1.4101 -1.8118  1.6472
  291MOL0     H39247  -1.266  11.793  10.828 -2.5436  2.0807 -2.0957
  291MOL0     H39248  -1.353  11.638  10.813 -0.4943  0.4248 -0.3101
  291MOL0     H39249  -1.706  12.068  10.744  0.2866 -1.3959 -0.5576
  291MOL0     H39250  -1.902  12.101  10.856 -0.0036 -0.9849  0.4851
  291MOL0     H39251  -2.144  11.899  11.192  1.0916 -1.2562  4.7304
  291MOL0     H39252  -2.010  11.803  11.178  1.3115  0.0144  2.2724
  291MOL0     H39253  -1.984  11.915  11.388 -1.8792  1.1989 -0.4313
  291MOL0     H39254  -1.870  11.995  11.281 -0.1089  2.9423  1.8423
  291MOL0     H39255  -2.153  12.100  11.345 -0.5278  1.1949 -1.1216
  291MOL0     H39256  -2.059  12.168  11.219  0.4192  2.0306 -0.5054
  291MOL0     H39257  -1.973  12.131  11.512  2.9866 -1.4203 -1.7974
  291MOL0     H39258  -1.878  12.207  11.386 -0.0854 -0.8230 -0.4356
  291MOL0     H39259  -2.043  12.388  11.343  0.3887  0.2572 -0.9246
  291MOL0     H39260  -1.952  12.391  11.498  0.5760  0.1149 -2.2222
  291MOL0     H39261  -2.240  12.285  11.467 -1.0685  0.7159  1.4898
  291MOL0     H39262  -2.140  12.274  11.605  2.3401 -1.2489 -0.9968
  291MOL0     H39263  -2.179  12.541  11.464  1.3199 -0.2712  0.3391
  291MOL0     H39264  -2.157  12.513  11.632 -5.5206  1.8471  2.2781
  291MOL0     H39265  -2.389  12.560  11.621 -1.6239 -1.1366  1.4109
  291MOL0     H39266  -2.373  12.401  11.659 -1.0889  1.4043  0.1216
  291MOL0     H39267  -1.817  11.761  11.114 -1.8711 -0.5928  0.0593
  291MOL0     H39268  -1.616  11.706  10.966 -0.7442 -1.3077 -1.0919
  291MOL0     H39269  -1.453  11.901  10.372  2.5870  2.3766  0.0564
  291MOL0     H39270  -1.258  11.829  10.246 -0.1781  1.1019  1.0746
  291MOL0     H39271  -0.323  10.483   9.521 -0.3291 -0.3190 -0.5985
  291MOL0     H39272  -0.081  10.558   9.513  1.7280 -0.4240  0.3015
  291MOL0     H39273   0.240  11.104   9.663  1.3888  0.4531 -1.1477
  291MOL0     H39274   0.436  11.128   9.816  0.7752 -0.4612  1.2719
  291MOL0     H39275   0.642  10.817  10.050  0.0857  2.3301 -0.5929
  291MOL0     H39276   0.585  10.766   9.891  1.7919 -0.9989  0.0272
  291MOL0     H39277   0.733  10.963   9.799  1.2493  0.7754  0.3635
  291MOL0     H39278   0.796  10.803   9.838 -1.0389 -0.5467  0.5349
  291MOL0     H39279   0.966  10.945   9.925  0.5404  0.1957  1.5519
  291MOL0     H39280   0.875  10.883  10.061  0.4293 -1.3070 -0.5755
  291MOL0     H39281   0.754  11.098  10.090  1.1676 -1.0096  1.5389
  291MOL0     H39282   0.817  11.158   9.932 -0.3865  0.0753  0.0125
  291MOL0     H39283   1.151  11.201  10.196  0.5999 -0.9508  1.2533
  291MOL0     H39284   0.355  10.750   9.982 -0.9668  0.2346  0.3613
  291MOL0     H39285   0.152  10.734   9.836 -0.5856  0.5968 -1.0556
  292MOL0     O39286   0.930   8.694   4.420 -0.1845  0.4181  0.3542
  292MOL0     C39287   1.000   8.791   4.440 -0.2167  0.7528 -0.8430
  292MOL0     O39288   0.949   8.911   4.477 -0.4593 -0.4843 -0.4348
  292MOL0     C39289   0.816   8.938   4.486  0.7870 -0.0236 -0.5532
  292MOL0     C39290   0.720   8.884   4.397 -0.6317 -0.8343  0.1804
  292MOL0     C39291   0.579   8.917   4.417  0.0547  0.3280  1.7883
  292MOL0     C39292   0.535   8.995   4.509 -0.7726 -1.1869  0.0044
  292MOL0     O39293   0.400   9.026   4.519 -0.4631 -0.6538  0.0522
  292MOL0     C39294   0.337   8.927   4.597 -0.1788  0.7185 -0.3669
  292MOL0     C39295   0.197   8.973   4.604  0.2525 -0.3556 -0.4335
  292MOL0     C39296   0.111   8.868   4.668  0.1758  1.0562  0.1583
  292MOL0     C39297  -0.005   8.946   4.736  0.2171 -0.6666  0.0191
  292MOL0     C39298  -0.102   8.858   4.803  0.1306  0.6489 -0.7557
  292MOL0     C39299  -0.036   8.835   4.949 -0.3690 -1.6329 -0.1676
  292MOL0     C39300  -0.084   8.703   4.993  0.4807 -0.5480 -1.0493
  292MOL0     C39301  -0.048   8.673   5.153 -0.5741  0.5901  0.3836
  292MOL0     N39302  -0.168   8.598   5.206  0.0932  0.6890  0.4272
  292MOL0     C39303  -0.195   8.465   5.193 -0.2723 -0.8250  0.0213
  292MOL0     C39304  -0.311   8.448   5.255  0.4158  0.7667 -1.0395
  292MOL0     C39305  -0.386   8.316   5.257  0.7396 -0.4911 -0.4412
  292MOL0     C39306  -0.372   8.250   5.391 -0.1589 -0.3245 -0.2963
  292MOL0     C39307  -0.243   8.169   5.406  0.2021  0.1046  0.0465
  292MOL0     C39308  -0.162   8.190   5.537 -0.1431 -0.8605  0.3651
  292MOL0     O39309  -0.119   8.330   5.551 -0.0217 -0.3473  0.1453
  292MOL0     C39310   0.000   8.369   5.488  0.4569 -0.6796  0.1665
  292MOL0     C39311   0.034   8.506   5.491 -0.1583 -0.1612  0.1192
  292MOL0     C39312   0.146   8.558   5.441 -0.7913 -0.5536 -0.4041
  292MOL0     C39313   0.146   8.717   5.462 -0.2080  0.7279  0.2751
  292MOL0     C39314   0.246   8.476   5.378  0.8540  0.2319 -0.7564
  292MOL0     C39315   0.375   8.515   5.328 -0.2584  0.1702 -0.2554
  292MOL0     O39316   0.461   8.418   5.289 -1.4773  0.6935  0.2082
  292MOL0     C39317   0.590   8.458   5.268  0.8552 -0.2368  0.5955
  292MOL0     C39318   0.656   8.431   5.148 -0.8587  0.8379 -1.3632
  292MOL0     C39319   0.784   8.468   5.127 -0.4818 -0.8572  0.4480
  292MOL0     C39320   0.860   8.540   5.225 -0.1965  0.9277  0.2999
  292MOL0     O39321   0.996   8.571   5.207  0.2402  0.2288  0.5077
  292MOL0     C39322   1.095   8.498   5.138  0.4713 -0.2215  0.7672
  292MOL0     C39323   1.128   8.369   5.214 -0.3615 -0.5600  0.3002
  292MOL0     C39324   1.240   8.295   5.126 -0.3211  0.2578  0.4654
  292MOL0     C39325   1.381   8.336   5.176 -0.4255 -0.5407  0.3790
  292MOL0     C39326   1.495   8.273   5.090  0.0061 -0.7100 -0.3138
  292MOL0     C39327   1.630   8.340   5.114  0.6447 -0.8269 -0.8683
  292MOL0     C39328   1.663   8.358   5.267 -0.4922 -0.4820 -0.0009
  292MOL0     C39329   1.815   8.414   5.281 -0.7843 -0.3128 -0.0264
  292MOL0    Cl39330   1.876   8.545   5.162  0.0364  0.3659 -0.2569
  292MOL0     C39331   0.794   8.580   5.344 -0.0331  0.2722 -0.3284
  292MOL0     C39332   0.661   8.536   5.368 -0.5684  0.4771 -0.3254
  292MOL0     O39333   0.392   8.633   5.311  0.1817  0.3774  0.1906
  292MOL0     C39334   0.206   8.337   5.352  0.4693  0.4544 -0.1903
  292MOL0     C39335   0.089   8.287   5.413  0.1021 -0.0113  0.0547
  292MOL0     N39336  -0.353   8.572   5.299 -0.0024 -0.3853 -0.0854
  292MOL0     N39337  -0.267   8.660   5.280 -0.4457  0.2800  0.4572
  292MOL0     C39338   0.626   9.061   4.596 -0.0507  0.2004  0.3294
  292MOL0     C39339   0.763   9.032   4.583  1.0317 -0.1899  0.2577
  292MOL0     C39340   1.142   8.775   4.435  0.5313  0.4474  0.1920
  292MOL0     C39341   1.217   8.816   4.542 -1.0381 -0.0374  0.4201
  292MOL0     C39342   1.356   8.792   4.536  0.1084  0.2302  0.1496
  292MOL0     C39343   1.407   8.736   4.416  0.3267 -0.4792  0.1735
  292MOL0     O39344   1.539   8.705   4.385  0.5398 -0.0845 -0.6435
  292MOL0     C39345   1.643   8.758   4.476 -0.5170  0.9690  0.4596
  292MOL0     C39346   1.777   8.749   4.407 -0.3349  0.8162  0.0607
  292MOL0     C39347   1.808   8.608   4.359 -0.9270  0.2946  0.3934
  292MOL0     C39348   1.937   8.604   4.284 -1.0544 -0.4634 -0.5701
  292MOL0     C39349   1.975   8.468   4.250 -0.4326 -0.2828  0.5325
  292MOL0     C39350   2.011   8.363   4.215  0.2599  0.6416 -0.4489
  292MOL0     C39351   1.328   8.696   4.303  0.0115 -0.6625  0.5180
  292MOL0     C39352   1.191   8.710   4.319 -0.4301  0.5511 -0.0396
  292MOL0     H39353   0.737   8.814   4.315 -0.6515 -2.0018  1.1357
  292MOL0     H39354   0.515   8.866   4.346  2.7939 -1.6122  0.5317
  292MOL0     H39355   0.341   8.832   4.542  2.7607 -0.2480  1.3159
  292MOL0     H39356   0.378   8.918   4.698  1.9630  0.8972 -1.1785
  292MOL0     H39357   0.200   9.067   4.659  1.9887  0.1529 -1.3314
  292MOL0     H39358   0.144   9.000   4.512 -0.4967  0.9905  0.3619
  292MOL0     H39359   0.076   8.791   4.599 -2.4903  0.5721  1.8951
  292MOL0     H39360   0.163   8.802   4.739 -3.3583 -1.8512  0.3093
  292MOL0     H39361   0.050   9.010   4.805  4.7078 -1.5207 -2.3642
  292MOL0     H39362  -0.054   9.007   4.659  1.4811 -0.9763 -1.0689
  292MOL0     H39363  -0.198   8.911   4.809 -0.2448  0.2653 -2.6995
  292MOL0     H39364  -0.111   8.763   4.750  1.6827 -0.3793  0.7384
  292MOL0     H39365   0.074   8.834   4.953 -0.3413 -2.7606 -0.6848
  292MOL0     H39366  -0.072   8.921   5.005  0.4250 -0.7987 -0.8883
  292MOL0     H39367  -0.193   8.703   4.993  0.4539  0.7802 -0.7809
  292MOL0     H39368  -0.046   8.620   4.933  0.3846 -2.6545  1.6211
  292MOL0     H39369  -0.038   8.761   5.217 -2.0747 -0.0113  1.5100
  292MOL0     H39370   0.047   8.620   5.162  0.1907  1.9639  0.7245
  292MOL0     H39371  -0.132   8.397   5.136  0.8658 -0.4562  0.7927
  292MOL0     H39372  -0.491   8.345   5.244  0.3196 -2.2847 -1.3545
  292MOL0     H39373  -0.362   8.251   5.173 -1.5485 -0.7923 -0.9303
  292MOL0     H39374  -0.462   8.188   5.404  0.2175 -0.7224  0.5158
  292MOL0     H39375  -0.376   8.321   5.474 -1.6332 -0.8907  0.1552
  292MOL0     H39376  -0.170   8.197   5.329  0.0388  1.1423  0.2605
  292MOL0     H39377  -0.259   8.062   5.386  1.1046  0.0469 -0.4123
  292MOL0     H39378  -0.088   8.111   5.555 -0.7402 -1.3142  0.8952
  292MOL0     H39379  -0.223   8.163   5.624  0.2813  3.4758  2.2220
  292MOL0     H39380  -0.044   8.568   5.534 -2.1482 -0.3796 -2.8681
  292MOL0     H39381   0.096   8.751   5.554  6.0754  0.0131  4.6292
  292MOL0     H39382   0.252   8.736   5.476  1.0079 -3.5856 -1.5045
  292MOL0     H39383   0.099   8.774   5.382 -2.1525 -1.8901 -0.5831
  292MOL0     H39384   0.593   8.377   5.078 -0.7571  0.8266 -1.4460
  292MOL0     H39385   0.828   8.452   5.029  1.5692  2.0608  0.7386
  292MOL0     H39386   1.056   8.469   5.040  1.9509 -1.2910  0.4737
  292MOL0     H39387   1.178   8.565   5.118 -2.5782  3.1072 -2.2647
  292MOL0     H39388   1.160   8.400   5.314  1.1156  0.5794 -0.4904
  292MOL0     H39389   1.044   8.299   5.222 -0.4850 -0.2167  2.8472
  292MOL0     H39390   1.217   8.313   5.021 -1.3091 -0.4030  0.5602
  292MOL0     H39391   1.214   8.189   5.127 -0.9160  0.3112 -2.6108
  292MOL0     H39392   1.390   8.443   5.154 -0.8966 -1.1012 -3.1267
  292MOL0     H39393   1.382   8.312   5.283 -0.7421  1.4475  0.8797
  292MOL0     H39394   1.480   8.277   4.981  1.4552  0.8547 -0.5032
  292MOL0     H39395   1.500   8.165   5.105 -2.4213 -0.5385  2.8115
  292MOL0     H39396   1.714   8.300   5.056 -0.0561 -1.6958 -1.3062
  292MOL0     H39397   1.625   8.443   5.079  0.8042 -0.6281 -0.3179
  292MOL0     H39398   1.643   8.268   5.326  2.2404  0.1507  2.1276
  292MOL0     H39399   1.604   8.442   5.305 -1.7243  0.4040 -3.5488
  292MOL0     H39400   1.880   8.326   5.276 -0.2123  0.1652 -1.9085
  292MOL0     H39401   1.824   8.447   5.385  0.9363  0.8507 -0.4991
  292MOL0     H39402   0.847   8.641   5.416 -1.0916  0.0863  0.6497
  292MOL0     H39403   0.619   8.541   5.469  0.1427 -3.6023  0.3157
  292MOL0     H39404   0.257   8.266   5.287 -2.3896 -0.4639 -1.6149
  292MOL0     H39405   0.065   8.183   5.392  0.1311 -0.0610  0.2667
  292MOL0     H39406   0.598   9.126   4.678  2.7690  1.2204  0.5938
  292MOL0     H39407   0.823   9.099   4.644  0.8190  1.5504 -1.3701
  292MOL0     H39408   1.152   8.862   4.616 -0.9112  1.5880 -0.4212
  292MOL0     H39409   1.416   8.829   4.619 -1.0298 -0.5046  1.3578
  292MOL0     H39410   1.613   8.861   4.497 -1.5420  0.6436  0.6463
  292MOL0     H39411   1.647   8.700   4.568  3.2646  1.0462  0.5018
  292MOL0     H39412   1.855   8.786   4.474  1.2896 -1.2134 -0.6092
  292MOL0     H39413   1.764   8.808   4.316  1.0550 -1.2777 -1.6040
  292MOL0     H39414   1.719   8.574   4.305 -1.1173  1.5615 -0.1409
  292MOL0     H39415   1.815   8.542   4.446  1.5352 -2.7249 -1.8465
  292MOL0     H39416   2.011   8.635   4.358 -1.3216 -3.8779  1.3031
  292MOL0     H39417   1.937   8.674   4.200  0.7410 -1.3605 -1.3623
  292MOL0     H39418   2.027   8.265   4.176 -2.7459  0.5891 -1.8531
  292MOL0     H39419   1.366   8.662   4.208 -1.0131  1.5469 -0.7637
  292MOL0     H39420   1.129   8.669   4.241  0.9730  0.3131 -1.0656
  293MOL0     O39421   4.950   9.405   4.192  0.0739 -0.9899 -0.1101
  293MOL0     C39422   4.974   9.522   4.161 -0.3193 -0.0964 -0.9221
  293MOL0     O39423   5.026   9.566   4.054 -0.0324  0.0839  0.7524
  293MOL0     C39424   5.065   9.472   3.955 -0.0952 -0.0654  0.8080
  293MOL0     C39425   5.194   9.428   3.965  0.6092  0.4134 -0.0087
  293MOL0     C39426   5.230   9.314   3.887  0.4919  0.0667  0.7001
  293MOL0     C39427   5.137   9.259   3.794 -0.4922 -0.5205 -0.6106
  293MOL0     O39428   5.196   9.163   3.717  0.0755  0.3344 -0.1077
  293MOL0     C39429   5.113   9.080   3.638 -1.2681  0.1092 -0.1512
  293MOL0     C39430   5.200   8.955   3.604 -0.8989 -0.2400 -0.1890
  293MOL0     C39431   5.314   8.985   3.503  0.1141  0.1650  0.2685
  293MOL0     C39432   5.404   8.868   3.478 -0.1453  0.3044 -0.4619
  293MOL0     C39433   5.512   8.902   3.379 -0.1449 -0.3496 -0.2280
  293MOL0     C39434   5.575   8.771   3.327  0.5129 -0.1367  0.3102
  293MOL0     C39435   5.691   8.804   3.230 -0.4027  0.2806 -0.2823
  293MOL0     C39436   5.729   8.673   3.161  0.1867 -0.3449  0.1253
  293MOL0     N39437   5.683   8.685   3.020  0.1665  0.3073  0.3028
  293MOL0     C39438   5.552   8.716   3.001  0.4151 -0.6397  0.2736
  293MOL0     C39439   5.565   8.750   2.873  0.0125  0.0312  0.7589
  293MOL0     C39440   5.443   8.802   2.793  0.6826 -0.2542  0.8559
  293MOL0     C39441   5.417   8.947   2.841 -0.1602 -0.5311  0.4641
  293MOL0     C39442   5.291   8.997   2.783  0.1349 -0.4891 -0.5257
  293MOL0     C39443   5.277   9.149   2.799  0.0726  1.4119 -1.1033
  293MOL0     O39444   5.161   9.188   2.726  0.7424 -0.3767 -0.0542
  293MOL0     C39445   5.083   9.293   2.765  0.3741  0.2827  0.2464
  293MOL0     C39446   4.984   9.323   2.673  0.6055  0.3848  0.4610
  293MOL0     C39447   4.898   9.431   2.686  0.2747 -0.1651 -0.4411
  293MOL0     C39448   4.814   9.463   2.566 -0.9857  1.2364  0.2198
  293MOL0     C39449   4.898   9.510   2.809 -0.2082  0.6739 -1.2731
  293MOL0     C39450   4.799   9.617   2.834  0.2994 -0.7045 -0.0933
  293MOL0     O39451   4.707   9.653   2.729 -0.3728 -0.1151  0.6746
  293MOL0     C39452   4.605   9.744   2.737  0.7737  0.0082 -0.3673
  293MOL0     C39453   4.607   9.847   2.826  0.1824 -0.4213 -0.1476
  293MOL0     C39454   4.516   9.949   2.813 -0.4153 -0.8425 -0.3316
  293MOL0     C39455   4.434   9.964   2.702  0.2365  0.4767 -0.1884
  293MOL0     O39456   4.355  10.070   2.679 -0.5918  0.1023 -0.2718
  293MOL0     C39457   4.316  10.141   2.796 -0.5998 -0.5180 -0.1078
  293MOL0     C39458   4.187  10.219   2.760 -0.3358  0.2971  0.9067
  293MOL0     C39459   4.222  10.345   2.679  0.7634 -0.2325  0.0562
  293MOL0     C39460   4.107  10.444   2.669 -1.1676 -0.2322 -0.1854
  293MOL0     C39461   4.128  10.563   2.570  0.3827 -1.0991 -0.6678
  293MOL0     C39462   4.258  10.648   2.576  0.0283 -0.1312 -0.9557
  293MOL0     C39463   4.267  10.775   2.482 -0.0641 -0.2753  0.4110
  293MOL0     C39464   4.238  10.895   2.566  0.2926  0.5261 -0.7684
  293MOL0    Cl39465   4.057  10.920   2.579  0.1369  0.1508  0.2101
  293MOL0     C39466   4.425   9.851   2.622  1.1615  0.1528  0.4908
  293MOL0     C39467   4.506   9.740   2.637  0.7306 -0.5678 -0.0203
  293MOL0     O39468   4.802   9.672   2.947  0.4407  0.1233 -0.1583
  293MOL0     C39469   4.998   9.478   2.898 -0.2772 -0.6272 -0.1450
  293MOL0     C39470   5.091   9.374   2.883  0.7221  0.0569 -0.0755
  293MOL0     N39471   5.685   8.733   2.818 -0.2496 -0.0391  0.5497
  293MOL0     N39472   5.763   8.691   2.907 -0.0997 -0.1508 -0.0605
  293MOL0     C39473   5.008   9.307   3.780 -0.5315  0.2177 -1.0906
  293MOL0     C39474   4.973   9.413   3.864  0.2331 -0.7992 -0.3357
  293MOL0     C39475   4.945   9.618   4.271  0.5966 -0.2491  0.5826
  293MOL0     C39476   4.936   9.581   4.409 -0.0315  0.2884  0.2493
  293MOL0     C39477   4.913   9.668   4.511 -0.8767  0.2285  0.2386
  293MOL0     C39478   4.890   9.801   4.482 -0.6509  0.4866  0.2928
  293MOL0     O39479   4.870   9.891   4.588  0.5090  0.5335 -0.0707
  293MOL0     C39480   4.884  10.034   4.558 -1.2381  0.5703 -0.4445
  293MOL0     C39481   4.880  10.112   4.687 -0.1705 -0.5577 -0.1551
  293MOL0     C39482   4.778  10.222   4.695  0.0374 -0.0867 -0.3823
  293MOL0     C39483   4.821  10.324   4.807 -0.0606  0.5926  0.9212
  293MOL0     C39484   4.717  10.431   4.829  0.6883 -0.4299 -0.9993
  293MOL0     C39485   4.627  10.509   4.849  0.3803  0.4582 -0.2582
  293MOL0     C39486   4.909   9.838   4.350  0.3300 -0.1183 -0.4676
  293MOL0     C39487   4.935   9.760   4.242 -0.7059  0.2094  0.2902
  293MOL0     H39488   5.255   9.467   4.046  0.3815 -0.0499  0.3908
  293MOL0     H39489   5.327   9.267   3.898  0.3906 -0.5864 -0.9253
  293MOL0     H39490   5.028   9.036   3.690 -0.3838  0.6256  1.8240
  293MOL0     H39491   5.084   9.133   3.547 -0.2261  0.1554 -0.4745
  293MOL0     H39492   5.245   8.917   3.696  0.6875  2.6029  0.3123
  293MOL0     H39493   5.134   8.878   3.562 -2.8362  1.0045  0.4712
  293MOL0     H39494   5.268   9.024   3.412  1.0704  1.5277  0.3479
  293MOL0     H39495   5.372   9.070   3.541  0.2274  0.2898 -0.1754
  293MOL0     H39496   5.458   8.835   3.567 -0.9624  0.4615  0.1130
  293MOL0     H39497   5.345   8.780   3.452 -0.9790 -0.4990  3.4263
  293MOL0     H39498   5.482   8.959   3.291  2.1279 -0.0851 -0.8872
  293MOL0     H39499   5.586   8.968   3.426 -0.2177 -1.2295  1.2021
  293MOL0     H39500   5.616   8.706   3.405  1.9357  0.1107 -0.1865
  293MOL0     H39501   5.495   8.726   3.268 -1.4837  4.5186 -1.0037
  293MOL0     H39502   5.653   8.882   3.164 -0.0648  0.8064  0.1429
  293MOL0     H39503   5.777   8.840   3.286  1.4900  0.8255 -3.3212
  293MOL0     H39504   5.694   8.587   3.219 -1.2072  1.1411  1.6029
  293MOL0     H39505   5.838   8.671   3.152  0.3097 -0.0555  1.3805
  293MOL0     H39506   5.468   8.707   3.069  0.1938 -0.0388  0.0879
  293MOL0     H39507   5.449   8.798   2.683 -0.0552 -3.2922  0.8348
  293MOL0     H39508   5.352   8.746   2.818  0.6730 -1.6954 -1.9784
  293MOL0     H39509   5.506   9.009   2.824 -1.0896  0.5039 -0.9425
  293MOL0     H39510   5.402   8.940   2.949 -0.3937  0.3126  0.4952
  293MOL0     H39511   5.202   8.950   2.826 -0.7391  1.6414  0.1247
  293MOL0     H39512   5.291   8.961   2.680  2.9817 -0.7037 -0.5466
  293MOL0     H39513   5.362   9.200   2.754  0.0953  0.9251 -1.6229
  293MOL0     H39514   5.271   9.184   2.902 -1.6022  0.9070 -0.9995
  293MOL0     H39515   4.985   9.260   2.585 -1.2956  0.2545  0.4822
  293MOL0     H39516   4.831   9.401   2.477  0.5535  2.5899 -0.4869
  293MOL0     H39517   4.706   9.455   2.581 -0.8839  1.3725  1.0305
  293MOL0     H39518   4.835   9.566   2.534 -0.1057  1.0983  0.3540
  293MOL0     H39519   4.677   9.859   2.908  1.3151  1.8768 -1.3245
  293MOL0     H39520   4.522  10.025   2.889 -3.7346 -0.4128 -0.3499
  293MOL0     H39521   4.300  10.074   2.881 -0.1298 -3.0164 -1.8866
  293MOL0     H39522   4.397  10.211   2.819 -2.1490  1.3815 -0.2155
  293MOL0     H39523   4.125  10.152   2.701 -0.7264  0.7143  0.8360
  293MOL0     H39524   4.130  10.242   2.851  2.8624  1.6442  2.7360
  293MOL0     H39525   4.245  10.302   2.581  2.0590 -0.4058  0.4178
  293MOL0     H39526   4.313  10.390   2.720  0.1040  1.5598 -0.3454
  293MOL0     H39527   4.013  10.396   2.641 -1.5632  0.7172 -0.5176
  293MOL0     H39528   4.099  10.496   2.764  1.1074  0.3076 -0.2276
  293MOL0     H39529   4.047  10.632   2.594 -0.7251 -1.4996 -3.0012
  293MOL0     H39530   4.113  10.536   2.465 -0.6027  3.6019 -1.9780
  293MOL0     H39531   4.286  10.670   2.679  3.6982 -3.1848 -1.0940
  293MOL0     H39532   4.338  10.578   2.551 -1.1398 -2.3615  1.0943
  293MOL0     H39533   4.210  10.773   2.389 -1.0927  0.6842  0.9862
  293MOL0     H39534   4.375  10.783   2.464 -0.6033  2.1744 -2.6235
  293MOL0     H39535   4.276  10.979   2.506 -0.1842 -1.5095 -4.2115
  293MOL0     H39536   4.282  10.891   2.666 -2.8821  0.2170  0.7269
  293MOL0     H39537   4.359   9.849   2.536 -0.0515  0.1071  1.3963
  293MOL0     H39538   4.509   9.665   2.559  2.2771  0.2967 -0.8446
  293MOL0     H39539   5.008   9.525   2.995  0.9430 -2.2429  0.5678
  293MOL0     H39540   5.169   9.368   2.958  0.4565 -1.3973  0.1046
  293MOL0     H39541   4.952   9.251   3.706  3.2646 -3.8590 -1.2663
  293MOL0     H39542   4.874   9.456   3.862  1.6362  2.8034 -2.2854
  293MOL0     H39543   4.963   9.479   4.434 -2.6683 -1.2800 -2.5763
  293MOL0     H39544   4.929   9.640   4.615 -2.4749  2.2092  1.0957
  293MOL0     H39545   4.978  10.054   4.505  0.0821 -3.7763 -0.1772
  293MOL0     H39546   4.802  10.072   4.496 -0.3433 -0.6487 -2.4978
  293MOL0     H39547   4.981  10.148   4.711 -0.7991  1.9392 -1.0494
  293MOL0     H39548   4.857  10.050   4.775 -1.3116  2.9995  2.2878
  293MOL0     H39549   4.685  10.176   4.730 -1.0237  2.2398  0.1198
  293MOL0     H39550   4.760  10.282   4.605  0.7972 -0.1011 -0.5441
  293MOL0     H39551   4.920  10.363   4.781 -0.2983  1.3077  1.0696
  293MOL0     H39552   4.838  10.279   4.905 -1.3381  1.0915  1.3940
  293MOL0     H39553   4.558  10.590   4.864  0.3132  1.2513 -3.9262
  293MOL0     H39554   4.886   9.941   4.322  2.0629 -0.3146 -3.0333
  293MOL0     H39555   4.941   9.805   4.143  0.2987  0.8417  0.6289
  294MOL0     O39556   3.251   2.497   6.042 -0.6061  0.6084 -0.0302
  294MOL0     C39557   3.298   2.594   5.980  0.1475 -0.3321 -0.2594
  294MOL0     O39558   3.281   2.721   6.016 -0.2402  0.0979  0.3612
  294MOL0     C39559   3.210   2.751   6.128  0.5428  0.2681  0.6004
  294MOL0     C39560   3.274   2.752   6.253  0.8339 -0.6895 -0.2786
  294MOL0     C39561   3.197   2.791   6.368  0.2936 -0.2879  0.2749
  294MOL0     C39562   3.063   2.824   6.361  0.5470  0.0577 -0.1958
  294MOL0     O39563   2.975   2.845   6.472 -0.0037 -0.1786 -0.3314
  294MOL0     C39564   3.005   2.821   6.608  0.3026 -0.7611  0.3670
  294MOL0     C39565   2.969   2.682   6.648 -0.3448  0.1115  0.8824
  294MOL0     C39566   2.817   2.662   6.657 -0.3454  0.4558  0.9583
  294MOL0     C39567   2.756   2.726   6.780 -0.1736 -0.4989  0.2728
  294MOL0     C39568   2.616   2.672   6.837  0.0743 -0.1246  0.4276
  294MOL0     C39569   2.489   2.683   6.748 -0.5129  0.4829 -0.3938
  294MOL0     C39570   2.469   2.825   6.712 -1.9778  0.0985  0.0456
  294MOL0     C39571   2.330   2.841   6.635  0.0510 -0.5497  0.0840
  294MOL0     N39572   2.320   2.770   6.505  0.8380 -0.3070  0.8846
  294MOL0     C39573   2.331   2.818   6.371  0.5117 -0.0126 -0.2341
  294MOL0     C39574   2.289   2.714   6.290 -0.2836 -0.4481 -0.3536
  294MOL0     C39575   2.300   2.711   6.144  0.0606 -0.2465 -0.0752
  294MOL0     C39576   2.272   2.583   6.073  0.1071  1.2576  0.3583
  294MOL0     C39577   2.247   2.587   5.918 -0.3471  0.5808  0.7686
  294MOL0     C39578   2.164   2.709   5.868 -1.2844 -0.0224 -0.1688
  294MOL0     O39579   2.132   2.681   5.733  0.4171  0.4554 -0.5820
  294MOL0     C39580   2.056   2.761   5.667  0.1928 -0.8450  0.8566
  294MOL0     C39581   2.001   2.884   5.711  0.3498 -0.4675 -0.2924
  294MOL0     C39582   1.927   2.964   5.615  0.2625  0.3168 -0.0139
  294MOL0     C39583   1.880   3.096   5.659  0.3814  0.1893  0.0249
  294MOL0     C39584   1.921   2.921   5.474  0.4891 -0.7232 -0.7232
  294MOL0     C39585   1.856   3.005   5.363  1.0223 -0.3000 -0.2297
  294MOL0     O39586   1.738   3.057   5.407  0.1479 -0.1218  0.4108
  294MOL0     C39587   1.635   3.090   5.318  0.5943  0.5224  0.0602
  294MOL0     C39588   1.532   3.164   5.374  0.7013  0.3899  0.5442
  294MOL0     C39589   1.430   3.224   5.306  1.1619 -0.3023  0.6669
  294MOL0     C39590   1.404   3.186   5.175 -0.3517  0.1964 -0.5450
  294MOL0     O39591   1.296   3.224   5.099 -0.5312 -0.0373  0.4970
  294MOL0     C39592   1.207   3.327   5.157 -0.1217 -0.2511 -0.4153
  294MOL0     C39593   1.129   3.412   5.047 -1.6060  0.0008 -0.9906
  294MOL0     C39594   1.020   3.505   5.094  0.4028  0.2816  0.6721
  294MOL0     C39595   0.892   3.427   5.118 -0.6153 -0.2241  0.4405
  294MOL0     C39596   0.772   3.515   5.154 -0.1487  0.1272  0.9292
  294MOL0     C39597   0.638   3.440   5.149  0.2674  0.4668 -0.2567
  294MOL0     C39598   0.626   3.349   5.278 -0.0247 -0.9301 -0.5788
  294MOL0     C39599   0.512   3.248   5.271  0.1327  0.1827 -0.4505
  294MOL0    Cl39600   0.350   3.323   5.288 -0.4898  0.2299 -0.1012
  294MOL0     C39601   1.495   3.095   5.112  0.0546 -0.1733 -0.6079
  294MOL0     C39602   1.618   3.065   5.178  0.6034  0.2351 -0.0576
  294MOL0     O39603   1.909   3.034   5.262 -0.0676  0.2211 -0.0203
  294MOL0     C39604   1.966   2.799   5.444  0.5718 -0.0187  0.0991
  294MOL0     C39605   2.036   2.716   5.536  0.0848 -0.1190  0.0879
  294MOL0     N39606   2.242   2.611   6.375 -0.8134  1.1870 -0.3185
  294MOL0     N39607   2.254   2.646   6.497 -0.4851 -0.4036 -0.2922
  294MOL0     C39608   3.012   2.834   6.230 -1.1603 -0.6172 -1.1257
  294MOL0     C39609   3.080   2.795   6.116  0.8536 -0.2537 -0.1356
  294MOL0     C39610   3.394   2.571   5.870  0.2707  0.0881  0.0742
  294MOL0     C39611   3.384   2.463   5.782 -0.0183  0.4391 -0.0907
  294MOL0     C39612   3.479   2.449   5.676  0.6058 -0.3133 -0.2434
  294MOL0     C39613   3.583   2.543   5.657  0.0080  0.5449 -0.0877
  294MOL0     O39614   3.679   2.516   5.565 -0.3300 -0.0841  0.0851
  294MOL0     C39615   3.804   2.586   5.576  0.3931  0.7229 -0.0011
  294MOL0     C39616   3.898   2.512   5.478  0.2974 -0.3669  0.3647
  294MOL0     C39617   4.031   2.591   5.451  0.0975 -0.2141  0.3260
  294MOL0     C39618   4.092   2.570   5.310 -0.0682 -0.3671  0.0133
  294MOL0     C39619   4.008   2.607   5.195  0.3236  0.1198 -0.3840
  294MOL0     C39620   3.927   2.611   5.094  0.2727 -0.3370 -0.8021
  294MOL0     C39621   3.579   2.654   5.738 -0.2511  0.0769  0.7041
  294MOL0     C39622   3.489   2.671   5.842  0.6867  0.6014 -0.0528
  294MOL0     H39623   3.378   2.722   6.262  0.8435 -0.4139  0.6675
  294MOL0     H39624   3.247   2.774   6.463  1.3313  1.3188  0.0492
  294MOL0     H39625   3.111   2.838   6.628  0.3468 -2.6980  2.0265
  294MOL0     H39626   2.946   2.889   6.670  0.6483 -0.9157  0.8654
  294MOL0     H39627   3.010   2.611   6.575 -2.8441 -2.5441  1.8461
  294MOL0     H39628   3.006   2.657   6.748 -3.3317 -1.8801  1.6303
  294MOL0     H39629   2.771   2.704   6.567 -3.1351 -2.9096  0.5887
  294MOL0     H39630   2.791   2.556   6.669 -1.9842  0.6288 -0.5588
  294MOL0     H39631   2.829   2.710   6.860  2.1220  1.2513 -1.3269
  294MOL0     H39632   2.747   2.835   6.771  0.1488 -0.5013 -0.1101
  294MOL0     H39633   2.629   2.566   6.860  0.5008  0.5273  3.5107
  294MOL0     H39634   2.596   2.716   6.935  3.6076  0.5390  0.9985
  294MOL0     H39635   2.499   2.619   6.659  0.5505 -0.8692  0.6467
  294MOL0     H39636   2.401   2.648   6.803  1.2500  0.8477  2.8991
  294MOL0     H39637   2.473   2.900   6.792 -2.1444  2.5686 -2.1225
  294MOL0     H39638   2.549   2.854   6.642 -1.2989 -1.7614 -0.0103
  294MOL0     H39639   2.314   2.947   6.615  0.0816 -0.5102  0.2619
  294MOL0     H39640   2.256   2.805   6.707  0.8778  1.3269  2.0114
  294MOL0     H39641   2.378   2.910   6.337  1.1193 -0.5567 -0.9130
  294MOL0     H39642   2.236   2.786   6.097  0.2611 -1.3518 -2.2456
  294MOL0     H39643   2.405   2.733   6.120  0.1836 -0.1145  0.5571
  294MOL0     H39644   2.179   2.551   6.122 -0.8959  2.4629 -0.7025
  294MOL0     H39645   2.340   2.501   6.100 -2.0908  0.2279  3.3939
  294MOL0     H39646   2.207   2.488   5.891  0.3453  0.5098 -0.0565
  294MOL0     H39647   2.344   2.590   5.868 -1.1405 -2.8835 -1.3484
  294MOL0     H39648   2.232   2.795   5.874  1.9961 -2.2960 -1.6855
  294MOL0     H39649   2.079   2.721   5.935 -1.1050 -0.6833  0.1902
  294MOL0     H39650   2.018   2.917   5.812  2.7217  2.3625 -1.4816
  294MOL0     H39651   1.771   3.101   5.657 -0.1195 -4.7505 -2.7592
  294MOL0     H39652   1.927   3.122   5.754 -0.2540 -0.4436  0.5251
  294MOL0     H39653   1.911   3.168   5.583 -0.5619 -1.0677 -1.6176
  294MOL0     H39654   1.547   3.194   5.477  0.8508  2.0181  0.0750
  294MOL0     H39655   1.364   3.292   5.359 -0.6946 -0.0070 -1.8036
  294MOL0     H39656   1.127   3.286   5.219  0.2053 -1.1774 -0.5914
  294MOL0     H39657   1.271   3.397   5.212  1.3381 -0.6934 -1.4789
  294MOL0     H39658   1.203   3.473   4.993  0.0171 -2.3097 -1.5040
  294MOL0     H39659   1.088   3.344   4.972 -0.8188 -1.5154 -0.0919
  294MOL0     H39660   0.993   3.579   5.018 -2.6916 -1.4350 -0.0361
  294MOL0     H39661   1.053   3.547   5.189  1.6991 -1.0458  0.8552
  294MOL0     H39662   0.859   3.363   5.035 -0.0032  2.2526 -1.8645
  294MOL0     H39663   0.913   3.373   5.211  0.2595  1.6903  1.4013
  294MOL0     H39664   0.770   3.600   5.086  0.1280 -1.3748 -1.0574
  294MOL0     H39665   0.779   3.552   5.256  1.8384  0.0401  0.8565
  294MOL0     H39666   0.555   3.510   5.148 -0.3381  0.0535  3.9591
  294MOL0     H39667   0.631   3.377   5.060  0.2102 -0.6013  0.4885
  294MOL0     H39668   0.613   3.420   5.360 -0.3953  1.4673 -2.5894
  294MOL0     H39669   0.725   3.303   5.284 -0.1685 -1.0407  2.4171
  294MOL0     H39670   0.512   3.178   5.355 -0.5235  0.2397 -0.3976
  294MOL0     H39671   0.527   3.196   5.176 -0.2630  0.4288 -0.6479
  294MOL0     H39672   1.474   3.062   5.011  0.3355  2.0685 -1.4711
  294MOL0     H39673   1.692   3.003   5.128 -0.2326 -1.4938  0.7397
  294MOL0     H39674   1.963   2.752   5.347  1.5006 -1.0830  0.5618
  294MOL0     H39675   2.078   2.622   5.502  0.8249  0.1941  0.1052
  294MOL0     H39676   2.908   2.862   6.222 -0.5997  2.2860  0.5008
  294MOL0     H39677   3.024   2.782   6.024 -1.4435 -1.9443  1.4000
  294MOL0     H39678   3.308   2.387   5.794 -1.6628  2.0993  0.4439
  294MOL0     H39679   3.455   2.359   5.621 -0.9346  0.1293 -0.3544
  294MOL0     H39680   3.798   2.691   5.545 -1.6109  1.3071  2.0995
  294MOL0     H39681   3.843   2.581   5.679 -1.9550 -2.7271  0.8922
  294MOL0     H39682   3.838   2.509   5.386 -3.4911 -2.0780  2.5963
  294MOL0     H39683   3.908   2.406   5.507 -2.2311 -1.3802 -2.0480
  294MOL0     H39684   4.103   2.565   5.529  0.8651 -2.4408 -1.0394
  294MOL0     H39685   4.011   2.698   5.463 -2.3159 -0.8231  2.7968
  294MOL0     H39686   4.118   2.464   5.298 -2.4119 -0.9910 -0.1661
  294MOL0     H39687   4.179   2.635   5.315 -1.5521  1.7786 -0.4383
  294MOL0     H39688   3.855   2.617   5.015 -1.0842  1.5428  0.4904
  294MOL0     H39689   3.659   2.727   5.730  0.3030  0.0121  4.1423
  294MOL0     H39690   3.498   2.761   5.902 -0.3852  0.9650 -0.3950
  295MOL0     O39691   4.078  11.005   7.600  0.5008  0.4210  0.3507
  295MOL0     C39692   4.070  11.035   7.719  0.5831 -0.8732  0.8861
  295MOL0     O39693   3.963  11.090   7.788 -0.1952 -0.6571  0.5204
  295MOL0     C39694   3.844  11.140   7.735 -0.1461 -0.4970 -0.7933
  295MOL0     C39695   3.784  11.254   7.798 -0.6838  0.4218 -0.2424
  295MOL0     C39696   3.675  11.311   7.737 -0.0917 -0.0458 -0.1598
  295MOL0     C39697   3.616  11.253   7.619 -0.2793 -0.3880 -0.9275
  295MOL0     O39698   3.500  11.316   7.582 -0.6482  0.2884  0.3425
  295MOL0     C39699   3.420  11.250   7.476  0.1220  0.0230 -0.6530
  295MOL0     C39700   3.301  11.336   7.439 -0.4635 -0.3782  0.3615
  295MOL0     C39701   3.261  11.299   7.296 -0.4432  0.7245 -0.2613
  295MOL0     C39702   3.166  11.411   7.233 -0.2045  0.1564  0.0929
  295MOL0     C39703   3.153  11.410   7.077 -0.1760 -1.0282  0.4048
  295MOL0     C39704   3.085  11.538   7.018  0.4929 -0.0664 -0.9030
  295MOL0     C39705   3.092  11.525   6.865 -0.0011 -0.1320  0.4793
  295MOL0     C39706   3.043  11.654   6.790  0.2888  0.3079 -0.2756
  295MOL0     N39707   2.895  11.676   6.807 -1.1262 -0.2038  1.0750
  295MOL0     C39708   2.792  11.612   6.742  0.8485  0.6361 -1.4963
  295MOL0     C39709   2.677  11.670   6.797 -0.2897 -0.2671  0.0217
  295MOL0     C39710   2.534  11.628   6.774 -0.0370  0.6885  0.3294
  295MOL0     C39711   2.502  11.655   6.621 -0.2103 -0.7965  0.0622
  295MOL0     C39712   2.549  11.789   6.554 -0.5360  0.1575  0.4095
  295MOL0     C39713   2.691  11.785   6.493  0.1324 -0.6050 -0.2406
  295MOL0     O39714   2.721  11.658   6.446  0.3263 -0.0198 -0.1506
  295MOL0     C39715   2.844  11.650   6.394  0.1487 -0.3996  0.1637
  295MOL0     C39716   2.953  11.741   6.399 -0.0228 -0.3398 -0.2443
  295MOL0     C39717   3.073  11.715   6.330 -0.2017 -0.0270  0.7833
  295MOL0     C39718   3.185  11.814   6.345 -0.7109 -0.0952 -0.0831
  295MOL0     C39719   3.079  11.603   6.235 -1.3198 -1.0229  0.4453
  295MOL0     C39720   3.196  11.576   6.136 -0.3998 -0.2196  0.5864
  295MOL0     O39721   3.181  11.453   6.072  0.5476 -0.0250  0.0325
  295MOL0     C39722   3.277  11.403   5.979  0.1639  1.2435  0.8232
  295MOL0     C39723   3.345  11.470   5.882  0.5355 -0.0832 -0.0543
  295MOL0     C39724   3.445  11.399   5.813  0.1358  1.1222  0.0088
  295MOL0     C39725   3.493  11.273   5.851  0.4045 -0.5803 -1.0623
  295MOL0     O39726   3.601  11.211   5.798  0.6285 -0.1914  0.1143
  295MOL0     C39727   3.679  11.276   5.700  0.2705  0.5890 -0.6974
  295MOL0     C39728   3.805  11.196   5.662 -0.1000  0.2341  0.7984
  295MOL0     C39729   3.752  11.061   5.596  0.2463 -0.4158 -0.5376
  295MOL0     C39730   3.871  10.979   5.552 -0.1837 -0.4669 -0.2642
  295MOL0     C39731   3.835  10.857   5.457  0.6046 -0.3243 -0.2601
  295MOL0     C39732   3.980  10.809   5.404 -0.0984 -0.2715  0.5832
  295MOL0     C39733   3.987  10.653   5.378 -0.0087  0.5958  0.1982
  295MOL0     C39734   3.908  10.630   5.242 -0.6345  0.0416 -0.3091
  295MOL0    Cl39735   4.002  10.675   5.104 -0.1380  0.5126 -0.1411
  295MOL0     C39736   3.422  11.212   5.955  0.1504  0.5468  1.2580
  295MOL0     C39737   3.315  11.273   6.015  0.0811  0.2448  0.0534
  295MOL0     O39738   3.285  11.658   6.120  0.5667  0.0610  0.9238
  295MOL0     C39739   2.973  11.514   6.231  0.4459 -0.3473  0.4704
  295MOL0     C39740   2.863  11.534   6.317 -0.6365  0.2049  0.8457
  295MOL0     N39741   2.715  11.775   6.883  0.0582  0.2000 -0.5641
  295MOL0     N39742   2.844  11.770   6.893  0.5466 -0.1451  0.8270
  295MOL0     C39743   3.674  11.140   7.564 -0.4786 -0.5855 -0.4022
  295MOL0     C39744   3.789  11.082   7.622  0.6348  0.3493 -0.4861
  295MOL0     C39745   4.188  11.000   7.805  0.7284  0.1243 -0.4436
  295MOL0     C39746   4.310  10.960   7.743 -0.1895 -0.4819  0.4388
  295MOL0     C39747   4.422  10.923   7.825  0.9683 -0.0854  0.2188
  295MOL0     C39748   4.419  10.919   7.958 -0.2657  0.7281 -0.5447
  295MOL0     O39749   4.518  10.874   8.039 -0.7778 -1.1229  0.7008
  295MOL0     C39750   4.640  10.842   7.976 -0.0969  0.2435  0.9216
  295MOL0     C39751   4.741  10.781   8.075  0.6035 -0.5725 -0.6665
  295MOL0     C39752   4.802  10.895   8.153  0.1214  0.4397 -0.6093
  295MOL0     C39753   4.899  10.826   8.247 -1.1216  0.3861  0.1119
  295MOL0     C39754   4.848  10.784   8.378 -0.1264  0.1277  1.3565
  295MOL0     C39755   4.813  10.744   8.491 -0.3613 -0.2580 -0.4593
  295MOL0     C39756   4.297  10.952   8.018  0.5343 -0.6511 -0.3259
  295MOL0     C39757   4.185  10.988   7.951 -0.2719  0.2943 -0.8132
  295MOL0     H39758   3.821  11.297   7.890  3.9060 -1.0543 -1.1513
  295MOL0     H39759   3.640  11.405   7.779 -0.0045  0.8296 -1.9378
  295MOL0     H39760   3.489  11.257   7.391  2.2465  1.1550  1.0729
  295MOL0     H39761   3.395  11.146   7.499  0.0155  0.0159 -0.8004
  295MOL0     H39762   3.211  11.314   7.498  1.2893 -2.4476  2.4830
  295MOL0     H39763   3.319  11.443   7.444 -2.6242  0.1510 -1.5298
  295MOL0     H39764   3.348  11.280   7.233 -0.4171 -1.2630  0.2982
  295MOL0     H39765   3.202  11.207   7.288 -0.8542  0.7568  1.9215
  295MOL0     H39766   3.066  11.401   7.276 -0.2386 -0.6112 -0.1447
  295MOL0     H39767   3.200  11.511   7.261 -1.7532  1.2349 -1.6637
  295MOL0     H39768   3.250  11.403   7.027 -0.0355 -4.2228  0.9121
  295MOL0     H39769   3.098  11.320   7.047  0.1885 -0.5874 -1.7348
  295MOL0     H39770   2.982  11.545   7.054  0.6988  2.3045 -0.6488
  295MOL0     H39771   3.144  11.625   7.049  1.9763 -0.8828 -1.3060
  295MOL0     H39772   3.195  11.519   6.831 -0.8458  3.8473 -3.8476
  295MOL0     H39773   3.028  11.443   6.829  1.0393 -0.8084  0.1438
  295MOL0     H39774   3.080  11.649   6.687  2.1750  0.8043  0.3280
  295MOL0     H39775   3.091  11.740   6.837 -1.0273  1.7649 -1.5114
  295MOL0     H39776   2.797  11.525   6.677 -2.9566 -0.5898 -0.4241
  295MOL0     H39777   2.522  11.520   6.788  2.2272  0.0901 -1.6818
  295MOL0     H39778   2.464  11.682   6.838 -0.8557 -2.0087  1.8763
  295MOL0     H39779   2.395  11.672   6.631 -0.6439 -2.2679 -1.5948
  295MOL0     H39780   2.535  11.561   6.575 -1.3581 -1.5004  0.6411
  295MOL0     H39781   2.524  11.871   6.622  0.0518  1.2168 -0.6100
  295MOL0     H39782   2.498  11.816   6.461  0.8760  1.8544  0.0676
  295MOL0     H39783   2.767  11.812   6.567 -0.5026  0.2476  0.1170
  295MOL0     H39784   2.713  11.859   6.416  2.6002 -0.5429  0.4476
  295MOL0     H39785   2.947  11.828   6.463 -0.1535 -1.2996  1.0852
  295MOL0     H39786   3.167  11.864   6.441 -1.1506 -0.3359 -0.0362
  295MOL0     H39787   3.286  11.771   6.344 -0.6428 -0.0252 -2.7184
  295MOL0     H39788   3.183  11.888   6.265 -1.1459  0.3171  0.3020
  295MOL0     H39789   3.336  11.578   5.874  1.0866 -0.0488 -0.2319
  295MOL0     H39790   3.506  11.457   5.744  4.6745 -1.7931  1.1520
  295MOL0     H39791   3.616  11.302   5.614 -3.4205  2.0552  2.1514
  295MOL0     H39792   3.706  11.375   5.739  0.0669  1.2541 -2.1509
  295MOL0     H39793   3.871  11.254   5.596  1.3888 -1.8995  0.2993
  295MOL0     H39794   3.874  11.161   5.739  1.3349 -0.7394 -0.8492
  295MOL0     H39795   3.698  11.089   5.506  1.9985 -0.3186 -1.6006
  295MOL0     H39796   3.679  11.018   5.666  0.1585 -0.1471 -0.4623
  295MOL0     H39797   3.926  11.048   5.487 -0.6105  0.9011  0.7676
  295MOL0     H39798   3.923  10.945   5.642  0.7958 -1.0060 -1.0140
  295MOL0     H39799   3.778  10.889   5.369  2.3078  2.4013 -0.4909
  295MOL0     H39800   3.788  10.780   5.518  0.3617  1.6232  2.1422
  295MOL0     H39801   4.002  10.861   5.310 -2.2782  3.9484  2.1720
  295MOL0     H39802   4.065  10.827   5.470  2.6150  1.9065 -3.1214
  295MOL0     H39803   3.936  10.596   5.457  1.8077 -2.2246 -0.4956
  295MOL0     H39804   4.085  10.604   5.382  1.6479  3.5164 -1.2969
  295MOL0     H39805   3.821  10.696   5.239 -1.3473 -0.3275  4.7713
  295MOL0     H39806   3.873  10.528   5.225 -0.1503  0.1669 -2.3666
  295MOL0     H39807   3.445  11.112   5.991 -1.5347 -0.3046  0.1221
  295MOL0     H39808   3.272  11.227   6.104 -2.7431 -1.0226 -1.8077
  295MOL0     H39809   2.970  11.441   6.150 -1.8287 -1.9542  1.8770
  295MOL0     H39810   2.779  11.466   6.322  1.6900 -2.7844  3.3807
  295MOL0     H39811   3.627  11.096   7.477 -1.6797  0.8463 -0.5055
  295MOL0     H39812   3.810  10.984   7.582 -2.7022  0.4925 -3.0447
  295MOL0     H39813   4.315  10.946   7.636  0.3097  1.0965  0.2337
  295MOL0     H39814   4.509  10.889   7.770 -0.5056 -0.5645 -1.9434
  295MOL0     H39815   4.629  10.775   7.890 -0.7301  1.9401 -0.3725
  295MOL0     H39816   4.687  10.927   7.926 -0.5071 -0.2572 -0.3727
  295MOL0     H39817   4.817  10.730   8.015 -1.3116 -1.8225 -2.2050
  295MOL0     H39818   4.692  10.704   8.136  0.7363  0.5447  0.9081
  295MOL0     H39819   4.724  10.951   8.205 -0.8701 -2.1427  0.8646
  295MOL0     H39820   4.849  10.969   8.086  3.8941  0.1442  1.4411
  295MOL0     H39821   4.975  10.901   8.271  2.6953 -3.6536  1.8882
  295MOL0     H39822   4.956  10.743   8.206 -2.8355 -0.4627 -0.6543
  295MOL0     H39823   4.790  10.710   8.590 -0.8342 -2.1169 -1.1574
  295MOL0     H39824   4.292  10.938   8.126  3.1070 -0.7350 -0.1461
  295MOL0     H39825   4.097  11.003   8.013  0.6356 -0.8842  0.8489
  296MOL0     O39826   8.228   6.980  10.834 -0.4353  0.2896  0.5240
  296MOL0     C39827   8.199   7.069  10.760 -0.4078  0.1936 -0.5860
  296MOL0     O39828   8.282   7.124  10.666  0.4052 -0.4179 -0.3685
  296MOL0     C39829   8.406   7.070  10.641 -0.6421  0.2795 -0.4025
  296MOL0     C39830   8.502   7.062  10.745 -0.1934 -0.1298 -0.1395
  296MOL0     C39831   8.631   7.005  10.724 -0.0169  0.4689 -0.4461
  296MOL0     C39832   8.671   6.953  10.600 -0.0365 -0.2890  0.1659
  296MOL0     O39833   8.784   6.885  10.568 -0.4702 -0.4994  0.0034
  296MOL0     C39834   8.852   6.825  10.682 -0.1270  0.7490  0.7163
  296MOL0     C39835   8.995   6.784  10.634 -0.1424 -0.8514 -0.2091
  296MOL0     C39836   8.991   6.657  10.551 -0.3005  0.1372 -0.1375
  296MOL0     C39837   9.101   6.655  10.441  0.6155  1.2250  0.0101
  296MOL0     C39838   9.064   6.555  10.327  0.0362  1.4466  0.5492
  296MOL0     C39839   9.070   6.410  10.381 -0.1589 -0.6727 -0.3198
  296MOL0     C39840   9.044   6.306  10.261 -0.4225  0.1369 -0.9490
  296MOL0     C39841   8.904   6.297  10.202  1.0531  0.5820  0.9626
  296MOL0     N39842   8.829   6.233  10.309 -0.0771 -0.2728 -0.3968
  296MOL0     C39843   8.718   6.286  10.371  0.6457 -0.2161  0.4413
  296MOL0     C39844   8.646   6.185  10.429 -0.6680  0.6160  0.1256
  296MOL0     C39845   8.517   6.208  10.507 -0.4600  0.6042 -0.0246
  296MOL0     C39846   8.407   6.115  10.471  0.1644  1.0619  0.5490
  296MOL0     C39847   8.312   6.149  10.352  1.0156  0.1517 -0.3651
  296MOL0     C39848   8.205   6.034  10.339 -0.5574  0.0546 -0.0991
  296MOL0     O39849   8.118   6.062  10.227 -0.1447  0.6476 -0.7292
  296MOL0     C39850   7.998   5.994  10.217 -0.3063  0.8221 -0.4746
  296MOL0     C39851   7.949   5.981  10.092  0.2206  0.2369  0.6586
  296MOL0     C39852   7.822   5.915  10.080 -0.3029  1.1260  0.6390
  296MOL0     C39853   7.770   5.902   9.941 -0.4938 -1.0358 -0.3996
  296MOL0     C39854   7.741   5.878  10.189  0.0922  0.1771 -1.2776
  296MOL0     C39855   7.602   5.808  10.187 -1.4814  1.2471 -0.3537
  296MOL0     O39856   7.550   5.773  10.314  0.1752  0.0039 -0.2260
  296MOL0     C39857   7.428   5.714  10.331  0.2470  0.2256  0.1235
  296MOL0     C39858   7.356   5.650  10.235  0.4008  0.3563  0.3218
  296MOL0     C39859   7.243   5.572  10.267 -0.1918  0.6679 -0.1423
  296MOL0     C39860   7.194   5.575  10.402  0.5998  0.6751 -0.7386
  296MOL0     O39861   7.073   5.518  10.435 -0.0154 -0.3630  1.0646
  296MOL0     C39862   7.064   5.416  10.540  0.2264  0.3030 -0.2584
  296MOL0     C39863   7.018   5.270  10.478 -0.0764 -0.1841 -0.1213
  296MOL0     C39864   7.042   5.141  10.569  0.2753  0.0493 -0.2751
  296MOL0     C39865   6.999   5.159  10.715 -0.5143  0.3149  0.3516
  296MOL0     C39866   6.852   5.161  10.719 -0.0564  0.1413  0.1340
  296MOL0     C39867   6.799   5.187  10.862 -0.4609  0.6130 -0.7954
  296MOL0     C39868   6.645   5.203  10.865 -0.3588 -0.2312 -0.9373
  296MOL0     C39869   6.612   5.275  10.998  0.4081  0.9827 -0.1093
  296MOL0    Cl39870   6.689   5.198  11.133 -0.4975  0.0389 -0.0005
  296MOL0     C39871   7.259   5.646  10.504  1.1272  0.3997  0.0073
  296MOL0     C39872   7.375   5.711  10.460  0.9698 -0.0527  0.6731
  296MOL0     O39873   7.541   5.804  10.078 -0.1616  0.0694  0.5687
  296MOL0     C39874   7.813   5.879  10.314  0.8070  0.8053  1.1556
  296MOL0     C39875   7.937   5.937  10.323 -0.7897 -1.0565 -0.4420
  296MOL0     N39876   8.724   6.072  10.415 -0.4154  0.2755  0.4155
  296MOL0     N39877   8.828   6.102  10.342  0.2846 -0.1799 -0.5933
  296MOL0     C39878   8.577   6.970  10.491  0.2442 -0.3984  0.8944
  296MOL0     C39879   8.446   7.029  10.508  0.2117 -1.0567 -1.0005
  296MOL0     C39880   8.074   7.143  10.781  0.2737 -0.3265 -0.3645
  296MOL0     C39881   7.986   7.159  10.673  1.1999 -0.1517 -0.9285
  296MOL0     C39882   7.860   7.225  10.689  0.3387 -0.4039 -0.5786
  296MOL0     C39883   7.824   7.265  10.824  0.1645  0.8018 -0.0042
  296MOL0     O39884   7.705   7.318  10.872  0.1853 -0.3668  0.2334
  296MOL0     C39885   7.628   7.385  10.776  0.3641  0.3259  0.0341
  296MOL0     C39886   7.539   7.487  10.837 -0.0195 -0.0518  0.8152
  296MOL0     C39887   7.434   7.537  10.733  0.0046 -0.0479  0.2988
  296MOL0     C39888   7.331   7.441  10.672 -1.3164 -0.1893 -0.0199
  296MOL0     C39889   7.246   7.511  10.576 -0.4837 -0.7520  0.0200
  296MOL0     C39890   7.178   7.568  10.485  0.1542 -0.4483 -0.0608
  296MOL0     C39891   7.924   7.264  10.923  1.3233 -0.6530  0.0672
  296MOL0     C39892   8.046   7.198  10.904  0.4412 -0.1928 -0.0248
  296MOL0     H39893   8.474   7.112  10.836  0.6030  0.7377 -0.3562
  296MOL0     H39894   8.701   7.009  10.807 -0.3423 -1.1305 -0.0673
  296MOL0     H39895   8.865   6.897  10.763  2.2727  0.2564  0.8296
  296MOL0     H39896   8.803   6.734  10.718 -0.6762  0.9386  0.4686
  296MOL0     H39897   9.042   6.867  10.580 -2.5102  0.8999  0.2731
  296MOL0     H39898   9.058   6.772  10.723  0.4254  0.0052 -0.4822
  296MOL0     H39899   8.998   6.567  10.614 -0.0797  1.2508  1.4988
  296MOL0     H39900   8.897   6.651  10.496 -0.3248  0.1288 -0.0955
  296MOL0     H39901   9.107   6.755  10.398 -0.7143  0.8127 -1.2441
  296MOL0     H39902   9.199   6.628  10.480 -0.9713 -0.5595  3.1703
  296MOL0     H39903   8.961   6.574  10.297  0.8629  1.8302 -2.3165
  296MOL0     H39904   9.126   6.573  10.239 -2.2281  0.5905 -1.3369
  296MOL0     H39905   9.170   6.403  10.425 -0.2127  1.7172  0.3208
  296MOL0     H39906   8.991   6.412  10.457  0.7598  5.9021  1.1073
  296MOL0     H39907   9.107   6.326  10.173  0.8517 -1.2842 -0.4002
  296MOL0     H39908   9.067   6.208  10.304 -2.0926  0.6990  1.4254
  296MOL0     H39909   8.911   6.231  10.115 -1.6846  0.1924  0.9549
  296MOL0     H39910   8.867   6.399  10.187  1.6505  0.6421 -0.1736
  296MOL0     H39911   8.692   6.392  10.367 -0.8573 -0.4383  2.6509
  296MOL0     H39912   8.543   6.181  10.610 -0.4882 -2.8864 -0.8190
  296MOL0     H39913   8.496   6.315  10.502  2.3098  1.4088  2.3430
  296MOL0     H39914   8.353   6.086  10.562  0.7866 -0.3427  0.4998
  296MOL0     H39915   8.447   6.019  10.437 -3.1776 -0.2370 -0.0810
  296MOL0     H39916   8.377   6.163  10.265  1.6537  1.0057  0.2317
  296MOL0     H39917   8.253   6.241  10.356 -1.7631 -1.5547  0.6710
  296MOL0     H39918   8.139   6.047  10.426  1.3565  1.0073  1.2892
  296MOL0     H39919   8.235   5.929  10.347 -1.0834 -0.1895 -1.1489
  296MOL0     H39920   8.014   6.022  10.016 -1.2976  2.1135  0.3085
  296MOL0     H39921   7.855   5.920   9.874 -1.0238  0.3795 -0.7185
  296MOL0     H39922   7.752   5.796   9.923 -1.7788 -0.6770 -1.3484
  296MOL0     H39923   7.691   5.975   9.921  2.0780  2.8700  2.0490
  296MOL0     H39924   7.396   5.651  10.134  0.6206 -0.2053  0.3971
  296MOL0     H39925   7.188   5.514  10.193  1.2114 -0.3971 -0.3844
  296MOL0     H39926   7.163   5.408  10.586 -0.6053 -1.7284  1.3255
  296MOL0     H39927   6.996   5.464  10.611  0.2916  3.0545 -1.8770
  296MOL0     H39928   6.916   5.280  10.439  0.8709 -3.4097 -4.1408
  296MOL0     H39929   7.088   5.256  10.395  1.5624  2.4459  0.7295
  296MOL0     H39930   7.145   5.105  10.561  0.3773  0.6564 -2.3866
  296MOL0     H39931   6.981   5.059  10.530 -0.1292 -0.1085  0.6656
  296MOL0     H39932   7.029   5.068  10.768  2.7728 -0.6627 -2.7953
  296MOL0     H39933   7.040   5.245  10.768 -0.0799  0.2759  0.0857
  296MOL0     H39934   6.820   5.066  10.676 -1.3636  0.2867  0.7541
  296MOL0     H39935   6.826   5.247  10.656  2.0932 -0.0237 -1.1089
  296MOL0     H39936   6.825   5.106  10.931  0.2541  0.2073 -1.5154
  296MOL0     H39937   6.844   5.282  10.893  0.6506  0.1823 -1.0099
  296MOL0     H39938   6.615   5.098  10.872  2.6590 -1.1701 -0.5578
  296MOL0     H39939   6.621   5.258  10.774  0.4898 -1.3248 -1.8504
  296MOL0     H39940   6.504   5.267  11.012  0.3319 -1.9807 -1.4500
  296MOL0     H39941   6.642   5.379  10.989  0.4849  1.1958  2.0780
  296MOL0     H39942   7.211   5.651  10.601 -2.2130  1.2744 -1.5472
  296MOL0     H39943   7.432   5.764  10.536  2.1038 -0.8331  0.3910
  296MOL0     H39944   7.770   5.830  10.400  1.4070  2.5339  2.4893
  296MOL0     H39945   7.977   5.939  10.424 -1.8534  2.6708  0.0317
  296MOL0     H39946   8.606   6.923  10.397  0.3168  0.5585  0.4310
  296MOL0     H39947   8.369   7.038  10.432  0.2836  1.3427 -0.8531
  296MOL0     H39948   8.025   7.104  10.588  1.0944  0.2559 -1.2447
  296MOL0     H39949   7.792   7.226  10.604  0.6470 -2.9367 -0.9121
  296MOL0     H39950   7.683   7.432  10.693 -0.1819 -1.3576 -1.3591
  296MOL0     H39951   7.566   7.311  10.724  0.7384  0.8113 -1.1493
  296MOL0     H39952   7.607   7.568  10.866  1.1596 -0.5891 -0.3459
  296MOL0     H39953   7.490   7.458  10.930 -2.7197 -1.0615 -0.8011
  296MOL0     H39954   7.487   7.576  10.645 -1.4603 -3.0687 -2.0977
  296MOL0     H39955   7.375   7.617  10.777  1.3283  0.7089  0.7678
  296MOL0     H39956   7.278   7.384  10.749  1.0543 -1.7752  0.5770
  296MOL0     H39957   7.389   7.366  10.617 -1.4677 -1.2662  1.2315
  296MOL0     H39958   7.116   7.620  10.416 -1.6867 -3.2180 -0.6564
  296MOL0     H39959   7.902   7.316  11.016  2.6747 -2.8885  1.7507
  296MOL0     H39960   8.126   7.200  10.978 -0.5402  0.8878  1.0546
  297MOL0     O39961   4.554   2.308   6.694  0.7153 -0.4175 -0.6981
  297MOL0     C39962   4.616   2.223   6.628 -1.1664 -0.0350 -0.3234
  297MOL0     O39963   4.577   2.097   6.594 -0.0159  0.1715 -0.2002
  297MOL0     C39964   4.471   2.055   6.662  0.7617 -0.0173 -0.4821
  297MOL0     C39965   4.468   2.027   6.803 -0.7294 -0.2732 -0.4217
  297MOL0     C39966   4.345   1.998   6.868 -0.4068 -0.8342 -0.5770
  297MOL0     C39967   4.230   1.980   6.800 -0.6610 -0.0396  0.2712
  297MOL0     O39968   4.116   1.940   6.857 -0.3604  0.5561 -0.0268
  297MOL0     C39969   4.081   2.021   6.976 -0.8662 -0.3221 -1.6168
  297MOL0     C39970   4.096   1.930   7.101 -0.7023  0.4845 -0.4760
  297MOL0     C39971   4.012   1.799   7.084  0.7084 -0.1431 -0.0745
  297MOL0     C39972   3.869   1.836   7.079  0.4523  0.3377 -0.2570
  297MOL0     C39973   3.772   1.726   7.118  0.4996  0.1263 -0.0112
  297MOL0     C39974   3.758   1.715   7.268  0.0162  0.2853  0.1170
  297MOL0     C39975   3.652   1.621   7.314  0.9648 -0.0615  0.6417
  297MOL0     C39976   3.598   1.659   7.447 -0.1522  0.0147  0.1513
  297MOL0     N39977   3.517   1.787   7.450  1.0492 -0.3753 -0.1583
  297MOL0     C39978   3.469   1.855   7.561 -0.9984  0.7933  1.0112
  297MOL0     C39979   3.358   1.920   7.536  0.2776  0.2518  0.2199
  297MOL0     C39980   3.279   1.999   7.643 -0.6211  0.6378 -0.5108
  297MOL0     C39981   3.129   1.989   7.602 -0.3081  0.0708 -0.1251
  297MOL0     C39982   3.057   2.111   7.643  0.0416 -0.6665  0.7780
  297MOL0     C39983   3.045   2.136   7.791 -0.6865 -0.1631  0.3552
  297MOL0     O39984   2.905   2.168   7.832  0.3523 -0.1639 -0.1603
  297MOL0     C39985   2.826   2.054   7.866  0.0920  0.1608 -0.4036
  297MOL0     C39986   2.862   1.920   7.845 -0.2591  0.2742  1.3989
  297MOL0     C39987   2.767   1.816   7.858  0.1192 -0.1772  1.0220
  297MOL0     C39988   2.813   1.671   7.821 -0.2655  0.0058  0.1266
  297MOL0     C39989   2.634   1.852   7.905  0.0515  0.8451  0.2441
  297MOL0     C39990   2.519   1.757   7.922 -0.4020 -0.1359  0.5162
  297MOL0     O39991   2.399   1.823   7.940  0.9023  0.0613 -0.5910
  297MOL0     C39992   2.290   1.745   7.939 -0.0261 -0.1843  0.6771
  297MOL0     C39993   2.198   1.751   8.051  0.1645  0.2815  0.1582
  297MOL0     C39994   2.084   1.670   8.065  0.1462 -0.9604  0.3322
  297MOL0     C39995   2.040   1.595   7.947 -0.2638 -0.1521  0.0217
  297MOL0     O39996   1.923   1.524   7.957  0.1983  0.3119  1.2490
  297MOL0     C39997   1.882   1.416   7.876  0.2987  0.1554 -0.2993
  297MOL0     C39998   1.741   1.361   7.907 -0.0546 -0.7679 -0.0384
  297MOL0     C39999   1.636   1.438   7.829  0.0162  0.3659  0.5908
  297MOL0     C40000   1.496   1.413   7.871  0.0181 -0.0400  0.3796
  297MOL0     C40001   1.449   1.275   7.836  0.1992 -0.1667 -0.6931
  297MOL0     C40002   1.310   1.239   7.882 -0.3289  0.0937 -0.9412
  297MOL0     C40003   1.246   1.115   7.820 -0.3074  0.3857  0.4983
  297MOL0     C40004   1.125   1.051   7.905  0.2375 -0.0798  0.4799
  297MOL0    Cl40005   0.988   1.171   7.888  0.1414  0.0105  0.6493
  297MOL0     C40006   2.125   1.597   7.840 -0.6041  0.6488 -0.1172
  297MOL0     C40007   2.247   1.666   7.832 -0.0637  0.8712 -0.7392
  297MOL0     O40008   2.530   1.634   7.918  0.2453 -0.1158 -1.1129
  297MOL0     C40009   2.606   1.991   7.920  0.0252 -0.3617 -0.4123
  297MOL0     C40010   2.698   2.090   7.905 -0.8023  0.6111 -0.2312
  297MOL0     N40011   3.342   1.909   7.405 -0.4400  0.0967  0.4032
  297MOL0     N40012   3.434   1.838   7.356 -0.3681  0.1911  0.3446
  297MOL0     C40013   4.235   1.985   6.654  0.4723 -0.1487  0.4330
  297MOL0     C40014   4.356   2.037   6.586  0.0457 -0.2515  0.5819
  297MOL0     C40015   4.748   2.272   6.582 -0.6770 -0.7177 -0.8889
  297MOL0     C40016   4.855   2.187   6.517  0.5334 -0.0964 -1.1775
  297MOL0     C40017   4.980   2.248   6.485 -0.4940 -0.2058 -0.0578
  297MOL0     C40018   4.996   2.383   6.493 -0.8266 -0.2249  0.1048
  297MOL0     O40019   5.125   2.429   6.466 -0.1039  0.1600  0.4126
  297MOL0     C40020   5.210   2.426   6.578 -0.4196  0.1444 -0.6730
  297MOL0     C40021   5.207   2.559   6.653 -0.5433 -1.0840  0.0933
  297MOL0     C40022   5.329   2.582   6.738  0.8870  1.5978  0.6142
  297MOL0     C40023   5.325   2.714   6.810 -0.1178 -0.2159 -0.2985
  297MOL0     C40024   5.453   2.731   6.880  0.1957  0.1944 -0.2251
  297MOL0     C40025   5.560   2.753   6.936  0.0900  0.6458  0.3470
  297MOL0     C40026   4.895   2.461   6.547  0.2815 -0.2006  0.8031
  297MOL0     C40027   4.782   2.407   6.600 -0.6828  0.0764 -0.3480
  297MOL0     H40028   4.554   2.030   6.869 -0.9237  0.4888 -0.1978
  297MOL0     H40029   4.339   1.981   6.975 -1.3167 -0.6478 -0.5929
  297MOL0     H40030   4.135   2.115   6.984 -0.0377 -0.9380  1.3856
  297MOL0     H40031   3.974   2.045   6.978 -0.5462  1.1313  0.4551
  297MOL0     H40032   4.199   1.898   7.121 -1.0592 -1.4999 -1.5869
  297MOL0     H40033   4.066   1.990   7.188  0.4358  2.8208 -1.6073
  297MOL0     H40034   4.030   1.734   6.998  0.8988  0.3382 -0.4039
  297MOL0     H40035   4.022   1.751   7.181  0.4047  0.5628  0.3152
  297MOL0     H40036   3.854   1.924   7.142 -1.2870 -1.0299  1.3662
  297MOL0     H40037   3.846   1.856   6.974  0.8085 -4.0256 -1.3796
  297MOL0     H40038   3.676   1.744   7.069  1.3261 -2.4885 -2.9421
  297MOL0     H40039   3.813   1.630   7.086  0.4877 -0.9224  2.8501
  297MOL0     H40040   3.843   1.670   7.319  0.3880 -0.4574 -1.1142
  297MOL0     H40041   3.742   1.818   7.302 -0.9744  1.2352 -2.8495
  297MOL0     H40042   3.567   1.630   7.246  1.2688 -0.6669  0.1725
  297MOL0     H40043   3.688   1.518   7.309 -2.1429 -1.2487  0.6689
  297MOL0     H40044   3.684   1.672   7.513 -0.3395  0.6989  0.2647
  297MOL0     H40045   3.533   1.578   7.482 -2.3412  1.1246 -1.1140
  297MOL0     H40046   3.514   1.831   7.657 -1.0346 -0.1841  0.7997
  297MOL0     H40047   3.296   1.955   7.742 -0.5429  3.7021  0.9272
  297MOL0     H40048   3.322   2.099   7.634  2.2100 -0.5451 -1.4490
  297MOL0     H40049   3.083   1.906   7.656  0.8690  0.5409  1.6626
  297MOL0     H40050   3.121   1.977   7.493  0.8429 -4.7769  0.1107
  297MOL0     H40051   2.962   2.100   7.589  0.0648 -2.1909  0.9988
  297MOL0     H40052   3.103   2.198   7.597  0.2656 -0.7391  0.8646
  297MOL0     H40053   3.102   2.220   7.831 -1.3560  0.2011  0.5609
  297MOL0     H40054   3.083   2.050   7.848 -2.3597 -0.2977  1.3192
  297MOL0     H40055   2.962   1.894   7.810  0.1906  0.1577  2.7038
  297MOL0     H40056   2.894   1.688   7.750 -0.2118  0.6190  0.3244
  297MOL0     H40057   2.870   1.616   7.897  0.0984  0.4526  0.1809
  297MOL0     H40058   2.731   1.606   7.789  0.8977 -1.6629  0.4140
  297MOL0     H40059   2.215   1.820   8.132 -1.4952  1.4502 -0.4239
  297MOL0     H40060   2.026   1.663   8.156 -1.9057  0.9992 -0.7414
  297MOL0     H40061   1.898   1.441   7.770 -1.7147  2.4351 -0.1392
  297MOL0     H40062   1.949   1.330   7.891  1.0211  0.6724 -0.5254
  297MOL0     H40063   1.735   1.254   7.885  1.8069 -0.6987 -1.1371
  297MOL0     H40064   1.725   1.371   8.014 -1.6160 -4.0394  0.1574
  297MOL0     H40065   1.659   1.409   7.726  2.0210  0.7916  0.8767
  297MOL0     H40066   1.658   1.543   7.851 -0.8061  0.4842  0.8888
  297MOL0     H40067   1.473   1.426   7.977 -2.2903 -3.4941  0.4639
  297MOL0     H40068   1.434   1.494   7.830 -0.2565 -0.0948  0.6791
  297MOL0     H40069   1.517   1.207   7.888  1.9701  1.4594 -0.7597
  297MOL0     H40070   1.455   1.252   7.729 -2.1161 -5.0084 -0.0312
  297MOL0     H40071   1.317   1.221   7.990 -2.8594  1.5874 -0.4528
  297MOL0     H40072   1.252   1.331   7.879  0.9544  0.9315 -1.1734
  297MOL0     H40073   1.329   1.043   7.819  0.6285  1.3002  3.1131
  297MOL0     H40074   1.217   1.132   7.716  0.1391  0.0715  0.3149
  297MOL0     H40075   1.151   1.038   8.010  1.4201 -0.0093  0.2115
  297MOL0     H40076   1.105   0.957   7.853 -1.2878 -0.8344  2.2958
  297MOL0     H40077   2.091   1.536   7.756 -2.0416  1.6251 -0.2841
  297MOL0     H40078   2.316   1.655   7.748 -0.8674 -0.2510 -1.2717
  297MOL0     H40079   2.506   2.022   7.947  0.2226 -0.2100  0.1715
  297MOL0     H40080   2.676   2.196   7.903 -0.8269  0.6458 -3.2898
  297MOL0     H40081   4.154   1.952   6.591  0.0719  0.3138  0.6968
  297MOL0     H40082   4.362   2.063   6.481  3.1684  2.2724  1.2165
  297MOL0     H40083   4.826   2.083   6.517 -1.0648  0.1955  2.1049
  297MOL0     H40084   5.058   2.188   6.439 -0.1109 -1.1619  1.7527
  297MOL0     H40085   5.190   2.340   6.643 -0.9352  2.0864  1.9077
  297MOL0     H40086   5.317   2.415   6.555  0.5273  0.9910  2.6519
  297MOL0     H40087   5.113   2.574   6.707 -0.2298  3.0580 -0.1743
  297MOL0     H40088   5.201   2.649   6.591 -1.7176 -1.4636 -0.3840
  297MOL0     H40089   5.423   2.573   6.684  0.7705  2.1240  0.3223
  297MOL0     H40090   5.329   2.498   6.809  1.2448  1.9718  1.0597
  297MOL0     H40091   5.239   2.710   6.878 -0.4628 -0.2987 -0.7352
  297MOL0     H40092   5.313   2.798   6.742 -0.6006  0.0719  0.1343
  297MOL0     H40093   5.651   2.746   6.992 -0.9638  1.1160  2.1945
  297MOL0     H40094   4.918   2.567   6.548 -1.2711  0.2165 -1.1743
  297MOL0     H40095   4.706   2.477   6.635  1.2807  1.9220  0.3881
  298MOL0     O40096  11.375   8.790   8.342  0.2170  0.3136  0.3897
  298MOL0     C40097  11.316   8.700   8.280 -0.8508 -0.0376 -0.1437
  298MOL0     O40098  11.186   8.676   8.270  0.2261  0.5589  0.9157
  298MOL0     C40099  11.087   8.723   8.345  0.5044 -0.6639 -0.4026
  298MOL0     C40100  10.973   8.646   8.361 -0.2020 -0.2222  0.3408
  298MOL0     C40101  10.866   8.696   8.440 -0.7451  0.1030 -0.9279
  298MOL0     C40102  10.876   8.819   8.499 -0.1172  0.5987 -0.1138
  298MOL0     O40103  10.775   8.875   8.570 -0.0213 -0.0639 -0.0082
  298MOL0     C40104  10.649   8.804   8.578  0.4928  0.5958  0.5097
  298MOL0     C40105  10.546   8.877   8.663  0.1011  0.1559  0.8342
  298MOL0     C40106  10.577   8.871   8.817  0.1195  0.3779  0.0059
  298MOL0     C40107  10.466   8.937   8.897 -0.8680  0.3174  0.1884
  298MOL0     C40108  10.476   8.892   9.043 -0.1034  0.0500 -0.0558
  298MOL0     C40109  10.365   8.968   9.109  0.0550  0.3786 -0.6966
  298MOL0     C40110  10.353   8.920   9.258 -0.3197 -0.4816  0.4319
  298MOL0     C40111  10.236   8.985   9.331  0.5760 -0.1935  0.2634
  298MOL0     N40112  10.100   8.919   9.308  0.0486 -0.1121  0.1113
  298MOL0     C40113  10.048   8.810   9.380 -0.3558  0.4878 -0.3928
  298MOL0     C40114   9.916   8.813   9.359 -0.6980 -0.9669 -0.0900
  298MOL0     C40115   9.805   8.731   9.412 -0.2009 -0.3400 -0.5823
  298MOL0     C40116   9.788   8.750   9.564 -0.5946 -0.7675  0.5474
  298MOL0     C40117   9.656   8.685   9.607 -0.2574  0.4711 -0.3573
  298MOL0     C40118   9.668   8.575   9.711  0.3521  0.8344  0.0550
  298MOL0     O40119   9.764   8.612   9.810 -0.2842 -0.5006 -0.3031
  298MOL0     C40120   9.843   8.503   9.863  0.4021 -1.0084 -0.4789
  298MOL0     C40121   9.977   8.478   9.830 -0.3351 -0.7333 -0.5429
  298MOL0     C40122  10.052   8.377   9.885  0.2855  0.6957  0.4229
  298MOL0     C40123  10.192   8.358   9.843  0.0312  0.0220  0.0593
  298MOL0     C40124   9.990   8.291   9.984 -0.5297 -0.4668  0.3012
  298MOL0     C40125  10.055   8.173  10.045  0.0446  0.2159  0.3067
  298MOL0     O40126  10.031   8.151  10.178  0.0309 -0.3636 -0.3126
  298MOL0     C40127  10.111   8.058  10.240  0.8526 -0.1890  0.7193
  298MOL0     C40128  10.244   8.060  10.241 -0.1687 -0.2571  0.7139
  298MOL0     C40129  10.316   7.960  10.298 -0.4365 -0.0485 -1.2822
  298MOL0     C40130  10.257   7.859  10.372 -0.1202 -0.4656 -0.1115
  298MOL0     O40131  10.339   7.761  10.418 -0.4087  0.8462 -0.3001
  298MOL0     C40132  10.287   7.635  10.473  0.2848 -0.4659  0.0438
  298MOL0     C40133  10.261   7.645  10.624  0.0235  0.5111  0.3036
  298MOL0     C40134  10.384   7.678  10.704 -0.3126 -0.6286  0.0904
  298MOL0     C40135  10.360   7.635  10.851  0.1101  0.4197 -0.1536
  298MOL0     C40136  10.465   7.700  10.939  0.1191 -0.3903 -0.7186
  298MOL0     C40137  10.445   7.648  11.082 -0.8507 -0.7303 -1.0829
  298MOL0     C40138  10.549   7.684  11.181 -0.3243 -0.5322 -0.0391
  298MOL0     C40139  10.538   7.613  11.313 -0.0432  0.5525  0.5601
  298MOL0    Cl40140  10.653   7.682  11.439 -0.1274  0.1289 -0.3146
  298MOL0     C40141  10.116   7.863  10.380 -0.0972 -0.0416 -0.1311
  298MOL0     C40142  10.039   7.964  10.317  0.4328  0.1201  0.1692
  298MOL0     O40143  10.123   8.100   9.972  0.1741  0.1051  0.5973
  298MOL0     C40144   9.857   8.320  10.027 -0.0492 -0.2127  0.2287
  298MOL0     C40145   9.792   8.423   9.960  0.2784  0.5304 -1.1206
  298MOL0     N40146   9.892   8.905   9.253 -0.5921  0.0229  0.3297
  298MOL0     N40147  10.001   8.976   9.228 -0.0193  0.4610  0.0894
  298MOL0     C40148  10.988   8.904   8.490 -0.6463 -0.7372 -0.0110
  298MOL0     C40149  11.093   8.850   8.411  0.4759  0.1671  0.8786
  298MOL0     C40150  11.405   8.607   8.201 -0.0738 -0.5355  0.7524
  298MOL0     C40151  11.535   8.648   8.172  1.0333 -0.4223  0.2783
  298MOL0     C40152  11.622   8.568   8.098 -0.5162  0.1667 -0.7659
  298MOL0     C40153  11.582   8.445   8.043 -0.5298  0.6227  0.4713
  298MOL0     O40154  11.661   8.365   7.964 -0.0341 -0.2310 -0.7829
  298MOL0     C40155  11.798   8.407   7.955  0.8692 -0.4479  0.3736
  298MOL0     C40156  11.875   8.315   7.867 -0.9450  0.6129 -0.8010
  298MOL0     C40157  12.029   8.303   7.870 -0.0222  0.5248  0.3639
  298MOL0     C40158  12.086   8.197   7.764  0.3425  0.4452  0.2889
  298MOL0     C40159  12.096   8.265   7.635 -0.0821 -0.6816 -0.7326
  298MOL0     C40160  12.121   8.335   7.532  0.2478  0.9787  0.0482
  298MOL0     C40161  11.450   8.401   8.070  0.8331 -0.7980 -0.2348
  298MOL0     C40162  11.365   8.485   8.156  0.0840 -0.2362  0.3247
  298MOL0     H40163  10.979   8.549   8.312  3.7750  0.6610 -1.3122
  298MOL0     H40164  10.789   8.623   8.462  1.2477 -2.9915 -3.3472
  298MOL0     H40165  10.612   8.801   8.476 -0.2059 -0.8023  0.7894
  298MOL0     H40166  10.659   8.705   8.623 -3.4351  0.6043  1.7682
  298MOL0     H40167  10.548   8.981   8.629 -0.8369 -0.0250  0.2085
  298MOL0     H40168  10.452   8.828   8.639  2.2218 -3.4376 -0.9528
  298MOL0     H40169  10.578   8.765   8.843 -2.0045  0.7014  1.6144
  298MOL0     H40170  10.677   8.911   8.838  0.1312  1.8681 -2.4463
  298MOL0     H40171  10.477   9.044   8.878 -1.1666  0.5632  1.3720
  298MOL0     H40172  10.369   8.909   8.855 -1.3058  0.3789  1.1299
  298MOL0     H40173  10.454   8.785   9.054  1.2839 -0.2712 -0.1532
  298MOL0     H40174  10.576   8.911   9.084  0.3669 -2.8875  0.3675
  298MOL0     H40175  10.365   9.078   9.108 -2.1947  0.4564 -2.8472
  298MOL0     H40176  10.275   8.933   9.058 -0.7696 -2.1827  2.2356
  298MOL0     H40177  10.348   8.811   9.266  1.5381 -0.6424 -0.1598
  298MOL0     H40178  10.448   8.960   9.295 -1.7142  2.8340  0.7311
  298MOL0     H40179  10.233   9.088   9.295  1.5884 -0.5428 -0.8778
  298MOL0     H40180  10.252   8.979   9.439 -2.3808 -0.3829  0.7793
  298MOL0     H40181  10.091   8.745   9.455  2.1625  1.9215 -0.4774
  298MOL0     H40182   9.716   8.768   9.360 -0.0737 -0.9473 -1.2677
  298MOL0     H40183   9.829   8.629   9.380  1.7490 -0.1287  0.0777
  298MOL0     H40184   9.769   8.855   9.586 -2.2820 -0.7319 -0.8518
  298MOL0     H40185   9.879   8.720   9.617  1.8015  4.3441 -0.1386
  298MOL0     H40186   9.598   8.642   9.526 -1.3974 -4.0417  2.5072
  298MOL0     H40187   9.591   8.767   9.639 -0.2317  0.9620 -1.5345
  298MOL0     H40188   9.698   8.484   9.658 -0.5957  0.2653  0.4648
  298MOL0     H40189   9.566   8.552   9.744  0.2140 -1.3161 -1.6328
  298MOL0     H40190  10.017   8.534   9.746 -0.6057 -1.7458 -1.3714
  298MOL0     H40191  10.217   8.425   9.761  2.5132  0.0434  0.7525
  298MOL0     H40192  10.258   8.373   9.929 -1.4770 -0.4890  1.3580
  298MOL0     H40193  10.222   8.266   9.793  2.7600  1.5137 -1.2112
  298MOL0     H40194  10.298   8.138  10.188 -0.9021  0.7514  1.4189
  298MOL0     H40195  10.424   7.954  10.290 -0.2903  2.6592 -2.3247
  298MOL0     H40196  10.189   7.617  10.428 -0.8065  2.0653  1.2236
  298MOL0     H40197  10.347   7.545  10.454 -2.4749 -2.5908  0.7721
  298MOL0     H40198  10.191   7.729  10.633 -0.0902  0.2654  2.0438
  298MOL0     H40199  10.213   7.551  10.651  1.6549 -1.1203 -2.1130
  298MOL0     H40200  10.397   7.786  10.703  1.7171 -0.8084  1.1803
  298MOL0     H40201  10.478   7.630  10.672 -0.6102 -2.1593  1.3986
  298MOL0     H40202  10.263   7.673  10.884  0.4128  0.8078  0.2969
  298MOL0     H40203  10.352   7.527  10.866 -0.1989  0.4743  0.0957
  298MOL0     H40204  10.460   7.810  10.939  1.0703 -0.3240  0.1410
  298MOL0     H40205  10.563   7.665  10.904 -1.3456 -2.3951 -3.0775
  298MOL0     H40206  10.346   7.680  11.117 -0.9502 -1.2755 -0.8425
  298MOL0     H40207  10.426   7.540  11.090 -1.0608 -0.6876  6.6635
  298MOL0     H40208  10.563   7.792  11.195  0.5753 -0.7873  1.1609
  298MOL0     H40209  10.647   7.663  11.137 -0.1008 -0.0025  0.1927
  298MOL0     H40210  10.555   7.505  11.303  0.8021  0.6875  0.4661
  298MOL0     H40211  10.435   7.625  11.347 -0.7811 -1.1808 -0.9450
  298MOL0     H40212  10.069   7.777  10.426 -0.2078 -0.3476 -0.8126
  298MOL0     H40213   9.932   7.949  10.318  0.6271 -1.7854  2.5495
  298MOL0     H40214   9.794   8.258  10.089 -2.8150  1.2285 -0.9446
  298MOL0     H40215   9.690   8.441   9.992  1.0846  0.1164  1.9235
  298MOL0     H40216  11.001   8.994   8.549  2.5028  1.1611 -3.1979
  298MOL0     H40217  11.176   8.919   8.399 -0.3614  0.9088 -1.0115
  298MOL0     H40218  11.577   8.741   8.208  0.1844  0.6136 -1.2801
  298MOL0     H40219  11.723   8.608   8.089 -0.1019 -0.7374 -0.2255
  298MOL0     H40220  11.806   8.506   7.908  1.6067 -0.1157  1.1708
  298MOL0     H40221  11.849   8.424   8.050  2.6073  1.0505 -0.7565
  298MOL0     H40222  11.865   8.322   7.758  2.3022 -2.8141 -1.5297
  298MOL0     H40223  11.836   8.220   7.903 -1.9295  1.6433  0.9714
  298MOL0     H40224  12.063   8.260   7.964  1.8572  2.0071  0.4081
  298MOL0     H40225  12.071   8.404   7.865  1.7586 -0.2461 -1.9018
  298MOL0     H40226  12.016   8.114   7.750  1.8787 -0.5918 -1.8693
  298MOL0     H40227  12.184   8.156   7.788  1.3517  1.5411 -1.6664
  298MOL0     H40228  12.140   8.373   7.434  0.0329  0.4720 -0.1884
  298MOL0     H40229  11.401   8.306   8.049  0.8413 -1.1040  1.0328
  298MOL0     H40230  11.273   8.436   8.188  2.9814 -5.5374  1.7002
  299MOL0     O40231   2.609   3.509   4.431 -0.2149  0.2320  0.0895
  299MOL0     C40232   2.656   3.396   4.399  0.1044  0.5921 -0.3217
  299MOL0     O40233   2.586   3.284   4.374 -0.0338  0.1235 -0.0474
  299MOL0     C40234   2.450   3.281   4.380  0.8228  0.3655  0.0936
  299MOL0     C40235   2.370   3.336   4.478 -0.5768 -0.2783 -0.2911
  299MOL0     C40236   2.227   3.332   4.468  0.1424  0.1881 -0.0487
  299MOL0     C40237   2.155   3.268   4.362 -0.0698 -0.2225  0.3187
  299MOL0     O40238   2.020   3.243   4.356  0.9697  0.3428 -0.2573
  299MOL0     C40239   1.945   3.347   4.429 -0.5852 -0.0368  0.5492
  299MOL0     C40240   1.799   3.313   4.389  0.1318 -0.2025  0.2671
  299MOL0     C40241   1.764   3.354   4.249 -0.2969 -0.4923  0.3141
  299MOL0     C40242   1.617   3.340   4.224 -0.4904  0.2807 -0.0147
  299MOL0     C40243   1.578   3.399   4.094 -0.0331  0.2128  0.6939
  299MOL0     C40244   1.479   3.309   4.019 -0.2196 -0.0336  0.6583
  299MOL0     C40245   1.452   3.360   3.879 -0.9083 -0.2561  0.8942
  299MOL0     C40246   1.304   3.353   3.825 -0.0866  0.3557  0.4045
  299MOL0     N40247   1.291   3.415   3.693 -0.7258  0.1515 -0.6269
  299MOL0     C40248   1.306   3.355   3.574 -0.1911 -0.3948 -0.1615
  299MOL0     C40249   1.266   3.447   3.487  0.8314 -0.1742  0.4489
  299MOL0     C40250   1.273   3.441   3.339  0.4037 -0.2498 -0.2320
  299MOL0     C40251   1.125   3.435   3.283 -0.3334 -0.1522 -0.0718
  299MOL0     C40252   1.135   3.420   3.129  0.0994  0.7784  0.0140
  299MOL0     C40253   0.993   3.412   3.063  0.1227  0.0269 -0.0709
  299MOL0     O40254   1.017   3.420   2.924 -0.7029 -0.2902  0.7606
  299MOL0     C40255   0.903   3.417   2.836 -0.4955  1.0906 -0.2575
  299MOL0     C40256   0.921   3.368   2.710  0.6994  0.7851  0.4933
  299MOL0     C40257   0.819   3.373   2.610  0.6058  0.1954 -0.0203
  299MOL0     C40258   0.849   3.307   2.475  0.2578  0.1003  0.0920
  299MOL0     C40259   0.687   3.426   2.645 -0.5482 -0.7116 -0.1317
  299MOL0     C40260   0.571   3.436   2.552 -0.2392  0.0412 -1.3956
  299MOL0     O40261   0.473   3.525   2.594 -0.1663  0.4105  0.0668
  299MOL0     C40262   0.359   3.559   2.515 -1.0386  0.0863 -0.9295
  299MOL0     C40263   0.290   3.469   2.428  0.4637  0.0316 -0.0801
  299MOL0     C40264   0.189   3.513   2.346 -0.0124  0.1457 -0.4159
  299MOL0     C40265   0.145   3.645   2.361  0.2700  0.1237 -0.7282
  299MOL0     O40266   0.025   3.678   2.298 -0.3657  0.2462 -0.0734
  299MOL0     C40267  -0.028   3.814   2.296 -0.4496 -0.5060  0.0377
  299MOL0     C40268  -0.173   3.809   2.255  0.6501 -0.4305  0.1718
  299MOL0     C40269  -0.224   3.949   2.279 -0.4049 -0.1517  0.2780
  299MOL0     C40270  -0.380   3.957   2.261  0.0398  0.0995  0.2330
  299MOL0     C40271  -0.459   3.891   2.374 -0.4378 -0.4830 -0.5657
  299MOL0     C40272  -0.613   3.916   2.359 -0.0033  0.9418  0.1205
  299MOL0     C40273  -0.694   3.787   2.397  0.6047 -0.2667  0.4081
  299MOL0     C40274  -0.845   3.818   2.396  0.6382 -0.7596  1.3592
  299MOL0    Cl40275  -0.907   3.854   2.233  0.5303  0.1401 -0.6089
  299MOL0     C40276   0.216   3.741   2.440 -0.2999  0.1523 -0.4567
  299MOL0     C40277   0.326   3.689   2.517  0.4404 -0.6788  0.3669
  299MOL0     O40278   0.567   3.365   2.453  0.2193  0.1854 -0.0291
  299MOL0     C40279   0.670   3.463   2.778  0.1252  0.3853 -0.7779
  299MOL0     C40280   0.776   3.459   2.870  0.5530  0.0175 -0.3842
  299MOL0     N40281   1.229   3.565   3.558  0.4902  0.2897 -0.9343
  299MOL0     N40282   1.236   3.543   3.683 -0.8277 -0.5024  0.8943
  299MOL0     C40283   2.237   3.217   4.262 -0.2645  0.5687  0.2650
  299MOL0     C40284   2.384   3.218   4.273 -0.7029  0.2123  0.2296
  299MOL0     C40285   2.809   3.380   4.393 -0.4964 -0.3844 -0.3892
  299MOL0     C40286   2.864   3.273   4.318  0.5089  1.0811  0.3032
  299MOL0     C40287   3.001   3.254   4.308  0.6879 -0.4092 -0.3387
  299MOL0     C40288   3.084   3.359   4.353  0.8976 -0.8359 -0.6654
  299MOL0     O40289   3.217   3.361   4.333  0.1844 -0.4865  0.4581
  299MOL0     C40290   3.271   3.332   4.205  0.3779  0.0110  0.5806
  299MOL0     C40291   3.220   3.430   4.097  1.1003 -0.2573 -0.5047
  299MOL0     C40292   3.262   3.383   3.956 -0.6199 -0.1449  0.0406
  299MOL0     C40293   3.187   3.265   3.897 -0.1148  0.1635  0.0451
  299MOL0     C40294   3.039   3.281   3.898 -0.7532 -0.9396  0.0679
  299MOL0     C40295   2.919   3.288   3.883 -0.4413  0.1844 -0.4052
  299MOL0     C40296   3.041   3.467   4.425  0.3863  0.1718 -0.2736
  299MOL0     C40297   2.895   3.478   4.449 -0.0881 -0.0322  0.5812
  299MOL0     H40298   2.423   3.382   4.561 -0.7996  2.2785 -1.4780
  299MOL0     H40299   2.174   3.373   4.553  2.8114  0.7107  1.4580
  299MOL0     H40300   1.964   3.323   4.533  0.0851  0.7212  0.6066
  299MOL0     H40301   1.982   3.444   4.394  2.5393 -1.5739 -0.7420
  299MOL0     H40302   1.773   3.207   4.404 -3.4397  0.3778 -1.1269
  299MOL0     H40303   1.723   3.365   4.448  0.3913  0.2496  0.2044
  299MOL0     H40304   1.778   3.462   4.232 -1.6633 -0.3364  0.0900
  299MOL0     H40305   1.820   3.314   4.164 -1.2979  2.7947 -2.0913
  299MOL0     H40306   1.597   3.232   4.222  0.8014 -0.0119  1.0227
  299MOL0     H40307   1.561   3.391   4.303 -0.3105  0.9177 -0.2923
  299MOL0     H40308   1.526   3.492   4.115 -2.0823  0.1453 -3.0930
  299MOL0     H40309   1.658   3.431   4.027 -0.1304  0.4374  0.6849
  299MOL0     H40310   1.526   3.211   4.005 -0.3681  0.0683 -0.7178
  299MOL0     H40311   1.388   3.295   4.079  0.6885  0.0683  2.1003
  299MOL0     H40312   1.486   3.464   3.874  0.3118 -0.4729  3.4095
  299MOL0     H40313   1.509   3.313   3.798 -0.8395  0.1805  0.6850
  299MOL0     H40314   1.234   3.393   3.900 -1.0522  0.5710 -0.5838
  299MOL0     H40315   1.283   3.248   3.806  3.1141 -0.4443  0.8622
  299MOL0     H40316   1.343   3.255   3.554 -0.9955 -0.8247  0.4040
  299MOL0     H40317   1.316   3.535   3.303  0.0719 -0.2235 -0.5669
  299MOL0     H40318   1.324   3.351   3.304  1.0569 -0.4812  1.2505
  299MOL0     H40319   1.069   3.523   3.315 -0.5280  1.4960 -4.3122
  299MOL0     H40320   1.078   3.346   3.325  3.2562 -1.9664  0.5127
  299MOL0     H40321   1.196   3.334   3.101 -1.7437  0.1414 -2.4282
  299MOL0     H40322   1.186   3.505   3.082  0.1471 -0.8118 -3.0830
  299MOL0     H40323   0.939   3.496   3.107  1.0573  0.4617  0.2586
  299MOL0     H40324   0.938   3.320   3.083 -0.7359 -0.0089 -2.2973
  299MOL0     H40325   1.013   3.317   2.684  1.4278  2.6044 -0.6364
  299MOL0     H40326   0.834   3.378   2.393  2.1068 -2.4594 -2.7012
  299MOL0     H40327   0.951   3.269   2.464  0.2258  0.5183 -2.2031
  299MOL0     H40328   0.780   3.225   2.456  2.6733 -1.2447 -4.2410
  299MOL0     H40329   0.304   3.363   2.444 -1.1587  0.1093  2.4303
  299MOL0     H40330   0.145   3.446   2.273 -2.7573  1.7363 -0.3616
  299MOL0     H40331  -0.022   3.852   2.398 -1.1897 -0.2798  0.0091
  299MOL0     H40332   0.039   3.881   2.240  0.1915 -1.1050  0.0827
  299MOL0     H40333  -0.198   3.780   2.153  1.9901 -1.0457 -0.0027
  299MOL0     H40334  -0.227   3.742   2.322  1.5355  0.4656  1.8485
  299MOL0     H40335  -0.178   4.018   2.208 -0.1355  0.9841  1.5075
  299MOL0     H40336  -0.195   3.982   2.380  1.2249  2.1638 -0.8528
  299MOL0     H40337  -0.413   4.061   2.271 -1.0367 -0.1470 -0.5495
  299MOL0     H40338  -0.408   3.910   2.166  1.9884 -3.3975  1.2207
  299MOL0     H40339  -0.426   3.917   2.475 -0.6715  2.0942 -1.0911
  299MOL0     H40340  -0.440   3.785   2.353 -1.4288 -0.9085  0.5659
  299MOL0     H40341  -0.631   4.000   2.427 -2.8355  1.2340 -0.8681
  299MOL0     H40342  -0.646   3.936   2.257  2.1057 -0.5670 -0.9554
  299MOL0     H40343  -0.661   3.758   2.498 -1.3802 -0.8704  0.9315
  299MOL0     H40344  -0.664   3.717   2.318  1.5882  0.1920  0.3533
  299MOL0     H40345  -0.859   3.909   2.455  3.1330  0.9828 -0.5161
  299MOL0     H40346  -0.903   3.733   2.433  0.6225 -1.7023 -0.6973
  299MOL0     H40347   0.206   3.848   2.426 -0.8503  0.6279  2.7422
  299MOL0     H40348   0.387   3.759   2.574  1.1852  1.0805 -2.4315
  299MOL0     H40349   0.576   3.506   2.810 -0.6079 -0.7144 -1.4088
  299MOL0     H40350   0.767   3.497   2.971  3.3313  1.2186 -0.5035
  299MOL0     H40351   2.200   3.165   4.174 -2.2854 -0.3178  1.5660
  299MOL0     H40352   2.433   3.182   4.183 -2.3334  0.0019 -0.6035
  299MOL0     H40353   2.807   3.185   4.289  3.6713 -0.7556 -0.8802
  299MOL0     H40354   3.044   3.177   4.245  1.9682  0.5340 -0.6661
  299MOL0     H40355   3.379   3.341   4.214  0.7146  0.1556 -2.5746
  299MOL0     H40356   3.236   3.233   4.176  2.2681 -0.6865  0.5950
  299MOL0     H40357   3.262   3.528   4.121  1.8848 -0.8027  0.4230
  299MOL0     H40358   3.110   3.426   4.099  1.0409  1.0424  0.1898
  299MOL0     H40359   3.368   3.358   3.960 -0.3775  0.9784  0.9064
  299MOL0     H40360   3.252   3.468   3.888  2.2820 -0.3410 -0.7747
  299MOL0     H40361   3.207   3.184   3.968 -1.8902  0.5699  1.0828
  299MOL0     H40362   3.218   3.248   3.794  2.5269  1.8250  0.4883
  299MOL0     H40363   2.813   3.293   3.868 -1.1163 -0.8540  3.1039
  299MOL0     H40364   3.092   3.541   4.487 -2.4556 -1.2719  4.3264
  299MOL0     H40365   2.853   3.565   4.498 -3.8555  0.5846 -3.1177
  300MOL0     O40366   7.632   4.543   8.330 -0.5623 -0.6920  0.1567
  300MOL0     C40367   7.669   4.429   8.314  0.9706  0.5466  0.6851
  300MOL0     O40368   7.780   4.373   8.366 -0.3677  0.3996 -0.5519
  300MOL0     C40369   7.877   4.449   8.425 -0.6113 -0.5146  0.6959
  300MOL0     C40370   7.921   4.581   8.380 -0.1683  0.9222 -0.6199
  300MOL0     C40371   8.028   4.648   8.443  0.3865 -0.2232  0.0114
  300MOL0     C40372   8.099   4.589   8.544 -0.0158 -0.6287 -0.1239
  300MOL0     O40373   8.192   4.660   8.618  0.5883 -0.4466 -0.5249
  300MOL0     C40374   8.186   4.802   8.616 -0.6163 -1.8556 -0.0530
  300MOL0     C40375   8.274   4.855   8.720 -0.4031 -0.2979  0.5654
  300MOL0     C40376   8.353   4.987   8.678 -0.3721 -0.5704 -0.5310
  300MOL0     C40377   8.278   5.094   8.597  0.0336  0.3439 -0.6381
  300MOL0     C40378   8.163   5.153   8.672  0.5013 -0.1847  0.2827
  300MOL0     C40379   8.086   5.279   8.623 -0.0183  0.6397  0.8015
  300MOL0     C40380   7.990   5.328   8.729  0.5154  0.1957 -0.0179
  300MOL0     C40381   7.941   5.466   8.690 -0.1960 -0.0616 -0.5865
  300MOL0     N40382   7.882   5.454   8.559 -0.3704  0.3388  1.1057
  300MOL0     C40383   7.757   5.403   8.529 -0.0831  0.5237 -0.3255
  300MOL0     C40384   7.733   5.413   8.395 -0.3713  1.1101  0.5027
  300MOL0     C40385   7.616   5.355   8.326 -0.2187  0.0767 -0.0465
  300MOL0     C40386   7.480   5.361   8.396  0.6150 -0.6299  1.1405
  300MOL0     C40387   7.409   5.505   8.393  0.1660  0.0056  0.2791
  300MOL0     C40388   7.259   5.492   8.426 -0.6544 -0.8202 -0.0791
  300MOL0     O40389   7.244   5.443   8.561  0.0505  0.3428 -0.0722
  300MOL0     C40390   7.115   5.409   8.599 -0.2018  0.8401 -0.1872
  300MOL0     C40391   7.002   5.452   8.529  0.6971 -0.4672 -0.2810
  300MOL0     C40392   6.869   5.428   8.579 -0.6686 -0.1826  0.5092
  300MOL0     C40393   6.758   5.491   8.496  0.1517  0.2041  0.2013
  300MOL0     C40394   6.845   5.355   8.702  0.7433 -0.7614 -0.2934
  300MOL0     C40395   6.719   5.327   8.767 -0.2266 -0.1387 -0.1148
  300MOL0     O40396   6.724   5.212   8.851 -1.1828  0.6327  0.5357
  300MOL0     C40397   6.601   5.149   8.872 -0.8318 -0.5241 -0.1877
  300MOL0     C40398   6.513   5.118   8.774 -0.4228 -1.0147  0.4850
  300MOL0     C40399   6.388   5.055   8.789  0.8014 -0.3491 -0.5642
  300MOL0     C40400   6.347   5.022   8.918  1.1174  0.4944 -0.4978
  300MOL0     O40401   6.229   4.956   8.932  0.0273  0.2249 -0.2114
  300MOL0     C40402   6.180   4.943   9.069  0.1853 -1.1373 -0.4105
  300MOL0     C40403   6.055   4.874   9.046 -1.3456 -0.0351 -0.4265
  300MOL0     C40404   5.968   4.858   9.171 -0.6364 -0.2779  0.3694
  300MOL0     C40405   5.840   4.785   9.133  0.0277  0.6206 -0.1400
  300MOL0     C40406   5.728   4.813   9.234 -0.6511  0.4801  0.7477
  300MOL0     C40407   5.618   4.719   9.191  0.1744  0.0456 -0.3141
  300MOL0     C40408   5.480   4.740   9.255  0.2228  1.0777  0.7479
  300MOL0     C40409   5.381   4.631   9.209 -0.2276 -0.3045 -0.2224
  300MOL0    Cl40410   5.332   4.679   9.043 -0.1155  0.1088  0.4766
  300MOL0     C40411   6.427   5.056   9.022 -0.4491  0.0415  0.0666
  300MOL0     C40412   6.556   5.113   9.002  0.1890  1.0488 -0.8744
  300MOL0     O40413   6.630   5.397   8.752 -0.0374  0.3223 -0.1248
  300MOL0     C40414   6.959   5.310   8.766  0.0997 -0.2293  0.0956
  300MOL0     C40415   7.088   5.337   8.722 -0.2160 -0.2556  0.2837
  300MOL0     N40416   7.863   5.452   8.344  0.1927  0.5540 -0.1043
  300MOL0     N40417   7.945   5.491   8.443  0.1201  0.3216  0.1052
  300MOL0     C40418   8.055   4.467   8.588  0.7255  0.0335  0.4641
  300MOL0     C40419   7.949   4.395   8.529 -0.1126 -0.1400 -0.0609
  300MOL0     C40420   7.575   4.340   8.244  0.0537  0.9727 -0.7174
  300MOL0     C40421   7.439   4.378   8.210 -0.1669 -0.1227 -0.4342
  300MOL0     C40422   7.355   4.292   8.135  0.2679 -0.1651  0.2651
  300MOL0     C40423   7.397   4.151   8.127  0.0506 -0.0670  0.5721
  300MOL0     O40424   7.308   4.066   8.075  0.4830  0.0325  0.5430
  300MOL0     C40425   7.304   3.921   8.101  0.1776  0.3319 -0.3616
  300MOL0     C40426   7.385   3.840   7.995 -0.1528 -0.2246  0.5800
  300MOL0     C40427   7.338   3.880   7.848  0.8423  0.2604 -0.3071
  300MOL0     C40428   7.432   3.952   7.757  0.3731  0.0258 -0.1460
  300MOL0     C40429   7.522   3.857   7.704 -1.3125 -0.5019  0.2206
  300MOL0     C40430   7.632   3.810   7.684  0.3536  0.8994  0.2870
  300MOL0     C40431   7.524   4.112   8.167 -0.5892  0.0601  0.5712
  300MOL0     C40432   7.609   4.201   8.233  0.1531 -0.2354 -0.8547
  300MOL0     H40433   7.876   4.619   8.289 -1.0862  1.2922 -0.0241
  300MOL0     H40434   8.071   4.739   8.403 -0.9477  0.5399  0.3019
  300MOL0     H40435   8.234   4.826   8.520  3.5600 -2.6483  1.6279
  300MOL0     H40436   8.086   4.845   8.629  0.8097  2.6221 -1.8408
  300MOL0     H40437   8.208   4.887   8.801 -3.1026 -0.9797 -1.2410
  300MOL0     H40438   8.351   4.782   8.747  1.9575  1.4510 -1.0610
  300MOL0     H40439   8.394   5.025   8.772  0.0853 -1.2625 -0.4369
  300MOL0     H40440   8.436   4.958   8.612 -0.4525 -1.6697 -0.1709
  300MOL0     H40441   8.346   5.180   8.589 -0.7882  1.0021 -0.6141
  300MOL0     H40442   8.248   5.056   8.499 -2.0120  0.0050  0.0771
  300MOL0     H40443   8.091   5.071   8.676  2.2975 -1.9837 -1.3545
  300MOL0     H40444   8.211   5.175   8.768  1.6064  0.8034 -0.4560
  300MOL0     H40445   8.160   5.356   8.599 -0.1594 -0.0349 -2.0694
  300MOL0     H40446   8.040   5.258   8.526  0.3427 -0.6931  0.8979
  300MOL0     H40447   7.909   5.254   8.740  2.6083 -2.0986  0.8533
  300MOL0     H40448   8.047   5.329   8.822 -0.2666  1.1872  0.4730
  300MOL0     H40449   8.016   5.546   8.686  1.6594 -1.6326  0.6414
  300MOL0     H40450   7.871   5.499   8.767  1.6860  4.3741 -0.4552
  300MOL0     H40451   7.700   5.357   8.610  0.0887  1.5050  0.3729
  300MOL0     H40452   7.600   5.401   8.228 -3.7169 -0.2400  0.2435
  300MOL0     H40453   7.640   5.249   8.310  0.1043  0.3269 -1.3281
  300MOL0     H40454   7.476   5.331   8.502 -2.4072 -1.5645  0.8844
  300MOL0     H40455   7.400   5.304   8.347 -0.3791  2.1341 -0.6558
  300MOL0     H40456   7.411   5.546   8.292 -0.9011  0.1931  0.3290
  300MOL0     H40457   7.460   5.575   8.459  2.4364 -2.1345  0.9814
  300MOL0     H40458   7.201   5.428   8.358 -0.2193  0.1157 -1.3645
  300MOL0     H40459   7.215   5.592   8.420 -0.9749 -1.0669 -3.2302
  300MOL0     H40460   7.005   5.518   8.443 -2.3508 -0.9261 -0.8753
  300MOL0     H40461   6.686   5.416   8.461  0.3607  0.7824 -1.5382
  300MOL0     H40462   6.704   5.563   8.558  0.5099  1.1367 -0.5463
  300MOL0     H40463   6.791   5.544   8.406 -1.0785 -0.7579 -0.8620
  300MOL0     H40464   6.532   5.151   8.672 -1.4215 -0.4668  0.4676
  300MOL0     H40465   6.328   5.022   8.705  2.1166 -2.1885 -0.8450
  300MOL0     H40466   6.251   4.884   9.128  0.2897 -0.2229  0.4196
  300MOL0     H40467   6.150   5.037   9.117 -2.1400 -1.2622 -1.4925
  300MOL0     H40468   6.015   4.939   8.968  2.7384  0.9130 -1.9285
  300MOL0     H40469   6.070   4.777   8.997 -1.1997  0.3476 -1.1406
  300MOL0     H40470   5.950   4.960   9.208  0.8720  0.0445  0.3168
  300MOL0     H40471   6.028   4.794   9.237  2.7319  0.0920 -2.0755
  300MOL0     H40472   5.806   4.829   9.038  1.6077  0.4043 -0.8393
  300MOL0     H40473   5.849   4.680   9.103 -0.0043  0.1372  1.4925
  300MOL0     H40474   5.703   4.919   9.233 -0.8852  0.4445  1.7730
  300MOL0     H40475   5.758   4.799   9.338  0.0406  0.3258  0.5327
  300MOL0     H40476   5.617   4.730   9.082 -0.2994  1.6468 -0.1717
  300MOL0     H40477   5.657   4.619   9.214  0.3569 -0.3711 -2.2960
  300MOL0     H40478   5.430   4.833   9.226 -2.0783 -0.9666 -2.6154
  300MOL0     H40479   5.494   4.728   9.363  2.4971  0.9248  0.4829
  300MOL0     H40480   5.303   4.631   9.286  1.3379 -2.0880  1.4711
  300MOL0     H40481   5.418   4.529   9.199 -1.5348 -0.8178  0.0369
  300MOL0     H40482   6.410   5.030   9.127  0.2701 -1.0995 -0.0726
  300MOL0     H40483   6.610   5.152   9.087 -2.0329  0.6709  0.8220
  300MOL0     H40484   6.949   5.254   8.858 -2.1872 -1.8106 -0.9980
  300MOL0     H40485   7.181   5.324   8.777 -0.0500  0.8671  0.2929
  300MOL0     H40486   8.108   4.438   8.678 -0.6383  1.8731  1.9365
  300MOL0     H40487   7.928   4.297   8.570  1.1209 -0.4807 -0.1789
  300MOL0     H40488   7.410   4.480   8.236  3.9883  0.7873  1.4370
  300MOL0     H40489   7.258   4.328   8.101  0.4180  1.0706  1.0880
  300MOL0     H40490   7.343   3.906   8.202  1.7512 -0.0925 -1.0100
  300MOL0     H40491   7.200   3.885   8.093 -0.2101  1.0827  0.9470
  300MOL0     H40492   7.368   3.734   8.016  1.2473 -0.3471  1.1816
  300MOL0     H40493   7.493   3.858   8.001 -0.1041 -0.6266  0.9636
  300MOL0     H40494   7.255   3.950   7.861  0.8102  0.3056 -0.7415
  300MOL0     H40495   7.306   3.788   7.799  4.8279 -2.4195  1.5785
  300MOL0     H40496   7.473   4.042   7.803  1.1935  0.0142 -0.8262
  300MOL0     H40497   7.368   4.005   7.685  0.2576  3.5519  2.3114
  300MOL0     H40498   7.724   3.759   7.663 -0.7185 -0.8824 -0.3891
  300MOL0     H40499   7.568   4.015   8.149 -2.2923 -0.6378 -0.0750
  300MOL0     H40500   7.710   4.168   8.258  0.1320  1.1434  1.3011
  301MOL0     O40501   3.433   5.179   6.887  0.5953 -0.3088 -0.1027
  301MOL0     C40502   3.516   5.177   6.793 -0.1528 -0.0870 -0.9128
  301MOL0     O40503   3.502   5.109   6.668  0.2437 -0.0955 -1.3761
  301MOL0     C40504   3.394   5.029   6.650  0.0677 -0.1155  0.2233
  301MOL0     C40505   3.416   4.905   6.577 -0.4544  0.3879 -0.3417
  301MOL0     C40506   3.306   4.817   6.559 -0.0861 -0.2055  0.1897
  301MOL0     C40507   3.187   4.837   6.619  0.5373 -0.9104 -0.4873
  301MOL0     O40508   3.080   4.752   6.630  0.0714  0.0910  1.0449
  301MOL0     C40509   3.096   4.621   6.568  0.6385  1.1021 -0.1100
  301MOL0     C40510   2.976   4.528   6.602  0.2610  0.6399  0.1662
  301MOL0     C40511   2.840   4.591   6.605  0.4311 -0.0585  0.4526
  301MOL0     C40512   2.724   4.483   6.624 -0.1514 -0.1045  0.2545
  301MOL0     C40513   2.625   4.479   6.502  0.8543 -0.2376  0.0212
  301MOL0     C40514   2.500   4.399   6.545  0.0541  0.3653  0.9560
  301MOL0     C40515   2.393   4.377   6.433 -0.0302  0.3933 -0.3558
  301MOL0     C40516   2.253   4.328   6.500 -0.2324 -0.4274  0.4063
  301MOL0     N40517   2.153   4.326   6.386  0.0183  0.4219 -0.7311
  301MOL0     C40518   2.086   4.438   6.343 -0.5429  0.8414  0.8373
  301MOL0     C40519   2.016   4.397   6.233 -0.0894  0.1506 -0.3742
  301MOL0     C40520   1.917   4.481   6.156 -0.6387 -0.6555  0.7317
  301MOL0     C40521   1.781   4.453   6.222 -0.6888 -0.4463 -0.2602
  301MOL0     C40522   1.679   4.488   6.124  0.4963  0.6305  0.3571
  301MOL0     C40523   1.538   4.441   6.174  0.4590  0.3841 -0.3518
  301MOL0     O40524   1.474   4.544   6.256  0.2098 -0.5432 -0.8829
  301MOL0     C40525   1.341   4.525   6.300  0.5127  0.4574  0.2067
  301MOL0     C40526   1.262   4.631   6.348  0.6940 -0.7820  0.7197
  301MOL0     C40527   1.122   4.626   6.379 -0.8326 -0.6305  0.3053
  301MOL0     C40528   1.064   4.761   6.417 -0.0235 -0.6050 -0.2212
  301MOL0     C40529   1.065   4.502   6.365 -0.3886 -0.1781  0.3032
  301MOL0     C40530   0.922   4.475   6.408  0.7415  1.4131  0.3279
  301MOL0     O40531   0.875   4.341   6.401 -0.7066 -0.2093  0.1518
  301MOL0     C40532   0.744   4.321   6.426  1.0617  0.5295 -0.2096
  301MOL0     C40533   0.688   4.216   6.356  0.6274 -0.1359  0.5050
  301MOL0     C40534   0.562   4.155   6.397 -0.2520  0.2611 -0.0834
  301MOL0     C40535   0.490   4.208   6.506 -0.0916  0.2261 -0.1955
  301MOL0     O40536   0.373   4.159   6.569 -0.7257 -0.0018  0.4091
  301MOL0     C40537   0.317   4.044   6.505  0.8419  0.0507  0.6852
  301MOL0     C40538   0.236   4.085   6.378  0.2652 -0.1530  0.5298
  301MOL0     C40539   0.085   4.063   6.412 -0.6731 -0.4463  0.2149
  301MOL0     C40540   0.011   4.042   6.279 -0.3015  0.2153  1.0706
  301MOL0     C40541  -0.144   4.076   6.306  0.9381 -0.3066 -0.7573
  301MOL0     C40542  -0.209   3.974   6.407  0.6641  0.4382 -0.5808
  301MOL0     C40543  -0.365   3.965   6.397  0.7651 -0.3314  0.5194
  301MOL0     C40544  -0.452   4.086   6.425  0.0515  0.4217 -0.1612
  301MOL0    Cl40545  -0.421   4.211   6.304 -0.0225  0.3786  0.4023
  301MOL0     C40546   0.548   4.312   6.578 -0.3698  0.4553 -0.6660
  301MOL0     C40547   0.680   4.363   6.543  0.6449  0.1425 -0.6086
  301MOL0     O40548   0.857   4.569   6.453 -0.9353 -0.2313  0.1066
  301MOL0     C40549   1.132   4.395   6.320  0.7102  0.6804 -0.0623
  301MOL0     C40550   1.268   4.398   6.277  0.7155 -1.1482 -0.1452
  301MOL0     N40551   2.042   4.264   6.210 -0.0459  0.4210 -0.4008
  301MOL0     N40552   2.121   4.216   6.304 -0.3347 -0.7228  0.3765
  301MOL0     C40553   3.162   4.964   6.688  0.2840 -0.0986 -0.4944
  301MOL0     C40554   3.261   5.061   6.701  0.3586  0.3551 -0.1759
  301MOL0     C40555   3.645   5.245   6.822  0.7516 -0.5587  0.0598
  301MOL0     C40556   3.733   5.243   6.727  1.3574 -0.8417  0.2437
  301MOL0     C40557   3.865   5.293   6.746  0.3711  0.6247  0.5734
  301MOL0     C40558   3.912   5.335   6.876  0.2623 -0.0259  0.2825
  301MOL0     O40559   4.034   5.380   6.904 -0.6094 -0.8955  0.2214
  301MOL0     C40560   4.144   5.320   6.832  0.1697  0.0625  0.6460
  301MOL0     C40561   4.289   5.363   6.868 -0.4969  0.1252 -0.3028
  301MOL0     C40562   4.392   5.313   6.765  0.1054  0.2716  0.2296
  301MOL0     C40563   4.536   5.353   6.803  0.2190  0.0417 -0.3156
  301MOL0     C40564   4.632   5.378   6.703  0.0104  0.4113 -0.2537
  301MOL0     C40565   4.704   5.403   6.611  0.1031 -0.3002 -0.0974
  301MOL0     C40566   3.812   5.343   6.975  0.7726 -0.0173 -0.0267
  301MOL0     C40567   3.684   5.298   6.945 -0.0728 -0.1610 -0.4691
  301MOL0     H40568   3.514   4.880   6.537 -0.5407  1.0365 -0.9778
  301MOL0     H40569   3.329   4.726   6.504 -1.4706  0.0537 -0.8816
  301MOL0     H40570   3.092   4.625   6.459 -3.3261  0.3266 -0.1351
  301MOL0     H40571   3.189   4.571   6.597 -0.7585 -0.3870  2.0995
  301MOL0     H40572   2.967   4.443   6.535  0.0727  1.3435 -0.7169
  301MOL0     H40573   2.989   4.493   6.705  2.9936  1.6073  0.2343
  301MOL0     H40574   2.835   4.678   6.670 -0.0797  1.7405 -1.8420
  301MOL0     H40575   2.809   4.628   6.506 -2.3871 -0.8060  0.9758
  301MOL0     H40576   2.757   4.380   6.642  2.4892  0.7034  0.3584
  301MOL0     H40577   2.672   4.504   6.718 -0.6546 -0.9188  0.1706
  301MOL0     H40578   2.587   4.576   6.470  0.3315  0.4327  2.4558
  301MOL0     H40579   2.672   4.432   6.415  0.6770 -0.8543  0.2540
  301MOL0     H40580   2.539   4.298   6.560 -4.1839 -1.8596 -1.3029
  301MOL0     H40581   2.449   4.460   6.620 -0.7052  1.1113 -0.1497
  301MOL0     H40582   2.360   4.471   6.388 -2.7620  0.5332  1.7107
  301MOL0     H40583   2.429   4.304   6.360  2.4512  1.8183 -0.6726
  301MOL0     H40584   2.228   4.403   6.576 -3.1910 -1.5747  0.7206
  301MOL0     H40585   2.263   4.227   6.541 -0.5888  0.8793  4.0843
  301MOL0     H40586   2.081   4.537   6.387 -1.3149  1.4567 -0.5581
  301MOL0     H40587   1.938   4.589   6.157 -0.7032 -0.6148 -0.5999
  301MOL0     H40588   1.925   4.455   6.050 -1.5738  1.4274  0.1025
  301MOL0     H40589   1.777   4.518   6.310 -0.0089 -0.3552 -0.2927
  301MOL0     H40590   1.770   4.350   6.257  2.3742 -1.0375 -0.7255
  301MOL0     H40591   1.703   4.445   6.027  0.0265 -2.8014  1.6266
  301MOL0     H40592   1.671   4.596   6.111  1.2733  0.4819 -1.7810
  301MOL0     H40593   1.544   4.351   6.235 -1.0537  1.9632  2.2907
  301MOL0     H40594   1.466   4.415   6.095 -0.1067 -1.5276  0.7407
  301MOL0     H40595   1.312   4.726   6.363 -1.3061 -0.0351  3.5889
  301MOL0     H40596   1.141   4.839   6.412 -0.4772 -0.2069 -1.0139
  301MOL0     H40597   0.988   4.772   6.340  0.3083 -1.7439 -0.7325
  301MOL0     H40598   1.018   4.765   6.516  1.3434 -0.5035  0.4411
  301MOL0     H40599   0.743   4.184   6.268 -0.0454  0.4866 -0.1596
  301MOL0     H40600   0.516   4.072   6.345  1.0000 -2.0406  2.2911
  301MOL0     H40601   0.389   3.964   6.485  0.3837 -0.7788  2.1387
  301MOL0     H40602   0.247   3.999   6.577 -0.6656  0.2447 -0.6192
  301MOL0     H40603   0.260   4.181   6.332 -1.9771 -0.5898 -1.7555
  301MOL0     H40604   0.281   4.010   6.312  0.9547  1.6892 -1.1654
  301MOL0     H40605   0.042   4.157   6.449 -1.7109 -0.0976 -1.7195
  301MOL0     H40606   0.064   3.984   6.484 -0.6911 -1.4837 -0.9004
  301MOL0     H40607   0.044   4.112   6.202 -1.6331  1.5158  1.6242
  301MOL0     H40608   0.011   3.945   6.229  0.2923  1.0618 -0.6238
  301MOL0     H40609  -0.206   4.071   6.217 -1.1035 -2.3677  0.6638
  301MOL0     H40610  -0.151   4.177   6.346  0.7062 -0.3263 -0.7475
  301MOL0     H40611  -0.174   3.871   6.396  0.0727  0.1564  0.0887
  301MOL0     H40612  -0.186   4.008   6.508  3.7075  2.3638 -1.7729
  301MOL0     H40613  -0.403   3.883   6.459  0.3291 -1.4236 -1.1168
  301MOL0     H40614  -0.394   3.933   6.297 -1.9159 -0.1295  1.1378
  301MOL0     H40615  -0.414   4.121   6.521 -0.4894 -0.1205  0.2518
  301MOL0     H40616  -0.561   4.077   6.428 -0.1266  0.7856 -2.7443
  301MOL0     H40617   0.506   4.350   6.671 -0.9743  2.0717 -1.5566
  301MOL0     H40618   0.734   4.438   6.599  0.4628  0.8931 -1.4215
  301MOL0     H40619   1.077   4.303   6.304  1.6043  0.4597 -2.1665
  301MOL0     H40620   1.300   4.304   6.234  1.5571 -1.5448  1.2719
  301MOL0     H40621   3.066   4.986   6.733  0.1423 -0.8732 -0.3889
  301MOL0     H40622   3.241   5.156   6.749  0.9264 -0.1178  1.0258
  301MOL0     H40623   3.718   5.193   6.632  3.4820 -2.0278  0.4927
  301MOL0     H40624   3.930   5.299   6.660 -0.7929  4.0508 -0.2351
  301MOL0     H40625   4.120   5.214   6.844 -2.7094  0.5696  0.2278
  301MOL0     H40626   4.127   5.338   6.725  1.7386  1.3047  0.5833
  301MOL0     H40627   4.302   5.326   6.970 -3.0920 -3.2372 -1.0336
  301MOL0     H40628   4.302   5.472   6.867  1.1248  0.0081  1.4495
  301MOL0     H40629   4.362   5.366   6.675 -0.9994  0.8943  0.9437
  301MOL0     H40630   4.377   5.205   6.750  3.0146 -0.0514 -0.9838
  301MOL0     H40631   4.573   5.277   6.873  2.9794  0.6164 -1.0009
  301MOL0     H40632   4.543   5.444   6.863  2.5929  0.6348 -1.3437
  301MOL0     H40633   4.773   5.440   6.537 -0.4156 -0.4007 -0.6391
  301MOL0     H40634   3.829   5.392   7.070  1.1476 -0.1368 -0.0321
  301MOL0     H40635   3.619   5.279   7.030  0.0851 -2.6200 -0.8287
  302MOL0     O40636   3.854   3.735  10.534  0.1383  1.0643  0.2025
  302MOL0     C40637   3.932   3.809  10.585  0.0088 -0.1791  1.7721
  302MOL0     O40638   3.899   3.915  10.657  0.2352 -0.2827 -0.1972
  302MOL0     C40639   3.779   3.947  10.705 -0.7162  0.2284 -0.2673
  302MOL0     C40640   3.675   3.962  10.616 -0.5888 -0.1130 -0.3017
  302MOL0     C40641   3.565   4.026  10.667  0.0214  1.0682  0.1864
  302MOL0     C40642   3.555   4.067  10.800 -0.4609  0.0455  1.2900
  302MOL0     O40643   3.427   4.120  10.835 -0.6649  0.5329  0.7086
  302MOL0     C40644   3.411   4.113  10.973 -0.7009  0.2709 -0.1318
  302MOL0     C40645   3.264   4.100  10.992  0.2872  0.2021  0.1748
  302MOL0     C40646   3.208   3.969  10.952 -0.0411  0.0898 -0.4458
  302MOL0     C40647   3.059   3.974  10.966 -0.4810 -0.5492 -0.5760
  302MOL0     C40648   2.997   3.863  10.878  0.5355  0.1885 -0.3902
  302MOL0     C40649   2.847   3.859  10.894  0.6637 -0.1640  0.0077
  302MOL0     C40650   2.770   3.752  10.815  0.0280 -1.4089  0.1377
  302MOL0     C40651   2.656   3.802  10.725 -0.9348 -0.6010  0.4000
  302MOL0     N40652   2.525   3.845  10.779 -0.1768  0.3602  0.0981
  302MOL0     C40653   2.458   3.967  10.769 -0.3456 -0.2360 -0.4382
  302MOL0     C40654   2.322   3.946  10.770  0.1842 -0.0278 -0.7683
  302MOL0     C40655   2.206   4.038  10.773  0.4633  0.3486  0.4668
  302MOL0     C40656   2.229   4.149  10.673  0.5409  0.9293 -0.0389
  302MOL0     C40657   2.179   4.118  10.533 -0.1837 -0.2974  0.0185
  302MOL0     C40658   2.228   4.236  10.439  0.2337  0.5060 -0.0919
  302MOL0     O40659   2.161   4.229  10.312  0.1589 -0.4168  0.3201
  302MOL0     C40660   2.069   4.336  10.305 -0.2080 -0.4797  1.4379
  302MOL0     C40661   2.116   4.463  10.266 -0.1949 -1.0498  0.7017
  302MOL0     C40662   2.031   4.583  10.260 -0.8392  0.7766 -0.5752
  302MOL0     C40663   2.099   4.717  10.223  0.2533 -0.0732 -0.3915
  302MOL0     C40664   1.898   4.563  10.302 -0.3462  0.0219 -0.6621
  302MOL0     C40665   1.794   4.665  10.296 -0.0512 -0.3499  0.6491
  302MOL0     O40666   1.815   4.759  10.202 -0.7117  0.5094 -0.1805
  302MOL0     C40667   1.708   4.839  10.168 -0.6703  0.3015 -0.9121
  302MOL0     C40668   1.746   4.973  10.170  0.1130  0.3648  0.3175
  302MOL0     C40669   1.647   5.073  10.143  0.4616 -0.4912 -0.4643
  302MOL0     C40670   1.511   5.042  10.122 -0.5675  0.3045  0.7459
  302MOL0     O40671   1.421   5.144  10.111  0.5393 -0.3564 -0.3601
  302MOL0     C40672   1.286   5.100  10.092  0.6429  0.4986 -0.2683
  302MOL0     C40673   1.199   5.223  10.089 -0.2092 -0.5387  0.2219
  302MOL0     C40674   1.056   5.196  10.083  0.4537 -0.5996 -0.5711
  302MOL0     C40675   0.973   5.324  10.090 -0.0023 -0.2426 -0.2067
  302MOL0     C40676   0.819   5.284  10.087  0.8938 -0.3748 -0.1860
  302MOL0     C40677   0.725   5.403  10.115 -0.0277 -0.0909  0.0466
  302MOL0     C40678   0.574   5.370  10.101 -0.0982 -0.9584  0.1623
  302MOL0     C40679   0.512   5.286  10.214 -0.0019 -0.1026 -0.2329
  302MOL0    Cl40680   0.331   5.272  10.208  0.1388 -0.4957 -0.1187
  302MOL0     C40681   1.475   4.904  10.131  0.3337 -0.3385  0.1582
  302MOL0     C40682   1.575   4.805  10.152  0.2756  0.3573  0.0943
  302MOL0     O40683   1.694   4.652  10.362  1.1586 -0.0485 -0.4651
  302MOL0     C40684   1.851   4.431  10.334 -0.3257  0.1148 -0.2285
  302MOL0     C40685   1.939   4.319  10.331  0.2146 -0.3231  0.2926
  302MOL0     N40686   2.304   3.816  10.801  0.3048 -1.1180  0.0410
  302MOL0     N40687   2.424   3.751  10.798  0.3655 -0.6956 -0.2735
  302MOL0     C40688   3.663   4.051  10.886  0.1976  0.0597 -0.1387
  302MOL0     C40689   3.771   3.984  10.841 -0.7754  0.4910 -0.6823
  302MOL0     C40690   4.073   3.773  10.561  0.1234  0.5090  0.3298
  302MOL0     C40691   4.174   3.811  10.647 -0.4877 -1.0187 -1.0802
  302MOL0     C40692   4.311   3.793  10.618  1.0463 -0.7228 -0.0528
  302MOL0     C40693   4.340   3.713  10.509 -0.6617  0.2957 -0.0788
  302MOL0     O40694   4.468   3.688  10.472 -0.6183  0.3493 -0.1799
  302MOL0     C40695   4.575   3.734  10.542 -0.1532  0.1828 -0.3300
  302MOL0     C40696   4.697   3.677  10.471  0.1821  0.3980 -0.4430
  302MOL0     C40697   4.824   3.709  10.556 -0.3426 -0.8251  0.9826
  302MOL0     C40698   4.896   3.848  10.522 -0.1777  0.0649  0.0971
  302MOL0     C40699   4.823   3.956  10.600  0.0991 -0.6052  0.9508
  302MOL0     C40700   4.753   4.041  10.649  1.1005 -0.6047  0.0873
  302MOL0     C40701   4.243   3.665  10.424 -0.0135  0.6963 -1.0070
  302MOL0     C40702   4.105   3.701  10.448  0.0161 -0.9708  0.2030
  302MOL0     H40703   3.673   3.940  10.510 -0.9731 -0.9078 -0.1331
  302MOL0     H40704   3.481   4.036  10.599  2.2835  0.7473 -2.8297
  302MOL0     H40705   3.442   4.014  11.007  0.5486 -0.5179 -3.1916
  302MOL0     H40706   3.460   4.197  11.023 -0.2910 -0.4028  0.6231
  302MOL0     H40707   3.247   4.113  11.099  1.5007 -3.9607  1.0837
  302MOL0     H40708   3.213   4.187  10.951 -0.3308  0.4182  1.3707
  302MOL0     H40709   3.241   3.933  10.854  0.2404 -0.0552 -0.3016
  302MOL0     H40710   3.248   3.892  11.019  2.0004 -0.4927 -2.2003
  302MOL0     H40711   3.043   3.952  11.072  0.3381  2.2484  0.2301
  302MOL0     H40712   3.017   4.073  10.944  2.3696  1.4766  2.1955
  302MOL0     H40713   3.029   3.877  10.774  0.0086  1.0292 -0.4455
  302MOL0     H40714   3.029   3.763  10.907 -1.1668  0.1944  1.7159
  302MOL0     H40715   2.815   3.832  10.995  0.6722  0.4054  0.1667
  302MOL0     H40716   2.806   3.959  10.877 -0.8176 -0.9559 -1.2720
  302MOL0     H40717   2.848   3.704  10.756  0.9339 -0.0767  0.1930
  302MOL0     H40718   2.724   3.680  10.883 -0.6327  0.6294  1.9812
  302MOL0     H40719   2.628   3.720  10.658  0.3549 -1.3824  0.7790
  302MOL0     H40720   2.696   3.880  10.659 -2.8052 -0.5189 -0.6972
  302MOL0     H40721   2.503   4.065  10.771 -0.1309 -0.2333  3.7686
  302MOL0     H40722   2.105   3.997  10.763  0.1521  1.4075 -1.1399
  302MOL0     H40723   2.218   4.083  10.872 -2.2100  3.9594 -0.6335
  302MOL0     H40724   2.334   4.181  10.672 -0.1630  3.4655 -1.1072
  302MOL0     H40725   2.175   4.233  10.719  1.4763  0.7016  1.5478
  302MOL0     H40726   2.071   4.099  10.535 -0.2554 -0.0664  2.6374
  302MOL0     H40727   2.229   4.028  10.496  0.3328  0.1848 -0.4591
  302MOL0     H40728   2.334   4.221  10.421  0.9026  1.8694  2.2433
  302MOL0     H40729   2.215   4.332  10.490  0.2636  0.2120  0.4744
  302MOL0     H40730   2.216   4.471  10.225 -1.0889  0.3827 -1.3245
  302MOL0     H40731   2.202   4.682  10.207 -0.7870 -4.1339  0.6232
  302MOL0     H40732   2.066   4.755  10.126  0.4997  1.1983  0.0078
  302MOL0     H40733   2.096   4.793  10.302 -0.2549 -0.5894  0.0900
  302MOL0     H40734   1.847   5.011  10.179  0.0774  0.9559 -1.3811
  302MOL0     H40735   1.670   5.179  10.136 -0.5085 -0.3827 -3.3595
  302MOL0     H40736   1.279   5.037  10.004  0.2520 -0.0907  0.1764
  302MOL0     H40737   1.250   5.052  10.184 -0.8925 -1.1749 -1.6636
  302MOL0     H40738   1.218   5.299  10.165 -0.9504  2.6264 -2.4822
  302MOL0     H40739   1.232   5.275   9.999  2.0429  0.3751  1.5071
  302MOL0     H40740   1.032   5.141  10.174 -0.8767  2.2810  0.9564
  302MOL0     H40741   1.033   5.130   9.998  1.1630 -0.2236 -1.0645
  302MOL0     H40742   1.005   5.381  10.178  1.9037  1.1146 -1.6953
  302MOL0     H40743   0.991   5.383   9.999 -1.8907 -0.7486 -0.9687
  302MOL0     H40744   0.799   5.211  10.166 -1.9642 -0.5412 -0.9488
  302MOL0     H40745   0.791   5.244   9.989  3.3901 -0.9987 -0.7038
  302MOL0     H40746   0.747   5.428  10.219 -1.7947 -2.6922  1.1354
  302MOL0     H40747   0.751   5.491  10.055 -0.1828 -1.3149 -1.8970
  302MOL0     H40748   0.541   5.329  10.005 -1.2072  0.2851 -0.0124
  302MOL0     H40749   0.515   5.461  10.108 -2.6200 -2.4079 -0.9228
  302MOL0     H40750   0.543   5.307  10.317 -1.0105  1.9554 -0.2936
  302MOL0     H40751   0.545   5.186  10.185 -2.1005 -0.1070 -3.0956
  302MOL0     H40752   1.376   4.859  10.123 -0.1157  0.2454  1.9696
  302MOL0     H40753   1.549   4.700  10.157 -1.5724  0.8465  3.5747
  302MOL0     H40754   1.746   4.408  10.344 -0.9483  2.6752 -0.3284
  302MOL0     H40755   1.901   4.218  10.342  3.8680 -1.9394 -0.7140
  302MOL0     H40756   3.657   4.091  10.987 -2.3231 -0.2277 -0.1023
  302MOL0     H40757   3.859   3.984  10.905  0.0437  2.0681 -1.7407
  302MOL0     H40758   4.149   3.873  10.733  0.1931 -0.7459 -1.0733
  302MOL0     H40759   4.388   3.818  10.691  1.5039  0.4839 -0.9107
  302MOL0     H40760   4.576   3.844  10.543  2.9610  0.2421 -0.3976
  302MOL0     H40761   4.579   3.690  10.641  2.3441  0.3325 -0.3001
  302MOL0     H40762   4.694   3.725  10.372 -1.4597  2.2994  0.4708
  302MOL0     H40763   4.680   3.569  10.462  1.9974  0.0271  0.1271
  302MOL0     H40764   4.891   3.624  10.543  0.2422 -0.1608 -0.6607
  302MOL0     H40765   4.796   3.714  10.662 -3.3304  0.4663  0.2277
  302MOL0     H40766   4.909   3.868  10.415  0.0128  4.0581  0.7244
  302MOL0     H40767   4.999   3.839  10.556  0.5792 -0.6415 -2.1602
  302MOL0     H40768   4.699   4.115  10.704  3.3541 -0.5764  2.4715
  302MOL0     H40769   4.255   3.592  10.344 -1.9538  2.3088 -2.8956
  302MOL0     H40770   4.030   3.674  10.376 -0.5511  2.9339 -0.9343
  303MOL0     O40771   2.591   8.882   9.632  0.3153 -0.2245  0.2816
  303MOL0     C40772   2.671   8.838   9.718  0.2722 -0.1927  1.2686
  303MOL0     O40773   2.643   8.733   9.792 -0.5671 -0.2512 -0.6623
  303MOL0     C40774   2.529   8.671   9.778  0.2789 -0.2268  0.2878
  303MOL0     C40775   2.401   8.730   9.800  0.1224 -0.3679  0.6151
  303MOL0     C40776   2.284   8.666   9.774  0.5385 -0.0231  0.9144
  303MOL0     C40777   2.295   8.529   9.739 -1.0138  0.4866 -0.8741
  303MOL0     O40778   2.182   8.446   9.729  0.1924 -0.0731  0.7737
  303MOL0     C40779   2.054   8.498   9.779 -0.6210 -0.9929  0.1884
  303MOL0     C40780   1.946   8.394   9.738 -0.7141  0.3073 -0.7978
  303MOL0     C40781   1.804   8.420   9.782 -0.0476  0.6761  0.0042
  303MOL0     C40782   1.724   8.508   9.681 -1.6217  0.5719  0.3333
  303MOL0     C40783   1.584   8.542   9.717  0.2761 -0.2904 -0.2483
  303MOL0     C40784   1.481   8.487   9.616 -0.2808 -0.3360  0.1589
  303MOL0     C40785   1.339   8.501   9.659  0.2676  0.0547 -0.2322
  303MOL0     C40786   1.287   8.645   9.675 -1.6590  1.2206 -0.2750
  303MOL0     N40787   1.141   8.658   9.681 -0.4792 -1.2742  0.5526
  303MOL0     C40788   1.073   8.637   9.796  0.0583 -0.6044 -0.2527
  303MOL0     C40789   0.941   8.660   9.774 -0.6378  0.5594 -0.5043
  303MOL0     C40790   0.824   8.649   9.864  0.6406  0.5333  0.0694
  303MOL0     C40791   0.792   8.500   9.881  0.2921  0.1124  0.0615
  303MOL0     C40792   0.641   8.463   9.877  0.2773 -0.4861  0.2045
  303MOL0     C40793   0.592   8.461   9.731  0.3284 -0.6373  0.6648
  303MOL0     O40794   0.454   8.414   9.718  1.1658 -0.0045 -1.0893
  303MOL0     C40795   0.344   8.485   9.729  0.1133  0.1409 -0.1750
  303MOL0     C40796   0.324   8.610   9.792  0.6526 -0.3497  0.4306
  303MOL0     C40797   0.202   8.682   9.767  0.8515  0.2090  0.3542
  303MOL0     C40798   0.201   8.821   9.823  0.0788  0.4007 -0.2526
  303MOL0     C40799   0.098   8.625   9.688 -0.3169 -0.2647  0.3470
  303MOL0     C40800  -0.032   8.687   9.656 -0.3798  0.9359 -0.1671
  303MOL0     O40801  -0.083   8.773   9.745 -0.3189  0.3515  0.5851
  303MOL0     C40802  -0.223   8.801   9.748 -0.7992 -0.9559 -0.5611
  303MOL0     C40803  -0.325   8.734   9.672 -0.0621 -0.5725  0.0994
  303MOL0     C40804  -0.458   8.752   9.699  1.1009 -0.3325 -0.3468
  303MOL0     C40805  -0.498   8.846   9.794 -0.4603  0.0008 -0.0193
  303MOL0     O40806  -0.632   8.859   9.818 -0.1420  0.3889  0.0086
  303MOL0     C40807  -0.666   8.960   9.917  0.0226  0.3902  0.7761
  303MOL0     C40808  -0.823   8.977   9.909 -0.1081 -0.2773 -0.5357
  303MOL0     C40809  -0.866   9.091   9.996 -0.2322  0.1518 -0.5411
  303MOL0     C40810  -1.013   9.072  10.028  0.4336  1.0703  0.7362
  303MOL0     C40811  -1.069   9.196  10.109  0.2410  0.2503  1.0012
  303MOL0     C40812  -1.224   9.211  10.093  0.1879  0.5205 -0.4961
  303MOL0     C40813  -1.280   9.329  10.171 -0.1520  0.3278  0.0411
  303MOL0     C40814  -1.435   9.370  10.140 -0.3165 -0.4154 -0.0723
  303MOL0    Cl40815  -1.537   9.248  10.218 -0.1334  0.1005  0.2005
  303MOL0     C40816  -0.400   8.927   9.862 -0.4863 -0.2253  0.1987
  303MOL0     C40817  -0.264   8.909   9.835  0.0261 -0.1764 -0.0553
  303MOL0     O40818  -0.081   8.665   9.545 -0.3600  0.5545  0.5293
  303MOL0     C40819   0.125   8.495   9.629 -0.8207 -0.6441 -0.4182
  303MOL0     C40820   0.239   8.430   9.654  0.2356 -0.0978  0.9036
  303MOL0     N40821   0.933   8.682   9.638  0.3079 -1.0330  0.0556
  303MOL0     N40822   1.049   8.684   9.583  0.4972 -0.9466  0.8004
  303MOL0     C40823   2.416   8.469   9.712 -0.0570 -0.9619  0.3906
  303MOL0     C40824   2.532   8.545   9.725 -0.4423  0.6442 -1.0412
  303MOL0     C40825   2.802   8.900   9.725  0.7667  0.3287  0.1130
  303MOL0     C40826   2.910   8.852   9.795  0.0148 -0.4595  0.7547
  303MOL0     C40827   3.029   8.920   9.791 -0.7170 -0.3170 -0.0844
  303MOL0     C40828   3.050   9.047   9.738  0.8614  0.5541  0.4367
  303MOL0     O40829   3.183   9.100   9.741  0.5511 -0.0963 -0.3421
  303MOL0     C40830   3.197   9.209   9.653 -0.2654 -0.3107  0.4752
  303MOL0     C40831   3.347   9.239   9.615  0.0853  0.5684 -0.0644
  303MOL0     C40832   3.413   9.291   9.738 -0.3694  0.6717  0.6462
  303MOL0     C40833   3.560   9.336   9.714 -0.3839  0.1724  0.2985
  303MOL0     C40834   3.665   9.238   9.737 -1.1843 -0.7928 -0.1469
  303MOL0     C40835   3.739   9.146   9.765 -0.0316 -0.7557  0.9210
  303MOL0     C40836   2.940   9.102   9.668 -0.3694 -0.1715  0.2814
  303MOL0     C40837   2.824   9.025   9.648  0.2004  0.7129 -0.1749
  303MOL0     H40838   2.394   8.834   9.828  0.4691 -0.5300  1.3483
  303MOL0     H40839   2.188   8.713   9.790 -0.1040 -0.7548 -0.5653
  303MOL0     H40840   2.060   8.538   9.881 -3.5893  2.4375 -0.7571
  303MOL0     H40841   2.034   8.592   9.725 -1.2162 -0.1599  1.7842
  303MOL0     H40842   1.941   8.364   9.633  1.8296 -0.1552 -0.8519
  303MOL0     H40843   1.975   8.305   9.795  3.8816  2.6006  0.9984
  303MOL0     H40844   1.753   8.325   9.803  1.7782  0.0647  2.0634
  303MOL0     H40845   1.798   8.475   9.876 -0.8038 -1.4580  1.2874
  303MOL0     H40846   1.784   8.597   9.660 -0.1165 -0.1095  1.5162
  303MOL0     H40847   1.732   8.451   9.588  2.1292 -1.6641  1.7967
  303MOL0     H40848   1.552   8.521   9.819  1.2244 -0.0439  0.1054
  303MOL0     H40849   1.586   8.651   9.707  1.8127 -0.3793 -1.3081
  303MOL0     H40850   1.501   8.534   9.520  0.2748  0.4262  0.6277
  303MOL0     H40851   1.505   8.381   9.608  0.8782 -0.3040  2.3156
  303MOL0     H40852   1.277   8.454   9.582  1.1250 -5.6600  2.0164
  303MOL0     H40853   1.333   8.442   9.752  0.0957  1.1957  0.5032
  303MOL0     H40854   1.329   8.709   9.596 -2.5424  3.0160  0.6540
  303MOL0     H40855   1.321   8.671   9.776 -1.8952  1.6376 -0.2995
  303MOL0     H40856   1.119   8.600   9.887 -1.5938  0.3216  1.0215
  303MOL0     H40857   0.836   8.684   9.967  0.5215 -2.5261  1.2099
  303MOL0     H40858   0.740   8.704   9.821  2.5911  2.1733 -1.8856
  303MOL0     H40859   0.842   8.480   9.976  3.2190  0.1336 -1.3594
  303MOL0     H40860   0.850   8.432   9.818 -3.1614 -3.9044  0.7259
  303MOL0     H40861   0.572   8.518   9.942 -0.4214 -2.5257  1.2551
  303MOL0     H40862   0.634   8.359   9.910  1.6082 -0.0401  2.0377
  303MOL0     H40863   0.646   8.395   9.663 -0.7545  1.8182 -2.8707
  303MOL0     H40864   0.603   8.563   9.692 -5.0026  0.4296  1.1158
  303MOL0     H40865   0.407   8.646   9.852  1.9356 -0.1346 -1.3973
  303MOL0     H40866   0.130   8.828   9.906 -0.8028 -5.8286  0.0210
  303MOL0     H40867   0.301   8.839   9.863  1.3932 -1.3441 -2.4961
  303MOL0     H40868   0.172   8.888   9.742 -0.3056 -1.4193 -1.6819
  303MOL0     H40869  -0.300   8.654   9.603  0.7430  0.0939 -0.3950
  303MOL0     H40870  -0.538   8.683   9.673  0.7006  0.5591 -1.5309
  303MOL0     H40871  -0.626   8.935  10.016  1.2989 -1.0109 -0.0512
  303MOL0     H40872  -0.625   9.058   9.888 -0.6373  0.0245 -1.5793
  303MOL0     H40873  -0.848   9.006   9.806 -0.9614  0.7725 -0.0520
  303MOL0     H40874  -0.875   8.887   9.941 -1.6545  1.4409  2.1660
  303MOL0     H40875  -0.854   9.183   9.937 -0.2935  0.0506 -0.7115
  303MOL0     H40876  -0.796   9.090  10.080 -0.1254  1.4506 -0.5833
  303MOL0     H40877  -1.056   9.059   9.928  4.9130 -0.8423 -1.2566
  303MOL0     H40878  -1.017   8.986  10.096 -1.6058  1.1647  0.7941
  303MOL0     H40879  -1.021   9.288  10.076 -0.5421  0.7948  1.3319
  303MOL0     H40880  -1.037   9.186  10.214  2.4079 -0.1021  0.3557
  303MOL0     H40881  -1.239   9.223   9.985  0.8561 -4.8916 -1.4871
  303MOL0     H40882  -1.280   9.122  10.124 -0.1733  1.5939  2.1433
  303MOL0     H40883  -1.226   9.421  10.146 -0.0075  0.2341  0.0044
  303MOL0     H40884  -1.272   9.300  10.276 -1.7181 -0.6614 -0.0834
  303MOL0     H40885  -1.457   9.374  10.033  0.9739  3.6639 -0.3140
  303MOL0     H40886  -1.460   9.465  10.187 -2.8968 -0.6136 -0.8623
  303MOL0     H40887  -0.426   9.000   9.938  0.0006 -0.0279  0.1743
  303MOL0     H40888  -0.193   8.975   9.884 -2.2126  1.0558  1.6904
  303MOL0     H40889   0.059   8.451   9.555  0.0595 -0.6944 -1.2070
  303MOL0     H40890   0.246   8.337   9.598  0.2234 -0.2020  1.0726
  303MOL0     H40891   2.420   8.366   9.681 -0.3169 -1.3621  1.6133
  303MOL0     H40892   2.625   8.489   9.713 -1.7764 -1.9257 -0.2233
  303MOL0     H40893   2.899   8.765   9.859 -2.1509  0.5913  1.9074
  303MOL0     H40894   3.118   8.869   9.827  0.1444  1.4933  0.4691
  303MOL0     H40895   3.147   9.197   9.556 -3.4878 -3.0202  2.2445
  303MOL0     H40896   3.158   9.298   9.703  1.4980  2.1613 -2.2568
  303MOL0     H40897   3.366   9.304   9.530  4.7974 -2.1665 -1.5000
  303MOL0     H40898   3.393   9.152   9.567 -1.6738  0.6907 -2.0804
  303MOL0     H40899   3.422   9.224   9.824  1.1272 -1.7652 -1.2472
  303MOL0     H40900   3.362   9.380   9.774 -1.5001  0.8222 -1.1941
  303MOL0     H40901   3.582   9.422   9.779 -0.2181  2.0994 -2.1372
  303MOL0     H40902   3.561   9.371   9.610 -1.2267 -3.4533 -1.0672
  303MOL0     H40903   3.809   9.065   9.768  1.4505  0.1603 -2.8435
  303MOL0     H40904   2.942   9.206   9.636  0.5577 -0.1408  0.4189
  303MOL0     H40905   2.748   9.071   9.585 -1.0263 -0.5764  0.3118
  304MOL0     O40906   9.021   0.503   1.654  0.3968 -0.4413  0.2706
  304MOL0     C40907   9.022   0.446   1.544  0.1621  0.4046  0.6236
  304MOL0     O40908   8.910   0.418   1.465 -0.1768 -0.4688 -0.1966
  304MOL0     C40909   8.782   0.437   1.514 -0.4759 -0.3837  0.4505
  304MOL0     C40910   8.741   0.565   1.537  0.1536 -0.2967 -0.2344
  304MOL0     C40911   8.609   0.589   1.575  0.5640 -0.0713  0.3792
  304MOL0     C40912   8.515   0.488   1.587  0.1387  0.8176 -0.6086
  304MOL0     O40913   8.392   0.503   1.632 -0.0943 -0.4634  0.4112
  304MOL0     C40914   8.307   0.614   1.578  0.0805 -0.8219  0.0035
  304MOL0     C40915   8.169   0.581   1.636 -0.1750  0.4778  0.2233
  304MOL0     C40916   8.077   0.699   1.614 -0.1383 -0.5199  0.0558
  304MOL0     C40917   7.981   0.681   1.496 -0.7979 -0.1803  0.3696
  304MOL0     C40918   7.894   0.806   1.479 -0.0037  0.4290  1.3241
  304MOL0     C40919   7.766   0.798   1.386 -0.0784 -1.1747 -0.2260
  304MOL0     C40920   7.704   0.943   1.367 -0.3597  0.6098 -0.1061
  304MOL0     C40921   7.666   1.023   1.497  0.5807 -0.9069  0.4258
  304MOL0     N40922   7.553   0.981   1.571  0.4805  0.3135 -0.0225
  304MOL0     C40923   7.428   0.958   1.509  0.1261 -0.0635 -0.5126
  304MOL0     C40924   7.380   0.848   1.565  0.0328 -0.4495  0.5102
  304MOL0     C40925   7.253   0.797   1.506  0.8798 -0.0559 -1.0439
  304MOL0     C40926   7.262   0.741   1.363  0.0256  0.1799  0.4179
  304MOL0     C40927   7.394   0.668   1.340  0.0620  0.4430  0.4606
  304MOL0     C40928   7.395   0.630   1.193  0.4472 -0.4657 -0.1980
  304MOL0     O40929   7.494   0.528   1.171  0.4844 -0.2323 -0.5756
  304MOL0     C40930   7.629   0.548   1.146  0.2024  0.1335  0.2442
  304MOL0     C40931   7.670   0.649   1.057 -0.3388 -0.4658  0.4211
  304MOL0     C40932   7.800   0.662   1.014  0.5673  0.2401  0.3250
  304MOL0     C40933   7.832   0.783   0.936  0.3365  0.0494  0.8947
  304MOL0     C40934   7.894   0.558   1.040  0.1962 -0.4918 -0.2007
  304MOL0     C40935   8.038   0.551   1.002  0.3830  0.4231 -0.9759
  304MOL0     O40936   8.124   0.489   1.098 -0.0229 -0.3607 -0.4763
  304MOL0     C40937   8.257   0.464   1.091  0.0444 -0.7530  0.3880
  304MOL0     C40938   8.317   0.424   1.213 -0.5145 -0.4822  0.2400
  304MOL0     C40939   8.450   0.394   1.225  0.0531  1.1132 -0.7772
  304MOL0     C40940   8.531   0.395   1.118  0.2988 -1.4532  0.2058
  304MOL0     O40941   8.667   0.388   1.124 -0.4264  0.1046 -0.3397
  304MOL0     C40942   8.702   0.253   1.104 -0.2350 -0.2800 -0.5987
  304MOL0     C40943   8.851   0.241   1.125 -1.2257 -0.1213 -0.9164
  304MOL0     C40944   8.896   0.098   1.087  0.7132 -0.1820  0.0176
  304MOL0     C40945   9.045   0.081   1.102  0.2155  0.0968 -0.0059
  304MOL0     C40946   9.077  -0.062   1.059  0.5314  0.0421 -0.3375
  304MOL0     C40947   9.227  -0.091   1.041  0.7706 -0.0137 -0.1333
  304MOL0     C40948   9.253  -0.228   0.973 -0.2291  0.0523 -0.3423
  304MOL0     C40949   9.397  -0.247   0.981 -0.3654 -0.8160  0.5714
  304MOL0    Cl40950   9.458  -0.385   0.889 -0.2815 -0.0115  0.6458
  304MOL0     C40951   8.475   0.440   0.996  0.6761  0.8623  0.3776
  304MOL0     C40952   8.340   0.472   0.983  0.2569 -0.0660 -0.6808
  304MOL0     O40953   8.059   0.574   0.885  0.2435  0.5761  0.3565
  304MOL0     C40954   7.850   0.453   1.129  0.1728  0.2467  0.1460
  304MOL0     C40955   7.719   0.452   1.175  0.7225  0.4754 -0.8833
  304MOL0     N40956   7.460   0.810   1.674  0.3224  0.3596  0.3573
  304MOL0     N40957   7.563   0.892   1.671  0.0503 -0.5636  0.5351
  304MOL0     C40958   8.560   0.357   1.563  0.8514  0.0742  0.3182
  304MOL0     C40959   8.689   0.335   1.519 -0.6032  0.5274 -0.4202
  304MOL0     C40960   9.150   0.400   1.495 -0.4445  0.6844  0.5688
  304MOL0     C40961   9.266   0.398   1.568  0.3390  1.0999 -1.2394
  304MOL0     C40962   9.373   0.320   1.531  0.3728 -0.5029 -0.9280
  304MOL0     C40963   9.386   0.269   1.401 -0.6168 -0.1182  0.2161
  304MOL0     O40964   9.494   0.201   1.354 -0.0029  0.1273  0.2331
  304MOL0     C40965   9.615   0.181   1.426 -0.1301  0.2713 -0.4454
  304MOL0     C40966   9.590   0.065   1.524  1.1834 -0.2753  0.1908
  304MOL0     C40967   9.711   0.055   1.619  0.1380  0.7538  0.3207
  304MOL0     C40968   9.693  -0.072   1.691  0.0985  0.6189 -0.4842
  304MOL0     C40969   9.811  -0.123   1.756  0.3485 -1.0755 -0.1459
  304MOL0     C40970   9.903  -0.162   1.818  0.1215  0.0086  0.3029
  304MOL0     C40971   9.281   0.299   1.312 -0.9358  0.4704  0.4096
  304MOL0     C40972   9.170   0.367   1.363 -0.2224 -0.4686  0.3143
  304MOL0     H40973   8.810   0.648   1.523 -1.4143  1.0847 -0.0369
  304MOL0     H40974   8.579   0.689   1.606  2.3984  0.6586 -0.0678
  304MOL0     H40975   8.350   0.704   1.624  1.1544 -0.9998 -0.6225
  304MOL0     H40976   8.318   0.626   1.470  3.8524  0.8082  0.4051
  304MOL0     H40977   8.127   0.492   1.586  1.0625 -0.1803  0.3292
  304MOL0     H40978   8.184   0.565   1.743 -3.6257 -1.7616  0.5475
  304MOL0     H40979   8.012   0.704   1.701 -0.2084 -1.0411  0.0374
  304MOL0     H40980   8.141   0.786   1.593 -2.3651  0.7486 -1.9804
  304MOL0     H40981   8.032   0.659   1.402  0.1658  1.0538  0.5761
  304MOL0     H40982   7.913   0.600   1.523 -0.3857 -0.7496 -0.2870
  304MOL0     H40983   7.857   0.832   1.578  1.3677 -1.7541  2.4905
  304MOL0     H40984   7.949   0.898   1.459  0.5993 -0.3500 -0.8868
  304MOL0     H40985   7.794   0.769   1.284  0.1272 -1.2650 -0.1435
  304MOL0     H40986   7.686   0.735   1.424 -0.8530  0.3688  0.8098
  304MOL0     H40987   7.783   1.000   1.316  0.7331  0.4174  1.3017
  304MOL0     H40988   7.619   0.932   1.299 -0.6648  3.4715 -0.2752
  304MOL0     H40989   7.650   1.127   1.469 -3.5306 -1.4928 -0.0065
  304MOL0     H40990   7.755   1.016   1.561  1.5847  3.7529 -0.0813
  304MOL0     H40991   7.387   1.003   1.420  2.1525 -1.0929 -2.0570
  304MOL0     H40992   7.211   0.725   1.576  0.8002  0.0931 -0.9391
  304MOL0     H40993   7.183   0.881   1.496  0.0729 -0.6198 -0.2461
  304MOL0     H40994   7.247   0.826   1.296  2.1723  1.1953  1.1235
  304MOL0     H40995   7.185   0.663   1.356  0.0721  0.1211  0.5441
  304MOL0     H40996   7.392   0.567   1.381  0.3852  0.7922  1.3463
  304MOL0     H40997   7.482   0.724   1.373  3.7149 -3.0406 -2.3416
  304MOL0     H40998   7.416   0.724   1.140 -0.2231  0.7116  1.5231
  304MOL0     H40999   7.301   0.590   1.153  0.2347  1.0795 -1.3797
  304MOL0     H41000   7.597   0.727   1.041 -0.1335 -0.3225  0.1744
  304MOL0     H41001   7.850   0.758   0.831  0.3804 -1.6138  1.2781
  304MOL0     H41002   7.759   0.864   0.946  1.7430  1.1918  2.4193
  304MOL0     H41003   7.929   0.809   0.980  1.0700 -3.2384  1.4613
  304MOL0     H41004   8.260   0.411   1.305  0.7119 -0.8452  0.9724
  304MOL0     H41005   8.500   0.361   1.315  1.1080  1.9468 -1.0396
  304MOL0     H41006   8.649   0.186   1.172  1.1210 -3.0077 -2.0792
  304MOL0     H41007   8.667   0.228   1.003  1.9874 -2.4033 -0.9243
  304MOL0     H41008   8.890   0.316   1.055 -3.3095 -2.1457 -4.5596
  304MOL0     H41009   8.877   0.254   1.230  0.8861 -0.9190 -1.2958
  304MOL0     H41010   8.857   0.079   0.986 -2.9507  0.0313  1.2388
  304MOL0     H41011   8.831   0.041   1.154 -0.7445 -0.6034 -1.6799
  304MOL0     H41012   9.098   0.156   1.043 -0.7465 -0.9637 -2.3460
  304MOL0     H41013   9.072   0.094   1.207  0.1163  3.1328 -0.2700
  304MOL0     H41014   9.013  -0.085   0.972 -0.1965 -2.1661  0.7057
  304MOL0     H41015   9.040  -0.131   1.136 -0.3897 -0.5636 -1.2874
  304MOL0     H41016   9.256  -0.015   0.968  0.6369 -1.8364 -2.2207
  304MOL0     H41017   9.263  -0.061   1.139 -0.4016  2.7210 -0.4586
  304MOL0     H41018   9.232  -0.231   0.866  3.1224 -0.7769 -1.0741
  304MOL0     H41019   9.197  -0.307   1.024 -0.6045 -0.6333 -1.7678
  304MOL0     H41020   9.434  -0.249   1.084 -1.1321 -0.3484  0.8668
  304MOL0     H41021   9.434  -0.165   0.919  0.2940 -3.7115 -3.2678
  304MOL0     H41022   8.547   0.458   0.916  1.1330  3.0870  1.2228
  304MOL0     H41023   8.302   0.498   0.885 -0.6974 -0.4093 -0.4149
  304MOL0     H41024   7.911   0.371   1.165 -3.8245 -2.0181  2.5344
  304MOL0     H41025   7.693   0.381   1.253 -1.1871 -0.5018 -2.3561
  304MOL0     H41026   8.493   0.272   1.572  0.6688  0.3744  2.0939
  304MOL0     H41027   8.718   0.232   1.498 -0.7969  0.4715 -0.4095
  304MOL0     H41028   9.264   0.444   1.666  2.4593 -1.2957  0.0651
  304MOL0     H41029   9.446   0.306   1.610 -0.8423 -1.7968  0.0304
  304MOL0     H41030   9.699   0.151   1.364 -0.8767 -3.1745  0.0177
  304MOL0     H41031   9.639   0.278   1.471  0.9018 -0.4108  0.5265
  304MOL0     H41032   9.564  -0.028   1.473  1.0657 -0.5499  0.7431
  304MOL0     H41033   9.506   0.093   1.589  2.2307  1.0796  1.0240
  304MOL0     H41034   9.710   0.140   1.688  0.7471  0.2985  0.8927
  304MOL0     H41035   9.808   0.068   1.570  0.0132  1.3672  0.2240
  304MOL0     H41036   9.673  -0.145   1.612  1.8425 -0.6404  0.1738
  304MOL0     H41037   9.612  -0.067   1.764 -0.2439 -1.2759 -0.6902
  304MOL0     H41038   9.984  -0.191   1.881  1.4495  0.1381 -1.2680
  304MOL0     H41039   9.272   0.254   1.213 -2.2050  0.2369  0.6164
  304MOL0     H41040   9.094   0.380   1.286  0.3692  3.1350  0.1846
  305MOL0     O41041   6.965   7.741   2.408  0.2894  0.3034 -0.5763
  305MOL0     C41042   7.051   7.818   2.383 -0.0789 -0.1132 -0.1455
  305MOL0     O41043   7.040   7.952   2.406  0.4656 -0.0049  0.6648
  305MOL0     C41044   6.919   8.019   2.413 -0.7966  0.1741  0.0872
  305MOL0     C41045   6.821   7.979   2.499 -0.0005 -0.6241 -0.1800
  305MOL0     C41046   6.702   8.046   2.507  0.8868  0.9070  0.1306
  305MOL0     C41047   6.681   8.161   2.438 -0.8606 -0.2397 -0.4491
  305MOL0     O41048   6.567   8.239   2.469 -0.5659  0.6164  1.1686
  305MOL0     C41049   6.568   8.295   2.602  0.6495  0.1510 -0.3688
  305MOL0     C41050   6.421   8.299   2.647  0.0929 -0.0883 -0.5126
  305MOL0     C41051   6.417   8.380   2.787 -0.0960  0.0745  0.8419
  305MOL0     C41052   6.279   8.412   2.835  0.4990 -0.1998 -0.4098
  305MOL0     C41053   6.282   8.435   2.988  0.2033 -0.9536  0.8776
  305MOL0     C41054   6.141   8.427   3.040 -1.2290  0.2353  0.7056
  305MOL0     C41055   6.143   8.414   3.190  0.3969 -0.5702 -0.1930
  305MOL0     C41056   6.013   8.480   3.238 -0.1413 -0.7377  0.2849
  305MOL0     N41057   5.995   8.456   3.380 -0.1737 -0.7250 -1.1385
  305MOL0     C41058   6.078   8.529   3.471  0.3359  1.4284  0.4418
  305MOL0     C41059   6.000   8.549   3.580  0.5766  0.4459  0.4508
  305MOL0     C41060   6.042   8.625   3.703  0.3045  0.5628 -0.0640
  305MOL0     C41061   6.010   8.553   3.828 -0.7068  0.5615 -0.2621
  305MOL0     C41062   6.052   8.651   3.945  0.4987  0.3118 -0.2513
  305MOL0     C41063   6.031   8.573   4.087  0.1297  0.1116  0.0305
  305MOL0     O41064   6.129   8.482   4.126  0.0141 -0.6831 -0.9481
  305MOL0     C41065   6.266   8.521   4.120  0.1117  0.8953  0.4808
  305MOL0     C41066   6.318   8.634   4.190 -0.0782  0.7724 -0.7254
  305MOL0     C41067   6.451   8.670   4.177  0.3140 -0.4305  0.3383
  305MOL0     C41068   6.504   8.804   4.233  0.5599  0.3900 -0.1890
  305MOL0     C41069   6.542   8.598   4.098  0.2538  0.8861  0.6738
  305MOL0     C41070   6.682   8.635   4.075  0.3076  0.4200  0.1004
  305MOL0     O41071   6.727   8.631   3.945  0.7407 -0.7617 -0.4295
  305MOL0     C41072   6.862   8.651   3.923 -0.8120 -0.4065 -0.3008
  305MOL0     C41073   6.911   8.775   3.883 -0.5068 -0.5471  0.6224
  305MOL0     C41074   7.050   8.797   3.878  0.9166 -1.0575 -0.1757
  305MOL0     C41075   7.137   8.698   3.918  0.1024  0.7987  0.1592
  305MOL0     O41076   7.272   8.699   3.947  0.2931  0.1406  0.7466
  305MOL0     C41077   7.347   8.769   3.846 -0.1762 -1.0582  0.9903
  305MOL0     C41078   7.486   8.811   3.907 -0.8866  0.5376  0.4366
  305MOL0     C41079   7.604   8.847   3.805 -0.0538  1.2259 -0.8349
  305MOL0     C41080   7.563   8.982   3.745  0.2311 -0.5779 -0.4129
  305MOL0     C41081   7.675   9.049   3.664  0.3146  0.4536  0.1774
  305MOL0     C41082   7.802   9.089   3.754  0.6139  0.4387  0.5143
  305MOL0     C41083   7.887   9.188   3.680  0.0858 -0.4707  0.2060
  305MOL0     C41084   8.014   9.132   3.625  0.3046  0.9507  0.7517
  305MOL0    Cl41085   8.124   9.073   3.761 -0.0958 -0.3796 -0.0182
  305MOL0     C41086   7.088   8.575   3.942 -0.1559  1.7704 -1.2442
  305MOL0     C41087   6.956   8.548   3.935  0.4994  0.1747 -0.6442
  305MOL0     O41088   6.754   8.658   4.176  0.9036  0.0424  0.0393
  305MOL0     C41089   6.495   8.482   4.032  0.6805 -0.7687  0.1728
  305MOL0     C41090   6.361   8.442   4.047 -0.0158 -1.2221 -0.2308
  305MOL0     N41091   5.865   8.517   3.555  0.1471  0.1525  1.0616
  305MOL0     N41092   5.870   8.459   3.436  0.0929  0.3516 -1.2270
  305MOL0     C41093   6.784   8.203   2.352  0.8138 -0.1356 -0.1084
  305MOL0     C41094   6.904   8.135   2.338  0.1789 -0.0082  0.1060
  305MOL0     C41095   7.187   7.770   2.347 -0.2203  0.5963  0.3302
  305MOL0     C41096   7.292   7.845   2.289  0.2259 -0.2783 -0.0831
  305MOL0     C41097   7.411   7.774   2.254 -0.2834  0.0740 -1.5276
  305MOL0     C41098   7.428   7.641   2.285  0.2164 -0.6103  0.7056
  305MOL0     O41099   7.558   7.593   2.266 -0.3335  0.0586 -0.6855
  305MOL0     C41100   7.576   7.457   2.260 -0.8918  0.3562 -0.1631
  305MOL0     C41101   7.601   7.396   2.402 -0.1418  0.2303 -0.4015
  305MOL0     C41102   7.716   7.458   2.460  0.3845 -0.6344 -0.7709
  305MOL0     C41103   7.774   7.378   2.579 -0.0716 -0.4985  0.4672
  305MOL0     C41104   7.697   7.404   2.692 -0.2485  0.1459  0.5824
  305MOL0     C41105   7.634   7.425   2.794 -0.0431 -0.2321 -0.0044
  305MOL0     C41106   7.323   7.568   2.337 -0.1587  0.3260 -0.3681
  305MOL0     C41107   7.211   7.637   2.380 -0.3447  0.5128  0.5003
  305MOL0     H41108   6.823   7.888   2.557 -3.7168  0.0570  1.3078
  305MOL0     H41109   6.625   8.024   2.581  2.8085  0.9097  2.2680
  305MOL0     H41110   6.631   8.255   2.682  1.6303  2.6637  0.2118
  305MOL0     H41111   6.588   8.401   2.584 -0.3919 -0.2247 -4.7468
  305MOL0     H41112   6.356   8.339   2.568  1.7804  0.3391 -1.7368
  305MOL0     H41113   6.380   8.198   2.659 -2.5790  0.8301 -1.2001
  305MOL0     H41114   6.461   8.316   2.864 -3.0657 -2.0846  0.9314
  305MOL0     H41115   6.476   8.472   2.781  0.4283 -0.3170 -0.4425
  305MOL0     H41116   6.241   8.499   2.780 -0.6949  0.8907  1.9867
  305MOL0     H41117   6.218   8.326   2.807 -0.5561  1.0004 -1.9875
  305MOL0     H41118   6.347   8.368   3.045  2.0486  0.5168  0.6169
  305MOL0     H41119   6.335   8.528   3.014  1.1858 -1.3376  0.2948
  305MOL0     H41120   6.088   8.511   2.996 -1.2387  0.6236  1.4465
  305MOL0     H41121   6.093   8.339   2.995 -1.4679  0.8556 -0.2833
  305MOL0     H41122   6.143   8.310   3.223 -1.5472 -0.4209  0.4026
  305MOL0     H41123   6.235   8.461   3.227 -0.5615  1.1832  0.1036
  305MOL0     H41124   5.932   8.438   3.178  0.8281 -1.6507 -0.4096
  305MOL0     H41125   6.026   8.587   3.219  0.3008 -1.0451 -1.2982
  305MOL0     H41126   6.179   8.565   3.455  0.1497  0.9338 -2.2760
  305MOL0     H41127   6.149   8.645   3.701  0.6814 -1.3545 -0.8688
  305MOL0     H41128   5.992   8.722   3.700 -2.0396 -0.6015 -1.7622
  305MOL0     H41129   6.068   8.461   3.823  0.3339  0.9870  2.4334
  305MOL0     H41130   5.906   8.520   3.833  0.0364 -1.6976  2.3899
  305MOL0     H41131   5.991   8.742   3.948 -0.2400 -0.1399 -1.0920
  305MOL0     H41132   6.154   8.686   3.926  1.7899 -1.7935  2.1747
  305MOL0     H41133   5.939   8.514   4.078  0.5297 -0.6943  0.9771
  305MOL0     H41134   6.025   8.648   4.166  2.0058 -0.7616  1.0654
  305MOL0     H41135   6.243   8.698   4.235 -2.3217 -1.3103 -1.2343
  305MOL0     H41136   6.522   8.876   4.153  0.9620 -1.2130 -1.6001
  305MOL0     H41137   6.417   8.844   4.286  0.8499 -0.1861  0.7530
  305MOL0     H41138   6.581   8.790   4.309 -0.7559  1.6987  1.4594
  305MOL0     H41139   6.845   8.859   3.863 -0.4557 -0.7701 -0.5115
  305MOL0     H41140   7.090   8.893   3.850 -0.1490 -0.0150  1.6626
  305MOL0     H41141   7.367   8.707   3.757  1.0108  3.2753 -2.1291
  305MOL0     H41142   7.299   8.858   3.804 -2.3417 -2.1825  0.9247
  305MOL0     H41143   7.466   8.896   3.973  2.0149  0.4721  1.5332
  305MOL0     H41144   7.517   8.729   3.971 -0.2824  2.2512  2.4484
  305MOL0     H41145   7.602   8.766   3.732  1.2209  0.3317  0.0840
  305MOL0     H41146   7.698   8.858   3.859 -0.2208 -1.4627  0.1244
  305MOL0     H41147   7.480   8.966   3.677 -0.5953 -0.7863  0.6224
  305MOL0     H41148   7.523   9.051   3.820  0.9872 -0.4885 -0.0747
  305MOL0     H41149   7.645   9.137   3.606  2.0300 -0.3629 -2.0799
  305MOL0     H41150   7.703   8.973   3.591  0.9750 -1.1602  2.0165
  305MOL0     H41151   7.776   9.117   3.856  2.0054  1.5622  0.5871
  305MOL0     H41152   7.852   8.992   3.761 -4.6289 -2.7611 -0.7300
  305MOL0     H41153   7.914   9.261   3.757  0.5109 -2.0236  1.5874
  305MOL0     H41154   7.830   9.228   3.596 -1.1137 -3.3119 -0.4194
  305MOL0     H41155   8.062   9.215   3.572  1.9168 -0.2615  0.2330
  305MOL0     H41156   7.989   9.054   3.553  0.2900  1.8864 -0.2917
  305MOL0     H41157   7.149   8.493   3.978  1.1543  3.3212  0.2191
  305MOL0     H41158   6.914   8.451   3.961 -0.8298  0.5810 -1.2230
  305MOL0     H41159   6.552   8.424   3.961  1.6508 -2.3183  2.1179
  305MOL0     H41160   6.327   8.349   4.002 -0.1292 -0.5646 -1.5553
  305MOL0     H41161   6.789   8.290   2.287  2.2800 -0.9529 -1.1806
  305MOL0     H41162   6.983   8.175   2.275 -1.2557  3.0579  0.0484
  305MOL0     H41163   7.282   7.951   2.269  1.3259  0.1505  1.4577
  305MOL0     H41164   7.488   7.836   2.207 -0.1912  1.4917  0.3583
  305MOL0     H41165   7.496   7.398   2.214  0.3466  0.3132 -2.3703
  305MOL0     H41166   7.666   7.432   2.203  0.2798  1.3811  1.1697
  305MOL0     H41167   7.618   7.289   2.391  1.4423  0.5238 -1.2644
  305MOL0     H41168   7.511   7.402   2.463  0.4652  0.6765  0.4748
  305MOL0     H41169   7.703   7.562   2.493 -2.9366 -1.4733  1.0132
  305MOL0     H41170   7.790   7.455   2.380  2.0468 -0.7133  0.7099
  305MOL0     H41171   7.881   7.396   2.594  0.5090 -3.1956  0.1386
  305MOL0     H41172   7.774   7.271   2.556  1.3627 -0.6372  0.9859
  305MOL0     H41173   7.584   7.455   2.884  2.0249  1.0347  0.7843
  305MOL0     H41174   7.325   7.461   2.355  0.5842  0.2670 -0.7427
  305MOL0     H41175   7.136   7.567   2.415 -0.5676 -0.5247 -1.8341
  306MOL0     O41176   0.388   0.372   0.248 -0.5626  0.2109 -0.4802
  306MOL0     C41177   0.450   0.365   0.358  0.0087 -0.3536  0.3590
  306MOL0     O41178   0.392   0.392   0.482 -0.2051  0.4492  0.5942
  306MOL0     C41179   0.254   0.421   0.492  0.4534  0.5385  0.3310
  306MOL0     C41180   0.147   0.380   0.406 -0.0098  0.3612  0.2745
  306MOL0     C41181   0.011   0.423   0.418  0.0012 -0.0232  0.0163
  306MOL0     C41182  -0.013   0.506   0.531 -0.4312  0.5843  0.9695
  306MOL0     O41183  -0.146   0.547   0.537  0.4733  0.2202  1.1820
  306MOL0     C41184  -0.175   0.631   0.644  0.9728  0.1327  0.2075
  306MOL0     C41185  -0.327   0.630   0.666  0.0400 -0.7051 -0.2587
  306MOL0     C41186  -0.388   0.687   0.532  0.3738 -0.2334  0.8108
  306MOL0     C41187  -0.534   0.719   0.547  0.2846 -0.3373  0.9900
  306MOL0     C41188  -0.619   0.590   0.547  0.4257 -0.3689 -0.6999
  306MOL0     C41189  -0.780   0.627   0.549  0.1194  0.1269  0.3635
  306MOL0     C41190  -0.854   0.497   0.579 -0.0909 -0.1146  0.6052
  306MOL0     C41191  -1.001   0.517   0.605  0.3481  0.3085  0.0681
  306MOL0     N41192  -1.060   0.382   0.608  0.7236  0.2734  0.4440
  306MOL0     C41193  -1.078   0.297   0.499 -0.2381  1.2781  0.1486
  306MOL0     C41194  -1.167   0.200   0.531  0.9600  0.1000  0.5173
  306MOL0     C41195  -1.198   0.084   0.437  0.1848 -0.6066 -0.2757
  306MOL0     C41196  -1.113  -0.046   0.456  0.2806 -0.7169  0.6533
  306MOL0     C41197  -1.115  -0.100   0.605 -0.5440 -0.7349 -0.9902
  306MOL0     C41198  -1.075  -0.243   0.606  0.3395 -0.6580 -0.4424
  306MOL0     O41199  -1.045  -0.272   0.744 -0.2418 -0.1081 -0.1019
  306MOL0     C41200  -0.940  -0.354   0.790  0.0768 -0.3619  0.5416
  306MOL0     C41201  -0.923  -0.354   0.930  0.4657 -0.1880 -0.0480
  306MOL0     C41202  -0.842  -0.443   0.996  0.1544 -0.6604 -0.6060
  306MOL0     C41203  -0.853  -0.466   1.150  0.5584 -0.0662  0.7315
  306MOL0     C41204  -0.772  -0.535   0.917  0.1236  0.6223  0.3680
  306MOL0     C41205  -0.681  -0.638   0.976 -0.0212 -0.3243  0.4601
  306MOL0     O41206  -0.555  -0.640   0.917  0.0700 -0.3142  0.1228
  306MOL0     C41207  -0.482  -0.756   0.928 -0.3989 -0.4554  0.2223
  306MOL0     C41208  -0.513  -0.889   0.966 -0.7273 -0.2975 -0.6408
  306MOL0     C41209  -0.410  -0.988   0.971  0.0430 -0.3297  0.6499
  306MOL0     C41210  -0.270  -0.953   0.951  0.0735 -0.2631  0.2395
  306MOL0     O41211  -0.164  -1.041   0.951 -0.3700  0.0282  0.2233
  306MOL0     C41212  -0.191  -1.184   0.969  0.8797 -0.4480  0.5071
  306MOL0     C41213  -0.065  -1.261   0.992  0.1520  0.0007  0.2005
  306MOL0     C41214   0.038  -1.230   0.879  0.3538  0.4596 -0.1465
  306MOL0     C41215   0.174  -1.275   0.927  0.6429 -1.0742  0.6330
  306MOL0     C41216   0.274  -1.306   0.813 -0.6332 -0.1655  0.3548
  306MOL0     C41217   0.418  -1.304   0.860  0.1395 -1.1499 -0.0286
  306MOL0     C41218   0.501  -1.313   0.735 -0.3195  0.3212 -1.3483
  306MOL0     C41219   0.523  -1.182   0.671 -0.2297 -0.1871 -0.1579
  306MOL0    Cl41220   0.635  -1.070   0.780 -0.2018  0.0630  0.0585
  306MOL0     C41221  -0.248  -0.824   0.906  0.0294  0.6670 -0.4921
  306MOL0     C41222  -0.343  -0.725   0.905  0.4693 -0.2465  0.2671
  306MOL0     O41223  -0.727  -0.713   1.062 -0.1785 -0.4224 -0.2439
  306MOL0     C41224  -0.782  -0.533   0.776  0.3596 -0.0404  0.3517
  306MOL0     C41225  -0.873  -0.446   0.715  0.2787  0.0713 -0.4336
  306MOL0     N41226  -1.199   0.216   0.664  0.2582  0.2406 -0.2175
  306MOL0     N41227  -1.125   0.317   0.705 -0.2503  0.4449 -0.3308
  306MOL0     C41228   0.088   0.540   0.621 -0.3111  0.2689 -0.4411
  306MOL0     C41229   0.219   0.496   0.607 -0.3780 -0.2710 -0.3305
  306MOL0     C41230   0.588   0.344   0.351 -0.4331 -0.1223 -0.5596
  306MOL0     C41231   0.665   0.395   0.457  0.5215  0.1778 -1.2656
  306MOL0     C41232   0.803   0.381   0.452  0.3787  0.3769 -0.1370
  306MOL0     C41233   0.866   0.327   0.343 -0.5215 -0.4181  0.4289
  306MOL0     O41234   1.002   0.330   0.346  0.9596  0.3459  0.0073
  306MOL0     C41235   1.058   0.208   0.397  0.0780  0.1102 -0.0956
  306MOL0     C41236   1.095   0.110   0.284 -0.6287 -0.3365 -0.2403
  306MOL0     C41237   1.206   0.009   0.343  0.0771  0.1616  0.1565
  306MOL0     C41238   1.291  -0.048   0.229 -0.1980 -0.6873  0.5036
  306MOL0     C41239   1.389  -0.150   0.270  0.2279 -0.2791  1.0677
  306MOL0     C41240   1.478  -0.226   0.310  1.0706  0.2360 -0.8318
  306MOL0     C41241   0.795   0.287   0.230 -0.1169 -0.1086  0.2034
  306MOL0     C41242   0.653   0.286   0.237 -0.0809  0.2132  0.0157
  306MOL0     H41243   0.166   0.311   0.325  1.0108  0.3316  0.5246
  306MOL0     H41244  -0.069   0.392   0.351 -0.2949  3.7760 -1.5874
  306MOL0     H41245  -0.121   0.611   0.736 -2.1396 -2.3239  1.6879
  306MOL0     H41246  -0.146   0.733   0.617  0.9919 -0.3000 -1.5858
  306MOL0     H41247  -0.358   0.528   0.691 -0.2417 -0.5006  0.2267
  306MOL0     H41248  -0.358   0.690   0.751 -0.1533 -0.1344 -0.7246
  306MOL0     H41249  -0.345   0.782   0.498 -3.5158  0.8512 -1.6725
  306MOL0     H41250  -0.375   0.616   0.449  0.7588  0.9058 -0.1426
  306MOL0     H41251  -0.558   0.779   0.635 -1.6676 -0.4490  0.5827
  306MOL0     H41252  -0.571   0.785   0.468  0.6055 -1.7799 -0.4150
  306MOL0     H41253  -0.600   0.527   0.460 -1.9866 -0.3719 -1.3010
  306MOL0     H41254  -0.605   0.519   0.629 -3.3313 -1.1007 -0.4807
  306MOL0     H41255  -0.816   0.704   0.618 -1.0431  0.4042 -0.5269
  306MOL0     H41256  -0.807   0.667   0.451 -0.5834 -1.2550 -0.0298
  306MOL0     H41257  -0.841   0.423   0.499  0.3874 -0.7757  1.2851
  306MOL0     H41258  -0.819   0.447   0.669 -0.9974  1.0256  1.6146
  306MOL0     H41259  -1.044   0.574   0.522  1.6867 -0.9082 -1.5323
  306MOL0     H41260  -1.021   0.579   0.693  3.4599  2.0993 -0.3554
  306MOL0     H41261  -1.031   0.289   0.401 -2.0921 -3.0297 -0.6237
  306MOL0     H41262  -1.305   0.067   0.449  0.1423  0.6628  1.6607
  306MOL0     H41263  -1.175   0.123   0.337  0.8882  0.3736  0.2444
  306MOL0     H41264  -1.010  -0.032   0.422 -0.2241 -2.1218 -1.7545
  306MOL0     H41265  -1.162  -0.126   0.400  0.3120  0.5081 -1.2215
  306MOL0     H41266  -1.215  -0.088   0.646 -0.7688 -0.3889 -1.6252
  306MOL0     H41267  -1.053  -0.034   0.667 -0.9274 -1.1080 -0.1964
  306MOL0     H41268  -0.988  -0.250   0.540 -1.7979 -1.2665 -3.4300
  306MOL0     H41269  -1.146  -0.313   0.561 -1.1608 -0.5202  1.5762
  306MOL0     H41270  -0.971  -0.272   0.983 -0.0627  0.1837 -1.0761
  306MOL0     H41271  -0.898  -0.378   1.197  0.7360  0.2122  0.3813
  306MOL0     H41272  -0.904  -0.554   1.191 -1.5114  0.8700  0.2704
  306MOL0     H41273  -0.750  -0.465   1.187  0.8975 -0.5698 -0.1729
  306MOL0     H41274  -0.620  -0.905   0.967 -1.2515  2.6573 -0.8982
  306MOL0     H41275  -0.442  -1.091   0.979 -0.5216 -0.1178  1.2338
  306MOL0     H41276  -0.260  -1.205   1.051 -0.9660 -0.2545 -0.9446
  306MOL0     H41277  -0.232  -1.213   0.872 -0.5457 -1.0037  1.2487
  306MOL0     H41278  -0.031  -1.233   1.092 -0.0273 -1.5099  0.7021
  306MOL0     H41279  -0.094  -1.366   0.987 -0.8352  0.3226 -1.5699
  306MOL0     H41280   0.038  -1.122   0.865 -0.5340  0.6392  1.0990
  306MOL0     H41281   0.006  -1.284   0.790 -1.2029 -2.8936  2.2349
  306MOL0     H41282   0.207  -1.197   0.996 -1.7749 -1.5602  2.4598
  306MOL0     H41283   0.172  -1.362   0.994 -0.1415 -1.7521 -0.2578
  306MOL0     H41284   0.261  -1.249   0.721 -0.6130 -1.2513 -0.3323
  306MOL0     H41285   0.269  -1.411   0.783  2.2906 -0.6009  1.0932
  306MOL0     H41286   0.440  -1.225   0.932  0.6158  0.1020 -1.5041
  306MOL0     H41287   0.446  -1.393   0.918  0.6175 -2.0306 -1.5653
  306MOL0     H41288   0.453  -1.386   0.669 -1.9753 -1.0027  1.1606
  306MOL0     H41289   0.602  -1.350   0.756  0.3438  2.9184  0.4904
  306MOL0     H41290   0.432  -1.125   0.654 -0.6706  0.7529  4.2088
  306MOL0     H41291   0.566  -1.211   0.574  2.5263  1.2043  0.5347
  306MOL0     H41292  -0.150  -0.780   0.890 -0.5947  1.1643 -3.5770
  306MOL0     H41293  -0.315  -0.627   0.868 -0.2694  0.2018  0.8464
  306MOL0     H41294  -0.734  -0.607   0.712 -1.2212  1.5965 -2.9587
  306MOL0     H41295  -0.887  -0.449   0.607 -1.7549 -0.3293 -0.1983
  306MOL0     H41296   0.073   0.602   0.708  1.1621  0.4187 -0.2734
  306MOL0     H41297   0.292   0.536   0.677 -0.4616 -1.3376  0.3848
  306MOL0     H41298   0.625   0.437   0.548 -1.0777 -1.7154 -1.0275
  306MOL0     H41299   0.869   0.419   0.529  3.5493 -1.4216 -1.7460
  306MOL0     H41300   1.143   0.230   0.463 -1.8479 -3.7534  4.2574
  306MOL0     H41301   1.000   0.151   0.471  2.6655  1.0886  2.9302
  306MOL0     H41302   1.139   0.164   0.201  2.3144  0.1548  1.5002
  306MOL0     H41303   1.010   0.051   0.247 -0.1007 -0.6584 -0.9464
  306MOL0     H41304   1.156  -0.071   0.399 -0.2809 -0.0779 -0.4936
  306MOL0     H41305   1.274   0.056   0.415  1.0106 -1.5190  0.4137
  306MOL0     H41306   1.355   0.036   0.203  2.7522 -3.0242 -0.3243
  306MOL0     H41307   1.224  -0.080   0.148 -1.8117 -0.6267  1.7557
  306MOL0     H41308   1.546  -0.296   0.355  0.9385  0.9195  0.4847
  306MOL0     H41309   0.844   0.260   0.137 -1.8192  0.1304 -0.8099
  306MOL0     H41310   0.597   0.263   0.146 -0.2425  1.7672 -0.3058
  307MOL0     O41311   7.934   4.976   3.132 -0.4825 -0.2030  0.3040
  307MOL0     C41312   7.980   5.087   3.112  0.1082 -0.1054 -0.2125
  307MOL0     O41313   7.941   5.202   3.172 -0.1109 -0.2928 -0.8395
  307MOL0     C41314   7.811   5.197   3.222 -0.5239 -0.4854 -0.0603
  307MOL0     C41315   7.785   5.179   3.357 -0.0291  0.4308  0.2622
  307MOL0     C41316   7.651   5.162   3.411 -0.2137 -0.2061 -0.0281
  307MOL0     C41317   7.540   5.183   3.318 -0.6608  0.9990 -0.1397
  307MOL0     O41318   7.402   5.179   3.351 -0.5395  0.0515 -0.0391
  307MOL0     C41319   7.369   5.125   3.479 -0.3832 -0.0760  0.0012
  307MOL0     C41320   7.229   5.148   3.515 -0.8602 -0.4107  0.6258
  307MOL0     C41321   7.141   5.042   3.463  0.3024 -0.5143  0.9998
  307MOL0     C41322   7.000   5.043   3.518  0.1233 -0.0356 -0.1576
  307MOL0     C41323   6.991   4.935   3.619 -0.2286 -0.0415 -0.6274
  307MOL0     C41324   6.850   4.887   3.634  1.0724  0.1285  0.2927
  307MOL0     C41325   6.833   4.818   3.767 -0.0814 -0.4230 -0.4227
  307MOL0     C41326   6.894   4.675   3.776  0.3639  0.8675  0.4635
  307MOL0     N41327   6.817   4.601   3.872  0.0877  0.4199 -0.3774
  307MOL0     C41328   6.850   4.595   4.005  0.3937 -0.6502 -0.3788
  307MOL0     C41329   6.763   4.508   4.057 -0.5958 -0.4273 -0.3947
  307MOL0     C41330   6.754   4.457   4.191 -0.0986  0.3051 -0.2798
  307MOL0     C41331   6.807   4.314   4.215 -0.6433 -0.1788 -1.1665
  307MOL0     C41332   6.842   4.271   4.362  0.0274 -0.5946 -0.3862
  307MOL0     C41333   6.735   4.262   4.467  0.0332 -0.4505  0.1706
  307MOL0     O41334   6.730   4.399   4.507  0.3783  0.1197 -0.1107
  307MOL0     C41335   6.614   4.437   4.564  0.1047 -0.4474  0.1728
  307MOL0     C41336   6.596   4.578   4.580  0.0853 -1.0868 -0.3006
  307MOL0     C41337   6.474   4.630   4.629  0.3344 -0.1132 -0.1617
  307MOL0     C41338   6.462   4.777   4.656  0.6036 -0.2502  0.1572
  307MOL0     C41339   6.369   4.540   4.669  0.1399  0.1216  0.3643
  307MOL0     C41340   6.229   4.584   4.705 -0.8518  0.4426 -0.8506
  307MOL0     O41341   6.139   4.477   4.722  0.9111 -0.1781  0.1453
  307MOL0     C41342   6.004   4.491   4.755 -0.6563 -0.2554  0.4893
  307MOL0     C41343   5.916   4.591   4.705  0.1781  0.6362  0.2737
  307MOL0     C41344   5.780   4.598   4.739 -0.3394  0.2967 -0.1168
  307MOL0     C41345   5.734   4.495   4.820  1.2387 -0.7419  0.0343
  307MOL0     O41346   5.604   4.512   4.862 -0.4523  0.5172  0.0046
  307MOL0     C41347   5.513   4.411   4.814 -0.6442  0.3487 -0.4196
  307MOL0     C41348   5.371   4.459   4.827 -0.4894  0.5475  0.2105
  307MOL0     C41349   5.278   4.349   4.785  0.0550  1.0435  0.5677
  307MOL0     C41350   5.199   4.260   4.887  0.0196 -0.2453  0.8184
  307MOL0     C41351   5.096   4.170   4.820  0.3791 -0.0007 -0.1969
  307MOL0     C41352   4.969   4.241   4.762 -0.6018 -0.6091  0.0656
  307MOL0     C41353   4.915   4.359   4.853 -0.0400 -0.3283 -0.3912
  307MOL0     C41354   4.775   4.392   4.791  0.6337 -0.3989  0.7220
  307MOL0    Cl41355   4.651   4.259   4.820  0.2008 -0.0863  0.3291
  307MOL0     C41356   5.816   4.402   4.880 -0.5416 -0.1735  0.2830
  307MOL0     C41357   5.950   4.392   4.841 -0.0123 -0.2956 -0.4621
  307MOL0     O41358   6.193   4.701   4.715 -1.7755  0.3111  0.7988
  307MOL0     C41359   6.402   4.403   4.670  0.2024  1.1184 -0.4109
  307MOL0     C41360   6.518   4.358   4.619 -0.1095 -0.0153 -0.6885
  307MOL0     N41361   6.676   4.475   3.962  0.3821 -0.0533  0.7998
  307MOL0     N41362   6.702   4.539   3.848  1.0242  0.1534 -0.2032
  307MOL0     C41363   7.573   5.211   3.182  0.1603  0.5278 -0.3155
  307MOL0     C41364   7.707   5.224   3.133  0.4161 -0.0440 -0.3195
  307MOL0     C41365   8.098   5.091   3.022  0.2786  0.0583  0.8104
  307MOL0     C41366   8.115   4.996   2.922  0.1693  0.5951  0.2907
  307MOL0     C41367   8.231   5.014   2.848 -0.6601  0.4161 -0.3692
  307MOL0     C41368   8.327   5.109   2.876 -0.5025 -0.2180 -0.2520
  307MOL0     O41369   8.445   5.117   2.798 -0.3647  0.1381 -0.2661
  307MOL0     C41370   8.432   5.146   2.661  0.3846  0.2532 -0.1102
  307MOL0     C41371   8.550   5.088   2.590  0.2060 -0.5820  0.4130
  307MOL0     C41372   8.562   4.942   2.596 -0.8579  0.7062 -0.1789
  307MOL0     C41373   8.659   4.874   2.496  0.4771  1.1268  0.0093
  307MOL0     C41374   8.802   4.900   2.531 -0.0425  0.4183 -0.1170
  307MOL0     C41375   8.915   4.927   2.576  0.1276 -0.0119 -0.4131
  307MOL0     C41376   8.312   5.203   2.980  0.1349 -0.0709 -0.1509
  307MOL0     C41377   8.197   5.192   3.058  0.4374  0.0203 -0.7425
  307MOL0     H41378   7.868   5.178   3.427 -0.0476  2.9079  0.3832
  307MOL0     H41379   7.652   5.145   3.518  0.3848  4.3435  0.8863
  307MOL0     H41380   7.400   5.021   3.493  1.4925  0.5273  0.6615
  307MOL0     H41381   7.422   5.176   3.560  0.2458  2.1853 -1.7158
  307MOL0     H41382   7.236   5.145   3.624  2.1707  1.1684  0.5840
  307MOL0     H41383   7.197   5.246   3.479 -1.8512 -2.1238 -3.7687
  307MOL0     H41384   7.132   5.067   3.356  2.3727  2.4114  1.3713
  307MOL0     H41385   7.177   4.942   3.489  1.6840  0.0216  1.2470
  307MOL0     H41386   6.972   5.133   3.573 -0.3872 -1.0560  1.3242
  307MOL0     H41387   6.930   5.027   3.436 -1.2880 -1.1229  1.1908
  307MOL0     H41388   7.036   4.838   3.596 -0.7328 -0.2126 -0.8980
  307MOL0     H41389   7.031   4.975   3.713 -1.3284  0.6555 -0.4467
  307MOL0     H41390   6.781   4.972   3.631  2.3504  1.3520  2.7344
  307MOL0     H41391   6.824   4.820   3.551 -0.8201  0.1733  0.8100
  307MOL0     H41392   6.880   4.875   3.848  4.4887 -2.7759 -1.1117
  307MOL0     H41393   6.725   4.814   3.784  0.0068 -2.2462 -0.0469
  307MOL0     H41394   7.001   4.667   3.796  0.1229  1.6029  2.3134
  307MOL0     H41395   6.882   4.623   3.681  0.5690 -0.4836  1.1547
  307MOL0     H41396   6.937   4.642   4.049  1.3019  0.9522 -3.6206
  307MOL0     H41397   6.814   4.520   4.258 -1.5961  0.6611  0.7886
  307MOL0     H41398   6.653   4.467   4.232  1.4179  2.7460  3.4031
  307MOL0     H41399   6.898   4.290   4.161 -0.9142 -0.9051 -1.3157
  307MOL0     H41400   6.730   4.242   4.183 -0.4906 -0.9798  0.1902
  307MOL0     H41401   6.909   4.355   4.382 -0.8481 -0.2155  1.1342
  307MOL0     H41402   6.899   4.179   4.374 -0.7570 -0.7847  2.3735
  307MOL0     H41403   6.766   4.203   4.555 -1.7755 -0.8289  0.6003
  307MOL0     H41404   6.644   4.220   4.423  0.0898  0.6581 -1.0364
  307MOL0     H41405   6.673   4.647   4.546 -1.5473  0.2971 -1.2946
  307MOL0     H41406   6.386   4.819   4.589 -0.4298 -0.4613  1.1668
  307MOL0     H41407   6.430   4.804   4.757  0.6763 -1.8759  0.6328
  307MOL0     H41408   6.551   4.836   4.631 -0.2468  0.3423 -1.6821
  307MOL0     H41409   5.946   4.675   4.643 -3.5691  0.3509 -2.2613
  307MOL0     H41410   5.717   4.674   4.695 -2.3356 -1.9734 -1.4385
  307MOL0     H41411   5.535   4.379   4.712 -1.0323 -0.1354 -0.3526
  307MOL0     H41412   5.527   4.327   4.882 -0.4270  2.5193  2.4148
  307MOL0     H41413   5.361   4.475   4.935 -1.7035 -0.1544  0.2320
  307MOL0     H41414   5.349   4.551   4.774 -0.0659  1.0039  0.8080
  307MOL0     H41415   5.331   4.280   4.718 -0.0823  1.3821  0.1055
  307MOL0     H41416   5.206   4.403   4.724 -1.3833 -0.0327  1.2636
  307MOL0     H41417   5.273   4.204   4.944  1.5745  1.0676  0.1701
  307MOL0     H41418   5.137   4.320   4.954 -0.5097 -0.0669  0.1886
  307MOL0     H41419   5.060   4.110   4.905 -2.7312 -1.1805 -2.1749
  307MOL0     H41420   5.152   4.109   4.749  3.3065  0.1209  1.8133
  307MOL0     H41421   4.999   4.286   4.667 -0.2527  1.0312  0.9199
  307MOL0     H41422   4.885   4.171   4.753  0.0737 -1.5141  0.6309
  307MOL0     H41423   4.982   4.445   4.857  1.6684 -1.6308  0.3692
  307MOL0     H41424   4.903   4.337   4.960  1.7430  0.7370  0.0585
  307MOL0     H41425   4.793   4.417   4.686 -1.0080 -2.9944 -0.3008
  307MOL0     H41426   4.742   4.484   4.840  0.4099 -0.7972  1.3330
  307MOL0     H41427   5.776   4.329   4.949 -2.0350  2.2647  2.1382
  307MOL0     H41428   6.008   4.314   4.889  0.6093 -0.0756 -0.8476
  307MOL0     H41429   6.336   4.318   4.688  1.3182  0.2651 -0.1917
  307MOL0     H41430   6.522   4.250   4.621 -1.6260 -0.1113  2.5064
  307MOL0     H41431   7.497   5.216   3.105  0.0328  1.4646 -0.1427
  307MOL0     H41432   7.715   5.240   3.026 -2.0671 -1.6455 -0.8260
  307MOL0     H41433   8.037   4.928   2.888  1.6332 -1.1421  0.2109
  307MOL0     H41434   8.234   4.940   2.769 -2.4636  0.2635 -0.3308
  307MOL0     H41435   8.338   5.116   2.614  0.3731  1.2320 -0.7311
  307MOL0     H41436   8.439   5.254   2.642  3.5271 -0.0994 -1.4707
  307MOL0     H41437   8.637   5.132   2.639 -1.9801  0.2072  3.9222
  307MOL0     H41438   8.535   5.118   2.486 -1.5211 -1.7288  0.2852
  307MOL0     H41439   8.464   4.894   2.596 -0.4319 -0.4055  3.0963
  307MOL0     H41440   8.591   4.911   2.697  3.1821 -0.1796 -1.4118
  307MOL0     H41441   8.638   4.919   2.398 -4.6912 -1.2766 -0.3157
  307MOL0     H41442   8.655   4.765   2.493  0.0992  1.1292  0.3606
  307MOL0     H41443   9.016   4.934   2.608  0.3308 -2.8073 -0.1903
  307MOL0     H41444   8.394   5.273   2.987 -0.6919  1.0274 -0.9454
  307MOL0     H41445   8.180   5.265   3.137 -0.0133 -0.1828 -0.6468
  308MOL0     O41446   7.043   4.753   9.426 -0.1802  0.4374  0.0888
  308MOL0     C41447   7.024   4.778   9.546  0.1737 -0.7498  0.7239
  308MOL0     O41448   6.954   4.706   9.627  0.1701 -0.5756 -0.0485
  308MOL0     C41449   6.852   4.623   9.595  0.0289 -0.4555 -0.1945
  308MOL0     C41450   6.827   4.527   9.699  0.5726 -0.2698  0.9097
  308MOL0     C41451   6.709   4.447   9.691 -0.2811  0.3698  0.5629
  308MOL0     C41452   6.634   4.447   9.582  0.4444 -0.2258  0.9226
  308MOL0     O41453   6.519   4.362   9.573 -0.2698  0.4232 -0.5385
  308MOL0     C41454   6.488   4.288   9.448 -1.0263 -0.4850 -0.8396
  308MOL0     C41455   6.572   4.161   9.437  0.5187  0.4834  0.7592
  308MOL0     C41456   6.562   4.077   9.560 -0.9114 -0.7647  0.1390
  308MOL0     C41457   6.633   3.935   9.545  0.3821 -0.4034  0.3176
  308MOL0     C41458   6.636   3.857   9.673  0.2219 -0.8968 -0.3757
  308MOL0     C41459   6.717   3.731   9.659 -1.0454  0.7668 -0.0196
  308MOL0     C41460   6.722   3.675   9.803 -0.1812  0.2104 -0.8891
  308MOL0     C41461   6.594   3.607   9.847  0.4461  0.1966 -0.8485
  308MOL0     N41462   6.555   3.488   9.765  0.5679  0.6928  0.6054
  308MOL0     C41463   6.457   3.475   9.666 -0.2032 -0.3790 -0.3485
  308MOL0     C41464   6.454   3.339   9.635 -0.0604 -0.7311  0.1484
  308MOL0     C41465   6.381   3.266   9.520 -0.3363 -0.3829 -0.6550
  308MOL0     C41466   6.235   3.289   9.520 -0.2654  0.7977  0.2292
  308MOL0     C41467   6.160   3.193   9.429  1.1934 -0.1859 -0.8689
  308MOL0     C41468   6.009   3.220   9.446  0.0354 -0.2067 -0.1218
  308MOL0     O41469   5.935   3.156   9.339  0.1636  0.2661 -0.2009
  308MOL0     C41470   5.794   3.145   9.347  0.9325 -0.1402  0.3050
  308MOL0     C41471   5.739   3.047   9.270  0.3864  0.2908  0.6091
  308MOL0     C41472   5.602   3.016   9.273 -0.4517  0.7752 -0.0939
  308MOL0     C41473   5.550   2.909   9.180 -0.2360  0.3721  0.3573
  308MOL0     C41474   5.519   3.076   9.368  0.4480  0.0059  0.3356
  308MOL0     C41475   5.382   3.036   9.390  0.2996  1.2485 -1.0185
  308MOL0     O41476   5.299   3.135   9.436 -0.2322 -0.9932 -0.1594
  308MOL0     C41477   5.168   3.117   9.457  0.2147  1.3825 -0.1587
  308MOL0     C41478   5.136   2.998   9.541  1.0112 -0.7856  0.1689
  308MOL0     C41479   5.001   2.970   9.555 -0.0061  0.4564 -0.1917
  308MOL0     C41480   4.907   3.061   9.523 -0.4105  0.1879  0.0640
  308MOL0     O41481   4.777   3.033   9.544  0.0169 -0.4686 -0.1173
  308MOL0     C41482   4.717   2.910   9.496 -0.4800  0.1252 -1.2431
  308MOL0     C41483   4.568   2.924   9.506  0.4558 -0.1689 -0.1454
  308MOL0     C41484   4.529   2.935   9.654 -0.0977  0.2052  0.4003
  308MOL0     C41485   4.547   2.808   9.741 -1.0844  0.1086  0.4079
  308MOL0     C41486   4.560   2.841   9.887 -0.2371 -0.9248 -0.2182
  308MOL0     C41487   4.435   2.896   9.951  0.1718 -0.1738  0.0568
  308MOL0     C41488   4.321   2.797   9.958 -0.7421 -0.4478 -0.3830
  308MOL0     C41489   4.208   2.858  10.047  0.5137 -0.2605  0.2007
  308MOL0    Cl41490   4.114   2.982   9.975  0.0633 -0.4239  0.2579
  308MOL0     C41491   4.937   3.184   9.470 -0.5065  0.4703  0.0232
  308MOL0     C41492   5.071   3.210   9.430 -0.0838 -0.0427  0.6501
  308MOL0     O41493   5.341   2.917   9.365  0.4305 -0.4716  0.0018
  308MOL0     C41494   5.569   3.176   9.454  0.0008  0.0155  0.5095
  308MOL0     C41495   5.704   3.201   9.441 -0.2714 -1.0243 -0.5629
  308MOL0     N41496   6.552   3.283   9.713 -0.4281 -0.8442 -0.2465
  308MOL0     N41497   6.613   3.368   9.779  0.3334 -0.1248  0.1345
  308MOL0     C41498   6.664   4.538   9.480 -0.4176 -0.0383  0.1690
  308MOL0     C41499   6.773   4.624   9.487  0.1230 -0.0770  0.5007
  308MOL0     C41500   7.097   4.910   9.594  0.5921  0.5999  0.6623
  308MOL0     C41501   7.031   4.998   9.682  0.4777  0.0746  0.1516
  308MOL0     C41502   7.102   5.108   9.738 -0.7259  0.6168  0.4962
  308MOL0     C41503   7.241   5.121   9.713  0.5187 -0.3741 -0.0567
  308MOL0     O41504   7.299   5.227   9.772 -0.1625  0.0623 -0.1697
  308MOL0     C41505   7.437   5.267   9.736  0.2766 -1.0094  0.2441
  308MOL0     C41506   7.535   5.223   9.844  0.5210  1.0240 -0.0528
  308MOL0     C41507   7.493   5.266   9.982  0.2207  0.8502  0.1804
  308MOL0     C41508   7.577   5.198  10.084 -0.0526  0.4181 -0.6468
  308MOL0     C41509   7.524   5.222  10.218  0.6229 -0.9659 -1.3825
  308MOL0     C41510   7.465   5.243  10.320 -0.1727 -0.1773 -0.6210
  308MOL0     C41511   7.303   5.041   9.614 -0.1376  0.1523 -0.0534
  308MOL0     C41512   7.225   4.932   9.560 -0.1124  0.1049 -0.0030
  308MOL0     H41513   6.883   4.530   9.792  0.4830 -0.5888  0.9734
  308MOL0     H41514   6.685   4.372   9.766 -0.0884 -1.6904 -1.3309
  308MOL0     H41515   6.382   4.260   9.446 -0.0226 -5.2973  0.9133
  308MOL0     H41516   6.506   4.336   9.352 -0.8944 -1.9057 -1.5411
  308MOL0     H41517   6.525   4.108   9.354  0.5641  2.6839 -0.7525
  308MOL0     H41518   6.680   4.170   9.422  0.3640 -0.4453 -1.1766
  308MOL0     H41519   6.609   4.127   9.645 -1.3983 -1.1430  0.6371
  308MOL0     H41520   6.457   4.064   9.588 -1.4611  0.3811 -1.2706
  308MOL0     H41521   6.593   3.868   9.468 -0.7381 -0.9234  1.3094
  308MOL0     H41522   6.732   3.963   9.508  1.0632 -1.6567  1.1269
  308MOL0     H41523   6.680   3.925   9.746 -3.6604 -2.3787  3.7800
  308MOL0     H41524   6.533   3.827   9.696  0.7640 -0.8684  2.3915
  308MOL0     H41525   6.663   3.666   9.590 -0.0905 -2.0141  1.6821
  308MOL0     H41526   6.817   3.746   9.618 -1.4834 -1.8209 -2.3203
  308MOL0     H41527   6.805   3.606   9.814  0.4823  1.4057  3.0480
  308MOL0     H41528   6.742   3.754   9.876  0.1753  0.3323 -1.1195
  308MOL0     H41529   6.514   3.681   9.852 -0.0719 -0.0767 -3.5188
  308MOL0     H41530   6.609   3.573   9.950 -1.5059  0.9565 -0.2795
  308MOL0     H41531   6.393   3.554   9.628 -0.2999  0.5525  1.6241
  308MOL0     H41532   6.427   3.297   9.425 -1.8534  0.5125 -1.1245
  308MOL0     H41533   6.400   3.161   9.545 -0.2336  0.0398  1.2124
  308MOL0     H41534   6.226   3.389   9.478 -0.6011  0.6869  0.0313
  308MOL0     H41535   6.204   3.278   9.625  1.5204  0.8152  0.7876
  308MOL0     H41536   6.171   3.094   9.474  1.5508  0.8223  1.3907
  308MOL0     H41537   6.196   3.210   9.327 -2.9784  1.0718 -2.3368
  308MOL0     H41538   5.991   3.328   9.437 -0.7046 -0.1391  1.6974
  308MOL0     H41539   5.970   3.187   9.543  2.3639 -2.4964  0.1470
  308MOL0     H41540   5.803   2.998   9.197 -0.6160  1.8036 -1.3929
  308MOL0     H41541   5.635   2.884   9.116  2.3763  2.2067  2.8636
  308MOL0     H41542   5.522   2.817   9.232  0.5842  0.1087  0.3343
  308MOL0     H41543   5.470   2.947   9.115 -0.2600  2.3790  1.4601
  308MOL0     H41544   5.193   2.914   9.580 -0.3625 -0.9901  1.8782
  308MOL0     H41545   4.983   2.876   9.605  0.0597  0.6518  0.2033
  308MOL0     H41546   4.734   2.872   9.395 -0.2935 -2.6984 -0.2519
  308MOL0     H41547   4.748   2.834   9.568 -0.8619  1.0785 -0.0348
  308MOL0     H41548   4.535   3.013   9.450  2.1945  0.8271  0.3349
  308MOL0     H41549   4.514   2.846   9.452  0.7781  0.7670 -1.9069
  308MOL0     H41550   4.421   2.949   9.660 -0.4711 -2.1497  0.4222
  308MOL0     H41551   4.592   3.012   9.699  0.5668 -0.4621  0.6246
  308MOL0     H41552   4.472   2.729   9.729  0.6576 -1.7436  1.0786
  308MOL0     H41553   4.635   2.752   9.709 -0.5433  1.4728 -0.6217
  308MOL0     H41554   4.645   2.909   9.891 -1.1243  0.1510  1.9425
  308MOL0     H41555   4.593   2.748   9.934 -2.8718 -1.2578  1.2098
  308MOL0     H41556   4.460   2.929  10.052 -1.4984 -0.2432  0.5137
  308MOL0     H41557   4.401   2.984   9.896  0.3145 -0.4487 -0.4857
  308MOL0     H41558   4.347   2.703  10.009 -1.7404  0.1692  1.3566
  308MOL0     H41559   4.291   2.766   9.858  0.5515  0.4449 -1.0716
  308MOL0     H41560   4.254   2.880  10.144  0.3211 -0.9269  0.4461
  308MOL0     H41561   4.154   2.765  10.067  2.0929 -1.1375  0.5556
  308MOL0     H41562   4.852   3.248   9.447  0.4952  2.5656  1.8260
  308MOL0     H41563   5.099   3.297   9.372 -0.9957 -1.1842 -1.6101
  308MOL0     H41564   5.501   3.219   9.527 -1.7906 -0.2547 -0.9314
  308MOL0     H41565   5.752   3.265   9.514 -1.4987  0.0299 -0.6395
  308MOL0     H41566   6.602   4.529   9.392 -3.1577 -1.4980  2.1223
  308MOL0     H41567   6.792   4.691   9.403  0.3205  0.0707  0.6614
  308MOL0     H41568   6.926   4.997   9.710  1.0030 -1.5544  2.3654
  308MOL0     H41569   7.049   5.181   9.798  0.5329  1.1588  1.0065
  308MOL0     H41570   7.476   5.245   9.636 -2.1019  0.5002 -1.1032
  308MOL0     H41571   7.447   5.376   9.736  1.5729 -1.1110  0.6683
  308MOL0     H41572   7.638   5.256   9.826  0.6971 -0.4890 -2.1386
  308MOL0     H41573   7.539   5.114   9.838  1.3036  1.0744 -0.5910
  308MOL0     H41574   7.388   5.252  10.012  0.9528 -2.9555  1.5059
  308MOL0     H41575   7.516   5.373   9.984  2.0786  0.4717  0.1932
  308MOL0     H41576   7.683   5.227  10.080 -0.6930  3.4541  1.0455
  308MOL0     H41577   7.582   5.090  10.068  4.5586  0.1495  1.1074
  308MOL0     H41578   7.395   5.261  10.400 -0.1321  0.7513 -0.7895
  308MOL0     H41579   7.409   5.047   9.587 -0.0108 -0.9701  0.1494
  308MOL0     H41580   7.265   4.866   9.485  0.8498 -1.5747  1.9115
  309MOL0     O41581   6.779   1.631   0.633  0.3111 -0.5080 -0.1145
  309MOL0     C41582   6.775   1.743   0.578 -0.2479  0.4088  0.4817
  309MOL0     O41583   6.664   1.802   0.531  0.8717 -0.7346 -0.1897
  309MOL0     C41584   6.544   1.746   0.561  0.2738 -0.1319 -0.3458
  309MOL0     C41585   6.452   1.824   0.635  1.4855 -0.0743  0.0376
  309MOL0     C41586   6.324   1.774   0.675  0.1217 -0.8701  0.6182
  309MOL0     C41587   6.289   1.649   0.632 -0.8829  0.4058  0.3020
  309MOL0     O41588   6.165   1.612   0.684  0.9273  0.4581  1.0012
  309MOL0     C41589   6.138   1.472   0.672  0.2348 -0.6337 -0.4549
  309MOL0     C41590   6.018   1.440   0.763 -0.3524 -0.2058 -0.3544
  309MOL0     C41591   5.881   1.491   0.703  0.8558 -0.7431  1.3856
  309MOL0     C41592   5.771   1.415   0.793 -0.6241 -0.2916  0.6413
  309MOL0     C41593   5.723   1.285   0.717  0.6563 -0.4315  0.4919
  309MOL0     C41594   5.586   1.234   0.761  0.0077 -0.5925 -0.3955
  309MOL0     C41595   5.475   1.320   0.713 -0.4267  0.9592  0.2125
  309MOL0     C41596   5.350   1.279   0.779 -0.3310 -0.5868 -0.1581
  309MOL0     N41597   5.291   1.168   0.713 -0.7721  0.1101 -0.3288
  309MOL0     C41598   5.205   1.182   0.609 -0.0186  0.0229  0.1678
  309MOL0     C41599   5.176   1.052   0.574 -0.4013  1.6729  0.0440
  309MOL0     C41600   5.107   0.990   0.458  0.4185 -0.0296  0.5627
  309MOL0     C41601   5.011   1.092   0.400 -0.1047 -0.9027 -0.3098
  309MOL0     C41602   4.893   1.130   0.487  0.4582  0.9563  0.7679
  309MOL0     C41603   4.794   1.016   0.517  0.1195  0.8083 -0.2549
  309MOL0     O41604   4.752   0.950   0.396 -0.7862  0.3834  0.3946
  309MOL0     C41605   4.638   0.988   0.343  0.5218 -0.2013  0.1719
  309MOL0     C41606   4.624   1.108   0.270 -0.0383  0.7220 -1.0665
  309MOL0     C41607   4.500   1.157   0.231 -0.2218  0.0268 -0.1891
  309MOL0     C41608   4.509   1.285   0.155 -0.0473 -0.7700 -0.1185
  309MOL0     C41609   4.381   1.077   0.258  0.6939 -0.5964  0.6691
  309MOL0     C41610   4.249   1.107   0.202 -0.0851 -0.3718 -0.2171
  309MOL0     O41611   4.172   1.006   0.176  0.0949  0.5129 -0.4058
  309MOL0     C41612   4.036   1.019   0.139  1.0219  0.6291  0.6902
  309MOL0     C41613   3.962   0.902   0.166 -0.4743  0.5402 -0.6670
  309MOL0     C41614   3.827   0.894   0.140  0.1623 -0.2302  0.3138
  309MOL0     C41615   3.761   1.002   0.082  0.1854  0.5881  0.0252
  309MOL0     O41616   3.636   0.990   0.037  0.1170 -0.1403  0.4194
  309MOL0     C41617   3.546   1.105   0.065 -0.1347  0.3969  0.4535
  309MOL0     C41618   3.400   1.052   0.060  0.7350 -0.8690  0.3523
  309MOL0     C41619   3.293   1.168   0.053 -0.2967 -0.5597  0.5528
  309MOL0     C41620   3.149   1.119   0.075 -0.5049 -0.2132 -0.6886
  309MOL0     C41621   3.055   1.235   0.091 -0.8093 -0.6557  0.4212
  309MOL0     C41622   2.918   1.206   0.156  0.0405 -0.0308 -0.2000
  309MOL0     C41623   2.809   1.322   0.128 -0.1076  1.4786  0.1190
  309MOL0     C41624   2.678   1.284   0.200  0.2621  0.2222 -0.9545
  309MOL0    Cl41625   2.582   1.182   0.097 -0.1092  0.6482  0.3661
  309MOL0     C41626   3.836   1.119   0.039 -0.2767  0.2743  0.0272
  309MOL0     C41627   3.976   1.128   0.063 -0.6047 -0.2325  0.4983
  309MOL0     O41628   4.208   1.225   0.191 -0.5224  0.6374 -0.0503
  309MOL0     C41629   4.403   0.958   0.325  0.5221  0.6377 -0.2104
  309MOL0     C41630   4.536   0.904   0.365  0.4782  0.3508 -0.7390
  309MOL0     N41631   5.232   0.964   0.668  0.5258  0.1722  0.2634
  309MOL0     N41632   5.296   1.040   0.750 -0.1260  0.7342 -1.2614
  309MOL0     C41633   6.361   1.579   0.523  0.2120  0.0627  0.0216
  309MOL0     C41634   6.494   1.628   0.505 -0.5054  0.7118 -0.3047
  309MOL0     C41635   6.902   1.805   0.551 -0.1646 -0.0093  0.1294
  309MOL0     C41636   7.017   1.756   0.605  0.0067  0.0786  0.2023
  309MOL0     C41637   7.136   1.819   0.571 -0.5403  0.1650  0.7765
  309MOL0     C41638   7.145   1.937   0.497  1.4481  0.2721 -0.5003
  309MOL0     O41639   7.265   2.003   0.499 -0.1793 -0.1230  0.5803
  309MOL0     C41640   7.285   2.103   0.396 -0.2714 -0.4625  0.3292
  309MOL0     C41641   7.295   2.032   0.255 -0.1578 -0.1957 -0.1666
  309MOL0     C41642   7.278   2.138   0.140 -0.0924 -0.3323  1.0947
  309MOL0     C41643   7.275   2.065   0.007  0.2925  1.0476 -0.2373
  309MOL0     C41644   7.411   1.997  -0.006  1.3082  0.2152  0.4642
  309MOL0     C41645   7.514   1.940  -0.030 -0.1908  0.6113  0.3929
  309MOL0     C41646   7.026   1.988   0.444 -0.6858  0.0413  0.6520
  309MOL0     C41647   6.905   1.919   0.464 -0.5454  0.7113  0.2879
  309MOL0     H41648   6.482   1.924   0.663  1.1257  0.8002 -2.4188
  309MOL0     H41649   6.255   1.834   0.733  1.1974  1.0312  0.0037
  309MOL0     H41650   6.108   1.454   0.568  1.2365  3.0911 -1.5542
  309MOL0     H41651   6.226   1.417   0.705  0.6814  0.2982 -0.0604
  309MOL0     H41652   6.011   1.331   0.767 -0.9425 -0.3434 -3.2234
  309MOL0     H41653   6.036   1.475   0.865  1.6164 -1.3698 -0.2535
  309MOL0     H41654   5.852   1.596   0.701 -4.5361 -1.9711  1.2437
  309MOL0     H41655   5.890   1.463   0.597  1.2360 -1.2602  1.5484
  309MOL0     H41656   5.809   1.389   0.892 -2.8496 -0.0878  1.6061
  309MOL0     H41657   5.698   1.488   0.828  0.5360 -0.5532  3.9110
  309MOL0     H41658   5.722   1.294   0.608  2.3121  2.1602  0.5900
  309MOL0     H41659   5.800   1.212   0.741  1.7589  0.9575  1.3360
  309MOL0     H41660   5.577   1.132   0.725 -0.4144  0.1514 -2.5576
  309MOL0     H41661   5.589   1.232   0.871  0.0458 -0.6105 -0.3967
  309MOL0     H41662   5.503   1.421   0.744  3.2746 -0.0009  0.4725
  309MOL0     H41663   5.465   1.311   0.604 -3.3611  0.9551  0.4068
  309MOL0     H41664   5.280   1.364   0.778  2.5573  1.9714  0.4904
  309MOL0     H41665   5.364   1.252   0.884 -2.7873 -0.9703  0.1349
  309MOL0     H41666   5.190   1.276   0.557 -0.0021  0.3624  0.7709
  309MOL0     H41667   5.161   0.946   0.374  1.1583 -2.1665  2.0928
  309MOL0     H41668   5.038   0.916   0.499 -1.2026  0.9247 -0.2970
  309MOL0     H41669   4.978   1.062   0.301  1.3477 -0.2174 -1.0381
  309MOL0     H41670   5.068   1.184   0.381  0.0834 -1.2399 -1.4037
  309MOL0     H41671   4.835   1.207   0.434  1.7815  0.8352 -0.9493
  309MOL0     H41672   4.935   1.194   0.566  1.1655  2.4175 -0.7205
  309MOL0     H41673   4.714   1.062   0.575  2.0010  2.3291  1.2967
  309MOL0     H41674   4.832   0.930   0.572 -3.9293 -1.2626 -0.3351
  309MOL0     H41675   4.720   1.154   0.248  1.2261 -1.9732 -1.5843
  309MOL0     H41676   4.429   1.298   0.082  1.0740 -1.6936 -1.5962
  309MOL0     H41677   4.508   1.376   0.216 -0.7589 -0.4866 -0.5502
  309MOL0     H41678   4.593   1.289   0.085 -0.6922  0.3554 -0.8456
  309MOL0     H41679   4.007   0.818   0.216 -1.3493  0.4297 -0.0490
  309MOL0     H41680   3.767   0.808   0.169  0.3769 -0.3536  0.3926
  309MOL0     H41681   3.548   1.135   0.170 -0.3880  1.4036  0.1815
  309MOL0     H41682   3.561   1.187  -0.005  0.7097 -0.0997  0.0313
  309MOL0     H41683   3.377   0.997  -0.033 -2.3922  1.8699 -0.6758
  309MOL0     H41684   3.379   0.988   0.146 -0.6930  0.2607  0.8850
  309MOL0     H41685   3.305   1.216  -0.045  2.8181 -2.3076 -0.0343
  309MOL0     H41686   3.319   1.255   0.114  0.8799  0.9003 -1.8975
  309MOL0     H41687   3.116   1.052  -0.005  1.6600 -0.2384 -1.6399
  309MOL0     H41688   3.139   1.066   0.170 -2.7501 -1.0904 -1.3593
  309MOL0     H41689   3.031   1.284  -0.004 -5.4204 -2.2386  0.5031
  309MOL0     H41690   3.101   1.315   0.150  0.3392 -1.1222  0.1692
  309MOL0     H41691   2.875   1.121   0.102 -2.0656  2.0989 -2.0683
  309MOL0     H41692   2.923   1.173   0.260 -0.2210 -0.0858 -0.2029
  309MOL0     H41693   2.787   1.326   0.021  0.8541 -3.2770 -0.4987
  309MOL0     H41694   2.828   1.422   0.166 -0.6417  0.9528  1.8447
  309MOL0     H41695   2.622   1.376   0.223 -0.3029  0.3678 -2.7377
  309MOL0     H41696   2.700   1.237   0.296 -0.9863  0.1213 -0.6936
  309MOL0     H41697   3.775   1.195  -0.009  0.8324  0.4301 -1.1883
  309MOL0     H41698   4.029   1.218   0.033  2.9552 -2.0016  0.8718
  309MOL0     H41699   4.324   0.890   0.356  2.0270 -0.9586  0.2996
  309MOL0     H41700   4.553   0.810   0.416 -0.4206  0.5539 -0.0472
  309MOL0     H41701   6.320   1.493   0.471  0.6045 -0.1437  0.0518
  309MOL0     H41702   6.559   1.573   0.438 -3.4386 -3.7059  0.0136
  309MOL0     H41703   7.023   1.668   0.668  0.1473 -1.1082 -1.4031
  309MOL0     H41704   7.233   1.785   0.608  0.2096  1.7018  0.2940
  309MOL0     H41705   7.206   2.177   0.392 -0.4409 -0.4910  2.2590
  309MOL0     H41706   7.378   2.159   0.410 -1.3797  2.1189 -1.8763
  309MOL0     H41707   7.206   1.969   0.250 -2.7108  3.1954 -1.0106
  309MOL0     H41708   7.390   1.979   0.248  0.1176  0.4485 -1.6087
  309MOL0     H41709   7.353   2.218   0.145 -0.1141 -0.2563  0.3913
  309MOL0     H41710   7.179   2.176   0.165 -1.9714 -4.6013  0.9006
  309MOL0     H41711   7.263   2.138  -0.074 -2.8180  1.6846  0.6497
  309MOL0     H41712   7.196   1.989   0.006 -0.7473  2.0877  0.4035
  309MOL0     H41713   7.596   1.886  -0.074  0.5107  2.4178 -0.6154
  309MOL0     H41714   7.029   2.075   0.379 -1.1285  1.9692  3.0894
  309MOL0     H41715   6.820   1.956   0.408 -0.5094  0.4524  0.0605
  310MOL0     O41716  11.016   0.438   7.571 -0.7469  0.6811 -0.6519
  310MOL0     C41717  10.988   0.432   7.454  0.3352  0.0351 -0.3323
  310MOL0     O41718  10.858   0.427   7.401  0.8745  0.1414 -0.2360
  310MOL0     C41719  10.746   0.402   7.484 -0.6044  0.3429  0.0877
  310MOL0     C41720  10.705   0.506   7.564 -0.0936  1.0881 -0.0648
  310MOL0     C41721  10.598   0.476   7.656 -0.3725 -0.4738  0.1182
  310MOL0     C41722  10.541   0.349   7.668 -0.4078 -0.3354 -0.0172
  310MOL0     O41723  10.446   0.314   7.760  0.0681 -0.4466  0.2343
  310MOL0     C41724  10.343   0.417   7.782 -0.6681 -0.3483 -0.6426
  310MOL0     C41725  10.224   0.348   7.850 -0.2495 -0.8228  0.0114
  310MOL0     C41726  10.091   0.431   7.839 -0.1838 -0.4963  1.2059
  310MOL0     C41727   9.967   0.343   7.872  0.2585  1.1155 -0.2399
  310MOL0     C41728   9.843   0.423   7.880  0.1696 -0.0719 -0.8241
  310MOL0     C41729   9.713   0.339   7.888 -0.4702  0.5386  0.5242
  310MOL0     C41730   9.586   0.418   7.881  0.7661 -0.1181  0.2901
  310MOL0     C41731   9.470   0.353   7.963 -0.8400  0.2031  0.1878
  310MOL0     N41732   9.414   0.230   7.898 -0.4712 -0.0365  0.7957
  310MOL0     C41733   9.432   0.198   7.765 -0.5987 -0.4248  0.1267
  310MOL0     C41734   9.377   0.077   7.739  0.1213 -0.9981 -0.1557
  310MOL0     C41735   9.379  -0.010   7.621 -0.2197  0.1699  0.5321
  310MOL0     C41736   9.240  -0.034   7.568 -0.1848  0.5153 -0.3106
  310MOL0     C41737   9.173   0.086   7.518 -0.4976 -0.3864 -0.6291
  310MOL0     C41738   9.061   0.058   7.411 -0.3602 -0.5318 -0.2049
  310MOL0     O41739   9.117   0.007   7.284 -0.2384 -0.4712 -0.0357
  310MOL0     C41740   9.033  -0.011   7.174  0.2269 -0.3304 -0.0428
  310MOL0     C41741   9.088  -0.056   7.056 -0.0274 -1.0356  0.2443
  310MOL0     C41742   9.011  -0.063   6.939  0.4868  0.0267  0.6029
  310MOL0     C41743   9.081  -0.130   6.829 -0.5978 -0.0119 -0.4664
  310MOL0     C41744   8.882  -0.015   6.933  0.8747 -0.0888  0.4331
  310MOL0     C41745   8.787  -0.009   6.815 -0.4489 -0.7754  1.0397
  310MOL0     O41746   8.660   0.043   6.824  0.1763 -0.0698  0.3576
  310MOL0     C41747   8.577   0.054   6.714 -1.0296  0.7620  0.5376
  310MOL0     C41748   8.582   0.159   6.620  0.0082  0.1054  0.3567
  310MOL0     C41749   8.478   0.167   6.520  0.0264  0.5434  0.4455
  310MOL0     C41750   8.382   0.068   6.503 -0.2400  0.1038  0.1232
  310MOL0     O41751   8.296   0.066   6.398 -0.4125 -0.5464  0.2056
  310MOL0     C41752   8.212  -0.042   6.362 -0.3520 -0.0839  0.7958
  310MOL0     C41753   8.120   0.007   6.260  0.2151 -0.2592  0.2509
  310MOL0     C41754   8.008   0.097   6.302  0.0500  1.0848 -0.1746
  310MOL0     C41755   7.880   0.052   6.232 -0.4512  0.1777 -0.1110
  310MOL0     C41756   7.766   0.152   6.271  0.1618 -0.6731  0.1220
  310MOL0     C41757   7.644   0.097   6.223 -0.0057  0.4092 -0.1806
  310MOL0     C41758   7.511   0.175   6.258  0.0481 -0.7116  0.0225
  310MOL0     C41759   7.407   0.185   6.140 -0.8106 -0.0757 -0.4428
  310MOL0    Cl41760   7.246   0.204   6.195  0.7999 -0.6135 -0.1378
  310MOL0     C41761   8.390  -0.046   6.585  0.0518 -0.6152 -0.5827
  310MOL0     C41762   8.485  -0.053   6.691  0.5327  0.0038 -0.3589
  310MOL0     O41763   8.829  -0.056   6.709  0.0668  0.3958 -0.1654
  310MOL0     C41764   8.825   0.035   7.053 -0.5014  0.6043 -0.2341
  310MOL0     C41765   8.898   0.031   7.173  0.7394 -0.3275 -0.0548
  310MOL0     N41766   9.312   0.047   7.861  0.4473  0.5988  0.2248
  310MOL0     N41767   9.326   0.139   7.953  0.1965 -0.0971  0.1502
  310MOL0     C41768  10.592   0.251   7.581  0.5934  0.7813  0.6257
  310MOL0     C41769  10.703   0.274   7.492  0.0779  0.4637 -0.7632
  310MOL0     C41770  11.094   0.403   7.361  0.1618  1.3038 -0.4137
  310MOL0     C41771  11.056   0.419   7.229 -0.0767  0.9378  0.0081
  310MOL0     C41772  11.144   0.380   7.123  0.4605  0.2520 -0.3940
  310MOL0     C41773  11.282   0.353   7.153 -0.9320 -0.1707 -0.2731
  310MOL0     O41774  11.360   0.351   7.040 -0.2256  0.1686 -0.8195
  310MOL0     C41775  11.499   0.373   7.068 -0.0670  0.0807 -0.1511
  310MOL0     C41776  11.580   0.423   6.950  0.1423 -0.1510  0.5569
  310MOL0     C41777  11.509   0.548   6.887  0.2919 -0.7473  0.4837
  310MOL0     C41778  11.620   0.647   6.845 -0.3795 -0.2244  0.0952
  310MOL0     C41779  11.653   0.627   6.703 -1.1175 -0.5272  0.4934
  310MOL0     C41780  11.679   0.607   6.588  0.2534  0.4953 -0.5911
  310MOL0     C41781  11.314   0.314   7.286  0.3865 -0.1224 -0.6186
  310MOL0     C41782  11.219   0.342   7.388 -0.8457  1.0132 -0.0526
  310MOL0     H41783  10.769   0.594   7.558 -0.0790  1.3443  2.5954
  310MOL0     H41784  10.564   0.542   7.736 -2.4772  2.3062 -2.8137
  310MOL0     H41785  10.378   0.497   7.848 -0.9975  0.3537 -1.2992
  310MOL0     H41786  10.318   0.466   7.687  1.7107  1.3566 -0.4868
  310MOL0     H41787  10.205   0.264   7.783 -2.7186 -0.1330 -0.2411
  310MOL0     H41788  10.252   0.328   7.954 -4.2408 -1.4298  1.1551
  310MOL0     H41789  10.100   0.512   7.911  2.6803  0.9789 -0.5967
  310MOL0     H41790  10.083   0.471   7.737  3.1486 -1.7245  0.3323
  310MOL0     H41791   9.964   0.267   7.794 -0.5623 -0.5017  1.3055
  310MOL0     H41792   9.972   0.293   7.969  1.7080 -0.5429 -1.1101
  310MOL0     H41793   9.843   0.490   7.966 -1.2085  1.4756 -1.9701
  310MOL0     H41794   9.843   0.492   7.796 -1.2461  0.1140 -0.6937
  310MOL0     H41795   9.720   0.264   7.809  2.7878  1.7889 -0.5250
  310MOL0     H41796   9.724   0.290   7.985 -1.4610 -0.8112 -0.0077
  310MOL0     H41797   9.601   0.518   7.924 -1.0932  2.2294 -3.9294
  310MOL0     H41798   9.568   0.429   7.774  3.5708  1.8227 -0.0872
  310MOL0     H41799   9.381   0.416   7.963 -3.6965 -3.4240  2.4994
  310MOL0     H41800   9.494   0.342   8.069  0.5105 -1.3749 -0.2400
  310MOL0     H41801   9.501   0.252   7.701 -0.4931  1.1482  1.4944
  310MOL0     H41802   9.434   0.035   7.538 -1.3160 -0.2899 -0.4818
  310MOL0     H41803   9.421  -0.108   7.648  0.9667  0.4971 -0.0419
  310MOL0     H41804   9.176  -0.095   7.633  0.8827 -0.6487 -0.3015
  310MOL0     H41805   9.249  -0.097   7.479 -2.8848 -0.7772  0.2517
  310MOL0     H41806   9.252   0.147   7.475  0.1017  1.1093  2.3025
  310MOL0     H41807   9.126   0.148   7.595 -0.7062 -1.5903  0.2479
  310MOL0     H41808   9.006   0.151   7.393 -1.3677 -0.7209  1.6589
  310MOL0     H41809   8.992  -0.014   7.455  0.4729 -0.8540  0.6112
  310MOL0     H41810   9.192  -0.086   7.063 -0.1145 -1.8065 -1.3796
  310MOL0     H41811   9.070  -0.070   6.738 -1.0606 -1.2956 -1.2993
  310MOL0     H41812   9.187  -0.150   6.844 -0.7254  0.0620  0.5930
  310MOL0     H41813   9.035  -0.226   6.800 -2.0105  0.9318 -1.4808
  310MOL0     H41814   8.638   0.246   6.655 -1.4994  0.6766  1.4701
  310MOL0     H41815   8.481   0.255   6.456  1.0939  1.8471  2.1918
  310MOL0     H41816   8.258  -0.131   6.318 -0.4606  0.3301 -0.1668
  310MOL0     H41817   8.161  -0.077   6.452 -0.4700  1.9587  1.5696
  310MOL0     H41818   8.177   0.053   6.179  0.8422 -1.3075  0.0760
  310MOL0     H41819   8.072  -0.085   6.225 -1.7918  0.5328  0.8129
  310MOL0     H41820   8.019   0.205   6.295 -1.2974  1.3126  0.8600
  310MOL0     H41821   7.987   0.077   6.408  0.3623  2.6199  0.2029
  310MOL0     H41822   7.886   0.048   6.123 -1.7121 -2.9244 -0.1623
  310MOL0     H41823   7.851  -0.049   6.262  2.8610 -0.9751 -0.3990
  310MOL0     H41824   7.779   0.249   6.221  2.0339 -1.2581 -0.6079
  310MOL0     H41825   7.771   0.161   6.380 -1.0234  0.7843  0.0911
  310MOL0     H41826   7.656   0.081   6.116  2.3387  1.1135 -0.1006
  310MOL0     H41827   7.633  -0.007   6.254  1.8844 -0.0911 -1.0516
  310MOL0     H41828   7.541   0.277   6.285 -0.2636 -1.2330  2.6409
  310MOL0     H41829   7.468   0.130   6.348  1.1922 -0.0570  0.9360
  310MOL0     H41830   7.417   0.093   6.081 -0.6084  1.1578 -2.4115
  310MOL0     H41831   7.432   0.271   6.077  2.0188  0.4935  1.2925
  310MOL0     H41832   8.323  -0.130   6.574  0.7279 -1.8620  3.2008
  310MOL0     H41833   8.482  -0.139   6.758  1.5310  0.1324 -0.1387
  310MOL0     H41834   8.731   0.089   7.060  0.2359  1.8499  0.2548
  310MOL0     H41835   8.865   0.077   7.266  0.8816  0.9655 -0.6266
  310MOL0     H41836  10.548   0.152   7.577 -0.8023  1.2679  2.5991
  310MOL0     H41837  10.741   0.195   7.428  1.7742  0.1119  0.6189
  310MOL0     H41838  10.961   0.459   7.196 -0.0961  0.1763 -0.9448
  310MOL0     H41839  11.111   0.403   7.022 -2.2846  1.6658  0.6924
  310MOL0     H41840  11.503   0.445   7.150  0.8324  0.0944 -0.1963
  310MOL0     H41841  11.535   0.277   7.108  1.6706  1.1008  0.8567
  310MOL0     H41842  11.583   0.342   6.876 -2.2618  0.6600 -0.5132
  310MOL0     H41843  11.688   0.437   6.966 -0.1442  1.1829  1.4545
  310MOL0     H41844  11.445   0.610   6.950 -0.7573  0.6562 -1.8354
  310MOL0     H41845  11.438   0.525   6.807  0.8486 -0.1414 -0.1986
  310MOL0     H41846  11.707   0.643   6.910  0.2893  0.5754 -0.7186
  310MOL0     H41847  11.577   0.748   6.852  1.2973  0.5692 -0.4187
  310MOL0     H41848  11.733   0.591   6.497  1.0634 -0.9295  0.1067
  310MOL0     H41849  11.412   0.268   7.290 -0.1374 -1.6020 -3.0305
  310MOL0     H41850  11.262   0.309   7.482  0.1306  1.5924 -0.2780
  311MOL0     O41851   7.210   3.422   0.952 -0.2773 -0.4207 -0.0903
  311MOL0     C41852   7.319   3.395   0.899  0.6092  0.4493  0.0398
  311MOL0     O41853   7.331   3.324   0.784 -0.0049 -0.4702  0.7229
  311MOL0     C41854   7.221   3.260   0.741  0.4805  0.9954 -0.1115
  311MOL0     C41855   7.150   3.162   0.813 -0.4168  0.3826 -1.4450
  311MOL0     C41856   7.037   3.098   0.769 -0.2904  1.0931 -0.3349
  311MOL0     C41857   6.990   3.130   0.645  0.6650  0.4622  0.7403
  311MOL0     O41858   6.897   3.046   0.592  0.2738  0.0915 -0.7268
  311MOL0     C41859   6.774   3.045   0.655  0.9542 -0.5172  0.3649
  311MOL0     C41860   6.678   3.134   0.576 -0.6078  0.9465  0.3724
  311MOL0     C41861   6.624   3.073   0.448  0.5309 -0.3944  0.1451
  311MOL0     C41862   6.524   2.959   0.473 -0.0972 -0.4252  0.4292
  311MOL0     C41863   6.385   2.989   0.406 -0.3673  0.0381  0.6075
  311MOL0     C41864   6.314   3.097   0.501 -0.4108  0.1019  0.1924
  311MOL0     C41865   6.161   3.100   0.480  0.3556  0.1724  0.3257
  311MOL0     C41866   6.087   2.964   0.506  0.0202 -0.3108  0.4944
  311MOL0     N41867   5.946   2.990   0.525  0.0901 -0.9770 -0.1059
  311MOL0     C41868   5.853   3.049   0.443 -0.7465  0.2497  0.1689
  311MOL0     C41869   5.730   3.018   0.496 -1.0117 -0.7321  1.0115
  311MOL0     C41870   5.595   3.064   0.446 -0.3292 -0.1303  0.1260
  311MOL0     C41871   5.518   3.155   0.538 -0.6468 -0.3630  0.3164
  311MOL0     C41872   5.408   3.236   0.455 -0.0721 -0.4661  0.3638
  311MOL0     C41873   5.316   3.133   0.384  0.3415  1.3653  0.3261
  311MOL0     O41874   5.200   3.205   0.343  0.1232  0.3019 -0.4564
  311MOL0     C41875   5.086   3.213   0.414  0.6099 -0.3512 -0.0203
  311MOL0     C41876   4.987   3.308   0.374 -1.0387  0.1648  0.2964
  311MOL0     C41877   4.865   3.308   0.433 -0.5893 -0.1553  0.8825
  311MOL0     C41878   4.772   3.413   0.388 -0.1228  0.2809  0.8631
  311MOL0     C41879   4.831   3.206   0.538  0.4692 -0.1875  0.4001
  311MOL0     C41880   4.700   3.196   0.611  0.2874  1.3552  0.7017
  311MOL0     O41881   4.587   3.256   0.562 -0.0629  0.0483  0.3140
  311MOL0     C41882   4.471   3.244   0.646 -0.6379 -0.1639  0.5541
  311MOL0     C41883   4.368   3.162   0.608 -0.1323 -0.1937 -0.5267
  311MOL0     C41884   4.253   3.155   0.687  0.1969  0.0463 -0.6922
  311MOL0     C41885   4.250   3.215   0.819  0.1931 -0.7615  0.1103
  311MOL0     O41886   4.129   3.203   0.886  0.0791  0.3463 -0.1529
  311MOL0     C41887   4.090   3.289   0.988  0.1975 -0.5720  0.2339
  311MOL0     C41888   3.958   3.232   1.048 -0.9871  0.1389  0.6563
  311MOL0     C41889   3.836   3.231   0.951  0.1169 -0.2981  0.4776
  311MOL0     C41890   3.707   3.239   1.027 -0.5750 -0.3522  0.6276
  311MOL0     C41891   3.586   3.216   0.939 -0.1018  0.7263 -0.1610
  311MOL0     C41892   3.448   3.230   1.009  0.7976 -0.1445  0.0538
  311MOL0     C41893   3.334   3.182   0.919 -0.8356  0.3083 -0.1543
  311MOL0     C41894   3.193   3.192   0.980  0.2041  0.2802  0.6361
  311MOL0    Cl41895   3.191   3.071   1.122  0.1930 -0.0196 -0.9935
  311MOL0     C41896   4.360   3.288   0.858 -0.1873 -0.3606 -0.1372
  311MOL0     C41897   4.469   3.303   0.775  0.3643  0.4026 -0.3406
  311MOL0     O41898   4.701   3.118   0.704 -0.1628 -0.0183 -0.5033
  311MOL0     C41899   4.931   3.129   0.585  0.0439 -0.0835 -0.1605
  311MOL0     C41900   5.053   3.137   0.529 -0.7656  0.3168 -0.1655
  311MOL0     N41901   5.751   2.954   0.613 -0.0015  0.3180 -0.7227
  311MOL0     N41902   5.880   2.956   0.632 -0.8645 -0.6752 -0.2054
  311MOL0     C41903   7.041   3.240   0.576 -0.1028  0.1216 -0.9135
  311MOL0     C41904   7.156   3.306   0.624  0.7693  0.5695 -0.1550
  311MOL0     C41905   7.438   3.443   0.967  0.2972  1.2314 -0.4356
  311MOL0     C41906   7.552   3.479   0.886 -0.7895  0.2748 -0.0940
  311MOL0     C41907   7.666   3.520   0.957  0.8248  0.4968 -0.3682
  311MOL0     C41908   7.668   3.516   1.099 -0.3048  0.1562  0.6343
  311MOL0     O41909   7.780   3.553   1.173  0.1408  0.2833 -0.3382
  311MOL0     C41910   7.899   3.602   1.108 -0.5569 -0.8669 -0.4109
  311MOL0     C41911   7.998   3.487   1.059  0.4156 -0.6667  0.3012
  311MOL0     C41912   8.123   3.559   1.014 -1.0308  0.2397 -0.5350
  311MOL0     C41913   8.212   3.477   0.931 -0.4074  0.0844  0.3462
  311MOL0     C41914   8.348   3.543   0.919 -0.2676 -0.1427  0.2458
  311MOL0     C41915   8.462   3.582   0.903  0.0064 -0.1156  0.3972
  311MOL0     C41916   7.557   3.479   1.170  0.2364 -0.0167 -0.6646
  311MOL0     C41917   7.438   3.449   1.110 -0.1613  0.1057  0.0871
  311MOL0     H41918   7.185   3.138   0.913  0.6015 -0.9476 -2.0866
  311MOL0     H41919   6.986   3.030   0.837  2.0039 -0.0235  0.3780
  311MOL0     H41920   6.726   2.947   0.650  1.4206 -0.8127  1.4601
  311MOL0     H41921   6.764   3.085   0.756  0.2283 -1.4379  0.6772
  311MOL0     H41922   6.588   3.148   0.636 -1.0246 -1.4269  0.4034
  311MOL0     H41923   6.727   3.230   0.553 -0.1564  0.7067  0.3176
  311MOL0     H41924   6.570   3.148   0.389 -0.5102 -1.8668 -0.8678
  311MOL0     H41925   6.706   3.040   0.383  0.8596 -1.8856  1.2691
  311MOL0     H41926   6.573   2.875   0.424 -1.4637  1.1450 -4.1714
  311MOL0     H41927   6.508   2.940   0.580 -0.6693 -1.0992  0.2338
  311MOL0     H41928   6.389   3.021   0.301 -1.0746  0.7184  0.7816
  311MOL0     H41929   6.337   2.890   0.405 -0.4581  0.0787 -0.6387
  311MOL0     H41930   6.342   3.065   0.602  4.2047 -2.6824 -1.6258
  311MOL0     H41931   6.344   3.201   0.484 -0.1507 -0.0414 -0.2266
  311MOL0     H41932   6.124   3.169   0.556 -2.3742 -1.1762  0.3518
  311MOL0     H41933   6.146   3.127   0.375  4.8658 -0.0425 -0.5935
  311MOL0     H41934   6.129   2.914   0.593 -0.7373 -1.0027  0.4702
  311MOL0     H41935   6.097   2.899   0.419 -1.1744 -2.7733  2.0901
  311MOL0     H41936   5.881   3.101   0.351  0.7436 -2.6895 -1.1663
  311MOL0     H41937   5.615   3.112   0.350  2.6743 -1.9253 -0.2661
  311MOL0     H41938   5.527   2.978   0.435 -1.4740  0.5513  1.5695
  311MOL0     H41939   5.586   3.219   0.595  1.3450 -3.2473  1.4266
  311MOL0     H41940   5.479   3.100   0.623  1.3693  0.5218  1.9046
  311MOL0     H41941   5.462   3.308   0.394  0.6220 -0.2395  1.2321
  311MOL0     H41942   5.346   3.298   0.521 -2.7166  1.8761 -3.8132
  311MOL0     H41943   5.287   3.052   0.451  2.7511  0.7042  0.6452
  311MOL0     H41944   5.360   3.084   0.297  1.4523  1.7049  0.6709
  311MOL0     H41945   5.015   3.392   0.312 -2.4036 -0.3441 -1.0663
  311MOL0     H41946   4.708   3.443   0.471  1.6986  0.3993  2.3071
  311MOL0     H41947   4.831   3.501   0.362  0.5945 -0.4405 -0.0638
  311MOL0     H41948   4.704   3.387   0.306 -0.7112  1.9344  0.7911
  311MOL0     H41949   4.359   3.108   0.514  1.1533  0.3523 -0.9830
  311MOL0     H41950   4.169   3.095   0.654  0.9014 -2.6292  1.9147
  311MOL0     H41951   4.167   3.311   1.063  3.6758  1.9336 -3.6372
  311MOL0     H41952   4.075   3.388   0.945 -2.7013 -1.1828 -0.3055
  311MOL0     H41953   3.983   3.131   1.082 -2.1033 -1.0867 -1.9060
  311MOL0     H41954   3.929   3.288   1.138  1.2145  0.1758  1.3806
  311MOL0     H41955   3.837   3.136   0.897 -1.2819  0.4050 -0.8653
  311MOL0     H41956   3.842   3.309   0.875 -1.3677 -0.2503  0.3716
  311MOL0     H41957   3.714   3.167   1.110  3.1987 -1.0275 -0.1203
  311MOL0     H41958   3.697   3.342   1.061  3.5173  0.6637 -0.7105
  311MOL0     H41959   3.592   3.112   0.906 -0.4764  1.8060 -4.1592
  311MOL0     H41960   3.587   3.285   0.854  1.4449 -0.4095 -1.1152
  311MOL0     H41961   3.442   3.169   1.100  0.6554 -0.0417  0.1134
  311MOL0     H41962   3.424   3.331   1.041  0.5058 -0.3752  0.5764
  311MOL0     H41963   3.344   3.078   0.886  3.7125  0.4340  0.2373
  311MOL0     H41964   3.324   3.246   0.831 -3.4280 -1.0517 -0.9500
  311MOL0     H41965   3.113   3.158   0.913  1.5320  2.6995 -2.3652
  311MOL0     H41966   3.171   3.297   1.001  2.9663  1.3558 -1.3527
  311MOL0     H41967   4.365   3.333   0.957 -1.7165 -0.4857  0.0135
  311MOL0     H41968   4.554   3.363   0.803 -1.4776  2.1534  1.8822
  311MOL0     H41969   4.911   3.047   0.654  2.9618  0.5895  1.6962
  311MOL0     H41970   5.123   3.064   0.567  1.2529  1.7582 -0.9215
  311MOL0     H41971   6.998   3.262   0.479  0.0059  1.2193 -0.7312
  311MOL0     H41972   7.204   3.387   0.571 -0.8294  0.5889 -1.6239
  311MOL0     H41973   7.548   3.477   0.778  0.6116  2.4923 -0.2406
  311MOL0     H41974   7.749   3.553   0.895  0.0566  2.3008 -0.4895
  311MOL0     H41975   7.865   3.660   1.022 -0.0110 -0.4871 -0.3725
  311MOL0     H41976   7.954   3.671   1.173  1.3105 -0.2779 -2.5124
  311MOL0     H41977   7.961   3.427   0.975  0.0381  1.3097 -0.9956
  311MOL0     H41978   8.027   3.421   1.142  0.1190  1.7642  2.4760
  311MOL0     H41979   8.180   3.577   1.105 -1.8665 -2.6699  0.7021
  311MOL0     H41980   8.099   3.655   0.969 -0.5841  1.9112  2.5167
  311MOL0     H41981   8.172   3.474   0.829  4.0764 -0.7166 -1.6061
  311MOL0     H41982   8.237   3.377   0.965  1.1480 -1.1488 -3.7502
  311MOL0     H41983   8.558   3.619   0.874 -0.8762 -0.3112 -3.2216
  311MOL0     H41984   7.549   3.516   1.272 -2.7756 -2.2189  0.0310
  311MOL0     H41985   7.351   3.426   1.170 -0.4710  1.2976  0.1241
  312MOL0     O41986   5.561   2.814  10.133 -0.2471 -0.7585 -0.2221
  312MOL0     C41987   5.641   2.730  10.180  0.6059  0.6151  0.3014
  312MOL0     O41988   5.637   2.591  10.159  0.5746  0.5203 -0.8026
  312MOL0     C41989   5.530   2.528  10.104  0.6554 -0.1321 -0.4657
  312MOL0     C41990   5.398   2.580  10.073 -0.3893 -0.4200 -0.0647
  312MOL0     C41991   5.301   2.500  10.015 -0.9074 -0.4719 -0.6584
  312MOL0     C41992   5.332   2.371   9.976 -0.3117 -0.0375 -0.7136
  312MOL0     O41993   5.242   2.286   9.918  1.0366 -0.5540  0.4256
  312MOL0     C41994   5.114   2.272   9.973  0.3905 -0.7337  0.5915
  312MOL0     C41995   5.015   2.327   9.874  0.4504 -0.3851  1.0386
  312MOL0     C41996   4.873   2.325   9.917 -0.4874 -0.5513 -0.1446
  312MOL0     C41997   4.841   2.454   9.992 -0.4928 -0.1674 -0.1800
  312MOL0     C41998   4.704   2.446  10.065 -0.5355 -0.6134  1.2416
  312MOL0     C41999   4.599   2.374   9.981  0.2556  0.1191  0.3508
  312MOL0     C42000   4.460   2.397  10.035 -0.0419 -0.7192  0.1066
  312MOL0     C42001   4.355   2.319   9.956  0.2463  0.7692  0.3767
  312MOL0     N42002   4.365   2.346   9.806 -0.4414 -0.0868  0.4960
  312MOL0     C42003   4.437   2.270   9.716  1.3042 -0.9920  0.1979
  312MOL0     C42004   4.450   2.342   9.604 -1.4406  0.0649 -0.2627
  312MOL0     C42005   4.528   2.287   9.492 -0.1260 -0.0163 -0.1176
  312MOL0     C42006   4.678   2.282   9.516  0.0565  0.8287  0.4257
  312MOL0     C42007   4.752   2.414   9.471  0.5753  0.2275  0.3047
  312MOL0     C42008   4.898   2.413   9.510  0.4519 -0.6617 -0.6250
  312MOL0     O42009   4.949   2.546   9.472 -0.1935  0.7982  0.0071
  312MOL0     C42010   5.077   2.555   9.500 -0.6868 -0.6802 -0.3224
  312MOL0     C42011   5.164   2.533   9.402 -0.8581  1.2646  0.3015
  312MOL0     C42012   5.303   2.537   9.413  0.3993  1.2052  0.4337
  312MOL0     C42013   5.389   2.499   9.286  0.3506  0.4082 -0.2156
  312MOL0     C42014   5.358   2.584   9.533 -0.4945  0.1121 -0.5231
  312MOL0     C42015   5.501   2.616   9.557  0.1652 -0.0398  0.6874
  312MOL0     O42016   5.525   2.697   9.661  0.1715  0.3658 -0.0211
  312MOL0     C42017   5.650   2.756   9.674  0.9332 -0.6893  0.3652
  312MOL0     C42018   5.702   2.794   9.800 -0.1769 -0.2396 -0.9038
  312MOL0     C42019   5.824   2.863   9.827 -0.7211  0.4810  0.2865
  312MOL0     C42020   5.897   2.907   9.710 -0.7440 -1.2915 -0.7757
  312MOL0     O42021   6.019   2.977   9.711  0.2897 -0.3173 -0.1720
  312MOL0     C42022   6.080   3.020   9.839  0.3640 -0.2082 -0.5667
  312MOL0     C42023   6.181   2.919   9.884 -0.3261  0.1943 -0.5912
  312MOL0     C42024   6.316   2.923   9.801 -0.1027 -0.1502 -0.4202
  312MOL0     C42025   6.384   2.789   9.811 -0.5224 -0.0608 -0.4024
  312MOL0     C42026   6.504   2.778   9.713 -0.8772 -0.7039 -0.1451
  312MOL0     C42027   6.630   2.871   9.719 -0.3579  0.7826 -0.3487
  312MOL0     C42028   6.701   2.892   9.848  0.2025  0.4530 -0.5812
  312MOL0     C42029   6.782   3.015   9.831 -0.0675 -0.5458  0.0618
  312MOL0    Cl42030   6.935   3.002   9.735  0.0075  0.2235 -0.6123
  312MOL0     C42031   5.860   2.864   9.584 -0.1249  0.0737 -0.5715
  312MOL0     C42032   5.742   2.792   9.572 -0.8372  0.1164  0.2364
  312MOL0     O42033   5.596   2.555   9.495  0.9124  0.5205 -0.6492
  312MOL0     C42034   5.260   2.620   9.634 -1.2314  0.7839 -0.3550
  312MOL0     C42035   5.124   2.596   9.622 -0.2194 -0.6157 -0.3301
  312MOL0     N42036   4.389   2.461   9.630 -0.1816 -0.3372  0.3186
  312MOL0     N42037   4.341   2.468   9.750 -0.2007  0.3769  0.2996
  312MOL0     C42038   5.461   2.325   9.997 -0.1293 -0.1377  0.0903
  312MOL0     C42039   5.567   2.400  10.060  0.2364  0.1130 -0.2885
  312MOL0     C42040   5.780   2.782  10.222  0.2053  0.3629 -0.4280
  312MOL0     C42041   5.789   2.910  10.283 -0.9858 -0.9320  0.4109
  312MOL0     C42042   5.910   2.949  10.322 -0.6628  0.4948 -1.0994
  312MOL0     C42043   6.024   2.869  10.296 -0.0461  0.0626  0.0239
  312MOL0     O42044   6.147   2.904  10.331  0.1548  0.0976 -0.5358
  312MOL0     C42045   6.167   3.021  10.407  0.9775  0.0546 -0.5571
  312MOL0     C42046   6.301   3.019  10.483 -0.5613  0.2333  0.7669
  312MOL0     C42047   6.353   3.149  10.549  0.2168 -0.1117 -0.0545
  312MOL0     C42048   6.268   3.201  10.661 -0.3549  0.3071 -0.4227
  312MOL0     C42049   6.247   3.107  10.773 -0.5901  0.2084  0.5466
  312MOL0     C42050   6.234   3.022  10.862 -0.4213  0.4053  0.1991
  312MOL0     C42051   6.019   2.751  10.229  0.9794 -0.1861  0.0074
  312MOL0     C42052   5.893   2.715  10.178  1.0909  0.8140  0.4628
  312MOL0     H42053   5.376   2.685  10.089  1.0183 -0.1822  0.4252
  312MOL0     H42054   5.206   2.541   9.983 -0.4318  0.8583 -0.4288
  312MOL0     H42055   5.112   2.165   9.992 -0.3401 -1.2912 -2.2051
  312MOL0     H42056   5.110   2.331  10.066  1.2145  2.7465 -1.3899
  312MOL0     H42057   5.045   2.431   9.859 -2.1906  0.3334  0.0687
  312MOL0     H42058   5.035   2.278   9.778  1.1220 -1.5058  1.7275
  312MOL0     H42059   4.803   2.315   9.834 -1.4066 -0.2463  0.5793
  312MOL0     H42060   4.857   2.236   9.979 -3.2191  0.4331  0.6938
  312MOL0     H42061   4.913   2.466  10.074 -0.4133 -1.9812  0.0620
  312MOL0     H42062   4.845   2.536   9.920  1.5542 -0.4923 -0.4914
  312MOL0     H42063   4.731   2.384  10.151 -1.7193 -3.3998 -0.2522
  312MOL0     H42064   4.676   2.549  10.089 -1.5916 -1.1762  2.5688
  312MOL0     H42065   4.618   2.403   9.877  0.9991  0.3488  0.5489
  312MOL0     H42066   4.624   2.268   9.987 -0.1397  0.1059  2.0200
  312MOL0     H42067   4.450   2.373  10.141  0.9553 -2.6858 -0.1959
  312MOL0     H42068   4.442   2.505  10.032  0.6858 -0.3403  3.9473
  312MOL0     H42069   4.258   2.345  10.000  0.3161 -1.2471  1.8604
  312MOL0     H42070   4.370   2.215   9.986  1.6078  1.3711  1.9206
  312MOL0     H42071   4.488   2.174   9.721  0.9271 -1.8659 -5.5590
  312MOL0     H42072   4.494   2.183   9.495  1.3802 -0.4999  1.3716
  312MOL0     H42073   4.505   2.330   9.394 -2.6780  3.0114  1.6305
  312MOL0     H42074   4.715   2.203   9.451 -2.1291 -1.6252  1.9545
  312MOL0     H42075   4.700   2.266   9.622  3.0043  0.3915 -0.1845
  312MOL0     H42076   4.700   2.496   9.522 -0.0333  0.4764 -0.6884
  312MOL0     H42077   4.738   2.425   9.363  1.2566  1.4940  0.3241
  312MOL0     H42078   4.949   2.327   9.464  0.7980  0.0342 -1.5684
  312MOL0     H42079   4.897   2.414   9.620 -0.6879 -0.1726 -0.6237
  312MOL0     H42080   5.119   2.498   9.309 -0.9399 -0.3785  0.9171
  312MOL0     H42081   5.323   2.461   9.207 -2.2728 -0.5206  2.2377
  312MOL0     H42082   5.445   2.590   9.267 -0.4689  0.8537 -0.5690
  312MOL0     H42083   5.461   2.419   9.304 -1.0731 -1.2527 -1.4841
  312MOL0     H42084   5.647   2.759   9.887  2.9461 -1.4869  0.7483
  312MOL0     H42085   5.855   2.885   9.928 -1.8241  0.1641  0.7019
  312MOL0     H42086   6.137   3.111   9.819 -2.1037  1.0677 -2.2749
  312MOL0     H42087   6.017   3.040   9.926 -0.8262  1.7375 -1.8071
  312MOL0     H42088   6.211   2.934   9.988  0.9668  0.6841 -1.0214
  312MOL0     H42089   6.118   2.829   9.881 -1.9457  1.1673  1.5461
  312MOL0     H42090   6.390   3.000   9.824  1.2621 -0.8962 -2.0332
  312MOL0     H42091   6.285   2.943   9.698  1.7545 -0.1077 -0.9998
  312MOL0     H42092   6.424   2.787   9.913  1.4822  1.7742 -1.0745
  312MOL0     H42093   6.305   2.718   9.786 -0.4857  0.2605 -1.4617
  312MOL0     H42094   6.473   2.790   9.609  2.4311  0.9073 -1.0751
  312MOL0     H42095   6.540   2.675   9.722  2.0118  0.3550  1.5257
  312MOL0     H42096   6.710   2.832   9.655 -0.2203  0.0876  0.2380
  312MOL0     H42097   6.602   2.967   9.675  2.1226  1.7966  0.1311
  312MOL0     H42098   6.752   2.804   9.886  1.9625  2.3665  1.8159
  312MOL0     H42099   6.621   2.930   9.913  1.8857  2.1574  0.5988
  312MOL0     H42100   6.818   3.057   9.925  1.4789  0.0930 -0.7705
  312MOL0     H42101   6.731   3.092   9.773 -3.7310 -1.0149  2.3566
  312MOL0     H42102   5.913   2.887   9.492 -1.1662 -1.9589 -1.7498
  312MOL0     H42103   5.724   2.778   9.466  1.5865  3.3534 -0.7765
  312MOL0     H42104   5.292   2.679   9.720 -0.9318 -2.3770  1.8823
  312MOL0     H42105   5.055   2.631   9.698 -1.6194 -2.7463 -0.5311
  312MOL0     H42106   5.500   2.228   9.970 -0.7943 -0.3051 -0.2904
  312MOL0     H42107   5.662   2.354  10.084 -1.3577 -3.0523  0.4128
  312MOL0     H42108   5.702   2.974  10.293  0.0383  0.6840 -0.4877
  312MOL0     H42109   5.914   3.045  10.373  0.6328  0.4775 -1.1139
  312MOL0     H42110   6.179   3.095  10.326  3.8649 -1.4184 -1.6414
  312MOL0     H42111   6.086   3.038  10.478  0.1806 -0.5013 -1.3244
  312MOL0     H42112   6.382   2.986  10.418 -0.5023 -0.5923  1.2384
  312MOL0     H42113   6.297   2.944  10.562  0.2156  0.6894  1.2461
  312MOL0     H42114   6.362   3.228  10.474  0.9100 -1.2598 -1.2182
  312MOL0     H42115   6.450   3.126  10.594  0.1458 -0.5953 -0.1421
  312MOL0     H42116   6.173   3.234  10.618 -1.2599  0.0814  1.3219
  312MOL0     H42117   6.320   3.286  10.707  0.1034 -1.5635  2.8564
  312MOL0     H42118   6.233   2.937  10.927 -1.6230  1.5653  1.7897
  312MOL0     H42119   6.109   2.699  10.199  1.3530  1.8425 -2.7157
  312MOL0     H42120   5.891   2.619  10.129 -0.4384  0.8258  0.4535
  313MOL0     O42121   9.438   2.916   9.859  0.0228  0.5292 -0.4786
  313MOL0     C42122   9.356   2.996   9.900  0.3012 -0.5247  0.2643
  313MOL0     O42123   9.370   3.132   9.890  0.6251 -0.5917 -0.1578
  313MOL0     C42124   9.474   3.207   9.847  0.7501 -0.5187 -0.1729
  313MOL0     C42125   9.471   3.349   9.880  0.0557 -0.2775  0.1317
  313MOL0     C42126   9.575   3.446   9.840 -0.0761  0.0387  0.0932
  313MOL0     C42127   9.688   3.393   9.779 -0.6023  0.1013  0.1223
  313MOL0     O42128   9.785   3.488   9.760  0.4820 -0.6302  0.2403
  313MOL0     C42129   9.883   3.454   9.662 -0.0325 -0.8803 -0.0658
  313MOL0     C42130   9.987   3.578   9.658 -0.4133  0.0459  0.2877
  313MOL0     C42131  10.100   3.552   9.556 -0.4631 -0.1635  0.3234
  313MOL0     C42132  10.168   3.679   9.528  0.4230 -0.4106 -0.3929
  313MOL0     C42133  10.299   3.669   9.441  0.8644  0.1788 -0.3219
  313MOL0     C42134  10.282   3.579   9.317 -0.1325  0.4901  1.3702
  313MOL0     C42135  10.421   3.558   9.241 -1.0905  1.3822 -1.0292
  313MOL0     C42136  10.468   3.678   9.167 -0.9616 -0.2959  0.0276
  313MOL0     N42137  10.375   3.698   9.055  1.1298 -0.2826  0.0227
  313MOL0     C42138  10.355   3.617   8.946  0.6013  0.7923  0.1128
  313MOL0     C42139  10.266   3.665   8.864 -0.3086 -0.6878 -0.5693
  313MOL0     C42140  10.208   3.608   8.741  0.0739  0.6336  0.7094
  313MOL0     C42141  10.072   3.532   8.776 -0.3787  0.6714  0.5983
  313MOL0     C42142  10.099   3.396   8.838  0.4646  0.1397 -0.4067
  313MOL0     C42143   9.969   3.331   8.900  0.4505  0.3756 -0.1559
  313MOL0     O42144   9.885   3.317   8.788  0.2149 -0.6730 -0.2863
  313MOL0     C42145   9.753   3.288   8.822 -0.3756  0.1137  0.0970
  313MOL0     C42146   9.711   3.210   8.928  0.1214 -0.7871  0.0545
  313MOL0     C42147   9.570   3.189   8.954 -0.2598  0.3936  0.2703
  313MOL0     C42148   9.538   3.092   9.058  0.2976  0.6574 -0.4445
  313MOL0     C42149   9.482   3.249   8.858  0.2827 -0.3486 -0.0894
  313MOL0     C42150   9.332   3.241   8.865  0.6212  0.5029 -0.5186
  313MOL0     O42151   9.260   3.310   8.766 -0.7427 -0.0624 -0.0237
  313MOL0     C42152   9.127   3.325   8.786  0.3020  0.0917 -0.6723
  313MOL0     C42153   9.040   3.263   8.690  0.3384 -0.9152  0.6110
  313MOL0     C42154   8.906   3.257   8.712 -0.1623  0.7774  0.1322
  313MOL0     C42155   8.847   3.313   8.824 -0.7273 -0.3881 -0.0827
  313MOL0     O42156   8.713   3.317   8.864 -0.5834 -0.2590  0.6368
  313MOL0     C42157   8.633   3.222   8.783  1.2774  0.2415 -0.1357
  313MOL0     C42158   8.484   3.247   8.836  0.0165  0.2850  0.6875
  313MOL0     C42159   8.383   3.198   8.735  0.4091 -0.2381 -0.4436
  313MOL0     C42160   8.247   3.160   8.782  0.2304  0.1791 -0.6341
  313MOL0     C42161   8.200   3.015   8.737  0.0370  0.4285 -0.0377
  313MOL0     C42162   8.046   2.992   8.766 -0.2078 -0.8398 -0.2197
  313MOL0     C42163   7.999   2.860   8.702  0.5162 -0.0123  0.1611
  313MOL0     C42164   7.857   2.839   8.694 -0.2982  0.5095 -0.1215
  313MOL0    Cl42165   7.803   2.819   8.857  0.1101  0.1222  0.0889
  313MOL0     C42166   8.926   3.395   8.904  0.8400 -0.8097  0.7015
  313MOL0     C42167   9.065   3.401   8.887  1.0485  0.0786 -0.4551
  313MOL0     O42168   9.283   3.198   8.968 -0.6252  0.8299  0.3616
  313MOL0     C42169   9.534   3.320   8.744 -0.5037  0.0556  0.0620
  313MOL0     C42170   9.675   3.337   8.727  0.7023  0.5220 -0.2170
  313MOL0     N42171  10.211   3.768   8.935 -0.2643  0.1405  0.2695
  313MOL0     N42172  10.278   3.792   9.041  0.1057  1.3954  0.0779
  313MOL0     C42173   9.692   3.252   9.749  0.7305 -0.1110 -0.3040
  313MOL0     C42174   9.581   3.160   9.766 -0.0440 -0.2983 -0.1096
  313MOL0     C42175   9.231   2.949   9.956  0.4732  0.6249 -0.4460
  313MOL0     C42176   9.200   2.812   9.966  0.6851  0.1291  0.3984
  313MOL0     C42177   9.074   2.782  10.015  1.0446  1.1189 -0.8547
  313MOL0     C42178   8.972   2.872  10.049  0.3978 -1.3551  0.0105
  313MOL0     O42179   8.852   2.819  10.083  0.4225 -0.0020 -0.6824
  313MOL0     C42180   8.727   2.893  10.104  0.0122  0.0857 -0.3062
  313MOL0     C42181   8.618   2.812  10.165 -0.5375  0.3682  0.1819
  313MOL0     C42182   8.666   2.762  10.303  0.8484 -0.2091  0.5150
  313MOL0     C42183   8.547   2.696  10.378  0.9713 -0.1100 -0.0013
  313MOL0     C42184   8.456   2.796  10.443 -0.4334 -0.6868 -1.0087
  313MOL0     C42185   8.380   2.872  10.493  0.2358  0.1857 -0.2253
  313MOL0     C42186   9.015   3.005  10.054  0.4464  0.3252  0.5631
  313MOL0     C42187   9.140   3.040  10.006 -1.6005 -0.0043  1.0728
  313MOL0     H42188   9.384   3.387   9.932 -0.1679 -1.5857  0.7414
  313MOL0     H42189   9.555   3.550   9.861 -1.0043 -0.1864  0.3633
  313MOL0     H42190   9.938   3.369   9.704  1.0751 -0.1283  0.0489
  313MOL0     H42191   9.844   3.437   9.561 -0.2803 -1.4416  0.1179
  313MOL0     H42192   9.932   3.667   9.625  2.4323  1.5012 -0.9226
  313MOL0     H42193  10.039   3.597   9.752  1.7363  1.0555 -1.0242
  313MOL0     H42194  10.168   3.473   9.589 -1.7214 -0.8876  1.2718
  313MOL0     H42195  10.062   3.514   9.460 -1.2722  1.4163 -0.0132
  313MOL0     H42196  10.093   3.738   9.475  0.1520 -1.0906 -0.7886
  313MOL0     H42197  10.181   3.724   9.627  0.7256 -0.3276 -0.4708
  313MOL0     H42198  10.332   3.769   9.410 -0.8501  0.3477 -1.7337
  313MOL0     H42199  10.374   3.623   9.506 -0.3970  0.8511  1.7189
  313MOL0     H42200  10.260   3.477   9.350 -2.8445  0.9025  1.0418
  313MOL0     H42201  10.203   3.613   9.250 -2.1236 -0.0561  3.3482
  313MOL0     H42202  10.497   3.532   9.315 -1.4319  0.9833 -0.8160
  313MOL0     H42203  10.405   3.469   9.180 -2.3831  0.3651  0.6889
  313MOL0     H42204  10.574   3.662   9.142 -0.6613 -1.4970  1.8854
  313MOL0     H42205  10.459   3.770   9.225 -1.1038  0.7955 -1.6314
  313MOL0     H42206  10.408   3.523   8.936  4.5069  2.7035  0.6691
  313MOL0     H42207  10.196   3.667   8.651  1.2317 -1.8985 -1.2292
  313MOL0     H42208  10.271   3.527   8.702  1.6137  2.6660 -1.2439
  313MOL0     H42209  10.021   3.512   8.681 -0.7520 -0.8519  1.0953
  313MOL0     H42210  10.004   3.599   8.828 -0.9699  0.2170  0.4171
  313MOL0     H42211  10.177   3.392   8.914  2.7469 -2.3636 -2.6838
  313MOL0     H42212  10.136   3.326   8.762 -2.3443 -1.9427 -0.0368
  313MOL0     H42213   9.922   3.396   8.975  3.0911  1.0685  1.0447
  313MOL0     H42214   9.999   3.234   8.942  2.5439  1.8435  2.0609
  313MOL0     H42215   9.790   3.151   8.975  1.9001  1.3060 -0.1662
  313MOL0     H42216   9.492   3.131   9.150  1.4160  2.3414 -0.5510
  313MOL0     H42217   9.476   3.013   9.015  0.5478  1.3258 -2.1275
  313MOL0     H42218   9.626   3.042   9.099 -0.5898 -0.9874 -0.4898
  313MOL0     H42219   9.080   3.212   8.603 -0.7159 -1.8522  0.6505
  313MOL0     H42220   8.849   3.209   8.634  1.9087 -0.6079 -0.6406
  313MOL0     H42221   8.647   3.245   8.677  2.3369  2.4670  0.4432
  313MOL0     H42222   8.655   3.117   8.807  1.8820  0.5334  0.6381
  313MOL0     H42223   8.468   3.196   8.932  1.5720  0.6890  1.1838
  313MOL0     H42224   8.472   3.354   8.855  0.6474  0.6498 -0.8268
  313MOL0     H42225   8.422   3.121   8.669 -1.9056  0.0962 -2.3597
  313MOL0     H42226   8.369   3.279   8.663  2.9507 -1.6678 -2.7180
  313MOL0     H42227   8.230   3.164   8.890  0.4525 -0.5607 -0.5693
  313MOL0     H42228   8.175   3.228   8.735  2.3288  2.6557 -0.5167
  313MOL0     H42229   8.267   2.946   8.789 -0.1096  1.2990  1.3728
  313MOL0     H42230   8.218   3.001   8.630  1.6831 -1.8753  0.4645
  313MOL0     H42231   8.021   2.989   8.873  3.9009  0.3478  0.9935
  313MOL0     H42232   7.985   3.074   8.729  0.8537  0.7577  1.3582
  313MOL0     H42233   8.031   2.776   8.765 -0.0013 -0.3016  0.0490
  313MOL0     H42234   8.051   2.854   8.606  1.6616  3.4891  0.4256
  313MOL0     H42235   7.828   2.747   8.643 -0.7419  0.8407 -0.4744
  313MOL0     H42236   7.799   2.913   8.638 -1.1813 -0.2816 -0.2860
  313MOL0     H42237   8.873   3.442   8.987  0.2933 -2.2374  1.1955
  313MOL0     H42238   9.124   3.454   8.961  1.1418  0.3570 -0.7258
  313MOL0     H42239   9.467   3.368   8.673  0.0400  1.9040  0.7463
  313MOL0     H42240   9.723   3.398   8.651 -2.4814  2.1603 -1.1170
  313MOL0     H42241   9.783   3.208   9.709  0.8376 -0.6615  0.5175
  313MOL0     H42242   9.593   3.058   9.730 -0.1434  0.1743 -1.5367
  313MOL0     H42243   9.268   2.736   9.929 -1.0301 -1.7071  0.8740
  313MOL0     H42244   9.065   2.674  10.012  2.6410  0.8695  1.0549
  313MOL0     H42245   8.754   2.984  10.158 -3.0679  1.7826 -1.3583
  313MOL0     H42246   8.700   2.934  10.007 -0.8302 -0.5226 -0.3499
  313MOL0     H42247   8.605   2.731  10.092 -2.1372  0.7062  0.0640
  313MOL0     H42248   8.536   2.884  10.172  0.7171  1.7579  1.2335
  313MOL0     H42249   8.695   2.846  10.368  1.7023 -1.0693  1.2662
  313MOL0     H42250   8.744   2.687  10.285 -0.6890 -1.5753 -0.6727
  313MOL0     H42251   8.594   2.631  10.452  1.8508 -1.7532 -1.9299
  313MOL0     H42252   8.483   2.633  10.316 -0.9762  0.5206  1.2407
  313MOL0     H42253   8.299   2.937  10.520 -0.5486 -0.2546 -1.4082
  313MOL0     H42254   8.943   3.085  10.062 -0.5638  0.3616 -4.9114
  313MOL0     H42255   9.171   3.144  10.000  0.6555 -0.7093 -1.2101
  314MOL0     O42256   7.808   8.327   7.493  0.2695  0.1688 -0.9538
  314MOL0     C42257   7.863   8.214   7.499  0.5236 -0.0616 -0.1810
  314MOL0     O42258   7.823   8.101   7.568  0.5268 -0.1114 -0.4801
  314MOL0     C42259   7.691   8.119   7.620  0.1620  1.0477 -0.5361
  314MOL0     C42260   7.580   8.079   7.533 -0.1803 -0.5771 -0.3781
  314MOL0     C42261   7.448   8.078   7.577  0.3106 -0.2523 -1.0488
  314MOL0     C42262   7.424   8.118   7.709  0.6281 -0.6524 -0.0768
  314MOL0     O42263   7.304   8.114   7.769  0.3966  0.8717 -0.0527
  314MOL0     C42264   7.185   8.064   7.704  0.5778  0.3702 -0.1650
  314MOL0     C42265   7.068   8.051   7.803  0.9243  0.3272 -0.1645
  314MOL0     C42266   6.977   7.930   7.764 -0.1491 -0.6144 -0.6295
  314MOL0     C42267   6.835   7.929   7.825  0.2367  0.4731 -0.2209
  314MOL0     C42268   6.748   8.029   7.761 -0.0053  0.2995  0.3134
  314MOL0     C42269   6.605   8.041   7.819  0.1546 -0.0141 -0.0929
  314MOL0     C42270   6.539   8.161   7.759  0.0333  0.3347 -0.4343
  314MOL0     C42271   6.484   8.118   7.624  0.3570  0.2426  0.6770
  314MOL0     N42272   6.348   8.160   7.604 -0.2448 -0.0778 -0.3990
  314MOL0     C42273   6.305   8.284   7.575  0.3763  0.0483  0.4298
  314MOL0     C42274   6.175   8.266   7.584  0.6842  0.3927  0.4255
  314MOL0     C42275   6.078   8.384   7.544  0.0001 -0.2527 -0.3902
  314MOL0     C42276   6.045   8.385   7.395  0.6899 -0.5599  0.1346
  314MOL0     C42277   5.955   8.270   7.352 -0.2036 -0.1707  0.3653
  314MOL0     C42278   5.813   8.275   7.404 -0.6152 -0.2530 -0.5641
  314MOL0     O42279   5.804   8.252   7.542 -0.0179 -0.7899 -0.4926
  314MOL0     C42280   5.695   8.181   7.577  0.1624  0.6160 -0.2239
  314MOL0     C42281   5.556   8.226   7.546 -0.4312  0.4070 -0.2207
  314MOL0     C42282   5.450   8.135   7.568 -0.2479 -0.3623  0.4402
  314MOL0     C42283   5.307   8.190   7.565  0.1622  0.1384  0.6560
  314MOL0     C42284   5.482   8.004   7.606  0.0462 -0.3399  0.5034
  314MOL0     C42285   5.372   7.907   7.608 -0.5621  0.3153  0.2919
  314MOL0     O42286   5.286   7.906   7.506  0.2443  0.1771 -0.7200
  314MOL0     C42287   5.186   7.818   7.493 -0.3066  0.5115  0.3818
  314MOL0     C42288   5.163   7.735   7.382  0.5309  0.4496  1.0143
  314MOL0     C42289   5.047   7.656   7.373  0.0259  0.7946 -0.5038
  314MOL0     C42290   4.956   7.665   7.478  0.3497 -0.2829 -0.5583
  314MOL0     O42291   4.841   7.590   7.464  1.0869  0.2745  0.0353
  314MOL0     C42292   4.751   7.574   7.580 -0.1415  0.5620  0.1607
  314MOL0     C42293   4.660   7.466   7.541  0.2816 -0.5405  0.4006
  314MOL0     C42294   4.589   7.415   7.669  0.5630  0.3011 -0.7469
  314MOL0     C42295   4.527   7.275   7.639 -0.5126 -0.2489  0.2447
  314MOL0     C42296   4.499   7.189   7.761 -0.0935 -0.7541  0.6855
  314MOL0     C42297   4.393   7.251   7.853  0.6173  0.1555 -0.6947
  314MOL0     C42298   4.386   7.164   7.979  0.4932 -0.3772 -0.2958
  314MOL0     C42299   4.500   7.166   8.073  0.1822 -0.0898  0.3669
  314MOL0    Cl42300   4.565   7.337   8.088  0.1134  0.2020 -0.2290
  314MOL0     C42301   4.974   7.754   7.582 -0.5004  0.6066 -0.0742
  314MOL0     C42302   5.089   7.831   7.586  0.4030  0.3962  0.2078
  314MOL0     O42303   5.372   7.833   7.707 -0.0325 -0.4146 -0.4735
  314MOL0     C42304   5.614   7.955   7.631  0.2136  0.0353 -0.5589
  314MOL0     C42305   5.710   8.052   7.627  0.5780  1.1772 -1.0157
  314MOL0     N42306   6.129   8.135   7.612  0.2911  1.0600 -1.3584
  314MOL0     N42307   6.246   8.076   7.626  0.2461  0.0691 -0.0418
  314MOL0     C42308   7.530   8.149   7.795 -0.3014  0.4962  0.8267
  314MOL0     C42309   7.671   8.141   7.754 -0.1909  0.4433 -0.0900
  314MOL0     C42310   8.000   8.207   7.449 -0.4844 -0.5243 -0.5658
  314MOL0     C42311   8.051   8.304   7.361  0.1431 -0.5165 -0.1952
  314MOL0     C42312   8.175   8.301   7.298  0.0893  0.4171 -0.1660
  314MOL0     C42313   8.261   8.185   7.318  0.3443  0.0239  0.0132
  314MOL0     O42314   8.383   8.178   7.265  1.0179  0.1622  0.3099
  314MOL0     C42315   8.458   8.295   7.255 -0.2119 -0.2373 -0.7568
  314MOL0     C42316   8.601   8.275   7.314  0.0671  0.2043  0.4051
  314MOL0     C42317   8.606   8.263   7.464 -1.5220 -0.5227 -0.5161
  314MOL0     C42318   8.740   8.291   7.527  0.1550  1.3591  1.2677
  314MOL0     C42319   8.797   8.418   7.496  0.1376 -0.0235  0.0941
  314MOL0     C42320   8.833   8.523   7.444 -0.6854 -0.4974 -0.0917
  314MOL0     C42321   8.207   8.080   7.405 -0.3945 -0.1484 -0.1803
  314MOL0     C42322   8.075   8.097   7.460 -0.6724 -0.1579  1.4255
  314MOL0     H42323   7.599   8.065   7.427 -2.1121 -0.1690 -0.8180
  314MOL0     H42324   7.368   8.043   7.512  0.7570  0.7900 -2.2081
  314MOL0     H42325   7.144   8.131   7.627 -1.0679  0.0813  0.4089
  314MOL0     H42326   7.213   7.965   7.667  1.2304 -0.3183  2.0234
  314MOL0     H42327   7.110   8.027   7.901 -1.0549 -0.7271  0.4752
  314MOL0     H42328   7.014   8.144   7.818 -2.6575 -0.9962 -3.3395
  314MOL0     H42329   6.972   7.918   7.656  3.5534 -1.3534 -0.8654
  314MOL0     H42330   7.032   7.843   7.802 -1.7057 -1.4366 -0.1647
  314MOL0     H42331   6.782   7.835   7.806  0.4922  0.2914 -0.0334
  314MOL0     H42332   6.843   7.950   7.932 -2.1092  5.0908 -0.6962
  314MOL0     H42333   6.795   8.124   7.786  1.2464 -0.3045  0.3120
  314MOL0     H42334   6.742   8.012   7.653  0.7529  0.2544  0.2718
  314MOL0     H42335   6.546   7.948   7.814 -0.3744  0.3884 -2.9144
  314MOL0     H42336   6.612   8.060   7.926 -1.8274 -0.6678  0.1977
  314MOL0     H42337   6.453   8.187   7.822 -0.0792 -1.4624  0.2101
  314MOL0     H42338   6.598   8.253   7.768 -2.9181  2.2121  1.4714
  314MOL0     H42339   6.490   8.010   7.609  1.9080  0.4642 -0.5381
  314MOL0     H42340   6.549   8.157   7.546 -1.0851 -1.3676 -1.4434
  314MOL0     H42341   6.365   8.372   7.554 -1.6215  2.2600  3.2367
  314MOL0     H42342   5.992   8.379   7.611  0.3983  1.3352  0.2947
  314MOL0     H42343   6.127   8.477   7.573  0.8724 -0.1002 -2.1591
  314MOL0     H42344   6.135   8.399   7.334 -0.0477  0.8978 -0.6683
  314MOL0     H42345   6.001   8.483   7.372 -1.6541 -0.9795  2.3237
  314MOL0     H42346   6.003   8.184   7.401 -0.3382  1.1898  3.0795
  314MOL0     H42347   5.957   8.255   7.244  0.5775 -1.3311  0.5214
  314MOL0     H42348   5.741   8.208   7.355 -0.1632  0.3034 -2.0422
  314MOL0     H42349   5.788   8.379   7.385  1.7747  0.6437  0.7898
  314MOL0     H42350   5.534   8.330   7.524 -1.7554 -0.6833 -5.2797
  314MOL0     H42351   5.238   8.124   7.619  3.9702 -1.6701  3.8036
  314MOL0     H42352   5.311   8.284   7.622 -3.3909  1.1517 -0.4743
  314MOL0     H42353   5.277   8.227   7.467  1.6670 -0.1480  0.0657
  314MOL0     H42354   5.234   7.744   7.300 -3.1563 -2.1911 -2.9430
  314MOL0     H42355   5.020   7.592   7.290  1.0436  0.0044 -0.2444
  314MOL0     H42356   4.805   7.552   7.672 -0.4372 -0.8061  0.0280
  314MOL0     H42357   4.690   7.663   7.596  0.4659  1.0165 -0.0076
  314MOL0     H42358   4.596   7.492   7.456  0.7420  4.7501  1.3483
  314MOL0     H42359   4.712   7.381   7.497 -0.1906  0.9781 -3.4572
  314MOL0     H42360   4.522   7.488   7.715  0.4882  0.7407 -1.5253
  314MOL0     H42361   4.664   7.389   7.744 -0.9416 -1.7844  0.1082
  314MOL0     H42362   4.438   7.278   7.574  0.6907 -0.7171 -1.4943
  314MOL0     H42363   4.602   7.219   7.583 -0.1569  1.7350 -1.3646
  314MOL0     H42364   4.596   7.178   7.811  2.8511  0.2235 -4.1553
  314MOL0     H42365   4.471   7.087   7.734  5.0627 -3.3868  3.6816
  314MOL0     H42366   4.410   7.359   7.865  2.0142 -0.1966  0.7679
  314MOL0     H42367   4.300   7.243   7.796  0.3300 -0.8414 -0.0965
  314MOL0     H42368   4.377   7.060   7.948 -1.7516 -1.0742  2.3555
  314MOL0     H42369   4.295   7.190   8.034 -0.1158 -1.9304 -0.5339
  314MOL0     H42370   4.584   7.111   8.029 -0.0059 -1.2474  1.4172
  314MOL0     H42371   4.476   7.124   8.171  1.6292  0.5755  1.0265
  314MOL0     H42372   4.903   7.760   7.664  0.6741 -0.8622  1.1135
  314MOL0     H42373   5.103   7.895   7.673  0.6107  1.0065 -0.2720
  314MOL0     H42374   5.640   7.856   7.667 -0.1609  1.0554  2.8896
  314MOL0     H42375   5.808   8.014   7.655  1.9251  1.3280 -4.9393
  314MOL0     H42376   7.516   8.179   7.898  0.3923  2.9990  0.2686
  314MOL0     H42377   7.756   8.157   7.819 -1.8937  1.9658  1.9202
  314MOL0     H42378   7.986   8.387   7.333  2.4149  0.2482 -3.9541
  314MOL0     H42379   8.218   8.377   7.235  3.6653  0.0496  1.5916
  314MOL0     H42380   8.472   8.321   7.149 -1.1814  0.0804 -0.8131
  314MOL0     H42381   8.419   8.385   7.304 -0.0140 -1.5094  1.8943
  314MOL0     H42382   8.658   8.362   7.280 -0.3036 -0.2643 -1.5404
  314MOL0     H42383   8.637   8.179   7.277 -0.7081  0.3771 -0.8647
  314MOL0     H42384   8.572   8.168   7.505  0.9817 -0.3923  2.1460
  314MOL0     H42385   8.538   8.340   7.502 -0.0523  1.5658 -1.8628
  314MOL0     H42386   8.810   8.216   7.490 -1.3501 -0.7836  2.5246
  314MOL0     H42387   8.722   8.283   7.634 -4.7808  0.3297  0.6010
  314MOL0     H42388   8.887   8.612   7.419  0.1989  0.3733  4.2281
  314MOL0     H42389   8.256   7.984   7.405 -0.6711 -0.2913  0.1851
  314MOL0     H42390   8.029   8.014   7.512 -3.5345  0.3159 -0.1231
  315MOL0     O42391   5.620  10.497   6.225  0.1916  1.4736 -0.3632
  315MOL0     C42392   5.522  10.529   6.297 -0.4318 -0.3662  0.4789
  315MOL0     O42393   5.506  10.504   6.428 -0.9537 -0.7343  0.3406
  315MOL0     C42394   5.600  10.433   6.497  1.0279  0.6524  0.5335
  315MOL0     C42395   5.545  10.334   6.575 -0.4372  0.0281 -0.2283
  315MOL0     C42396   5.630  10.244   6.654  0.1933  0.0797 -0.7340
  315MOL0     C42397   5.768  10.268   6.647 -0.7084 -0.7666  0.6581
  315MOL0     O42398   5.851  10.209   6.735 -0.2096 -0.0600  0.6480
  315MOL0     C42399   5.902  10.080   6.690  0.7322 -0.5451  0.3532
  315MOL0     C42400   5.990  10.022   6.798  0.6383 -0.4969  0.0837
  315MOL0     C42401   5.929  10.011   6.937 -0.9657 -0.5069  0.0823
  315MOL0     C42402   5.949  10.140   7.021  0.4133  0.0986  0.8758
  315MOL0     C42403   6.041  10.131   7.142  0.5455  0.7767  0.3542
  315MOL0     C42404   6.011  10.244   7.251  1.0386 -0.3780  1.1413
  315MOL0     C42405   6.129  10.259   7.349  0.6406 -0.1578  0.1515
  315MOL0     C42406   6.098  10.385   7.439  0.6179  0.5979  0.3906
  315MOL0     N42407   5.975  10.356   7.522 -0.2235 -0.3369 -0.3304
  315MOL0     C42408   5.868  10.438   7.534 -0.3665 -0.9435 -0.4101
  315MOL0     C42409   5.798  10.404   7.643  1.1582 -0.0848 -0.7491
  315MOL0     C42410   5.668  10.462   7.696  0.1726  1.0120  0.2539
  315MOL0     C42411   5.553  10.454   7.599 -0.1622  0.3142  0.3420
  315MOL0     C42412   5.429  10.506   7.678 -1.1326  0.3317  0.0478
  315MOL0     C42413   5.299  10.501   7.590 -0.2279 -0.3187  0.1127
  315MOL0     O42414   5.329  10.588   7.482 -0.3427 -0.1840  0.1872
  315MOL0     C42415   5.234  10.579   7.384  0.1284  0.0265  0.3637
  315MOL0     C42416   5.271  10.498   7.276  0.5583  0.0724 -0.2228
  315MOL0     C42417   5.165  10.463   7.193 -0.5198 -0.4042  0.4920
  315MOL0     C42418   5.186  10.367   7.078  0.4320  0.1525 -0.0187
  315MOL0     C42419   5.030  10.512   7.214  0.1536  0.2731 -0.2002
  315MOL0     C42420   4.917  10.510   7.117 -0.2953 -0.4056 -1.0307
  315MOL0     O42421   4.801  10.476   7.161  0.9988  0.5669 -0.0425
  315MOL0     C42422   4.701  10.462   7.076  0.5663 -0.2812 -0.2154
  315MOL0     C42423   4.587  10.538   7.116 -0.0646 -0.0069  0.7798
  315MOL0     C42424   4.472  10.518   7.048  0.8035 -0.0365  0.0770
  315MOL0     C42425   4.466  10.429   6.940  0.4118 -0.0984 -0.1090
  315MOL0     O42426   4.358  10.412   6.866  0.4374  0.1465  0.1017
  315MOL0     C42427   4.238  10.366   6.934 -0.1420 -0.5292  0.1843
  315MOL0     C42428   4.129  10.362   6.833  0.6866  0.0543  0.7016
  315MOL0     C42429   3.999  10.338   6.903  0.1022  0.1459  0.2575
  315MOL0     C42430   3.890  10.325   6.798 -0.1884  0.6709 -1.3386
  315MOL0     C42431   3.775  10.248   6.860  0.1239  0.2645  0.4317
  315MOL0     C42432   3.690  10.213   6.743  0.8534 -0.0759 -0.1698
  315MOL0     C42433   3.544  10.185   6.796  0.4119 -0.3655  1.1260
  315MOL0     C42434   3.459  10.175   6.663 -0.6182 -0.2073 -0.2685
  315MOL0    Cl42435   3.457  10.313   6.553 -0.0838  0.2648 -0.4059
  315MOL0     C42436   4.573  10.353   6.905 -0.7426  0.5972  0.1069
  315MOL0     C42437   4.692  10.364   6.979 -0.7674 -0.9697 -0.8930
  315MOL0     O42438   4.945  10.541   6.995  0.4063 -0.7177 -0.1414
  315MOL0     C42439   4.995  10.588   7.325  0.3090 -0.6097 -0.4652
  315MOL0     C42440   5.096  10.619   7.410  0.0052 -0.5003 -0.3402
  315MOL0     N42441   5.861  10.286   7.691 -0.2643  0.7578 -0.6722
  315MOL0     N42442   5.963  10.254   7.609  0.1173 -0.1739 -0.2659
  315MOL0     C42443   5.823  10.358   6.553 -0.1407  0.6836 -0.4977
  315MOL0     C42444   5.738  10.446   6.482  0.7628  1.0060  0.3754
  315MOL0     C42445   5.417  10.600   6.226 -0.0146  0.2780  0.3026
  315MOL0     C42446   5.320  10.677   6.293 -0.4657  0.5626 -0.2708
  315MOL0     C42447   5.233  10.742   6.215 -0.0591 -1.3749  0.4452
  315MOL0     C42448   5.214  10.715   6.080  0.8219  0.2154 -0.5631
  315MOL0     O42449   5.113  10.787   6.016  0.0100 -1.0469 -0.3760
  315MOL0     C42450   5.064  10.743   5.890  0.0021  0.2435 -0.8438
  315MOL0     C42451   4.923  10.800   5.875 -0.2934  0.3277 -0.4812
  315MOL0     C42452   4.866  10.780   5.729  0.2301  0.3934 -1.1611
  315MOL0     C42453   4.729  10.846   5.706  0.3788 -0.1231  0.0799
  315MOL0     C42454   4.712  10.868   5.561 -0.2184  0.2596  0.4271
  315MOL0     C42455   4.704  10.881   5.437  1.0548 -0.0308  0.4588
  315MOL0     C42456   5.302  10.634   6.013 -0.1393  0.6392 -0.8469
  315MOL0     C42457   5.404  10.577   6.091  0.2897 -0.2091  0.3053
  315MOL0     H42458   5.438  10.338   6.592 -0.2538 -2.2831  2.1264
  315MOL0     H42459   5.584  10.172   6.721 -2.8923 -0.1322 -2.8788
  315MOL0     H42460   5.813  10.021   6.667 -0.2127  1.1723 -0.6798
  315MOL0     H42461   5.970  10.093   6.605  2.7665 -2.2418  1.6120
  315MOL0     H42462   6.012   9.917   6.775  0.7282 -0.3953 -0.2934
  315MOL0     H42463   6.085  10.076   6.797  0.9573 -0.9906  1.2299
  315MOL0     H42464   5.823   9.985   6.935 -0.6788 -1.7964  0.4228
  315MOL0     H42465   5.970   9.935   7.004  0.1633  0.5663  0.6545
  315MOL0     H42466   5.985  10.220   6.956  1.3407  1.0854  2.5472
  315MOL0     H42467   5.853  10.175   7.060 -0.4759  0.2624 -1.3107
  315MOL0     H42468   6.024  10.037   7.195 -1.4261 -0.4250 -2.1855
  315MOL0     H42469   6.142  10.134   7.101  0.8595  1.8069  1.1465
  315MOL0     H42470   6.005  10.340   7.200  1.4928  0.0828  1.9407
  315MOL0     H42471   5.916  10.221   7.300  1.4548 -1.3983  1.5016
  315MOL0     H42472   6.125  10.165   7.406 -2.8485 -0.8648 -1.0045
  315MOL0     H42473   6.215  10.265   7.282  1.6800 -0.6068  1.4150
  315MOL0     H42474   6.077  10.472   7.376 -2.2210 -0.6059 -0.4995
  315MOL0     H42475   6.179  10.406   7.509 -1.3125 -0.7931  3.2307
  315MOL0     H42476   5.853  10.512   7.455  0.4417 -1.1242 -0.7463
  315MOL0     H42477   5.649  10.389   7.775  3.4643 -0.6245 -0.2850
  315MOL0     H42478   5.686  10.558   7.744 -1.7313  0.2826  2.6530
  315MOL0     H42479   5.525  10.351   7.575 -0.1583  0.4037 -0.0625
  315MOL0     H42480   5.571  10.515   7.510  0.1639 -1.1539 -0.6340
  315MOL0     H42481   5.441  10.609   7.713  2.1792  0.4194 -1.0122
  315MOL0     H42482   5.402  10.440   7.762 -2.1535  0.7655  0.0767
  315MOL0     H42483   5.205  10.533   7.636 -0.1209  1.7006 -0.9565
  315MOL0     H42484   5.284  10.395   7.566  0.6990 -0.8590  1.7744
  315MOL0     H42485   5.371  10.456   7.264  1.5554  2.0929  0.6048
  315MOL0     H42486   5.275  10.305   7.091 -0.5136 -0.9936  1.2478
  315MOL0     H42487   5.103  10.296   7.075 -1.3754  2.0729  1.7214
  315MOL0     H42488   5.196  10.421   6.983 -1.5742  1.0530  0.2379
  315MOL0     H42489   4.597  10.611   7.195 -0.5036  0.0978  0.7403
  315MOL0     H42490   4.388  10.581   7.075  2.7613  1.6415  2.7286
  315MOL0     H42491   4.255  10.268   6.979  0.2814 -0.2393  0.6668
  315MOL0     H42492   4.213  10.429   7.020 -0.7243 -1.5484  0.7845
  315MOL0     H42493   4.121  10.460   6.786 -0.8013 -1.5226 -2.7036
  315MOL0     H42494   4.137  10.281   6.760  0.0490  0.5037  0.1152
  315MOL0     H42495   3.969  10.413   6.977 -0.1401  0.7347 -0.4315
  315MOL0     H42496   4.011  10.243   6.956  1.2414  1.8961  3.4509
  315MOL0     H42497   3.861  10.421   6.754  1.0964  1.0786 -1.3556
  315MOL0     H42498   3.932  10.272   6.712 -0.9568  0.6917 -1.7315
  315MOL0     H42499   3.725  10.313   6.933  1.5333  0.3802  1.3408
  315MOL0     H42500   3.814  10.157   6.907  1.6766  0.5847 -0.1834
  315MOL0     H42501   3.670  10.307   6.690 -1.1956 -0.5956 -0.3959
  315MOL0     H42502   3.729  10.134   6.678  0.4970  1.0007 -1.7567
  315MOL0     H42503   3.514  10.276   6.847 -1.7651 -0.2190 -0.3000
  315MOL0     H42504   3.545  10.092   6.854  0.1008  0.6375  2.7906
  315MOL0     H42505   3.357  10.146   6.691 -0.7300  0.8265  0.4449
  315MOL0     H42506   3.501  10.102   6.593  0.5470 -0.2141  0.4084
  315MOL0     H42507   4.557  10.289   6.819  1.3318  1.6510 -1.1555
  315MOL0     H42508   4.776  10.303   6.950  0.7560 -1.0551  3.1307
  315MOL0     H42509   4.898  10.626   7.355  1.7898  0.6507  3.2611
  315MOL0     H42510   5.092  10.677   7.502  3.7428 -2.0892  1.0522
  315MOL0     H42511   5.931  10.352   6.550  0.0790  1.9129  1.9677
  315MOL0     H42512   5.791  10.525   6.430 -1.3293  1.3674 -1.3846
  315MOL0     H42513   5.326  10.707   6.397  2.3894  0.2798 -0.2702
  315MOL0     H42514   5.175  10.821   6.262 -1.4554 -2.3212  0.3805
  315MOL0     H42515   5.134  10.781   5.815  2.7872  2.4177  2.5168
  315MOL0     H42516   5.062  10.633   5.890 -0.1374  0.1785  1.5182
  315MOL0     H42517   4.925  10.906   5.902  0.2408  0.6475 -1.7329
  315MOL0     H42518   4.854  10.743   5.938  1.4028 -1.3594 -0.0501
  315MOL0     H42519   4.872  10.675   5.699 -0.4406  0.5623 -1.9048
  315MOL0     H42520   4.933  10.826   5.657 -1.1226  0.8006 -2.2068
  315MOL0     H42521   4.710  10.936   5.766  1.5655  0.5012 -0.4423
  315MOL0     H42522   4.653  10.771   5.731  0.4772 -1.5591 -3.3721
  315MOL0     H42523   4.672  10.889   5.335  0.1557 -0.8112  0.6647
  315MOL0     H42524   5.293  10.611   5.908  0.7480 -0.1891 -0.7609
  315MOL0     H42525   5.474  10.514   6.037  1.3989  1.4432 -0.2371
  316MOL0     O42526   2.951   5.491   3.942 -0.9816 -0.2203  0.8165
  316MOL0     C42527   2.936   5.418   3.844  1.0735 -0.1081  0.0188
  316MOL0     O42528   2.818   5.416   3.771  0.2998  0.2191  0.5629
  316MOL0     C42529   2.705   5.454   3.829  0.2406 -0.2437  0.2145
  316MOL0     C42530   2.656   5.410   3.958 -0.5489 -0.4318  1.0650
  316MOL0     C42531   2.522   5.446   3.981 -0.2413  0.7309 -0.0479
  316MOL0     C42532   2.434   5.507   3.889 -0.1241 -0.5232 -0.2424
  316MOL0     O42533   2.301   5.525   3.899  0.1380  0.6633  0.5379
  316MOL0     C42534   2.231   5.444   4.000  0.7955  0.2072  0.4854
  316MOL0     C42535   2.081   5.432   3.967 -0.7638 -0.1161 -0.1748
  316MOL0     C42536   2.005   5.369   4.088 -1.0062 -0.6560 -0.5211
  316MOL0     C42537   1.864   5.325   4.057  0.5358 -0.5776  0.8159
  316MOL0     C42538   1.776   5.446   3.998  0.1144 -0.2621 -0.1297
  316MOL0     C42539   1.768   5.575   4.088 -0.2373 -0.2319 -0.4471
  316MOL0     C42540   1.676   5.684   4.024 -0.6600 -0.0792 -0.8470
  316MOL0     C42541   1.539   5.630   3.966  0.1786  0.5676  0.0844
  316MOL0     N42542   1.454   5.585   4.075  0.2888  1.3711  0.1327
  316MOL0     C42543   1.363   5.664   4.139  0.1124 -0.2259 -0.6470
  316MOL0     C42544   1.302   5.575   4.220  0.0206 -0.7951  0.3275
  316MOL0     C42545   1.187   5.622   4.295  0.3246  0.2414 -0.1816
  316MOL0     C42546   1.084   5.716   4.214  0.4093  0.1439 -0.1153
  316MOL0     C42547   0.954   5.712   4.295  0.8026 -0.6937 -0.3310
  316MOL0     C42548   0.844   5.779   4.215  0.1174  0.0605  0.0951
  316MOL0     O42549   0.723   5.773   4.293  0.2599 -0.5976 -0.4975
  316MOL0     C42550   0.623   5.853   4.248 -0.7918 -0.5453  0.2697
  316MOL0     C42551   0.574   5.842   4.119  0.1537  0.2137  0.3808
  316MOL0     C42552   0.488   5.936   4.073  0.1959  0.2034  0.1047
  316MOL0     C42553   0.451   5.908   3.930 -0.2889 -0.1908 -0.5947
  316MOL0     C42554   0.432   6.034   4.158 -0.4630  0.7271 -0.1369
  316MOL0     C42555   0.327   6.130   4.116 -0.2694 -0.2412 -0.1125
  316MOL0     O42556   0.250   6.183   4.218  0.3918 -0.6927 -0.7288
  316MOL0     C42557   0.135   6.249   4.205  0.5608 -0.4860  0.8889
  316MOL0     C42558   0.081   6.317   4.321 -0.1377 -0.0628  0.0735
  316MOL0     C42559  -0.034   6.388   4.311  0.4480 -0.2213 -0.1394
  316MOL0     C42560  -0.114   6.399   4.195  0.2600 -0.7687 -0.0028
  316MOL0     O42561  -0.222   6.487   4.184  0.2553 -0.1532  0.0947
  316MOL0     C42562  -0.337   6.424   4.125  0.5497 -0.4290  0.2483
  316MOL0     C42563  -0.461   6.518   4.155  0.8043 -0.1632 -0.5715
  316MOL0     C42564  -0.571   6.468   4.069  0.8481  0.2808 -0.1779
  316MOL0     C42565  -0.703   6.537   4.121  1.0872 -0.1961  0.0711
  316MOL0     C42566  -0.829   6.489   4.044  1.6604 -0.2462  0.3123
  316MOL0     C42567  -0.948   6.556   4.108  0.0359 -0.3950  0.0088
  316MOL0     C42568  -0.976   6.685   4.027  0.6170  0.2631  0.2408
  316MOL0     C42569  -1.069   6.653   3.913  0.2483 -0.6553  0.1120
  316MOL0    Cl42570  -1.054   6.797   3.819  0.0241 -0.1395  0.2239
  316MOL0     C42571  -0.067   6.325   4.080  0.6350  0.2937 -0.2666
  316MOL0     C42572   0.054   6.239   4.091 -0.0443  0.3102  0.3009
  316MOL0     O42573   0.325   6.165   4.001  0.1660 -0.1088  0.5764
  316MOL0     C42574   0.491   6.048   4.285  0.0926  0.6519 -0.1712
  316MOL0     C42575   0.582   5.956   4.332 -0.0845 -0.5056  1.0863
  316MOL0     N42576   1.358   5.452   4.205 -0.1778 -0.2620  0.1400
  316MOL0     N42577   1.449   5.455   4.116 -0.0175  0.1387 -0.3046
  316MOL0     C42578   2.482   5.558   3.774 -0.3225  0.2228 -0.0556
  316MOL0     C42579   2.614   5.524   3.744 -0.5733 -0.8923  0.5852
  316MOL0     C42580   3.029   5.310   3.802 -0.3670  0.0615 -0.3090
  316MOL0     C42581   2.989   5.189   3.735  0.2382 -0.2777 -0.6712
  316MOL0     C42582   3.082   5.091   3.718 -0.5215  0.3048 -0.1123
  316MOL0     C42583   3.209   5.095   3.763 -0.3656 -0.2831  0.3478
  316MOL0     O42584   3.291   4.983   3.750  0.0439  0.1377 -1.1970
  316MOL0     C42585   3.418   4.978   3.816 -0.5791 -0.0958  0.1627
  316MOL0     C42586   3.403   4.949   3.962  0.0220 -0.9869 -0.3631
  316MOL0     C42587   3.537   4.952   4.042  0.6069 -0.1403 -0.9064
  316MOL0     C42588   3.671   4.940   3.961  0.4591 -0.8576  0.4482
  316MOL0     C42589   3.789   4.939   4.049  0.3428 -0.6388  0.1606
  316MOL0     C42590   3.884   4.938   4.122 -0.0068  0.3301 -0.4446
  316MOL0     C42591   3.254   5.217   3.815 -0.3822  0.6838  0.1172
  316MOL0     C42592   3.162   5.324   3.837 -1.2145  0.1101 -0.3382
  316MOL0     H42593   2.709   5.352   4.032  0.2736  0.8585  1.5103
  316MOL0     H42594   2.479   5.411   4.074 -3.2836  1.6156 -0.9928
  316MOL0     H42595   2.264   5.340   4.010 -0.4800 -0.2774 -0.1498
  316MOL0     H42596   2.232   5.489   4.100 -0.1419  1.7721 -0.1604
  316MOL0     H42597   2.055   5.534   3.939  2.9531  1.0690  0.2468
  316MOL0     H42598   2.070   5.356   3.888  0.9064  2.1911 -2.7910
  316MOL0     H42599   2.063   5.287   4.131  2.0586  2.9412  3.1350
  316MOL0     H42600   1.996   5.438   4.172  0.5005 -0.3537 -0.5790
  316MOL0     H42601   1.859   5.241   3.987  1.1405  0.1766 -0.1683
  316MOL0     H42602   1.821   5.282   4.148  0.5109 -4.1851 -0.7515
  316MOL0     H42603   1.806   5.469   3.896  1.7374  1.1618  0.6270
  316MOL0     H42604   1.674   5.406   3.993  0.4644 -0.9714 -3.0090
  316MOL0     H42605   1.746   5.543   4.190 -0.9724 -0.5290 -0.6955
  316MOL0     H42606   1.864   5.627   4.093 -0.8321  0.9205 -0.7242
  316MOL0     H42607   1.665   5.762   4.099  1.0652 -1.1966  0.6591
  316MOL0     H42608   1.727   5.737   3.943 -0.7461  0.8749 -0.2938
  316MOL0     H42609   1.552   5.547   3.896  2.5507  0.2420  0.8029
  316MOL0     H42610   1.491   5.711   3.911  1.1140 -0.9742 -3.2313
  316MOL0     H42611   1.332   5.763   4.108  2.9682  1.9130  2.5499
  316MOL0     H42612   1.139   5.526   4.318  2.6335 -1.3584 -1.6077
  316MOL0     H42613   1.207   5.664   4.394 -4.9235 -1.1793  1.8423
  316MOL0     H42614   1.053   5.661   4.125  0.0714 -0.4237  0.3464
  316MOL0     H42615   1.120   5.816   4.188  0.7195 -0.8890 -4.3693
  316MOL0     H42616   0.968   5.762   4.392  1.2307 -0.2193 -0.6326
  316MOL0     H42617   0.932   5.607   4.316 -0.0251 -0.7006 -1.1667
  316MOL0     H42618   0.827   5.729   4.120  3.4436  0.9228 -1.0853
  316MOL0     H42619   0.874   5.882   4.195  3.8718 -0.6366  1.3151
  316MOL0     H42620   0.599   5.756   4.058  2.3836  0.6658  0.5415
  316MOL0     H42621   0.509   5.977   3.869 -0.6364 -0.8374 -1.6674
  316MOL0     H42622   0.458   5.804   3.898 -1.6297 -0.3495 -0.4488
  316MOL0     H42623   0.346   5.935   3.914  0.4049  1.2838 -3.3414
  316MOL0     H42624   0.139   6.319   4.412 -2.5610  0.2693  1.7242
  316MOL0     H42625  -0.061   6.451   4.396 -2.0647  0.5010 -1.3905
  316MOL0     H42626  -0.322   6.409   4.018 -2.5630 -0.5482 -0.2759
  316MOL0     H42627  -0.344   6.335   4.188  2.9299  0.0376  1.2556
  316MOL0     H42628  -0.501   6.508   4.256  0.9651  2.4341 -0.1821
  316MOL0     H42629  -0.439   6.625   4.149  0.8792 -0.0283  1.5682
  316MOL0     H42630  -0.588   6.360   4.061  0.0283  0.4893 -1.5457
  316MOL0     H42631  -0.552   6.503   3.967  0.2383  0.3502 -0.2751
  316MOL0     H42632  -0.715   6.512   4.227  0.3065  1.4604  0.3998
  316MOL0     H42633  -0.687   6.645   4.118  5.9781 -0.1934  5.6946
  316MOL0     H42634  -0.853   6.388   4.081 -2.8224  0.9444  1.1785
  316MOL0     H42635  -0.828   6.492   3.935  0.6701  0.0592  0.3013
  316MOL0     H42636  -1.036   6.491   4.104 -1.1253  1.1384 -0.1017
  316MOL0     H42637  -0.951   6.586   4.213 -1.7123 -3.4282  0.9336
  316MOL0     H42638  -0.884   6.720   3.978 -0.5006 -2.8916 -4.9860
  316MOL0     H42639  -1.021   6.761   4.091  0.8730  0.8441 -0.2571
  316MOL0     H42640  -1.175   6.638   3.936  0.6641  0.8261  3.5599
  316MOL0     H42641  -1.039   6.566   3.853  1.3267 -0.7478  0.7714
  316MOL0     H42642  -0.126   6.318   3.989  1.7027 -2.5396 -0.8540
  316MOL0     H42643   0.082   6.165   4.017 -1.4627 -3.7097  3.4331
  316MOL0     H42644   0.454   6.125   4.352  0.0031 -0.6919  1.3635
  316MOL0     H42645   0.639   5.961   4.424  0.3792  1.1715  0.7373
  316MOL0     H42646   2.410   5.610   3.712 -3.2693 -2.1802  1.0982
  316MOL0     H42647   2.645   5.546   3.642  1.3791  1.4196  1.5863
  316MOL0     H42648   2.886   5.177   3.702 -1.1229  0.8280  2.7222
  316MOL0     H42649   3.059   4.996   3.671 -0.4734  0.9922 -1.6035
  316MOL0     H42650   3.468   4.888   3.777 -0.4196  0.3066 -0.5854
  316MOL0     H42651   3.477   5.068   3.795  0.4923 -0.2744  2.1579
  316MOL0     H42652   3.353   4.854   3.982 -1.9042  0.3386  1.6149
  316MOL0     H42653   3.341   5.034   3.994  2.0357  0.4387 -0.0525
  316MOL0     H42654   3.526   4.866   4.108  0.9295 -0.9138 -1.8428
  316MOL0     H42655   3.538   5.049   4.094  2.2903  0.6058 -2.2359
  316MOL0     H42656   3.689   5.018   3.886  2.1858  0.3009  1.9851
  316MOL0     H42657   3.667   4.851   3.898  3.0258  1.2341 -3.0068
  316MOL0     H42658   3.955   4.940   4.202  1.3755 -2.5163 -1.4643
  316MOL0     H42659   3.352   5.231   3.859 -0.6874 -1.6053  1.7324
  316MOL0     H42660   3.195   5.414   3.889 -1.0748  0.8413 -1.6475
  317MOL0     O42661   5.418   9.007   9.812  0.1319 -0.3842 -0.3893
  317MOL0     C42662   5.425   8.976   9.694 -0.2144 -0.0618  0.2962
  317MOL0     O42663   5.532   9.006   9.605  0.0379 -0.0711  0.0474
  317MOL0     C42664   5.658   9.042   9.654 -0.0660  0.2721  0.5635
  317MOL0     C42665   5.748   9.123   9.583 -0.1079 -0.0224  0.3602
  317MOL0     C42666   5.882   9.157   9.623 -0.0083 -0.0359  1.8288
  317MOL0     C42667   5.918   9.115   9.749 -0.5871  0.3552 -0.5432
  317MOL0     O42668   6.029   9.162   9.812  0.1017  0.0552  0.0585
  317MOL0     C42669   6.097   9.276   9.765  0.3461 -0.3448  0.3762
  317MOL0     C42670   6.221   9.285   9.864 -1.1738 -0.6641  0.5765
  317MOL0     C42671   6.284   9.427   9.840 -0.0948 -0.3344  0.3153
  317MOL0     C42672   6.409   9.461   9.918 -0.7538 -0.6513 -0.3746
  317MOL0     C42673   6.414   9.607   9.979 -0.0079  0.0944 -0.1436
  317MOL0     C42674   6.505   9.610  10.103  0.4938  0.0901 -0.6275
  317MOL0     C42675   6.545   9.749  10.159 -0.2583 -0.1331 -0.6728
  317MOL0     C42676   6.670   9.810  10.102 -0.0853  0.2377  0.0723
  317MOL0     N42677   6.802   9.753  10.165  0.9019 -0.3759  0.0220
  317MOL0     C42678   6.920   9.728  10.096  0.3634 -0.1452 -0.4738
  317MOL0     C42679   7.020   9.743  10.192  0.0262  0.2339  0.1900
  317MOL0     C42680   7.161   9.728  10.162 -0.3057 -0.3775  0.2267
  317MOL0     C42681   7.209   9.804  10.034 -0.4758 -0.3665 -0.2044
  317MOL0     C42682   7.208   9.967  10.050  0.2035 -0.0351 -0.1755
  317MOL0     C42683   7.067  10.037  10.044  0.2299  0.2309 -0.1004
  317MOL0     O42684   7.003  10.000   9.917  0.2023  0.0350  0.2506
  317MOL0     C42685   6.869  10.017   9.890  0.8124 -0.2307  0.4008
  317MOL0     C42686   6.784  10.109   9.958 -0.8365  0.9803 -0.6478
  317MOL0     C42687   6.649  10.123   9.929 -0.3361 -0.6276 -0.3012
  317MOL0     C42688   6.593  10.256   9.970 -0.2891 -0.0435  0.1922
  317MOL0     C42689   6.586  10.022   9.851 -0.3044  0.3506  0.0680
  317MOL0     C42690   6.437  10.024   9.827 -0.1232  0.8385 -0.5326
  317MOL0     O42691   6.395   9.933   9.730 -0.1982  0.6940 -0.3065
  317MOL0     C42692   6.258   9.923   9.712  0.2105 -1.1401 -0.5636
  317MOL0     C42693   6.186   9.811   9.740  0.0077  0.4766  0.1873
  317MOL0     C42694   6.048   9.804   9.720 -0.6117  0.0009  1.4009
  317MOL0     C42695   5.982   9.906   9.651  0.5587 -0.2387 -0.0803
  317MOL0     O42696   5.848   9.864   9.618  0.2998  0.1624 -0.5322
  317MOL0     C42697   5.764   9.962   9.551  0.0162  0.0168  0.3782
  317MOL0     C42698   5.623   9.911   9.521 -0.2164 -0.0325 -0.1088
  317MOL0     C42699   5.540  10.025   9.463  0.1512 -0.4248  0.4506
  317MOL0     C42700   5.444   9.971   9.349  0.5450 -0.3744  0.0845
  317MOL0     C42701   5.347  10.089   9.310 -0.5635  0.5060 -0.1666
  317MOL0     C42702   5.219  10.090   9.389  0.7358  0.0983  0.0976
  317MOL0     C42703   5.119  10.192   9.330 -0.2378  0.2055 -0.1242
  317MOL0     C42704   4.992  10.219   9.409 -0.1556 -0.5489  0.2087
  317MOL0    Cl42705   4.897  10.071   9.384  0.0750 -0.2619 -0.0218
  317MOL0     C42706   6.049  10.026   9.642  0.4509 -0.2958  0.4189
  317MOL0     C42707   6.184  10.036   9.676 -0.2946  0.0262 -0.0978
  317MOL0     O42708   6.368  10.108   9.889  0.2195  1.2245 -0.6088
  317MOL0     C42709   6.668   9.943   9.773  0.3136 -0.8359  0.1329
  317MOL0     C42710   6.807   9.943   9.788  0.1292  0.2904 -1.2975
  317MOL0     N42711   6.970   9.753  10.317 -0.5195  0.4550 -1.2959
  317MOL0     N42712   6.843   9.770  10.298  0.1387  0.1194  0.1904
  317MOL0     C42713   5.828   9.029   9.823 -0.8587 -0.3352 -0.1311
  317MOL0     C42714   5.701   8.993   9.774  0.5333  0.5211  0.2123
  317MOL0     C42715   5.291   8.936   9.635 -0.0043  0.0100  0.0749
  317MOL0     C42716   5.173   8.938   9.712 -0.3052  0.4947 -0.1689
  317MOL0     C42717   5.047   8.914   9.648 -0.4201  0.1492 -0.2062
  317MOL0     C42718   5.043   8.892   9.509 -0.1633  0.4763 -1.7684
  317MOL0     O42719   4.919   8.863   9.467 -0.3032  0.3658 -0.3031
  317MOL0     C42720   4.915   8.831   9.330  0.1944 -0.2834  0.2781
  317MOL0     C42721   4.772   8.819   9.280  0.6132 -0.4362 -1.0453
  317MOL0     C42722   4.689   8.723   9.364  0.0432 -0.3396 -0.2404
  317MOL0     C42723   4.570   8.667   9.292  0.1042  0.6912 -0.2763
  317MOL0     C42724   4.515   8.543   9.352  0.4770  0.2774  0.5896
  317MOL0     C42725   4.498   8.431   9.402 -0.2622 -0.7581  0.5990
  317MOL0     C42726   5.169   8.875   9.435  0.4130 -0.7152 -0.7714
  317MOL0     C42727   5.287   8.907   9.502 -0.2399  0.7801  0.2464
  317MOL0     H42728   5.713   9.164   9.489  0.9646  2.0594  0.8078
  317MOL0     H42729   5.939   9.227   9.562 -1.2025  1.9099  2.8293
  317MOL0     H42730   6.115   9.254   9.659  1.5333 -0.9284  0.6792
  317MOL0     H42731   6.026   9.357   9.781  0.6353  0.2998 -1.3506
  317MOL0     H42732   6.171   9.299   9.960 -2.7749 -0.3396 -0.2781
  317MOL0     H42733   6.286   9.197   9.875  0.9302  0.9983  2.4037
  317MOL0     H42734   6.316   9.449   9.738  3.6771 -1.2846  1.1298
  317MOL0     H42735   6.206   9.503   9.843  0.0798 -0.0394 -1.4516
  317MOL0     H42736   6.408   9.412  10.015 -1.5961  3.3135  1.8395
  317MOL0     H42737   6.501   9.442   9.862 -0.2316 -0.5715  0.4386
  317MOL0     H42738   6.447   9.677   9.901 -0.4669  0.3713 -0.0918
  317MOL0     H42739   6.313   9.635  10.009 -0.5107 -1.5778 -0.2029
  317MOL0     H42740   6.465   9.551  10.186  0.2599 -1.7196 -1.9641
  317MOL0     H42741   6.594   9.551  10.082  0.4483 -0.5585  0.8807
  317MOL0     H42742   6.465   9.820  10.135 -0.0246  1.5198  2.8054
  317MOL0     H42743   6.550   9.743  10.268  0.3510 -3.6606 -0.7811
  317MOL0     H42744   6.687   9.917  10.121  3.7048 -0.4172  1.1645
  317MOL0     H42745   6.673   9.807   9.992 -2.1408  2.3488 -0.1109
  317MOL0     H42746   6.925   9.707   9.990  0.9883 -0.1777 -0.4422
  317MOL0     H42747   7.219   9.770  10.244  1.4217 -2.0702 -0.0619
  317MOL0     H42748   7.184   9.623  10.141 -2.2451 -0.5001 -1.6532
  317MOL0     H42749   7.153   9.771   9.946  1.3518 -1.6983 -0.9287
  317MOL0     H42750   7.314   9.778  10.018 -0.8601 -0.8084 -2.2901
  317MOL0     H42751   7.268  10.020   9.976  0.8591  1.7330  1.5283
  317MOL0     H42752   7.260   9.997  10.142 -1.4124  0.8699  0.4755
  317MOL0     H42753   7.081  10.145  10.050 -0.2892  0.3016 -0.0752
  317MOL0     H42754   7.003  10.001  10.126  1.7048 -2.9613 -0.1935
  317MOL0     H42755   6.828  10.170  10.036 -2.6150  0.1745  1.0557
  317MOL0     H42756   6.528  10.295   9.892  3.0742  0.9462 -2.3838
  317MOL0     H42757   6.549  10.253  10.070  2.0605 -1.6635  1.2778
  317MOL0     H42758   6.671  10.333   9.969 -0.2098 -0.1228 -0.5548
  317MOL0     H42759   6.247   9.729   9.775 -1.3892  0.4149  2.6451
  317MOL0     H42760   5.986   9.716   9.721 -1.4428  0.5636  0.8322
  317MOL0     H42761   5.765  10.049   9.618  0.6286  0.0648  0.3142
  317MOL0     H42762   5.811  10.002   9.460 -1.4375  1.4177  0.2033
  317MOL0     H42763   5.634   9.830   9.449 -0.4546  0.8387 -1.1600
  317MOL0     H42764   5.578   9.865   9.609 -3.1281  0.5145 -1.1938
  317MOL0     H42765   5.603  10.093   9.406  0.8829 -0.7900  0.8073
  317MOL0     H42766   5.497  10.077   9.550 -0.5554  0.3890 -0.3674
  317MOL0     H42767   5.502   9.952   9.258 -0.3963  1.0247 -0.8557
  317MOL0     H42768   5.385   9.887   9.386 -2.0711  1.5842  0.6326
  317MOL0     H42769   5.315  10.070   9.207 -0.8841  0.7733 -0.1138
  317MOL0     H42770   5.399  10.185   9.308 -0.7484  0.6540 -3.6800
  317MOL0     H42771   5.172   9.992   9.387 -0.9801  0.7920  2.6077
  317MOL0     H42772   5.256  10.117   9.488  2.2668  4.0634 -1.3078
  317MOL0     H42773   5.103  10.176   9.223 -1.5178  0.6349 -0.0128
  317MOL0     H42774   5.177  10.285   9.336  0.9060 -0.5753  4.5419
  317MOL0     H42775   4.944  10.316   9.393  0.5634 -0.3204 -0.6449
  317MOL0     H42776   5.012  10.218   9.517 -4.6525  0.1725  1.2623
  317MOL0     H42777   6.009  10.115   9.595  1.4271 -0.3543 -0.5588
  317MOL0     H42778   6.233  10.132   9.660  0.7291 -0.1413  1.7344
  317MOL0     H42779   6.616   9.893   9.692 -3.8102  0.2566  1.8478
  317MOL0     H42780   6.847   9.862   9.729  1.0482  2.4011 -3.7303
  317MOL0     H42781   5.854   8.998   9.924  3.1691  0.1922 -0.8263
  317MOL0     H42782   5.631   8.933   9.832 -1.0521 -0.0706 -2.1355
  317MOL0     H42783   5.170   8.967   9.817 -0.7030 -0.1363 -0.0014
  317MOL0     H42784   4.955   8.923   9.705 -0.1509  0.6765  0.1479
  317MOL0     H42785   4.965   8.905   9.269  1.1350 -1.2262 -0.1248
  317MOL0     H42786   4.965   8.735   9.314  0.2428 -0.2180  0.0420
  317MOL0     H42787   4.768   8.787   9.175 -1.1316  1.5987 -1.6750
  317MOL0     H42788   4.726   8.918   9.285 -2.6825 -1.8769  2.5904
  317MOL0     H42789   4.648   8.771   9.453  1.0828 -0.3802  0.2825
  317MOL0     H42790   4.752   8.643   9.403  2.1212  0.8607 -0.9298
  317MOL0     H42791   4.609   8.639   9.194 -1.7724 -0.9584 -0.5967
  317MOL0     H42792   4.498   8.747   9.271  0.8095  1.7732  1.1862
  317MOL0     H42793   4.488   8.338   9.454  1.7331 -0.6539  1.2761
  317MOL0     H42794   5.172   8.872   9.327  1.7502  2.1564 -0.9163
  317MOL0     H42795   5.368   8.908   9.431 -2.8708 -1.6479 -3.1244
  318MOL0     O42796   1.668   5.922   5.755 -0.1515 -1.0006 -0.2366
  318MOL0     C42797   1.722   6.025   5.714 -0.5626 -0.1498 -1.3467
  318MOL0     O42798   1.663   6.148   5.700  0.1029 -0.1380 -0.1949
  318MOL0     C42799   1.534   6.169   5.704 -0.1877  0.0361  0.6427
  318MOL0     C42800   1.439   6.084   5.650 -0.8298  0.3877 -0.0320
  318MOL0     C42801   1.306   6.116   5.648  1.1854 -0.1922  0.6486
  318MOL0     C42802   1.263   6.239   5.707  0.1722 -1.1295 -0.6920
  318MOL0     O42803   1.131   6.262   5.713 -0.4381 -0.3777  0.0562
  318MOL0     C42804   1.074   6.362   5.796  0.1260  0.2711 -0.2145
  318MOL0     C42805   1.070   6.297   5.936  1.0309  0.0648  0.0521
  318MOL0     C42806   1.056   6.409   6.039 -0.2169 -0.1081 -0.2746
  318MOL0     C42807   1.192   6.468   6.090 -0.8670 -0.4193 -0.5489
  318MOL0     C42808   1.180   6.545   6.228 -0.4941  0.2436  1.1710
  318MOL0     C42809   1.180   6.466   6.360  0.4455 -0.1959 -0.2574
  318MOL0     C42810   1.179   6.576   6.478 -0.7737  0.2682 -0.0487
  318MOL0     C42811   1.153   6.528   6.622  0.0108 -0.6407 -0.8132
  318MOL0     N42812   1.030   6.449   6.623  0.4234  0.2431 -0.3723
  318MOL0     C42813   0.907   6.500   6.589  1.5563  0.5942  1.0583
  318MOL0     C42814   0.819   6.394   6.607  0.0140  0.2242 -0.0305
  318MOL0     C42815   0.668   6.402   6.616  0.7573  0.0072 -0.0077
  318MOL0     C42816   0.628   6.493   6.740  0.4378  0.3778  0.1843
  318MOL0     C42817   0.678   6.422   6.870 -1.0850  0.7353  0.1043
  318MOL0     C42818   0.626   6.497   6.993  0.4920  0.2038  0.7646
  318MOL0     O42819   0.674   6.632   7.000  0.4762  0.0458 -0.5241
  318MOL0     C42820   0.593   6.746   7.011 -0.0562 -0.5239 -0.1564
  318MOL0     C42821   0.493   6.752   7.115  0.2704  1.5164  0.9610
  318MOL0     C42822   0.423   6.874   7.131  0.0199 -0.1627 -0.6873
  318MOL0     C42823   0.326   6.878   7.252  0.7094 -0.0580  0.7810
  318MOL0     C42824   0.428   6.975   7.035  0.0290  0.3893 -0.5722
  318MOL0     C42825   0.334   7.086   7.030  0.6371  0.0660  0.2622
  318MOL0     O42826   0.215   7.072   7.097  1.1157  0.5151 -0.0629
  318MOL0     C42827   0.146   7.177   7.146  0.1046  0.5435 -0.0054
  318MOL0     C42828   0.203   7.298   7.188  0.6779  0.2229 -0.1448
  318MOL0     C42829   0.130   7.397   7.257 -0.2721  1.4911  0.2708
  318MOL0     C42830  -0.003   7.379   7.286 -0.4137  0.8053  0.1538
  318MOL0     O42831  -0.047   7.485   7.365  0.7613 -0.2783 -0.1212
  318MOL0     C42832  -0.188   7.474   7.396 -0.8277 -0.3585  0.9579
  318MOL0     C42833  -0.221   7.599   7.476  0.9163  0.1002  0.4651
  318MOL0     C42834  -0.372   7.600   7.520 -0.9294 -0.1544 -0.7236
  318MOL0     C42835  -0.395   7.744   7.583 -0.5109  0.5316 -1.0849
  318MOL0     C42836  -0.544   7.775   7.608 -0.1367  0.3200  0.1188
  318MOL0     C42837  -0.625   7.671   7.688  0.2779 -0.2821  1.3041
  318MOL0     C42838  -0.591   7.678   7.837  0.2931  0.7250  0.0019
  318MOL0     C42839  -0.660   7.578   7.918  0.2801 -0.4756 -0.4646
  318MOL0    Cl42840  -0.834   7.604   7.910 -0.4760 -0.0015  0.0942
  318MOL0     C42841  -0.069   7.262   7.232 -0.0310 -0.4840 -0.5591
  318MOL0     C42842   0.006   7.163   7.159  0.7699  0.0525  0.1964
  318MOL0     O42843   0.358   7.187   6.958 -0.3118  0.6208 -0.0759
  318MOL0     C42844   0.519   6.957   6.928  0.9714  0.1708  0.2543
  318MOL0     C42845   0.610   6.848   6.920  0.5650  0.2501  0.6710
  318MOL0     N42846   0.897   6.283   6.647 -0.0047  0.0577 -0.3533
  318MOL0     N42847   1.022   6.316   6.644 -0.4798  1.1313  0.3444
  318MOL0     C42848   1.359   6.324   5.770  0.3353 -0.2454  0.6596
  318MOL0     C42849   1.496   6.286   5.762 -0.0730 -0.3439  0.1096
  318MOL0     C42850   1.870   6.022   5.696  0.2190  0.0781  0.1212
  318MOL0     C42851   1.948   5.907   5.668 -0.0883 -0.0475 -0.8523
  318MOL0     C42852   2.089   5.916   5.642  1.3652 -0.1999  0.8222
  318MOL0     C42853   2.154   6.034   5.647 -0.1070  0.2202 -0.0592
  318MOL0     O42854   2.282   6.060   5.641  0.1987  0.5882  0.0261
  318MOL0     C42855   2.379   5.960   5.594  1.2443 -0.1846  0.1613
  318MOL0     C42856   2.514   6.005   5.629 -0.7780 -0.5600  0.5705
  318MOL0     C42857   2.544   6.139   5.564 -0.1836 -0.5913  0.2731
  318MOL0     C42858   2.671   6.198   5.627 -0.1443 -0.4401 -0.5017
  318MOL0     C42859   2.687   6.333   5.568  0.7085 -0.0289  0.6872
  318MOL0     C42860   2.693   6.445   5.512  0.3883  0.9685 -0.5853
  318MOL0     C42861   2.080   6.152   5.675  0.2564 -0.2521  0.3864
  318MOL0     C42862   1.943   6.142   5.702  0.5498  0.2935  0.2052
  318MOL0     H42863   1.461   5.981   5.624  3.7075  0.9195  0.9091
  318MOL0     H42864   1.240   6.049   5.593 -0.3584 -0.3406  2.5667
  318MOL0     H42865   1.131   6.455   5.797 -0.0872  0.4107 -0.6101
  318MOL0     H42866   0.987   6.402   5.743 -0.2777  0.1213  0.3312
  318MOL0     H42867   0.986   6.227   5.945 -2.4567  3.7984 -0.6547
  318MOL0     H42868   1.163   6.242   5.956  3.1391  3.9182  2.0299
  318MOL0     H42869   1.005   6.493   5.991  0.7498 -0.3476 -1.7954
  318MOL0     H42870   0.998   6.365   6.121  1.0280  0.2587  0.8429
  318MOL0     H42871   1.272   6.394   6.094  1.4948  1.8976 -1.6503
  318MOL0     H42872   1.225   6.530   6.005  0.0682 -0.3740 -0.1630
  318MOL0     H42873   1.261   6.617   6.243 -0.7124  0.5903  0.7401
  318MOL0     H42874   1.095   6.612   6.214  0.5062  1.2409 -0.5539
  318MOL0     H42875   1.088   6.407   6.350 -0.0964  0.3733  1.2194
  318MOL0     H42876   1.267   6.402   6.378  0.5637  0.1525  0.4385
  318MOL0     H42877   1.277   6.621   6.461 -1.0725  1.4131  1.0795
  318MOL0     H42878   1.093   6.642   6.464 -3.1936 -2.3291  1.4250
  318MOL0     H42879   1.143   6.610   6.693 -1.0264 -0.4802 -1.1356
  318MOL0     H42880   1.228   6.460   6.665 -0.2109  1.1274  2.6945
  318MOL0     H42881   0.882   6.603   6.563  1.1782 -0.0175 -1.1573
  318MOL0     H42882   0.632   6.454   6.527 -0.1149 -0.7590 -0.1161
  318MOL0     H42883   0.620   6.304   6.618  1.4314 -0.3609  2.7626
  318MOL0     H42884   0.520   6.512   6.739  0.1422 -0.5865  3.2000
  318MOL0     H42885   0.681   6.587   6.727  1.2515  0.2334  2.0957
  318MOL0     H42886   0.787   6.426   6.875 -1.1061  0.1412  1.3933
  318MOL0     H42887   0.648   6.317   6.880  0.5648  0.2009 -0.2648
  318MOL0     H42888   0.652   6.434   7.079 -2.4550 -0.1371  1.5188
  318MOL0     H42889   0.518   6.498   6.978  0.7522  1.0171 -1.3677
  318MOL0     H42890   0.476   6.673   7.188 -0.4601  0.6860 -0.0816
  318MOL0     H42891   0.336   6.787   7.312 -2.9345 -0.7437  0.5885
  318MOL0     H42892   0.336   6.963   7.320  1.3191 -0.4850  1.2386
  318MOL0     H42893   0.221   6.880   7.220  0.5034  0.8203  1.4725
  318MOL0     H42894   0.309   7.315   7.170  0.7635 -0.6359 -0.4934
  318MOL0     H42895   0.181   7.490   7.278 -0.3592  2.0767 -1.9540
  318MOL0     H42896  -0.253   7.475   7.307  0.0969 -0.1590  0.2686
  318MOL0     H42897  -0.218   7.383   7.449 -1.1886 -0.1215  1.1627
  318MOL0     H42898  -0.147   7.610   7.556  0.3722  1.8234  0.7697
  318MOL0     H42899  -0.208   7.687   7.412 -0.1507  1.3550  1.9046
  318MOL0     H42900  -0.397   7.524   7.594 -0.8211  1.5300  1.1279
  318MOL0     H42901  -0.425   7.588   7.425 -0.7262  0.1408 -0.8780
  318MOL0     H42902  -0.344   7.751   7.679 -0.4592  3.0368 -1.2141
  318MOL0     H42903  -0.362   7.824   7.515  1.6729  2.4124  1.9207
  318MOL0     H42904  -0.600   7.771   7.514  0.7526 -2.4979 -0.3775
  318MOL0     H42905  -0.555   7.878   7.642  0.2958 -0.7492  3.9867
  318MOL0     H42906  -0.732   7.683   7.668  0.4320 -1.6461 -0.7191
  318MOL0     H42907  -0.612   7.567   7.655 -1.4206  0.3964 -1.9408
  318MOL0     H42908  -0.622   7.774   7.878 -1.8434 -0.4879  1.4283
  318MOL0     H42909  -0.484   7.671   7.859  0.6069  0.8415 -1.3669
  318MOL0     H42910  -0.641   7.598   8.024 -4.2096  2.3984  0.0967
  318MOL0     H42911  -0.636   7.474   7.893  2.4924 -0.7820  2.4091
  318MOL0     H42912  -0.173   7.243   7.254 -0.5809  2.4172 -0.3658
  318MOL0     H42913  -0.045   7.070   7.138 -0.1694  0.3733  0.9550
  318MOL0     H42914   0.522   7.034   6.852 -3.2322 -0.9007 -1.2413
  318MOL0     H42915   0.686   6.831   6.845  1.0283  1.3592  0.8760
  318MOL0     H42916   1.338   6.414   5.827 -0.5115 -1.4459  2.3052
  318MOL0     H42917   1.579   6.338   5.809 -0.7876  3.0647 -2.0165
  318MOL0     H42918   1.889   5.817   5.684 -0.1277  0.1809  0.4228
  318MOL0     H42919   2.141   5.824   5.621  0.5221 -0.2694 -1.2608
  318MOL0     H42920   2.360   5.865   5.645 -0.3137 -0.1231 -0.2475
  318MOL0     H42921   2.369   5.952   5.485  0.8537  2.4681 -0.0809
  318MOL0     H42922   2.585   5.930   5.592  0.6043  1.2989 -0.6635
  318MOL0     H42923   2.524   5.995   5.738  1.2250 -3.5429  0.2412
  318MOL0     H42924   2.464   6.207   5.593 -0.8676  0.2356 -3.0787
  318MOL0     H42925   2.548   6.130   5.455 -0.6001 -0.6847  0.2637
  318MOL0     H42926   2.756   6.135   5.597  0.2656 -0.4168  0.5597
  318MOL0     H42927   2.674   6.208   5.736 -1.3216  0.3552 -0.5275
  318MOL0     H42928   2.700   6.544   5.473  0.7520  1.2602  0.2032
  318MOL0     H42929   2.113   6.255   5.677 -2.4127  0.7441 -1.5681
  318MOL0     H42930   1.885   6.234   5.710 -2.4173 -1.4783  0.7607
  319MOL0     O42931   9.707   6.706   5.519  0.2014 -0.2908 -0.4036
  319MOL0     C42932   9.674   6.663   5.414  0.5032 -0.3255 -1.1830
  319MOL0     O42933   9.738   6.560   5.348  0.0860  1.2164  0.3066
  319MOL0     C42934   9.876   6.528   5.369  0.9106  0.9124  0.3131
  319MOL0     C42935   9.975   6.626   5.371  0.3947 -0.4783  0.3261
  319MOL0     C42936  10.108   6.597   5.380  0.2106  0.1877  0.0155
  319MOL0     C42937  10.154   6.462   5.374  0.2831 -0.7908 -0.2283
  319MOL0     O42938  10.286   6.433   5.362  0.2560 -0.4519 -0.0603
  319MOL0     C42939  10.364   6.523   5.292  0.1251 -0.2514 -0.3603
  319MOL0     C42940  10.509   6.471   5.283 -0.5564  0.4496 -0.5861
  319MOL0     C42941  10.575   6.440   5.415  0.1435  0.4779 -0.4817
  319MOL0     C42942  10.730   6.436   5.398 -0.2694 -0.0969 -0.3199
  319MOL0     C42943  10.814   6.369   5.506 -0.1864  0.1853 -0.3232
  319MOL0     C42944  10.925   6.466   5.551  0.4688  0.0197  0.2641
  319MOL0     C42945  11.038   6.414   5.643  0.0197 -0.0821  0.4419
  319MOL0     C42946  11.121   6.312   5.584 -0.8355 -0.0934  0.1725
  319MOL0     N42947  11.193   6.346   5.458 -0.1667  0.9594 -0.2054
  319MOL0     C42948  11.275   6.459   5.445  0.2368  0.0683  0.0528
  319MOL0     C42949  11.347   6.439   5.328 -0.5680  0.6136  0.7693
  319MOL0     C42950  11.440   6.528   5.255  0.4008  0.2088  0.0580
  319MOL0     C42951  11.364   6.634   5.170 -0.0090  0.0283  0.5040
  319MOL0     C42952  11.445   6.732   5.110  0.9247 -0.2762  0.4967
  319MOL0     C42953  11.383   6.805   4.991  0.5993  0.2354 -0.7988
  319MOL0     O42954  11.257   6.856   5.044  0.0242  0.3642 -0.6243
  319MOL0     C42955  11.193   6.936   4.955  0.1648 -0.0898  0.1360
  319MOL0     C42956  11.255   7.022   4.866  0.2782 -0.0297  0.4382
  319MOL0     C42957  11.177   7.107   4.779 -0.5002  0.2762  0.2884
  319MOL0     C42958  11.242   7.210   4.691  0.2944 -0.4286  0.2038
  319MOL0     C42959  11.035   7.086   4.786 -0.0589 -0.0450  0.3556
  319MOL0     C42960  10.934   7.156   4.697  0.2145  0.3673  0.6427
  319MOL0     O42961  10.804   7.145   4.739 -0.4947  0.0602  0.5912
  319MOL0     C42962  10.714   7.212   4.656 -0.6080 -0.6096  0.3899
  319MOL0     C42963  10.674   7.158   4.533  0.7887 -0.2755  0.3834
  319MOL0     C42964  10.565   7.216   4.456 -0.4847  0.3565  0.1861
  319MOL0     C42965  10.505   7.333   4.495 -0.9284  0.0682 -0.2116
  319MOL0     O42966  10.396   7.376   4.428  0.0622  0.1137 -0.7361
  319MOL0     C42967  10.336   7.493   4.484  0.3230 -0.1285 -1.0414
  319MOL0     C42968  10.210   7.524   4.406 -0.2987 -0.0584 -0.4651
  319MOL0     C42969  10.119   7.624   4.463  0.0394 -0.4963 -0.8493
  319MOL0     C42970  10.190   7.760   4.477 -0.2313  0.4056 -0.1950
  319MOL0     C42971  10.097   7.881   4.459  0.2138 -0.2728 -0.0785
  319MOL0     C42972   9.999   7.893   4.577  0.3360  0.0354 -0.8374
  319MOL0     C42973   9.886   7.986   4.537 -0.5456 -0.1292  0.5712
  319MOL0     C42974   9.813   8.052   4.659 -0.1113 -0.4424 -0.9503
  319MOL0    Cl42975   9.677   7.932   4.692  0.6539  0.3295  0.2528
  319MOL0     C42976  10.559   7.395   4.612  0.1298 -0.5947  0.6612
  319MOL0     C42977  10.652   7.332   4.694 -0.2346  0.7173  0.5595
  319MOL0     O42978  10.966   7.206   4.588 -0.1664 -1.1115 -0.7830
  319MOL0     C42979  10.978   6.997   4.875 -1.2930  0.6375  0.0729
  319MOL0     C42980  11.057   6.930   4.969  0.4932  0.1870 -0.0147
  319MOL0     N42981  11.307   6.314   5.274  1.0324 -0.0291  0.0740
  319MOL0     N42982  11.221   6.259   5.350 -0.4183 -0.3451  0.6610
  319MOL0     C42983  10.055   6.363   5.385  1.0214  0.8920  0.9559
  319MOL0     C42984   9.920   6.395   5.381  0.9235  1.0093 -0.1359
  319MOL0     C42985   9.555   6.731   5.350  0.3055 -0.6505 -0.5541
  319MOL0     C42986   9.473   6.834   5.413 -0.6579 -0.4974  0.1272
  319MOL0     C42987   9.372   6.891   5.338 -0.5219 -0.8072 -1.1844
  319MOL0     C42988   9.351   6.863   5.205  0.1505  0.7647  0.1830
  319MOL0     O42989   9.267   6.943   5.134 -0.2589  0.1453  0.4551
  319MOL0     C42990   9.224   6.903   5.004  0.5640  0.1906 -0.3827
  319MOL0     C42991   9.084   6.951   4.984 -0.6389 -0.1481 -0.2493
  319MOL0     C42992   8.970   6.878   5.058  0.2116  0.0549  0.3191
  319MOL0     C42993   8.835   6.924   5.016 -0.1478 -0.2977 -0.0423
  319MOL0     C42994   8.819   7.061   5.069  0.1995 -0.6298 -0.3002
  319MOL0     C42995   8.807   7.176   5.108 -0.0818  0.7819 -0.6378
  319MOL0     C42996   9.428   6.761   5.154 -0.1055  1.3236 -0.2744
  319MOL0     C42997   9.536   6.698   5.214 -0.2618 -0.7546 -0.1014
  319MOL0     H42998   9.948   6.731   5.366 -0.8658 -0.7787  0.2834
  319MOL0     H42999  10.176   6.682   5.380  1.8207 -0.9520 -3.0186
  319MOL0     H43000  10.340   6.528   5.185  0.1434 -1.7456 -0.4536
  319MOL0     H43001  10.363   6.621   5.340  0.3613 -0.3835 -0.0805
  319MOL0     H43002  10.511   6.384   5.217  1.8273  1.3546 -1.8637
  319MOL0     H43003  10.560   6.552   5.228 -1.4298  0.7287 -0.9971
  319MOL0     H43004  10.555   6.526   5.480 -1.0967  1.5929 -2.2339
  319MOL0     H43005  10.529   6.349   5.455  2.5318 -1.5258 -2.0250
  319MOL0     H43006  10.745   6.379   5.306  0.7969  3.8508 -2.8932
  319MOL0     H43007  10.763   6.540   5.389  1.2190 -0.3565  1.4611
  319MOL0     H43008  10.746   6.343   5.588  0.2019  0.3025  0.0385
  319MOL0     H43009  10.850   6.281   5.451  0.4264  0.9349 -1.1461
  319MOL0     H43010  10.964   6.514   5.461 -0.4278 -1.3993 -0.9406
  319MOL0     H43011  10.879   6.549   5.606  1.7067  2.2904 -1.9396
  319MOL0     H43012  11.107   6.489   5.681  1.4929 -1.5115  0.7273
  319MOL0     H43013  10.983   6.369   5.727 -1.8057  0.2049 -0.5437
  319MOL0     H43014  11.061   6.228   5.551  0.2264 -1.0472  0.6076
  319MOL0     H43015  11.186   6.285   5.668 -2.5938  2.5077  2.5487
  319MOL0     H43016  11.278   6.542   5.515  2.3599 -1.9461  2.5390
  319MOL0     H43017  11.503   6.581   5.327 -1.1135  1.2569  0.6802
  319MOL0     H43018  11.508   6.471   5.191 -1.4715 -1.3488 -0.6722
  319MOL0     H43019  11.301   6.695   5.235  0.6099  3.1401 -1.5753
  319MOL0     H43020  11.299   6.580   5.100  1.5274  1.0415 -1.8340
  319MOL0     H43021  11.536   6.696   5.060  0.1545  1.1964 -2.1201
  319MOL0     H43022  11.471   6.806   5.186 -2.9656  2.1983 -0.3486
  319MOL0     H43023  11.361   6.735   4.911 -4.1222 -0.7656  1.0609
  319MOL0     H43024  11.449   6.887   4.963 -1.8321  3.1293  1.2897
  319MOL0     H43025  11.362   7.030   4.852  0.3368 -0.5551  0.5654
  319MOL0     H43026  11.336   7.247   4.734 -0.9045  0.1322  2.4631
  319MOL0     H43027  11.261   7.171   4.590  1.7548 -2.2556  1.1265
  319MOL0     H43028  11.177   7.298   4.687  1.4857  0.7606  3.5127
  319MOL0     H43029  10.726   7.070   4.497  2.3039  1.2043 -1.3102
  319MOL0     H43030  10.536   7.159   4.368  2.7363  1.0105 -1.4657
  319MOL0     H43031  10.308   7.482   4.589 -3.5596  0.5339 -1.8682
  319MOL0     H43032  10.404   7.580   4.482  1.5125 -0.9672  0.5717
  319MOL0     H43033  10.249   7.554   4.309 -1.2686  0.9500 -0.5704
  319MOL0     H43034  10.161   7.427   4.386  2.3333 -1.4724 -0.4291
  319MOL0     H43035  10.080   7.578   4.554 -0.2606 -1.1514 -1.3063
  319MOL0     H43036  10.031   7.647   4.401  0.1429  2.0640 -0.1790
  319MOL0     H43037  10.233   7.770   4.578 -0.0406 -1.5392 -0.0373
  319MOL0     H43038  10.277   7.768   4.411 -0.0641  0.8908  0.0790
  319MOL0     H43039  10.051   7.860   4.362 -0.8535 -1.0404  0.5810
  319MOL0     H43040  10.144   7.980   4.454  1.9971 -1.1174 -1.7435
  319MOL0     H43041   9.959   7.793   4.593 -0.3358  0.7225  2.5946
  319MOL0     H43042  10.040   7.929   4.672 -1.7980 -3.3731  1.5761
  319MOL0     H43043   9.824   7.923   4.472  1.5439  0.9043 -2.7027
  319MOL0     H43044   9.945   8.059   4.481  0.9325 -0.0359  2.1622
  319MOL0     H43045   9.777   8.147   4.620 -0.4481 -0.2250 -0.1269
  319MOL0     H43046   9.882   8.060   4.744 -0.2726 -0.3068 -0.8341
  319MOL0     H43047  10.527   7.494   4.644  0.3646 -0.9950  2.2291
  319MOL0     H43048  10.689   7.370   4.789  0.4607  0.0911  0.5494
  319MOL0     H43049  10.873   6.971   4.870 -1.9008  2.7449  0.8681
  319MOL0     H43050  11.017   6.863   5.045  0.4868 -1.3442 -1.3300
  319MOL0     H43051  10.092   6.262   5.372  0.4417  0.9178 -1.3168
  319MOL0     H43052   9.838   6.324   5.391  2.5894 -1.1312 -0.8770
  319MOL0     H43053   9.489   6.864   5.516  4.0489 -0.9626 -0.2458
  319MOL0     H43054   9.303   6.963   5.381 -0.4123 -1.6720  0.5108
  319MOL0     H43055   9.283   6.963   4.934 -0.2931 -0.4143 -1.6612
  319MOL0     H43056   9.224   6.794   4.991 -2.2045  0.1298 -0.4670
  319MOL0     H43057   9.065   6.947   4.877 -1.0364 -2.7805 -0.1509
  319MOL0     H43058   9.079   7.056   5.014 -4.0246 -0.4771  0.7082
  319MOL0     H43059   8.993   6.885   5.165  3.2372  0.2427 -0.2690
  319MOL0     H43060   8.983   6.770   5.044  1.3355  0.0667  1.1000
  319MOL0     H43061   8.758   6.862   5.064 -1.0105  1.2386  0.6336
  319MOL0     H43062   8.813   6.916   4.909  0.2043 -1.6541 -0.0336
  319MOL0     H43063   8.801   7.275   5.149  3.0384  0.7939  0.0493
  319MOL0     H43064   9.421   6.741   5.048  0.3688  1.1695 -0.2796
  319MOL0     H43065   9.601   6.630   5.160  1.9493 -0.2367  1.7383
  320MOL0     O43066  10.853   9.581   6.908  0.3051  0.1926  0.0204
  320MOL0     C43067  10.889   9.471   6.865  0.1322  0.2963  0.9416
  320MOL0     O43068  10.805   9.380   6.794  0.1606  0.4289  0.0848
  320MOL0     C43069  10.672   9.410   6.792  0.5144  0.1759  0.2761
  320MOL0     C43070  10.578   9.338   6.863 -0.1199 -0.3550 -0.1667
  320MOL0     C43071  10.440   9.351   6.847  0.7772 -0.6402  0.1530
  320MOL0     C43072  10.383   9.453   6.761 -0.7941 -1.2931 -0.1206
  320MOL0     O43073  10.252   9.491   6.738  0.2015 -0.3656 -0.5052
  320MOL0     C43074  10.155   9.414   6.813  0.8614  0.1668 -0.2962
  320MOL0     C43075  10.027   9.469   6.758 -0.2491 -0.6231 -0.3720
  320MOL0     C43076   9.918   9.391   6.836 -0.5984  0.3420  0.3507
  320MOL0     C43077   9.767   9.415   6.798 -0.5564 -0.5614 -0.5336
  320MOL0     C43078   9.677   9.289   6.804 -0.5179  0.1019  0.1167
  320MOL0     C43079   9.541   9.326   6.742  0.1227  0.4002  1.2498
  320MOL0     C43080   9.465   9.195   6.701  0.4350 -0.7126  0.0001
  320MOL0     C43081   9.328   9.236   6.644 -0.4488  0.5424  0.6210
  320MOL0     N43082   9.236   9.298   6.741 -0.7876 -0.2796  1.2042
  320MOL0     C43083   9.169   9.226   6.841 -0.7420 -1.1824  0.1173
  320MOL0     C43084   9.098   9.318   6.901 -0.8316  0.7763 -1.3194
  320MOL0     C43085   8.996   9.286   7.001  0.3169 -0.3332  0.0526
  320MOL0     C43086   8.874   9.233   6.945 -0.4630  0.0068 -0.4244
  320MOL0     C43087   8.788   9.187   7.058  0.0759  0.6975  0.1864
  320MOL0     C43088   8.635   9.212   7.009 -0.0252 -0.2466  0.2552
  320MOL0     O43089   8.557   9.174   7.124  0.4328 -0.4851  0.0509
  320MOL0     C43090   8.423   9.213   7.148  0.0746  0.0519 -0.1806
  320MOL0     C43091   8.345   9.295   7.063 -0.2877 -0.7123 -0.3006
  320MOL0     C43092   8.216   9.329   7.095 -0.2225 -0.2714  0.5984
  320MOL0     C43093   8.143   9.433   7.004  0.7028 -0.0305 -0.1237
  320MOL0     C43094   8.151   9.274   7.205  0.1119  0.3745  0.7196
  320MOL0     C43095   8.014   9.310   7.236  0.3857 -0.6329 -0.1147
  320MOL0     O43096   7.923   9.221   7.206 -0.2576  0.1439  0.3538
  320MOL0     C43097   7.793   9.246   7.216  0.0790  0.1545 -0.3601
  320MOL0     C43098   7.704   9.218   7.110  0.1877 -0.0865  0.1253
  320MOL0     C43099   7.574   9.258   7.122 -0.0459 -0.6375  0.3363
  320MOL0     C43100   7.524   9.322   7.228 -0.0537 -0.2735 -0.3380
  320MOL0     O43101   7.397   9.372   7.208  0.3676 -0.2373 -0.0894
  320MOL0     C43102   7.328   9.430   7.322 -0.0215  0.0763 -0.0494
  320MOL0     C43103   7.191   9.466   7.265  0.9690 -0.8259 -0.6748
  320MOL0     C43104   7.092   9.516   7.369  0.4572  0.6958  0.2541
  320MOL0     C43105   7.038   9.404   7.467 -0.0123  0.3686 -0.1754
  320MOL0     C43106   6.899   9.436   7.532 -0.4963 -0.4560  0.3781
  320MOL0     C43107   6.782   9.396   7.447  0.0566  0.1488  0.3053
  320MOL0     C43108   6.675   9.518   7.452  0.0207 -0.2198 -0.1757
  320MOL0     C43109   6.726   9.648   7.383 -0.7975 -0.6208 -0.7114
  320MOL0    Cl43110   6.776   9.614   7.223  0.0490  0.2847  0.3421
  320MOL0     C43111   7.616   9.353   7.339  0.2572 -0.2318  0.2763
  320MOL0     C43112   7.746   9.306   7.334  0.0116 -0.9419 -0.8198
  320MOL0     O43113   7.999   9.417   7.288  0.1052  0.0307  0.5774
  320MOL0     C43114   8.226   9.191   7.286  0.7425 -0.1265  0.1604
  320MOL0     C43115   8.355   9.163   7.267 -0.0339  0.5924  0.1852
  320MOL0     N43116   9.124   9.446   6.844 -0.7774  1.0772 -0.1339
  320MOL0     N43117   9.209   9.429   6.756  0.4781  0.3791 -0.4114
  320MOL0     C43118  10.485   9.537   6.702  0.6912  0.0912 -1.2013
  320MOL0     C43119  10.621   9.508   6.708  0.2223  0.5734  0.2912
  320MOL0     C43120  11.034   9.431   6.866 -0.8877  0.3708  0.6604
  320MOL0     C43121  11.098   9.340   6.777  0.7188 -0.6409 -0.8652
  320MOL0     C43122  11.223   9.296   6.803  0.2656  0.3163 -0.1606
  320MOL0     C43123  11.291   9.330   6.916 -0.0519 -0.3508  0.2804
  320MOL0     O43124  11.419   9.275   6.957  0.2271 -0.0446  0.3407
  320MOL0     C43125  11.505   9.204   6.877  0.7465  0.6907 -0.0353
  320MOL0     C43126  11.560   9.284   6.764  0.6975  0.0165  0.2335
  320MOL0     C43127  11.631   9.191   6.665  0.5714 -0.4312 -0.6810
  320MOL0     C43128  11.641   9.245   6.516  0.3531  0.4385  0.4207
  320MOL0     C43129  11.714   9.375   6.511  0.8399  0.6841  0.2992
  320MOL0     C43130  11.787   9.476   6.522  0.1013  0.6726  0.7554
  320MOL0     C43131  11.239   9.434   6.996 -0.1342 -0.0467  0.0412
  320MOL0     C43132  11.106   9.476   6.976  0.0686  0.1949  0.9479
  320MOL0     H43133  10.613   9.268   6.938 -1.6206 -1.0459 -0.0687
  320MOL0     H43134  10.379   9.275   6.894  1.3624 -1.3833 -0.2834
  320MOL0     H43135  10.166   9.306   6.794  0.6103 -0.6422  3.3443
  320MOL0     H43136  10.167   9.432   6.920 -2.3361 -1.9466  0.5471
  320MOL0     H43137  10.020   9.574   6.788  0.8404 -0.7713  0.4791
  320MOL0     H43138  10.020   9.450   6.651  1.5755  0.3662 -0.6948
  320MOL0     H43139   9.947   9.287   6.824  2.0784  0.8969  1.4198
  320MOL0     H43140   9.935   9.417   6.941  0.8897  0.0963  0.1917
  320MOL0     H43141   9.732   9.492   6.866  1.0343  2.3403 -2.7629
  320MOL0     H43142   9.768   9.458   6.697 -0.4334  0.2236 -0.2067
  320MOL0     H43143   9.720   9.201   6.754 -3.5077 -1.2277 -0.3493
  320MOL0     H43144   9.672   9.257   6.908 -0.3668 -3.0739 -0.7522
  320MOL0     H43145   9.480   9.371   6.821  0.3194  0.9329  1.1017
  320MOL0     H43146   9.548   9.388   6.651  1.8714 -1.9886 -0.3739
  320MOL0     H43147   9.532   9.146   6.629  0.9666 -0.5525  0.3770
  320MOL0     H43148   9.449   9.134   6.791 -1.5334 -1.2971 -0.6977
  320MOL0     H43149   9.274   9.145   6.615 -0.5258  0.5282  0.8079
  320MOL0     H43150   9.350   9.297   6.556  1.8098  1.2740  1.6169
  320MOL0     H43151   9.160   9.119   6.855  0.5124 -2.2489 -4.8933
  320MOL0     H43152   9.050   9.210   7.058  1.1926 -0.6341 -1.1552
  320MOL0     H43153   8.972   9.375   7.060  2.4275  1.4215 -1.5491
  320MOL0     H43154   8.882   9.136   6.896 -1.2541 -0.3250  0.0770
  320MOL0     H43155   8.821   9.300   6.877  1.8884 -0.5844 -3.0222
  320MOL0     H43156   8.813   9.248   7.145  1.3874  2.7162 -1.4996
  320MOL0     H43157   8.803   9.079   7.070  0.9335  0.9268  1.3451
  320MOL0     H43158   8.598   9.159   6.920 -0.1531  1.7924 -0.9612
  320MOL0     H43159   8.622   9.320   7.001  3.4168  0.3144  0.4843
  320MOL0     H43160   8.392   9.324   6.970 -0.1081  0.5258  0.1670
  320MOL0     H43161   8.056   9.382   6.960  0.3535 -0.7609  1.3390
  320MOL0     H43162   8.118   9.521   7.065  1.0427 -0.3697  0.5129
  320MOL0     H43163   8.206   9.465   6.921  1.6768  1.0908  1.0031
  320MOL0     H43164   7.733   9.156   7.025  0.7559 -0.0793  0.3056
  320MOL0     H43165   7.503   9.234   7.043 -1.1958  1.5253  0.6422
  320MOL0     H43166   7.316   9.353   7.399  3.8124  2.2774  3.1742
  320MOL0     H43167   7.382   9.516   7.363 -1.4536  1.5759 -1.1664
  320MOL0     H43168   7.218   9.543   7.192  2.2278 -1.5811 -1.0564
  320MOL0     H43169   7.145   9.376   7.221  0.3246 -1.0002  0.3248
  320MOL0     H43170   7.009   9.567   7.320 -0.1391 -0.2363  0.2631
  320MOL0     H43171   7.134   9.595   7.432  0.1692  1.1270 -0.0955
  320MOL0     H43172   7.041   9.302   7.427  4.8343 -0.9567  2.7708
  320MOL0     H43173   7.111   9.417   7.547 -2.5513  0.4038  2.2589
  320MOL0     H43174   6.901   9.544   7.549 -3.1564  0.0928 -2.1678
  320MOL0     H43175   6.889   9.382   7.627 -1.0035  0.9613  1.1533
  320MOL0     H43176   6.827   9.376   7.350  2.6809  0.4977  1.3567
  320MOL0     H43177   6.729   9.310   7.489  0.0216 -0.2729 -0.5941
  320MOL0     H43178   6.646   9.544   7.554  1.6564 -0.7968  0.4574
  320MOL0     H43179   6.587   9.503   7.388  1.0247 -0.5781 -1.5041
  320MOL0     H43180   6.812   9.693   7.434 -0.1396 -0.2677 -2.0975
  320MOL0     H43181   6.646   9.723   7.394 -0.9975 -0.9876  0.4777
  320MOL0     H43182   7.582   9.406   7.427 -2.6292 -2.4256  0.6138
  320MOL0     H43183   7.802   9.310   7.427 -2.2420  2.1514  0.5888
  320MOL0     H43184   8.181   9.135   7.368  1.4250 -3.7652 -1.7513
  320MOL0     H43185   8.412   9.105   7.339  1.3791  1.1852 -0.4211
  320MOL0     H43186  10.439   9.613   6.639 -0.6609 -1.4670 -2.1680
  320MOL0     H43187  10.679   9.568   6.639 -4.4852  1.7653 -3.1347
  320MOL0     H43188  11.044   9.289   6.698 -0.5220 -1.6850  0.5989
  320MOL0     H43189  11.275   9.234   6.731  0.2486  1.0678 -0.8352
  320MOL0     H43190  11.591   9.167   6.933  1.6484  0.6369 -1.4073
  320MOL0     H43191  11.452   9.119   6.833  2.2759  0.8165 -2.2879
  320MOL0     H43192  11.632   9.351   6.813  0.3189  0.0648  0.7330
  320MOL0     H43193  11.492   9.354   6.715 -0.7751 -2.0692 -0.8506
  320MOL0     H43194  11.590   9.090   6.668 -2.2261  0.6487 -0.3822
  320MOL0     H43195  11.734   9.168   6.696 -0.0206 -0.8623  1.0925
  320MOL0     H43196  11.547   9.246   6.461 -1.0636  1.2542  2.7091
  320MOL0     H43197  11.702   9.182   6.450  0.2975  1.3305 -0.4889
  320MOL0     H43198  11.845   9.561   6.550 -1.6309  1.4213  2.3440
  320MOL0     H43199  11.296   9.454   7.086  1.0071  1.7608 -1.0003
  320MOL0     H43200  11.052   9.527   7.055 -1.8186  0.1911 -0.2707
  321MOL0     O43201   1.843  10.387   8.925 -0.1134 -0.3374  0.6041
  321MOL0     C43202   1.866  10.302   8.845 -0.0951 -0.4568 -0.1077
  321MOL0     O43203   1.801  10.284   8.726  0.2070  0.4672  0.8497
  321MOL0     C43204   1.710  10.374   8.686 -0.1310  0.6478 -0.0011
  321MOL0     C43205   1.746  10.496   8.620 -1.0450  0.9455 -0.7904
  321MOL0     C43206   1.652  10.590   8.580 -0.1122  0.4612 -0.2188
  321MOL0     C43207   1.513  10.569   8.611 -0.3781  0.5245  0.6146
  321MOL0     O43208   1.409  10.655   8.574 -0.6194  0.2885  0.3533
  321MOL0     C43209   1.396  10.669   8.432  0.0232  1.4142  0.0066
  321MOL0     C43210   1.295  10.769   8.384  0.4512  0.2463  0.5208
  321MOL0     C43211   1.331  10.912   8.423  0.1276  0.9325  0.9917
  321MOL0     C43212   1.223  11.008   8.367 -0.4789  0.0383 -0.1315
  321MOL0     C43213   1.261  11.148   8.424 -0.0006 -0.6655  0.1637
  321MOL0     C43214   1.137  11.253   8.403  0.3601 -0.1362  1.2987
  321MOL0     C43215   1.155  11.379   8.492  0.3911  0.6223  0.3053
  321MOL0     C43216   1.033  11.455   8.529  0.6474 -0.7553 -0.3506
  321MOL0     N43217   0.992  11.547   8.420  0.4035  0.1805  0.3698
  321MOL0     C43218   0.888  11.523   8.332 -0.0758  0.7807  0.3236
  321MOL0     C43219   0.911  11.594   8.215 -0.4956  0.3649 -1.2989
  321MOL0     C43220   0.816  11.579   8.087 -0.3327 -0.3932 -0.8310
  321MOL0     C43221   0.768  11.716   8.044 -1.3405  0.2906 -0.2221
  321MOL0     C43222   0.640  11.767   8.122  0.7144 -0.3468  0.0079
  321MOL0     C43223   0.627  11.914   8.106  0.1933  1.0578 -0.3926
  321MOL0     O43224   0.559  11.948   7.984  0.7396 -0.6378 -0.6863
  321MOL0     C43225   0.425  11.936   7.977 -0.4630 -0.1383  0.4688
  321MOL0     C43226   0.377  11.979   7.859  0.7800 -1.5872  0.1985
  321MOL0     C43227   0.237  11.990   7.830  0.4603  0.0327  0.3991
  321MOL0     C43228   0.194  12.041   7.699  0.5563 -0.6081  0.9285
  321MOL0     C43229   0.150  11.955   7.935  0.3569  0.5912  1.4680
  321MOL0     C43230   0.003  11.967   7.916  0.2108  0.5974 -0.0662
  321MOL0     O43231  -0.069  11.863   7.983 -0.8513  0.2196  0.2677
  321MOL0     C43232  -0.206  11.880   7.996  0.2254  0.1022  0.0593
  321MOL0     C43233  -0.295  11.869   7.894  0.6547  0.3005 -0.0691
  321MOL0     C43234  -0.434  11.860   7.938 -0.6181 -0.2688  0.2048
  321MOL0     C43235  -0.469  11.839   8.069  0.7219  0.4014  0.2103
  321MOL0     O43236  -0.600  11.821   8.084  0.3614 -0.2626  0.1826
  321MOL0     C43237  -0.668  11.929   8.154  0.1336 -0.6444  1.3183
  321MOL0     C43238  -0.809  11.894   8.155 -0.2455 -0.4799 -0.0739
  321MOL0     C43239  -0.880  12.012   8.226  0.8583  0.7575 -0.5033
  321MOL0     C43240  -1.024  11.981   8.257  0.0157 -0.1995  0.3738
  321MOL0     C43241  -1.085  12.090   8.346 -0.3904  0.2961  0.4125
  321MOL0     C43242  -1.068  12.068   8.499 -0.1008  0.6508 -0.1411
  321MOL0     C43243  -1.158  11.967   8.560  0.9460  0.9968 -0.2765
  321MOL0     C43244  -1.144  11.958   8.708  0.1470  0.1412 -0.1908
  321MOL0    Cl43245  -1.248  12.062   8.806 -0.3006  0.8345 -0.1265
  321MOL0     C43246  -0.378  11.856   8.174  0.1546  0.2433  0.5046
  321MOL0     C43247  -0.246  11.881   8.134  1.1186 -0.0824 -0.1020
  321MOL0     O43248  -0.052  12.059   7.856  0.2492 -0.4385  0.6175
  321MOL0     C43249   0.198  11.917   8.058  0.2690  0.2794 -0.8094
  321MOL0     C43250   0.338  11.913   8.081  0.2926  1.2082  0.4747
  321MOL0     N43251   1.017  11.679   8.238 -0.0972 -0.0626 -0.5987
  321MOL0     N43252   1.064  11.652   8.361 -0.1368  0.2819 -0.2094
  321MOL0     C43253   1.482  10.443   8.667  0.3040  0.3449  0.0534
  321MOL0     C43254   1.574  10.351   8.715 -0.6694  0.4960  0.5003
  321MOL0     C43255   1.984  10.218   8.879 -0.2073  0.2693 -0.4515
  321MOL0     C43256   2.057  10.235   8.992  0.0756 -1.3438 -0.4221
  321MOL0     C43257   2.176  10.175   9.018  0.1337  0.2124 -0.7701
  321MOL0     C43258   2.226  10.089   8.918  0.1089 -0.0550 -0.5500
  321MOL0     O43259   2.348  10.035   8.937 -0.1091  0.8257  0.0451
  321MOL0     C43260   2.378   9.899   8.888  0.0769 -0.6038  0.2653
  321MOL0     C43261   2.472   9.816   8.976  0.5297  0.2458  0.9855
  321MOL0     C43262   2.613   9.861   8.983 -0.1304 -0.3698  0.1131
  321MOL0     C43263   2.691   9.773   9.076 -0.0540 -0.0299 -1.4210
  321MOL0     C43264   2.630   9.783   9.209  0.3358 -0.0272  0.4834
  321MOL0     C43265   2.598   9.770   9.324  0.4540  0.3249  0.7926
  321MOL0     C43266   2.153  10.070   8.802 -0.2440  0.4031 -0.9561
  321MOL0     C43267   2.027  10.127   8.781  0.6648 -1.2904 -0.7925
  321MOL0     H43268   1.851  10.521   8.611 -0.6957 -0.8693 -2.2917
  321MOL0     H43269   1.703  10.676   8.538  1.0740  0.0584  0.3458
  321MOL0     H43270   1.491  10.679   8.379 -0.5831 -0.6568 -1.6764
  321MOL0     H43271   1.349  10.575   8.398 -2.3790  2.5802 -0.0974
  321MOL0     H43272   1.297  10.769   8.275  0.2008 -0.6650  0.5062
  321MOL0     H43273   1.196  10.731   8.409  1.4041 -2.2968  0.6832
  321MOL0     H43274   1.330  10.922   8.532  0.0489  1.1944  0.9670
  321MOL0     H43275   1.423  10.944   8.372  0.7785 -0.6046  1.1385
  321MOL0     H43276   1.205  11.022   8.260 -2.1997  0.9084  0.2454
  321MOL0     H43277   1.128  10.978   8.414 -0.0215 -0.0669  0.7488
  321MOL0     H43278   1.299  11.141   8.526  2.5164 -0.6008 -0.7015
  321MOL0     H43279   1.344  11.195   8.371 -0.7402 -0.4641 -0.8624
  321MOL0     H43280   1.145  11.288   8.300  0.8057  0.3782  1.5000
  321MOL0     H43281   1.041  11.201   8.415  1.9588 -3.7524 -0.0957
  321MOL0     H43282   1.197  11.345   8.588 -1.1447 -0.1872  0.7162
  321MOL0     H43283   1.229  11.443   8.444 -0.8883 -0.6714 -3.7443
  321MOL0     H43284   1.051  11.518   8.616  1.0590 -0.0235 -0.9482
  321MOL0     H43285   0.951  11.392   8.566  1.8020 -2.3911 -0.4771
  321MOL0     H43286   0.814  11.445   8.349  3.3372 -2.2400  2.8766
  321MOL0     H43287   0.873  11.517   8.017  1.2516 -2.4441  2.0743
  321MOL0     H43288   0.738  11.504   8.102  0.3690 -1.2482 -1.3005
  321MOL0     H43289   0.749  11.709   7.937 -0.1278 -2.0872 -0.3503
  321MOL0     H43290   0.846  11.791   8.060 -0.8350 -0.0944 -0.8313
  321MOL0     H43291   0.670  11.757   8.227  3.4336 -0.7829 -0.7102
  321MOL0     H43292   0.543  11.722   8.102  0.7682 -0.3122 -0.3244
  321MOL0     H43293   0.727  11.956   8.099 -0.0875  1.4966 -2.7227
  321MOL0     H43294   0.576  11.970   8.185 -0.7298  2.6095 -1.9928
  321MOL0     H43295   0.450  12.019   7.789  0.3846  0.4709  0.9017
  321MOL0     H43296   0.273  12.081   7.635 -1.2888  0.8694 -0.5155
  321MOL0     H43297   0.136  11.966   7.645  2.6841 -3.5958  2.4572
  321MOL0     H43298   0.141  12.135   7.711  2.9084  0.9626 -0.1350
  321MOL0     H43299  -0.258  11.867   7.792  1.6496 -0.1428  0.2877
  321MOL0     H43300  -0.505  11.850   7.857 -1.1600  0.3287  0.5964
  321MOL0     H43301  -0.633  11.940   8.257  0.5223  0.8469  1.0530
  321MOL0     H43302  -0.657  12.024   8.102 -1.5418 -1.3078 -0.3384
  321MOL0     H43303  -0.841  11.878   8.052  1.2901  1.7907 -0.9753
  321MOL0     H43304  -0.820  11.804   8.216 -0.6389  0.4697  1.3000
  321MOL0     H43305  -0.885  12.095   8.155 -2.7932 -2.7879 -5.0374
  321MOL0     H43306  -0.839  12.036   8.325  1.3787 -0.0039 -0.5209
  321MOL0     H43307  -1.084  11.975   8.166  0.6603  4.2300 -0.5451
  321MOL0     H43308  -1.034  11.886   8.309 -0.4474 -1.4534 -1.8481
  321MOL0     H43309  -1.189  12.114   8.324  0.1333  0.4882 -2.2209
  321MOL0     H43310  -1.033  12.184   8.323 -1.4235  1.0134  0.9254
  321MOL0     H43311  -0.963  12.038   8.508  0.2636  1.0020 -2.4755
  321MOL0     H43312  -1.083  12.160   8.555  0.2507  0.2112  0.6907
  321MOL0     H43313  -1.142  11.864   8.526  0.4453 -0.0619  2.4265
  321MOL0     H43314  -1.261  11.993   8.535  0.0649 -2.4572 -0.8340
  321MOL0     H43315  -1.039  11.965   8.737 -0.0577 -1.2570  1.0648
  321MOL0     H43316  -1.172  11.857   8.740 -0.8805  0.6074  0.4253
  321MOL0     H43317  -0.413  11.841   8.275  3.4482 -2.3367  1.4216
  321MOL0     H43318  -0.173  11.878   8.214 -1.1502  1.2268  2.1458
  321MOL0     H43319   0.121  11.901   8.134 -0.7168  2.2462 -1.3220
  321MOL0     H43320   0.361  11.908   8.187  0.9963  1.1559  0.3198
  321MOL0     H43321   1.376  10.417   8.673  0.6952 -1.5617 -0.5615
  321MOL0     H43322   1.545  10.250   8.744 -1.0482 -0.2649 -2.3001
  321MOL0     H43323   2.030  10.297   9.077 -2.0666  1.4173 -2.9384
  321MOL0     H43324   2.232  10.199   9.107  1.0535  2.6435 -1.9413
  321MOL0     H43325   2.287   9.842   8.870  0.3969 -0.4062 -2.5534
  321MOL0     H43326   2.423   9.911   8.788  0.8665 -2.3507  0.3835
  321MOL0     H43327   2.463   9.715   8.936 -3.6177  1.1179 -0.8208
  321MOL0     H43328   2.428   9.810   9.075 -1.3458 -1.6575  0.0905
  321MOL0     H43329   2.607   9.959   9.031 -0.4202 -1.1397  1.7176
  321MOL0     H43330   2.662   9.871   8.886 -2.0931 -1.5149 -1.0572
  321MOL0     H43331   2.785   9.824   9.095 -0.3521 -0.9971  4.2933
  321MOL0     H43332   2.708   9.666   9.064  0.9768 -0.2730  1.4797
  321MOL0     H43333   2.563   9.759   9.424 -1.2752  0.1222  0.1993
  321MOL0     H43334   2.196  10.003   8.729 -0.5511 -1.0630  0.1694
  321MOL0     H43335   1.973  10.104   8.690 -1.3723 -2.6976  0.6867
  322MOL0     O43336   1.822   0.240   7.849 -0.0833 -0.7004 -0.0399
  322MOL0     C43337   1.849   0.168   7.753  1.0581 -0.0180 -0.9257
  322MOL0     O43338   1.758   0.139   7.653  0.5216 -0.1328 -0.5605
  322MOL0     C43339   1.626   0.178   7.683 -0.0654 -0.8109  0.5033
  322MOL0     C43340   1.526   0.083   7.725 -0.1187 -0.3307  0.0099
  322MOL0     C43341   1.401   0.126   7.751 -0.2602 -0.5633 -1.4843
  322MOL0     C43342   1.361   0.259   7.732 -0.7170  0.4880  0.0251
  322MOL0     O43343   1.232   0.296   7.764  0.1826 -0.1729  0.3440
  322MOL0     C43344   1.196   0.428   7.732 -0.4932  0.0080  0.0533
  322MOL0     C43345   1.046   0.432   7.765 -0.3869 -0.9841  0.2122
  322MOL0     C43346   0.995   0.570   7.751 -0.3584 -0.3923  0.1751
  322MOL0     C43347   0.968   0.598   7.599  0.4968  0.0811  0.2704
  322MOL0     C43348   0.931   0.746   7.568 -0.1035 -0.0642 -0.6325
  322MOL0     C43349   0.798   0.784   7.644 -0.1408 -0.0657  0.1178
  322MOL0     C43350   0.742   0.928   7.608 -0.8978  1.0147  1.0277
  322MOL0     C43351   0.629   0.976   7.702  0.4940 -0.2472 -0.5417
  322MOL0     N43352   0.562   1.092   7.642  0.0673 -0.1094  0.4599
  322MOL0     C43353   0.560   1.209   7.703  0.1264  0.5213 -0.0233
  322MOL0     C43354   0.480   1.292   7.618 -0.7309  0.7797 -0.6559
  322MOL0     C43355   0.458   1.441   7.633  0.7220  0.9775 -0.6336
  322MOL0     C43356   0.423   1.496   7.769 -0.0796  0.6769 -0.5975
  322MOL0     C43357   0.429   1.651   7.758  0.1891  0.7389 -0.2261
  322MOL0     C43358   0.495   1.734   7.869  0.0282  0.5487 -0.4720
  322MOL0     O43359   0.624   1.674   7.900 -0.4449 -0.3212 -0.2930
  322MOL0     C43360   0.650   1.614   8.023 -0.2812  0.2163  0.5798
  322MOL0     C43361   0.562   1.579   8.125 -0.9451 -0.4569 -0.2009
  322MOL0     C43362   0.610   1.504   8.240  0.5554 -0.4356  0.4613
  322MOL0     C43363   0.511   1.495   8.346 -0.4950  0.4598 -0.1987
  322MOL0     C43364   0.749   1.462   8.247  0.4625  0.0982  0.3258
  322MOL0     C43365   0.808   1.378   8.354 -0.6035 -0.6340  0.2052
  322MOL0     O43366   0.940   1.368   8.351  0.1414  0.5779 -0.1239
  322MOL0     C43367   1.006   1.285   8.441  0.1460  0.2230  0.6938
  322MOL0     C43368   1.060   1.163   8.387  0.4661 -0.4460 -0.6449
  322MOL0     C43369   1.130   1.077   8.473 -0.2066 -0.6591  0.3794
  322MOL0     C43370   1.142   1.104   8.611  0.6593  0.0604 -0.9887
  322MOL0     O43371   1.203   1.001   8.680  0.3050 -0.7266 -0.2982
  322MOL0     C43372   1.306   1.046   8.778 -0.4078  1.0799 -0.4140
  322MOL0     C43373   1.395   0.926   8.833  0.2381  0.1862 -0.2923
  322MOL0     C43374   1.493   0.855   8.736 -0.8500 -0.2893 -0.0185
  322MOL0     C43375   1.600   0.949   8.681  0.0696 -1.3290 -0.2581
  322MOL0     C43376   1.678   0.906   8.559 -0.7704 -0.7114  0.1194
  322MOL0     C43377   1.711   0.751   8.555  0.4499 -0.1340  0.1342
  322MOL0     C43378   1.807   0.712   8.432  0.1228  0.9156  0.1131
  322MOL0     C43379   1.850   0.564   8.429 -1.0710  0.1093 -0.7421
  322MOL0    Cl43380   1.953   0.531   8.569 -0.1671  0.0565 -0.1110
  322MOL0     C43381   1.076   1.221   8.664 -0.4414  0.4388 -0.5100
  322MOL0     C43382   1.007   1.307   8.579 -0.6792  0.4967 -0.5856
  322MOL0     O43383   0.738   1.322   8.435 -0.1089 -0.2447  0.5345
  322MOL0     C43384   0.834   1.506   8.145  0.1441  0.2844 -1.1266
  322MOL0     C43385   0.782   1.582   8.037  0.3370  0.1447 -0.5757
  322MOL0     N43386   0.441   1.220   7.509 -0.3026 -0.1509 -0.2532
  322MOL0     N43387   0.485   1.099   7.530  0.7863  0.0780 -0.1224
  322MOL0     C43388   1.459   0.351   7.685  0.5842  0.7243 -0.1789
  322MOL0     C43389   1.592   0.319   7.669 -0.3154  0.5497  0.1830
  322MOL0     C43390   1.994   0.128   7.750  0.1267  0.7764  0.3080
  322MOL0     C43391   2.037   0.032   7.653 -0.6689  1.0884  0.1695
  322MOL0     C43392   2.172   0.003   7.628 -0.4105 -0.3432  0.0777
  322MOL0     C43393   2.269   0.063   7.705  0.0973 -0.2371 -0.0914
  322MOL0     O43394   2.405   0.024   7.699 -0.2757 -0.3300 -0.0568
  322MOL0     C43395   2.452   0.052   7.564  1.1315 -0.0490  0.2276
  322MOL0     C43396   2.606   0.066   7.573 -1.1229 -0.3418 -0.1836
  322MOL0     C43397   2.653   0.198   7.637 -0.2143  0.0024 -0.7748
  322MOL0     C43398   2.801   0.205   7.680 -0.2413  0.8143  1.3902
  322MOL0     C43399   2.895   0.204   7.555  0.7847  0.3177  0.7654
  322MOL0     C43400   2.975   0.236   7.461  0.8860 -0.1254 -0.1748
  322MOL0     C43401   2.223   0.148   7.814 -0.0312 -0.4306  1.0410
  322MOL0     C43402   2.086   0.170   7.840 -0.8452  0.2439  0.6777
  322MOL0     H43403   1.565  -0.018   7.735  2.6477  0.8435  2.3629
  322MOL0     H43404   1.324   0.059   7.788 -1.1343  1.2165  0.0450
  322MOL0     H43405   1.244   0.503   7.795 -1.1697 -0.2896  0.9363
  322MOL0     H43406   1.215   0.452   7.627 -1.7140  2.6592  0.3592
  322MOL0     H43407   0.981   0.359   7.714 -1.6258 -1.2834  2.1007
  322MOL0     H43408   1.041   0.390   7.866  1.9936 -0.0997  0.7491
  322MOL0     H43409   0.900   0.568   7.805 -1.0013  1.5938 -0.7633
  322MOL0     H43410   1.054   0.640   7.811  0.5842 -0.3445 -0.7859
  322MOL0     H43411   1.062   0.583   7.546  0.9511  2.5823  0.2411
  322MOL0     H43412   0.890   0.533   7.558 -0.1325  0.7665  0.3436
  322MOL0     H43413   1.013   0.813   7.593 -1.3760  2.4389 -2.7940
  322MOL0     H43414   0.918   0.754   7.460  2.2471  2.7715 -0.8088
  322MOL0     H43415   0.713   0.717   7.625 -0.3573 -0.1352  1.2808
  322MOL0     H43416   0.815   0.792   7.751  3.7897  1.5812 -0.4801
  322MOL0     H43417   0.821   0.999   7.584  0.1649 -1.1228 -2.6432
  322MOL0     H43418   0.697   0.912   7.510 -0.0393  2.3928  0.3764
  322MOL0     H43419   0.667   0.999   7.802 -1.7462  1.6468 -0.0498
  322MOL0     H43420   0.555   0.897   7.721 -1.3871  1.3424 -0.9715
  322MOL0     H43421   0.612   1.251   7.789  0.8951 -0.4603  0.0100
  322MOL0     H43422   0.556   1.483   7.608  0.9933  2.1829  2.1351
  322MOL0     H43423   0.375   1.465   7.566 -0.8021 -3.1512 -0.4893
  322MOL0     H43424   0.499   1.465   7.842  0.0938  2.1328 -0.1370
  322MOL0     H43425   0.325   1.467   7.809  0.4472 -0.1813  0.1250
  322MOL0     H43426   0.331   1.688   7.728  0.6889  0.0657 -2.8848
  322MOL0     H43427   0.488   1.667   7.667 -0.3853  0.1928 -0.7016
  322MOL0     H43428   0.423   1.741   7.952 -1.6123  2.1651 -1.9486
  322MOL0     H43429   0.513   1.833   7.827  3.8662 -0.3428 -1.3465
  322MOL0     H43430   0.458   1.604   8.109 -0.8788 -0.6984 -1.0879
  322MOL0     H43431   0.548   1.534   8.441 -0.1683 -2.9393  1.2208
  322MOL0     H43432   0.416   1.539   8.315  0.5169  1.5323 -1.9661
  322MOL0     H43433   0.491   1.388   8.352 -0.9722  0.3524 -2.5442
  322MOL0     H43434   1.063   1.133   8.283  2.3077  0.2861 -0.8302
  322MOL0     H43435   1.184   0.994   8.430 -0.4621 -0.8432  0.4070
  322MOL0     H43436   1.369   1.122   8.733 -0.3005 -0.1851 -2.5057
  322MOL0     H43437   1.244   1.091   8.857  1.2356  0.9466  0.9960
  322MOL0     H43438   1.455   0.960   8.918  0.1894 -0.8623  0.1743
  322MOL0     H43439   1.338   0.842   8.875  1.1030 -0.6378 -0.7264
  322MOL0     H43440   1.429   0.819   8.654  1.2172  0.6477 -2.1429
  322MOL0     H43441   1.543   0.785   8.803 -0.5186  1.1902  1.3101
  322MOL0     H43442   1.561   1.050   8.666  0.3850 -0.4449  3.6889
  322MOL0     H43443   1.679   0.955   8.756  1.1124 -1.7781 -1.2892
  322MOL0     H43444   1.768   0.966   8.546  0.0843 -2.3251 -2.0167
  322MOL0     H43445   1.616   0.926   8.471 -2.7382  0.0206  1.5971
  322MOL0     H43446   1.760   0.728   8.650 -0.0563  3.0043  1.2616
  322MOL0     H43447   1.622   0.686   8.554 -0.5077  1.0634 -2.7158
  322MOL0     H43448   1.895   0.777   8.428  1.0111 -0.2738 -0.1957
  322MOL0     H43449   1.753   0.722   8.338  0.5313 -0.9103 -0.3636
  322MOL0     H43450   1.918   0.546   8.345  0.0400  3.0056 -0.5468
  322MOL0     H43451   1.776   0.483   8.427  1.5033 -2.6826  2.4114
  322MOL0     H43452   1.080   1.238   8.772  1.7275 -0.7771 -0.3504
  322MOL0     H43453   0.947   1.391   8.612 -0.1833  2.1586 -3.5863
  322MOL0     H43454   0.941   1.505   8.161  0.5445  1.8708 -3.3307
  322MOL0     H43455   0.860   1.614   7.969  1.0828  1.4088  0.8168
  322MOL0     H43456   1.442   0.456   7.666  0.3293  0.3574 -2.1991
  322MOL0     H43457   1.662   0.400   7.649  2.4637 -1.8673 -0.4838
  322MOL0     H43458   1.967  -0.010   7.581 -0.6114 -1.8568  1.7081
  322MOL0     H43459   2.183  -0.076   7.555 -3.5498 -2.0944  1.3151
  322MOL0     H43460   2.422  -0.038   7.510 -3.3544  1.0384  0.4714
  322MOL0     H43461   2.414   0.139   7.511  1.0046  1.0132  1.9884
  322MOL0     H43462   2.644   0.058   7.471 -1.8434 -1.3279 -0.3841
  322MOL0     H43463   2.650  -0.014   7.633  0.3497  0.4898 -0.1258
  322MOL0     H43464   2.588   0.229   7.719 -1.1273  2.4893 -2.3064
  322MOL0     H43465   2.632   0.274   7.560 -0.5680  0.7006 -0.0040
  322MOL0     H43466   2.823   0.120   7.745  0.4478 -1.7172 -1.8603
  322MOL0     H43467   2.809   0.297   7.739 -0.5777  1.3466  0.6257
  322MOL0     H43468   3.029   0.260   7.372  0.2563  0.6785 -0.3615
  322MOL0     H43469   2.300   0.199   7.871  0.1190 -1.7150  2.0325
  322MOL0     H43470   2.053   0.222   7.930  2.1494 -1.1205  2.7441
  323MOL0     O43471   6.707   2.610   0.704  0.3935  0.0703 -0.4058
  323MOL0     C43472   6.709   2.692   0.797 -0.1435  0.4771  0.1203
  323MOL0     O43473   6.599   2.720   0.862 -0.0050  0.4543  0.2080
  323MOL0     C43474   6.479   2.656   0.840  0.2626  0.3694  0.5302
  323MOL0     C43475   6.368   2.737   0.823 -0.2053 -0.4279  0.1687
  323MOL0     C43476   6.241   2.689   0.806 -0.3973  1.0800 -0.8313
  323MOL0     C43477   6.222   2.552   0.827 -0.4706 -0.7294 -0.0572
  323MOL0     O43478   6.108   2.486   0.783  0.8523 -0.0178  0.3884
  323MOL0     C43479   6.014   2.549   0.693 -0.0897 -0.3729 -0.4451
  323MOL0     C43480   5.898   2.452   0.654 -0.0470 -0.1637  0.3923
  323MOL0     C43481   5.839   2.389   0.783  1.2587  0.1132  0.6120
  323MOL0     C43482   5.709   2.299   0.758 -0.2219 -1.5441  0.6810
  323MOL0     C43483   5.655   2.248   0.885  0.6299  0.0844 -0.5694
  323MOL0     C43484   5.539   2.154   0.867 -0.2729 -0.2074  0.4684
  323MOL0     C43485   5.403   2.225   0.838  0.6158 -0.2448  0.2493
  323MOL0     C43486   5.364   2.305   0.967  0.3753  0.3432 -0.1623
  323MOL0     N43487   5.217   2.332   0.971 -1.2083  0.5121 -0.6298
  323MOL0     C43488   5.161   2.352   1.085  0.3280 -0.4664 -0.9183
  323MOL0     C43489   5.024   2.360   1.069 -1.5374  0.4174  0.3749
  323MOL0     C43490   4.914   2.368   1.173  0.2940  0.0501 -0.1742
  323MOL0     C43491   4.767   2.372   1.111 -0.5610  1.1090  1.0582
  323MOL0     C43492   4.646   2.364   1.213 -0.0980 -0.4320  0.4596
  323MOL0     C43493   4.602   2.229   1.273  0.0115 -0.4262  0.4287
  323MOL0     O43494   4.694   2.198   1.379  0.2407  0.5840  0.3888
  323MOL0     C43495   4.695   2.066   1.422  0.2837  0.8009  0.1612
  323MOL0     C43496   4.826   2.031   1.471  0.7592 -0.0700 -0.4704
  323MOL0     C43497   4.859   1.909   1.510 -0.4729  0.4916 -0.3852
  323MOL0     C43498   5.008   1.901   1.539 -0.3977  0.5962 -0.4663
  323MOL0     C43499   4.756   1.808   1.521 -1.1197  0.1008 -0.1999
  323MOL0     C43500   4.775   1.664   1.589 -0.7646 -0.5641  0.7985
  323MOL0     O43501   4.705   1.560   1.538  0.2918  0.8244 -0.0698
  323MOL0     C43502   4.740   1.430   1.568 -0.2822  0.0509  0.2315
  323MOL0     C43503   4.804   1.380   1.685  0.6759 -0.4175 -0.3647
  323MOL0     C43504   4.832   1.249   1.707  0.2573  0.0040  0.2036
  323MOL0     C43505   4.811   1.158   1.603 -0.1854  0.1252  0.7648
  323MOL0     O43506   4.846   1.024   1.615 -0.5151  0.2511  1.0056
  323MOL0     C43507   4.852   0.944   1.732  0.3537 -0.1750 -0.9210
  323MOL0     C43508   4.726   0.945   1.815  0.2033  0.0181 -0.1569
  323MOL0     C43509   4.614   0.871   1.745 -0.0158  0.3123  0.3586
  323MOL0     C43510   4.485   0.893   1.825 -0.0324  0.7063 -1.1368
  323MOL0     C43511   4.377   0.794   1.769 -0.8311 -0.0703 -0.3907
  323MOL0     C43512   4.236   0.829   1.819  0.0674  0.0896 -0.6518
  323MOL0     C43513   4.132   0.717   1.783 -0.1501 -0.0578  0.6651
  323MOL0     C43514   3.986   0.756   1.791  0.2067  0.4857  0.0715
  323MOL0    Cl43515   3.882   0.627   1.720 -0.3894 -0.1394 -0.0495
  323MOL0     C43516   4.752   1.199   1.479 -0.1227  0.0013 -0.0791
  323MOL0     C43517   4.715   1.338   1.463  0.3234 -0.1123 -0.5513
  323MOL0     O43518   4.835   1.668   1.692 -0.1621  0.1312  0.5481
  323MOL0     C43519   4.639   1.829   1.463  0.8137  0.0077 -0.1575
  323MOL0     C43520   4.607   1.960   1.406 -0.3668  0.4251 -0.1489
  323MOL0     N43521   5.008   2.353   0.935 -0.6513 -0.2259  0.7231
  323MOL0     N43522   5.122   2.332   0.875 -0.4578  0.5720 -0.4055
  323MOL0     C43523   6.327   2.468   0.867  0.0376 -0.3833 -0.4783
  323MOL0     C43524   6.452   2.518   0.869  0.0129 -0.2763 -0.2143
  323MOL0     C43525   6.840   2.734   0.847 -0.6500  0.6506  1.2645
  323MOL0     C43526   6.850   2.810   0.971  0.0743  0.4207 -0.4515
  323MOL0     C43527   6.977   2.838   1.035 -0.7660  0.3046 -0.7573
  323MOL0     C43528   7.095   2.792   0.974  0.4936 -1.3575  0.1430
  323MOL0     O43529   7.223   2.822   1.017  0.0693 -0.6073  0.0771
  323MOL0     C43530   7.243   2.882   1.144 -0.6326  0.7781  0.2085
  323MOL0     C43531   7.392   2.914   1.172  0.5551 -0.2657  0.6402
  323MOL0     C43532   7.462   2.985   1.063  0.8332 -0.3621 -0.2381
  323MOL0     C43533   7.605   3.020   1.090  0.8616  0.4340 -0.3767
  323MOL0     C43534   7.669   3.070   0.976 -0.6647 -0.0204 -0.0932
  323MOL0     C43535   7.716   3.125   0.877  0.1973  0.6613 -0.2674
  323MOL0     C43536   7.086   2.724   0.849 -0.2004 -0.2945 -0.8390
  323MOL0     C43537   6.964   2.701   0.785  0.4231  0.1501 -0.0148
  323MOL0     H43538   6.384   2.844   0.820  0.0999 -0.4701 -2.6253
  323MOL0     H43539   6.159   2.746   0.763 -0.3914  1.2376 -0.6356
  323MOL0     H43540   5.977   2.641   0.738 -1.6995 -1.7770  1.3106
  323MOL0     H43541   6.056   2.583   0.598 -2.7841  0.8406 -1.2939
  323MOL0     H43542   5.823   2.515   0.605 -1.7720 -3.3437 -1.3907
  323MOL0     H43543   5.930   2.370   0.590 -1.5399 -0.6893  0.2848
  323MOL0     H43544   5.913   2.319   0.822  1.4718 -1.2907 -2.1509
  323MOL0     H43545   5.802   2.471   0.846 -1.3701  1.0305 -1.9303
  323MOL0     H43546   5.635   2.360   0.705  1.8058 -0.9163 -1.6052
  323MOL0     H43547   5.740   2.215   0.695  0.8902 -1.0908  0.6011
  323MOL0     H43548   5.735   2.190   0.932 -1.1358 -0.5999  1.7970
  323MOL0     H43549   5.628   2.336   0.944 -0.0719 -1.2988  1.2588
  323MOL0     H43550   5.560   2.069   0.802 -1.3085 -0.0559 -0.0788
  323MOL0     H43551   5.535   2.101   0.963  0.9181  2.7311  2.2998
  323MOL0     H43552   5.407   2.293   0.752 -1.8976 -0.1405  0.1244
  323MOL0     H43553   5.326   2.150   0.815  0.1326  0.6273 -1.1392
  323MOL0     H43554   5.416   2.401   0.960 -2.5588  2.0387 -0.5857
  323MOL0     H43555   5.398   2.251   1.055  2.2975  0.1654 -0.9685
  323MOL0     H43556   5.201   2.364   1.185 -1.6629  0.3153 -0.1498
  323MOL0     H43557   4.920   2.276   1.233 -1.2515  0.3043  0.4087
  323MOL0     H43558   4.939   2.439   1.252 -0.3500 -1.9344  1.9285
  323MOL0     H43559   4.763   2.284   1.046  0.5124  1.9590 -0.2309
  323MOL0     H43560   4.752   2.457   1.043 -2.2192  2.0949  2.5584
  323MOL0     H43561   4.551   2.396   1.168  0.9666  1.0464 -0.8067
  323MOL0     H43562   4.669   2.432   1.295 -0.4400 -2.5239  2.4013
  323MOL0     H43563   4.607   2.148   1.200  3.4654 -0.3130  0.4079
  323MOL0     H43564   4.498   2.233   1.308 -0.1019 -2.9152  0.5540
  323MOL0     H43565   4.891   2.118   1.481 -1.0093  1.2952 -0.3393
  323MOL0     H43566   5.031   1.870   1.642 -0.1028  0.0442 -0.6945
  323MOL0     H43567   5.052   1.818   1.484 -1.5727 -1.0405  0.9313
  323MOL0     H43568   5.066   1.990   1.514  0.2111  0.8313  1.5607
  323MOL0     H43569   4.814   1.436   1.778 -1.7371 -0.1991 -0.1661
  323MOL0     H43570   4.858   1.217   1.808  0.0036  3.4668  1.5194
  323MOL0     H43571   4.877   0.846   1.691 -1.6013 -1.1817  0.1704
  323MOL0     H43572   4.929   0.974   1.804  0.5144 -2.9832  0.2052
  323MOL0     H43573   4.740   0.892   1.910 -0.0669 -0.4527 -0.3747
  323MOL0     H43574   4.701   1.050   1.829  2.6930  0.7262 -0.6422
  323MOL0     H43575   4.646   0.767   1.735 -0.4177  0.4018 -3.2242
  323MOL0     H43576   4.603   0.917   1.646  0.0253 -3.5510 -1.6193
  323MOL0     H43577   4.483   0.876   1.933 -5.2493 -0.9756 -1.2366
  323MOL0     H43578   4.468   1.001   1.822 -0.5887  0.6028 -2.6329
  323MOL0     H43579   4.406   0.695   1.805  0.4847 -0.3644 -2.1229
  323MOL0     H43580   4.375   0.789   1.660  0.0242 -1.4745 -0.3725
  323MOL0     H43581   4.239   0.842   1.928 -0.5201  1.1443 -0.7470
  323MOL0     H43582   4.217   0.930   1.782 -0.6438 -0.3784 -1.5885
  323MOL0     H43583   4.145   0.630   1.849 -0.9791  0.0905  1.0456
  323MOL0     H43584   4.147   0.676   1.683 -1.8468  0.2344  0.2462
  323MOL0     H43585   3.953   0.849   1.744  1.3217  1.0335  0.3171
  323MOL0     H43586   3.976   0.765   1.900 -1.3032  0.1718 -0.0253
  323MOL0     H43587   4.743   1.134   1.394  0.1737  1.1423 -1.0087
  323MOL0     H43588   4.670   1.383   1.375  0.4941 -0.3611 -0.7678
  323MOL0     H43589   4.564   1.752   1.454  0.5401  0.0791  1.2333
  323MOL0     H43590   4.511   1.978   1.359 -0.7584  0.5398  0.6718
  323MOL0     H43591   6.299   2.366   0.892  1.2477 -0.3311  1.2977
  323MOL0     H43592   6.535   2.465   0.916 -0.4086 -1.9292 -1.2494
  323MOL0     H43593   6.763   2.831   1.032  0.1723 -1.4434  0.4140
  323MOL0     H43594   6.976   2.892   1.130 -2.6225 -0.2791 -0.3859
  323MOL0     H43595   7.183   2.973   1.138 -0.9717  0.5054 -5.0065
  323MOL0     H43596   7.209   2.821   1.228  2.5429  2.0244  2.6530
  323MOL0     H43597   7.445   2.820   1.189  1.4942 -0.3204 -2.1633
  323MOL0     H43598   7.386   2.973   1.264 -1.0190  0.9759 -0.2033
  323MOL0     H43599   7.411   3.078   1.035 -0.9393 -1.6943 -1.6418
  323MOL0     H43600   7.459   2.917   0.977 -3.0874 -1.3369  0.4980
  323MOL0     H43601   7.659   2.932   1.127  3.3492  1.1561 -2.0419
  323MOL0     H43602   7.600   3.098   1.166  2.4301  2.5145 -2.2873
  323MOL0     H43603   7.759   3.172   0.791  0.9947  0.8842  0.2434
  323MOL0     H43604   7.171   2.687   0.794  0.5024 -1.8815  1.1848
  323MOL0     H43605   6.964   2.654   0.687 -1.9196  2.0320 -1.0081
  324MOL0     O43606  11.200   4.040   7.884 -0.0101 -0.1207  0.2446
  324MOL0     C43607  11.293   4.088   7.945 -0.3229 -0.5781 -0.7752
  324MOL0     O43608  11.299   4.103   8.082 -0.7839  0.1089 -0.3948
  324MOL0     C43609  11.213   4.045   8.172 -0.1809 -0.0851  0.3062
  324MOL0     C43610  11.118   3.942   8.148 -0.0216 -0.1433 -0.2483
  324MOL0     C43611  11.033   3.900   8.254 -0.3058 -0.4958 -0.6316
  324MOL0     C43612  11.017   3.977   8.374  0.7479  0.0730  0.5356
  324MOL0     O43613  10.908   3.942   8.457 -0.4205  0.3449  0.2286
  324MOL0     C43614  10.871   4.030   8.558  0.0883  0.5721 -0.7041
  324MOL0     C43615  10.726   4.000   8.611 -0.6636  0.2997  0.4100
  324MOL0     C43616  10.677   4.093   8.715  0.2251  0.2106  0.0937
  324MOL0     C43617  10.524   4.051   8.740 -0.0323 -0.6203  0.7151
  324MOL0     C43618  10.451   4.129   8.849  0.1940 -1.3955  0.2684
  324MOL0     C43619  10.446   4.279   8.808 -0.1706 -0.5811 -0.2453
  324MOL0     C43620  10.388   4.353   8.923 -0.7025 -1.0715  0.5350
  324MOL0     C43621  10.330   4.482   8.866 -0.0458  0.3838 -0.2054
  324MOL0     N43622  10.272   4.569   8.971 -0.1054  0.6790 -0.4227
  324MOL0     C43623  10.336   4.608   9.081 -0.0030  1.1964  0.1148
  324MOL0     C43624  10.244   4.665   9.164  0.2972  0.2699 -0.6482
  324MOL0     C43625  10.262   4.689   9.304 -0.3069  0.4713  0.5835
  324MOL0     C43626  10.299   4.842   9.323  0.0855  0.0722  0.6167
  324MOL0     C43627  10.198   4.959   9.274 -0.1364  0.2311 -0.2215
  324MOL0     C43628  10.073   4.956   9.356 -1.1715 -0.0887  0.7777
  324MOL0     O43629  10.109   4.942   9.499  0.2706  0.7313  0.3611
  324MOL0     C43630  10.008   4.904   9.587 -0.2637  1.0647 -0.4164
  324MOL0     C43631   9.869   4.912   9.576 -0.2403  0.5606  0.4127
  324MOL0     C43632   9.791   4.842   9.665  0.1696 -0.1444  0.2686
  324MOL0     C43633   9.642   4.869   9.645 -0.4315  0.0851  0.0592
  324MOL0     C43634   9.844   4.757   9.770  0.3875  0.5057  0.2207
  324MOL0     C43635   9.763   4.679   9.876  1.0962 -0.6326  0.3336
  324MOL0     O43636   9.835   4.636   9.987 -0.8655 -0.3585  0.3771
  324MOL0     C43637   9.754   4.608  10.097 -0.2501 -0.1767  0.5584
  324MOL0     C43638   9.699   4.716  10.169 -0.8149  0.8635 -0.0465
  324MOL0     C43639   9.613   4.687  10.278  0.2686  0.3662  0.5143
  324MOL0     C43640   9.604   4.553  10.327  0.2883  0.6338  0.1239
  324MOL0     O43641   9.531   4.534  10.438 -0.4370 -0.5686 -0.5083
  324MOL0     C43642   9.584   4.443  10.539 -0.6714  0.4348  0.2383
  324MOL0     C43643   9.531   4.469  10.684  0.2690 -0.5003  0.2934
  324MOL0     C43644   9.398   4.399  10.714  0.7955  0.7864  0.3033
  324MOL0     C43645   9.276   4.488  10.736  0.7847  0.1590 -0.4838
  324MOL0     C43646   9.137   4.415  10.754 -0.0947  0.0109 -0.5552
  324MOL0     C43647   9.113   4.340  10.884 -0.1469 -0.0350  0.6059
  324MOL0     C43648   9.142   4.407  11.021 -0.3700  0.3229 -0.4786
  324MOL0     C43649   9.058   4.540  11.047 -1.1308  0.3554 -0.1818
  324MOL0    Cl43650   9.147   4.634  11.174  0.7245  0.1605 -0.0283
  324MOL0     C43651   9.647   4.450  10.248 -0.0343 -0.3897  1.5119
  324MOL0     C43652   9.730   4.482  10.138 -0.0822  0.7144 -1.1658
  324MOL0     O43653   9.643   4.660   9.860 -0.0524 -0.3509 -0.0425
  324MOL0     C43654   9.983   4.750   9.777 -0.4170 -0.6443  0.0317
  324MOL0     C43655  10.063   4.823   9.686  0.3157  0.5631  0.4599
  324MOL0     N43656  10.126   4.681   9.084  0.2049  0.3486 -0.4049
  324MOL0     N43657  10.146   4.611   8.974  0.2866 -0.4958 -0.1761
  324MOL0     C43658  11.109   4.073   8.394  0.9198 -0.4805 -0.3269
  324MOL0     C43659  11.202   4.110   8.295  0.0714 -0.4700 -0.0833
  324MOL0     C43660  11.393   4.155   7.871 -0.7689  0.0507 -0.3711
  324MOL0     C43661  11.524   4.165   7.920  0.9616  0.1861  0.0711
  324MOL0     C43662  11.621   4.227   7.837  0.3842 -0.1675 -0.0808
  324MOL0     C43663  11.591   4.277   7.710 -0.4938 -0.2602  0.7422
  324MOL0     O43664  11.702   4.343   7.654 -0.2828  0.1272 -0.1827
  324MOL0     C43665  11.689   4.402   7.520 -0.2034  0.0518  0.2554
  324MOL0     C43666  11.689   4.294   7.410 -0.3797 -0.2329  0.1195
  324MOL0     C43667  11.831   4.250   7.388 -0.9701 -0.6273  0.1727
  324MOL0     C43668  11.839   4.140   7.288  0.3655 -0.5647  0.2660
  324MOL0     C43669  11.786   4.176   7.149 -0.2821 -1.0486 -0.4035
  324MOL0     C43670  11.731   4.205   7.042 -0.4401  0.3957 -0.8503
  324MOL0     C43671  11.460   4.270   7.668 -0.5685  0.1483 -0.0846
  324MOL0     C43672  11.360   4.202   7.743 -0.4012 -1.3235 -1.3754
  324MOL0     H43673  11.113   3.889   8.054 -0.9488 -1.7432  0.6529
  324MOL0     H43674  10.966   3.818   8.230 -0.8612 -0.0859 -0.5086
  324MOL0     H43675  10.934   4.015   8.646 -2.9697 -2.3113  1.2737
  324MOL0     H43676  10.868   4.135   8.526 -0.6534  0.2048 -1.8862
  324MOL0     H43677  10.661   3.998   8.523  1.5848 -2.5074 -1.3791
  324MOL0     H43678  10.728   3.901   8.658 -0.7252 -1.6725 -3.3576
  324MOL0     H43679  10.732   4.092   8.810  0.4277  1.2524  0.0058
  324MOL0     H43680  10.694   4.197   8.684  1.4276  0.3053  0.9716
  324MOL0     H43681  10.469   4.056   8.646 -0.8359  2.4694  1.2275
  324MOL0     H43682  10.508   3.947   8.768 -2.3745 -0.2517  0.9601
  324MOL0     H43683  10.347   4.094   8.846  0.7079 -3.1645  1.7112
  324MOL0     H43684  10.482   4.113   8.952  0.1910  0.3085  0.5686
  324MOL0     H43685  10.540   4.329   8.785 -0.2183 -0.9101 -1.1822
  324MOL0     H43686  10.399   4.297   8.711 -0.4788  4.1074  0.5573
  324MOL0     H43687  10.305   4.307   8.978 -0.5137  0.2326  1.9451
  324MOL0     H43688  10.466   4.365   8.998 -1.1133  0.1237  0.7961
  324MOL0     H43689  10.258   4.464   8.786 -0.0309 -5.7332  0.6609
  324MOL0     H43690  10.414   4.537   8.822  0.9336 -2.3133 -1.9406
  324MOL0     H43691  10.437   4.581   9.111 -0.1287 -2.1244 -2.0111
  324MOL0     H43692  10.170   4.674   9.362  0.7284 -3.1855  1.5738
  324MOL0     H43693  10.338   4.626   9.352  0.6027  2.1450  1.4129
  324MOL0     H43694  10.390   4.853   9.263  0.0995 -2.9805 -0.0605
  324MOL0     H43695  10.326   4.853   9.428  2.3161 -1.0677  0.2168
  324MOL0     H43696  10.176   4.955   9.166 -1.0144 -1.3549 -0.0307
  324MOL0     H43697  10.236   5.060   9.283 -3.4282  1.7093 -1.1401
  324MOL0     H43698  10.009   4.870   9.332  0.1893 -1.1943  1.0166
  324MOL0     H43699  10.018   5.050   9.339 -1.7588 -0.5192  0.2355
  324MOL0     H43700   9.830   4.982   9.503 -1.5969 -0.1768  0.3906
  324MOL0     H43701   9.583   4.778   9.663  1.4932 -1.9681 -3.0176
  324MOL0     H43702   9.623   4.945   9.721 -1.5762 -1.8646  1.8509
  324MOL0     H43703   9.622   4.894   9.540 -0.0636 -3.2717 -0.9453
  324MOL0     H43704   9.719   4.819  10.142  0.0628  0.3791 -1.3808
  324MOL0     H43705   9.583   4.763  10.350 -0.9400 -0.3647  0.7931
  324MOL0     H43706   9.556   4.341  10.514  0.6131  0.0451  0.3573
  324MOL0     H43707   9.692   4.445  10.526 -0.9812  1.2667 -3.0691
  324MOL0     H43708   9.609   4.445  10.757  1.0241 -4.3834 -1.5774
  324MOL0     H43709   9.513   4.577  10.693  2.6324 -0.1204  1.2758
  324MOL0     H43710   9.409   4.347  10.810 -1.2096 -1.5874 -0.6696
  324MOL0     H43711   9.384   4.320  10.641 -0.6692 -0.7448  2.1266
  324MOL0     H43712   9.300   4.556  10.818 -3.0987 -0.1208  1.0952
  324MOL0     H43713   9.253   4.537  10.641 -0.9591 -0.5053 -0.4400
  324MOL0     H43714   9.117   4.349  10.670 -0.1235  0.9495 -1.3052
  324MOL0     H43715   9.065   4.498  10.748 -0.2579 -0.0468  0.4587
  324MOL0     H43716   9.011   4.301  10.877  0.2932 -0.8647 -3.1547
  324MOL0     H43717   9.179   4.253  10.884  2.7663  2.0416  0.2308
  324MOL0     H43718   9.248   4.432  11.029 -0.6677  1.7945 -0.8236
  324MOL0     H43719   9.127   4.334  11.101 -0.4297  0.8017 -0.0478
  324MOL0     H43720   8.965   4.496  11.084 -1.4627 -1.3527 -2.7664
  324MOL0     H43721   9.037   4.602  10.959 -1.1075  0.9454  0.2259
  324MOL0     H43722   9.633   4.345  10.271 -0.3997 -0.6198  0.3187
  324MOL0     H43723   9.775   4.406  10.074 -1.1374  1.3740 -2.7389
  324MOL0     H43724  10.032   4.693   9.856  1.0751 -0.9697 -1.0797
  324MOL0     H43725  10.170   4.804   9.698  0.4564 -0.6074 -1.9721
  324MOL0     H43726  11.115   4.123   8.490 -1.3270  0.2505 -0.4920
  324MOL0     H43727  11.267   4.196   8.303 -1.1193  0.6064 -1.2724
  324MOL0     H43728  11.539   4.125   8.020 -2.4918  0.8017  0.9911
  324MOL0     H43729  11.724   4.229   7.869  0.0147 -0.2532  1.1734
  324MOL0     H43730  11.591   4.446   7.499 -0.1578 -1.1245 -3.0584
  324MOL0     H43731  11.759   4.483   7.497 -1.2661  0.7185 -0.7360
  324MOL0     H43732  11.662   4.341   7.315 -0.3267 -2.1530 -0.8948
  324MOL0     H43733  11.628   4.206   7.430 -2.1883  0.7333 -0.9247
  324MOL0     H43734  11.874   4.213   7.481 -1.8936 -1.1043  0.4199
  324MOL0     H43735  11.897   4.334   7.362 -1.3969 -0.0774  0.8440
  324MOL0     H43736  11.786   4.048   7.312 -2.7087  0.8238 -0.5556
  324MOL0     H43737  11.943   4.108   7.276  0.9162  0.9258  0.8283
  324MOL0     H43738  11.682   4.246   6.955 -0.4078  2.3764  0.0043
  324MOL0     H43739  11.423   4.309   7.574  0.2584  1.4124  0.0870
  324MOL0     H43740  11.260   4.187   7.704 -1.4644 -1.0098  1.0497
  325MOL0     O43741   7.891   2.578   7.868 -1.0125 -0.6374 -0.2894
  325MOL0     C43742   7.894   2.501   7.969 -0.1476  0.3137  1.2430
  325MOL0     O43743   7.784   2.467   8.050  0.0499  0.6887 -0.2739
  325MOL0     C43744   7.663   2.527   8.018 -0.5362 -0.1144  0.6025
  325MOL0     C43745   7.634   2.664   8.048  0.3720  0.2207  0.7715
  325MOL0     C43746   7.507   2.715   8.013  0.0648  0.0865  0.6800
  325MOL0     C43747   7.413   2.626   7.943 -0.7015 -0.6262 -0.3772
  325MOL0     O43748   7.308   2.686   7.881  0.0370  0.3411 -0.0883
  325MOL0     C43749   7.329   2.723   7.748 -0.6008 -0.2837 -0.1286
  325MOL0     C43750   7.195   2.704   7.671 -0.0053  0.4637 -1.1580
  325MOL0     C43751   7.086   2.778   7.750  0.7162  0.3229  0.6321
  325MOL0     C43752   6.948   2.756   7.688 -0.3255  0.1608  0.0852
  325MOL0     C43753   6.896   2.613   7.727 -0.1008 -0.9474 -0.5381
  325MOL0     C43754   6.750   2.621   7.690  0.4070 -0.3894 -0.5175
  325MOL0     C43755   6.695   2.478   7.724 -0.2200  0.1757 -0.4552
  325MOL0     C43756   6.547   2.457   7.692  0.0639  0.7617 -0.5868
  325MOL0     N43757   6.456   2.514   7.787 -0.6802 -0.0775  0.0390
  325MOL0     C43758   6.407   2.459   7.910 -0.5018 -0.4252 -0.1921
  325MOL0     C43759   6.321   2.542   7.967  0.7119  0.8487 -0.3353
  325MOL0     C43760   6.231   2.512   8.082  0.3902 -0.5054  0.0472
  325MOL0     C43761   6.294   2.455   8.217 -0.0657 -0.0545 -0.0444
  325MOL0     C43762   6.198   2.381   8.314 -0.6386 -0.1121 -0.9938
  325MOL0     C43763   6.073   2.465   8.356  0.5383  0.2490 -0.3102
  325MOL0     O43764   5.997   2.397   8.461 -0.0900  0.0068  1.3317
  325MOL0     C43765   5.858   2.405   8.464 -0.4618  0.2330 -0.0105
  325MOL0     C43766   5.795   2.350   8.579  0.2950 -0.4401  0.1786
  325MOL0     C43767   5.656   2.369   8.604 -0.4799 -0.1041  0.3825
  325MOL0     C43768   5.597   2.319   8.732 -0.9066 -0.3425  0.4024
  325MOL0     C43769   5.568   2.424   8.506 -0.5525 -0.8411  0.5008
  325MOL0     C43770   5.417   2.429   8.502  0.2713 -0.4467  0.8491
  325MOL0     O43771   5.353   2.475   8.390 -0.2381  0.3253 -0.4829
  325MOL0     C43772   5.228   2.530   8.404 -0.5078  0.1598  0.7898
  325MOL0     C43773   5.117   2.475   8.344 -0.0313 -0.5779  1.0434
  325MOL0     C43774   4.995   2.545   8.331  0.3886  0.1725  0.9502
  325MOL0     C43775   4.979   2.663   8.402  0.5970  0.6002  0.2865
  325MOL0     O43776   4.851   2.731   8.407 -0.2540  0.1570  0.0820
  325MOL0     C43777   4.842   2.861   8.463 -0.6264  0.3373  1.2067
  325MOL0     C43778   4.697   2.903   8.484 -0.8129 -0.0512  0.1888
  325MOL0     C43779   4.628   2.814   8.587 -0.2985 -0.3210 -1.0539
  325MOL0     C43780   4.675   2.841   8.739 -0.3247 -1.5641 -0.9318
  325MOL0     C43781   4.573   2.939   8.795 -0.6057  0.6432  1.2818
  325MOL0     C43782   4.591   2.944   8.945  0.0247 -0.8412 -0.2136
  325MOL0     C43783   4.517   3.056   9.009  0.4163  0.2384 -0.3783
  325MOL0     C43784   4.497   3.022   9.163  0.5111 -0.3871 -0.4340
  325MOL0    Cl43785   4.395   2.878   9.185  0.2646  0.1200  0.3666
  325MOL0     C43786   5.091   2.725   8.459 -0.8054  0.8188 -0.1073
  325MOL0     C43787   5.216   2.660   8.457  0.0719 -0.2652  1.1187
  325MOL0     O43788   5.357   2.397   8.600 -0.4279 -0.5844  0.2116
  325MOL0     C43789   5.639   2.479   8.400  0.3406 -0.0097  0.6085
  325MOL0     C43790   5.778   2.477   8.384  0.0928 -0.9729  0.7791
  325MOL0     N43791   6.329   2.653   7.885 -0.5889  0.1254 -0.4106
  325MOL0     N43792   6.419   2.645   7.793  0.8372 -0.3298  0.1907
  325MOL0     C43793   7.439   2.490   7.935  0.3754  0.1807 -0.0777
  325MOL0     C43794   7.564   2.449   7.973  0.3526 -0.9646 -0.2470
  325MOL0     C43795   8.019   2.442   8.012 -0.2428  0.8596 -0.0632
  325MOL0     C43796   8.133   2.459   7.936  0.1896 -0.4342 -0.3187
  325MOL0     C43797   8.253   2.410   7.990  0.5480 -0.1206 -0.7951
  325MOL0     C43798   8.256   2.340   8.120  0.0741 -0.5396  0.1721
  325MOL0     O43799   8.384   2.294   8.146 -0.3236  0.0101  0.4566
  325MOL0     C43800   8.404   2.177   8.219  0.5224 -0.2963 -0.9899
  325MOL0     C43801   8.553   2.142   8.232 -0.1749 -0.4649  0.8236
  325MOL0     C43802   8.574   2.009   8.319  0.2154  0.3824 -0.2697
  325MOL0     C43803   8.719   1.989   8.350  0.6656 -0.2196 -0.3384
  325MOL0     C43804   8.813   1.981   8.237  0.1909  0.1064 -0.0143
  325MOL0     C43805   8.882   1.992   8.143 -0.2901 -0.3378 -0.8976
  325MOL0     C43806   8.137   2.323   8.183 -0.5346  0.2538  0.3501
  325MOL0     C43807   8.021   2.364   8.125 -0.1022  0.2278 -1.3099
  325MOL0     H43808   7.705   2.729   8.098  0.8740  0.0790  0.2668
  325MOL0     H43809   7.470   2.812   8.045 -3.5442 -0.8950 -0.0078
  325MOL0     H43810   7.338   2.831   7.765 -1.1857 -0.2316 -0.1062
  325MOL0     H43811   7.408   2.677   7.689  0.2873 -0.2808  1.0274
  325MOL0     H43812   7.196   2.755   7.574  0.7107  3.0219  0.1119
  325MOL0     H43813   7.178   2.599   7.647  3.1444 -0.5119  0.3945
  325MOL0     H43814   7.081   2.738   7.852 -2.2921 -3.6650 -0.8291
  325MOL0     H43815   7.115   2.884   7.749  0.2515  0.4512  0.1782
  325MOL0     H43816   6.882   2.836   7.723  0.9519  1.0020  0.6649
  325MOL0     H43817   6.960   2.755   7.579 -1.2961  1.5811 -0.0647
  325MOL0     H43818   6.937   2.525   7.676  1.2101 -1.2561  0.9770
  325MOL0     H43819   6.914   2.604   7.834  0.0680 -1.4965 -0.6082
  325MOL0     H43820   6.689   2.696   7.742  0.9794 -0.2631 -0.0118
  325MOL0     H43821   6.743   2.638   7.583  4.1742 -0.0178 -0.8480
  325MOL0     H43822   6.747   2.409   7.657  1.0678 -0.0419  0.7338
  325MOL0     H43823   6.709   2.447   7.828 -2.0248  1.1236  0.1255
  325MOL0     H43824   6.539   2.348   7.696 -0.6537  0.7711 -1.4024
  325MOL0     H43825   6.532   2.489   7.589  2.0100  0.6147 -0.9498
  325MOL0     H43826   6.412   2.356   7.945 -1.1348 -0.4898 -0.2784
  325MOL0     H43827   6.178   2.604   8.107 -0.5492 -0.9371 -0.2993
  325MOL0     H43828   6.153   2.443   8.047 -0.9882  1.0089  0.0136
  325MOL0     H43829   6.356   2.533   8.262  2.5910 -0.9861 -1.7790
  325MOL0     H43830   6.365   2.373   8.198  0.4590  0.5372 -0.7279
  325MOL0     H43831   6.259   2.348   8.398 -0.4504 -0.2212 -1.1715
  325MOL0     H43832   6.152   2.294   8.266 -2.0576  0.2870 -0.4238
  325MOL0     H43833   6.020   2.495   8.265  0.0681 -0.3446 -0.2412
  325MOL0     H43834   6.111   2.556   8.401 -1.6616  0.4688  1.2496
  325MOL0     H43835   5.855   2.301   8.655 -2.4514 -0.7946  2.2772
  325MOL0     H43836   5.679   2.287   8.797  1.5323  5.0852  0.5346
  325MOL0     H43837   5.557   2.410   8.778 -0.5748 -0.9445  1.9115
  325MOL0     H43838   5.516   2.247   8.717 -0.8363 -0.6553  1.4485
  325MOL0     H43839   5.136   2.381   8.293 -0.6329  0.2932 -0.8768
  325MOL0     H43840   4.914   2.490   8.285 -0.7225  1.4765  1.3040
  325MOL0     H43841   4.891   2.854   8.561  0.6952  0.6518  0.5804
  325MOL0     H43842   4.899   2.933   8.403 -1.4459  0.4269  0.5113
  325MOL0     H43843   4.698   3.006   8.522  0.4809 -0.2422  0.7273
  325MOL0     H43844   4.641   2.899   8.390 -2.1861 -0.8275  0.9981
  325MOL0     H43845   4.656   2.709   8.576  1.9961 -0.2578  2.4288
  325MOL0     H43846   4.519   2.815   8.588 -0.4085 -1.8585  1.8553
  325MOL0     H43847   4.660   2.745   8.789 -2.7385 -0.0672  1.5024
  325MOL0     H43848   4.776   2.876   8.761 -1.2055 -0.1881  1.1884
  325MOL0     H43849   4.471   2.908   8.769 -0.2177 -0.0652  0.5666
  325MOL0     H43850   4.596   3.040   8.758  0.3820 -0.0202 -0.0132
  325MOL0     H43851   4.570   2.843   8.983  0.2426 -1.1225 -0.8203
  325MOL0     H43852   4.698   2.950   8.963 -0.2021 -0.5476  1.1513
  325MOL0     H43853   4.417   3.064   8.965 -0.6741  1.2931  2.1312
  325MOL0     H43854   4.565   3.154   9.003 -1.6322  1.2144 -1.9603
  325MOL0     H43855   4.453   3.112   9.208  2.0314 -0.2101  0.7958
  325MOL0     H43856   4.591   2.994   9.211 -0.6742 -3.5570  0.2884
  325MOL0     H43857   5.091   2.813   8.523  2.5700  0.3244  0.7733
  325MOL0     H43858   5.298   2.710   8.509  0.4795 -0.2379  0.4595
  325MOL0     H43859   5.591   2.518   8.311  2.6758  1.2050 -0.2064
  325MOL0     H43860   5.825   2.530   8.302  3.7647 -4.3870  0.3679
  325MOL0     H43861   7.363   2.422   7.897  1.1986  0.1656 -1.7747
  325MOL0     H43862   7.592   2.346   7.957  2.4441 -0.7754  1.6134
  325MOL0     H43863   8.156   2.502   7.839  0.4355  0.1097 -0.0212
  325MOL0     H43864   8.349   2.432   7.945  1.4327 -3.7140 -0.9458
  325MOL0     H43865   8.355   2.183   8.316  1.7450 -1.3478 -0.2618
  325MOL0     H43866   8.352   2.093   8.172 -0.3650 -0.1176 -0.3469
  325MOL0     H43867   8.600   2.231   8.274  0.0239 -0.4370  0.5471
  325MOL0     H43868   8.594   2.122   8.132 -2.1461  1.6736 -0.5134
  325MOL0     H43869   8.533   1.919   8.271 -0.2063  0.7655 -0.6350
  325MOL0     H43870   8.528   2.031   8.415  0.2725 -0.5865 -0.0126
  325MOL0     H43871   8.715   1.899   8.412 -0.3476 -0.5719 -0.9046
  325MOL0     H43872   8.748   2.071   8.417 -2.5533 -1.7879  3.3197
  325MOL0     H43873   8.956   2.028   8.073  1.0106  0.8646  1.0000
  325MOL0     H43874   8.141   2.253   8.267 -0.6777  0.7048  0.7362
  325MOL0     H43875   7.933   2.337   8.183 -0.1076 -3.9921 -2.9396
  326MOL0     O43876  11.344  10.322   2.647  0.2939 -0.2732  0.2843
  326MOL0     C43877  11.358  10.427   2.719  0.1152 -0.0903  0.6896
  326MOL0     O43878  11.253  10.496   2.770 -0.6318  0.0516  0.4094
  326MOL0     C43879  11.125  10.476   2.730  0.5906  0.0053  0.1439
  326MOL0     C43880  11.020  10.513   2.818 -0.2806  0.9395  1.0590
  326MOL0     C43881  10.882  10.506   2.771 -0.3867  0.3283  0.5021
  326MOL0     C43882  10.842  10.459   2.638  0.4113  0.2553 -0.2879
  326MOL0     O43883  10.716  10.439   2.584  0.0806 -0.1908  0.4108
  326MOL0     C43884  10.623  10.539   2.630  0.1199 -0.1424  0.2065
  326MOL0     C43885  10.498  10.529   2.540 -0.5152  0.3324  1.0216
  326MOL0     C43886  10.541  10.580   2.402  0.2007 -0.3936 -0.5889
  326MOL0     C43887  10.407  10.609   2.330  1.0822  0.3931  0.2290
  326MOL0     C43888  10.442  10.668   2.191  0.3803 -0.3368 -0.5590
  326MOL0     C43889  10.462  10.819   2.206  0.3555  1.3718 -0.8010
  326MOL0     C43890  10.484  10.874   2.062  0.5162  0.3159 -0.5576
  326MOL0     C43891  10.507  11.026   2.072 -0.4508 -0.1988  0.8293
  326MOL0     N43892  10.388  11.096   2.115  0.4163 -0.4352 -0.9329
  326MOL0     C43893  10.379  11.177   2.226  0.2163 -0.3820 -0.1648
  326MOL0     C43894  10.268  11.252   2.214 -1.2450 -0.0977 -1.3594
  326MOL0     C43895  10.206  11.333   2.327  0.1637  0.0322 -0.0723
  326MOL0     C43896  10.109  11.445   2.287 -0.1224 -0.1849 -0.3427
  326MOL0     C43897  10.111  11.572   2.382 -0.8415 -0.8128  0.6534
  326MOL0     C43898   9.991  11.661   2.360  0.6245 -0.2756  0.1102
  326MOL0     O43899  10.011  11.777   2.446  1.0347  0.7825 -0.7325
  326MOL0     C43900   9.900  11.783   2.526  0.2169 -0.1444 -0.4949
  326MOL0     C43901   9.771  11.812   2.483  0.8816 -1.0376  0.0423
  326MOL0     C43902   9.664  11.807   2.568  0.6424 -0.0697  1.8206
  326MOL0     C43903   9.526  11.833   2.511  0.2423 -0.8060  0.6057
  326MOL0     C43904   9.692  11.793   2.711  0.0852  0.2750 -0.3947
  326MOL0     C43905   9.593  11.821   2.816 -0.7544 -0.0261 -0.1871
  326MOL0     O43906   9.591  11.736   2.923 -0.6537 -0.0910 -0.1300
  326MOL0     C43907   9.482  11.743   3.016 -0.1881  0.1383 -0.0927
  326MOL0     C43908   9.427  11.858   3.072  1.0480 -0.9187  0.2891
  326MOL0     C43909   9.322  11.860   3.169 -1.3302 -0.5070 -0.0478
  326MOL0     C43910   9.281  11.743   3.226  0.5405  0.1873  0.1062
  326MOL0     O43911   9.178  11.746   3.324  0.0547  0.1592 -0.9656
  326MOL0     C43912   9.052  11.818   3.304  0.7045  0.1316 -0.2039
  326MOL0     C43913   8.951  11.733   3.215 -0.2034 -0.5286 -0.0029
  326MOL0     C43914   8.919  11.600   3.294  0.2209 -0.2497  0.2806
  326MOL0     C43915   8.977  11.482   3.208 -0.3390  0.5439  0.6517
  326MOL0     C43916   8.978  11.355   3.280  0.7386 -0.6531  0.4165
  326MOL0     C43917   9.021  11.246   3.167 -1.1456 -0.2996 -0.5258
  326MOL0     C43918   9.021  11.103   3.218  0.0407 -0.6575  0.3176
  326MOL0     C43919   9.073  11.013   3.110 -0.2416  1.4052 -1.0169
  326MOL0    Cl43920   8.961  10.959   2.988  0.0297 -0.3106  0.4503
  326MOL0     C43921   9.348  11.627   3.179 -0.0071  0.0938  0.7835
  326MOL0     C43922   9.437  11.627   3.069 -1.3827  0.1472  0.4575
  326MOL0     O43923   9.507  11.903   2.786  0.8167 -0.6161 -0.3411
  326MOL0     C43924   9.825  11.782   2.752  0.0641  0.6934  0.3046
  326MOL0     C43925   9.928  11.773   2.663  0.4101  0.5363  0.0567
  326MOL0     N43926  10.215  11.229   2.092 -0.0279  0.7149 -0.0142
  326MOL0     N43927  10.295  11.140   2.032  0.5871  0.7287 -0.6567
  326MOL0     C43928  10.954  10.432   2.552 -0.1793  0.0157  0.2214
  326MOL0     C43929  11.088  10.440   2.599  0.4823  0.4216  0.0895
  326MOL0     C43930  11.492  10.459   2.767 -0.3040 -0.6497  0.1138
  326MOL0     C43931  11.601  10.420   2.686 -0.6324 -0.2865  0.8049
  326MOL0     C43932  11.730  10.464   2.716 -0.0669  0.7713 -0.5807
  326MOL0     C43933  11.749  10.552   2.820 -0.3399 -0.2508 -0.6708
  326MOL0     O43934  11.883  10.579   2.846  0.2012  0.7232  0.9879
  326MOL0     C43935  11.918  10.685   2.924  0.1047 -0.1080 -0.3617
  326MOL0     C43936  12.021  10.768   2.848 -0.8063  0.4138 -0.3907
  326MOL0     C43937  11.969  10.820   2.715 -0.4913  0.2035 -0.4465
  326MOL0     C43938  12.037  10.948   2.669  0.9225 -0.1970  0.2981
  326MOL0     C43939  11.950  11.064   2.706  0.1547  0.2900  0.2353
  326MOL0     C43940  11.879  11.159   2.748  0.5785  1.5196 -0.6623
  326MOL0     C43941  11.637  10.588   2.894  0.5737  0.1475  0.9276
  326MOL0     C43942  11.514  10.543   2.870  0.6228  0.0812 -0.1871
  326MOL0     H43943  11.029  10.558   2.916 -0.3536  2.0301  0.5745
  326MOL0     H43944  10.808  10.537   2.844  0.0788  0.2563  1.0046
  326MOL0     H43945  10.603  10.516   2.735 -1.2568 -1.2617 -0.2695
  326MOL0     H43946  10.679  10.633   2.626  1.1378 -0.7124  0.8134
  326MOL0     H43947  10.475  10.423   2.528  1.7895 -0.1584  0.3142
  326MOL0     H43948  10.415  10.579   2.590  1.0145  0.8514  3.1879
  326MOL0     H43949  10.614  10.661   2.414  0.4270 -0.3659 -2.0429
  326MOL0     H43950  10.590  10.490   2.362  1.1031 -1.7521  3.1523
  326MOL0     H43951  10.339  10.523   2.335  0.4272  0.9605  1.6103
  326MOL0     H43952  10.346  10.676   2.390 -0.6297 -0.7595 -0.1213
  326MOL0     H43953  10.526  10.622   2.139  0.7006 -0.4036  0.0204
  326MOL0     H43954  10.355  10.643   2.129 -0.5819 -0.9357  0.9853
  326MOL0     H43955  10.392  10.874   2.269  1.1400  1.8447 -0.3173
  326MOL0     H43956  10.559  10.818   2.258  0.4050 -0.5175 -0.8410
  326MOL0     H43957  10.578  10.829   2.027  1.0460  0.3754  0.7204
  326MOL0     H43958  10.400  10.850   1.998 -1.3579  1.7692  1.2046
  326MOL0     H43959  10.537  11.062   1.973 -0.7873  1.3397  1.2505
  326MOL0     H43960  10.601  11.046   2.125  0.5875  1.2396 -1.3890
  326MOL0     H43961  10.435  11.162   2.318  0.4302  1.2034 -0.0155
  326MOL0     H43962  10.160  11.270   2.404 -2.9984  1.6140 -0.4873
  326MOL0     H43963  10.289  11.378   2.383  0.6899 -0.3149 -0.5597
  326MOL0     H43964  10.009  11.405   2.302  0.1267 -0.2045  1.5440
  326MOL0     H43965  10.128  11.475   2.183 -1.7223 -0.3562 -0.7080
  326MOL0     H43966  10.196  11.636   2.357 -0.9647 -1.2414 -0.9885
  326MOL0     H43967  10.112  11.543   2.488 -4.3837 -1.2879  0.6513
  326MOL0     H43968   9.909  11.593   2.386  1.6910 -1.5706  0.1936
  326MOL0     H43969   9.979  11.695   2.257 -0.9268  1.2713  0.7447
  326MOL0     H43970   9.763  11.829   2.376  2.7826 -0.1397 -0.0163
  326MOL0     H43971   9.481  11.931   2.529 -0.3373 -0.6096 -1.6594
  326MOL0     H43972   9.529  11.825   2.402  2.6905  0.1183  0.5397
  326MOL0     H43973   9.443  11.777   2.556  0.6581 -1.2486  0.8296
  326MOL0     H43974   9.445  11.956   3.030 -1.8195 -0.3096  0.2383
  326MOL0     H43975   9.271  11.951   3.199  0.1607  0.3555  0.0184
  326MOL0     H43976   8.999  11.824   3.400  1.1189 -0.5922  0.0802
  326MOL0     H43977   9.054  11.922   3.271 -1.9670 -0.2466 -1.9005
  326MOL0     H43978   8.852  11.777   3.201 -1.9204 -4.4708 -1.7251
  326MOL0     H43979   9.007  11.715   3.123 -0.0129 -0.5765  0.1205
  326MOL0     H43980   8.811  11.587   3.309 -0.1376  1.3626 -0.6665
  326MOL0     H43981   8.971  11.605   3.390 -0.7152 -1.6349  0.8971
  326MOL0     H43982   8.913  11.479   3.120  0.9782 -0.7977 -0.3053
  326MOL0     H43983   9.081  11.493   3.174 -0.0572 -2.1551  0.4556
  326MOL0     H43984   8.877  11.330   3.314 -0.5698  3.3685 -0.0753
  326MOL0     H43985   9.053  11.342   3.358  2.3175 -1.4889 -1.1580
  326MOL0     H43986   8.934  11.245   3.101 -0.8956 -2.7558 -0.9284
  326MOL0     H43987   9.115  11.274   3.117 -1.0720  1.3255  0.4453
  326MOL0     H43988   8.917  11.069   3.224  0.4821 -1.7774  2.3902
  326MOL0     H43989   9.078  11.094   3.310  1.8365 -2.5758 -0.8882
  326MOL0     H43990   9.125  10.928   3.155 -1.8728  1.4487  1.0844
  326MOL0     H43991   9.151  11.062   3.051  1.7951 -0.3128  0.1262
  326MOL0     H43992   9.319  11.534   3.228 -0.1553 -0.4916 -0.3608
  326MOL0     H43993   9.467  11.530   3.030  2.7972  1.2457  0.5588
  326MOL0     H43994   9.836  11.789   2.860  0.1440 -2.7457  0.6109
  326MOL0     H43995  10.034  11.774   2.687  0.8739  3.0582 -1.6207
  326MOL0     H43996  10.933  10.397   2.452 -3.3888  0.9534  0.4528
  326MOL0     H43997  11.162  10.437   2.520 -1.8686  2.5884 -2.3931
  326MOL0     H43998  11.594  10.347   2.607 -0.2386 -2.0797  2.3548
  326MOL0     H43999  11.815  10.417   2.669  2.1601  2.2234  1.7146
  326MOL0     H44000  11.830  10.750   2.931 -0.4405 -0.8104 -0.5806
  326MOL0     H44001  11.964  10.647   3.016  1.5460 -0.4857 -1.2207
  326MOL0     H44002  12.109  10.703   2.850 -2.5400 -2.0572  0.5293
  326MOL0     H44003  12.045  10.853   2.912 -2.0136  0.6593 -0.2262
  326MOL0     H44004  11.860  10.829   2.715 -0.4187  1.5147 -2.0320
  326MOL0     H44005  11.982  10.746   2.635 -1.0792 -0.4382  0.0355
  326MOL0     H44006  12.049  10.951   2.560  4.2901  1.9291  0.5891
  326MOL0     H44007  12.134  10.959   2.718  0.7157  1.8245  0.3278
  326MOL0     H44008  11.825  11.243   2.788  1.9388  2.5151 -0.8389
  326MOL0     H44009  11.649  10.640   2.989  2.0013  4.7205 -1.4807
  326MOL0     H44010  11.433  10.574   2.935  1.1111  0.0562  0.4434
  327MOL0     O44011   2.233   4.217   0.866 -0.1422  0.3980 -0.3772
  327MOL0     C44012   2.231   4.292   0.771  0.8126 -0.5338  0.5547
  327MOL0     O44013   2.124   4.307   0.692  0.3664  0.0465 -0.7871
  327MOL0     C44014   1.992   4.271   0.734  0.2405 -0.0924 -0.2808
  327MOL0     C44015   1.909   4.265   0.624  0.4705 -0.4578  0.4390
  327MOL0     C44016   1.773   4.251   0.646  0.0970 -0.9286  0.4556
  327MOL0     C44017   1.719   4.238   0.778 -0.3257 -0.4788  0.3595
  327MOL0     O44018   1.595   4.208   0.813  0.9033  0.1912 -0.1872
  327MOL0     C44019   1.483   4.269   0.739  0.6773 -0.0075 -0.1505
  327MOL0     C44020   1.346   4.207   0.766  0.1625 -0.0534 -1.0518
  327MOL0     C44021   1.307   4.101   0.672 -0.2141  0.6735  0.1068
  327MOL0     C44022   1.163   4.063   0.694 -0.5540 -0.0727 -0.0209
  327MOL0     C44023   1.106   3.956   0.594  0.9210 -0.0308 -0.6515
  327MOL0     C44024   1.128   3.807   0.623 -0.3102  1.0885  0.6789
  327MOL0     C44025   1.039   3.761   0.740 -0.5717  0.4196 -1.1435
  327MOL0     C44026   1.069   3.618   0.797  0.0067  0.2011  0.3498
  327MOL0     N44027   1.200   3.605   0.871 -0.9808  0.1121  0.1957
  327MOL0     C44028   1.244   3.695   0.958 -0.3781  0.1688  0.0818
  327MOL0     C44029   1.369   3.664   0.978  0.3997 -0.4975 -1.0587
  327MOL0     C44030   1.462   3.743   1.065 -0.1646 -0.6235 -0.7597
  327MOL0     C44031   1.421   3.888   1.077 -0.7715  0.5640  0.2498
  327MOL0     C44032   1.501   3.951   1.193 -0.1938  0.7797  0.7489
  327MOL0     C44033   1.656   3.963   1.173  0.6418 -0.4548 -0.5253
  327MOL0     O44034   1.730   3.923   1.292  0.1810 -0.7220  0.3460
  327MOL0     C44035   1.860   3.964   1.295 -0.5784 -0.3497  0.2153
  327MOL0     C44036   1.931   3.918   1.410  0.5124 -0.5741 -0.2432
  327MOL0     C44037   2.070   3.931   1.425  0.5490  0.0132 -0.8360
  327MOL0     C44038   2.131   3.865   1.547 -0.1094 -0.7654  0.9881
  327MOL0     C44039   2.144   3.985   1.315  0.9291 -0.5815 -1.0709
  327MOL0     C44040   2.286   4.016   1.317 -0.2252 -0.5463 -1.2594
  327MOL0     O44041   2.370   3.964   1.214  0.0529  0.7792  0.6922
  327MOL0     C44042   2.499   4.015   1.202 -0.2904  0.2457  0.5989
  327MOL0     C44043   2.586   4.003   1.308 -0.3953  0.6614 -0.3949
  327MOL0     C44044   2.726   4.028   1.300  0.3304  0.3190 -0.1450
  327MOL0     C44045   2.773   4.066   1.175  0.2836 -0.4306 -0.8945
  327MOL0     O44046   2.901   4.120   1.164  0.5466 -0.6502  0.3119
  327MOL0     C44047   2.995   4.089   1.263 -0.1797 -0.6424  0.7577
  327MOL0     C44048   3.046   3.949   1.255  0.5924 -0.4552 -0.4241
  327MOL0     C44049   3.131   3.923   1.129  0.6688  0.5019  0.4670
  327MOL0     C44050   3.219   3.803   1.128  0.0762 -0.0124  0.0454
  327MOL0     C44051   3.297   3.798   0.988 -0.0367 -0.8191 -0.9718
  327MOL0     C44052   3.363   3.662   0.973  0.1130 -0.4811  0.1550
  327MOL0     C44053   3.422   3.664   0.826 -1.0328 -0.3625  0.3425
  327MOL0     C44054   3.494   3.539   0.779 -1.2991 -0.1041  0.3288
  327MOL0    Cl44055   3.659   3.534   0.857 -0.1928 -0.1569  0.1227
  327MOL0     C44056   2.682   4.072   1.067 -0.7109  0.4599  0.2185
  327MOL0     C44057   2.543   4.051   1.079 -0.0764 -0.2012 -0.0141
  327MOL0     O44058   2.317   4.084   1.414 -0.2615  0.0123 -0.0611
  327MOL0     C44059   2.069   4.037   1.211 -0.0275 -0.3227  0.3860
  327MOL0     C44060   1.926   4.038   1.199 -0.2609  0.3366  0.4318
  327MOL0     N44061   1.402   3.560   0.901 -0.1658  0.4782 -0.9048
  327MOL0     N44062   1.305   3.533   0.830 -0.4634 -0.2932  0.9615
  327MOL0     C44063   1.813   4.241   0.885 -0.4702 -0.6086 -0.4267
  327MOL0     C44064   1.947   4.251   0.863 -0.7596  0.0765 -0.3213
  327MOL0     C44065   2.347   4.378   0.746  0.6103 -1.1979 -0.4783
  327MOL0     C44066   2.345   4.487   0.659  0.3926  0.0220  0.5365
  327MOL0     C44067   2.456   4.552   0.617 -0.3159  0.3334  0.1901
  327MOL0     C44068   2.584   4.505   0.655  0.4161 -0.6452 -1.1810
  327MOL0     O44069   2.700   4.565   0.603  0.1692  0.1317  0.6160
  327MOL0     C44070   2.830   4.500   0.630 -0.5185  0.1174 -0.1391
  327MOL0     C44071   2.924   4.581   0.540 -0.0187 -1.3290  0.4798
  327MOL0     C44072   3.061   4.508   0.518 -0.4559 -0.8845  0.1056
  327MOL0     C44073   3.163   4.555   0.620 -0.2608  0.2327  0.6897
  327MOL0     C44074   3.215   4.686   0.586  0.2112  0.2614  0.0553
  327MOL0     C44075   3.248   4.801   0.561  0.8774 -0.1648  0.1189
  327MOL0     C44076   2.588   4.392   0.751  0.1186 -0.4275 -0.0426
  327MOL0     C44077   2.464   4.348   0.806 -1.0957  1.1942  0.6585
  327MOL0     H44078   1.955   4.257   0.526  0.8485 -2.2261  0.7235
  327MOL0     H44079   1.699   4.234   0.569 -0.1601 -0.9061  0.6963
  327MOL0     H44080   1.485   4.378   0.735  3.3918 -0.0242 -1.3368
  327MOL0     H44081   1.496   4.238   0.635 -2.7270  0.5563 -0.8635
  327MOL0     H44082   1.354   4.169   0.869  2.9385  1.8570 -0.4538
  327MOL0     H44083   1.266   4.281   0.771 -2.0769 -2.0870 -3.6358
  327MOL0     H44084   1.317   4.147   0.573 -1.9740  0.7864 -0.0401
  327MOL0     H44085   1.366   4.009   0.678  0.9172  1.2742 -1.1484
  327MOL0     H44086   1.155   4.028   0.797 -1.4128 -0.4960 -0.2186
  327MOL0     H44087   1.106   4.156   0.677 -2.7395 -1.3814 -0.2339
  327MOL0     H44088   1.003   3.988   0.572  1.5361  1.4874 -1.4864
  327MOL0     H44089   1.163   3.967   0.501  0.7154  3.1591 -0.5181
  327MOL0     H44090   1.099   3.755   0.532 -3.1621  0.1807  1.9958
  327MOL0     H44091   1.235   3.791   0.641 -0.7125 -3.2488  0.1675
  327MOL0     H44092   1.051   3.843   0.812  0.5763 -1.5885  1.1144
  327MOL0     H44093   0.944   3.755   0.687 -0.5536 -0.2366 -1.1006
  327MOL0     H44094   1.062   3.553   0.710 -2.8538 -0.3624  0.9128
  327MOL0     H44095   0.997   3.576   0.868  1.3396 -0.6021  1.2772
  327MOL0     H44096   1.177   3.770   0.999 -0.8290  1.4725 -2.7874
  327MOL0     H44097   1.464   3.692   1.162 -0.7763 -1.1578 -1.0167
  327MOL0     H44098   1.561   3.731   1.019  0.0740  0.1946 -0.4651
  327MOL0     H44099   1.315   3.888   1.103 -0.6607  1.1370  0.7352
  327MOL0     H44100   1.437   3.938   0.981 -2.8944  0.7458 -0.0619
  327MOL0     H44101   1.484   3.885   1.279 -0.0734  1.3464  1.2110
  327MOL0     H44102   1.458   4.047   1.220 -0.8705  1.2952 -1.9076
  327MOL0     H44103   1.673   4.069   1.149  0.1208  0.6770  3.3105
  327MOL0     H44104   1.696   3.908   1.088 -1.4223 -3.4282  0.2588
  327MOL0     H44105   1.864   3.853   1.465 -2.7347  0.1627 -2.9802
  327MOL0     H44106   2.213   3.918   1.597  0.0897 -1.4821  1.4434
  327MOL0     H44107   2.048   3.841   1.614  0.3548 -1.3966  1.3363
  327MOL0     H44108   2.174   3.774   1.504  1.6438  0.5133 -0.0935
  327MOL0     H44109   2.556   3.953   1.399  0.0685  0.3885 -0.3869
  327MOL0     H44110   2.787   4.018   1.389 -0.0669  1.1009  0.2213
  327MOL0     H44111   3.085   4.150   1.247 -0.0245 -0.5721  1.8704
  327MOL0     H44112   2.957   4.108   1.363  0.1953  1.9955  0.4638
  327MOL0     H44113   3.110   3.930   1.341  0.6295  0.0132 -0.3438
  327MOL0     H44114   2.958   3.883   1.252 -1.9589  2.7015 -1.1239
  327MOL0     H44115   3.200   4.006   1.121  1.1395 -0.0111 -1.0742
  327MOL0     H44116   3.067   3.923   1.040  2.3926 -0.2686 -0.8414
  327MOL0     H44117   3.288   3.797   1.213 -1.8094 -1.9127  1.5459
  327MOL0     H44118   3.162   3.710   1.141  2.0200 -1.2393  0.1895
  327MOL0     H44119   3.376   3.874   0.990  0.5605 -1.4348  0.8080
  327MOL0     H44120   3.219   3.808   0.912 -0.0293 -0.2237 -0.9078
  327MOL0     H44121   3.440   3.665   1.051 -2.3949  1.6943  2.7437
  327MOL0     H44122   3.284   3.588   0.988  0.5974 -0.8380  1.0389
  327MOL0     H44123   3.484   3.750   0.799  1.4565 -2.1069  0.1062
  327MOL0     H44124   3.337   3.663   0.756 -2.6035 -2.5129  2.1186
  327MOL0     H44125   3.516   3.535   0.672  1.7909 -1.8971  0.9125
  327MOL0     H44126   3.432   3.452   0.802 -0.1984 -0.6496  1.3488
  327MOL0     H44127   2.731   4.109   0.977  1.2056  2.5464  1.9667
  327MOL0     H44128   2.474   4.061   0.996  1.9122  0.9014 -1.6249
  327MOL0     H44129   2.123   4.086   1.130 -1.8786 -0.4278 -0.9987
  327MOL0     H44130   1.883   4.079   1.108 -3.3089 -3.6573 -0.2117
  327MOL0     H44131   1.774   4.239   0.986  1.5543 -0.8421  0.4062
  327MOL0     H44132   2.017   4.262   0.946  0.1276  0.2238 -1.0737
  327MOL0     H44133   2.254   4.519   0.609  0.4221 -0.0581  0.4302
  327MOL0     H44134   2.438   4.637   0.553  1.6909 -1.0266 -2.3754
  327MOL0     H44135   2.857   4.502   0.736 -1.0395 -0.9901  0.0283
  327MOL0     H44136   2.836   4.395   0.601  2.6663 -0.2102  1.2684
  327MOL0     H44137   2.955   4.682   0.569  0.8917 -1.1075 -1.1332
  327MOL0     H44138   2.872   4.593   0.445 -0.8715  0.1290  1.0877
  327MOL0     H44139   3.089   4.527   0.414 -2.1247  1.5159  0.0088
  327MOL0     H44140   3.050   4.401   0.539 -0.7443 -0.2943  3.5946
  327MOL0     H44141   3.247   4.486   0.623  0.2574  0.6554 -1.8880
  327MOL0     H44142   3.117   4.567   0.719 -3.9046 -1.5112 -0.6209
  327MOL0     H44143   3.284   4.899   0.535 -1.0212  0.6253  0.2844
  327MOL0     H44144   2.677   4.345   0.792 -1.1665 -2.2433  0.7870
  327MOL0     H44145   2.473   4.270   0.882  0.5785  2.1722  1.5277
  328MOL0     O44146   5.836   2.840   4.629  0.0772  0.5983  0.6440
  328MOL0     C44147   5.767   2.735   4.616  1.0589  0.1428 -0.5152
  328MOL0     O44148   5.631   2.721   4.646  0.5609 -0.2032  0.0087
  328MOL0     C44149   5.555   2.814   4.712  0.3713 -0.4083  0.6903
  328MOL0     C44150   5.418   2.777   4.732  0.4642  0.7712 -0.3786
  328MOL0     C44151   5.329   2.862   4.810  0.6072 -0.5716  0.3032
  328MOL0     C44152   5.373   2.977   4.870 -1.3351  0.9769 -0.3450
  328MOL0     O44153   5.288   3.065   4.946 -0.5446  0.1854 -0.3916
  328MOL0     C44154   5.216   3.169   4.876 -1.1416 -0.2315  0.3306
  328MOL0     C44155   5.096   3.111   4.792  0.6057 -0.9163 -0.5951
  328MOL0     C44156   4.971   3.089   4.869 -0.5100  0.0628 -0.6506
  328MOL0     C44157   4.869   3.014   4.786  0.5234  0.1325 -0.2079
  328MOL0     C44158   4.751   2.971   4.876  0.0721  0.2409 -0.2837
  328MOL0     C44159   4.780   2.838   4.933 -0.0691  0.5662 -0.1449
  328MOL0     C44160   4.680   2.786   5.041 -0.4204  0.0189  0.3580
  328MOL0     C44161   4.544   2.750   4.981 -0.7205  0.6372 -0.4316
  328MOL0     N44162   4.531   2.601   4.951 -0.0889  0.1232 -0.2924
  328MOL0     C44163   4.451   2.522   5.031  1.1848  0.2201 -0.5627
  328MOL0     C44164   4.437   2.409   4.962  0.2878 -0.3086  1.3181
  328MOL0     C44165   4.346   2.284   4.975 -0.1745 -0.1137  0.7827
  328MOL0     C44166   4.291   2.250   5.112 -0.6018 -0.0541  0.4944
  328MOL0     C44167   4.400   2.234   5.215 -0.0664  0.3153 -0.0155
  328MOL0     C44168   4.519   2.147   5.172  0.2417 -0.5605  0.2684
  328MOL0     O44169   4.489   2.034   5.095  0.4393  0.2470 -0.1182
  328MOL0     C44170   4.408   1.939   5.146  1.2886 -0.0469  0.3932
  328MOL0     C44171   4.364   1.929   5.284  0.0934  0.0325  0.4461
  328MOL0     C44172   4.276   1.832   5.328 -0.8350  0.3570  0.3834
  328MOL0     C44173   4.229   1.841   5.470  0.3404  0.5896 -0.6304
  328MOL0     C44174   4.226   1.729   5.237 -1.3519  0.1735  0.1606
  328MOL0     C44175   4.133   1.625   5.267  0.0707 -0.0142  0.3432
  328MOL0     O44176   4.122   1.523   5.178  0.4619 -0.1904 -0.2742
  328MOL0     C44177   4.041   1.417   5.214  0.0503 -1.3146  1.0196
  328MOL0     C44178   4.088   1.295   5.177  0.2266  0.2325  0.6785
  328MOL0     C44179   4.009   1.179   5.191 -0.4595  0.6620  0.3163
  328MOL0     C44180   3.873   1.185   5.230 -0.4505 -0.2841  0.4337
  328MOL0     O44181   3.782   1.078   5.235 -0.2443 -0.4435 -0.8551
  328MOL0     C44182   3.839   0.949   5.233 -0.0795 -0.4778 -0.0053
  328MOL0     C44183   3.746   0.837   5.281  0.8156 -0.5076 -0.3572
  328MOL0     C44184   3.627   0.802   5.181  0.0018  0.6008 -0.2777
  328MOL0     C44185   3.555   0.684   5.239  0.9436 -0.1870  0.7847
  328MOL0     C44186   3.431   0.642   5.158  0.6941 -0.4805 -0.1808
  328MOL0     C44187   3.354   0.536   5.225 -0.2494  0.3364 -0.3835
  328MOL0     C44188   3.241   0.493   5.123  0.5855 -0.0054 -0.1624
  328MOL0     C44189   3.129   0.401   5.184  0.0437  0.4010  0.2226
  328MOL0    Cl44190   3.029   0.503   5.292  0.0010 -0.0742  0.0370
  328MOL0     C44191   3.820   1.310   5.255  0.9026  0.5213  0.2961
  328MOL0     C44192   3.903   1.426   5.245 -0.2452 -0.3375 -0.2265
  328MOL0     O44193   4.076   1.618   5.376  0.0778 -0.1693  0.0738
  328MOL0     C44194   4.287   1.729   5.111 -0.3900  0.3834  0.7256
  328MOL0     C44195   4.370   1.829   5.064  0.8556 -0.6970 -0.1517
  328MOL0     N44196   4.518   2.422   4.847 -0.8409  0.5537 -0.1303
  328MOL0     N44197   4.578   2.531   4.843  0.2111 -0.7683 -0.2451
  328MOL0     C44198   5.498   3.024   4.827 -0.5031  0.0866 -0.2942
  328MOL0     C44199   5.584   2.943   4.754 -1.1132 -0.1939  0.8103
  328MOL0     C44200   5.850   2.617   4.578 -0.2846 -0.5957  0.9023
  328MOL0     C44201   5.782   2.490   4.544 -0.6526 -0.0122 -1.0535
  328MOL0     C44202   5.848   2.380   4.504  0.4360 -0.7793 -0.0012
  328MOL0     C44203   5.987   2.375   4.489  0.2936  0.1749 -0.2898
  328MOL0     O44204   6.036   2.255   4.458 -0.9390  0.4451 -0.0350
  328MOL0     C44205   6.179   2.238   4.476  0.1444 -0.1871 -0.0864
  328MOL0     C44206   6.226   2.133   4.378  0.2753 -0.0485  0.1266
  328MOL0     C44207   6.161   1.986   4.388 -0.5961 -0.0940  1.1351
  328MOL0     C44208   6.202   1.920   4.528  0.1553  0.4311 -0.0047
  328MOL0     C44209   6.353   1.904   4.524 -0.2336 -0.3091 -0.1204
  328MOL0     C44210   6.470   1.925   4.523 -1.1514  0.4614  0.1985
  328MOL0     C44211   6.049   2.505   4.515 -0.0477  0.3765  0.1153
  328MOL0     C44212   5.986   2.624   4.551  0.8713 -0.0396  0.3531
  328MOL0     H44213   5.367   2.686   4.704  2.0082 -1.0310  2.2429
  328MOL0     H44214   5.227   2.832   4.834  1.2364 -1.0662  2.6181
  328MOL0     H44215   5.187   3.240   4.954 -0.3137 -1.0893  1.4421
  328MOL0     H44216   5.277   3.224   4.804 -0.5120  0.1734  1.1554
  328MOL0     H44217   5.087   3.191   4.719 -0.1836 -1.1582 -0.7650
  328MOL0     H44218   5.130   3.021   4.740  3.4108 -0.0943 -0.3748
  328MOL0     H44219   5.001   3.028   4.955  1.2535 -1.1026 -2.0081
  328MOL0     H44220   4.930   3.180   4.914 -0.3074  0.7205 -1.7749
  328MOL0     H44221   4.834   3.083   4.710  1.5099  1.8355  0.8337
  328MOL0     H44222   4.924   2.925   4.753  1.5871  0.5660  0.3656
  328MOL0     H44223   4.740   3.042   4.959  3.0914  0.5290  0.0023
  328MOL0     H44224   4.664   2.974   4.810 -1.5325 -0.6007  1.6813
  328MOL0     H44225   4.798   2.764   4.855  0.9801  0.4988  0.1427
  328MOL0     H44226   4.875   2.845   4.987 -1.0729 -2.8284  2.4176
  328MOL0     H44227   4.722   2.701   5.096  1.2013  1.0924  0.8506
  328MOL0     H44228   4.663   2.869   5.110  3.1768  1.6529 -0.4874
  328MOL0     H44229   4.545   2.801   4.884 -3.3046  0.8405 -0.4250
  328MOL0     H44230   4.455   2.779   5.037 -0.8641 -0.7274  0.0793
  328MOL0     H44231   4.389   2.544   5.117  3.0494  0.1197  0.8875
  328MOL0     H44232   4.261   2.314   4.914  0.5493  0.1426 -0.1214
  328MOL0     H44233   4.391   2.196   4.927  0.1980 -0.4607  1.7369
  328MOL0     H44234   4.232   2.158   5.119  2.1295 -2.0308 -0.7316
  328MOL0     H44235   4.227   2.336   5.135  1.9705  1.6220  1.8413
  328MOL0     H44236   4.354   2.213   5.312 -1.1667  1.5066 -0.2517
  328MOL0     H44237   4.450   2.329   5.237  2.1499 -1.5110  4.0158
  328MOL0     H44238   4.596   2.132   5.248  0.8503  0.7743 -0.0651
  328MOL0     H44239   4.573   2.211   5.102  0.1150  0.0933  0.7625
  328MOL0     H44240   4.402   2.002   5.354  0.7418  1.9093 -1.7230
  328MOL0     H44241   4.265   1.938   5.506 -1.4454  0.4981  1.6602
  328MOL0     H44242   4.121   1.853   5.485  0.7497  3.4454  0.9815
  328MOL0     H44243   4.270   1.753   5.519 -3.4065 -0.6376  0.6495
  328MOL0     H44244   4.191   1.293   5.143  0.3375  0.5582  0.9886
  328MOL0     H44245   4.054   1.085   5.161 -0.2980  1.5703 -2.6755
  328MOL0     H44246   3.867   0.930   5.129  2.0280 -1.3436  0.6587
  328MOL0     H44247   3.931   0.944   5.292  0.7136 -0.4289 -1.1968
  328MOL0     H44248   3.808   0.747   5.287 -0.3544 -1.4665 -1.9354
  328MOL0     H44249   3.704   0.869   5.377  1.6316 -0.4318 -0.0157
  328MOL0     H44250   3.665   0.773   5.082 -0.7841 -2.1135  0.1382
  328MOL0     H44251   3.558   0.887   5.177 -0.1506  0.5336  0.7095
  328MOL0     H44252   3.622   0.597   5.234 -0.4591 -1.2020 -2.2990
  328MOL0     H44253   3.534   0.706   5.344  2.1892 -2.9559  1.7061
  328MOL0     H44254   3.458   0.597   5.062 -2.4589 -3.3546  0.0886
  328MOL0     H44255   3.371   0.733   5.147  0.9056 -0.0681  1.6971
  328MOL0     H44256   3.423   0.455   5.249  1.6128  1.2317 -2.3641
  328MOL0     H44257   3.305   0.579   5.313 -0.2543 -1.6247  0.6397
  328MOL0     H44258   3.273   0.421   5.047 -1.3690  1.4638 -2.5190
  328MOL0     H44259   3.184   0.574   5.077  0.4531 -1.5707 -2.9707
  328MOL0     H44260   3.169   0.317   5.241  0.9517  0.2347 -0.6256
  328MOL0     H44261   3.073   0.346   5.108 -1.9329  1.0229  1.1594
  328MOL0     H44262   3.714   1.302   5.277  0.6639 -3.7453 -1.3974
  328MOL0     H44263   3.862   1.526   5.257  2.9697  1.0060  0.6771
  328MOL0     H44264   4.257   1.654   5.038  3.7407 -0.0762 -0.7719
  328MOL0     H44265   4.425   1.830   4.970  0.0938  2.7302 -0.6931
  328MOL0     H44266   5.533   3.121   4.861  1.5862 -1.1973  1.5289
  328MOL0     H44267   5.683   2.985   4.738 -1.7856  0.7070 -1.4822
  328MOL0     H44268   5.674   2.500   4.554 -0.3291  3.0122  0.8962
  328MOL0     H44269   5.774   2.303   4.486 -1.4300  0.5307  1.6853
  328MOL0     H44270   6.235   2.331   4.461 -1.8038  0.8281 -1.4233
  328MOL0     H44271   6.200   2.197   4.575 -0.3443 -1.6282 -0.5577
  328MOL0     H44272   6.329   2.131   4.414 -0.1299 -0.0867  1.3339
  328MOL0     H44273   6.233   2.169   4.275 -1.1720  0.7312  0.2670
  328MOL0     H44274   6.193   1.919   4.307 -2.0161 -1.0240  1.2995
  328MOL0     H44275   6.053   1.988   4.375 -0.5738 -2.5209  0.0107
  328MOL0     H44276   6.149   1.824   4.529 -1.4650  1.1293 -3.3432
  328MOL0     H44277   6.158   1.975   4.611  0.3156  0.4198  0.0889
  328MOL0     H44278   6.576   1.940   4.515 -1.5822  2.8153 -2.8375
  328MOL0     H44279   6.153   2.513   4.485 -0.3703 -0.4787 -1.3058
  328MOL0     H44280   6.047   2.711   4.570  2.3749 -0.8022 -0.7749
  329MOL0     O44281   1.047   2.574   5.924  0.1814  0.3414 -0.1905
  329MOL0     C44282   1.036   2.515   5.817  0.2733  0.1168  0.0591
  329MOL0     O44283   1.108   2.397   5.779  0.3846 -0.6642  0.0222
  329MOL0     C44284   1.196   2.352   5.872  0.2315 -0.5179 -0.5692
  329MOL0     C44285   1.338   2.370   5.871 -0.4235 -0.7287  0.8270
  329MOL0     C44286   1.421   2.306   5.958  0.1159 -0.0052 -0.0148
  329MOL0     C44287   1.367   2.215   6.052  0.3833 -0.0654 -0.5931
  329MOL0     O44288   1.430   2.139   6.144 -0.5043  0.1541  0.9464
  329MOL0     C44289   1.566   2.098   6.113 -0.8656  0.4225 -0.8376
  329MOL0     C44290   1.616   1.979   6.206 -0.2336  0.3501  0.4717
  329MOL0     C44291   1.530   1.851   6.174 -0.2979 -0.8017  0.4883
  329MOL0     C44292   1.560   1.759   6.054 -0.0323  0.4399 -0.5924
  329MOL0     C44293   1.475   1.786   5.928 -0.1111  0.6033  1.4094
  329MOL0     C44294   1.319   1.797   5.952 -0.2192 -0.8006 -1.0803
  329MOL0     C44295   1.229   1.785   5.827  0.3249 -1.1241 -0.4457
  329MOL0     C44296   1.227   1.909   5.742  0.2714 -0.7654 -0.0419
  329MOL0     N44297   1.118   1.907   5.644 -0.5327  0.1332  0.3249
  329MOL0     C44298   1.071   1.800   5.563  0.5664 -0.7013  0.0236
  329MOL0     C44299   0.952   1.850   5.512 -0.2148  0.4413  0.0966
  329MOL0     C44300   0.840   1.783   5.439 -0.6649 -0.1650  1.2243
  329MOL0     C44301   0.784   1.669   5.522  0.3664  0.6775  0.3230
  329MOL0     C44302   0.675   1.587   5.445 -0.7566 -0.7800 -0.2329
  329MOL0     C44303   0.601   1.487   5.540 -0.5151 -0.0819  0.8711
  329MOL0     O44304   0.479   1.430   5.479  0.3464 -0.5401  1.0925
  329MOL0     C44305   0.377   1.390   5.561 -0.2754 -0.5792  0.2289
  329MOL0     C44306   0.391   1.379   5.701 -0.3937 -0.4822  0.2707
  329MOL0     C44307   0.286   1.339   5.782 -0.2102 -0.2321  0.2234
  329MOL0     C44308   0.318   1.330   5.930 -1.0030  0.5301 -0.3973
  329MOL0     C44309   0.162   1.311   5.718  0.0627 -0.3901  0.0821
  329MOL0     C44310   0.031   1.278   5.783 -0.6085 -0.3786  0.3880
  329MOL0     O44311  -0.076   1.243   5.710 -0.2742 -0.1692  0.4719
  329MOL0     C44312  -0.187   1.189   5.768  0.4861  0.3827 -1.0973
  329MOL0     C44313  -0.280   1.266   5.840 -0.0902 -0.0335 -0.8925
  329MOL0     C44314  -0.395   1.206   5.893 -1.0009  0.3734 -0.6748
  329MOL0     C44315  -0.424   1.072   5.873  0.3847 -0.0997  0.2392
  329MOL0     O44316  -0.535   1.007   5.916 -0.8470  0.7552 -0.2873
  329MOL0     C44317  -0.647   1.032   5.828  0.2876 -0.1532 -0.2489
  329MOL0     C44318  -0.772   0.955   5.858  0.1476  0.1420 -0.6027
  329MOL0     C44319  -0.815   0.948   6.004  0.8067  0.6323  0.1878
  329MOL0     C44320  -0.945   0.860   6.021  0.4390  0.1964 -0.7049
  329MOL0     C44321  -0.964   0.843   6.170  0.3153  0.5913 -0.6066
  329MOL0     C44322  -1.082   0.741   6.197  0.3365  0.5443  0.1642
  329MOL0     C44323  -1.226   0.813   6.194  0.6590 -0.1751 -0.7408
  329MOL0     C44324  -1.324   0.731   6.103  0.7883  0.1946 -0.6025
  329MOL0    Cl44325  -1.491   0.791   6.144 -0.3081  0.7276 -0.0600
  329MOL0     C44326  -0.335   0.994   5.785  0.2252  0.0417 -0.2853
  329MOL0     C44327  -0.212   1.054   5.743 -0.2899  1.0101 -0.4857
  329MOL0     O44328   0.031   1.279   5.908  0.2332 -0.5884  0.6188
  329MOL0     C44329   0.144   1.338   5.576 -0.5280 -0.1847  0.2773
  329MOL0     C44330   0.257   1.365   5.504  1.2107  0.4470 -0.0508
  329MOL0     N44331   0.927   1.971   5.577 -0.2215 -0.1162  0.4104
  329MOL0     N44332   1.020   2.000   5.659  1.0426  1.7076  0.9482
  329MOL0     C44333   1.223   2.215   6.063 -0.2945  0.1486 -0.0502
  329MOL0     C44334   1.146   2.279   5.974 -0.1020 -0.4366  0.0501
  329MOL0     C44335   0.942   2.562   5.711 -0.0962 -0.4774 -0.3124
  329MOL0     C44336   0.870   2.678   5.734 -0.2746  0.7156  0.4828
  329MOL0     C44337   0.788   2.735   5.637  0.1237  0.7828 -0.2673
  329MOL0     C44338   0.755   2.659   5.523  0.5944 -0.2871 -0.0236
  329MOL0     O44339   0.680   2.708   5.416  0.0400  0.2472 -0.9049
  329MOL0     C44340   0.594   2.815   5.446  0.2743  0.2395 -0.0888
  329MOL0     C44341   0.485   2.838   5.342  0.8778 -0.2925  0.1955
  329MOL0     C44342   0.533   2.863   5.205  0.3633 -0.3140  0.7464
  329MOL0     C44343   0.405   2.887   5.117  0.3788  0.1513  0.3436
  329MOL0     C44344   0.430   2.931   4.979  0.3202  0.2051 -0.3546
  329MOL0     C44345   0.437   2.956   4.862  0.3609 -0.6344  1.4707
  329MOL0     C44346   0.826   2.540   5.503  0.7343  0.8534 -0.4000
  329MOL0     C44347   0.922   2.493   5.595  0.2532 -0.0657  0.3954
  329MOL0     H44348   1.394   2.430   5.801 -0.2379 -0.4951  1.1771
  329MOL0     H44349   1.526   2.329   5.949  0.7285 -2.8875 -1.2886
  329MOL0     H44350   1.570   2.066   6.008  0.5769  0.9250 -0.9605
  329MOL0     H44351   1.633   2.183   6.124  1.3264 -1.1984 -1.0093
  329MOL0     H44352   1.724   1.963   6.199 -0.0098  1.0433  2.0099
  329MOL0     H44353   1.600   2.006   6.310 -2.2331  0.9210  0.0508
  329MOL0     H44354   1.545   1.779   6.256 -3.5165 -4.1260 -1.5182
  329MOL0     H44355   1.425   1.878   6.164 -0.0179 -0.6351 -3.0947
  329MOL0     H44356   1.666   1.772   6.029 -0.6212  2.6571 -2.3050
  329MOL0     H44357   1.544   1.656   6.085 -2.0518  0.6169 -0.9074
  329MOL0     H44358   1.504   1.882   5.887  0.3867  0.4456  1.3919
  329MOL0     H44359   1.493   1.719   5.844 -1.9924  1.2654  0.4186
  329MOL0     H44360   1.294   1.716   6.021  1.7212 -1.2191 -0.7854
  329MOL0     H44361   1.295   1.892   6.000  0.5624 -1.0891 -0.0703
  329MOL0     H44362   1.245   1.696   5.766 -1.4332 -2.3073  0.7300
  329MOL0     H44363   1.125   1.767   5.853 -0.4021  3.1556  0.3609
  329MOL0     H44364   1.322   1.924   5.690 -0.0617 -0.5322 -0.5946
  329MOL0     H44365   1.220   1.994   5.811 -1.5716 -0.3424 -0.6818
  329MOL0     H44366   1.118   1.705   5.539  0.0889 -0.4115 -2.2032
  329MOL0     H44367   0.760   1.853   5.414 -1.1284 -0.6321  1.4002
  329MOL0     H44368   0.873   1.741   5.343 -3.3910 -0.7970  0.4789
  329MOL0     H44369   0.755   1.697   5.624 -0.9506 -3.1364  1.1644
  329MOL0     H44370   0.868   1.602   5.541  3.4130  3.0629 -3.5046
  329MOL0     H44371   0.723   1.537   5.360 -0.3487  0.3730 -0.6995
  329MOL0     H44372   0.604   1.663   5.410  0.8286  1.5632  1.3070
  329MOL0     H44373   0.568   1.537   5.632 -5.6387  0.1236 -0.7826
  329MOL0     H44374   0.669   1.403   5.561  1.8961  1.6365  0.3488
  329MOL0     H44375   0.486   1.393   5.751 -0.1805 -0.8446 -0.0270
  329MOL0     H44376   0.410   1.379   5.963  2.6705 -3.7869 -2.9617
  329MOL0     H44377   0.232   1.361   5.990 -1.2665 -1.9891  0.6374
  329MOL0     H44378   0.333   1.229   5.968  2.4774  1.5684  1.4338
  329MOL0     H44379  -0.247   1.369   5.854  2.8081 -0.6421 -2.4849
  329MOL0     H44380  -0.462   1.266   5.955  1.1429  1.1207  1.0468
  329MOL0     H44381  -0.669   1.139   5.825  0.5878 -0.0778 -4.3938
  329MOL0     H44382  -0.613   1.012   5.726 -1.3409 -2.1848 -0.4711
  329MOL0     H44383  -0.849   1.014   5.808 -1.6055 -0.8156  0.8355
  329MOL0     H44384  -0.754   0.854   5.820  1.8452  0.6475 -1.2424
  329MOL0     H44385  -0.826   1.044   6.055 -1.0849  0.0804  0.9119
  329MOL0     H44386  -0.729   0.910   6.060  1.8993  2.1613 -0.3961
  329MOL0     H44387  -1.032   0.901   5.969 -1.3487 -2.6356 -0.1249
  329MOL0     H44388  -0.932   0.762   5.975  1.4944  1.5745 -3.6257
  329MOL0     H44389  -0.985   0.943   6.210  1.8960  0.3025  1.1120
  329MOL0     H44390  -0.872   0.804   6.215 -0.1128  1.3781  1.0442
  329MOL0     H44391  -1.071   0.657   6.127 -0.6354  0.5776 -0.0483
  329MOL0     H44392  -1.075   0.706   6.300 -2.5830  0.6503  0.4941
  329MOL0     H44393  -1.219   0.917   6.161  1.3475 -0.6276 -2.0724
  329MOL0     H44394  -1.277   0.818   6.291  1.3322 -4.2386 -0.0083
  329MOL0     H44395  -1.324   0.625   6.130  0.4962  0.1622 -0.7251
  329MOL0     H44396  -1.305   0.739   5.996 -3.4296 -0.4480 -1.5773
  329MOL0     H44397  -0.357   0.891   5.761  0.8507 -0.0267 -0.5834
  329MOL0     H44398  -0.144   0.989   5.688 -0.3480  1.7101 -1.4129
  329MOL0     H44399   0.053   1.327   5.518  0.9218  1.9296 -2.6812
  329MOL0     H44400   0.239   1.378   5.398 -2.6893  0.2772  0.4282
  329MOL0     H44401   1.161   2.148   6.123 -2.4059  0.1721 -2.0625
  329MOL0     H44402   1.040   2.257   5.981 -0.0505 -0.7941 -0.2813
  329MOL0     H44403   0.882   2.737   5.825  1.9818  0.4676  0.4128
  329MOL0     H44404   0.760   2.838   5.654 -1.3572  0.1067  1.8788
  329MOL0     H44405   0.549   2.808   5.546 -1.3326  2.2025 -0.6018
  329MOL0     H44406   0.642   2.913   5.454  0.9739 -0.1887  1.4045
  329MOL0     H44407   0.431   2.929   5.369 -2.8164 -0.9618 -3.8378
  329MOL0     H44408   0.413   2.756   5.350  0.0151 -0.0456 -3.5258
  329MOL0     H44409   0.576   2.771   5.165  0.0639 -0.1081 -0.0704
  329MOL0     H44410   0.604   2.947   5.201  1.6337 -1.3106  1.7892
  329MOL0     H44411   0.348   2.973   5.155 -1.7361 -0.6105 -0.9543
  329MOL0     H44412   0.349   2.795   5.102  0.0245  0.8291 -3.4188
  329MOL0     H44413   0.443   2.998   4.763 -2.0226 -1.4015  0.9421
  329MOL0     H44414   0.809   2.482   5.413  2.8740 -0.0419 -0.2627
  329MOL0     H44415   0.968   2.397   5.571 -0.0019 -0.0186 -0.3011
  330MOL0     O44416   0.527  10.977   4.042 -0.2686  0.0837  0.5164
  330MOL0     C44417   0.595  11.078   4.039  0.4319 -0.1337  0.0091
  330MOL0     O44418   0.555  11.211   4.006  0.1549 -0.4682 -0.6037
  330MOL0     C44419   0.420  11.233   3.991 -0.4568  0.2821  0.0260
  330MOL0     C44420   0.368  11.315   4.086  0.5539 -0.8353  0.3847
  330MOL0     C44421   0.233  11.318   4.102 -0.5459 -0.3733  0.6569
  330MOL0     C44422   0.144  11.244   4.023 -1.1535  0.0969 -0.9045
  330MOL0     O44423   0.009  11.243   4.046  0.0265  0.7416 -0.6051
  330MOL0     C44424  -0.059  11.358   4.097 -1.2923  0.4907  0.5685
  330MOL0     C44425  -0.208  11.348   4.087 -0.4817  0.3763 -0.5171
  330MOL0     C44426  -0.286  11.472   4.134 -0.1501 -0.2633  0.0658
  330MOL0     C44427  -0.437  11.458   4.124 -0.7670  0.9518 -0.4848
  330MOL0     C44428  -0.506  11.582   4.165 -0.0304  0.3096  0.0646
  330MOL0     C44429  -0.661  11.586   4.161  0.3129 -0.3115  0.3413
  330MOL0     C44430  -0.709  11.711   4.236 -0.2804  0.4021 -0.3516
  330MOL0     C44431  -0.864  11.716   4.252 -0.3653  0.6534 -0.5838
  330MOL0     N44432  -0.921  11.761   4.130  0.3857 -0.3010  0.6308
  330MOL0     C44433  -0.951  11.687   4.022  0.3756 -0.4206 -0.1350
  330MOL0     C44434  -1.038  11.770   3.953 -0.4138 -0.0143 -1.0954
  330MOL0     C44435  -1.097  11.745   3.815  0.2322 -0.5245  0.3790
  330MOL0     C44436  -1.248  11.692   3.819  0.0284 -0.2630  0.3750
  330MOL0     C44437  -1.337  11.818   3.824 -0.2878  0.2512  0.8643
  330MOL0     C44438  -1.492  11.784   3.841  0.3714 -0.2243  0.1964
  330MOL0     O44439  -1.521  11.783   3.982  0.1664  0.1118  0.1070
  330MOL0     C44440  -1.652  11.787   4.026 -0.4806  0.5818 -0.9557
  330MOL0     C44441  -1.663  11.806   4.169  0.9343 -0.1003 -0.4050
  330MOL0     C44442  -1.785  11.818   4.229  0.3679  0.0111 -0.8391
  330MOL0     C44443  -1.789  11.844   4.381  0.6066 -0.6070 -0.8151
  330MOL0     C44444  -1.903  11.799   4.151 -0.6095  0.1592  0.3653
  330MOL0     C44445  -2.040  11.826   4.194 -0.1603 -0.2690  0.5844
  330MOL0     O44446  -2.145  11.753   4.131 -0.4785 -0.3722 -0.2400
  330MOL0     C44447  -2.272  11.784   4.167  0.4450  0.7022  1.3542
  330MOL0     C44448  -2.344  11.896   4.108 -0.5203 -0.1857  0.4715
  330MOL0     C44449  -2.472  11.916   4.143  0.4785 -0.0419 -0.1587
  330MOL0     C44450  -2.536  11.837   4.240 -1.1235 -0.5234 -0.5243
  330MOL0     O44451  -2.670  11.839   4.261 -0.1691  0.0907 -0.2821
  330MOL0     C44452  -2.720  11.966   4.317 -0.4533 -0.0437 -0.8523
  330MOL0     C44453  -2.775  12.053   4.204  0.4809 -0.7175 -0.3011
  330MOL0     C44454  -2.900  12.149   4.249  0.2726 -0.2909 -0.1154
  330MOL0     C44455  -2.966  12.190   4.122  0.6192  0.9940 -0.1138
  330MOL0     C44456  -3.090  12.272   4.147 -0.0584 -0.5691 -0.1348
  330MOL0     C44457  -3.216  12.186   4.189  0.3496  0.4365 -0.3831
  330MOL0     C44458  -3.347  12.265   4.200  0.2616  0.7863  0.6182
  330MOL0     C44459  -3.472  12.169   4.197 -0.2448 -0.2922  1.1644
  330MOL0    Cl44460  -3.467  12.064   4.048  0.1026 -0.0844 -0.1507
  330MOL0     C44461  -2.466  11.726   4.290  0.0787 -0.1790 -0.2303
  330MOL0     C44462  -2.337  11.696   4.259 -0.6717  0.4171 -0.0655
  330MOL0     O44463  -2.051  11.903   4.287 -0.5400  0.4127  0.2159
  330MOL0     C44464  -1.887  11.753   4.013  0.3947  0.2355 -0.5072
  330MOL0     C44465  -1.765  11.756   3.952  0.6508 -0.6564  0.6474
  330MOL0     N44466  -1.044  11.886   4.022 -0.5238 -0.7035  0.1200
  330MOL0     N44467  -0.988  11.883   4.132 -0.4980  0.3884 -0.0366
  330MOL0     C44468   0.196  11.162   3.928 -0.3500  0.8643 -0.2147
  330MOL0     C44469   0.335  11.157   3.914  0.2213  0.4234  1.1451
  330MOL0     C44470   0.735  11.064   4.049  0.1697 -0.4562  0.5387
  330MOL0     C44471   0.819  11.161   4.111 -0.0002  0.0948 -0.4334
  330MOL0     C44472   0.955  11.134   4.122  0.5019  0.2104 -1.0840
  330MOL0     C44473   1.012  11.030   4.057 -0.7543  0.8468 -0.3931
  330MOL0     O44474   1.155  11.022   4.063 -0.1937  0.4112 -0.3154
  330MOL0     C44475   1.216  10.949   3.956 -0.3359 -0.3759  0.5816
  330MOL0     C44476   1.369  10.931   3.976 -0.2271  0.2460  0.6898
  330MOL0     C44477   1.453  11.060   3.964 -0.1165  0.1882 -1.1131
  330MOL0     C44478   1.474  11.142   4.087 -0.0457  0.8269  0.5585
  330MOL0     C44479   1.580  11.103   4.181 -0.4420  0.8983  0.3925
  330MOL0     C44480   1.671  11.093   4.260  0.2373 -0.2797 -0.3727
  330MOL0     C44481   0.935  10.939   3.984  0.9625  0.0132 -0.5149
  330MOL0     C44482   0.796  10.961   3.987  0.8292  0.5762 -0.5813
  330MOL0     H44483   0.437  11.369   4.150  2.1259 -2.8483  0.4825
  330MOL0     H44484   0.195  11.375   4.186 -0.8054 -3.3293  2.7053
  330MOL0     H44485  -0.036  11.372   4.203 -0.6999  2.2165  0.2451
  330MOL0     H44486  -0.037  11.450   4.042  0.4050 -0.0477  0.3016
  330MOL0     H44487  -0.229  11.328   3.982  1.2400  2.7342 -1.4056
  330MOL0     H44488  -0.241  11.266   4.152  0.1851  2.8870  3.3106
  330MOL0     H44489  -0.254  11.503   4.234  1.8874  1.1185 -0.9279
  330MOL0     H44490  -0.254  11.555   4.070  0.5096  0.5688  1.4124
  330MOL0     H44491  -0.468  11.428   4.023  0.4659 -1.6621 -0.1668
  330MOL0     H44492  -0.468  11.377   4.191  1.0293  1.2989  0.8287
  330MOL0     H44493  -0.484  11.613   4.268  2.2525 -0.0126 -0.2710
  330MOL0     H44494  -0.472  11.666   4.104 -1.5099  1.7030  1.0565
  330MOL0     H44495  -0.691  11.584   4.056  0.1975  0.2591  0.3644
  330MOL0     H44496  -0.713  11.499   4.203 -1.1471 -0.1273 -0.9760
  330MOL0     H44497  -0.664  11.712   4.336  0.4307 -0.9016 -0.6284
  330MOL0     H44498  -0.679  11.802   4.184 -0.1618  1.1777  1.0395
  330MOL0     H44499  -0.910  11.780   4.328 -0.6821 -1.0962  0.7763
  330MOL0     H44500  -0.903  11.617   4.279 -2.0542  2.0382  2.5750
  330MOL0     H44501  -0.926  11.584   3.997 -3.4526 -1.8465  1.1272
  330MOL0     H44502  -1.087  11.830   3.748 -1.8874 -1.4962 -1.2867
  330MOL0     H44503  -1.033  11.670   3.766  0.1834  0.2412 -0.9074
  330MOL0     H44504  -1.267  11.632   3.908 -0.3082 -0.0336  0.4597
  330MOL0     H44505  -1.267  11.617   3.743  1.2877 -1.4394  1.1660
  330MOL0     H44506  -1.330  11.857   3.722 -0.1991 -3.0073 -0.5025
  330MOL0     H44507  -1.297  11.891   3.894  2.2705  1.3788 -1.5488
  330MOL0     H44508  -1.525  11.708   3.770  0.5293 -0.3466  0.2532
  330MOL0     H44509  -1.541  11.873   3.801  0.7723 -0.2605 -0.3819
  330MOL0     H44510  -1.577  11.823   4.233  0.1060  0.4761  0.5917
  330MOL0     H44511  -1.804  11.950   4.406  1.0497 -0.9357  0.9280
  330MOL0     H44512  -1.854  11.775   4.435  0.4349  0.5190  0.4722
  330MOL0     H44513  -1.689  11.824   4.420  0.6822 -1.8166 -1.5831
  330MOL0     H44514  -2.298  11.976   4.052 -2.4009  1.0424  0.5885
  330MOL0     H44515  -2.527  12.002   4.107 -1.1913 -0.6812  0.7728
  330MOL0     H44516  -2.803  11.941   4.383  0.7242  0.1846  0.7601
  330MOL0     H44517  -2.646  12.016   4.379  0.4880 -1.9903 -0.3123
  330MOL0     H44518  -2.699  12.114   4.155 -1.0022  0.1868 -1.5745
  330MOL0     H44519  -2.809  11.994   4.118  1.3425  0.3562 -1.3983
  330MOL0     H44520  -2.855  12.236   4.298 -0.7632  0.1993 -0.0037
  330MOL0     H44521  -2.971  12.101   4.317 -2.0563  0.1640 -2.0872
  330MOL0     H44522  -2.912  12.264   4.063  1.5720  0.4883  0.1115
  330MOL0     H44523  -2.993  12.106   4.057 -0.5578  0.7945  0.5951
  330MOL0     H44524  -3.103  12.327   4.054 -0.7413 -0.7309 -0.1393
  330MOL0     H44525  -3.058  12.338   4.228 -1.5208 -1.9284  1.6360
  330MOL0     H44526  -3.227  12.101   4.121  1.3622 -0.7913  0.9419
  330MOL0     H44527  -3.201  12.139   4.286  0.3405  0.3397 -0.4289
  330MOL0     H44528  -3.349  12.339   4.119 -3.8558  2.7972  2.3027
  330MOL0     H44529  -3.351  12.331   4.287  0.0546  0.7113  0.6666
  330MOL0     H44530  -3.568  12.218   4.208 -0.7269 -0.0905 -2.6133
  330MOL0     H44531  -3.459  12.101   4.282  0.4006 -1.6938 -0.0056
  330MOL0     H44532  -2.512  11.652   4.355  2.5326  0.8202  2.8726
  330MOL0     H44533  -2.288  11.613   4.309  0.3162  1.8370  1.4016
  330MOL0     H44534  -1.974  11.749   3.948 -1.2474  0.0867  1.5961
  330MOL0     H44535  -1.748  11.745   3.845  1.9073 -0.9929  0.8694
  330MOL0     H44536   0.130  11.096   3.873  2.0504 -2.0310  0.1412
  330MOL0     H44537   0.387  11.099   3.838  0.1928  0.4789  1.0823
  330MOL0     H44538   0.794  11.256   4.156 -4.6665 -1.4750  0.8433
  330MOL0     H44539   1.024  11.204   4.169 -2.0172  0.7877  2.1241
  330MOL0     H44540   1.178  10.847   3.946  3.6504 -2.3801  3.1696
  330MOL0     H44541   1.195  11.009   3.867 -0.4731  0.9757  1.4860
  330MOL0     H44542   1.402  10.859   3.900  0.2005  0.6043  0.5295
  330MOL0     H44543   1.381  10.888   4.076 -2.0792  0.3660  0.9936
  330MOL0     H44544   1.391  11.117   3.894 -0.7292 -1.1434 -1.6780
  330MOL0     H44545   1.551  11.030   3.925  0.3161  2.1156 -1.6244
  330MOL0     H44546   1.374  11.150   4.132 -0.4669  0.7696 -0.3533
  330MOL0     H44547   1.497  11.241   4.047  3.1129 -1.1425 -3.0987
  330MOL0     H44548   1.760  11.097   4.319  0.4791  1.8599 -0.8215
  330MOL0     H44549   0.969  10.862   3.915 -4.7547 -0.9449 -2.8007
  330MOL0     H44550   0.734  10.892   3.931 -2.0816  2.1607  0.4962
  331MOL0     O44551   7.785   5.524   3.907  0.1406  0.4917  0.5650
  331MOL0     C44552   7.706   5.484   3.826  0.3035  0.4872 -0.9847
  331MOL0     O44553   7.730   5.457   3.701 -0.8429 -0.1317  0.3447
  331MOL0     C44554   7.862   5.469   3.660 -0.7218  0.3106  0.7323
  331MOL0     C44555   7.944   5.356   3.647 -0.5667 -0.6537 -0.3143
  331MOL0     C44556   8.071   5.375   3.590 -1.1133  0.6628  1.1678
  331MOL0     C44557   8.114   5.501   3.538  0.5314 -0.9043 -1.5268
  331MOL0     O44558   8.246   5.506   3.493  0.1110 -0.2605 -0.6002
  331MOL0     C44559   8.285   5.626   3.423 -0.9460 -0.4005  0.9584
  331MOL0     C44560   8.415   5.603   3.350 -0.0275  0.5393 -0.2193
  331MOL0     C44561   8.444   5.707   3.246  0.2040 -0.7108 -0.4480
  331MOL0     C44562   8.571   5.666   3.167 -0.3235  0.3972 -0.6586
  331MOL0     C44563   8.609   5.763   3.064 -0.5778 -0.1451  0.5211
  331MOL0     C44564   8.755   5.760   3.025 -0.1742 -0.5023  0.4276
  331MOL0     C44565   8.802   5.881   2.944 -0.4770  0.0758 -0.0276
  331MOL0     C44566   8.955   5.898   2.928  0.8664  0.1860  0.0656
  331MOL0     N44567   8.972   6.010   2.834 -0.6632  0.6944  0.3230
  331MOL0     C44568   8.888   6.114   2.807 -0.3787 -1.1241 -1.0608
  331MOL0     C44569   8.924   6.152   2.682  1.2685 -0.7973  0.5640
  331MOL0     C44570   8.870   6.271   2.597 -0.5355  0.5301 -0.4433
  331MOL0     C44571   8.960   6.395   2.601 -0.3230 -0.7589  0.1750
  331MOL0     C44572   8.881   6.517   2.523 -0.5795  0.3689 -0.2771
  331MOL0     C44573   8.890   6.658   2.587 -0.5466  0.1995  0.5359
  331MOL0     O44574   8.848   6.647   2.721  1.1490 -0.6857 -0.6290
  331MOL0     C44575   8.714   6.632   2.747  0.2150 -0.1310  0.6607
  331MOL0     C44576   8.613   6.699   2.677  0.0079 -1.0687 -0.1317
  331MOL0     C44577   8.476   6.694   2.706 -0.1706  0.4905  0.0023
  331MOL0     C44578   8.382   6.780   2.632  0.1945  0.2570 -0.8670
  331MOL0     C44579   8.439   6.611   2.813 -0.2693 -0.3389 -0.2014
  331MOL0     C44580   8.296   6.589   2.843  0.3581 -0.5475 -0.1172
  331MOL0     O44581   8.282   6.593   2.976 -0.0835  0.5829  0.2782
  331MOL0     C44582   8.163   6.614   3.029 -0.1047 -0.4137 -0.5220
  331MOL0     C44583   8.140   6.740   3.082 -0.4157 -0.6859 -0.0237
  331MOL0     C44584   8.013   6.768   3.137  0.0051 -0.3349 -0.6974
  331MOL0     C44585   7.916   6.660   3.162 -0.2652 -0.1081  0.8532
  331MOL0     O44586   7.797   6.674   3.226  0.0702  0.5311 -0.0533
  331MOL0     C44587   7.778   6.796   3.304  0.5286  0.4522  0.0609
  331MOL0     C44588   7.668   6.763   3.412  0.7254 -0.0313 -1.3174
  331MOL0     C44589   7.660   6.867   3.531  0.0022  0.0734 -0.1034
  331MOL0     C44590   7.626   7.009   3.504  0.3447  0.6446  0.5916
  331MOL0     C44591   7.494   7.036   3.428  0.7533  0.4632 -0.1031
  331MOL0     C44592   7.372   6.975   3.508 -0.0961  0.1507  0.0900
  331MOL0     C44593   7.243   7.022   3.443 -0.6987  0.3664  0.5092
  331MOL0     C44594   7.127   6.980   3.525 -0.7297  1.0645  0.6401
  331MOL0    Cl44595   6.973   7.039   3.449 -0.4624  0.0166 -0.7441
  331MOL0     C44596   7.944   6.534   3.100  0.1563  0.4106 -0.7343
  331MOL0     C44597   8.070   6.509   3.038 -0.2731 -0.0407 -0.9168
  331MOL0     O44598   8.208   6.577   2.761 -0.7336  0.2652 -0.0118
  331MOL0     C44599   8.543   6.525   2.872 -0.4021 -0.0074  0.5168
  331MOL0     C44600   8.681   6.549   2.848  0.1709 -0.0251  0.5361
  331MOL0     N44601   9.028   6.071   2.640 -0.2766  0.6759 -0.3143
  331MOL0     N44602   9.057   5.990   2.732  0.7710  0.1068 -0.2777
  331MOL0     C44603   8.033   5.616   3.552  0.3820  0.1937 -0.1948
  331MOL0     C44604   7.905   5.595   3.611  0.0503  0.7864 -0.4635
  331MOL0     C44605   7.569   5.466   3.882  0.0768 -0.2966 -0.1697
  331MOL0     C44606   7.534   5.535   4.001 -0.7731 -0.7252  0.2573
  331MOL0     C44607   7.402   5.528   4.043 -0.3957 -0.0216 -0.1309
  331MOL0     C44608   7.308   5.453   3.964  0.2500 -0.5624 -0.2259
  331MOL0     O44609   7.180   5.428   4.001 -0.6992  0.3340  0.4529
  331MOL0     C44610   7.130   5.461   4.132  0.5162 -0.1863 -0.6507
  331MOL0     C44611   6.977   5.429   4.143 -0.6849  0.1215  0.8931
  331MOL0     C44612   6.930   5.399   4.282  0.6964 -0.3121 -0.3806
  331MOL0     C44613   6.780   5.371   4.281  0.7237 -0.0755 -0.1668
  331MOL0     C44614   6.739   5.366   4.422 -0.0850  0.2935  0.1163
  331MOL0     C44615   6.708   5.349   4.547 -0.3555  0.6411 -0.4700
  331MOL0     C44616   7.346   5.389   3.849 -0.4444 -0.7004 -0.7771
  331MOL0     C44617   7.479   5.395   3.808  1.1017  0.1149 -0.2403
  331MOL0     H44618   7.916   5.257   3.679 -1.1055 -0.3190  0.2754
  331MOL0     H44619   8.148   5.299   3.595  1.3170  3.0920  2.5911
  331MOL0     H44620   8.211   5.660   3.350 -1.2507  1.2119  1.9658
  331MOL0     H44621   8.302   5.702   3.500  1.0284  0.1197  0.0795
  331MOL0     H44622   8.498   5.594   3.420  0.3986  4.1228 -0.0984
  331MOL0     H44623   8.389   5.508   3.302 -4.4200  1.1258  0.5641
  331MOL0     H44624   8.366   5.719   3.171 -1.4796  1.0693  1.4685
  331MOL0     H44625   8.447   5.805   3.295  0.2945 -0.9214 -0.0295
  331MOL0     H44626   8.649   5.644   3.240 -0.6234 -5.0265 -1.5440
  331MOL0     H44627   8.562   5.569   3.118  0.6184 -1.2270  2.1557
  331MOL0     H44628   8.553   5.748   2.972  1.7734  2.9769 -1.6609
  331MOL0     H44629   8.574   5.861   3.098 -1.6004 -0.4292  0.3063
  331MOL0     H44630   8.815   5.763   3.116 -1.1927  0.7815  1.0957
  331MOL0     H44631   8.786   5.677   2.961 -0.4276  0.7804 -1.4617
  331MOL0     H44632   8.760   5.863   2.844 -2.8331 -0.2363  0.9605
  331MOL0     H44633   8.762   5.978   2.971 -1.1444  0.5570 -2.4912
  331MOL0     H44634   9.008   5.808   2.895  2.0951  1.0785 -0.4818
  331MOL0     H44635   9.004   5.928   3.021 -0.1549 -3.1559  1.8771
  331MOL0     H44636   8.825   6.162   2.881 -0.0413 -1.6864 -0.3922
  331MOL0     H44637   8.851   6.253   2.491 -0.3250  1.7355 -0.6981
  331MOL0     H44638   8.775   6.299   2.643 -0.6390  0.5392 -0.6610
  331MOL0     H44639   9.049   6.382   2.539 -0.0121  3.0958 -0.4356
  331MOL0     H44640   8.985   6.434   2.700  2.6283 -0.1387 -0.7111
  331MOL0     H44641   8.774   6.493   2.521 -0.2914 -1.1364  0.6481
  331MOL0     H44642   8.909   6.524   2.418 -0.5023 -0.1947 -0.2939
  331MOL0     H44643   8.823   6.721   2.528 -0.1715  0.3836  0.3024
  331MOL0     H44644   8.993   6.693   2.573  0.6562 -2.4660  2.0037
  331MOL0     H44645   8.647   6.768   2.601 -1.6543  2.2526  1.8850
  331MOL0     H44646   8.336   6.732   2.545 -0.3194 -0.0716 -0.4199
  331MOL0     H44647   8.304   6.822   2.695 -0.1283 -0.1763 -0.9698
  331MOL0     H44648   8.443   6.858   2.586 -0.2968  0.4116 -1.2688
  331MOL0     H44649   8.203   6.829   3.080 -2.7688  1.0711 -0.3999
  331MOL0     H44650   7.992   6.865   3.182 -4.5218 -1.0911 -0.7698
  331MOL0     H44651   7.869   6.820   3.359  1.9388 -2.8483 -0.5877
  331MOL0     H44652   7.751   6.884   3.246  0.4059  0.3274 -0.0731
  331MOL0     H44653   7.567   6.758   3.371 -1.6928  1.0417  3.6925
  331MOL0     H44654   7.695   6.667   3.457  0.3767 -0.0106 -1.0559
  331MOL0     H44655   7.752   6.870   3.591  1.1503  2.6493 -1.8150
  331MOL0     H44656   7.586   6.835   3.605  1.7302 -0.1925  1.6146
  331MOL0     H44657   7.614   7.060   3.600 -1.3334  1.4721 -0.0093
  331MOL0     H44658   7.703   7.060   3.446 -1.3600  0.0202 -2.4167
  331MOL0     H44659   7.501   6.991   3.328  2.8333 -0.9585  0.6073
  331MOL0     H44660   7.485   7.145   3.429 -0.4711  0.3726  0.7713
  331MOL0     H44661   7.383   6.866   3.515  0.3950  0.3181  3.7614
  331MOL0     H44662   7.369   7.000   3.614 -3.0426  3.7584 -0.6231
  331MOL0     H44663   7.234   6.988   3.340 -2.5534  2.6202 -0.1548
  331MOL0     H44664   7.237   7.130   3.427 -2.8731  0.0005 -1.6607
  331MOL0     H44665   7.147   7.011   3.628  0.6413  0.2234  0.6538
  331MOL0     H44666   7.124   6.871   3.527 -2.5790  1.0221 -0.9784
  331MOL0     H44667   7.887   6.446   3.124  1.6995 -0.7973 -1.3265
  331MOL0     H44668   8.094   6.411   3.000  3.0671  0.1909  0.2855
  331MOL0     H44669   8.516   6.466   2.959 -3.5413  0.6384  0.1061
  331MOL0     H44670   8.760   6.509   2.911  1.7299  1.9701 -0.0677
  331MOL0     H44671   8.061   5.717   3.522  1.9292 -0.5543 -1.4143
  331MOL0     H44672   7.847   5.686   3.623  1.0426  1.5266 -1.1016
  331MOL0     H44673   7.608   5.597   4.051 -0.0985 -0.4383 -1.0446
  331MOL0     H44674   7.371   5.570   4.138 -1.8282  3.2440 -1.8759
  331MOL0     H44675   7.189   5.406   4.206  0.5137 -0.8190 -1.1072
  331MOL0     H44676   7.148   5.567   4.150 -2.8781  0.2213  1.0895
  331MOL0     H44677   6.955   5.334   4.093  0.1555  0.8804 -1.0284
  331MOL0     H44678   6.921   5.513   4.101 -0.9919  0.1284  1.3125
  331MOL0     H44679   6.952   5.487   4.344  0.8406  1.2998 -2.5987
  331MOL0     H44680   6.984   5.316   4.328  1.2879 -0.4596 -1.3154
  331MOL0     H44681   6.747   5.281   4.227 -1.7113 -0.3058  1.5559
  331MOL0     H44682   6.729   5.453   4.230 -0.2418 -1.7083 -1.9916
  331MOL0     H44683   6.672   5.344   4.648  0.2091 -1.6812 -0.3324
  331MOL0     H44684   7.287   5.336   3.775 -0.5826 -0.0737 -1.1229
  331MOL0     H44685   7.519   5.340   3.723  0.7455 -3.0308  1.4863
  332MOL0     O44686   7.206   7.806   3.423 -0.3639  0.2668 -0.0230
  332MOL0     C44687   7.219   7.794   3.548  0.2124  0.1024 -0.3657
  332MOL0     O44688   7.323   7.840   3.622  0.0616  0.2498 -0.4500
  332MOL0     C44689   7.440   7.868   3.566 -0.9205 -0.0710 -0.9214
  332MOL0     C44690   7.516   7.765   3.533 -0.2506  0.1791  0.4320
  332MOL0     C44691   7.650   7.781   3.491  1.5235  1.2113 -0.1643
  332MOL0     C44692   7.705   7.911   3.486 -0.8540  0.8235  0.4022
  332MOL0     O44693   7.825   7.916   3.425  0.0774  0.6171 -0.1175
  332MOL0     C44694   7.874   8.046   3.378 -0.0338  0.0126  0.2292
  332MOL0     C44695   8.001   8.018   3.301 -0.2484 -0.2632 -0.3441
  332MOL0     C44696   8.101   8.133   3.313  0.2787 -0.4480 -0.5285
  332MOL0     C44697   8.234   8.096   3.235  0.5612  0.4812 -0.0617
  332MOL0     C44698   8.337   8.208   3.244  0.5691 -0.9878 -0.2365
  332MOL0     C44699   8.475   8.188   3.192  0.0613  0.4607  0.0322
  332MOL0     C44700   8.489   8.135   3.055 -0.3528  0.5178  0.7379
  332MOL0     C44701   8.464   7.982   3.056  0.8381  0.4268 -0.6648
  332MOL0     N44702   8.479   7.933   2.921 -0.1369  0.2537 -0.4423
  332MOL0     C44703   8.595   7.910   2.850  0.2467 -0.0877  0.9670
  332MOL0     C44704   8.560   7.893   2.722 -1.1480  0.6442 -0.0890
  332MOL0     C44705   8.650   7.859   2.605 -0.3077 -0.0041 -0.2092
  332MOL0     C44706   8.776   7.795   2.651 -0.6642  0.3215 -0.5184
  332MOL0     C44707   8.869   7.745   2.539 -0.0567  0.0981 -0.0790
  332MOL0     C44708   8.957   7.853   2.479 -0.4598  0.6104 -0.8432
  332MOL0     O44709   8.886   7.940   2.395 -0.7763 -0.4008  0.1348
  332MOL0     C44710   8.933   8.064   2.348 -0.0929 -0.7388 -0.7853
  332MOL0     C44711   8.843   8.141   2.275 -0.1509  0.8477 -1.3465
  332MOL0     C44712   8.872   8.274   2.230 -0.2206  0.6536 -0.9981
  332MOL0     C44713   8.749   8.341   2.169 -0.2523 -0.2136  0.2614
  332MOL0     C44714   9.003   8.314   2.223 -0.2490  0.0345  0.9538
  332MOL0     C44715   9.058   8.441   2.162  0.0950 -0.2956 -0.1460
  332MOL0     O44716   9.194   8.465   2.197  0.0351  1.1409 -0.1384
  332MOL0     C44717   9.250   8.574   2.145  1.2225 -0.0245 -0.0565
  332MOL0     C44718   9.291   8.676   2.237 -0.3015  0.3941 -0.3855
  332MOL0     C44719   9.366   8.787   2.187  0.8735  0.8055 -0.0500
  332MOL0     C44720   9.384   8.805   2.050  0.5386  0.6597 -0.4031
  332MOL0     O44721   9.472   8.906   2.016 -0.2418  0.3586  0.7258
  332MOL0     C44722   9.588   8.869   1.941 -1.0407 -0.6664 -0.1885
  332MOL0     C44723   9.654   8.987   1.868 -0.8328  0.2769  0.2171
  332MOL0     C44724   9.562   9.074   1.778  0.2143 -0.1778  0.7678
  332MOL0     C44725   9.634   9.152   1.672 -0.1849 -0.2412  0.5375
  332MOL0     C44726   9.525   9.219   1.582  0.2088  0.8859 -0.2699
  332MOL0     C44727   9.584   9.316   1.478 -0.2037 -0.6723 -0.7382
  332MOL0     C44728   9.477   9.404   1.423 -0.9432  0.5312  0.5216
  332MOL0     C44729   9.511   9.442   1.280 -0.5609  0.2705  0.8902
  332MOL0    Cl44730   9.658   9.531   1.279 -0.2328  0.2588 -0.2279
  332MOL0     C44731   9.342   8.708   1.961 -1.3034  0.6035  0.0334
  332MOL0     C44732   9.271   8.592   2.011 -0.1832 -0.2721  0.6866
  332MOL0     O44733   8.986   8.517   2.092 -0.1586  0.5173 -0.3887
  332MOL0     C44734   9.093   8.229   2.290  0.7664  0.0916  0.5033
  332MOL0     C44735   9.057   8.117   2.368  0.4738 -0.2672  0.1529
  332MOL0     N44736   8.423   7.900   2.720  0.1149 -0.4301  0.6701
  332MOL0     N44737   8.374   7.934   2.833 -0.5269 -0.0666  0.1389
  332MOL0     C44738   7.632   8.027   3.523  0.1166  0.0658  0.1505
  332MOL0     C44739   7.497   7.998   3.567  0.0833 -0.1289  0.2371
  332MOL0     C44740   7.104   7.747   3.626 -0.0235 -1.1462 -0.6946
  332MOL0     C44741   7.116   7.753   3.772  0.6510  0.3803 -0.0085
  332MOL0     C44742   7.012   7.703   3.856  1.0295 -0.2909  0.5314
  332MOL0     C44743   6.899   7.641   3.799  0.3552 -1.0324 -1.1990
  332MOL0     O44744   6.801   7.595   3.888 -0.2619 -0.3735 -0.0272
  332MOL0     C44745   6.719   7.489   3.846 -0.5148 -0.4639 -0.1729
  332MOL0     C44746   6.598   7.527   3.761  0.3035  1.1492  0.2236
  332MOL0     C44747   6.519   7.636   3.813 -1.1926  0.3939  0.6767
  332MOL0     C44748   6.414   7.678   3.712  0.6532  0.5641  0.4088
  332MOL0     C44749   6.334   7.790   3.763  0.9062  0.7361  0.9788
  332MOL0     C44750   6.265   7.887   3.787 -0.5032  0.3520  0.6177
  332MOL0     C44751   6.897   7.640   3.660 -0.2946  0.2550  0.0993
  332MOL0     C44752   6.992   7.692   3.577 -0.2724 -0.2884  0.6505
  332MOL0     H44753   7.485   7.661   3.533 -0.4477  0.2342  0.9038
  332MOL0     H44754   7.706   7.699   3.448 -0.3973 -0.8891  1.1352
  332MOL0     H44755   7.801   8.097   3.315 -0.7777  0.0405  1.0976
  332MOL0     H44756   7.883   8.109   3.467 -0.0390 -1.5361  1.3766
  332MOL0     H44757   8.042   7.926   3.342 -3.0403 -1.0940  0.8096
  332MOL0     H44758   7.978   8.000   3.196  0.1422 -1.1531 -0.2771
  332MOL0     H44759   8.067   8.233   3.285  4.4258  1.9318  1.8748
  332MOL0     H44760   8.125   8.140   3.420  0.5253 -0.4901 -0.5802
  332MOL0     H44761   8.288   8.010   3.276  0.2942  0.4548  0.2377
  332MOL0     H44762   8.213   8.087   3.128  1.2044 -0.0148 -0.1541
  332MOL0     H44763   8.289   8.287   3.187  0.6789  0.4190  1.5198
  332MOL0     H44764   8.358   8.231   3.349 -0.6907  0.7630 -0.3176
  332MOL0     H44765   8.531   8.282   3.191 -0.0061  0.5318 -2.5405
  332MOL0     H44766   8.527   8.114   3.254 -0.4631 -1.0866 -1.2981
  332MOL0     H44767   8.428   8.199   2.990 -0.3908 -0.1666  0.0927
  332MOL0     H44768   8.592   8.156   3.023 -0.5506  0.6149  0.1605
  332MOL0     H44769   8.368   7.945   3.094 -0.1290  0.5321 -2.8494
  332MOL0     H44770   8.534   7.928   3.120 -1.1222 -3.2691 -1.3310
  332MOL0     H44771   8.699   7.914   2.880  1.7309  1.9517 -3.6540
  332MOL0     H44772   8.594   7.795   2.537  1.9855 -1.2995 -0.9958
  332MOL0     H44773   8.675   7.953   2.554  0.5140 -0.9833 -1.6707
  332MOL0     H44774   8.756   7.700   2.700 -2.7146  0.0579 -1.7497
  332MOL0     H44775   8.829   7.865   2.716 -2.0227  2.7964 -1.8732
  332MOL0     H44776   8.806   7.698   2.463  0.9690  0.5248 -1.2187
  332MOL0     H44777   8.928   7.661   2.576 -0.0884  0.2050  0.2177
  332MOL0     H44778   9.044   7.814   2.426  0.6070  0.9607  0.6046
  332MOL0     H44779   9.000   7.913   2.560 -0.2479 -3.0648  2.0379
  332MOL0     H44780   8.747   8.091   2.271 -1.0792  2.3124  0.7723
  332MOL0     H44781   8.658   8.291   2.204  0.5611 -1.1104  1.1264
  332MOL0     H44782   8.748   8.446   2.199  0.2027  0.0172 -0.5114
  332MOL0     H44783   8.757   8.320   2.062 -1.0930 -0.4589  0.2385
  332MOL0     H44784   9.278   8.676   2.344  1.3511 -1.2884 -0.1383
  332MOL0     H44785   9.405   8.859   2.257 -3.1825  2.1171  1.1344
  332MOL0     H44786   9.664   8.833   2.011 -0.6983 -1.3533 -0.8932
  332MOL0     H44787   9.574   8.804   1.854  1.7578  1.7491 -2.7341
  332MOL0     H44788   9.715   9.054   1.928 -0.2789 -0.6139  0.6717
  332MOL0     H44789   9.713   8.933   1.794 -0.7202 -1.2240  1.3323
  332MOL0     H44790   9.504   9.147   1.836  0.7759  0.6331  0.3332
  332MOL0     H44791   9.494   9.004   1.729  1.4195 -1.3904  0.7751
  332MOL0     H44792   9.682   9.233   1.727 -1.4974  2.0482 -1.4994
  332MOL0     H44793   9.701   9.089   1.612 -0.9038  0.4865 -1.0691
  332MOL0     H44794   9.458   9.275   1.648  2.9025  2.3475  1.4277
  332MOL0     H44795   9.475   9.146   1.517  2.0240 -0.2251 -0.4692
  332MOL0     H44796   9.651   9.388   1.527  0.4101 -1.4654 -0.3980
  332MOL0     H44797   9.637   9.265   1.398  0.6513 -0.0826 -0.5645
  332MOL0     H44798   9.470   9.496   1.481 -1.8784  0.0027  1.2724
  332MOL0     H44799   9.374   9.369   1.432 -1.9677  3.5237  1.5913
  332MOL0     H44800   9.428   9.498   1.235 -0.0526  0.3119 -0.0151
  332MOL0     H44801   9.511   9.348   1.225 -3.7492  1.2398 -1.0373
  332MOL0     H44802   9.357   8.715   1.854 -4.1461  2.9899 -0.3279
  332MOL0     H44803   9.246   8.518   1.935  0.1525  0.7314 -0.4354
  332MOL0     H44804   9.197   8.258   2.284  0.7292 -0.1441 -2.8548
  332MOL0     H44805   9.133   8.069   2.429  2.1277  2.2156  0.1613
  332MOL0     H44806   7.676   8.126   3.525  0.8503 -0.2464  2.9385
  332MOL0     H44807   7.440   8.086   3.596 -0.6837 -0.6321  0.3059
  332MOL0     H44808   7.187   7.819   3.821 -0.2703  0.6739  0.9540
  332MOL0     H44809   7.011   7.698   3.965 -0.8032 -0.3984  0.5327
  332MOL0     H44810   6.786   7.432   3.781  1.7768 -2.9462  3.9190
  332MOL0     H44811   6.689   7.426   3.931  0.0135  0.9184  1.0831
  332MOL0     H44812   6.532   7.447   3.728  3.1912  0.3089 -4.5135
  332MOL0     H44813   6.634   7.561   3.664 -0.8970  1.7700 -0.0250
  332MOL0     H44814   6.589   7.719   3.827 -0.6829 -0.1094  1.1838
  332MOL0     H44815   6.488   7.593   3.909 -3.1260  0.8281  0.2893
  332MOL0     H44816   6.351   7.589   3.699  0.3656  1.0361 -1.8396
  332MOL0     H44817   6.454   7.710   3.616  1.7406  1.5198  1.1600
  332MOL0     H44818   6.215   7.980   3.803 -1.7179 -0.4908  1.8666
  332MOL0     H44819   6.815   7.608   3.597  1.8260  2.3100 -4.2160
  332MOL0     H44820   6.997   7.686   3.469  1.0209  2.2669  0.4866
  333MOL0     O44821   6.712   9.098  11.010 -0.4907 -1.1006  0.4512
  333MOL0     C44822   6.777   8.999  10.966  0.7533  0.2004  0.0607
  333MOL0     O44823   6.722   8.909  10.878  0.0714  0.2234  0.0676
  333MOL0     C44824   6.582   8.896  10.862  0.8895 -0.0336 -0.6926
  333MOL0     C44825   6.481   8.931  10.960  0.3205  0.6113 -0.1746
  333MOL0     C44826   6.342   8.928  10.925 -0.1921  0.5098  0.2885
  333MOL0     C44827   6.307   8.873  10.797 -0.3851  0.6043  0.4304
  333MOL0     O44828   6.183   8.858  10.744 -0.3180 -0.6447 -0.1946
  333MOL0     C44829   6.106   8.978  10.749 -0.2960 -0.0428 -0.4703
  333MOL0     C44830   5.961   8.940  10.743 -0.0387  0.1053  0.0337
  333MOL0     C44831   5.876   9.072  10.733 -0.2292  0.1762  0.0601
  333MOL0     C44832   5.746   9.045  10.661 -0.5910  0.9495 -0.5765
  333MOL0     C44833   5.651   8.949  10.734 -0.3064 -0.6897 -0.1298
  333MOL0     C44834   5.494   8.987  10.720 -0.4153  0.0660  0.1212
  333MOL0     C44835   5.441   8.963  10.572 -0.5473  0.0158 -0.0234
  333MOL0     C44836   5.294   8.970  10.580 -0.4861  0.0200  0.8875
  333MOL0     N44837   5.234   9.092  10.639 -0.7129 -0.0703  0.2099
  333MOL0     C44838   5.202   9.116  10.770  0.0298  0.0585  0.6151
  333MOL0     C44839   5.163   9.241  10.778 -0.8977  0.0791  0.4664
  333MOL0     C44840   5.120   9.314  10.906 -0.2407  0.8972 -0.4945
  333MOL0     C44841   5.247   9.350  10.996  0.2258  0.1838 -0.0957
  333MOL0     C44842   5.355   9.426  10.906 -0.5997 -0.1546  0.0240
  333MOL0     C44843   5.478   9.456  10.998 -1.0096  0.6665  0.5189
  333MOL0     O44844   5.454   9.560  11.104 -0.2759 -0.1619  0.2898
  333MOL0     C44845   5.564   9.622  11.154 -0.4881  0.1086  0.4961
  333MOL0     C44846   5.569   9.754  11.185 -0.0565  0.3606 -1.1803
  333MOL0     C44847   5.678   9.817  11.256 -0.1000 -0.2577  0.4521
  333MOL0     C44848   5.671   9.965  11.273  0.6213 -0.1995  0.0477
  333MOL0     C44849   5.790   9.743  11.291  0.2135 -0.4255  0.2748
  333MOL0     C44850   5.910   9.792  11.365  0.3655  0.1041  0.9842
  333MOL0     O44851   5.948   9.721  11.477  0.3003  1.3903 -0.2264
  333MOL0     C44852   6.027   9.776  11.577  0.4876 -0.1198 -0.9402
  333MOL0     C44853   6.092   9.686  11.660  0.4115  0.2670  0.3318
  333MOL0     C44854   6.182   9.727  11.759 -1.0034  0.0164 -0.2629
  333MOL0     C44855   6.202   9.862  11.794 -0.4651  0.0051  0.1258
  333MOL0     O44856   6.292   9.909  11.882  0.1204  0.4255 -0.3284
  333MOL0     C44857   6.413   9.827  11.922 -0.4559  0.6425  0.2523
  333MOL0     C44858   6.525   9.907  11.978  0.0134 -0.1690 -0.1894
  333MOL0     C44859   6.651   9.819  12.016 -0.4181 -0.3751 -0.6805
  333MOL0     C44860   6.759   9.803  11.907 -0.0474 -0.0870 -0.0686
  333MOL0     C44861   6.867   9.707  11.960 -0.7081 -0.5768  0.0401
  333MOL0     C44862   6.810   9.567  11.982  0.1424  0.3369 -0.3897
  333MOL0     C44863   6.910   9.448  11.976  0.7373 -0.0267  0.9449
  333MOL0     C44864   6.837   9.316  12.020 -0.1155 -0.0447  0.6651
  333MOL0    Cl44865   6.951   9.189  11.978 -0.0818  0.3695  0.3180
  333MOL0     C44866   6.133   9.955  11.716  0.2087 -0.9044 -0.2260
  333MOL0     C44867   6.046   9.916  11.606  0.1046  0.1166  0.2675
  333MOL0     O44868   5.974   9.883  11.316  0.1551 -0.7786  0.0602
  333MOL0     C44869   5.775   9.605  11.273  0.9890 -0.6589  0.5944
  333MOL0     C44870   5.674   9.544  11.193 -0.2085 -0.3082  0.2210
  333MOL0     N44871   5.153   9.287  10.650  1.2038 -0.1424 -0.1238
  333MOL0     N44872   5.189   9.196  10.566 -0.2203 -0.9601  0.0574
  333MOL0     C44873   6.408   8.822  10.713 -0.0716  0.3671 -0.1256
  333MOL0     C44874   6.550   8.832  10.744 -0.0129  0.0452 -0.3616
  333MOL0     C44875   6.917   8.981  11.003  0.3028  0.4263 -0.0990
  333MOL0     C44876   6.998   8.918  10.905 -0.4017  0.0341  0.0572
  333MOL0     C44877   7.140   8.892  10.945  0.9261 -0.3849 -0.0324
  333MOL0     C44878   7.188   8.927  11.071 -0.1425 -0.3370 -0.1858
  333MOL0     O44879   7.316   8.895  11.095 -0.2836 -0.6436  0.2304
  333MOL0     C44880   7.385   9.018  11.130 -0.4486  1.0484 -0.9056
  333MOL0     C44881   7.539   8.993  11.113  0.7178 -0.7003 -0.7416
  333MOL0     C44882   7.574   9.012  10.962 -0.6084  0.8831  0.0124
  333MOL0     C44883   7.721   8.993  10.940 -0.1213  0.0539  0.0644
  333MOL0     C44884   7.742   8.946  10.799 -0.6051  0.6986 -0.0034
  333MOL0     C44885   7.765   8.898  10.685  0.5298  0.1781 -0.0277
  333MOL0     C44886   7.105   9.002  11.154 -0.3999  0.1555  0.2122
  333MOL0     C44887   6.975   9.030  11.117  0.3340 -0.2046  0.0485
  333MOL0     H44888   6.503   8.954  11.064  1.6338 -1.1613 -0.0066
  333MOL0     H44889   6.278   8.976  10.998 -0.2931  0.2379  0.3823
  333MOL0     H44890   6.119   9.040  10.838  0.6125  0.5888 -1.0180
  333MOL0     H44891   6.137   9.034  10.660 -1.5598 -1.8268 -2.1255
  333MOL0     H44892   5.945   8.879  10.654 -3.0360 -0.8279  1.0965
  333MOL0     H44893   5.922   8.883  10.827 -2.7848  0.2348 -1.0471
  333MOL0     H44894   5.860   9.126  10.827  4.0112  3.3184 -0.7607
  333MOL0     H44895   5.927   9.142  10.667 -0.7139  2.1728  1.7070
  333MOL0     H44896   5.683   9.134  10.659 -3.5490 -0.9932 -1.2093
  333MOL0     H44897   5.768   9.017  10.557  0.2056  2.9695 -0.9910
  333MOL0     H44898   5.659   8.846  10.699  1.3475  0.3871 -3.2709
  333MOL0     H44899   5.679   8.963  10.839  0.9277 -0.1405 -0.5117
  333MOL0     H44900   5.442   8.921  10.790  0.4601 -1.5984 -0.7489
  333MOL0     H44901   5.475   9.093  10.738 -0.8799  0.0836 -0.4583
  333MOL0     H44902   5.487   9.036  10.505  0.9967 -0.8419  0.0467
  333MOL0     H44903   5.476   8.863  10.544  0.1561  0.5857 -1.2554
  333MOL0     H44904   5.246   8.890  10.638 -2.0800 -0.8073 -1.4146
  333MOL0     H44905   5.246   8.964  10.482 -1.2060 -0.9171  1.2792
  333MOL0     H44906   5.205   9.055  10.860  1.9181 -2.5654 -1.0702
  333MOL0     H44907   5.049   9.394  10.885 -2.6605 -1.1074 -0.4682
  333MOL0     H44908   5.061   9.245  10.968 -1.9796  1.2575 -1.6785
  333MOL0     H44909   5.289   9.266  11.052 -0.0819  1.1412  1.6322
  333MOL0     H44910   5.216   9.421  11.073 -1.2241 -0.9377  0.4088
  333MOL0     H44911   5.319   9.518  10.859 -0.8000 -0.3296 -0.1632
  333MOL0     H44912   5.380   9.371  10.815 -1.7982  0.0785 -0.4659
  333MOL0     H44913   5.554   9.492  10.929 -1.2825 -2.3273 -1.5526
  333MOL0     H44914   5.506   9.358  11.036 -2.4416  0.5376  1.3091
  333MOL0     H44915   5.478   9.812  11.179 -0.8818 -0.7890 -0.3826
  333MOL0     H44916   5.753  10.007  11.330  1.5524  2.8808 -3.1913
  333MOL0     H44917   5.657  10.018  11.178 -1.0278  2.6615  1.7475
  333MOL0     H44918   5.577   9.991  11.323 -0.1991 -1.5701 -0.6982
  333MOL0     H44919   6.067   9.582  11.639 -1.1098  0.1191  2.5347
  333MOL0     H44920   6.239   9.656  11.818 -2.5419 -0.0104  1.2660
  333MOL0     H44921   6.385   9.750  11.994  2.3317 -2.4629 -1.6746
  333MOL0     H44922   6.453   9.772  11.836 -1.2790 -0.3321  0.4809
  333MOL0     H44923   6.556   9.989  11.913  0.6334 -1.7353 -1.9629
  333MOL0     H44924   6.499   9.961  12.069 -1.4154 -0.3678 -0.4580
  333MOL0     H44925   6.622   9.720  12.054  0.4500 -0.1512  0.6439
  333MOL0     H44926   6.696   9.859  12.107  0.0573  3.2130 -2.3338
  333MOL0     H44927   6.712   9.767  11.815 -2.2572 -2.0567  1.6961
  333MOL0     H44928   6.806   9.898  11.881  0.0422 -0.7986 -2.8777
  333MOL0     H44929   6.916   9.758  12.044 -0.8186 -1.1859  0.4882
  333MOL0     H44930   6.946   9.688  11.887 -1.8656 -3.2855 -0.6467
  333MOL0     H44931   6.767   9.567  12.083  4.0273 -1.5847  1.4726
  333MOL0     H44932   6.745   9.535  11.900  1.4790 -1.3564 -0.8480
  333MOL0     H44933   6.986   9.461  12.053 -0.8619  1.9418  2.2705
  333MOL0     H44934   6.942   9.434  11.872  1.2429  2.0911  0.7794
  333MOL0     H44935   6.753   9.294  11.954  0.6287 -1.1481  0.0604
  333MOL0     H44936   6.806   9.315  12.125 -0.4097  0.4887  0.5863
  333MOL0     H44937   6.142  10.063  11.731  0.2477 -0.7499 -1.2983
  333MOL0     H44938   6.004   9.995  11.544 -0.5897 -0.4168  0.0450
  333MOL0     H44939   5.855   9.538  11.303  2.3406  0.7124  0.2011
  333MOL0     H44940   5.670   9.436  11.181 -3.8365 -0.0953 -2.0611
  333MOL0     H44941   6.381   8.774  10.619 -2.5998  1.1411  0.1070
  333MOL0     H44942   6.619   8.801  10.666  0.4782 -0.4304  0.2586
  333MOL0     H44943   6.950   8.891  10.811  0.8970  1.6716 -1.1394
  333MOL0     H44944   7.203   8.825  10.887 -0.8705 -1.9579 -0.2821
  333MOL0     H44945   7.346   9.105  11.077  0.4263  3.4844  2.1528
  333MOL0     H44946   7.372   9.019  11.239 -0.2264 -2.3092 -0.7300
  333MOL0     H44947   7.571   8.897  11.156  0.2170 -0.1083  1.0552
  333MOL0     H44948   7.591   9.064  11.178  1.0350 -2.5189  1.1176
  333MOL0     H44949   7.525   9.103  10.926 -2.1487 -0.0136 -0.2203
  333MOL0     H44950   7.531   8.931  10.903  0.1185 -0.0228  0.6901
  333MOL0     H44951   7.764   8.926  11.015 -1.4821  2.1474  2.8985
  333MOL0     H44952   7.767   9.091  10.955  0.0751  0.1995 -1.4246
  333MOL0     H44953   7.792   8.857  10.590  2.2719  2.3836 -0.5480
  333MOL0     H44954   7.148   9.039  11.247  0.7955  0.3842 -0.4166
  333MOL0     H44955   6.909   9.091  11.177 -1.7516 -3.0447  0.8787
  334MOL0     O44956  10.056   3.075   4.045  0.6264 -0.3773  0.1321
  334MOL0     C44957  10.013   3.147   4.135  0.0164  0.3567  0.0164
  334MOL0     O44958  10.086   3.218   4.228 -0.5158  0.2850 -0.1271
  334MOL0     C44959  10.227   3.211   4.224 -0.3883 -0.0474 -0.0693
  334MOL0     C44960  10.306   3.205   4.109  0.1149 -0.2778 -0.1728
  334MOL0     C44961  10.444   3.181   4.111 -0.4962 -0.9016  0.4958
  334MOL0     C44962  10.502   3.161   4.239 -0.0691  0.3390  0.1213
  334MOL0     O44963  10.637   3.154   4.261 -0.3507 -0.5564 -0.2389
  334MOL0     C44964  10.746   3.157   4.166  0.8652  0.1520 -0.4056
  334MOL0     C44965  10.770   3.015   4.114 -0.1330  0.0008  0.2633
  334MOL0     C44966  10.902   3.003   4.019 -0.3981  0.2537 -0.4573
  334MOL0     C44967  11.013   3.104   4.063 -0.0239 -0.4283  0.4565
  334MOL0     C44968  11.153   3.078   3.994  0.8695  0.7702 -0.4161
  334MOL0     C44969  11.172   3.036   3.844 -0.1814 -0.3306  0.4714
  334MOL0     C44970  11.309   3.070   3.786  0.1556  0.3517  0.4205
  334MOL0     C44971  11.424   2.994   3.835 -0.5168 -0.0567 -0.0770
  334MOL0     N44972  11.551   3.062   3.834 -0.7278  0.3730 -0.6186
  334MOL0     C44973  11.659   3.010   3.909  0.2572 -0.7150 -0.6566
  334MOL0     C44974  11.761   3.097   3.885  0.1293  0.0129  0.4645
  334MOL0     C44975  11.896   3.091   3.934 -0.4367  0.3830 -0.0747
  334MOL0     C44976  11.961   3.228   3.980  0.6061  0.1078 -0.1991
  334MOL0     C44977  11.915   3.266   4.127 -0.6252  0.3869  0.1579
  334MOL0     C44978  11.774   3.294   4.133  0.6098 -0.2289 -0.3864
  334MOL0     O44979  11.734   3.340   4.264  0.4209  0.1125 -0.2064
  334MOL0     C44980  11.593   3.371   4.278 -0.0958  1.0156  0.0581
  334MOL0     C44981  11.554   3.401   4.409 -0.5551  0.8523  0.6421
  334MOL0     C44982  11.417   3.431   4.450 -0.0893 -0.7612  0.0765
  334MOL0     C44983  11.398   3.456   4.596 -0.0868 -0.7384 -0.0625
  334MOL0     C44984  11.320   3.440   4.348 -0.2673 -0.7930  0.7039
  334MOL0     C44985  11.179   3.474   4.366 -0.4091  0.2582 -1.0392
  334MOL0     O44986  11.095   3.503   4.254  0.1831 -0.0369 -0.1501
  334MOL0     C44987  10.977   3.556   4.295  0.4109  0.3747 -0.7988
  334MOL0     C44988  10.959   3.667   4.377  0.4919 -0.7856  1.4980
  334MOL0     C44989  10.831   3.716   4.410 -0.3082  0.3160 -0.0319
  334MOL0     C44990  10.722   3.651   4.360 -0.3844  0.5156 -0.4428
  334MOL0     O44991  10.601   3.704   4.400  0.0744 -0.1420  0.0912
  334MOL0     C44992  10.485   3.626   4.373  0.6670  0.3667 -0.1027
  334MOL0     C44993  10.369   3.694   4.422 -0.9589  0.0659 -0.8051
  334MOL0     C44994  10.250   3.609   4.373  0.2437 -0.3280  0.2971
  334MOL0     C44995  10.118   3.653   4.441  0.0457  0.6839 -0.0918
  334MOL0     C44996   9.988   3.602   4.372 -0.2284  0.0962 -0.7454
  334MOL0     C44997   9.874   3.662   4.443  0.1533  0.3168  0.3436
  334MOL0     C44998   9.748   3.589   4.399 -0.3023 -0.2169  0.0340
  334MOL0     C44999   9.626   3.609   4.484 -0.1064 -0.7086 -0.0878
  334MOL0    Cl45000   9.613   3.782   4.533 -0.3604  0.2113 -1.0069
  334MOL0     C45001  10.734   3.534   4.285 -0.6323  1.0158  0.0147
  334MOL0     C45002  10.865   3.487   4.251  1.4237 -0.0031 -0.5141
  334MOL0     O45003  11.140   3.475   4.484  0.0286 -0.2747 -0.0392
  334MOL0     C45004  11.360   3.418   4.214 -0.0923  0.3798  0.5757
  334MOL0     C45005  11.494   3.386   4.177 -0.5067  0.3836  0.3619
  334MOL0     N45006  11.712   3.201   3.812 -0.0977 -0.1211 -0.1939
  334MOL0     N45007  11.587   3.178   3.786 -0.5718 -0.2723  0.6409
  334MOL0     C45008  10.424   3.161   4.351  1.1972 -0.7861  0.0276
  334MOL0     C45009  10.295   3.201   4.350  0.1450  0.4481  0.5319
  334MOL0     C45010   9.863   3.154   4.155  0.1415  0.0154 -0.3922
  334MOL0     C45011   9.759   3.107   4.067  0.4592  0.5108 -0.5573
  334MOL0     C45012   9.631   3.102   4.110  1.4584 -0.4400  1.0190
  334MOL0     C45013   9.588   3.153   4.236 -0.4468 -0.2373  0.6032
  334MOL0     O45014   9.464   3.170   4.292 -0.2865 -0.2900  0.4508
  334MOL0     C45015   9.352   3.119   4.226 -0.8619 -0.0700  0.2051
  334MOL0     C45016   9.242   3.096   4.326  0.6596 -0.1685 -0.3081
  334MOL0     C45017   9.249   2.990   4.442 -0.2033 -0.0550  0.2999
  334MOL0     C45018   9.187   3.042   4.569 -0.7688 -0.4333 -0.0585
  334MOL0     C45019   9.044   3.071   4.569 -0.8099  0.0333  0.1441
  334MOL0     C45020   8.928   3.091   4.572  0.0123 -1.5593 -0.4330
  334MOL0     C45021   9.682   3.212   4.311 -0.1723 -1.1015  0.1276
  334MOL0     C45022   9.817   3.206   4.281 -0.3733 -0.8530  0.0323
  334MOL0     H45023  10.252   3.209   4.015 -0.9699 -1.7953  0.3375
  334MOL0     H45024  10.500   3.193   4.019  0.6184 -1.8421  1.0286
  334MOL0     H45025  10.728   3.228   4.085  0.7787 -0.4441 -0.9225
  334MOL0     H45026  10.843   3.176   4.213  2.6303  0.3926 -3.7922
  334MOL0     H45027  10.786   2.958   4.207 -0.2229  0.7827  0.7639
  334MOL0     H45028  10.688   2.966   4.061  1.7962 -2.6930 -0.4664
  334MOL0     H45029  10.935   2.898   4.016  0.7633  0.5719  0.4444
  334MOL0     H45030  10.863   3.022   3.919 -0.5613 -2.6449 -1.0554
  334MOL0     H45031  10.989   3.210   4.050 -0.5684 -0.3010  2.2215
  334MOL0     H45032  11.021   3.102   4.172 -3.0668 -1.2377  0.7479
  334MOL0     H45033  11.203   3.175   4.004 -0.3106  1.2053  2.0456
  334MOL0     H45034  11.196   3.002   4.060  0.0015  0.3593 -0.3075
  334MOL0     H45035  11.140   2.932   3.834 -1.3092 -0.7438  5.5651
  334MOL0     H45036  11.101   3.097   3.787  2.7533  1.6601 -1.3498
  334MOL0     H45037  11.311   3.049   3.679 -1.0391 -2.8200  0.8992
  334MOL0     H45038  11.336   3.175   3.794  0.8406  0.1324  1.1449
  334MOL0     H45039  11.439   2.908   3.770  2.2203 -0.1004  0.4803
  334MOL0     H45040  11.403   2.952   3.933 -3.7782 -1.9128 -1.4240
  334MOL0     H45041  11.672   2.915   3.959  3.1138 -0.3344 -0.5241
  334MOL0     H45042  11.898   3.013   4.010 -1.2620 -0.4074 -0.8441
  334MOL0     H45043  11.961   3.058   3.852 -2.1186  0.7943 -1.6370
  334MOL0     H45044  11.941   3.321   3.926 -1.6226 -1.0054 -1.4135
  334MOL0     H45045  12.070   3.220   3.970  0.8054  1.2457  0.8077
  334MOL0     H45046  11.970   3.357   4.151  2.0295 -0.9867 -0.3076
  334MOL0     H45047  11.950   3.177   4.180 -0.1612 -2.5762 -4.5435
  334MOL0     H45048  11.720   3.203   4.109 -1.4109 -0.4072  3.9266
  334MOL0     H45049  11.744   3.380   4.072 -0.4587  0.0217  0.4696
  334MOL0     H45050  11.634   3.390   4.482 -0.1854  2.5318  0.5219
  334MOL0     H45051  11.347   3.376   4.651 -1.1672 -0.0797 -0.0877
  334MOL0     H45052  11.491   3.472   4.650 -0.1786  2.7711 -0.7071
  334MOL0     H45053  11.342   3.548   4.613  2.2286  0.4788  1.5306
  334MOL0     H45054  11.045   3.723   4.410  0.1185  1.5428 -1.1123
  334MOL0     H45055  10.819   3.815   4.454  0.7807 -0.0848  1.2176
  334MOL0     H45056  10.473   3.619   4.265 -0.1280  0.7528 -0.0463
  334MOL0     H45057  10.483   3.524   4.413 -1.8899 -0.5204 -2.2063
  334MOL0     H45058  10.389   3.698   4.530  0.5299 -2.2391 -0.9189
  334MOL0     H45059  10.363   3.794   4.380  0.6650 -0.0116 -1.2964
  334MOL0     H45060  10.277   3.504   4.391  0.0709 -1.0196 -2.7853
  334MOL0     H45061  10.230   3.605   4.265 -1.8986 -1.4140  0.6805
  334MOL0     H45062  10.114   3.616   4.544  1.7250 -2.0786 -0.9432
  334MOL0     H45063  10.118   3.763   4.444 -0.4312  0.7041  3.6226
  334MOL0     H45064   9.988   3.493   4.374  0.2271  0.0732 -1.7388
  334MOL0     H45065   9.998   3.645   4.272 -1.6668 -1.2728 -1.5069
  334MOL0     H45066   9.884   3.641   4.550 -0.4603  1.3559  0.6141
  334MOL0     H45067   9.882   3.770   4.435  1.2865  0.6705  4.2406
  334MOL0     H45068   9.767   3.483   4.382 -0.4546  0.3355 -4.8560
  334MOL0     H45069   9.715   3.626   4.302 -2.3504 -2.3159 -0.1524
  334MOL0     H45070   9.630   3.550   4.576  0.8309 -0.7547 -0.1429
  334MOL0     H45071   9.538   3.578   4.428 -0.1534 -1.8882  0.6273
  334MOL0     H45072  10.643   3.499   4.237 -1.3852  2.0932  0.6064
  334MOL0     H45073  10.870   3.405   4.179  0.7477  0.0417 -0.6225
  334MOL0     H45074  11.284   3.421   4.136 -1.1389 -3.5009  1.2068
  334MOL0     H45075  11.509   3.363   4.072 -0.3511 -1.0763  0.6781
  334MOL0     H45076  10.480   3.147   4.443  5.7749  1.5434 -2.0850
  334MOL0     H45077  10.233   3.223   4.437 -2.6798  0.5357 -1.3869
  334MOL0     H45078   9.798   3.073   3.972 -0.3273 -1.0263 -0.3686
  334MOL0     H45079   9.554   3.053   4.052 -0.8033 -0.1866  3.5916
  334MOL0     H45080   9.318   3.185   4.147  1.2859  1.3628  0.3864
  334MOL0     H45081   9.379   3.019   4.191 -0.1089  1.2628 -3.4561
  334MOL0     H45082   9.150   3.079   4.268 -1.3464  3.6828  1.3589
  334MOL0     H45083   9.229   3.192   4.377  0.0008 -0.7931  0.7464
  334MOL0     H45084   9.353   2.960   4.459  0.0055  1.1139  1.2468
  334MOL0     H45085   9.186   2.905   4.416 -1.5747  1.1087 -0.3216
  334MOL0     H45086   9.238   3.131   4.608 -0.9918 -0.2819 -0.1099
  334MOL0     H45087   9.209   2.954   4.630  1.0843  1.4679  2.1981
  334MOL0     H45088   8.824   3.116   4.566  0.1934  0.5308  2.6778
  334MOL0     H45089   9.651   3.262   4.402 -0.5119  0.1532 -0.6483
  334MOL0     H45090   9.884   3.254   4.352  0.0047 -2.3319  0.7163
  335MOL0     O45091  11.375   7.207  10.949  0.2197  0.3516  0.1894
  335MOL0     C45092  11.284   7.290  10.951  0.2347  0.8572  0.8986
  335MOL0     O45093  11.153   7.255  10.941 -0.4972  0.2170 -0.0258
  335MOL0     C45094  11.106   7.124  10.963  0.4826  0.4752  0.3575
  335MOL0     C45095  11.143   7.047  11.079 -0.3265  0.1796 -0.3061
  335MOL0     C45096  11.082   6.920  11.112 -0.2425 -0.3094  0.5383
  335MOL0     C45097  10.979   6.876  11.024 -0.1593  0.4210 -0.0267
  335MOL0     O45098  10.918   6.762  11.058  0.3239 -0.3567  0.3131
  335MOL0     C45099  10.772   6.763  11.024  0.3555  0.2568  0.3323
  335MOL0     C45100  10.709   6.641  11.089  0.1459  0.1971  0.0448
  335MOL0     C45101  10.682   6.676  11.237  0.3498  0.1784  0.4423
  335MOL0     C45102  10.805   6.666  11.325 -0.3973  0.0971 -1.0411
  335MOL0     C45103  10.839   6.518  11.378  0.5041 -0.6660  0.2945
  335MOL0     C45104  10.929   6.516  11.501 -1.7684 -0.2412 -0.1284
  335MOL0     C45105  11.077   6.546  11.466  0.0507  0.2035  0.4455
  335MOL0     C45106  11.175   6.468  11.553  0.2213 -0.2717  0.0714
  335MOL0     N45107  11.211   6.343  11.497 -0.1444 -0.0334  0.7439
  335MOL0     C45108  11.130   6.245  11.448 -0.3123 -0.0351 -0.3516
  335MOL0     C45109  11.211   6.142  11.413  0.5460  0.0622  0.2354
  335MOL0     C45110  11.167   6.002  11.379  1.3171 -1.3317  0.0146
  335MOL0     C45111  11.053   5.963  11.472 -0.3611 -0.4857  0.3163
  335MOL0     C45112  11.058   5.810  11.494  0.4565  0.1373  0.8067
  335MOL0     C45113  10.918   5.757  11.553  0.0014  0.3465  0.0647
  335MOL0     O45114  10.898   5.812  11.681  0.4928 -0.0009 -0.5485
  335MOL0     C45115  10.785   5.890  11.702  1.0192 -0.3128  0.2788
  335MOL0     C45116  10.786   6.024  11.666  0.7174 -0.0437  0.4817
  335MOL0     C45117  10.676   6.115  11.697 -0.5670  0.5711 -0.4721
  335MOL0     C45118  10.703   6.256  11.653  0.7141 -0.5832 -0.1516
  335MOL0     C45119  10.567   6.058  11.769  0.5243  0.2165 -0.3304
  335MOL0     C45120  10.455   6.133  11.809 -0.8609 -0.6580 -0.0334
  335MOL0     O45121  10.348   6.054  11.839  0.6267 -0.2962  0.0896
  335MOL0     C45122  10.239   6.113  11.913 -0.4148  0.5989  0.0725
  335MOL0     C45123  10.268   6.177  12.034 -0.7901  0.0113  0.2013
  335MOL0     C45124  10.165   6.241  12.102 -0.0690 -0.0497 -0.1489
  335MOL0     C45125  10.034   6.248  12.054 -0.1635  0.1510 -0.6656
  335MOL0     O45126   9.925   6.327  12.109 -0.3923 -0.5469 -0.6606
  335MOL0     C45127   9.927   6.334  12.247 -0.6478 -0.2040 -0.5737
  335MOL0     C45128   9.880   6.208  12.320  0.4803  0.0266  0.3254
  335MOL0     C45129   9.896   6.233  12.474 -0.4373 -0.4552  0.3251
  335MOL0     C45130   9.838   6.108  12.546  0.4979 -0.2521 -0.9591
  335MOL0     C45131   9.693   6.126  12.586 -0.4056  0.2971 -0.4059
  335MOL0     C45132   9.636   5.991  12.628  0.8172  0.9547 -0.0060
  335MOL0     C45133   9.483   6.008  12.685 -0.4871 -0.0392  0.1201
  335MOL0     C45134   9.406   5.876  12.678 -0.0096  0.2608 -0.3972
  335MOL0    Cl45135   9.424   5.778  12.828 -0.1610 -0.1963  0.3484
  335MOL0     C45136  10.013   6.165  11.943  0.2002  0.0206  0.3161
  335MOL0     C45137  10.112   6.096  11.867  0.2792  0.1270 -0.3087
  335MOL0     O45138  10.461   6.252  11.822 -0.4024 -0.4516  0.9212
  335MOL0     C45139  10.571   5.920  11.803 -0.0705 -0.1279  0.2814
  335MOL0     C45140  10.674   5.840  11.763 -0.0138  0.3428 -0.2594
  335MOL0     N45141  11.338   6.172  11.432  0.3885 -0.8007 -0.3075
  335MOL0     N45142  11.337   6.300  11.472  0.6428  1.0902  0.2406
  335MOL0     C45143  10.942   6.948  10.912  0.1212  0.3868 -0.4876
  335MOL0     C45144  11.001   7.070  10.876 -0.3004 -0.3539  0.7150
  335MOL0     C45145  11.322   7.426  10.924  0.3225  0.8204  0.3498
  335MOL0     C45146  11.233   7.530  10.945 -0.6331  1.5390 -0.1928
  335MOL0     C45147  11.272   7.660  10.950  0.2813  0.2163  1.1233
  335MOL0     C45148  11.398   7.703  10.908  0.0081  0.3852  0.6320
  335MOL0     O45149  11.415   7.842  10.889 -0.1605  0.1622  0.3882
  335MOL0     C45150  11.549   7.879  10.851 -0.8784 -0.9202  0.0435
  335MOL0     C45151  11.582   8.035  10.849  0.4656  0.3565  0.7986
  335MOL0     C45152  11.735   8.075  10.848  0.0718  0.2159 -0.1611
  335MOL0     C45153  11.744   8.224  10.839 -0.1216  0.0936 -0.4324
  335MOL0     C45154  11.883   8.256  10.817  0.4828 -0.9014 -0.7399
  335MOL0     C45155  12.001   8.284  10.782 -0.1607  0.3394 -0.5057
  335MOL0     C45156  11.488   7.603  10.872 -0.2409 -0.0102 -1.0844
  335MOL0     C45157  11.452   7.466  10.881  1.3716  0.5093  0.3803
  335MOL0     H45158  11.229   7.080  11.136 -1.6739 -0.0715  1.9622
  335MOL0     H45159  11.108   6.857  11.196  0.5597  0.7054  1.0820
  335MOL0     H45160  10.720   6.852  11.059 -0.0556  0.7223 -1.3744
  335MOL0     H45161  10.763   6.750  10.915  1.8799 -3.0097  0.4711
  335MOL0     H45162  10.613   6.614  11.044 -0.0183  0.2062  0.3905
  335MOL0     H45163  10.779   6.557  11.088 -1.0621 -0.9113  1.6688
  335MOL0     H45164  10.634   6.774  11.245  1.5424  0.7719  0.4946
  335MOL0     H45165  10.606   6.608  11.276  0.0391 -0.9981 -1.9938
  335MOL0     H45166  10.901   6.704  11.290 -1.0994  2.6436 -0.3931
  335MOL0     H45167  10.784   6.736  11.406  1.1227  2.9500 -2.9600
  335MOL0     H45168  10.745   6.465  11.398  0.1420 -0.8513 -1.7491
  335MOL0     H45169  10.889   6.473  11.292 -1.6931 -0.8842 -0.9390
  335MOL0     H45170  10.895   6.577  11.585  0.0521 -1.3435  1.4892
  335MOL0     H45171  10.926   6.418  11.549  1.7077  0.6053  2.2401
  335MOL0     H45172  11.096   6.534  11.359 -1.3936 -0.3562  0.2313
  335MOL0     H45173  11.094   6.654  11.474 -1.6089  0.6275 -1.0890
  335MOL0     H45174  11.122   6.445  11.646 -2.5413  1.3146 -0.9917
  335MOL0     H45175  11.258   6.534  11.580 -1.2250  0.9147  1.8705
  335MOL0     H45176  11.021   6.244  11.441 -0.3380  2.0226 -0.6322
  335MOL0     H45177  11.130   5.994  11.277 -2.9479 -1.1419  1.3827
  335MOL0     H45178  11.261   5.947  11.391  1.7535 -0.4948  0.5360
  335MOL0     H45179  10.962   5.995  11.420  0.2074  0.0510 -0.3726
  335MOL0     H45180  11.055   6.011  11.570  0.2348 -3.8562  2.0991
  335MOL0     H45181  11.151   5.790  11.549  2.0960  0.9650 -1.5087
  335MOL0     H45182  11.068   5.758  11.398 -1.1962 -1.4822  1.4402
  335MOL0     H45183  10.923   5.648  11.557  0.3147  0.3352 -0.5813
  335MOL0     H45184  10.833   5.784  11.491 -0.5303 -0.7934  0.2919
  335MOL0     H45185  10.874   6.065  11.617 -1.9204  4.1005 -1.3142
  335MOL0     H45186  10.754   6.311  11.733 -0.1420 -1.7727  1.2880
  335MOL0     H45187  10.768   6.257  11.565  2.6091  0.7631  1.1932
  335MOL0     H45188  10.605   6.297  11.626 -0.0444 -2.1379  0.1062
  335MOL0     H45189  10.365   6.164  12.079  0.3233  2.9530 -1.1328
  335MOL0     H45190  10.176   6.287  12.199  1.7313 -2.1963  0.7502
  335MOL0     H45191  10.025   6.361  12.289 -1.1176 -1.6260  1.5796
  335MOL0     H45192   9.853   6.412  12.266 -0.8323 -0.7120  0.9268
  335MOL0     H45193   9.775   6.192  12.297  0.9801  0.0584 -2.2352
  335MOL0     H45194   9.945   6.123  12.298 -0.3650 -1.1879  2.2373
  335MOL0     H45195   9.840   6.319  12.512  1.9694  2.2228 -1.6832
  335MOL0     H45196  10.001   6.245  12.501  0.1537 -4.7610  0.6305
  335MOL0     H45197   9.852   6.021  12.480  2.2045  1.1946 -2.6318
  335MOL0     H45198   9.879   6.086  12.644  1.4775 -1.0564 -1.5341
  335MOL0     H45199   9.634   6.137  12.495  0.4951  0.0030 -1.0368
  335MOL0     H45200   9.671   6.202  12.662  1.4405  0.0606  0.4166
  335MOL0     H45201   9.626   5.922  12.544  0.6725  0.2513  0.5821
  335MOL0     H45202   9.703   5.940  12.698 -0.1761 -0.6600 -0.1801
  335MOL0     H45203   9.436   6.086  12.623  2.7305  0.8698 -1.4015
  335MOL0     H45204   9.491   6.037  12.790 -4.5320 -2.7076  1.4197
  335MOL0     H45205   9.447   5.815  12.597  1.1807 -1.7960  1.6344
  335MOL0     H45206   9.299   5.891  12.665  0.2081  0.8406 -1.8073
  335MOL0     H45207   9.911   6.145  11.910  0.3641  1.0944 -0.9071
  335MOL0     H45208  10.092   6.034  11.780  2.1168  0.2113 -0.8385
  335MOL0     H45209  10.493   5.867  11.858 -1.2936 -1.0706 -2.2137
  335MOL0     H45210  10.673   5.737  11.797 -0.2062  0.4486  0.0578
  335MOL0     H45211  10.860   6.917  10.848 -0.4255 -0.2920  0.5103
  335MOL0     H45212  10.958   7.128  10.794  1.6944 -0.7387 -0.6797
  335MOL0     H45213  11.136   7.489  10.972  0.1208 -1.2306 -1.2672
  335MOL0     H45214  11.190   7.727  10.976 -1.7742 -1.1361 -1.4342
  335MOL0     H45215  11.615   7.839  10.928 -1.0665 -1.7920 -0.2349
  335MOL0     H45216  11.576   7.831  10.756  0.3917 -0.1215 -0.0227
  335MOL0     H45217  11.524   8.076  10.933 -0.2953  4.8196 -1.5913
  335MOL0     H45218  11.543   8.083  10.759 -0.2484  1.3382  1.5975
  335MOL0     H45219  11.782   8.044  10.755  0.9223  0.9799 -0.0058
  335MOL0     H45220  11.792   8.043  10.936 -1.7190  0.7388  1.2646
  335MOL0     H45221  11.708   8.266  10.933  0.3462 -1.5212  0.4973
  335MOL0     H45222  11.677   8.256  10.758  1.9971  2.9567 -1.2358
  335MOL0     H45223  12.104   8.300  10.756 -0.7224 -0.4115 -3.4919
  335MOL0     H45224  11.586   7.624  10.830  0.0846  1.4826  0.3029
  335MOL0     H45225  11.523   7.387  10.855 -1.0294 -0.9963 -2.1940
  336MOL0     O45226   5.872   0.871   0.431  0.9208  0.2965  0.2028
  336MOL0     C45227   5.914   0.985   0.421  1.1783  0.0133 -0.7706
  336MOL0     O45228   5.831   1.098   0.410 -0.1716  0.3187  0.0155
  336MOL0     C45229   5.707   1.075   0.350 -0.5756 -0.3414 -0.0502
  336MOL0     C45230   5.687   1.116   0.224  0.0935 -0.3276 -0.0296
  336MOL0     C45231   5.562   1.094   0.148 -0.6929  0.2900 -0.3383
  336MOL0     C45232   5.457   1.032   0.222 -0.5974  0.6958  0.3627
  336MOL0     O45233   5.331   1.018   0.174  0.6295 -0.6099 -0.0618
  336MOL0     C45234   5.283   1.069   0.049 -0.2253  0.4478 -0.2485
  336MOL0     C45235   5.132   1.040   0.033 -0.3001  0.1931 -0.3395
  336MOL0     C45236   5.080   1.064  -0.114  0.6293  0.1175 -0.2344
  336MOL0     C45237   4.944   0.995  -0.130 -0.5770  0.4319  0.7191
  336MOL0     C45238   4.891   1.017  -0.274 -0.1677  0.1829 -0.5660
  336MOL0     C45239   4.747   0.972  -0.266  0.5654 -0.1755  0.1556
  336MOL0     C45240   4.705   0.957  -0.412  0.3610 -0.2444 -0.4224
  336MOL0     C45241   4.669   1.092  -0.489  0.0328  0.3785 -0.4187
  336MOL0     N45242   4.626   1.074  -0.631  0.0652 -0.1131 -0.1389
  336MOL0     C45243   4.593   0.952  -0.686 -0.6004 -0.0084  0.7186
  336MOL0     C45244   4.579   0.993  -0.810 -0.2590 -0.1569 -0.8925
  336MOL0     C45245   4.569   0.906  -0.932 -0.2374  0.4703  0.3429
  336MOL0     C45246   4.627   0.983  -1.058  0.4436 -0.4826 -0.1833
  336MOL0     C45247   4.637   0.911  -1.185  0.0045 -0.6099  0.1512
  336MOL0     C45248   4.748   0.813  -1.191 -0.2726 -0.4831  0.0735
  336MOL0     O45249   4.875   0.872  -1.189  0.1733  0.4961 -0.2160
  336MOL0     C45250   4.980   0.788  -1.214 -0.2533  0.5420  0.3173
  336MOL0     C45251   5.105   0.844  -1.247  0.1401  0.5712 -0.9430
  336MOL0     C45252   5.224   0.770  -1.271  0.6986  0.4448  0.6932
  336MOL0     C45253   5.352   0.843  -1.314 -0.0683 -0.4012  0.7749
  336MOL0     C45254   5.213   0.623  -1.260 -0.0724 -0.5708  0.7344
  336MOL0     C45255   5.325   0.536  -1.292  0.3897 -0.0290  0.4908
  336MOL0     O45256   5.293   0.411  -1.279  0.7636  0.5565 -1.0623
  336MOL0     C45257   5.352   0.296  -1.327 -0.5087 -0.1070 -0.1861
  336MOL0     C45258   5.451   0.295  -1.423 -0.3014  0.2587 -0.6394
  336MOL0     C45259   5.497   0.175  -1.468  0.0443  0.4247  1.4661
  336MOL0     C45260   5.433   0.058  -1.444 -1.0961 -1.0448  0.2114
  336MOL0     O45261   5.463  -0.052  -1.504  0.3941 -0.2621 -0.4776
  336MOL0     C45262   5.591  -0.085  -1.549  0.0537 -0.4733  0.2130
  336MOL0     C45263   5.602  -0.241  -1.573  0.2870  0.3335 -0.7025
  336MOL0     C45264   5.603  -0.310  -1.433 -0.1109 -0.8925 -0.4701
  336MOL0     C45265   5.611  -0.461  -1.443 -0.7876  1.2655  0.4054
  336MOL0     C45266   5.606  -0.531  -1.307  0.1275 -0.9926  0.8814
  336MOL0     C45267   5.671  -0.672  -1.302 -0.4160  0.5630 -0.2643
  336MOL0     C45268   5.620  -0.761  -1.413 -0.5114  0.0672  0.2747
  336MOL0     C45269   5.669  -0.903  -1.387  0.4823  0.1198  0.8023
  336MOL0    Cl45270   5.848  -0.910  -1.348 -0.3610 -0.3025 -0.1698
  336MOL0     C45271   5.325   0.058  -1.364 -0.1910  0.3924  0.0398
  336MOL0     C45272   5.291   0.174  -1.294 -0.7343 -0.2289  0.7808
  336MOL0     O45273   5.437   0.578  -1.316 -0.4856 -0.4645 -0.2236
  336MOL0     C45274   5.085   0.562  -1.231 -0.8055 -0.2458 -0.0941
  336MOL0     C45275   4.975   0.645  -1.202  0.1446 -0.7663  0.3648
  336MOL0     N45276   4.600   1.135  -0.832  0.4772 -0.0685  0.3408
  336MOL0     N45277   4.624   1.177  -0.714 -0.4415  0.5573 -0.5148
  336MOL0     C45278   5.480   0.994   0.352  0.1363 -0.5420  0.2396
  336MOL0     C45279   5.604   1.012   0.419  0.9333  0.0091  0.6147
  336MOL0     C45280   6.059   1.010   0.429 -0.6376 -0.6773 -0.8245
  336MOL0     C45281   6.145   0.899   0.448 -0.5467 -0.0130  0.0490
  336MOL0     C45282   6.277   0.921   0.480  0.1218  0.0645  0.2537
  336MOL0     C45283   6.340   1.045   0.476 -0.0478 -0.2384  0.0436
  336MOL0     O45284   6.478   1.054   0.490 -0.0435  0.1938 -0.1222
  336MOL0     C45285   6.534   1.187   0.507  0.0323  0.2143 -0.4981
  336MOL0     C45286   6.671   1.162   0.563 -0.6097 -0.7067  0.3662
  336MOL0     C45287   6.752   1.287   0.572  0.6771 -0.4281  0.2906
  336MOL0     C45288   6.825   1.315   0.437  0.2026  0.1519 -0.2702
  336MOL0     C45289   6.960   1.269   0.440 -0.7778 -0.6807  0.1766
  336MOL0     C45290   7.071   1.216   0.437 -0.0835  0.1753 -0.6944
  336MOL0     C45291   6.257   1.154   0.435 -0.2931 -0.1078  0.0752
  336MOL0     C45292   6.119   1.139   0.407 -0.1838 -0.3764 -0.3955
  336MOL0     H45293   5.770   1.172   0.182 -0.4399  1.2551  0.9289
  336MOL0     H45294   5.539   1.142   0.053 -0.4518 -0.3044 -0.6994
  336MOL0     H45295   5.302   1.177   0.048 -1.6642  0.7541  1.1804
  336MOL0     H45296   5.344   1.023  -0.029  0.8217 -0.6998  1.1965
  336MOL0     H45297   5.110   0.936   0.059  3.0735 -0.0011  2.4815
  336MOL0     H45298   5.073   1.101   0.103  1.3615  1.6402 -0.1186
  336MOL0     H45299   5.070   1.170  -0.139 -0.4861 -0.1548 -0.9952
  336MOL0     H45300   5.153   1.020  -0.183  1.5726 -0.0188  0.8075
  336MOL0     H45301   4.956   0.887  -0.114 -0.4728  0.3114 -0.1136
  336MOL0     H45302   4.873   1.036  -0.057 -1.9165 -0.2647 -0.1496
  336MOL0     H45303   4.897   1.124  -0.296  1.7295 -0.0878 -1.6217
  336MOL0     H45304   4.948   0.966  -0.352 -0.3082 -0.8567 -0.0106
  336MOL0     H45305   4.742   0.872  -0.222  0.6532 -0.4886 -0.5320
  336MOL0     H45306   4.684   1.043  -0.213  0.3538  0.9303 -1.5083
  336MOL0     H45307   4.775   0.892  -0.466 -0.1377 -2.7263  1.7166
  336MOL0     H45308   4.616   0.893  -0.408  0.0776  0.1712  0.1287
  336MOL0     H45309   4.748   1.167  -0.481 -0.8047  1.0900  2.4430
  336MOL0     H45310   4.579   1.136  -0.444  0.6501  1.2954 -0.0513
  336MOL0     H45311   4.601   0.852  -0.644 -0.8739 -0.7663 -0.9741
  336MOL0     H45312   4.626   0.815  -0.915 -2.1726 -0.6186  1.3103
  336MOL0     H45313   4.471   0.876  -0.972  1.0896 -3.8657 -0.1767
  336MOL0     H45314   4.728   1.022  -1.042  0.5346  0.1267 -2.0383
  336MOL0     H45315   4.571   1.075  -1.080 -1.7835 -1.9162 -0.7812
  336MOL0     H45316   4.660   0.983  -1.265 -0.9342  1.3948  1.5819
  336MOL0     H45317   4.537   0.869  -1.197 -1.1347  2.0192 -0.4289
  336MOL0     H45318   4.747   0.756  -1.285 -1.5195 -1.1383  0.4619
  336MOL0     H45319   4.731   0.746  -1.107  1.9717 -2.3580 -0.8637
  336MOL0     H45320   5.104   0.952  -1.264  0.9884  0.6648 -0.4352
  336MOL0     H45321   5.389   0.818  -1.414  1.4521  2.2739  0.5830
  336MOL0     H45322   5.315   0.946  -1.314 -3.3436 -1.4422 -0.8930
  336MOL0     H45323   5.430   0.825  -1.240 -1.9104 -0.3072  2.8565
  336MOL0     H45324   5.498   0.383  -1.466  2.9676 -0.4501  1.1062
  336MOL0     H45325   5.578   0.173  -1.540 -0.5962  1.8748  0.6434
  336MOL0     H45326   5.615  -0.029  -1.639  2.9519  2.7851  2.7081
  336MOL0     H45327   5.659  -0.049  -1.472 -0.1384 -0.2695  0.2903
  336MOL0     H45328   5.510  -0.278  -1.618  0.9646  0.1377 -1.9842
  336MOL0     H45329   5.684  -0.281  -1.634  0.8074 -1.0288  0.8240
  336MOL0     H45330   5.514  -0.280  -1.377  0.4866 -1.2525  0.7207
  336MOL0     H45331   5.693  -0.275  -1.381  0.3402  1.3361 -2.6050
  336MOL0     H45332   5.526  -0.492  -1.505  1.4602 -0.7409 -1.9144
  336MOL0     H45333   5.703  -0.488  -1.496 -1.3104 -1.8773  0.9377
  336MOL0     H45334   5.500  -0.540  -1.279 -0.0651 -1.2508  0.0757
  336MOL0     H45335   5.663  -0.469  -1.237  1.4313 -0.6598 -0.4309
  336MOL0     H45336   5.779  -0.660  -1.304  0.3294 -4.1275 -0.0815
  336MOL0     H45337   5.634  -0.703  -1.204 -2.6383  1.1741 -0.8376
  336MOL0     H45338   5.659  -0.723  -1.509 -0.4045 -0.9083 -0.0811
  336MOL0     H45339   5.511  -0.760  -1.424 -0.3759 -0.6904 -1.6485
  336MOL0     H45340   5.645  -0.964  -1.474  0.3998  0.4990  0.5540
  336MOL0     H45341   5.609  -0.950  -1.309 -0.3878 -1.4078 -0.7347
  336MOL0     H45342   5.274  -0.036  -1.344 -1.4451  0.1706 -3.5910
  336MOL0     H45343   5.219   0.155  -1.215  0.2244 -3.1072  1.0742
  336MOL0     H45344   5.073   0.455  -1.223  3.4491 -1.0692 -2.1870
  336MOL0     H45345   4.892   0.581  -1.171  0.7806 -1.8470 -0.1073
  336MOL0     H45346   5.395   0.955   0.407 -1.7784  1.0129 -1.4120
  336MOL0     H45347   5.619   0.983   0.522  0.2888 -1.6153  0.2780
  336MOL0     H45348   6.104   0.798   0.443 -3.6281  1.1930 -1.6816
  336MOL0     H45349   6.342   0.837   0.507  2.2018  2.1191  2.0790
  336MOL0     H45350   6.538   1.242   0.413 -0.2082 -3.1379 -2.6507
  336MOL0     H45351   6.478   1.237   0.586  0.9110 -1.7176  1.4894
  336MOL0     H45352   6.722   1.084   0.506 -2.2319 -1.2202 -0.4395
  336MOL0     H45353   6.664   1.123   0.665 -0.7148  0.0255  0.6463
  336MOL0     H45354   6.816   1.287   0.661  1.3688 -0.0482 -0.1953
  336MOL0     H45355   6.684   1.367   0.600 -0.5389 -1.7350  1.2162
  336MOL0     H45356   6.801   1.421   0.432 -2.1361 -0.2989  0.2958
  336MOL0     H45357   6.772   1.264   0.355 -1.2852 -3.8485  2.8322
  336MOL0     H45358   7.166   1.167   0.439 -1.1447 -2.0020  1.7262
  336MOL0     H45359   6.297   1.253   0.417 -0.5909  0.2770  1.3941
  336MOL0     H45360   6.055   1.219   0.373 -2.0506 -2.3850 -1.8553
  337MOL0     O45361   6.825   7.139   1.046 -0.2308  0.1384  0.1058
  337MOL0     C45362   6.829   7.059   1.139 -1.1131  0.1824 -0.5566
  337MOL0     O45363   6.727   6.975   1.178  0.2187  0.0156  0.3189
  337MOL0     C45364   6.638   6.948   1.078  0.8968  0.2074 -0.2737
  337MOL0     C45365   6.518   7.023   1.087  0.2950 -0.0065  0.0697
  337MOL0     C45366   6.421   7.012   0.983 -0.5981  0.6604  0.6102
  337MOL0     C45367   6.443   6.911   0.882 -0.9704 -0.4116  0.2607
  337MOL0     O45368   6.337   6.900   0.794  0.7985  1.0220  0.3979
  337MOL0     C45369   6.364   6.816   0.679  0.5486 -0.0777  1.0939
  337MOL0     C45370   6.237   6.820   0.591  0.1545  0.0179  0.0229
  337MOL0     C45371   6.136   6.732   0.661  0.0247  0.6521 -0.1003
  337MOL0     C45372   6.015   6.713   0.564 -0.0715 -0.1781 -0.9859
  337MOL0     C45373   5.893   6.656   0.635  0.6739  0.0568 -0.7703
  337MOL0     C45374   5.769   6.655   0.548 -0.7044 -0.2493  0.8848
  337MOL0     C45375   5.645   6.627   0.625  0.7612  0.4317  0.3100
  337MOL0     C45376   5.644   6.488   0.677 -0.0814 -0.8413  0.0690
  337MOL0     N45377   5.528   6.466   0.755 -0.2026 -0.4793 -0.1758
  337MOL0     C45378   5.469   6.558   0.837  0.1741 -1.2049 -0.2023
  337MOL0     C45379   5.343   6.513   0.844 -1.4857  0.0553  1.1607
  337MOL0     C45380   5.239   6.570   0.937  0.1089  0.5426  0.3602
  337MOL0     C45381   5.166   6.684   0.871  0.1463 -0.7448 -0.0893
  337MOL0     C45382   5.025   6.699   0.921  0.2838 -0.3686  1.0669
  337MOL0     C45383   4.978   6.838   0.873  0.8952 -0.1164  0.4558
  337MOL0     O45384   4.838   6.823   0.878 -0.5959  0.0261  0.9679
  337MOL0     C45385   4.757   6.928   0.864  0.4363 -0.0053 -0.4393
  337MOL0     C45386   4.809   7.050   0.816  0.2081  1.2453  0.1976
  337MOL0     C45387   4.733   7.161   0.811  0.4522 -0.1653 -0.2190
  337MOL0     C45388   4.803   7.277   0.752 -0.4159  0.3489 -0.3158
  337MOL0     C45389   4.590   7.151   0.839 -0.0520 -1.5053 -0.2200
  337MOL0     C45390   4.498   7.257   0.830  0.0257 -0.0959  0.1151
  337MOL0     O45391   4.411   7.280   0.935  0.0248 -0.5428  0.7118
  337MOL0     C45392   4.349   7.408   0.945  0.9768  0.4577 -0.3116
  337MOL0     C45393   4.224   7.437   0.885 -0.2098 -0.1745  0.2225
  337MOL0     C45394   4.164   7.561   0.909  0.8018  0.3790  0.3613
  337MOL0     C45395   4.234   7.668   0.965 -0.1525  0.5497 -0.0117
  337MOL0     O45396   4.185   7.789   0.988  0.4304  0.5740 -0.5723
  337MOL0     C45397   4.233   7.894   0.905  0.0481 -0.3798 -0.3817
  337MOL0     C45398   4.174   8.035   0.951  0.4780 -0.7363  0.2300
  337MOL0     C45399   4.024   8.061   0.955  0.1245  0.0626 -0.0374
  337MOL0     C45400   3.965   8.111   1.088  0.9169 -0.1427  0.2590
  337MOL0     C45401   3.819   8.151   1.073 -0.3595 -0.7985  0.3674
  337MOL0     C45402   3.794   8.272   0.983  0.4872 -1.0135 -0.2218
  337MOL0     C45403   3.647   8.280   0.972 -0.5114  0.8841  0.1939
  337MOL0     C45404   3.606   8.411   0.922 -0.2732  0.4779 -0.7471
  337MOL0    Cl45405   3.426   8.425   0.921 -0.1129 -0.2859  0.4531
  337MOL0     C45406   4.363   7.634   1.019  0.2919 -0.9549  0.3587
  337MOL0     C45407   4.428   7.512   1.007  0.0235  0.5828 -0.2317
  337MOL0     O45408   4.494   7.317   0.725 -0.5042  0.3917  0.5994
  337MOL0     C45409   4.539   7.034   0.869 -0.0064 -0.0531  0.1045
  337MOL0     C45410   4.614   6.920   0.883 -0.6636  0.7708 -0.0310
  337MOL0     N45411   5.321   6.398   0.765 -0.6726  0.3035 -0.5345
  337MOL0     N45412   5.437   6.371   0.717  0.0062 -0.1001  0.1204
  337MOL0     C45413   6.561   6.830   0.880 -0.0360 -1.0757  0.4709
  337MOL0     C45414   6.651   6.850   0.978  0.1951  0.8466 -0.8025
  337MOL0     C45415   6.938   7.063   1.235 -0.6779  0.4458 -0.9982
  337MOL0     C45416   6.948   6.957   1.331  0.0578  1.2541  0.3146
  337MOL0     C45417   7.046   6.957   1.430  0.3716  0.1820  1.0494
  337MOL0     C45418   7.137   7.058   1.429  0.0134 -0.0244  1.1517
  337MOL0     O45419   7.230   7.059   1.529  0.3484 -0.0621  0.0655
  337MOL0     C45420   7.369   7.066   1.483  0.0587 -0.3840  0.1743
  337MOL0     C45421   7.414   6.921   1.467  0.4434 -0.5795 -0.3343
  337MOL0     C45422   7.569   6.890   1.439  0.3413  0.0612  0.4534
  337MOL0     C45423   7.591   6.736   1.415  0.1918  0.0268 -0.0313
  337MOL0     C45424   7.733   6.706   1.412  0.0354  0.1780 -0.7004
  337MOL0     C45425   7.840   6.649   1.427  0.5909 -0.0857  0.6063
  337MOL0     C45426   7.123   7.158   1.336  0.8330 -0.4212  0.3018
  337MOL0     C45427   7.026   7.167   1.236 -0.3401  0.3028 -0.3195
  337MOL0     H45428   6.520   7.087   1.174  2.2717 -3.8263  3.1669
  337MOL0     H45429   6.324   7.060   0.989  0.2165  2.2797  1.4807
  337MOL0     H45430   6.448   6.860   0.625 -0.5813  1.3695  0.4318
  337MOL0     H45431   6.380   6.711   0.703  0.8313 -0.6503 -1.3492
  337MOL0     H45432   6.194   6.920   0.584 -1.7872 -0.5667  2.3559
  337MOL0     H45433   6.257   6.770   0.495 -1.9583 -1.8186  0.4565
  337MOL0     H45434   6.180   6.633   0.678  0.7379  1.0798  0.6048
  337MOL0     H45435   6.113   6.761   0.763 -0.7217  0.9175 -0.3400
  337MOL0     H45436   5.984   6.815   0.541  1.7229  0.3283 -1.2760
  337MOL0     H45437   6.037   6.650   0.477  2.2220 -3.1750  1.5140
  337MOL0     H45438   5.922   6.556   0.671  1.2233 -0.2335 -1.9607
  337MOL0     H45439   5.872   6.717   0.723 -0.1640 -3.4758  1.7315
  337MOL0     H45440   5.762   6.755   0.504  1.7577 -0.9706 -1.4253
  337MOL0     H45441   5.771   6.590   0.460 -1.9419 -0.6846  1.1528
  337MOL0     H45442   5.636   6.697   0.709 -0.9755 -1.8965  2.1772
  337MOL0     H45443   5.556   6.632   0.561  2.7057 -0.1783 -2.5861
  337MOL0     H45444   5.720   6.477   0.755 -0.9901 -0.1652  1.0783
  337MOL0     H45445   5.662   6.416   0.598  0.0529  1.0799 -1.7469
  337MOL0     H45446   5.509   6.643   0.890 -2.7257  0.4526 -0.4380
  337MOL0     H45447   5.165   6.492   0.955 -0.5650  0.7115 -1.5037
  337MOL0     H45448   5.282   6.608   1.030 -0.3790  0.7900  0.4850
  337MOL0     H45449   5.167   6.673   0.763  0.0338  2.4182 -0.5086
  337MOL0     H45450   5.227   6.771   0.897 -1.2226  0.2856 -0.2066
  337MOL0     H45451   5.013   6.688   1.029 -2.5262 -2.1800  0.6684
  337MOL0     H45452   4.960   6.617   0.889 -1.3536  0.4407  2.1202
  337MOL0     H45453   5.006   6.859   0.770 -1.3576 -2.2654 -0.6819
  337MOL0     H45454   5.017   6.914   0.942  1.4271 -0.0404  0.0774
  337MOL0     H45455   4.914   7.068   0.799  0.2183  0.6104 -0.4263
  337MOL0     H45456   4.854   7.343   0.822  2.2843 -0.3976 -1.4711
  337MOL0     H45457   4.880   7.233   0.688 -0.0379 -3.2014  2.2412
  337MOL0     H45458   4.737   7.333   0.685  0.5895  2.8268  0.6498
  337MOL0     H45459   4.162   7.358   0.845  0.6337 -1.7271  1.8710
  337MOL0     H45460   4.062   7.593   0.890  1.4858  3.1608  0.8430
  337MOL0     H45461   4.341   7.912   0.907  0.2839 -1.6857 -0.6513
  337MOL0     H45462   4.210   7.860   0.804  1.0202 -1.7179 -0.1814
  337MOL0     H45463   4.216   8.064   1.047 -1.0123  0.9445  0.4152
  337MOL0     H45464   4.216   8.105   0.878 -1.1644 -0.6667 -0.7007
  337MOL0     H45465   3.971   7.968   0.932  2.0027 -0.9459 -0.4653
  337MOL0     H45466   4.005   8.139   0.881 -4.4056  0.7041  1.4478
  337MOL0     H45467   3.971   8.028   1.159  1.9397 -1.5800 -1.3939
  337MOL0     H45468   4.011   8.200   1.131 -2.0055  1.7274 -0.2244
  337MOL0     H45469   3.768   8.155   1.170  1.4977 -1.5864  1.4322
  337MOL0     H45470   3.775   8.063   1.026  1.8209 -1.8211  0.1599
  337MOL0     H45471   3.836   8.361   1.031 -0.5889 -2.0025  2.8113
  337MOL0     H45472   3.840   8.274   0.884  1.3898 -0.2049  0.1932
  337MOL0     H45473   3.614   8.274   1.076 -0.4815  3.2218  0.3792
  337MOL0     H45474   3.603   8.195   0.918  0.0609 -0.2952  1.5294
  337MOL0     H45475   3.643   8.408   0.818  0.9299 -2.9192 -0.3389
  337MOL0     H45476   3.650   8.495   0.977 -1.4772  0.9201 -0.4210
  337MOL0     H45477   4.413   7.715   1.071  1.9085 -2.1454  0.7388
  337MOL0     H45478   4.531   7.495   1.038  1.1025 -0.7999 -4.0198
  337MOL0     H45479   4.431   7.036   0.881 -0.4069 -1.0233 -2.6775
  337MOL0     H45480   4.571   6.824   0.912  0.0406  0.6606  0.6739
  337MOL0     H45481   6.590   6.758   0.805  0.4259  0.6077 -1.0381
  337MOL0     H45482   6.737   6.783   0.987 -2.7412 -3.0459  2.4717
  337MOL0     H45483   6.885   6.870   1.313  2.1927 -0.0150 -1.6316
  337MOL0     H45484   7.048   6.877   1.504 -0.4244 -0.8311  0.0087
  337MOL0     H45485   7.387   7.127   1.394  0.5859 -0.8393 -0.0415
  337MOL0     H45486   7.423   7.114   1.564 -3.9874  0.2128  2.8047
  337MOL0     H45487   7.347   6.886   1.388 -1.6172  0.3264  0.9539
  337MOL0     H45488   7.386   6.862   1.554 -0.6200 -0.1318 -0.3591
  337MOL0     H45489   7.634   6.933   1.516 -0.3838  0.2605  0.9584
  337MOL0     H45490   7.608   6.933   1.346  1.3410  0.7102  1.1613
  337MOL0     H45491   7.541   6.710   1.322 -1.5972 -1.8755  1.3837
  337MOL0     H45492   7.540   6.677   1.492 -4.0739  2.1470 -0.9671
  337MOL0     H45493   7.931   6.602   1.461  0.7550  0.4979  0.9934
  337MOL0     H45494   7.193   7.241   1.337  0.4084 -0.0137 -1.1528
  337MOL0     H45495   7.017   7.252   1.169  0.9950 -0.8155 -2.0058
  338MOL0     O45496   0.375   3.134   7.988  0.3099 -0.6140  0.5321
  338MOL0     C45497   0.338   3.199   7.888 -0.0531  0.3974 -0.4470
  338MOL0     O45498   0.220   3.202   7.835  1.0104 -0.5925  0.2022
  338MOL0     C45499   0.110   3.135   7.880 -0.7562  0.6664 -0.7782
  338MOL0     C45500  -0.018   3.192   7.863  0.0284  0.0846  0.3962
  338MOL0     C45501  -0.131   3.128   7.916 -0.0007 -0.4908 -0.6674
  338MOL0     C45502  -0.118   3.010   7.990 -0.2675 -0.2721  0.4872
  338MOL0     O45503  -0.222   2.945   8.050 -0.8033  0.2081  0.3944
  338MOL0     C45504  -0.356   2.999   8.042  0.1875  0.8319 -0.7288
  338MOL0     C45505  -0.459   2.897   8.099  0.3020 -0.6086  0.1772
  338MOL0     C45506  -0.588   2.967   8.152  0.0550  0.1601 -1.4923
  338MOL0     C45507  -0.699   2.870   8.190 -0.4327  1.1724  0.7440
  338MOL0     C45508  -0.822   2.918   8.275  0.2424  0.3350 -0.6937
  338MOL0     C45509  -0.783   2.920   8.420 -0.2445 -0.4373 -0.7927
  338MOL0     C45510  -0.764   2.789   8.494  0.1781  0.0251  0.0228
  338MOL0     C45511  -0.791   2.815   8.640  1.2318 -1.0146  0.3432
  338MOL0     N45512  -0.935   2.868   8.645  0.0242  1.1298  0.9831
  338MOL0     C45513  -1.040   2.824   8.578  0.4505  0.5361 -0.1057
  338MOL0     C45514  -1.132   2.924   8.593  0.6177  0.0500 -1.1445
  338MOL0     C45515  -1.278   2.927   8.551 -0.2570 -0.3900  0.6535
  338MOL0     C45516  -1.345   3.071   8.556 -0.1272 -0.1972  0.2502
  338MOL0     C45517  -1.305   3.150   8.433  1.0558  0.0156 -0.2606
  338MOL0     C45518  -1.400   3.117   8.310  0.0519  0.0819  1.4253
  338MOL0     O45519  -1.532   3.153   8.345  0.2051  0.5355  0.5141
  338MOL0     C45520  -1.634   3.085   8.283 -0.2633  0.4761  0.3264
  338MOL0     C45521  -1.641   3.053   8.149  0.4421  0.2795 -0.0648
  338MOL0     C45522  -1.760   3.009   8.086 -0.6540 -0.0538  1.6638
  338MOL0     C45523  -1.754   2.997   7.935  0.7386 -0.1351 -0.1901
  338MOL0     C45524  -1.882   2.993   8.165 -0.7536  0.5362 -0.2882
  338MOL0     C45525  -2.019   2.964   8.114 -0.1047  0.2629  0.4891
  338MOL0     O45526  -2.130   2.956   8.202 -0.2118 -0.4010  0.3518
  338MOL0     C45527  -2.249   2.955   8.133 -0.3668 -0.6635 -0.2348
  338MOL0     C45528  -2.289   3.069   8.064  0.0188  0.1042  0.4932
  338MOL0     C45529  -2.417   3.080   8.012  0.2308 -0.2349 -0.1563
  338MOL0     C45530  -2.507   2.970   8.012 -0.6278 -0.5518  0.7876
  338MOL0     O45531  -2.629   2.997   7.955  0.0778 -0.2606  0.0734
  338MOL0     C45532  -2.747   2.900   7.960 -1.3778 -0.6774  0.3335
  338MOL0     C45533  -2.872   2.973   7.934  0.3400  0.5400 -0.3733
  338MOL0     C45534  -2.989   2.870   7.948 -0.2520  0.8889 -0.1931
  338MOL0     C45535  -3.129   2.922   7.952  0.0577  0.1192 -0.7995
  338MOL0     C45536  -3.244   2.820   7.994 -0.0133  0.1605  0.7231
  338MOL0     C45537  -3.383   2.875   8.008 -0.3679  0.5198  0.0506
  338MOL0     C45538  -3.425   2.952   7.869 -0.1408  0.4704 -1.0220
  338MOL0     C45539  -3.574   2.958   7.856  0.7102  0.1622 -0.1334
  338MOL0    Cl45540  -3.633   3.010   8.020  0.2918  0.2489 -0.6880
  338MOL0     C45541  -2.459   2.847   8.062 -0.2007 -0.1156 -0.3467
  338MOL0     C45542  -2.334   2.844   8.132  0.3893 -0.5899  0.0600
  338MOL0     O45543  -2.032   2.944   7.991  0.5056 -0.1161  0.5225
  338MOL0     C45544  -1.877   3.032   8.297 -0.1613 -0.0417 -0.5975
  338MOL0     C45545  -1.752   3.076   8.356  0.9131 -0.3907  0.3056
  338MOL0     N45546  -1.078   3.038   8.648  0.2767 -0.4262  0.4835
  338MOL0     N45547  -0.961   2.994   8.691  0.2584 -0.2887 -0.1426
  338MOL0     C45548   0.015   2.951   8.007 -0.0532  0.1874  0.4462
  338MOL0     C45549   0.121   3.011   7.951 -0.9148 -0.1825  0.0246
  338MOL0     C45550   0.449   3.252   7.811 -0.4691  0.0653 -0.0747
  338MOL0     C45551   0.590   3.235   7.837 -0.8135 -0.5352 -0.4934
  338MOL0     C45552   0.682   3.272   7.741  0.0130 -0.0196  0.3913
  338MOL0     C45553   0.644   3.343   7.625 -0.6736  0.0742  0.5265
  338MOL0     O45554   0.740   3.383   7.535 -0.8531  0.2495 -0.0312
  338MOL0     C45555   0.708   3.385   7.393  0.7687 -0.1325 -0.1249
  338MOL0     C45556   0.820   3.355   7.297 -0.3703 -0.3255  0.1545
  338MOL0     C45557   0.906   3.234   7.339  0.0162  0.1100 -0.1959
  338MOL0     C45558   1.026   3.204   7.249  0.1033 -0.3016 -0.2791
  338MOL0     C45559   1.128   3.307   7.274 -0.5307 -0.2642  0.1447
  338MOL0     C45560   1.214   3.393   7.295  0.1167  0.2244 -0.2239
  338MOL0     C45561   0.510   3.385   7.610  0.1632  0.0350 -0.0981
  338MOL0     C45562   0.416   3.327   7.690  0.8301  0.2544 -0.1049
  338MOL0     H45563  -0.049   3.284   7.815 -3.3407 -0.8169  0.5863
  338MOL0     H45564  -0.230   3.170   7.913 -0.5584 -1.3311  2.3591
  338MOL0     H45565  -0.346   3.087   8.107 -1.4870 -1.1387  2.4440
  338MOL0     H45566  -0.384   3.010   7.937 -0.8915  0.3486 -0.5087
  338MOL0     H45567  -0.481   2.820   8.026  0.8770  0.5666 -1.2912
  338MOL0     H45568  -0.413   2.852   8.187 -2.1568 -3.7817  0.0277
  338MOL0     H45569  -0.565   3.022   8.245  0.6717 -3.1778  0.4816
  338MOL0     H45570  -0.637   3.037   8.084 -2.0246  0.6037  0.3363
  338MOL0     H45571  -0.745   2.829   8.100 -0.3008  1.4729  0.5375
  338MOL0     H45572  -0.660   2.782   8.241  0.1356  2.0308  1.8575
  338MOL0     H45573  -0.850   3.019   8.245 -0.3307  0.4436  0.1870
  338MOL0     H45574  -0.909   2.854   8.257 -0.3356  0.4751  1.3361
  338MOL0     H45575  -0.681   2.959   8.436  0.5164 -2.8607  0.7130
  338MOL0     H45576  -0.859   2.986   8.462  2.1346  2.7172 -0.9903
  338MOL0     H45577  -0.838   2.717   8.458  2.6761 -2.3512 -0.6754
  338MOL0     H45578  -0.671   2.738   8.466 -0.4981 -0.6924 -1.0039
  338MOL0     H45579  -0.717   2.889   8.674  1.4503 -1.6965  1.3949
  338MOL0     H45580  -0.782   2.727   8.703 -0.8797 -0.6383  1.2491
  338MOL0     H45581  -1.054   2.724   8.537  0.9906 -0.1976  1.4308
  338MOL0     H45582  -1.273   2.889   8.448 -0.5755  0.8139  0.1838
  338MOL0     H45583  -1.339   2.857   8.609 -1.9752  0.7527  0.2917
  338MOL0     H45584  -1.320   3.129   8.645 -0.0290 -1.1166  0.8400
  338MOL0     H45585  -1.452   3.071   8.575  0.1009 -0.2652  1.7050
  338MOL0     H45586  -1.202   3.119   8.409  1.6231  1.2536  0.4818
  338MOL0     H45587  -1.306   3.258   8.451 -0.0669  0.0257 -0.3461
  338MOL0     H45588  -1.396   3.009   8.291  1.2404  0.0852  1.5911
  338MOL0     H45589  -1.368   3.174   8.222  0.7027 -1.6648  0.4941
  338MOL0     H45590  -1.555   3.044   8.084 -1.2711 -0.5400 -2.3749
  338MOL0     H45591  -1.657   3.006   7.886  0.2761 -1.5058 -1.4241
  338MOL0     H45592  -1.781   2.892   7.920 -2.2887  0.4257  0.7255
  338MOL0     H45593  -1.822   3.065   7.882  1.6013  0.6616 -0.3055
  338MOL0     H45594  -2.227   3.158   8.052 -0.0937 -0.0142 -1.1730
  338MOL0     H45595  -2.447   3.169   7.957  0.2208 -1.3887 -2.1525
  338MOL0     H45596  -2.721   2.830   7.880  2.7333  1.2935 -0.2853
  338MOL0     H45597  -2.749   2.845   8.055  0.7147  0.9866  1.4251
  338MOL0     H45598  -2.897   3.041   8.016 -2.8073 -2.0497  1.0272
  338MOL0     H45599  -2.873   3.032   7.842 -0.8463 -0.5288 -1.0843
  338MOL0     H45600  -2.982   2.812   8.040  1.7233 -1.5353 -1.7458
  338MOL0     H45601  -2.976   2.798   7.866  3.4534 -0.8888  1.6954
  338MOL0     H45602  -3.141   3.005   8.023 -0.6289  1.7817 -2.7709
  338MOL0     H45603  -3.143   2.957   7.849 -0.3933  2.6195  0.0275
  338MOL0     H45604  -3.229   2.778   8.094 -1.7657 -0.8927  0.6002
  338MOL0     H45605  -3.239   2.737   7.923 -1.0505 -0.8464  1.7730
  338MOL0     H45606  -3.457   2.796   8.027  2.9484 -2.5297  1.4191
  338MOL0     H45607  -3.382   2.940   8.096 -1.8024 -2.4829  2.5133
  338MOL0     H45608  -3.392   2.884   7.790  1.0609 -0.8434  0.5358
  338MOL0     H45609  -3.381   3.051   7.853  2.3381 -0.4222 -0.1630
  338MOL0     H45610  -3.606   2.858   7.828 -0.0675  0.1143  0.8765
  338MOL0     H45611  -3.613   3.029   7.782 -2.9648 -0.7021  0.7792
  338MOL0     H45612  -2.519   2.758   8.044 -0.7996  0.6944 -2.6761
  338MOL0     H45613  -2.291   2.753   8.171  0.9607  0.0013  0.8489
  338MOL0     H45614  -1.970   3.038   8.352 -1.5642  1.7832 -3.0144
  338MOL0     H45615  -1.763   3.102   8.460 -0.8442 -0.3798  0.1540
  338MOL0     H45616   0.013   2.854   8.056 -2.0488  1.0546  2.2389
  338MOL0     H45617   0.215   2.961   7.969 -1.1385 -0.1415  1.4084
  338MOL0     H45618   0.618   3.180   7.927 -1.7275 -2.1763 -1.1713
  338MOL0     H45619   0.785   3.245   7.764 -0.4315 -0.6233  1.8069
  338MOL0     H45620   0.632   3.316   7.356  2.8707  0.2696 -6.3040
  338MOL0     H45621   0.678   3.487   7.365  0.4330 -0.5754 -1.4513
  338MOL0     H45622   0.881   3.445   7.282 -0.1426  0.0693  2.8777
  338MOL0     H45623   0.773   3.326   7.203 -2.0485  1.5770  0.3406
  338MOL0     H45624   0.846   3.144   7.353 -0.6479  0.6087  0.2208
  338MOL0     H45625   0.943   3.261   7.438  0.8151  1.9859 -0.9593
  338MOL0     H45626   1.008   3.190   7.142 -0.1564 -3.3799  0.1055
  338MOL0     H45627   1.065   3.108   7.283 -3.7044 -1.8265  0.2765
  338MOL0     H45628   1.280   3.470   7.330 -2.1320  1.5060  1.4934
  338MOL0     H45629   0.472   3.457   7.538 -0.2127  0.7122  0.7673
  338MOL0     H45630   0.313   3.345   7.662  0.4197  0.6014  1.5249
  339MOL0     O45631   1.433  10.279   5.102 -0.1905 -0.2642  0.2783
  339MOL0     C45632   1.350  10.245   5.186 -0.6640  1.2157 -0.2207
  339MOL0     O45633   1.382  10.191   5.312 -0.8211  0.2376  0.8474
  339MOL0     C45634   1.513  10.177   5.363 -0.5680 -1.3190  0.4941
  339MOL0     C45635   1.540  10.174   5.499 -1.2141  0.9176  0.3156
  339MOL0     C45636   1.672  10.153   5.550  0.1121  0.6638 -0.0700
  339MOL0     C45637   1.771  10.136   5.458 -0.0653  0.6141 -0.6558
  339MOL0     O45638   1.902  10.124   5.498  0.2805 -0.3281  0.9527
  339MOL0     C45639   1.952  10.236   5.569 -0.2123 -0.1478 -0.9910
  339MOL0     C45640   2.097  10.217   5.609  0.6534 -0.5412 -0.1368
  339MOL0     C45641   2.175  10.351   5.645  0.0293  0.4798  0.2357
  339MOL0     C45642   2.326  10.318   5.639  0.1177 -0.7528 -0.3799
  339MOL0     C45643   2.406  10.419   5.742  1.0582  0.5038 -0.3425
  339MOL0     C45644   2.534  10.348   5.796 -0.6800  0.4825  0.4464
  339MOL0     C45645   2.597  10.399   5.933  0.5264  0.4661  0.8483
  339MOL0     C45646   2.733  10.335   5.958 -0.1457 -0.3402  0.2074
  339MOL0     N45647   2.802  10.355   6.082 -0.4525  0.2928  0.1361
  339MOL0     C45648   2.888  10.459   6.113  0.4033  0.0321 -0.1573
  339MOL0     C45649   2.959  10.420   6.223 -0.4738  0.0228 -0.3664
  339MOL0     C45650   3.059  10.516   6.282  0.1703 -0.0587 -0.9331
  339MOL0     C45651   3.088  10.508   6.424  0.0860 -0.0836  0.0556
  339MOL0     C45652   3.157  10.630   6.491  0.4303  0.2541  0.5291
  339MOL0     C45653   3.223  10.584   6.625  0.5274 -0.0233  0.8050
  339MOL0     O45654   3.123  10.546   6.718  0.2090 -0.2939  0.8562
  339MOL0     C45655   3.163  10.490   6.840 -0.6141 -0.0177  1.5246
  339MOL0     C45656   3.064  10.433   6.927  0.0159  0.5046  0.4653
  339MOL0     C45657   3.098  10.401   7.059 -0.1750  0.2423 -0.7081
  339MOL0     C45658   2.983  10.341   7.130 -0.2839  0.6726  0.2905
  339MOL0     C45659   3.229  10.422   7.108 -0.0067  0.5184  0.2661
  339MOL0     C45660   3.263  10.424   7.245  0.3245  0.5758 -0.2146
  339MOL0     O45661   3.392  10.409   7.288 -0.9095 -0.2784  1.1845
  339MOL0     C45662   3.412  10.326   7.396  0.2346 -0.5136  0.1426
  339MOL0     C45663   3.324  10.245   7.463  0.6276 -0.0429 -0.7878
  339MOL0     C45664   3.365  10.160   7.568  0.9374 -0.4789 -0.6957
  339MOL0     C45665   3.495  10.155   7.610 -0.7576  0.0436  0.0856
  339MOL0     O45666   3.532  10.063   7.713 -0.0314 -0.1055 -0.0381
  339MOL0     C45667   3.605   9.947   7.664  1.7351  0.5831 -0.1330
  339MOL0     C45668   3.656   9.853   7.775  0.8382 -0.4367 -0.4892
  339MOL0     C45669   3.769   9.914   7.848 -0.6956 -0.0296  0.5782
  339MOL0     C45670   3.902   9.927   7.767 -0.2193  0.0578  0.5009
  339MOL0     C45671   4.025   9.926   7.858 -0.0007 -0.5542  0.4407
  339MOL0     C45672   4.039  10.062   7.943 -0.1583  0.6223  0.5011
  339MOL0     C45673   4.140  10.040   8.064 -0.3054  0.0556  0.1439
  339MOL0     C45674   4.106  10.137   8.169  0.0122 -0.1762  0.3655
  339MOL0    Cl45675   4.230  10.118   8.296 -0.5579 -0.0895 -0.0874
  339MOL0     C45676   3.583  10.238   7.546 -0.5162 -0.6863  0.8513
  339MOL0     C45677   3.548  10.321   7.438 -0.6392 -0.4793  0.1332
  339MOL0     O45678   3.170  10.459   7.316 -0.2231 -0.0158 -0.3533
  339MOL0     C45679   3.324  10.476   7.015 -0.9669  0.6631 -1.0122
  339MOL0     C45680   3.294  10.499   6.887 -0.2975  0.1686  0.0423
  339MOL0     N45681   2.916  10.296   6.262  0.1151 -0.5963 -0.5625
  339MOL0     N45682   2.820  10.261   6.178  0.1629  0.5650  0.0953
  339MOL0     C45683   1.737  10.124   5.323 -1.0539  0.6811  0.0737
  339MOL0     C45684   1.618  10.150   5.272 -0.7609 -0.4578 -0.2125
  339MOL0     C45685   1.208  10.269   5.155 -0.5064  0.6445  0.2222
  339MOL0     C45686   1.114  10.262   5.257  0.7503  0.3752 -0.0650
  339MOL0     C45687   0.980  10.289   5.238  0.2816 -0.5157 -0.4960
  339MOL0     C45688   0.927  10.297   5.108 -0.4600 -0.2659 -0.3762
  339MOL0     O45689   0.792  10.305   5.084  0.1128 -0.4857  0.6124
  339MOL0     C45690   0.691  10.336   5.193 -0.1293  0.0280  0.1042
  339MOL0     C45691   0.698  10.466   5.275 -0.0418  0.2674 -0.1476
  339MOL0     C45692   0.760  10.579   5.194  0.4588  0.3902 -0.8775
  339MOL0     C45693   0.687  10.612   5.055  0.6928  1.5494 -0.6683
  339MOL0     C45694   0.536  10.619   5.077  0.4561  0.8460  0.2365
  339MOL0     C45695   0.419  10.635   5.082  1.3121 -0.5504 -0.3144
  339MOL0     C45696   1.016  10.300   5.001 -0.2928  0.5554  0.0199
  339MOL0     C45697   1.157  10.290   5.022 -0.5330  0.3330 -0.5448
  339MOL0     H45698   1.464  10.179   5.576  0.5960 -0.5451  2.2916
  339MOL0     H45699   1.686  10.151   5.658  2.8323  0.5103 -0.3655
  339MOL0     H45700   1.949  10.322   5.501  3.4070 -1.6382 -3.3838
  339MOL0     H45701   1.893  10.246   5.660 -0.7759 -0.4001 -1.3245
  339MOL0     H45702   2.091  10.158   5.701 -2.5141  0.9574  0.7655
  339MOL0     H45703   2.148  10.169   5.525  1.4643 -3.2187  1.7383
  339MOL0     H45704   2.155  10.438   5.582 -1.2231  0.7463  0.9581
  339MOL0     H45705   2.130  10.370   5.744 -2.2857 -1.5166 -0.3150
  339MOL0     H45706   2.334  10.218   5.682 -1.1538 -0.5318  0.4461
  339MOL0     H45707   2.371  10.312   5.540  2.4547 -2.6041  0.6890
  339MOL0     H45708   2.430  10.515   5.696 -1.8218  0.6700 -1.6494
  339MOL0     H45709   2.343  10.421   5.832 -0.6602  0.2052 -1.4991
  339MOL0     H45710   2.523  10.239   5.806 -1.2106  0.2672 -1.8556
  339MOL0     H45711   2.611  10.361   5.719 -0.3102 -1.0654  0.5181
  339MOL0     H45712   2.599  10.508   5.935 -0.5233  0.4876  1.4993
  339MOL0     H45713   2.537  10.371   6.020  0.3070  0.0925  0.5814
  339MOL0     H45714   2.795  10.359   5.871 -1.4270 -0.1905 -0.6817
  339MOL0     H45715   2.715  10.228   5.945 -1.4843 -0.5077  2.8224
  339MOL0     H45716   2.933  10.535   6.050  0.4066  0.3918  0.2689
  339MOL0     H45717   3.158  10.503   6.235  0.2185  0.1515 -0.8879
  339MOL0     H45718   3.019  10.614   6.257  1.2474  1.3788  2.4797
  339MOL0     H45719   3.159  10.425   6.439  0.5408  0.1265 -0.8312
  339MOL0     H45720   2.998  10.480   6.480  1.7349 -0.7815  2.5442
  339MOL0     H45721   3.089  10.714   6.511 -1.9643 -1.6803  0.9448
  339MOL0     H45722   3.230  10.671   6.421  2.0846 -2.6451  0.4364
  339MOL0     H45723   3.284  10.667   6.662  2.5592 -1.8522  1.7819
  339MOL0     H45724   3.295  10.505   6.603  1.1877  0.6165  0.6268
  339MOL0     H45725   2.963  10.419   6.891  0.0382 -2.1053  1.1992
  339MOL0     H45726   2.902  10.301   7.068  0.6203 -1.8453  0.5982
  339MOL0     H45727   3.019  10.262   7.197 -3.7796  0.0838  1.6686
  339MOL0     H45728   2.932  10.411   7.197  0.0610  0.1468  1.1174
  339MOL0     H45729   3.218  10.259   7.447  0.7260  3.7874  0.8576
  339MOL0     H45730   3.280  10.110   7.614  0.7736 -1.5401 -2.1022
  339MOL0     H45731   3.530   9.890   7.608 -0.5458 -0.5107  3.5992
  339MOL0     H45732   3.682   9.985   7.597  3.6480 -2.5247  0.1001
  339MOL0     H45733   3.575   9.831   7.845 -0.2771  1.3388 -1.1421
  339MOL0     H45734   3.692   9.759   7.731  0.1193  0.5142 -3.3283
  339MOL0     H45735   3.778   9.860   7.943 -1.5115  0.7419  1.1075
  339MOL0     H45736   3.750  10.021   7.862  0.2558  0.2282 -0.0106
  339MOL0     H45737   3.915   9.846   7.695 -1.8975  0.1422  0.0659
  339MOL0     H45738   3.904  10.018   7.706 -0.7251 -0.4375 -0.2690
  339MOL0     H45739   4.113   9.917   7.794  0.6420 -2.4298  1.5062
  339MOL0     H45740   4.014   9.839   7.923 -0.3830 -0.7396  0.1261
  339MOL0     H45741   4.084  10.147   7.892  1.6592  1.2322  2.9365
  339MOL0     H45742   3.935  10.083   7.971 -0.4368 -2.4580  2.1896
  339MOL0     H45743   4.243  10.055   8.033  0.2993 -1.8953  1.0519
  339MOL0     H45744   4.130   9.937   8.100  0.5662 -0.4527 -1.0242
  339MOL0     H45745   4.010  10.112   8.213 -0.5372  0.7345 -0.2648
  339MOL0     H45746   4.102  10.238   8.125  0.1128 -0.3145  0.0287
  339MOL0     H45747   3.686  10.237   7.580 -0.7331 -0.1497  1.5447
  339MOL0     H45748   3.620  10.381   7.384  0.6061 -2.2803 -0.3283
  339MOL0     H45749   3.422  10.500   7.054 -1.0502  1.0490 -1.0443
  339MOL0     H45750   3.374  10.541   6.827  0.5569  0.1942  1.1736
  339MOL0     H45751   1.815  10.098   5.252 -0.7214  2.7941 -0.4039
  339MOL0     H45752   1.605  10.150   5.164 -0.7787  1.1220 -0.2247
  339MOL0     H45753   1.135  10.245   5.362 -1.6765 -1.3457  0.2282
  339MOL0     H45754   0.913  10.284   5.323 -0.6487 -2.9203 -1.2801
  339MOL0     H45755   0.595  10.330   5.139  1.9401  1.2312 -4.1739
  339MOL0     H45756   0.680  10.251   5.260  1.2359  1.7043  2.5872
  339MOL0     H45757   0.771  10.446   5.354  0.5585  3.0930  0.0979
  339MOL0     H45758   0.607  10.497   5.327  2.1702  3.9623  1.9512
  339MOL0     H45759   0.862  10.548   5.170 -0.2798 -1.5491 -1.7432
  339MOL0     H45760   0.754  10.664   5.263 -1.9662 -0.6448  0.3081
  339MOL0     H45761   0.709  10.537   4.978 -1.9924 -0.4537  0.3285
  339MOL0     H45762   0.723  10.710   5.023  0.4601  1.8708  0.0257
  339MOL0     H45763   0.313  10.649   5.084  1.0395 -2.3173  2.3582
  339MOL0     H45764   0.977  10.308   4.900 -0.2581  3.2227  0.1302
  339MOL0     H45765   1.227  10.285   4.940 -0.1790 -2.5100 -0.1874
  340MOL0     O45766   7.651   1.539   3.756 -0.1557  0.4798  0.1921
  340MOL0     C45767   7.609   1.485   3.650 -0.1959  0.3438 -0.8686
  340MOL0     O45768   7.489   1.519   3.592  0.1671 -0.2331 -0.0665
  340MOL0     C45769   7.418   1.632   3.638 -0.2859  0.1462 -0.8067
  340MOL0     C45770   7.351   1.624   3.764 -0.7032 -0.1739  0.2123
  340MOL0     C45771   7.275   1.741   3.814  0.4848  0.1728  0.2139
  340MOL0     C45772   7.271   1.853   3.734  0.1463 -0.4019  0.0505
  340MOL0     O45773   7.195   1.958   3.785 -0.2678  0.1566 -0.7261
  340MOL0     C45774   7.201   2.084   3.719 -0.4914 -0.6982 -0.1620
  340MOL0     C45775   7.129   2.200   3.796 -0.1594  0.3757 -0.0948
  340MOL0     C45776   6.982   2.187   3.811  0.1296 -0.0924 -0.5423
  340MOL0     C45777   6.909   2.298   3.898 -0.3235 -0.3984 -0.4178
  340MOL0     C45778   6.859   2.419   3.826 -0.2717 -0.0946 -0.6651
  340MOL0     C45779   6.788   2.516   3.917  0.6517  0.1803 -0.8205
  340MOL0     C45780   6.645   2.480   3.949  0.0671 -0.2301 -0.5354
  340MOL0     C45781   6.577   2.550   4.062  0.8708  0.0966  0.6290
  340MOL0     N45782   6.561   2.690   4.062  0.5429 -0.0616 -0.0751
  340MOL0     C45783   6.447   2.762   4.036 -0.0283  0.8116  0.1159
  340MOL0     C45784   6.489   2.883   4.003  0.7682 -0.1123 -0.5083
  340MOL0     C45785   6.391   2.999   3.981 -0.5040  0.0339  0.0972
  340MOL0     C45786   6.368   3.094   4.098  0.0209  0.4164  0.6590
  340MOL0     C45787   6.284   3.216   4.051 -0.3681 -0.4414 -0.3351
  340MOL0     C45788   6.137   3.197   3.990 -0.7114 -0.0977 -1.1163
  340MOL0     O45789   6.063   3.319   3.986  0.2274 -0.3099  0.3733
  340MOL0     C45790   5.923   3.294   3.975 -0.3613  0.0945  0.1053
  340MOL0     C45791   5.847   3.387   4.029  0.4192  0.0576 -0.3139
  340MOL0     C45792   5.702   3.377   4.033  0.0544  0.0749  0.4569
  340MOL0     C45793   5.632   3.487   4.112  0.7009 -0.4692 -0.1152
  340MOL0     C45794   5.642   3.269   3.957  0.3702  0.4901 -0.7732
  340MOL0     C45795   5.494   3.244   3.950  0.2787  0.2975  0.5260
  340MOL0     O45796   5.462   3.117   3.920  0.1913  0.3699 -0.3131
  340MOL0     C45797   5.333   3.072   3.922  1.2853 -0.1166  0.0208
  340MOL0     C45798   5.279   3.016   4.042  0.7717 -0.9035 -0.4506
  340MOL0     C45799   5.142   2.972   4.042 -1.1769 -0.5939 -0.2591
  340MOL0     C45800   5.074   2.971   3.923  0.4367  0.2860  0.5795
  340MOL0     O45801   4.946   2.920   3.926 -0.6801  0.5235 -0.3384
  340MOL0     C45802   4.862   2.937   3.813 -0.5093 -0.0664 -0.5695
  340MOL0     C45803   4.723   2.885   3.859  0.2259 -0.2061 -0.1760
  340MOL0     C45804   4.677   2.947   3.989 -0.6789 -0.0381  0.8461
  340MOL0     C45805   4.538   2.908   4.023  0.4889  0.8715  0.1149
  340MOL0     C45806   4.488   2.988   4.151 -0.1450  0.1444  0.0401
  340MOL0     C45807   4.500   3.140   4.142  1.2778 -0.1948  0.3276
  340MOL0     C45808   4.404   3.205   4.250  0.6571 -0.1894  0.7856
  340MOL0     C45809   4.263   3.201   4.192  0.5208  0.3667 -0.2445
  340MOL0    Cl45810   4.157   3.273   4.310 -0.1175 -0.3132  0.0244
  340MOL0     C45811   5.126   3.025   3.804 -0.6026 -0.8023  0.0620
  340MOL0     C45812   5.253   3.087   3.801  0.0910  0.1906  0.6623
  340MOL0     O45813   5.420   3.336   3.964 -0.5395 -0.3983  0.7360
  340MOL0     C45814   5.731   3.175   3.891  0.4601 -0.2321  0.0048
  340MOL0     C45815   5.870   3.180   3.910  0.5194  0.1662 -0.1133
  340MOL0     N45816   6.623   2.895   4.022 -0.7641  0.0434  0.6048
  340MOL0     N45817   6.667   2.776   4.050 -0.9434 -0.1080  1.2922
  340MOL0     C45818   7.326   1.856   3.603 -0.4545  0.6331 -0.5994
  340MOL0     C45819   7.397   1.746   3.560  0.3469 -0.0580 -0.4695
  340MOL0     C45820   7.700   1.388   3.576 -0.2276  1.1273 -0.5803
  340MOL0     C45821   7.824   1.359   3.629 -0.2510 -0.1119  0.2187
  340MOL0     C45822   7.924   1.281   3.560  0.2715  0.7715  0.5122
  340MOL0     C45823   7.883   1.230   3.432  0.2512 -1.1428  0.0012
  340MOL0     O45824   7.949   1.144   3.350 -1.0959  0.7181  0.4361
  340MOL0     C45825   8.071   1.089   3.402 -0.2646  0.0008  0.0526
  340MOL0     C45826   8.132   0.995   3.300 -0.4978 -0.1795 -0.2392
  340MOL0     C45827   8.057   0.861   3.284  0.3634  1.0793 -0.1920
  340MOL0     C45828   8.064   0.767   3.412  0.3574 -0.6183  0.1618
  340MOL0     C45829   7.987   0.648   3.385 -0.1648 -0.0382 -0.5813
  340MOL0     C45830   7.922   0.550   3.361 -0.2454  1.0943 -0.3377
  340MOL0     C45831   7.754   1.260   3.378  0.2157 -0.7299  0.3199
  340MOL0     C45832   7.661   1.339   3.451 -0.2899  0.0812 -0.4077
  340MOL0     H45833   7.362   1.537   3.826 -0.3028  1.2044  2.1552
  340MOL0     H45834   7.224   1.756   3.909 -1.7112 -1.0047 -0.7231
  340MOL0     H45835   7.306   2.117   3.717 -0.9430  0.8274 -0.1100
  340MOL0     H45836   7.169   2.075   3.615  0.9449 -1.9067 -0.5389
  340MOL0     H45837   7.181   2.215   3.892  1.2295 -1.1581 -0.5768
  340MOL0     H45838   7.158   2.287   3.737  0.1421  0.8514  0.7301
  340MOL0     H45839   6.936   2.175   3.713  0.8023 -0.0269 -0.8749
  340MOL0     H45840   6.968   2.093   3.865 -1.3489  0.5728  0.3178
  340MOL0     H45841   6.828   2.253   3.957  0.5742  0.7706  1.7983
  340MOL0     H45842   6.981   2.337   3.970  0.8455 -1.4547 -0.9764
  340MOL0     H45843   6.941   2.473   3.777 -0.4415  0.1199 -0.7152
  340MOL0     H45844   6.789   2.377   3.753  1.2366 -3.7191 -0.2350
  340MOL0     H45845   6.843   2.550   4.006 -1.6224  1.5403  0.1368
  340MOL0     H45846   6.778   2.603   3.852 -0.8633 -0.1122 -1.0046
  340MOL0     H45847   6.586   2.496   3.859  1.9653  0.1564 -1.7839
  340MOL0     H45848   6.641   2.372   3.961  1.4517 -0.3171 -0.7151
  340MOL0     H45849   6.636   2.530   4.152  2.6624 -0.2805 -0.5708
  340MOL0     H45850   6.478   2.505   4.073  0.6738 -0.6794 -3.0237
  340MOL0     H45851   6.347   2.722   4.045  0.4639 -0.1239  2.2033
  340MOL0     H45852   6.433   3.054   3.897  1.0570 -0.9235  0.2002
  340MOL0     H45853   6.300   2.949   3.946  0.1052 -0.1063 -1.3236
  340MOL0     H45854   6.465   3.120   4.142 -0.8521  1.3585  2.1374
  340MOL0     H45855   6.314   3.048   4.182 -1.0737  3.7725  1.9920
  340MOL0     H45856   6.340   3.267   3.972  4.5420 -2.5121  1.3815
  340MOL0     H45857   6.278   3.282   4.138  1.0674  1.7917 -1.8193
  340MOL0     H45858   6.087   3.113   4.039  2.6082 -2.2948 -1.2128
  340MOL0     H45859   6.153   3.162   3.887 -3.8425  0.5953 -1.9366
  340MOL0     H45860   5.894   3.472   4.078 -0.7996  1.1665 -1.0110
  340MOL0     H45861   5.578   3.546   4.038  0.6432 -0.4093 -0.0247
  340MOL0     H45862   5.571   3.438   4.188  1.0003  1.4782  1.4685
  340MOL0     H45863   5.708   3.548   4.163  0.1661 -1.7866  2.4129
  340MOL0     H45864   5.342   2.995   4.129 -0.1657  0.6114  0.6560
  340MOL0     H45865   5.095   2.925   4.128 -3.4530 -0.7479 -1.4961
  340MOL0     H45866   4.850   3.043   3.788  1.9211  0.6497  0.9213
  340MOL0     H45867   4.901   2.882   3.728  0.1752  2.5029 -2.0375
  340MOL0     H45868   4.639   2.901   3.790 -2.9696  0.5365  3.5218
  340MOL0     H45869   4.732   2.777   3.871 -0.2025 -0.2466 -0.2084
  340MOL0     H45870   4.680   3.055   3.972  0.3888  0.0675  1.5877
  340MOL0     H45871   4.735   2.916   4.076  0.7900 -2.8786 -0.9780
  340MOL0     H45872   4.480   2.929   3.933  0.9030 -2.6970 -1.1391
  340MOL0     H45873   4.537   2.802   4.049  0.9069  0.3170 -1.9552
  340MOL0     H45874   4.540   2.947   4.238  0.0277  0.8887  0.2949
  340MOL0     H45875   4.382   2.965   4.160 -0.1949  0.9826  2.0185
  340MOL0     H45876   4.605   3.162   4.163  0.6568  2.0205  1.4763
  340MOL0     H45877   4.464   3.174   4.045 -2.7486 -0.0161  1.6929
  340MOL0     H45878   4.431   3.310   4.265 -0.0992  0.5867 -2.4664
  340MOL0     H45879   4.403   3.156   4.348 -1.1841  0.3438  1.0712
  340MOL0     H45880   4.232   3.098   4.173 -2.0185  1.1838 -0.9239
  340MOL0     H45881   4.265   3.256   4.098  1.0222 -0.5400 -0.7694
  340MOL0     H45882   5.073   3.032   3.710  2.8230  0.5209 -1.9298
  340MOL0     H45883   5.283   3.139   3.711 -1.8072 -0.3459 -0.3291
  340MOL0     H45884   5.690   3.102   3.822  1.8752 -0.7429 -0.3136
  340MOL0     H45885   5.927   3.096   3.873 -0.9774 -1.2552  0.6840
  340MOL0     H45886   7.313   1.934   3.529  0.6767  2.0597  0.6510
  340MOL0     H45887   7.457   1.755   3.470  0.2487 -3.6184 -1.0320
  340MOL0     H45888   7.843   1.387   3.731 -1.0747 -0.6267  0.5293
  340MOL0     H45889   8.021   1.272   3.607  0.2237 -0.7105  0.3737
  340MOL0     H45890   8.133   1.179   3.407 -0.7071  0.3785 -0.8801
  340MOL0     H45891   8.057   1.036   3.496 -1.6736  1.6075  0.8095
  340MOL0     H45892   8.235   0.969   3.327 -0.3629  0.8461  0.2491
  340MOL0     H45893   8.148   1.048   3.206  3.6927 -1.2096 -0.3089
  340MOL0     H45894   8.098   0.803   3.201 -1.2093 -1.2332  0.5575
  340MOL0     H45895   7.951   0.884   3.270 -0.2275 -1.6808 -0.9007
  340MOL0     H45896   8.039   0.820   3.504  0.1297  1.0710 -0.8218
  340MOL0     H45897   8.168   0.734   3.423 -0.0511 -1.6251  1.1761
  340MOL0     H45898   7.856   0.468   3.342  3.2227 -2.1266  0.2649
  340MOL0     H45899   7.725   1.246   3.274 -0.5372  1.3602  0.2083
  340MOL0     H45900   7.570   1.360   3.396 -0.8551 -2.7630 -0.7207
  341MOL0     O45901   3.043   5.870   2.828  0.0055 -0.2310  0.2189
  341MOL0     C45902   2.956   5.793   2.860 -0.5010 -0.9110  0.3766
  341MOL0     O45903   2.842   5.837   2.923 -0.1724  0.1220 -0.8352
  341MOL0     C45904   2.829   5.967   2.963  0.6155  0.0306  0.9183
  341MOL0     C45905   2.907   6.042   3.055  0.0255 -0.3732  0.5456
  341MOL0     C45906   2.874   6.167   3.091 -1.0300  0.2923 -0.5966
  341MOL0     C45907   2.780   6.238   3.017  0.2912 -0.2561  0.3428
  341MOL0     O45908   2.758   6.363   3.058  0.1003 -0.5046  1.4093
  341MOL0     C45909   2.652   6.450   3.001 -0.5862 -0.2185  1.0146
  341MOL0     C45910   2.718   6.531   2.885  0.0381 -0.6662 -0.1252
  341MOL0     C45911   2.629   6.650   2.829 -0.3053  0.8517  0.0019
  341MOL0     C45912   2.488   6.596   2.807  0.1657  0.4956 -0.9628
  341MOL0     C45913   2.388   6.691   2.737 -0.7560 -0.0575 -0.2105
  341MOL0     C45914   2.418   6.698   2.586  0.7017  0.6269 -0.3878
  341MOL0     C45915   2.341   6.802   2.511  0.1395  0.0483  0.3590
  341MOL0     C45916   2.360   6.789   2.358 -0.3421  0.3508 -1.1142
  341MOL0     N45917   2.268   6.688   2.308  0.2826  0.7605  0.5032
  341MOL0     C45918   2.130   6.685   2.302 -0.0017  0.6200  0.3113
  341MOL0     C45919   2.094   6.576   2.229 -0.1833 -0.6139  0.7788
  341MOL0     C45920   1.957   6.547   2.177  0.6032 -0.1491 -0.1614
  341MOL0     C45921   1.892   6.665   2.090  0.3766  0.1403  0.1288
  341MOL0     C45922   1.941   6.680   1.943  0.6744 -0.7886 -0.0415
  341MOL0     C45923   2.092   6.661   1.916 -0.4794 -0.6594  0.0982
  341MOL0     O45924   2.118   6.721   1.788 -0.7149 -0.2709  0.3715
  341MOL0     C45925   2.250   6.722   1.750 -0.4508 -0.1470 -0.5295
  341MOL0     C45926   2.355   6.688   1.839  0.7410  0.3476  1.1745
  341MOL0     C45927   2.489   6.702   1.815 -0.0351  0.4430  0.5394
  341MOL0     C45928   2.581   6.635   1.917  0.1122 -0.2607 -0.6862
  341MOL0     C45929   2.535   6.745   1.684  0.0997 -0.6235  0.5760
  341MOL0     C45930   2.679   6.755   1.646  0.7810 -0.6851 -0.4336
  341MOL0     O45931   2.704   6.786   1.512 -0.2547  0.1148 -0.5921
  341MOL0     C45932   2.818   6.852   1.472 -0.0907 -0.2652  1.1964
  341MOL0     C45933   2.801   6.979   1.420  0.5472  0.2428  0.0861
  341MOL0     C45934   2.920   7.041   1.364  0.5966  0.3425  0.9276
  341MOL0     C45935   3.040   6.973   1.354  0.5471  0.0512 -0.5175
  341MOL0     O45936   3.145   7.038   1.303 -0.0028 -0.3079 -0.5033
  341MOL0     C45937   3.129   7.165   1.239  0.2612  0.8905 -0.7865
  341MOL0     C45938   3.267   7.222   1.204  0.2731  0.4388 -0.0922
  341MOL0     C45939   3.363   7.224   1.320  0.2115 -0.0553  0.1828
  341MOL0     C45940   3.502   7.285   1.280 -0.0242 -0.1731 -0.7424
  341MOL0     C45941   3.541   7.380   1.403 -0.8685  0.2027 -0.9559
  341MOL0     C45942   3.667   7.474   1.395  0.1622 -0.6576  0.0837
  341MOL0     C45943   3.668   7.578   1.514 -0.3802 -0.2226  0.3782
  341MOL0     C45944   3.765   7.700   1.476 -0.1685  0.9264  0.1709
  341MOL0    Cl45945   3.673   7.809   1.374  0.1729 -0.1002  0.1067
  341MOL0     C45946   3.046   6.849   1.412 -0.0068 -1.2117  0.3200
  341MOL0     C45947   2.937   6.786   1.463  0.4753 -0.2636 -0.0036
  341MOL0     O45948   2.761   6.750   1.734 -0.2025  0.0516  0.2290
  341MOL0     C45949   2.429   6.785   1.592 -0.7204  0.5339 -0.0830
  341MOL0     C45950   2.296   6.776   1.629  0.1384  0.3324  0.5919
  341MOL0     N45951   2.213   6.512   2.201 -0.1211  0.0097  0.1594
  341MOL0     N45952   2.311   6.577   2.250  0.2257  0.7528 -0.4006
  341MOL0     C45953   2.705   6.169   2.913  0.1078 -0.9929  0.0009
  341MOL0     C45954   2.734   6.038   2.888 -0.4227 -1.4328  1.5262
  341MOL0     C45955   2.984   5.646   2.849  0.4162  0.2110 -1.3601
  341MOL0     C45956   3.059   5.588   2.746  1.1695 -0.1876  0.0720
  341MOL0     C45957   3.080   5.449   2.730 -0.1701  0.6333 -0.3480
  341MOL0     C45958   3.023   5.370   2.827 -0.8636  0.8426 -0.5942
  341MOL0     O45959   3.043   5.231   2.830  0.8654 -0.3122 -0.1860
  341MOL0     C45960   3.105   5.160   2.720  0.1223  0.9693  0.0655
  341MOL0     C45961   3.022   5.155   2.593 -0.7739  0.0949 -0.1813
  341MOL0     C45962   2.923   5.029   2.592 -0.0725  0.2897 -0.5595
  341MOL0     C45963   2.836   4.999   2.473 -0.3151  0.0663  0.0520
  341MOL0     C45964   2.722   4.925   2.518 -0.3575  0.7532 -0.1676
  341MOL0     C45965   2.623   4.865   2.552  0.1678 -0.3846 -1.2146
  341MOL0     C45966   2.953   5.422   2.936  0.0893 -0.2644  0.6760
  341MOL0     C45967   2.930   5.556   2.949 -0.5191  0.1461 -0.0079
  341MOL0     H45968   2.979   5.990   3.118  1.0976 -0.2267 -0.5241
  341MOL0     H45969   2.934   6.224   3.162 -1.2246 -1.3504  0.9500
  341MOL0     H45970   2.567   6.391   2.967 -0.1456 -1.1981  1.5716
  341MOL0     H45971   2.617   6.522   3.076  2.5488  1.3835  1.1235
  341MOL0     H45972   2.816   6.566   2.917  0.9433 -2.3055 -1.0037
  341MOL0     H45973   2.745   6.469   2.799  1.0297 -0.6929  0.1927
  341MOL0     H45974   2.629   6.738   2.894  3.6796  1.5534 -0.6905
  341MOL0     H45975   2.677   6.677   2.735  0.9731  0.2632  0.4531
  341MOL0     H45976   2.488   6.501   2.751  0.4215 -0.1070  0.0379
  341MOL0     H45977   2.453   6.577   2.909  0.3387 -1.6516 -1.2615
  341MOL0     H45978   2.286   6.657   2.757  0.3619 -2.6866  1.5114
  341MOL0     H45979   2.400   6.796   2.766 -0.7431  0.5022 -2.1355
  341MOL0     H45980   2.526   6.711   2.575  0.4728  3.3589 -0.2073
  341MOL0     H45981   2.398   6.605   2.534 -1.4766  0.3561  0.8032
  341MOL0     H45982   2.235   6.794   2.536 -0.3645 -0.8460 -1.7743
  341MOL0     H45983   2.378   6.904   2.530 -0.2847  0.3867 -0.5682
  341MOL0     H45984   2.463   6.766   2.331  0.2254 -0.5122  1.5332
  341MOL0     H45985   2.348   6.890   2.318  0.8252  0.3929 -1.3851
  341MOL0     H45986   2.059   6.761   2.334 -0.4237  1.3968 -2.2983
  341MOL0     H45987   1.942   6.453   2.124  1.6492 -0.2300 -0.3243
  341MOL0     H45988   1.884   6.541   2.259 -0.7391 -0.4541 -1.3503
  341MOL0     H45989   1.904   6.763   2.135 -3.9825  0.6379  0.6637
  341MOL0     H45990   1.783   6.657   2.094  0.4275 -0.5272  0.3576
  341MOL0     H45991   1.902   6.777   1.912 -1.5545 -1.2659  1.0426
  341MOL0     H45992   1.882   6.613   1.880 -2.3571  0.7616  0.9766
  341MOL0     H45993   2.121   6.555   1.923 -1.3547 -0.9483 -0.4977
  341MOL0     H45994   2.149   6.719   1.990  0.8829 -0.8558 -0.7530
  341MOL0     H45995   2.330   6.623   1.922  1.0306 -4.1189 -1.8650
  341MOL0     H45996   2.641   6.718   1.956  1.2073 -1.5590  0.5208
  341MOL0     H45997   2.530   6.576   1.994  0.5233  0.3010  0.0326
  341MOL0     H45998   2.647   6.556   1.878 -1.6937 -1.3066 -1.7790
  341MOL0     H45999   2.713   7.041   1.437 -1.6089 -2.8400  1.0496
  341MOL0     H46000   2.907   7.140   1.320  0.3591 -0.5235 -1.0502
  341MOL0     H46001   3.072   7.143   1.149 -1.3759  1.1388  0.1610
  341MOL0     H46002   3.089   7.239   1.308 -0.1507  0.6047 -0.7187
  341MOL0     H46003   3.321   7.162   1.130  2.2279 -1.3970  2.6079
  341MOL0     H46004   3.253   7.323   1.166  0.6000  0.2410 -0.7628
  341MOL0     H46005   3.388   7.122   1.350 -2.1578 -0.7328  0.0008
  341MOL0     H46006   3.320   7.282   1.402  2.5364  0.6322  1.0000
  341MOL0     H46007   3.572   7.202   1.294  0.0039  0.1684  1.5315
  341MOL0     H46008   3.524   7.333   1.184  2.1208  3.2264  1.2618
  341MOL0     H46009   3.557   7.326   1.497  2.7350  1.3713 -0.7264
  341MOL0     H46010   3.453   7.443   1.421 -0.4947  0.4627 -0.0088
  341MOL0     H46011   3.765   7.431   1.373 -1.4252 -3.6552 -1.7410
  341MOL0     H46012   3.650   7.534   1.306  1.0949 -2.9869 -1.7639
  341MOL0     H46013   3.709   7.533   1.606 -0.2928 -2.1183 -0.5339
  341MOL0     H46014   3.571   7.621   1.540  1.4333  2.7674  2.9168
  341MOL0     H46015   3.856   7.668   1.426 -1.2016  1.2865 -2.0712
  341MOL0     H46016   3.788   7.752   1.569 -1.6408  1.1380  0.4448
  341MOL0     H46017   3.148   6.812   1.417  0.7552  0.1015 -2.8199
  341MOL0     H46018   2.938   6.687   1.508  1.0686 -0.9239 -1.4317
  341MOL0     H46019   2.449   6.790   1.486 -1.5630 -2.3874 -0.4898
  341MOL0     H46020   2.219   6.803   1.557  0.1156 -0.2355  0.4036
  341MOL0     H46021   2.630   6.227   2.861  1.9863  0.6537 -1.0221
  341MOL0     H46022   2.666   5.989   2.818 -0.9980 -0.4008  1.3484
  341MOL0     H46023   3.099   5.648   2.665 -0.6284 -0.4003 -1.0305
  341MOL0     H46024   3.150   5.411   2.656 -0.9551 -1.2747 -0.1741
  341MOL0     H46025   3.205   5.200   2.699  0.5614 -0.6927 -1.2860
  341MOL0     H46026   3.128   5.057   2.751  0.9052  1.6607  1.9227
  341MOL0     H46027   3.077   5.137   2.500  1.9890  0.7849  1.2101
  341MOL0     H46028   2.962   5.243   2.570  0.0428  0.6271 -0.3099
  341MOL0     H46029   2.862   5.050   2.681  0.1586  2.9157 -0.9438
  341MOL0     H46030   2.973   4.938   2.626 -3.4206 -1.3865  0.2859
  341MOL0     H46031   2.899   4.940   2.407  1.2824  3.7832 -2.0574
  341MOL0     H46032   2.815   5.091   2.418  0.6251  1.3369  1.7177
  341MOL0     H46033   2.545   4.806   2.594 -0.1506 -0.6120 -2.0956
  341MOL0     H46034   2.921   5.357   3.017  0.3523 -0.1272  0.8954
  341MOL0     H46035   2.868   5.583   3.034  1.9944 -1.7814  2.6241
  342MOL0     O46036   1.759   7.244   0.749  0.3615 -0.1770 -0.2071
  342MOL0     C46037   1.744   7.327   0.658  0.8930 -0.0394  0.2313
  342MOL0     O46038   1.651   7.419   0.650  0.1929 -0.5349 -0.5412
  342MOL0     C46039   1.541   7.384   0.729 -0.0903 -0.7210  0.2501
  342MOL0     C46040   1.501   7.472   0.827  0.0598  0.8674  0.4273
  342MOL0     C46041   1.392   7.439   0.909  0.1822  0.1961  0.3729
  342MOL0     C46042   1.312   7.319   0.881 -0.0267 -0.5525 -0.5099
  342MOL0     O46043   1.202   7.291   0.965 -0.4537 -0.8600 -0.8742
  342MOL0     C46044   1.246   7.215   1.078 -0.0466 -0.7101 -0.0849
  342MOL0     C46045   1.138   7.127   1.156 -0.6742 -0.4411  1.1665
  342MOL0     C46046   1.123   6.992   1.085  0.7376 -0.2402  0.1875
  342MOL0     C46047   1.006   6.993   0.989 -0.1721 -0.2302  0.0752
  342MOL0     C46048   0.988   6.863   0.925  0.0373  1.2169 -0.3139
  342MOL0     C46049   0.865   6.840   0.840 -0.1642  0.0545  0.6437
  342MOL0     C46050   0.822   6.958   0.756  0.3647  0.1976 -0.1575
  342MOL0     C46051   0.689   6.927   0.670  1.0331 -0.0481 -0.1374
  342MOL0     N46052   0.578   6.981   0.758  0.6967  0.2373  0.3534
  342MOL0     C46053   0.537   6.904   0.867  0.4974  0.1431 -0.2416
  342MOL0     C46054   0.436   6.979   0.915 -0.0247 -0.2735  0.6275
  342MOL0     C46055   0.353   6.937   1.029  0.1572 -0.2528 -0.0540
  342MOL0     C46056   0.252   6.835   0.981 -0.3922 -0.2719  0.8651
  342MOL0     C46057   0.149   6.789   1.087 -0.0568  0.3893 -0.4161
  342MOL0     C46058   0.213   6.703   1.202  0.4069 -0.0483  0.0528
  342MOL0     O46059   0.123   6.661   1.308  0.0496  0.1480  0.3942
  342MOL0     C46060   0.013   6.591   1.281  0.4978  0.0887 -1.4417
  342MOL0     C46061   0.007   6.503   1.164  0.4831  0.5683 -0.0412
  342MOL0     C46062  -0.092   6.403   1.154 -0.0520  0.0432 -0.8076
  342MOL0     C46063  -0.099   6.328   1.024  0.4076  0.8412  1.6973
  342MOL0     C46064  -0.195   6.399   1.259 -0.3455  0.1923 -0.2371
  342MOL0     C46065  -0.310   6.308   1.251  0.5419 -0.9337  0.1474
  342MOL0     O46066  -0.345   6.252   1.372 -0.4355  0.0424  0.0289
  342MOL0     C46067  -0.447   6.159   1.359  0.1219  0.3235  0.6360
  342MOL0     C46068  -0.432   6.030   1.406  0.9779  0.8475  0.6123
  342MOL0     C46069  -0.543   5.942   1.409 -0.6397 -0.3156 -0.6188
  342MOL0     C46070  -0.666   5.978   1.363  0.3628 -0.2496 -0.6313
  342MOL0     O46071  -0.773   5.890   1.379 -0.0973 -0.6031 -0.2542
  342MOL0     C46072  -0.903   5.944   1.416 -1.3506 -0.1864  0.2907
  342MOL0     C46073  -0.992   5.844   1.492 -0.8547 -0.0683  0.4288
  342MOL0     C46074  -1.119   5.911   1.550  0.3564 -0.2677  0.2940
  342MOL0     C46075  -1.225   5.799   1.592 -0.6113 -0.5481 -0.1666
  342MOL0     C46076  -1.349   5.847   1.674 -0.9800  0.4143 -0.0437
  342MOL0     C46077  -1.438   5.929   1.587 -0.1525  0.0198  0.5389
  342MOL0     C46078  -1.579   5.951   1.628  0.5969 -1.0001 -1.0061
  342MOL0     C46079  -1.661   5.818   1.656 -0.4879  0.7203 -0.2973
  342MOL0    Cl46080  -1.634   5.739   1.811 -0.0405  0.0000  0.1329
  342MOL0     C46081  -0.680   6.110   1.318 -0.5024 -0.9088 -0.5266
  342MOL0     C46082  -0.577   6.200   1.321  0.0391  0.5786 -0.9645
  342MOL0     O46083  -0.355   6.272   1.143  0.3877 -0.4678  0.2594
  342MOL0     C46084  -0.181   6.476   1.372  0.0279 -0.1713  0.8163
  342MOL0     C46085  -0.086   6.575   1.383 -0.0991  0.6783  0.3332
  342MOL0     N46086   0.406   7.083   0.825  0.4247  0.0966 -0.5795
  342MOL0     N46087   0.492   7.084   0.734  0.0960  0.6866  0.5318
  342MOL0     C46088   1.339   7.249   0.766 -0.3148  0.5800  1.3461
  342MOL0     C46089   1.453   7.281   0.686 -0.0000  0.9237 -0.0514
  342MOL0     C46090   1.842   7.323   0.552 -0.4142 -0.5123  0.9560
  342MOL0     C46091   1.807   7.351   0.420 -0.5202  0.0903 -0.8875
  342MOL0     C46092   1.901   7.341   0.315 -1.6393  0.8213 -0.1063
  342MOL0     C46093   2.028   7.284   0.335  0.8384  0.2032  0.1328
  342MOL0     O46094   2.112   7.256   0.231 -0.0117 -0.4852  0.6759
  342MOL0     C46095   2.249   7.277   0.247  0.5406 -0.1030 -0.3591
  342MOL0     C46096   2.324   7.249   0.111  0.0079 -0.5411  0.1684
  342MOL0     C46097   2.472   7.303   0.126  0.4993 -0.6879 -0.5954
  342MOL0     C46098   2.559   7.273   0.005  0.3111  0.2142 -1.1484
  342MOL0     C46099   2.594   7.133  -0.006  0.4775  0.6161  0.0731
  342MOL0     C46100   2.622   7.016  -0.027 -0.8530 -0.4339  0.4496
  342MOL0     C46101   2.067   7.281   0.468  0.2111 -0.6063 -0.5713
  342MOL0     C46102   1.976   7.283   0.580 -0.4359 -0.1342  0.5358
  342MOL0     H46103   1.564   7.555   0.856  0.2434  1.6470 -1.9915
  342MOL0     H46104   1.367   7.511   0.987  1.2950  0.6315  0.3487
  342MOL0     H46105   1.329   7.150   1.048  2.5251  2.5639 -0.6096
  342MOL0     H46106   1.294   7.291   1.140 -2.5851  0.5827  0.3974
  342MOL0     H46107   1.193   7.093   1.244 -2.3682 -3.6932  1.1129
  342MOL0     H46108   1.046   7.184   1.177 -0.9373 -0.4193  0.0294
  342MOL0     H46109   1.207   6.973   1.018 -1.1389 -0.3148 -2.2756
  342MOL0     H46110   1.127   6.915   1.163 -1.5359  1.0484  1.7181
  342MOL0     H46111   0.913   7.001   1.047 -0.8351  0.8897 -1.0922
  342MOL0     H46112   1.013   7.074   0.915  0.1058  3.1093  3.4267
  342MOL0     H46113   1.079   6.850   0.866  0.5709 -1.3169  0.9292
  342MOL0     H46114   0.980   6.786   1.002 -0.9180  1.9907  0.4034
  342MOL0     H46115   0.892   6.760   0.770 -3.8793  0.2816 -1.3074
  342MOL0     H46116   0.778   6.805   0.897  0.6623 -2.3253  0.5640
  342MOL0     H46117   0.799   7.046   0.817  1.5692  1.8415 -1.9438
  342MOL0     H46118   0.902   6.984   0.686 -0.5931  0.0670 -1.3385
  342MOL0     H46119   0.674   6.819   0.656  1.3806 -0.2553  0.9753
  342MOL0     H46120   0.704   6.973   0.572  2.3981  1.0853  0.5691
  342MOL0     H46121   0.578   6.807   0.889  0.3824  0.2783  0.5908
  342MOL0     H46122   0.421   6.906   1.109  2.4848  3.7217 -0.2628
  342MOL0     H46123   0.301   7.020   1.077 -0.3064 -0.9847  0.7419
  342MOL0     H46124   0.303   6.748   0.938  0.4325 -1.0656  3.3099
  342MOL0     H46125   0.204   6.888   0.898  3.4811  3.0324  0.4013
  342MOL0     H46126   0.069   6.733   1.038 -0.5599  0.2728  0.5145
  342MOL0     H46127   0.103   6.878   1.132 -0.8245 -0.4689  0.5442
  342MOL0     H46128   0.296   6.750   1.256 -0.0581  0.7325  0.1081
  342MOL0     H46129   0.242   6.609   1.154 -2.8399 -0.0990 -2.1352
  342MOL0     H46130   0.085   6.490   1.089 -1.8424 -1.7092 -2.2507
  342MOL0     H46131  -0.001   6.314   0.979 -0.8018 -1.3238 -0.4770
  342MOL0     H46132  -0.142   6.227   1.031  0.5428  0.7945  1.8755
  342MOL0     H46133  -0.152   6.378   0.943  0.3862 -0.7139  0.7147
  342MOL0     H46134  -0.329   6.006   1.431  0.5415 -3.3817 -0.8554
  342MOL0     H46135  -0.519   5.844   1.450  0.2702 -0.0453 -0.4639
  342MOL0     H46136  -0.885   6.038   1.468  1.7532 -0.8256  0.5480
  342MOL0     H46137  -0.958   5.967   1.324 -0.4972  1.5584  0.1920
  342MOL0     H46138  -1.012   5.768   1.416 -1.1090  1.3425 -0.9722
  342MOL0     H46139  -0.937   5.801   1.576  1.4201 -0.6100 -1.2420
  342MOL0     H46140  -1.151   5.978   1.471 -0.9302 -3.3959 -2.0521
  342MOL0     H46141  -1.081   5.958   1.641 -0.5169 -1.1950  1.1646
  342MOL0     H46142  -1.268   5.768   1.497 -1.1572  0.8719 -0.3929
  342MOL0     H46143  -1.158   5.733   1.649  0.5716  0.3152 -0.5187
  342MOL0     H46144  -1.316   5.894   1.767 -0.1064  1.5711 -0.9107
  342MOL0     H46145  -1.397   5.754   1.707  2.1602 -1.0875  0.5789
  342MOL0     H46146  -1.390   6.028   1.582  2.3352 -1.1712 -3.7827
  342MOL0     H46147  -1.437   5.895   1.484  0.4024 -1.4737  1.0154
  342MOL0     H46148  -1.634   6.010   1.554 -0.7455 -1.7289 -0.6145
  342MOL0     H46149  -1.585   6.013   1.717 -2.2794 -3.5560  0.7747
  342MOL0     H46150  -1.638   5.744   1.579  1.4716  1.0395 -0.0859
  342MOL0     H46151  -1.770   5.822   1.649 -0.6457 -2.0860 -0.5657
  342MOL0     H46152  -0.771   6.154   1.278 -0.4269  2.5138  2.5873
  342MOL0     H46153  -0.592   6.300   1.282  0.5336  0.5242 -1.3093
  342MOL0     H46154  -0.248   6.466   1.457 -0.2409  1.4153  0.8310
  342MOL0     H46155  -0.079   6.627   1.478 -0.0668  1.5023 -0.1183
  342MOL0     H46156   1.269   7.169   0.741 -0.4654  0.8445  0.9172
  342MOL0     H46157   1.474   7.229   0.594 -0.7132  2.0277 -0.8650
  342MOL0     H46158   1.703   7.373   0.395 -0.2502  0.6368 -1.5708
  342MOL0     H46159   1.879   7.363   0.211  0.1885  2.3421 -0.2302
  342MOL0     H46160   2.268   7.382   0.270  1.1925 -0.0049 -1.2756
  342MOL0     H46161   2.275   7.216   0.334 -0.5184 -1.3259 -0.8591
  342MOL0     H46162   2.273   7.304   0.032  0.7765  1.6571  1.1255
  342MOL0     H46163   2.319   7.142   0.090 -3.2825 -0.7099  1.2971
  342MOL0     H46164   2.526   7.290   0.220  1.0333  3.9693 -0.0305
  342MOL0     H46165   2.469   7.413   0.124  1.2995 -0.6690 -1.5224
  342MOL0     H46166   2.649   7.336  -0.002 -1.6361  3.3618 -0.0974
  342MOL0     H46167   2.493   7.300  -0.078 -3.7086  1.4387  2.0965
  342MOL0     H46168   2.660   6.919  -0.051  1.6801  0.6617 -0.2760
  342MOL0     H46169   2.169   7.251   0.492  1.4623  1.1416 -3.1363
  342MOL0     H46170   2.006   7.253   0.680 -1.1240  1.5448  1.2772
  343MOL0     O46171   8.559   1.841   0.585 -0.3851  0.6195 -0.4241
  343MOL0     C46172   8.516   1.765   0.495 -0.5638  0.4583 -0.7066
  343MOL0     O46173   8.422   1.792   0.394  0.1714  0.2224  0.6152
  343MOL0     C46174   8.365   1.915   0.400  0.6246 -0.0302 -0.0992
  343MOL0     C46175   8.440   2.035   0.387  0.7043  0.4461  0.1510
  343MOL0     C46176   8.369   2.159   0.390  0.0792 -0.0273 -0.2180
  343MOL0     C46177   8.225   2.160   0.398 -1.0244  0.7278  1.1030
  343MOL0     O46178   8.155   2.277   0.405 -0.0829 -0.6043 -0.3214
  343MOL0     C46179   8.226   2.403   0.415 -0.3290  1.1429  0.5071
  343MOL0     C46180   8.128   2.525   0.390 -0.7084 -0.1835 -0.8717
  343MOL0     C46181   8.031   2.507   0.270  0.8108  0.0822 -1.0664
  343MOL0     C46182   7.942   2.630   0.253  0.2916  0.1917  0.7604
  343MOL0     C46183   7.858   2.627   0.118  0.0483 -0.8422 -0.7832
  343MOL0     C46184   7.800   2.765   0.089 -0.4471  0.5343  0.6515
  343MOL0     C46185   7.684   2.752  -0.018 -0.7184 -0.2412 -0.9551
  343MOL0     C46186   7.648   2.884  -0.083  0.8341 -1.3158  0.4096
  343MOL0     N46187   7.583   2.982   0.011 -0.6879 -0.4484 -0.0455
  343MOL0     C46188   7.450   2.985   0.050  0.4787  0.1284 -0.3390
  343MOL0     C46189   7.441   3.083   0.142 -0.2982 -0.0937  0.3548
  343MOL0     C46190   7.317   3.102   0.232  0.7337  0.0796  0.5678
  343MOL0     C46191   7.227   3.229   0.210 -0.4592  0.1885  0.1507
  343MOL0     C46192   7.302   3.363   0.223 -0.0977 -0.5186 -0.4192
  343MOL0     C46193   7.201   3.482   0.213  0.2658  0.6925  0.0500
  343MOL0     O46194   7.123   3.488   0.335 -0.2571  0.0236  0.6207
  343MOL0     C46195   6.990   3.519   0.323 -0.5212 -0.2867  0.0297
  343MOL0     C46196   6.956   3.643   0.376  0.9177  0.0830 -0.6896
  343MOL0     C46197   6.816   3.661   0.417  0.2019  0.1486  0.6614
  343MOL0     C46198   6.778   3.787   0.489 -0.3540 -0.4851  0.2654
  343MOL0     C46199   6.712   3.569   0.369 -1.1819  0.2719  0.8112
  343MOL0     C46200   6.566   3.600   0.365  0.6490 -0.2574  0.9068
  343MOL0     O46201   6.481   3.493   0.352  0.7796  0.4902  0.1544
  343MOL0     C46202   6.360   3.516   0.412  0.5953  0.3231  0.7553
  343MOL0     C46203   6.345   3.499   0.550 -0.4048 -0.6716  1.0033
  343MOL0     C46204   6.224   3.508   0.611  0.0542 -0.0922 -0.2273
  343MOL0     C46205   6.102   3.524   0.540 -0.4039  0.0825  0.0676
  343MOL0     O46206   5.987   3.551   0.623 -0.3121  0.0541  0.2816
  343MOL0     C46207   5.860   3.533   0.560  0.1881  0.6303 -0.4765
  343MOL0     C46208   5.822   3.381   0.557 -0.9969 -0.7480  0.0673
  343MOL0     C46209   5.817   3.321   0.700  0.2573  0.3633 -0.5615
  343MOL0     C46210   5.735   3.404   0.809  0.2997 -0.6034 -0.1227
  343MOL0     C46211   5.701   3.337   0.942 -0.5223  0.3430  0.2156
  343MOL0     C46212   5.598   3.224   0.935 -0.0067 -0.8899  0.4259
  343MOL0     C46213   5.544   3.203   1.075 -0.4753  1.1122 -0.1360
  343MOL0     C46214   5.469   3.069   1.053  0.4375  0.3625 -1.7066
  343MOL0    Cl46215   5.383   3.066   1.202  0.3471  0.4937 -0.1632
  343MOL0     C46216   6.115   3.549   0.402  0.5090 -0.1673  0.4385
  343MOL0     C46217   6.239   3.539   0.342 -0.2959 -0.9387 -1.1563
  343MOL0     O46218   6.532   3.715   0.359  0.3071  0.0028  0.4584
  343MOL0     C46219   6.757   3.447   0.313 -0.6649  0.1817  0.5564
  343MOL0     C46220   6.893   3.426   0.291  0.8012 -0.0294  0.5458
  343MOL0     N46221   7.568   3.144   0.146  0.4899 -0.6123 -0.4835
  343MOL0     N46222   7.653   3.082   0.071 -0.4498  0.4996 -0.3151
  343MOL0     C46223   8.162   2.035   0.407 -0.4585  0.4245 -0.2466
  343MOL0     C46224   8.228   1.915   0.417  0.6078 -0.1168 -0.8818
  343MOL0     C46225   8.576   1.632   0.482  0.5573 -0.2645 -0.1481
  343MOL0     C46226   8.699   1.601   0.527 -0.5557 -1.7427 -0.3995
  343MOL0     C46227   8.757   1.479   0.508  0.5502  0.6416  0.6633
  343MOL0     C46228   8.686   1.380   0.446 -0.4469  0.4127  1.1849
  343MOL0     O46229   8.745   1.252   0.419  0.5165 -0.0661  0.2101
  343MOL0     C46230   8.865   1.207   0.488  0.2825 -0.3745 -0.1042
  343MOL0     C46231   8.828   1.172   0.622  0.4665  0.4041 -0.7614
  343MOL0     C46232   8.741   1.048   0.628  0.2556  0.3755  0.0142
  343MOL0     C46233   8.653   1.042   0.747 -0.4254 -0.3005  0.3226
  343MOL0     C46234   8.597   0.906   0.771  0.8365 -0.2965  0.0710
  343MOL0     C46235   8.546   0.794   0.781 -0.0404 -0.3545 -0.7000
  343MOL0     C46236   8.555   1.401   0.409 -0.6073 -0.2845  0.2757
  343MOL0     C46237   8.500   1.524   0.432  0.1332 -0.3342 -0.6666
  343MOL0     H46238   8.548   2.021   0.386  0.5017 -1.6670  1.3434
  343MOL0     H46239   8.438   2.243   0.387  1.7478 -1.3206  0.4308
  343MOL0     H46240   8.283   2.407   0.508 -0.0962 -0.8310  0.4937
  343MOL0     H46241   8.299   2.403   0.333 -1.4253 -1.8498 -0.6353
  343MOL0     H46242   8.070   2.551   0.479 -2.3837  1.1716 -2.2677
  343MOL0     H46243   8.180   2.620   0.372 -1.5223  0.8356  1.6894
  343MOL0     H46244   8.096   2.493   0.183  0.5329  0.0644 -1.2690
  343MOL0     H46245   7.966   2.422   0.288 -0.3998  1.4629  1.8190
  343MOL0     H46246   7.882   2.659   0.340 -3.4324 -0.2537 -1.4654
  343MOL0     H46247   8.011   2.714   0.237  0.4101  0.3015  1.7624
  343MOL0     H46248   7.911   2.578   0.037 -0.5049 -2.1884 -0.3534
  343MOL0     H46249   7.780   2.555   0.145  1.3884 -1.4310  1.9312
  343MOL0     H46250   7.767   2.818   0.179  1.0552  1.3274  0.7708
  343MOL0     H46251   7.886   2.820   0.049 -1.0504  0.6168 -0.5420
  343MOL0     H46252   7.718   2.681  -0.095  0.3223 -1.3477  0.4737
  343MOL0     H46253   7.597   2.715   0.035 -1.3689  1.9357 -0.4127
  343MOL0     H46254   7.574   2.862  -0.161  0.0688  0.6173  0.5278
  343MOL0     H46255   7.731   2.923  -0.143  1.3282 -0.5330  1.5733
  343MOL0     H46256   7.377   2.907   0.033  2.0562 -1.0892 -1.8459
  343MOL0     H46257   7.249   3.016   0.225 -3.1330  2.9181 -0.6103
  343MOL0     H46258   7.363   3.101   0.331  1.9398  1.2518  0.0508
  343MOL0     H46259   7.145   3.222   0.283 -1.2244  0.0367 -0.6996
  343MOL0     H46260   7.175   3.221   0.114 -3.3102 -1.0553  1.6770
  343MOL0     H46261   7.394   3.371   0.164 -0.3072 -2.2040 -1.0288
  343MOL0     H46262   7.325   3.366   0.330 -0.4599  1.7172 -0.3497
  343MOL0     H46263   7.131   3.464   0.131 -1.5552  0.1911  1.6321
  343MOL0     H46264   7.245   3.579   0.186 -1.5418  0.6221 -3.8064
  343MOL0     H46265   7.030   3.710   0.416 -0.5797  1.4620 -0.1481
  343MOL0     H46266   6.855   3.842   0.544  1.5664 -1.4176 -1.3466
  343MOL0     H46267   6.730   3.857   0.421 -0.5607 -1.9556 -1.1779
  343MOL0     H46268   6.692   3.778   0.557 -0.8283  1.5810 -0.0056
  343MOL0     H46269   6.430   3.478   0.615  1.2206 -1.5478 -1.2990
  343MOL0     H46270   6.232   3.495   0.719  0.6457  0.6402 -0.1763
  343MOL0     H46271   5.783   3.583   0.618 -0.7505 -0.5398 -0.6846
  343MOL0     H46272   5.851   3.566   0.456  0.2738  1.2862 -0.2851
  343MOL0     H46273   5.725   3.372   0.508 -0.8099  0.5237 -0.5777
  343MOL0     H46274   5.895   3.323   0.499 -4.2065 -3.1185 -1.9459
  343MOL0     H46275   5.923   3.307   0.725  0.1314  1.5600  0.7265
  343MOL0     H46276   5.769   3.223   0.692  0.8987  0.0034 -0.0903
  343MOL0     H46277   5.790   3.497   0.825 -0.2638  0.0237 -1.6843
  343MOL0     H46278   5.643   3.424   0.754  0.1635  2.2998  0.9719
  343MOL0     H46279   5.658   3.418   1.002 -1.3649 -0.7881  1.1994
  343MOL0     H46280   5.790   3.301   0.994  0.5885  1.1450 -1.0917
  343MOL0     H46281   5.517   3.256   0.868  0.4763  0.7401  0.5591
  343MOL0     H46282   5.654   3.147   0.881  0.7075  1.4967 -2.5642
  343MOL0     H46283   5.467   3.275   1.103 -1.4647 -0.1922  0.6510
  343MOL0     H46284   5.621   3.188   1.151  0.8606 -2.0363 -1.8875
  343MOL0     H46285   5.536   2.984   1.036  2.1669  0.9443  1.5253
  343MOL0     H46286   5.403   3.073   0.965  1.5337  0.9500 -2.5365
  343MOL0     H46287   6.024   3.561   0.344 -0.7828 -1.3757  2.1379
  343MOL0     H46288   6.235   3.550   0.234 -0.0415  2.6999 -0.9412
  343MOL0     H46289   6.683   3.369   0.297  0.7504 -1.4025  1.3706
  343MOL0     H46290   6.938   3.336   0.250  1.2350  0.2665  0.3702
  343MOL0     H46291   8.055   2.016   0.406 -0.7240  0.7243  4.3473
  343MOL0     H46292   8.178   1.822   0.440 -1.1258  0.9628 -0.0623
  343MOL0     H46293   8.756   1.676   0.581 -2.4471  2.7526 -3.9953
  343MOL0     H46294   8.861   1.472   0.539  0.5988 -3.2234  0.1360
  343MOL0     H46295   8.907   1.122   0.434  0.5895  0.3230 -0.9884
  343MOL0     H46296   8.943   1.284   0.489  0.0942 -0.1827  0.4158
  343MOL0     H46297   8.774   1.257   0.665 -1.2344 -1.0232  0.0206
  343MOL0     H46298   8.914   1.151   0.686 -1.1952  1.2366  1.9126
  343MOL0     H46299   8.801   0.960   0.604  0.6552  0.7108 -0.2436
  343MOL0     H46300   8.674   1.047   0.541  0.3521 -0.4073 -0.0541
  343MOL0     H46301   8.565   1.103   0.725 -0.3218  0.5441  2.0620
  343MOL0     H46302   8.694   1.082   0.841  0.1778  2.0691 -0.8708
  343MOL0     H46303   8.509   0.696   0.802  0.2629 -0.3953 -0.3476
  343MOL0     H46304   8.504   1.321   0.355  0.0922 -0.0664 -0.7349
  343MOL0     H46305   8.397   1.529   0.398  0.0165 -3.2447 -0.9922
  344MOL0     O46306   4.756  10.843   7.116 -0.9713 -0.1895 -0.1076
  344MOL0     C46307   4.855  10.859   7.045 -0.3374 -0.7116 -0.0567
  344MOL0     O46308   4.851  10.869   6.908  0.5580  0.1075  0.1243
  344MOL0     C46309   4.729  10.865   6.848  0.8832  0.3754  0.2523
  344MOL0     C46310   4.656  10.977   6.818  0.3775 -0.9008  0.2866
  344MOL0     C46311   4.534  10.967   6.757  0.2333  0.1656  0.9678
  344MOL0     C46312   4.474  10.840   6.734 -0.2963 -0.2332 -0.6081
  344MOL0     O46313   4.345  10.822   6.679  0.4652  0.0877 -0.1718
  344MOL0     C46314   4.351  10.768   6.548 -0.1294  0.0290 -0.3788
  344MOL0     C46315   4.228  10.704   6.503 -0.1402 -0.3839  0.6295
  344MOL0     C46316   4.119  10.814   6.480 -0.0194 -0.0598 -0.9879
  344MOL0     C46317   3.985  10.741   6.491 -0.0752 -0.5541 -0.3851
  344MOL0     C46318   3.876  10.849   6.467  0.6111 -0.1718  0.8637
  344MOL0     C46319   3.725  10.797   6.467 -0.3372  0.4417 -0.5180
  344MOL0     C46320   3.665  10.738   6.332 -0.2813  0.1913 -0.3133
  344MOL0     C46321   3.514  10.710   6.363 -0.1575 -0.5707  0.7200
  344MOL0     N46322   3.429  10.810   6.289  0.0642 -0.6279  0.0232
  344MOL0     C46323   3.345  10.789   6.180 -0.3889 -0.0858  0.2967
  344MOL0     C46324   3.277  10.908   6.164 -0.4963  0.0534 -0.3510
  344MOL0     C46325   3.178  10.945   6.060  0.3344  0.6514  0.4542
  344MOL0     C46326   3.058  11.025   6.112 -0.1470  0.7022 -0.0784
  344MOL0     C46327   2.962  11.061   5.988 -0.3259  0.2172 -0.3132
  344MOL0     C46328   2.844  10.969   5.973 -0.4924  0.2485 -0.3743
  344MOL0     O46329   2.755  10.996   6.081  0.4051 -0.3639 -0.3697
  344MOL0     C46330   2.667  10.897   6.113  0.2169 -0.7848 -0.2447
  344MOL0     C46331   2.577  10.856   6.021 -0.2939 -0.7185  0.3300
  344MOL0     C46332   2.486  10.745   6.041 -0.7912 -0.6179  0.8505
  344MOL0     C46333   2.383  10.727   5.932  0.4783 -0.6169  0.0922
  344MOL0     C46334   2.491  10.683   6.164  0.2104 -0.3695  0.1718
  344MOL0     C46335   2.396  10.578   6.211 -0.4610  0.1736 -0.2878
  344MOL0     O46336   2.414  10.535   6.340 -0.2372  0.3596  0.1105
  344MOL0     C46337   2.374  10.406   6.367 -0.2221 -0.3448  0.5459
  344MOL0     C46338   2.244  10.383   6.411  0.5368  0.9041 -0.5582
  344MOL0     C46339   2.210  10.256   6.451  0.2416 -0.0073  0.4003
  344MOL0     C46340   2.306  10.157   6.445  1.0793 -0.0416 -0.0792
  344MOL0     O46341   2.276  10.024   6.485 -0.0424 -0.6144  0.2383
  344MOL0     C46342   2.364   9.918   6.443  1.5432  0.1026  0.2179
  344MOL0     C46343   2.283   9.782   6.450  0.2414  0.2251 -0.6022
  344MOL0     C46344   2.148   9.786   6.363  0.2718 -0.2238  0.3442
  344MOL0     C46345   2.031   9.855   6.442  0.5765 -0.0486 -0.4025
  344MOL0     C46346   1.896   9.804   6.393  0.4885  0.0340  0.7182
  344MOL0     C46347   1.852   9.684   6.467 -0.0996  0.9201  0.5255
  344MOL0     C46348   1.712   9.638   6.433  1.0159  0.0577  0.5763
  344MOL0     C46349   1.664   9.532   6.545  0.4393 -0.3871 -0.6241
  344MOL0    Cl46350   1.777   9.400   6.541  0.5757  0.2562  0.1608
  344MOL0     C46351   2.440  10.177   6.408 -0.1186  0.2407  0.6359
  344MOL0     C46352   2.467  10.306   6.363  0.1809 -0.1109 -0.6126
  344MOL0     O46353   2.319  10.526   6.129 -0.4428 -0.0112 -0.7196
  344MOL0     C46354   2.579  10.733   6.260  0.6899  0.1337  0.2304
  344MOL0     C46355   2.670  10.830   6.237  0.4921  0.2823  0.1308
  344MOL0     N46356   3.321  10.998   6.256  0.3696  0.0582 -0.7506
  344MOL0     N46357   3.409  10.939   6.328  0.2875 -0.5412  0.2661
  344MOL0     C46358   4.542  10.726   6.783 -0.2627 -0.2100 -0.1485
  344MOL0     C46359   4.675  10.742   6.830  0.2746  0.4572  0.2057
  344MOL0     C46360   4.977  10.902   7.111 -0.7854  0.1028 -0.4347
  344MOL0     C46361   4.991  10.913   7.251 -0.0366 -0.0946  0.5489
  344MOL0     C46362   5.114  10.955   7.314 -0.4053 -0.0640  0.0757
  344MOL0     C46363   5.225  10.980   7.231  0.6073 -0.0566  0.9185
  344MOL0     O46364   5.345  11.031   7.280  0.3395  0.2077 -0.6501
  344MOL0     C46365   5.366  11.051   7.424 -1.1426 -0.5118  0.3766
  344MOL0     C46366   5.431  10.928   7.485 -0.1425  0.0019  0.5445
  344MOL0     C46367   5.581  10.925   7.455 -0.2634 -0.1425 -0.7068
  344MOL0     C46368   5.650  10.800   7.500  1.1621 -0.5611 -0.2482
  344MOL0     C46369   5.796  10.810   7.474 -0.1742 -1.4832 -0.0836
  344MOL0     C46370   5.912  10.818   7.454 -0.4267 -0.6262 -0.4584
  344MOL0     C46371   5.211  10.968   7.094  0.8271  0.0458  0.6272
  344MOL0     C46372   5.089  10.935   7.027 -0.2741 -1.0424 -0.5172
  344MOL0     H46373   4.707  11.073   6.822  0.3414 -0.5722 -3.6611
  344MOL0     H46374   4.479  11.052   6.718  0.4636 -0.2287 -0.2804
  344MOL0     H46375   4.366  10.850   6.477 -0.0790  0.1161 -0.2675
  344MOL0     H46376   4.432  10.693   6.551 -0.4411 -0.4040  4.3328
  344MOL0     H46377   4.237  10.660   6.403 -2.7059  2.5992 -1.1051
  344MOL0     H46378   4.201  10.626   6.575 -0.0427  1.5658  2.9096
  344MOL0     H46379   4.124  10.884   6.564  1.8205 -1.6303  0.3016
  344MOL0     H46380   4.127  10.861   6.382 -3.6814 -0.2646 -1.5405
  344MOL0     H46381   3.982  10.660   6.418  1.1934 -0.9411 -0.0289
  344MOL0     H46382   3.972  10.695   6.590  0.5056  0.4695  0.1851
  344MOL0     H46383   3.889  10.941   6.525 -4.6988  2.2158 -1.0544
  344MOL0     H46384   3.900  10.891   6.369  0.7648 -0.4344  0.7880
  344MOL0     H46385   3.711  10.714   6.537  1.7076 -0.4391 -1.0719
  344MOL0     H46386   3.659  10.872   6.512  1.5402 -0.0401  3.3999
  344MOL0     H46387   3.679  10.819   6.260 -0.4772  0.4486 -0.0618
  344MOL0     H46388   3.708  10.638   6.315 -0.7644 -0.2419  0.8651
  344MOL0     H46389   3.487  10.740   6.465 -0.9723  1.6045 -0.0759
  344MOL0     H46390   3.488  10.605   6.345  4.4381 -2.2778  2.5667
  344MOL0     H46391   3.344  10.695   6.125  2.1346 -0.4137  0.6905
  344MOL0     H46392   3.227  11.002   5.980  2.6682  0.9648  1.9962
  344MOL0     H46393   3.138  10.852   6.019  0.5952  0.5106  0.5144
  344MOL0     H46394   3.090  11.116   6.163 -0.5089  0.0487  1.3585
  344MOL0     H46395   3.008  10.957   6.181  2.0586  0.2279  1.1326
  344MOL0     H46396   3.008  11.086   5.892  0.1915  0.7073  0.0566
  344MOL0     H46397   2.918  11.157   6.015 -0.3838 -1.0077  4.8425
  344MOL0     H46398   2.868  10.863   5.982  3.6524  0.8054 -2.5358
  344MOL0     H46399   2.789  10.992   5.881  0.9514  0.8977 -1.1095
  344MOL0     H46400   2.567  10.922   5.935  0.1442 -0.0841  0.7608
  344MOL0     H46401   2.300  10.794   5.955  1.0000  0.7542 -1.7119
  344MOL0     H46402   2.406  10.752   5.828 -2.9229 -2.6759 -1.3010
  344MOL0     H46403   2.352  10.624   5.912 -0.7155 -0.8041  2.6527
  344MOL0     H46404   2.172  10.464   6.413  2.0254  2.2614 -0.4406
  344MOL0     H46405   2.110  10.247   6.492 -0.4662  3.8319 -0.1219
  344MOL0     H46406   2.385   9.941   6.338 -2.2594  0.3621 -0.6514
  344MOL0     H46407   2.455   9.911   6.503  2.0553  0.8217 -0.4482
  344MOL0     H46408   2.341   9.696   6.417 -0.1892 -1.0484  1.7843
  344MOL0     H46409   2.257   9.765   6.555 -2.7773  3.1667 -0.6944
  344MOL0     H46410   2.115   9.685   6.336  1.2651  0.3756 -3.8059
  344MOL0     H46411   2.172   9.843   6.273  0.7888  0.0389  0.6476
  344MOL0     H46412   2.032   9.853   6.551 -1.2679 -1.5370 -0.3459
  344MOL0     H46413   2.032   9.963   6.424 -0.3735 -0.2672 -2.0499
  344MOL0     H46414   1.899   9.772   6.289 -3.4681  0.0058  0.4880
  344MOL0     H46415   1.819   9.881   6.398 -0.4188 -0.8014 -0.1782
  344MOL0     H46416   1.925   9.607   6.440  0.8364  1.2528  1.9635
  344MOL0     H46417   1.867   9.699   6.574  3.8009  0.2656  0.2390
  344MOL0     H46418   1.702   9.594   6.333  1.1942  0.9168  0.1749
  344MOL0     H46419   1.635   9.713   6.455 -1.4548 -2.7228  2.0818
  344MOL0     H46420   1.561   9.497   6.535 -0.2289  0.8687  1.2520
  344MOL0     H46421   1.672   9.582   6.643 -1.0567  1.2950 -1.3065
  344MOL0     H46422   2.523  10.106   6.410 -0.0371  0.3105 -0.1659
  344MOL0     H46423   2.567  10.332   6.329  0.9257 -3.5921 -1.5110
  344MOL0     H46424   2.589  10.699   6.363  2.8002  3.1881  1.1564
  344MOL0     H46425   2.738  10.859   6.316  1.2373 -0.2800 -0.2842
  344MOL0     H46426   4.489  10.631   6.780 -0.4803 -0.0836 -0.2401
  344MOL0     H46427   4.736  10.661   6.869  1.3520  1.8608  1.5564
  344MOL0     H46428   4.907  10.891   7.315 -1.4294 -4.4433 -2.3259
  344MOL0     H46429   5.112  10.972   7.422 -2.9237  1.5912 -0.1414
  344MOL0     H46430   5.445  11.126   7.438  0.4800 -1.4422 -2.7947
  344MOL0     H46431   5.276  11.078   7.480 -1.6811 -1.0210 -0.2361
  344MOL0     H46432   5.382  10.836   7.453  0.5435 -0.9064  2.0150
  344MOL0     H46433   5.418  10.918   7.593  0.9882 -2.5944  0.4887
  344MOL0     H46434   5.622  11.010   7.509 -5.9743  1.7052  1.5191
  344MOL0     H46435   5.601  10.936   7.349 -0.2868  1.5516 -0.5596
  344MOL0     H46436   5.605  10.715   7.447  1.6401  1.0486 -3.5254
  344MOL0     H46437   5.625  10.785   7.605  1.4721 -3.6802 -0.5355
  344MOL0     H46438   6.017  10.837   7.451 -0.3688 -0.9728 -0.6569
  344MOL0     H46439   5.302  10.987   7.036  3.3360 -4.5034  2.5418
  344MOL0     H46440   5.113  10.928   6.921  4.3394  0.2124  0.2489
  345MOL0     O46441   7.576   6.271  10.611  0.4425 -0.5062  0.2190
  345MOL0     C46442   7.622   6.153  10.624 -0.0912  0.1736 -0.1349
  345MOL0     O46443   7.757   6.112  10.589 -0.1595 -0.1344 -0.0215
  345MOL0     C46444   7.860   6.203  10.563  0.3904  0.1460  0.0595
  345MOL0     C46445   7.994   6.183  10.612  0.0707 -0.2321  0.5749
  345MOL0     C46446   8.097   6.281  10.577 -0.6538 -0.1749  0.6104
  345MOL0     C46447   8.075   6.384  10.490 -0.2041  0.2472 -0.2449
  345MOL0     O46448   8.190   6.461  10.468  0.3701 -0.0770  0.0599
  345MOL0     C46449   8.178   6.586  10.397  0.5767  0.2892  0.0858
  345MOL0     C46450   8.313   6.659  10.397 -0.4891 -0.0353  0.1560
  345MOL0     C46451   8.403   6.651  10.522  0.0776 -0.8622 -0.1734
  345MOL0     C46452   8.331   6.688  10.647 -0.1138  0.3996  0.2388
  345MOL0     C46453   8.430   6.681  10.770 -0.1788 -0.1256  0.4212
  345MOL0     C46454   8.466   6.536  10.813 -0.2317  0.2974 -0.8770
  345MOL0     C46455   8.340   6.447  10.840 -0.9495  0.4200 -0.7029
  345MOL0     C46456   8.402   6.321  10.901 -0.3812 -0.6238 -0.3186
  345MOL0     N46457   8.307   6.208  10.919  0.7727 -0.5950 -1.0960
  345MOL0     C46458   8.200   6.205  11.009 -0.4731 -0.3443  0.9487
  345MOL0     C46459   8.159   6.075  10.992 -0.3071 -0.4241  0.5559
  345MOL0     C46460   8.041   6.017  11.061  0.6006 -0.4613 -0.1434
  345MOL0     C46461   7.923   6.120  11.086 -1.2331  0.6756  0.5988
  345MOL0     C46462   7.786   6.067  11.041  0.2918  0.4655  0.5772
  345MOL0     C46463   7.667   6.154  11.083  0.4512  0.3844  0.6043
  345MOL0     O46464   7.628   6.141  11.227  0.1004  0.0319  0.4255
  345MOL0     C46465   7.530   6.057  11.253  0.4225  0.5021  0.2647
  345MOL0     C46466   7.538   5.980  11.361 -0.2774  0.4110 -0.2080
  345MOL0     C46467   7.440   5.890  11.410 -0.1598 -0.9420  0.3372
  345MOL0     C46468   7.464   5.827  11.545  0.3380  0.8078  0.0899
  345MOL0     C46469   7.321   5.884  11.341 -0.2420  0.0944  0.0124
  345MOL0     C46470   7.209   5.789  11.379 -0.1516 -1.1540  1.1055
  345MOL0     O46471   7.246   5.682  11.463 -0.5849 -0.1028  0.0541
  345MOL0     C46472   7.149   5.602  11.517  0.6418  0.7279  0.2478
  345MOL0     C46473   7.179   5.462  11.527 -0.0210 -0.6501  0.5857
  345MOL0     C46474   7.082   5.371  11.577 -0.4948  0.0316 -0.6290
  345MOL0     C46475   6.957   5.416  11.625  0.8335 -0.7445 -0.0851
  345MOL0     O46476   6.878   5.319  11.682  0.0937  0.6247  0.3945
  345MOL0     C46477   6.774   5.358  11.768  0.1776  0.3619 -0.3937
  345MOL0     C46478   6.672   5.238  11.762  0.1421 -0.0958  0.1345
  345MOL0     C46479   6.535   5.270  11.827  0.0089  0.6778  0.9980
  345MOL0     C46480   6.537   5.294  11.984  0.1441  0.2457 -0.3745
  345MOL0     C46481   6.407   5.306  12.048  0.8591  0.0364 -0.0547
  345MOL0     C46482   6.400   5.327  12.201  0.1549 -1.1935 -0.6035
  345MOL0     C46483   6.493   5.446  12.237 -0.0453  0.3209  0.8215
  345MOL0     C46484   6.475   5.500  12.371 -0.1303  0.7261  0.7780
  345MOL0    Cl46485   6.414   5.380  12.500  0.5328 -0.2908  0.6165
  345MOL0     C46486   6.935   5.557  11.624 -0.2992 -0.0242 -1.2766
  345MOL0     C46487   7.033   5.643  11.570 -0.3809  0.0627 -0.3610
  345MOL0     O46488   7.091   5.820  11.348 -0.1716 -0.4909 -0.0260
  345MOL0     C46489   7.299   5.975  11.237 -0.4324 -0.8775 -0.3253
  345MOL0     C46490   7.403   6.053  11.192 -1.4312 -0.1707 -0.4811
  345MOL0     N46491   8.228   6.016  10.899 -0.6732  0.4067  0.6108
  345MOL0     N46492   8.329   6.091  10.865  0.3180 -0.2218 -0.5305
  345MOL0     C46493   7.948   6.393  10.426  0.0241  0.5402 -0.1358
  345MOL0     C46494   7.838   6.311  10.468  0.3180 -0.9293 -0.0208
  345MOL0     C46495   7.537   6.048  10.677  0.2270  0.5713  0.4104
  345MOL0     C46496   7.595   5.926  10.730  0.0808  0.3361 -0.6480
  345MOL0     C46497   7.528   5.826  10.798 -0.3721  0.2793 -0.2243
  345MOL0     C46498   7.391   5.848  10.805 -0.3987 -1.0580  0.2840
  345MOL0     O46499   7.300   5.768  10.863 -0.0108  0.5841 -0.1568
  345MOL0     C46500   7.335   5.688  10.978 -1.0061 -0.4429 -0.6588
  345MOL0     C46501   7.259   5.562  10.992  0.6907  0.4553 -0.4194
  345MOL0     C46502   7.115   5.608  11.019  0.0090  0.2080 -0.7999
  345MOL0     C46503   7.034   5.482  11.034 -0.8478 -0.4306  0.5215
  345MOL0     C46504   7.071   5.402  11.152  0.3239  0.0511 -0.3526
  345MOL0     C46505   7.126   5.341  11.241 -0.4294  0.2633  0.3680
  345MOL0     C46506   7.333   5.954  10.737 -1.3577  0.1790  0.4921
  345MOL0     C46507   7.400   6.055  10.669 -0.5510  0.1036  0.0963
  345MOL0     H46508   8.036   6.108  10.677  0.7224 -1.0699 -0.7629
  345MOL0     H46509   8.194   6.282  10.626  0.3701  0.2834 -1.3267
  345MOL0     H46510   8.157   6.570  10.291 -0.6119 -1.0026  0.4820
  345MOL0     H46511   8.101   6.644  10.449  0.2499 -1.8389  2.1371
  345MOL0     H46512   8.365   6.610  10.314  1.7782  1.5828  0.5360
  345MOL0     H46513   8.299   6.762  10.365 -0.7607 -0.3571 -0.8018
  345MOL0     H46514   8.439   6.548  10.526  2.0193 -0.2513 -0.5367
  345MOL0     H46515   8.488   6.718  10.504 -1.2323  1.2219  1.0020
  345MOL0     H46516   8.299   6.791  10.633  0.3479  0.4968 -0.1169
  345MOL0     H46517   8.240   6.627  10.652  0.3264 -0.1965  1.4696
  345MOL0     H46518   8.525   6.734  10.758  0.2275 -0.7366  0.8574
  345MOL0     H46519   8.367   6.723  10.849 -1.1853 -3.9394  1.8894
  345MOL0     H46520   8.517   6.499  10.724 -4.0428  1.4660 -3.8069
  345MOL0     H46521   8.530   6.543  10.902 -0.6214 -1.2344 -0.4470
  345MOL0     H46522   8.280   6.506  10.910 -0.4314  0.5075 -0.3299
  345MOL0     H46523   8.282   6.425  10.749 -0.6922  1.9605 -1.2709
  345MOL0     H46524   8.444   6.345  10.999  0.1651 -0.1526 -0.6636
  345MOL0     H46525   8.480   6.283  10.834 -0.2569  0.4216 -0.7821
  345MOL0     H46526   8.150   6.277  11.073  1.9711  0.6258  1.9173
  345MOL0     H46527   8.004   5.932  11.003 -0.5248  0.1221 -0.3094
  345MOL0     H46528   8.066   5.982  11.161 -1.4391 -0.3627  0.4245
  345MOL0     H46529   7.936   6.216  11.036 -0.1004  1.8640  2.9843
  345MOL0     H46530   7.927   6.155  11.190  1.9860  0.3576  0.6840
  345MOL0     H46531   7.766   5.969  11.087 -1.3081 -0.0872 -1.1481
  345MOL0     H46532   7.783   6.043  10.934  0.1348 -2.4674  1.1557
  345MOL0     H46533   7.586   6.110  11.025  0.4698 -0.1963  1.0076
  345MOL0     H46534   7.689   6.259  11.058 -2.2238  1.1483  1.0985
  345MOL0     H46535   7.631   5.982  11.418 -0.3637 -2.3478  0.1432
  345MOL0     H46536   7.484   5.719  11.544 -0.1422  0.6761  1.9491
  345MOL0     H46537   7.556   5.873  11.583  1.6175 -0.6684 -1.0310
  345MOL0     H46538   7.379   5.844  11.612  0.5373  1.3823  0.2021
  345MOL0     H46539   7.277   5.427  11.494  1.7902  0.7463  3.9699
  345MOL0     H46540   7.095   5.266  11.599 -0.4332  0.1641 -0.0080
  345MOL0     H46541   6.808   5.363  11.872 -0.9722 -1.4289  0.1139
  345MOL0     H46542   6.716   5.450  11.752 -0.9721 -0.3602 -0.5044
  345MOL0     H46543   6.657   5.214  11.656 -0.1147 -0.3907  0.2322
  345MOL0     H46544   6.706   5.146  11.810 -0.9335 -0.1423  0.8554
  345MOL0     H46545   6.460   5.195  11.801 -0.0172 -0.2610  3.5044
  345MOL0     H46546   6.497   5.364  11.787  1.8144  0.2387 -2.0477
  345MOL0     H46547   6.601   5.221  12.034  0.7759  0.6568 -0.5794
  345MOL0     H46548   6.593   5.387  11.991 -0.3827  0.7959 -2.6377
  345MOL0     H46549   6.347   5.223  12.010 -0.0891  1.2365 -1.2770
  345MOL0     H46550   6.365   5.394  11.999  1.3856 -1.6115 -3.8127
  345MOL0     H46551   6.293   5.347  12.216 -0.5163 -3.7474 -1.5200
  345MOL0     H46552   6.440   5.236  12.245 -0.4585 -1.8752 -1.4079
  345MOL0     H46553   6.475   5.532  12.172  0.0515 -2.6859 -3.6822
  345MOL0     H46554   6.593   5.402  12.225 -1.0151 -1.6476 -0.5312
  345MOL0     H46555   6.400   5.580  12.370 -0.3413  0.6372 -2.8625
  345MOL0     H46556   6.570   5.546  12.400  0.1266  0.3600  0.5288
  345MOL0     H46557   6.847   5.603  11.668 -1.2403  0.9919 -4.0236
  345MOL0     H46558   7.030   5.749  11.593 -0.4471  0.0382 -0.2559
  345MOL0     H46559   7.198   6.002  11.208 -0.5678  0.1203  0.9760
  345MOL0     H46560   7.389   6.120  11.108 -0.8594 -0.5510 -0.8812
  345MOL0     H46561   7.912   6.463  10.351  0.4869 -1.3665 -2.2696
  345MOL0     H46562   7.737   6.329  10.432 -0.0021  1.2920  1.7566
  345MOL0     H46563   7.703   5.915  10.730  0.2326 -1.1362  4.7381
  345MOL0     H46564   7.586   5.741  10.833  1.6779  2.8791  3.4948
  345MOL0     H46565   7.439   5.655  10.968 -0.4878  0.9631 -0.1733
  345MOL0     H46566   7.324   5.750  11.067 -0.9844 -1.3474 -0.0219
  345MOL0     H46567   7.288   5.499  11.076  1.1659 -0.0857 -0.9803
  345MOL0     H46568   7.269   5.499  10.903  2.3973 -1.5215  1.0617
  345MOL0     H46569   7.076   5.676  10.942  0.9737  0.8194 -0.7675
  345MOL0     H46570   7.117   5.668  11.110 -0.7609  0.3227 -0.8539
  345MOL0     H46571   7.039   5.436  10.935 -0.5158  1.9465 -0.6400
  345MOL0     H46572   6.930   5.513  11.044  0.6479  4.9863  2.8946
  345MOL0     H46573   7.176   5.270  11.303 -1.2011 -0.9711 -0.3910
  345MOL0     H46574   7.225   5.967  10.742 -1.3683  0.7629 -0.7826
  345MOL0     H46575   7.343   6.136  10.624  0.0160 -0.0881 -0.9991
  346MOL0     O46576   9.315   8.190   5.954 -0.3922  0.4085  0.2289
  346MOL0     C46577   9.401   8.103   5.952  0.5415  0.0847  0.2244
  346MOL0     O46578   9.403   7.999   6.040  0.7144  0.2851  0.3826
  346MOL0     C46579   9.290   7.966   6.115  0.2925  0.2108  0.3347
  346MOL0     C46580   9.320   7.986   6.246  0.9073  0.1917 -0.1346
  346MOL0     C46581   9.217   7.981   6.335 -0.5152 -0.2311  0.2065
  346MOL0     C46582   9.085   7.950   6.297 -1.2874 -0.4946  0.4667
  346MOL0     O46583   8.990   7.955   6.396  0.5132 -0.0430 -0.7235
  346MOL0     C46584   8.852   7.977   6.369  0.5535  0.3728 -0.3876
  346MOL0     C46585   8.783   7.838   6.395  0.1011  0.1899  0.5302
  346MOL0     C46586   8.635   7.828   6.373  0.3156 -0.4440 -0.7462
  346MOL0     C46587   8.582   7.685   6.397  0.7476  0.1400 -0.2383
  346MOL0     C46588   8.421   7.685   6.408 -0.1196 -0.0404  0.8779
  346MOL0     C46589   8.372   7.724   6.549 -0.1985 -0.2566 -0.0446
  346MOL0     C46590   8.218   7.725   6.582  1.2634  0.4643  0.2714
  346MOL0     C46591   8.135   7.596   6.563 -1.2515  0.6873  0.7155
  346MOL0     N46592   8.019   7.596   6.652  0.1939  1.3243  0.2420
  346MOL0     C46593   7.932   7.702   6.672  0.4335  1.1441 -0.1778
  346MOL0     C46594   7.839   7.664   6.759  0.0314  0.2771 -0.6875
  346MOL0     C46595   7.718   7.727   6.825  0.2741  0.0834  0.2906
  346MOL0     C46596   7.592   7.698   6.733 -0.4900 -0.2596 -0.0096
  346MOL0     C46597   7.561   7.550   6.717  0.3876  0.3894  0.3107
  346MOL0     C46598   7.414   7.509   6.711  0.5785 -0.1329  0.2918
  346MOL0     O46599   7.338   7.598   6.619 -0.1379 -0.3713 -1.0042
  346MOL0     C46600   7.202   7.603   6.628 -0.0113  0.3305  0.0293
  346MOL0     C46601   7.126   7.709   6.572  0.1134 -0.0249  0.0127
  346MOL0     C46602   6.983   7.723   6.582 -0.5147 -0.3251 -0.4775
  346MOL0     C46603   6.917   7.859   6.529 -0.9356  0.1058 -0.4479
  346MOL0     C46604   6.917   7.612   6.634  0.8515 -0.2521 -0.9968
  346MOL0     C46605   6.769   7.598   6.637 -0.5106  0.0125 -0.0496
  346MOL0     O46606   6.728   7.479   6.675  0.5685 -0.0657 -0.3413
  346MOL0     C46607   6.595   7.443   6.652 -0.2609 -0.2889 -0.1251
  346MOL0     C46608   6.541   7.454   6.523 -0.0301 -0.3006  0.6463
  346MOL0     C46609   6.413   7.403   6.502 -0.1969 -0.0569 -0.1195
  346MOL0     C46610   6.342   7.344   6.615 -0.4100  0.3512  0.2310
  346MOL0     O46611   6.221   7.279   6.601  0.4802 -0.0326 -0.6413
  346MOL0     C46612   6.120   7.317   6.499 -0.1140  0.0297 -0.1802
  346MOL0     C46613   5.990   7.278   6.563 -0.6378 -0.5112 -0.1511
  346MOL0     C46614   5.863   7.304   6.480 -0.1730 -0.0036 -0.7824
  346MOL0     C46615   5.862   7.192   6.374  0.0073  0.4919 -0.0173
  346MOL0     C46616   5.717   7.176   6.310 -0.1833 -0.2442  0.4166
  346MOL0     C46617   5.631   7.085   6.402 -0.4706 -0.4870 -1.1943
  346MOL0     C46618   5.484   7.101   6.386  0.5273 -0.0091 -0.1039
  346MOL0     C46619   5.397   7.011   6.293 -0.0301  0.2758 -0.0786
  346MOL0    Cl46620   5.465   6.997   6.126 -0.8917 -0.7498  0.1223
  346MOL0     C46621   6.394   7.347   6.745  0.1733 -0.1372 -0.3071
  346MOL0     C46622   6.520   7.398   6.755 -0.0698  1.3636 -0.7114
  346MOL0     O46623   6.694   7.688   6.599 -0.5109  0.2015  0.2471
  346MOL0     C46624   6.990   7.501   6.687 -0.0829 -0.3098 -1.0074
  346MOL0     C46625   7.127   7.499   6.691 -0.4785 -0.2112  0.2028
  346MOL0     N46626   7.875   7.529   6.796  0.9927 -0.1622  0.6648
  346MOL0     N46627   7.984   7.493   6.739 -1.0558 -0.5060  0.7430
  346MOL0     C46628   9.062   7.913   6.166  0.1071 -1.6370 -0.1701
  346MOL0     C46629   9.166   7.926   6.070 -0.2611 -0.2981 -0.6209
  346MOL0     C46630   9.495   8.094   5.841  0.1053 -0.8207 -0.0213
  346MOL0     C46631   9.592   7.993   5.821 -0.2551  0.8445  0.8867
  346MOL0     C46632   9.685   8.012   5.716  1.4085  1.1719 -1.1390
  346MOL0     C46633   9.675   8.103   5.614  0.8043 -0.1304  0.8596
  346MOL0     O46634   9.771   8.103   5.516  0.2320 -0.1215  0.3293
  346MOL0     C46635   9.796   8.216   5.433 -0.8890 -0.0896  0.1288
  346MOL0     C46636   9.934   8.207   5.373  0.1024 -0.3106  0.9009
  346MOL0     C46637   9.990   8.334   5.289  0.3869  0.6743 -1.1344
  346MOL0     C46638  10.150   8.342   5.287  0.4071  0.3310  0.3002
  346MOL0     C46639  10.177   8.457   5.203  0.2649  0.9453  0.0553
  346MOL0     C46640  10.196   8.541   5.121  0.1527  1.0582  0.5398
  346MOL0     C46641   9.575   8.202   5.631  0.1673  0.3176  0.2268
  346MOL0     C46642   9.486   8.195   5.737  0.1736 -0.1157  0.1780
  346MOL0     H46643   9.409   8.035   6.286  1.0149  0.8303 -1.1269
  346MOL0     H46644   9.244   8.001   6.438 -0.3787  0.2843  0.0745
  346MOL0     H46645   8.812   8.048   6.443  0.4300 -0.6613  0.5696
  346MOL0     H46646   8.824   8.011   6.269 -2.2023 -0.3542  0.0565
  346MOL0     H46647   8.829   7.762   6.332  2.4579  1.9444 -0.0327
  346MOL0     H46648   8.805   7.815   6.500  1.2479 -0.5378  0.1491
  346MOL0     H46649   8.596   7.892   6.453  2.5016 -1.5072  1.2861
  346MOL0     H46650   8.619   7.872   6.274  2.6238  2.0025 -0.1361
  346MOL0     H46651   8.609   7.620   6.314  3.0136  0.8951 -0.1891
  346MOL0     H46652   8.624   7.647   6.491 -0.6011  0.2560  0.4261
  346MOL0     H46653   8.381   7.754   6.333 -0.8926 -1.7301 -0.3312
  346MOL0     H46654   8.388   7.582   6.390  0.6146 -0.1157 -0.0929
  346MOL0     H46655   8.410   7.642   6.611  0.2856 -2.9740 -3.5700
  346MOL0     H46656   8.411   7.822   6.577  0.2682 -0.4688  0.0572
  346MOL0     H46657   8.216   7.752   6.688  0.1867  0.6980  0.2012
  346MOL0     H46658   8.165   7.799   6.521 -2.2531 -2.4355 -0.5041
  346MOL0     H46659   8.202   7.515   6.594 -1.7173  0.0654  0.1229
  346MOL0     H46660   8.111   7.570   6.460  0.6873  0.4827  0.2638
  346MOL0     H46661   7.932   7.797   6.619 -2.3621 -0.0470 -2.6166
  346MOL0     H46662   7.702   7.668   6.916  0.0609 -2.3851 -1.2319
  346MOL0     H46663   7.715   7.834   6.846  1.6211  0.4955 -1.3290
  346MOL0     H46664   7.592   7.746   6.634 -2.4777  0.9384  0.5038
  346MOL0     H46665   7.503   7.741   6.781  1.3149  2.0786  1.5290
  346MOL0     H46666   7.614   7.491   6.792  0.9397 -0.3109 -0.6130
  346MOL0     H46667   7.607   7.520   6.622 -0.5212  0.0749 -0.0445
  346MOL0     H46668   7.371   7.502   6.812 -3.2413 -1.5394 -1.2575
  346MOL0     H46669   7.420   7.411   6.663  2.7855 -1.8040  3.5421
  346MOL0     H46670   7.201   7.775   6.532 -0.1608 -0.1546 -0.7278
  346MOL0     H46671   6.988   7.940   6.513 -0.3440  0.6280  3.6967
  346MOL0     H46672   6.858   7.851   6.437 -0.2475  0.7044 -0.9609
  346MOL0     H46673   6.849   7.886   6.610 -1.0130 -3.4322  0.8710
  346MOL0     H46674   6.595   7.485   6.434 -1.9252 -1.7240 -1.1029
  346MOL0     H46675   6.375   7.392   6.401  1.3688  0.0199 -0.7470
  346MOL0     H46676   6.133   7.425   6.483  0.7027  0.0326  0.4572
  346MOL0     H46677   6.128   7.254   6.410 -2.2299  1.1382 -1.2242
  346MOL0     H46678   5.996   7.172   6.586 -0.5351 -0.4457  0.1285
  346MOL0     H46679   5.993   7.351   6.645  2.1852  1.6080 -1.9456
  346MOL0     H46680   5.869   7.403   6.433  0.1907  0.4917  0.2756
  346MOL0     H46681   5.783   7.305   6.554  0.5580  4.1072  0.2028
  346MOL0     H46682   5.940   7.225   6.304  1.5790 -1.4411  0.7518
  346MOL0     H46683   5.892   7.098   6.421 -2.6713 -0.5812 -0.2446
  346MOL0     H46684   5.735   7.124   6.216 -0.8291  0.1547  0.0645
  346MOL0     H46685   5.676   7.277   6.301  1.0403  0.2941  0.7148
  346MOL0     H46686   5.649   6.978   6.385  0.0192 -1.0454  2.1209
  346MOL0     H46687   5.644   7.113   6.507 -1.2276  0.6931 -1.3963
  346MOL0     H46688   5.457   7.203   6.360 -3.1196 -1.2739 -2.0457
  346MOL0     H46689   5.450   7.076   6.488  0.5292 -0.2216 -0.1558
  346MOL0     H46690   5.294   7.046   6.289  0.8004  2.8029 -1.3942
  346MOL0     H46691   5.397   6.904   6.318 -2.8412  0.0560 -0.7018
  346MOL0     H46692   6.338   7.299   6.825  2.6344  0.6681  2.0257
  346MOL0     H46693   6.565   7.396   6.854 -1.8584 -0.7234  0.1461
  346MOL0     H46694   6.946   7.412   6.731 -0.4848  0.6402  0.5653
  346MOL0     H46695   7.178   7.409   6.723  3.8084  1.5581 -0.8879
  346MOL0     H46696   8.964   7.902   6.122  0.3449  0.5117 -1.4129
  346MOL0     H46697   9.145   7.912   5.965 -0.4033 -0.6503 -0.5456
  346MOL0     H46698   9.597   7.903   5.882  1.6983 -0.5317 -1.1742
  346MOL0     H46699   9.766   7.940   5.709 -2.2104 -3.3380 -1.8187
  346MOL0     H46700   9.725   8.203   5.351  0.6351 -1.8125 -1.0134
  346MOL0     H46701   9.786   8.305   5.495  2.8765  1.3735 -1.0925
  346MOL0     H46702   9.932   8.115   5.313 -0.1717 -1.0324  1.9923
  346MOL0     H46703  10.005   8.191   5.455  2.1879  1.1506 -0.5144
  346MOL0     H46704   9.947   8.421   5.339  1.7856  0.6976  0.1107
  346MOL0     H46705   9.947   8.331   5.189 -0.8171  0.1288 -0.6206
  346MOL0     H46706  10.183   8.252   5.234  0.7097 -1.3777  3.1873
  346MOL0     H46707  10.204   8.349   5.382 -1.0399 -2.4231  1.4435
  346MOL0     H46708  10.211   8.622   5.052 -0.0234 -0.7615 -1.7586
  346MOL0     H46709   9.551   8.278   5.558  0.5412 -0.5237 -0.7988
  346MOL0     H46710   9.409   8.271   5.732  0.1646  0.0394  1.9401
  347MOL0     O46711   5.961   1.167   0.007  0.2736 -0.1521 -0.3139
  347MOL0     C46712   6.052   1.234  -0.045 -0.7983 -0.9806  0.2245
  347MOL0     O46713   6.030   1.352  -0.122  0.0478  0.7025  0.1747
  347MOL0     C46714   5.900   1.400  -0.136  0.2535  0.5380 -0.5918
  347MOL0     C46715   5.867   1.536  -0.111  0.2559  0.0814  0.7102
  347MOL0     C46716   5.742   1.583  -0.130  0.4480  0.4335  0.2257
  347MOL0     C46717   5.629   1.510  -0.171 -0.6867 -0.0105 -0.4804
  347MOL0     O46718   5.504   1.568  -0.163  0.2688  0.3581  0.0694
  347MOL0     C46719   5.394   1.508  -0.225  0.3509  0.0588  0.1461
  347MOL0     C46720   5.385   1.548  -0.377 -0.8356  0.2673 -0.4723
  347MOL0     C46721   5.247   1.511  -0.439 -1.0924  0.3654  0.1779
  347MOL0     C46722   5.227   1.360  -0.448  0.0591 -0.3638  0.5217
  347MOL0     C46723   5.086   1.311  -0.488  0.9112  0.2446 -0.0623
  347MOL0     C46724   5.077   1.320  -0.635  0.0992 -0.2106 -0.0379
  347MOL0     C46725   4.969   1.239  -0.694  0.1463  1.3662 -0.0608
  347MOL0     C46726   4.956   1.261  -0.851 -0.2414  0.1976  0.2304
  347MOL0     N46727   5.074   1.195  -0.915  0.2307  0.0454  0.1779
  347MOL0     C46728   5.175   1.256  -0.988  0.2364 -0.3710  0.6173
  347MOL0     C46729   5.282   1.173  -0.968  0.6583  0.6492 -0.7812
  347MOL0     C46730   5.428   1.193  -1.001 -0.4682 -0.4631 -0.4949
  347MOL0     C46731   5.464   1.332  -1.075 -0.3567  0.1524  0.5643
  347MOL0     C46732   5.394   1.335  -1.220  0.5000  0.4594  0.5287
  347MOL0     C46733   5.406   1.473  -1.277 -0.1115  0.5054 -0.2275
  347MOL0     O46734   5.345   1.582  -1.207 -1.0807  0.0289 -0.2092
  347MOL0     C46735   5.209   1.579  -1.198  0.3132 -0.3912 -0.6602
  347MOL0     C46736   5.114   1.509  -1.279 -0.5996 -0.0522 -0.1647
  347MOL0     C46737   4.973   1.525  -1.262 -0.1851  0.8031  1.0777
  347MOL0     C46738   4.880   1.453  -1.367 -0.1086  0.0882  0.2393
  347MOL0     C46739   4.929   1.599  -1.153 -0.2681 -0.0193 -0.2549
  347MOL0     C46740   4.776   1.621  -1.130 -0.1331 -0.8623  0.8012
  347MOL0     O46741   4.747   1.614  -0.995 -0.0703  0.6944  0.4685
  347MOL0     C46742   4.618   1.590  -0.957  0.5642 -0.2318  0.1398
  347MOL0     C46743   4.565   1.465  -0.955 -0.0179  0.3280 -0.9614
  347MOL0     C46744   4.433   1.453  -0.910  0.3176  0.7981 -0.1786
  347MOL0     C46745   4.353   1.562  -0.890  0.7045  0.4782  0.3884
  347MOL0     O46746   4.217   1.533  -0.860 -0.3944 -0.7996  0.1026
  347MOL0     C46747   4.132   1.630  -0.810 -1.0845  0.4904 -0.2468
  347MOL0     C46748   4.021   1.560  -0.719 -1.0838 -0.0797  0.3677
  347MOL0     C46749   3.887   1.613  -0.763 -0.1928  0.1045 -0.0267
  347MOL0     C46750   3.779   1.557  -0.674  0.2808  0.5262  0.0326
  347MOL0     C46751   3.643   1.617  -0.701 -0.7457 -0.7241  0.7294
  347MOL0     C46752   3.527   1.577  -0.610 -0.2178 -0.4557 -0.2060
  347MOL0     C46753   3.404   1.652  -0.645  0.6872 -0.2403 -0.6454
  347MOL0     C46754   3.283   1.589  -0.581 -0.2740  0.4351  0.2451
  347MOL0    Cl46755   3.291   1.564  -0.405 -0.1960  0.1493  0.0636
  347MOL0     C46756   4.402   1.688  -0.916  0.1828 -0.0297  0.1585
  347MOL0     C46757   4.537   1.701  -0.942  0.8655  0.0337  0.1896
  347MOL0     O46758   4.697   1.654  -1.218  0.3974  0.7406 -0.4971
  347MOL0     C46759   5.027   1.655  -1.066  0.4950 -0.0980 -0.4893
  347MOL0     C46760   5.162   1.656  -1.091  0.2237  0.4205 -0.3662
  347MOL0     N46761   5.237   1.054  -0.903  0.4957 -0.1938 -0.1552
  347MOL0     N46762   5.112   1.078  -0.883  0.2103  0.1486  0.2016
  347MOL0     C46763   5.664   1.379  -0.224  0.8797 -0.6119 -0.3592
  347MOL0     C46764   5.792   1.328  -0.196 -0.3423 -0.6418  0.1386
  347MOL0     C46765   6.191   1.186  -0.025  0.3590  0.0839 -0.3532
  347MOL0     C46766   6.214   1.085   0.071  0.1399 -0.0627  0.3958
  347MOL0     C46767   6.338   1.035   0.085  0.0036  0.7355  0.6307
  347MOL0     C46768   6.451   1.095   0.017  0.4181  0.5971  0.2633
  347MOL0     O46769   6.574   1.032   0.035  0.6638  0.3245 -0.3768
  347MOL0     C46770   6.618   1.004   0.170 -0.1598 -0.0388 -0.0296
  347MOL0     C46771   6.752   0.940   0.165 -0.3047  0.2695  0.0040
  347MOL0     C46772   6.850   1.046   0.109  0.6584 -0.5615 -0.1274
  347MOL0     C46773   6.992   1.008   0.112 -0.4323 -0.5397 -0.7878
  347MOL0     C46774   7.074   1.130   0.095  1.1648  0.3942 -0.7778
  347MOL0     C46775   7.149   1.225   0.088  0.9024  0.2522 -0.1753
  347MOL0     C46776   6.429   1.196  -0.072  0.4176 -0.2363 -0.9290
  347MOL0     C46777   6.297   1.246  -0.090 -0.3077  0.1879  0.2030
  347MOL0     H46778   5.947   1.601  -0.079  0.8890 -0.5381  0.4069
  347MOL0     H46779   5.712   1.684  -0.105 -3.2586  0.0645 -1.8406
  347MOL0     H46780   5.393   1.400  -0.209 -1.4414  0.0087 -0.1453
  347MOL0     H46781   5.303   1.551  -0.181  0.6266  0.4584  0.3397
  347MOL0     H46782   5.376   1.657  -0.383 -1.7742  0.2404  0.2191
  347MOL0     H46783   5.462   1.507  -0.443  0.8163  1.7487  0.4652
  347MOL0     H46784   5.181   1.557  -0.365  0.3070  1.4226  0.8139
  347MOL0     H46785   5.231   1.557  -0.537 -1.0190 -0.5855 -0.3005
  347MOL0     H46786   5.300   1.325  -0.521  0.9828  1.9105  0.2552
  347MOL0     H46787   5.245   1.317  -0.349  0.0559 -0.6067  0.4164
  347MOL0     H46788   5.064   1.210  -0.455 -1.3144  0.6474 -0.1425
  347MOL0     H46789   5.008   1.375  -0.444  1.2242  0.2352  0.5044
  347MOL0     H46790   5.046   1.423  -0.655  2.1027  0.8298  1.7320
  347MOL0     H46791   5.172   1.300  -0.685  0.5349 -1.3367  1.1888
  347MOL0     H46792   4.985   1.134  -0.667  0.8147  1.9100  1.7554
  347MOL0     H46793   4.874   1.264  -0.646 -0.2165 -0.6574  0.3709
  347MOL0     H46794   4.934   1.367  -0.865 -2.7159 -0.1695  0.7884
  347MOL0     H46795   4.866   1.207  -0.883 -0.7387  1.0259  0.1878
  347MOL0     H46796   5.177   1.359  -1.024  1.2124 -0.9995 -1.2106
  347MOL0     H46797   5.498   1.167  -0.921  1.3710 -1.3283 -2.2907
  347MOL0     H46798   5.446   1.116  -1.076  4.1611 -3.2012  2.8910
  347MOL0     H46799   5.572   1.347  -1.089  0.1073 -1.6865  1.7641
  347MOL0     H46800   5.440   1.419  -1.013  1.1116  0.7758  0.3069
  347MOL0     H46801   5.285   1.320  -1.214  0.6439 -2.5969 -1.8858
  347MOL0     H46802   5.435   1.260  -1.288 -0.7735  2.8808 -3.2455
  347MOL0     H46803   5.359   1.479  -1.375 -1.7560 -1.4562  0.3886
  347MOL0     H46804   5.512   1.499  -1.287 -0.2822  1.0501 -0.6696
  347MOL0     H46805   5.153   1.450  -1.362 -3.2851 -0.0936 -1.4996
  347MOL0     H46806   4.838   1.535  -1.425 -0.4520  1.0462  1.7994
  347MOL0     H46807   4.933   1.385  -1.436 -1.8145 -1.1675  0.0929
  347MOL0     H46808   4.811   1.391  -1.310  0.2011  1.8614  2.6985
  347MOL0     H46809   4.634   1.382  -0.966  0.7607  0.5710  1.4354
  347MOL0     H46810   4.389   1.354  -0.902  0.3562  0.5233 -2.6340
  347MOL0     H46811   4.192   1.689  -0.740  1.6137  1.0482 -2.8352
  347MOL0     H46812   4.094   1.684  -0.898  1.4881  0.6068 -1.3583
  347MOL0     H46813   4.023   1.451  -0.724 -2.3936 -0.1086 -0.0460
  347MOL0     H46814   4.041   1.593  -0.617 -0.9754  2.2426 -0.3496
  347MOL0     H46815   3.867   1.577  -0.864 -0.3951 -1.0780  0.4084
  347MOL0     H46816   3.883   1.722  -0.757  1.3806  0.3112 -1.9423
  347MOL0     H46817   3.770   1.451  -0.697 -0.9431  0.5085  0.5433
  347MOL0     H46818   3.791   1.573  -0.566 -1.6441  1.1079  0.1916
  347MOL0     H46819   3.613   1.592  -0.803  0.6642  0.2551  0.0382
  347MOL0     H46820   3.658   1.725  -0.695 -0.9821 -0.6976  0.8260
  347MOL0     H46821   3.502   1.471  -0.624  2.5794 -1.1081 -0.9467
  347MOL0     H46822   3.551   1.600  -0.506 -1.3805  2.1125 -0.4201
  347MOL0     H46823   3.382   1.660  -0.752 -1.7496  2.1205 -0.0692
  347MOL0     H46824   3.404   1.754  -0.606  1.3614 -1.8985  4.4507
  347MOL0     H46825   3.260   1.492  -0.625  0.4515 -0.1951  1.2050
  347MOL0     H46826   3.204   1.654  -0.619  0.9329  0.2902 -2.8026
  347MOL0     H46827   4.347   1.780  -0.894  0.4317 -0.3386  2.2859
  347MOL0     H46828   4.593   1.793  -0.930  1.9145 -0.2099 -2.2272
  347MOL0     H46829   4.981   1.706  -0.983 -1.9432 -1.4527 -0.9219
  347MOL0     H46830   5.240   1.704  -1.033  1.4375  1.0867 -2.4244
  347MOL0     H46831   5.584   1.314  -0.257 -2.4314  3.0302 -0.2244
  347MOL0     H46832   5.803   1.222  -0.216 -1.2532 -0.8486  0.6819
  347MOL0     H46833   6.145   1.045   0.144  1.5100 -0.0868  1.7141
  347MOL0     H46834   6.351   0.964   0.166 -1.6969  0.3630  0.6021
  347MOL0     H46835   6.617   1.098   0.226 -0.4531 -0.1834  0.2119
  347MOL0     H46836   6.563   0.920   0.214 -1.0829 -0.0469 -1.1598
  347MOL0     H46837   6.762   0.854   0.098  1.8792 -1.3444  2.2224
  347MOL0     H46838   6.779   0.895   0.260 -3.3692 -1.3182  0.2322
  347MOL0     H46839   6.827   1.133   0.173 -3.0091  0.2795 -2.3085
  347MOL0     H46840   6.819   1.066   0.006 -2.5157 -2.0609  0.4301
  347MOL0     H46841   7.015   0.935   0.034 -1.7731 -0.9878 -0.7775
  347MOL0     H46842   7.009   0.969   0.213  1.4549 -2.3623 -1.7458
  347MOL0     H46843   7.228   1.296   0.070 -2.2684  4.0173 -0.5639
  347MOL0     H46844   6.512   1.250  -0.118  1.1804 -2.2088 -1.9890
  347MOL0     H46845   6.282   1.328  -0.160  1.5952  1.3706  1.1130
  348MOL0     O46846   6.104   1.836   4.922  0.0982  0.0270  0.3295
  348MOL0     C46847   6.147   1.741   4.850 -0.0908 -0.3496 -0.3234
  348MOL0     O46848   6.063   1.654   4.776 -0.4834 -0.2180 -0.2103
  348MOL0     C46849   5.926   1.672   4.780 -0.2750  0.3678  0.3038
  348MOL0     C46850   5.847   1.588   4.859  0.3047  0.4148 -0.7123
  348MOL0     C46851   5.712   1.627   4.887 -0.6953 -0.4788  0.0881
  348MOL0     C46852   5.655   1.733   4.817 -0.2730  0.2003  0.2604
  348MOL0     O46853   5.525   1.763   4.843  0.0908  0.0366 -0.4552
  348MOL0     C46854   5.447   1.828   4.733 -0.8259  0.8962 -0.1511
  348MOL0     C46855   5.302   1.854   4.769  0.3927  0.2683 -1.0634
  348MOL0     C46856   5.219   1.736   4.823 -0.4571 -0.4290 -0.0798
  348MOL0     C46857   5.206   1.624   4.717  0.3728  0.8444 -0.0288
  348MOL0     C46858   5.167   1.486   4.767 -1.0338  0.9159 -0.7248
  348MOL0     C46859   5.282   1.411   4.834 -0.9468 -0.5564 -1.2020
  348MOL0     C46860   5.237   1.280   4.892 -0.2861  0.1802 -0.3881
  348MOL0     C46861   5.350   1.231   4.986 -0.1052  0.2552 -0.6017
  348MOL0     N46862   5.477   1.175   4.923  0.1878  0.4233 -0.3251
  348MOL0     C46863   5.584   1.254   4.886 -0.1735 -0.1928 -1.6950
  348MOL0     C46864   5.675   1.160   4.842  1.0370  0.1171 -0.1491
  348MOL0     C46865   5.816   1.195   4.814  0.0816 -0.7009  0.5780
  348MOL0     C46866   5.876   1.212   4.956 -0.0882 -0.7458 -0.3145
  348MOL0     C46867   6.030   1.231   4.945  0.2071  0.4136 -0.1199
  348MOL0     C46868   6.095   1.266   5.075 -0.3998  0.1577  0.6977
  348MOL0     O46869   6.236   1.256   5.047 -0.2365  0.1974  0.4377
  348MOL0     C46870   6.328   1.289   5.142  0.5807 -0.4572  0.3540
  348MOL0     C46871   6.295   1.322   5.278  0.5507 -0.3018 -0.4000
  348MOL0     C46872   6.398   1.368   5.372 -0.0752  0.3960  0.1969
  348MOL0     C46873   6.343   1.376   5.515 -0.2867  0.6678 -0.2968
  348MOL0     C46874   6.532   1.376   5.337  1.1307 -0.0833 -0.1267
  348MOL0     C46875   6.648   1.415   5.424  0.4460 -1.4458  0.1954
  348MOL0     O46876   6.775   1.403   5.375  0.3461 -0.1308  0.5378
  348MOL0     C46877   6.886   1.437   5.440 -0.6645 -0.1567  1.7515
  348MOL0     C46878   6.898   1.508   5.561  0.3578  0.6666  0.1775
  348MOL0     C46879   7.019   1.561   5.596 -0.1402 -0.0291  0.3024
  348MOL0     C46880   7.131   1.543   5.524 -0.1685 -0.3484 -1.2604
  348MOL0     O46881   7.241   1.608   5.582  0.3544  0.9146  0.4051
  348MOL0     C46882   7.374   1.579   5.533 -0.1910  0.0133  0.7491
  348MOL0     C46883   7.418   1.723   5.483  0.0961  0.4728  0.0449
  348MOL0     C46884   7.561   1.715   5.441  0.1551 -1.0000 -0.4806
  348MOL0     C46885   7.610   1.833   5.360  0.3096 -0.2042  0.0448
  348MOL0     C46886   7.749   1.810   5.283 -0.0606  0.2853  0.2850
  348MOL0     C46887   7.863   1.736   5.364  0.1691 -0.5779  0.1031
  348MOL0     C46888   7.977   1.715   5.268  0.4128 -0.5382  0.2152
  348MOL0     C46889   8.075   1.607   5.322 -0.5634  0.0506 -0.8003
  348MOL0    Cl46890   8.116   1.653   5.500  0.2086 -0.1189  0.2455
  348MOL0     C46891   7.130   1.468   5.408  0.8055  0.2320 -0.2376
  348MOL0     C46892   7.005   1.418   5.367 -0.2046 -0.3574 -0.3902
  348MOL0     O46893   6.624   1.443   5.542  0.4657  0.5959 -0.1501
  348MOL0     C46894   6.560   1.346   5.202  0.3866  0.7872  1.5166
  348MOL0     C46895   6.466   1.301   5.102  1.4245 -0.0526  0.5565
  348MOL0     N46896   5.615   1.035   4.849 -0.7888 -0.3420  0.1626
  348MOL0     N46897   5.501   1.048   4.894 -0.1908  0.1357 -0.0435
  348MOL0     C46898   5.735   1.804   4.728  0.0526  0.0249 -0.2761
  348MOL0     C46899   5.866   1.779   4.719 -0.0208 -0.2614  0.0836
  348MOL0     C46900   6.286   1.700   4.864 -0.5785  0.1200 -0.1255
  348MOL0     C46901   6.339   1.596   4.786  0.0217  0.6861  0.3616
  348MOL0     C46902   6.476   1.557   4.799  0.0304  0.6405 -0.2696
  348MOL0     C46903   6.567   1.617   4.884  0.1400  0.0576 -1.4106
  348MOL0     O46904   6.685   1.564   4.897 -0.4815  0.0128  0.3501
  348MOL0     C46905   6.789   1.655   4.896 -0.0723 -0.0384  0.3592
  348MOL0     C46906   6.931   1.589   4.904  0.3890  1.3172  0.2748
  348MOL0     C46907   6.951   1.487   5.012 -0.2605  0.3919  0.6134
  348MOL0     C46908   7.069   1.387   4.986  0.4045 -0.0109  0.8955
  348MOL0     C46909   7.009   1.281   4.902 -0.2829 -0.0646  1.2181
  348MOL0     C46910   6.964   1.186   4.836  0.1159  0.5127 -0.2468
  348MOL0     C46911   6.513   1.720   4.965 -0.2728 -0.3967  0.4392
  348MOL0     C46912   6.375   1.767   4.953  0.1008 -1.2024  0.0604
  348MOL0     H46913   5.884   1.500   4.913  0.4979  0.4397 -0.8029
  348MOL0     H46914   5.645   1.574   4.954 -0.8792  0.0596  0.3364
  348MOL0     H46915   5.485   1.928   4.711 -1.4479  1.0151 -0.7168
  348MOL0     H46916   5.451   1.771   4.640 -2.1274 -1.2696  1.0347
  348MOL0     H46917   5.300   1.914   4.861  0.7627 -0.8964 -0.2661
  348MOL0     H46918   5.250   1.898   4.684  0.1399 -0.9018 -1.5277
  348MOL0     H46919   5.278   1.696   4.905  0.3375 -0.4857 -0.6694
  348MOL0     H46920   5.122   1.767   4.864  0.6090 -2.3686  4.4987
  348MOL0     H46921   5.129   1.651   4.645  1.4674 -1.1145 -2.0396
  348MOL0     H46922   5.302   1.613   4.666  0.8454 -0.0983  1.0281
  348MOL0     H46923   5.072   1.487   4.821 -0.7849  0.8863 -0.2750
  348MOL0     H46924   5.146   1.426   4.678  0.1267  0.5809 -0.7883
  348MOL0     H46925   5.337   1.399   4.741 -0.4673 -3.6489 -0.6231
  348MOL0     H46926   5.337   1.473   4.906  0.2849 -0.3069 -2.3253
  348MOL0     H46927   5.140   1.287   4.943 -0.0368  3.1025 -0.1485
  348MOL0     H46928   5.228   1.209   4.809 -2.1707 -0.3325  0.1971
  348MOL0     H46929   5.321   1.154   5.058 -0.8029  0.5950 -0.5077
  348MOL0     H46930   5.371   1.315   5.053 -1.4910 -1.4248  2.1022
  348MOL0     H46931   5.590   1.362   4.893 -0.0511 -0.0727 -3.3000
  348MOL0     H46932   5.867   1.122   4.750 -1.3797 -0.6415 -0.7074
  348MOL0     H46933   5.830   1.284   4.752  0.3516 -0.3990  1.0689
  348MOL0     H46934   5.851   1.129   5.023  1.1094  2.2802  4.3207
  348MOL0     H46935   5.833   1.299   5.006  0.0853 -1.0028  0.2886
  348MOL0     H46936   6.049   1.314   4.876  1.3864  0.5903  0.3866
  348MOL0     H46937   6.075   1.141   4.900  0.1768  0.6235 -0.5806
  348MOL0     H46938   6.069   1.196   5.156  1.3397  1.8791  2.8646
  348MOL0     H46939   6.081   1.364   5.119  2.9286  2.6213 -3.0111
  348MOL0     H46940   6.195   1.324   5.321  0.2426 -0.4944 -1.0906
  348MOL0     H46941   6.342   1.475   5.562  4.3940 -0.2991  2.4639
  348MOL0     H46942   6.249   1.321   5.519  0.3275 -0.4322 -0.6283
  348MOL0     H46943   6.405   1.311   5.578  0.6134 -0.0888 -1.9136
  348MOL0     H46944   6.821   1.523   5.636 -1.0838 -1.5461 -0.7608
  348MOL0     H46945   7.026   1.636   5.675  3.3659 -0.4447  0.5621
  348MOL0     H46946   7.432   1.554   5.622  0.1541  0.8187  0.7657
  348MOL0     H46947   7.377   1.505   5.453  0.5987 -0.1443  0.9194
  348MOL0     H46948   7.354   1.769   5.407 -0.0581  0.6045  0.2537
  348MOL0     H46949   7.400   1.790   5.567 -3.9112  2.2521 -1.9438
  348MOL0     H46950   7.571   1.627   5.377 -2.7129 -0.7030 -1.4586
  348MOL0     H46951   7.620   1.701   5.532  2.2384 -0.8518 -1.7489
  348MOL0     H46952   7.526   1.865   5.298 -1.1708 -0.1512  1.9717
  348MOL0     H46953   7.621   1.907   5.439 -1.3023 -1.3292  1.3966
  348MOL0     H46954   7.787   1.910   5.258 -0.2490  0.8504  2.1655
  348MOL0     H46955   7.750   1.753   5.190  3.9939  1.5641 -0.6687
  348MOL0     H46956   7.886   1.803   5.448 -2.1582  1.3736 -0.7051
  348MOL0     H46957   7.832   1.643   5.413  0.4440 -0.5220  0.3842
  348MOL0     H46958   8.035   1.808   5.268  0.1625 -0.2801  3.2525
  348MOL0     H46959   7.945   1.690   5.166  1.4096  3.3526 -1.2425
  348MOL0     H46960   8.172   1.617   5.273  0.7733  3.1491  2.0905
  348MOL0     H46961   8.038   1.504   5.325 -1.0639  0.2385 -0.4588
  348MOL0     H46962   7.213   1.469   5.339  1.3639  1.2380  0.4138
  348MOL0     H46963   6.991   1.381   5.266 -0.5157 -0.3129 -0.3663
  348MOL0     H46964   6.665   1.355   5.175 -0.3580  2.0290 -1.2837
  348MOL0     H46965   6.495   1.273   5.001  0.9931 -1.6212  0.8422
  348MOL0     H46966   5.692   1.895   4.686 -2.1221 -0.8538 -0.1169
  348MOL0     H46967   5.936   1.842   4.665  1.5822  0.2845  2.6188
  348MOL0     H46968   6.282   1.555   4.703  0.4558  1.0493 -0.1274
  348MOL0     H46969   6.509   1.483   4.727 -0.4582 -2.3024  2.3165
  348MOL0     H46970   6.793   1.721   4.809 -1.8502 -1.5783 -0.9633
  348MOL0     H46971   6.777   1.717   4.985 -1.3903 -1.6781  1.3793
  348MOL0     H46972   7.001   1.671   4.921 -0.7480  2.5271 -0.6706
  348MOL0     H46973   6.949   1.535   4.811 -2.2321  1.1020 -0.2067
  348MOL0     H46974   6.862   1.435   5.050  0.4246 -0.4040  1.1642
  348MOL0     H46975   6.988   1.551   5.093  1.2307 -1.8223  1.8017
  348MOL0     H46976   7.121   1.352   5.075  1.5987 -1.9677 -0.4875
  348MOL0     H46977   7.147   1.427   4.921 -1.1176 -1.3157 -1.9262
  348MOL0     H46978   6.932   1.101   4.780  1.3104  0.9740 -1.6904
  348MOL0     H46979   6.594   1.761   5.025  0.2031  2.3191 -1.8369
  348MOL0     H46980   6.344   1.837   5.030  1.6047 -1.6384  1.1109
  349MOL0     O46981  10.038   0.782   6.699  0.3994 -0.2442  0.3247
  349MOL0     C46982  10.018   0.893   6.650 -0.7077 -1.3671 -0.3486
  349MOL0     O46983   9.893   0.948   6.629  0.0200 -0.2860  0.9273
  349MOL0     C46984   9.778   0.896   6.684  0.2462 -0.1913 -0.2447
  349MOL0     C46985   9.765   0.915   6.815  0.1829 -0.2313 -0.5387
  349MOL0     C46986   9.648   0.877   6.882 -0.1016 -0.6199  0.8369
  349MOL0     C46987   9.535   0.823   6.808 -0.2146 -0.4518 -0.2249
  349MOL0     O46988   9.433   0.776   6.875  0.1253 -0.1435  0.1460
  349MOL0     C46989   9.378   0.875   6.969 -0.5184 -0.0211  0.8893
  349MOL0     C46990   9.230   0.846   6.974  0.3135  0.0301  0.1971
  349MOL0     C46991   9.136   0.884   6.853 -0.5380  0.1487  0.2258
  349MOL0     C46992   8.996   0.847   6.890 -0.5345  0.2654  1.0494
  349MOL0     C46993   8.883   0.881   6.789 -0.6867 -1.1006  0.0795
  349MOL0     C46994   8.870   1.036   6.769  0.2623  0.1840 -0.5173
  349MOL0     C46995   8.727   1.080   6.721  0.1765 -0.4809 -0.1184
  349MOL0     C46996   8.717   1.042   6.567  0.4500 -0.2930 -1.0583
  349MOL0     N46997   8.571   1.034   6.535 -0.5323  0.3597 -0.1335
  349MOL0     C46998   8.496   1.134   6.489  0.2333 -0.2243  0.9131
  349MOL0     C46999   8.378   1.076   6.446  0.2035 -0.5733  0.3986
  349MOL0     C47000   8.271   1.155   6.374 -0.4247  0.5064  0.2907
  349MOL0     C47001   8.137   1.098   6.407  0.6094 -0.8713 -0.6026
  349MOL0     C47002   8.031   1.200   6.380 -0.2234  0.4656 -0.7287
  349MOL0     C47003   8.010   1.221   6.227  0.0024 -0.6870  0.0611
  349MOL0     O47004   7.950   1.099   6.175  0.0565 -0.5822  0.1645
  349MOL0     C47005   7.817   1.090   6.207  0.7336 -1.2010 -1.2624
  349MOL0     C47006   7.729   1.156   6.129  0.5074 -0.0434  0.5300
  349MOL0     C47007   7.591   1.154   6.158  0.4434 -0.1034  0.0161
  349MOL0     C47008   7.511   1.230   6.052 -0.5242  0.0636  0.5641
  349MOL0     C47009   7.532   1.073   6.259  0.4781  1.2049 -0.0724
  349MOL0     C47010   7.392   1.052   6.281 -1.0847 -0.6032 -0.6533
  349MOL0     O47011   7.305   1.105   6.194 -0.3026  0.4595  0.1737
  349MOL0     C47012   7.170   1.092   6.219 -0.0246  1.3354 -0.5339
  349MOL0     C47013   7.111   0.965   6.242 -0.2930 -0.1358  0.1583
  349MOL0     C47014   6.972   0.962   6.261 -0.9704  0.1016 -0.4829
  349MOL0     C47015   6.881   1.067   6.257 -0.8505  0.7403  1.0889
  349MOL0     O47016   6.748   1.041   6.277  0.1917  0.6810  0.6404
  349MOL0     C47017   6.650   1.148   6.278 -0.1156  0.1154  0.2608
  349MOL0     C47018   6.611   1.178   6.132 -0.4796  0.3688 -0.5746
  349MOL0     C47019   6.516   1.295   6.134  0.0722  0.4164  0.4114
  349MOL0     C47020   6.572   1.438   6.140  0.0145 -0.0220 -0.3717
  349MOL0     C47021   6.462   1.543   6.090 -0.2156  1.0231 -0.0096
  349MOL0     C47022   6.527   1.681   6.066 -1.2040 -0.5253  0.2667
  349MOL0     C47023   6.635   1.696   5.953  0.4255 -0.2279  0.6954
  349MOL0     C47024   6.585   1.649   5.813  1.1149 -0.2809 -0.0467
  349MOL0    Cl47025   6.424   1.726   5.767  0.0812 -0.2044  0.3406
  349MOL0     C47026   6.951   1.189   6.229  0.3046 -0.0657 -0.1906
  349MOL0     C47027   7.084   1.197   6.197  0.2387 -0.3471 -0.0629
  349MOL0     O47028   7.363   0.993   6.384  0.4251  1.1819 -0.1401
  349MOL0     C47029   7.630   1.007   6.337 -0.0692  1.2296  0.4814
  349MOL0     C47030   7.769   1.008   6.303  0.5816 -0.5591 -0.6622
  349MOL0     N47031   8.389   0.944   6.469 -0.3984  0.5356 -0.4995
  349MOL0     N47032   8.502   0.916   6.527 -0.2732 -0.0277  0.0220
  349MOL0     C47033   9.559   0.796   6.670  0.1956 -0.3698 -0.0680
  349MOL0     C47034   9.678   0.840   6.612 -0.8499  0.5933  0.0927
  349MOL0     C47035  10.132   0.973   6.604 -0.2899  0.7990 -0.0167
  349MOL0     C47036  10.261   0.909   6.598  0.2255  0.2593 -0.3018
  349MOL0     C47037  10.380   0.983   6.562  0.1832  0.1506  0.0679
  349MOL0     C47038  10.366   1.122   6.527  0.2197 -0.0820  0.1756
  349MOL0     O47039  10.474   1.200   6.503 -0.0866 -0.2309  0.1586
  349MOL0     C47040  10.519   1.190   6.371 -0.1196  0.2552  0.9496
  349MOL0     C47041  10.485   1.318   6.284 -0.4520 -0.2525  0.3705
  349MOL0     C47042  10.594   1.362   6.183 -0.5465 -0.7098  0.2658
  349MOL0     C47043  10.744   1.356   6.237  0.0142  0.2594 -0.5878
  349MOL0     C47044  10.821   1.444   6.141  0.3404  0.3076 -0.8557
  349MOL0     C47045  10.866   1.525   6.062 -0.9154 -0.3542  0.8781
  349MOL0     C47046  10.236   1.176   6.523  0.2059  0.4552  0.4096
  349MOL0     C47047  10.127   1.102   6.569 -0.3770  0.4907 -0.5306
  349MOL0     H47048   9.837   0.959   6.883 -0.0351  0.2741 -0.6308
  349MOL0     H47049   9.652   0.891   6.989 -2.8708 -1.0831  1.0577
  349MOL0     H47050   9.421   0.859   7.068 -0.0797 -1.1089  0.5344
  349MOL0     H47051   9.392   0.980   6.942 -3.1238  0.2897  0.4193
  349MOL0     H47052   9.214   0.739   6.991 -1.9471  0.2793 -0.0408
  349MOL0     H47053   9.183   0.902   7.055 -0.3650  1.2082 -0.9828
  349MOL0     H47054   9.149   0.992   6.836  1.1927 -0.2039 -0.9947
  349MOL0     H47055   9.161   0.841   6.755  0.6684  2.3975 -0.5205
  349MOL0     H47056   8.995   0.739   6.910  3.0428 -0.2284 -0.7346
  349MOL0     H47057   8.967   0.901   6.981  0.1660  3.2857 -0.3860
  349MOL0     H47058   8.884   0.838   6.688 -1.9103  0.0444 -0.4593
  349MOL0     H47059   8.784   0.848   6.824 -1.7233  0.7939 -0.8876
  349MOL0     H47060   8.875   1.070   6.873 -0.8553 -0.4416 -0.2509
  349MOL0     H47061   8.960   1.074   6.720  1.1995 -1.1652  0.1120
  349MOL0     H47062   8.655   1.027   6.784 -0.3736 -0.4700 -0.7232
  349MOL0     H47063   8.711   1.187   6.737 -2.0304 -0.5081 -1.6833
  349MOL0     H47064   8.764   0.946   6.543  1.1625 -1.2894  3.4347
  349MOL0     H47065   8.763   1.126   6.515  1.2690  1.0920  1.6870
  349MOL0     H47066   8.530   1.231   6.455 -1.6994 -0.8558 -3.4314
  349MOL0     H47067   8.290   1.256   6.410  3.0232 -1.1559  3.9972
  349MOL0     H47068   8.287   1.135   6.267 -1.2967 -2.0815  0.5792
  349MOL0     H47069   8.138   1.069   6.513  1.5363 -1.9822 -0.8989
  349MOL0     H47070   8.110   1.009   6.350 -2.3820 -0.0159 -0.7350
  349MOL0     H47071   8.064   1.298   6.416 -0.5564  0.3335 -0.0643
  349MOL0     H47072   7.933   1.195   6.428  0.1548  0.7781  0.0865
  349MOL0     H47073   8.111   1.239   6.189 -0.1075 -0.2233 -0.0149
  349MOL0     H47074   7.946   1.308   6.214  0.0294 -0.2809  2.2461
  349MOL0     H47075   7.766   1.218   6.047 -2.2701  0.6228 -0.3037
  349MOL0     H47076   7.574   1.288   5.984  0.3145 -2.7538 -1.2334
  349MOL0     H47077   7.445   1.168   5.991  1.4896 -0.9628 -0.7007
  349MOL0     H47078   7.444   1.292   6.112  1.7047  1.9962  1.2437
  349MOL0     H47079   7.175   0.879   6.257 -0.0947 -0.3014 -1.4480
  349MOL0     H47080   6.939   0.860   6.277 -1.0619  0.1575 -0.3127
  349MOL0     H47081   6.557   1.123   6.331 -2.3658  3.4927 -1.6917
  349MOL0     H47082   6.698   1.236   6.323  2.4287  0.8739 -3.5163
  349MOL0     H47083   6.697   1.197   6.067 -0.6719 -1.2779 -1.3610
  349MOL0     H47084   6.558   1.086   6.106 -1.7407  0.1419  2.4229
  349MOL0     H47085   6.456   1.283   6.224  1.3221  0.1163  1.2308
  349MOL0     H47086   6.452   1.292   6.045 -1.4200  2.4577  1.3440
  349MOL0     H47087   6.614   1.467   6.237  2.2441  4.6120 -2.3650
  349MOL0     H47088   6.661   1.447   6.077  0.0009 -0.5020 -0.4619
  349MOL0     H47089   6.379   1.533   6.159  0.2416 -0.9333  0.3070
  349MOL0     H47090   6.428   1.520   5.989 -0.3490  1.3118 -0.0308
  349MOL0     H47091   6.437   1.740   6.047 -1.3678 -0.8173  0.1383
  349MOL0     H47092   6.571   1.727   6.156 -2.2812  0.5297  0.2805
  349MOL0     H47093   6.730   1.657   5.992 -1.4560 -2.3503  3.5096
  349MOL0     H47094   6.651   1.804   5.939  0.6915 -0.5059 -1.5109
  349MOL0     H47095   6.569   1.541   5.813  2.1675 -0.5030 -2.4226
  349MOL0     H47096   6.663   1.667   5.738  2.0156  1.4523  1.2397
  349MOL0     H47097   6.887   1.277   6.223  0.1313 -0.1936 -0.2063
  349MOL0     H47098   7.137   1.287   6.168  2.2750 -1.9574 -1.6361
  349MOL0     H47099   7.593   0.953   6.424 -1.5928 -0.0859 -0.9391
  349MOL0     H47100   7.836   0.939   6.354  2.2823  0.1413 -1.8315
  349MOL0     H47101   9.479   0.742   6.621  0.4412 -1.7661  1.0146
  349MOL0     H47102   9.686   0.820   6.505  0.7548 -2.5232  0.6684
  349MOL0     H47103  10.272   0.805   6.627  0.8196  0.4347  0.1197
  349MOL0     H47104  10.476   0.938   6.585 -0.1305 -0.5107  0.1079
  349MOL0     H47105  10.625   1.169   6.383 -0.1449 -0.3764  0.1363
  349MOL0     H47106  10.475   1.103   6.322 -3.1611  1.1813  1.7613
  349MOL0     H47107  10.481   1.408   6.345  1.3157  1.6442 -2.0990
  349MOL0     H47108  10.381   1.313   6.249 -0.8630  0.6641  1.4076
  349MOL0     H47109  10.566   1.459   6.142  1.3556 -0.7479 -1.2691
  349MOL0     H47110  10.595   1.291   6.099 -0.2276 -3.5052  2.4967
  349MOL0     H47111  10.768   1.249   6.237  0.3310  0.3209 -1.6383
  349MOL0     H47112  10.734   1.391   6.340  2.2921 -0.3926 -0.0799
  349MOL0     H47113  10.908   1.602   6.001 -1.5721 -0.1764  0.6402
  349MOL0     H47114  10.230   1.280   6.495 -1.0506 -0.2995 -2.4659
  349MOL0     H47115  10.036   1.160   6.572  0.2422  1.5729 -1.6634
  350MOL0     O47116   5.032   4.011   4.462 -0.3071 -0.0016 -0.0643
  350MOL0     C47117   5.062   4.103   4.384  0.0418  1.1695  0.1533
  350MOL0     O47118   4.976   4.165   4.301  0.7024  0.3697 -0.6107
  350MOL0     C47119   4.841   4.147   4.307 -0.8219 -0.5608 -0.2546
  350MOL0     C47120   4.770   4.166   4.424  0.2543 -0.4919 -0.4488
  350MOL0     C47121   4.631   4.151   4.410 -0.3161 -0.6325 -0.7490
  350MOL0     C47122   4.571   4.110   4.296  1.0012  0.0831  0.3194
  350MOL0     O47123   4.429   4.100   4.306  0.0433  0.4592  0.0621
  350MOL0     C47124   4.368   4.023   4.208  0.0573  0.4443  0.6319
  350MOL0     C47125   4.219   4.031   4.231 -0.1130 -0.4512  0.2133
  350MOL0     C47126   4.165   4.177   4.235 -0.1239  0.4963 -0.0158
  350MOL0     C47127   4.008   4.174   4.239 -0.0364  0.0998 -0.3844
  350MOL0     C47128   3.945   4.187   4.383 -1.0203  0.0179 -1.0330
  350MOL0     C47129   3.790   4.212   4.372 -0.4369  1.0013 -0.6769
  350MOL0     C47130   3.729   4.207   4.516 -0.6176 -0.3812 -0.4186
  350MOL0     C47131   3.767   4.340   4.595 -0.4288 -0.3008 -0.1932
  350MOL0     N47132   3.718   4.451   4.524 -0.9431 -0.0993  0.9135
  350MOL0     C47133   3.775   4.569   4.528  0.7040 -1.0038  0.8142
  350MOL0     C47134   3.684   4.658   4.491  0.4106  0.3858  0.4364
  350MOL0     C47135   3.698   4.806   4.446 -0.4834  0.5925  0.4078
  350MOL0     C47136   3.552   4.865   4.443  0.2095 -0.1405  0.6872
  350MOL0     C47137   3.556   5.010   4.386 -0.4206 -0.3416 -1.0710
  350MOL0     C47138   3.407   5.052   4.365  0.0280  0.7399 -0.1030
  350MOL0     O47139   3.401   5.174   4.299 -0.5096  0.9128 -0.4647
  350MOL0     C47140   3.316   5.265   4.350  0.7874  0.3041  0.3577
  350MOL0     C47141   3.362   5.384   4.407 -0.8287  0.1025 -0.3621
  350MOL0     C47142   3.275   5.481   4.455 -0.5496  0.3242 -0.3305
  350MOL0     C47143   3.341   5.612   4.505  0.7120 -0.7045  0.0194
  350MOL0     C47144   3.139   5.448   4.462 -0.1546 -0.2943 -0.1002
  350MOL0     C47145   3.032   5.529   4.528 -0.8918 -0.0743  0.9257
  350MOL0     O47146   2.904   5.486   4.529  0.9340 -0.2174 -0.2545
  350MOL0     C47147   2.818   5.562   4.605  0.3679 -0.2254 -0.0187
  350MOL0     C47148   2.809   5.538   4.741 -0.1626 -0.0622  0.3678
  350MOL0     C47149   2.712   5.594   4.814  0.7030  0.0086  0.6693
  350MOL0     C47150   2.609   5.686   4.758 -0.2508  0.5271 -0.3887
  350MOL0     O47151   2.512   5.753   4.825 -0.0996 -0.6110 -0.0651
  350MOL0     C47152   2.515   5.744   4.972  0.1888 -0.1726  0.8738
  350MOL0     C47153   2.412   5.645   5.030 -0.2781  0.5169 -0.2240
  350MOL0     C47154   2.438   5.498   4.996  0.3000 -0.4702  0.0230
  350MOL0     C47155   2.368   5.396   5.087  0.2705  0.0490  1.0915
  350MOL0     C47156   2.247   5.327   5.028  0.1192  0.2335 -1.1066
  350MOL0     C47157   2.216   5.199   5.096  0.5746  0.0687  0.7635
  350MOL0     C47158   2.316   5.086   5.055 -0.4763 -0.8802 -0.4666
  350MOL0     C47159   2.273   4.945   5.105 -0.8864 -1.5620  0.2710
  350MOL0    Cl47160   2.398   4.819   5.079 -0.1567 -0.5116 -0.1089
  350MOL0     C47161   2.609   5.704   4.619 -0.6672 -0.0228 -0.3652
  350MOL0     C47162   2.707   5.629   4.539  0.3467 -0.2622 -0.3408
  350MOL0     O47163   3.071   5.633   4.570  0.1644  0.3280  0.2755
  350MOL0     C47164   3.096   5.330   4.418 -0.3737 -0.5820  1.1832
  350MOL0     C47165   3.176   5.238   4.355  0.2502 -0.8717 -0.2807
  350MOL0     N47166   3.576   4.585   4.448 -0.5190 -0.2224  0.4412
  350MOL0     N47167   3.594   4.462   4.469  0.2396  0.5837 -0.7500
  350MOL0     C47168   4.644   4.059   4.196 -0.4227  0.3781  0.6742
  350MOL0     C47169   4.778   4.088   4.198  0.1786 -0.5088 -0.2520
  350MOL0     C47170   5.207   4.139   4.387 -0.0683  0.1475  0.8015
  350MOL0     C47171   5.297   4.087   4.490  0.5432  0.5974 -0.2527
  350MOL0     C47172   5.428   4.139   4.497  0.0991  0.9716  0.2327
  350MOL0     C47173   5.475   4.228   4.394  0.8505  0.5269 -0.8240
  350MOL0     O47174   5.599   4.266   4.374  0.3661  0.2117  0.3121
  350MOL0     C47175   5.699   4.192   4.452  0.2824  0.4981 -0.6172
  350MOL0     C47176   5.835   4.220   4.394 -0.0590  0.2976  0.6983
  350MOL0     C47177   5.876   4.368   4.371 -0.4321 -0.7415 -0.5260
  350MOL0     C47178   6.031   4.383   4.368  0.4478 -0.3844  0.2332
  350MOL0     C47179   6.074   4.527   4.346  0.3351 -0.6198 -0.5816
  350MOL0     C47180   6.118   4.640   4.320 -0.0879  0.1146  0.0687
  350MOL0     C47181   5.390   4.278   4.300  0.0211  0.2287 -0.4734
  350MOL0     C47182   5.262   4.222   4.287 -0.6297 -0.2451 -1.3340
  350MOL0     H47183   4.814   4.205   4.515  1.7793 -2.9509 -0.0513
  350MOL0     H47184   4.570   4.164   4.499  0.2476 -1.1163 -0.2849
  350MOL0     H47185   4.386   4.072   4.111  0.0149  0.1459  0.4730
  350MOL0     H47186   4.402   3.920   4.200 -2.3807 -0.5695  2.1823
  350MOL0     H47187   4.163   3.967   4.163 -1.1409  3.7705 -3.4073
  350MOL0     H47188   4.208   3.998   4.334 -1.3557 -1.8299 -0.3441
  350MOL0     H47189   4.207   4.223   4.325 -1.7428 -0.2396  1.1542
  350MOL0     H47190   4.204   4.238   4.153  0.1828  1.2185  0.6648
  350MOL0     H47191   3.975   4.266   4.190 -0.3884 -0.3016 -0.9050
  350MOL0     H47192   3.960   4.092   4.184 -1.5945  3.4508 -4.6382
  350MOL0     H47193   3.964   4.090   4.431 -0.7987  0.2075 -0.7321
  350MOL0     H47194   4.000   4.258   4.446 -1.6274 -0.3867 -0.0127
  350MOL0     H47195   3.778   4.304   4.315  1.5070  0.6229 -1.8287
  350MOL0     H47196   3.741   4.129   4.321 -1.8043  1.7574 -0.6200
  350MOL0     H47197   3.620   4.206   4.508 -0.5531 -0.6030 -1.3435
  350MOL0     H47198   3.768   4.117   4.564 -2.0333  0.2779  2.1881
  350MOL0     H47199   3.874   4.356   4.604 -0.3239 -1.9185  2.9387
  350MOL0     H47200   3.721   4.343   4.695 -0.2729  1.4710 -0.1438
  350MOL0     H47201   3.875   4.597   4.561 -0.5614  0.6595  3.5133
  350MOL0     H47202   3.758   4.853   4.524  0.9065 -3.1530  1.8395
  350MOL0     H47203   3.752   4.817   4.351 -1.9114 -0.5199 -0.5706
  350MOL0     H47204   3.510   4.854   4.544  2.3214  1.3693  1.7953
  350MOL0     H47205   3.487   4.818   4.369  0.8007 -0.5475  0.4237
  350MOL0     H47206   3.609   5.005   4.291  0.9229 -1.2602 -0.3169
  350MOL0     H47207   3.590   5.090   4.453 -2.9194 -0.9320  1.0776
  350MOL0     H47208   3.340   5.040   4.450 -0.2826 -3.3459 -0.7120
  350MOL0     H47209   3.361   4.982   4.295 -4.2294  3.5999 -0.5263
  350MOL0     H47210   3.466   5.413   4.396 -0.4297 -1.5794 -1.3554
  350MOL0     H47211   3.318   5.632   4.610  0.0177 -1.2555 -0.0217
  350MOL0     H47212   3.450   5.609   4.499  1.0129  2.4093  1.5621
  350MOL0     H47213   3.316   5.694   4.437  1.4234 -1.4257 -1.1455
  350MOL0     H47214   2.879   5.465   4.781 -1.5322 -2.0455 -0.6849
  350MOL0     H47215   2.714   5.568   4.920 -0.6039 -1.2306  0.4248
  350MOL0     H47216   2.609   5.714   5.020  1.3381  0.2250 -1.0362
  350MOL0     H47217   2.485   5.841   5.012  0.1582 -0.0976  0.6656
  350MOL0     H47218   2.414   5.663   5.138 -0.0749  0.4329 -0.2117
  350MOL0     H47219   2.311   5.671   4.999 -0.9179 -0.7337  0.7077
  350MOL0     H47220   2.541   5.460   4.996  1.0526  1.3626  2.0784
  350MOL0     H47221   2.412   5.497   4.890 -1.6103  0.9341  0.4239
  350MOL0     H47222   2.442   5.323   5.120  0.4308 -0.7335 -0.8321
  350MOL0     H47223   2.344   5.451   5.178  0.7540 -2.5700  2.9013
  350MOL0     H47224   2.266   5.314   4.921  2.2012 -1.1364 -0.6354
  350MOL0     H47225   2.160   5.392   5.040 -0.0927  0.3267 -2.7963
  350MOL0     H47226   2.206   5.231   5.200  0.9262 -0.6603  1.0281
  350MOL0     H47227   2.120   5.173   5.051  0.8440 -1.9704  1.2876
  350MOL0     H47228   2.412   5.100   5.106 -1.7353 -0.3063  1.9149
  350MOL0     H47229   2.345   5.085   4.950 -3.3176  1.7688 -1.4144
  350MOL0     H47230   2.190   4.914   5.042 -1.4404  0.0031  0.1844
  350MOL0     H47231   2.223   4.947   5.203 -2.8808 -0.3959 -0.7099
  350MOL0     H47232   2.542   5.770   4.565  0.5848  1.1119 -0.5945
  350MOL0     H47233   2.692   5.638   4.432 -2.3187  0.5746  0.0478
  350MOL0     H47234   2.993   5.299   4.403  0.0526 -1.8205  0.7246
  350MOL0     H47235   3.130   5.149   4.313  0.9329 -0.9504 -0.8857
  350MOL0     H47236   4.602   3.994   4.119 -0.9716  0.0221  1.2671
  350MOL0     H47237   4.851   4.054   4.125  0.8056 -0.9275  0.5413
  350MOL0     H47238   5.257   4.015   4.561  0.2618  0.2065 -0.8040
  350MOL0     H47239   5.494   4.112   4.579  1.8783 -1.4527 -1.8226
  350MOL0     H47240   5.701   4.229   4.555  2.2105 -0.0959 -0.4044
  350MOL0     H47241   5.681   4.085   4.450  1.2487  0.3456 -1.5647
  350MOL0     H47242   5.837   4.182   4.291  0.6214 -0.8395  1.1172
  350MOL0     H47243   5.907   4.163   4.453 -1.4334 -3.9662 -1.3682
  350MOL0     H47244   5.845   4.439   4.448 -0.1037  0.5457 -1.5301
  350MOL0     H47245   5.835   4.405   4.276 -2.3140  1.3148  0.9839
  350MOL0     H47246   6.087   4.322   4.297  3.1018  3.3447 -1.2387
  350MOL0     H47247   6.065   4.352   4.467 -0.8169  1.1278  1.1899
  350MOL0     H47248   6.170   4.730   4.296  3.6578 -1.9041 -0.1198
  350MOL0     H47249   5.425   4.354   4.230  3.0757 -0.7363 -0.1150
  350MOL0     H47250   5.188   4.264   4.219 -1.9438 -0.9931 -0.4280
  351MOL0     O47251  11.335   1.241  10.221  0.3052 -0.5458 -0.1195
  351MOL0     C47252  11.384   1.349  10.260  0.3792  0.6208  0.7741
  351MOL0     O47253  11.331   1.414  10.365 -0.6765 -0.6870  0.4592
  351MOL0     C47254  11.199   1.402  10.399  0.3553  1.0891 -0.6211
  351MOL0     C47255  11.166   1.466  10.521  0.3296  0.0495  0.5977
  351MOL0     C47256  11.031   1.485  10.560 -0.6676 -0.3423 -1.0696
  351MOL0     C47257  10.927   1.438  10.477  0.0060  0.7837 -0.1538
  351MOL0     O47258  10.791   1.438  10.514  0.0370  0.1537 -0.2648
  351MOL0     C47259  10.764   1.422  10.658 -0.1545  0.1565  0.0231
  351MOL0     C47260  10.630   1.356  10.672 -0.7300  1.2856  0.1524
  351MOL0     C47261  10.514   1.458  10.654 -0.0156 -0.4378  0.0074
  351MOL0     C47262  10.388   1.380  10.669  0.6279 -0.1297 -0.0167
  351MOL0     C47263  10.267   1.468  10.631  0.7629  0.2564 -0.1106
  351MOL0     C47264  10.227   1.565  10.752 -0.8547  0.1828  0.9848
  351MOL0     C47265  10.123   1.673  10.694  0.2335  0.0465 -0.2543
  351MOL0     C47266  10.034   1.744  10.801  0.0756  0.7219 -0.7055
  351MOL0     N47267   9.946   1.656  10.871 -1.0492  0.1347 -0.2158
  351MOL0     C47268   9.829   1.604  10.824 -0.7533  1.0416 -0.4646
  351MOL0     C47269   9.778   1.540  10.937 -0.4273  0.0141  0.0335
  351MOL0     C47270   9.673   1.434  10.929  0.0675  0.2459 -0.5420
  351MOL0     C47271   9.734   1.303  10.933 -0.0030  0.0733  0.7187
  351MOL0     C47272   9.612   1.199  10.949 -0.7030 -0.2579 -0.8383
  351MOL0     C47273   9.655   1.051  10.969 -0.2349 -0.6431 -0.1497
  351MOL0     O47274   9.700   0.997  10.847  0.0309 -0.3591  0.3729
  351MOL0     C47275   9.831   0.963  10.838 -0.4318  0.9621 -0.7402
  351MOL0     C47276   9.936   1.011  10.919 -0.3806  0.5061  1.1929
  351MOL0     C47277  10.076   0.982  10.895  0.0535 -0.2497 -0.4270
  351MOL0     C47278  10.165   1.035  10.996 -1.5552  0.0328  0.4521
  351MOL0     C47279  10.111   0.909  10.774  0.5628  0.1552  0.1961
  351MOL0     C47280  10.253   0.891  10.722 -0.4862 -0.6935 -0.5306
  351MOL0     O47281  10.255   0.825  10.599 -0.0030 -0.2688  0.2963
  351MOL0     C47282  10.375   0.785  10.552  0.8593 -0.2962  0.4512
  351MOL0     C47283  10.402   0.650  10.540  0.1138  0.5294  0.1623
  351MOL0     C47284  10.524   0.603  10.481  0.3625 -0.3793 -0.3132
  351MOL0     C47285  10.603   0.704  10.418 -0.1701  0.1447 -0.5128
  351MOL0     O47286  10.712   0.657  10.344  0.6641  0.1684 -0.0298
  351MOL0     C47287  10.796   0.747  10.262  0.0741  0.3613  0.2801
  351MOL0     C47288  10.854   0.701  10.125  1.5249  0.0971  0.3547
  351MOL0     C47289  10.960   0.596  10.160  0.1349 -0.0440 -0.1100
  351MOL0     C47290  11.048   0.572  10.037 -0.3574  0.6806  0.5048
  351MOL0     C47291  11.150   0.454  10.070  0.1504  0.6685 -0.0063
  351MOL0     C47292  11.283   0.505  10.130  0.0313 -0.6021  0.4487
  351MOL0     C47293  11.378   0.399  10.176  0.2461  0.3438 -0.2650
  351MOL0     C47294  11.475   0.445  10.278 -0.0268  0.1068 -0.1162
  351MOL0    Cl47295  11.610   0.544  10.202 -0.3020  0.2026 -0.5616
  351MOL0     C47296  10.580   0.834  10.442 -0.2537  0.2751 -0.3682
  351MOL0     C47297  10.469   0.879  10.505 -0.4071  0.3963 -0.0304
  351MOL0     O47298  10.341   0.924  10.798 -0.6409 -0.0400  0.3696
  351MOL0     C47299  10.003   0.859  10.696 -0.1922 -0.7915  0.8811
  351MOL0     C47300   9.868   0.880  10.726  0.2280 -0.8950  0.1101
  351MOL0     N47301   9.876   1.553  11.046 -1.0644  1.3672  0.4157
  351MOL0     N47302   9.974   1.622  11.000 -0.5270  0.6464  0.3211
  351MOL0     C47303  10.959   1.374  10.353  1.0085 -0.7009 -0.3063
  351MOL0     C47304  11.091   1.359  10.320 -0.0019 -0.0419 -0.0249
  351MOL0     C47305  11.503   1.405  10.194  0.2426 -0.5514  0.3501
  351MOL0     C47306  11.574   1.523  10.234 -0.7057  0.6702 -0.5283
  351MOL0     C47307  11.690   1.559  10.171  0.0276 -0.0107 -0.5729
  351MOL0     C47308  11.745   1.485  10.068  0.6879  1.8209  0.4353
  351MOL0     O47309  11.868   1.509  10.000  0.2551  0.9584 -0.1630
  351MOL0     C47310  11.950   1.610  10.052 -0.4551 -0.2433 -0.7831
  351MOL0     C47311  12.100   1.593  10.019 -0.2256  0.5089  0.4212
  351MOL0     C47312  12.201   1.696  10.076  0.2413 -0.3485  0.2193
  351MOL0     C47313  12.213   1.833  10.005 -0.6474  0.0586  0.8961
  351MOL0     C47314  12.247   1.821   9.858  0.6618  0.9102 -0.1728
  351MOL0     C47315  12.253   1.803   9.739 -0.6001  0.3086 -0.0761
  351MOL0     C47316  11.670   1.370  10.022 -0.5070 -0.4408  0.2633
  351MOL0     C47317  11.549   1.329  10.082  0.3040 -0.3309 -1.1051
  351MOL0     H47318  11.240   1.502  10.591  2.1749  1.6607 -2.0095
  351MOL0     H47319  11.011   1.543  10.649  0.0878  4.2181 -3.5670
  351MOL0     H47320  10.843   1.357  10.696  1.0963  0.2037 -2.2963
  351MOL0     H47321  10.754   1.519  10.707  0.1793 -0.9536  2.3834
  351MOL0     H47322  10.631   1.286  10.588 -2.3795  1.8408 -0.3796
  351MOL0     H47323  10.620   1.298  10.764 -2.4687 -0.0562 -0.8317
  351MOL0     H47324  10.526   1.531  10.735  0.5958 -0.8176  0.2635
  351MOL0     H47325  10.512   1.503  10.554 -2.0707 -0.7482 -0.1405
  351MOL0     H47326  10.388   1.296  10.600 -2.0060  0.9090 -1.4113
  351MOL0     H47327  10.367   1.335  10.767 -1.6415  1.1960  0.1880
  351MOL0     H47328  10.280   1.524  10.538  1.1159 -0.3736 -0.4468
  351MOL0     H47329  10.190   1.393  10.612  1.6988 -1.5529  2.6403
  351MOL0     H47330  10.182   1.511  10.836  0.6768 -2.3299  0.3004
  351MOL0     H47331  10.324   1.602  10.788 -0.0102 -2.4145  1.6149
  351MOL0     H47332  10.175   1.743  10.627 -1.5397 -0.7762 -2.6055
  351MOL0     H47333  10.059   1.616  10.626 -1.1597  1.5699 -0.2762
  351MOL0     H47334   9.966   1.815  10.753 -1.4899  0.8665  1.5888
  351MOL0     H47335  10.099   1.792  10.875 -0.9166 -0.3397  0.9006
  351MOL0     H47336   9.787   1.616  10.725 -0.8351  2.2347 -0.3008
  351MOL0     H47337   9.593   1.440  11.004 -0.0514  0.3302 -0.6770
  351MOL0     H47338   9.619   1.454  10.836  1.4112  1.5190 -1.0884
  351MOL0     H47339   9.796   1.293  11.023  1.4539  0.8597 -0.1467
  351MOL0     H47340   9.804   1.281  10.851  0.1298 -0.8261  1.0580
  351MOL0     H47341   9.544   1.216  10.865 -2.4503  0.1489  0.5982
  351MOL0     H47342   9.566   1.229  11.044  3.8929  2.1807  0.9146
  351MOL0     H47343   9.569   0.985  10.985 -0.1680 -1.3880 -2.4787
  351MOL0     H47344   9.721   1.034  11.054 -0.9251  0.1040  0.5441
  351MOL0     H47345   9.908   1.066  11.007 -2.7801 -1.4860  1.7861
  351MOL0     H47346  10.239   0.959  11.024  1.1782  1.5412 -2.0933
  351MOL0     H47347  10.233   1.108  10.951 -0.3612  0.2446  2.4910
  351MOL0     H47348  10.121   1.080  11.085  1.2175  1.4784  1.2107
  351MOL0     H47349  10.333   0.578  10.586 -1.5080  0.0571 -2.7653
  351MOL0     H47350  10.542   0.497  10.477  3.1458  0.0348 -0.5108
  351MOL0     H47351  10.738   0.831  10.223  1.2036 -0.4942 -3.7011
  351MOL0     H47352  10.879   0.783  10.322 -0.3623  2.7733 -0.4746
  351MOL0     H47353  10.768   0.660  10.071  2.6334 -0.5220 -1.0121
  351MOL0     H47354  10.895   0.785  10.068 -2.6847  0.5838 -2.3961
  351MOL0     H47355  10.916   0.510  10.213 -0.2073  1.2231  1.7804
  351MOL0     H47356  11.025   0.650  10.229  2.2231  0.1321 -2.0917
  351MOL0     H47357  10.983   0.536   9.957 -0.2701  1.2306  0.1810
  351MOL0     H47358  11.105   0.658  10.001  0.8708 -0.7314 -1.0574
  351MOL0     H47359  11.172   0.403   9.976  1.0423  4.6082 -2.1675
  351MOL0     H47360  11.091   0.394  10.140  1.9955 -0.5771  0.5439
  351MOL0     H47361  11.328   0.570  10.055 -3.7299  1.1319 -0.5611
  351MOL0     H47362  11.264   0.570  10.216 -2.0830 -0.3267 -0.1716
  351MOL0     H47363  11.428   0.348  10.092 -0.2183 -0.9954  0.2414
  351MOL0     H47364  11.312   0.323  10.219 -1.1819  0.2222 -2.4837
  351MOL0     H47365  11.521   0.368  10.342  1.6623  0.2094 -1.1500
  351MOL0     H47366  11.420   0.510  10.347 -0.4977 -1.7590  1.3548
  351MOL0     H47367  10.647   0.912  10.409 -1.2502 -0.0080 -3.3875
  351MOL0     H47368  10.447   0.983  10.529  1.2927  1.0435 -1.0967
  351MOL0     H47369  10.027   0.800  10.608 -0.0468 -0.9585  1.0303
  351MOL0     H47370   9.791   0.839  10.661  1.1690  0.3136 -1.8661
  351MOL0     H47371  10.878   1.342  10.288 -1.2616  1.3187  1.3055
  351MOL0     H47372  11.112   1.325  10.219  2.1755 -1.8818  0.9595
  351MOL0     H47373  11.555   1.586  10.320 -0.8035 -2.9946  2.3626
  351MOL0     H47374  11.731   1.651  10.212  1.4701  0.0997 -2.1586
  351MOL0     H47375  11.916   1.709  10.020 -1.5263 -0.3535 -0.0631
  351MOL0     H47376  11.953   1.627  10.161  0.1938 -1.1531 -0.6525
  351MOL0     H47377  12.118   1.607   9.912  1.6548  2.4812  0.9263
  351MOL0     H47378  12.119   1.492  10.055 -1.0527  1.0795  2.6154
  351MOL0     H47379  12.302   1.654  10.073 -0.3135 -1.6784 -1.0237
  351MOL0     H47380  12.182   1.718  10.181 -1.3908 -0.3747 -0.0453
  351MOL0     H47381  12.295   1.893  10.046  1.0548 -1.0291 -0.7855
  351MOL0     H47382  12.118   1.887  10.017  0.3666  1.8477  1.2389
  351MOL0     H47383  12.249   1.797   9.632  0.8525 -2.1703 -0.0724
  351MOL0     H47384  11.699   1.305   9.940  2.0721 -1.5130  1.8874
  351MOL0     H47385  11.488   1.249  10.040 -0.4648  0.0535 -0.7540
  352MOL0     O47386   3.808   5.720   3.793 -0.1533 -0.2227  0.8658
  352MOL0     C47387   3.875   5.817   3.758 -0.1561 -0.3962  0.0593
  352MOL0     O47388   3.867   5.894   3.642 -0.3655  0.2482 -0.7858
  352MOL0     C47389   3.762   5.877   3.556 -0.2265  0.6372 -0.4488
  352MOL0     C47390   3.635   5.900   3.596 -0.4690 -0.2850  0.6951
  352MOL0     C47391   3.522   5.868   3.523  0.5612 -0.3526 -0.2300
  352MOL0     C47392   3.542   5.816   3.398  0.1692  0.0799 -0.2388
  352MOL0     O47393   3.448   5.771   3.318 -0.0688 -0.1891 -0.2618
  352MOL0     C47394   3.310   5.798   3.348 -0.7561 -1.7236  0.0340
  352MOL0     C47395   3.207   5.736   3.250  0.0219  0.7176  0.5225
  352MOL0     C47396   3.205   5.583   3.262  0.2589 -0.3940  0.0723
  352MOL0     C47397   3.173   5.534   3.402 -0.3007 -0.3374  0.1006
  352MOL0     C47398   3.205   5.383   3.417 -0.8299  0.1220  0.0928
  352MOL0     C47399   3.108   5.280   3.342 -0.6702  0.0660 -0.1011
  352MOL0     C47400   2.973   5.285   3.410  0.3220  0.2069 -0.4199
  352MOL0     C47401   2.873   5.362   3.323 -0.1099  0.4726 -0.5179
  352MOL0     N47402   2.745   5.304   3.345  1.5274  0.9717  0.4062
  352MOL0     C47403   2.674   5.287   3.463 -0.6189  0.3211  0.0174
  352MOL0     C47404   2.552   5.228   3.430 -0.0241  0.9361  0.1489
  352MOL0     C47405   2.440   5.180   3.520 -0.8851  0.1192 -0.4294
  352MOL0     C47406   2.299   5.208   3.463 -0.1276  0.6857  0.0523
  352MOL0     C47407   2.285   5.350   3.406 -0.0958  0.2839 -0.2789
  352MOL0     C47408   2.142   5.406   3.402 -0.0864 -0.2124  1.5021
  352MOL0     O47409   2.101   5.415   3.536  0.2040 -0.0648  0.6701
  352MOL0     C47410   2.023   5.520   3.573 -0.2504 -0.2176  0.4854
  352MOL0     C47411   2.072   5.609   3.677  0.6849  0.1180 -0.1562
  352MOL0     C47412   2.003   5.725   3.716  0.2992  0.3586 -0.5987
  352MOL0     C47413   2.084   5.809   3.813 -0.4110 -0.4213 -0.3223
  352MOL0     C47414   1.876   5.756   3.663  0.0667  0.0727 -0.4871
  352MOL0     C47415   1.812   5.883   3.696 -0.6475  0.2386 -1.0173
  352MOL0     O47416   1.686   5.883   3.739 -0.6329 -1.0371 -0.0392
  352MOL0     C47417   1.605   5.998   3.726  0.6719  0.3683  0.2087
  352MOL0     C47418   1.583   6.060   3.603 -0.4093  0.0180 -0.3624
  352MOL0     C47419   1.484   6.154   3.594  0.2076  0.0209 -0.4239
  352MOL0     C47420   1.410   6.199   3.707 -0.0542  0.4624  0.5758
  352MOL0     O47421   1.314   6.299   3.676  0.7488  0.5010 -0.0415
  352MOL0     C47422   1.243   6.352   3.791  0.6395 -0.9529  0.2287
  352MOL0     C47423   1.164   6.470   3.760 -0.7713 -0.4459 -0.4019
  352MOL0     C47424   1.084   6.450   3.634  0.0866  0.5852  0.5062
  352MOL0     C47425   0.971   6.551   3.617  0.6316 -0.5711  0.0621
  352MOL0     C47426   0.879   6.505   3.506  0.1768  0.6448 -0.1576
  352MOL0     C47427   0.788   6.621   3.471 -0.5453  0.5373 -0.0804
  352MOL0     C47428   0.671   6.587   3.389  0.3393 -0.0353  0.5736
  352MOL0     C47429   0.566   6.698   3.371  0.2191 -0.2547 -0.3630
  352MOL0    Cl47430   0.425   6.642   3.280  0.4740 -0.3281  0.2448
  352MOL0     C47431   1.432   6.135   3.826  0.6414  0.1453 -0.1733
  352MOL0     C47432   1.529   6.033   3.833  1.1173  0.0887 -0.1940
  352MOL0     O47433   1.871   5.978   3.662 -0.2494 -0.8416  0.6098
  352MOL0     C47434   1.826   5.672   3.565  0.3825 -0.7021  0.4783
  352MOL0     C47435   1.900   5.561   3.511  0.4933  0.1479  0.6864
  352MOL0     N47436   2.565   5.192   3.296  0.1894 -0.6211 -0.3773
  352MOL0     N47437   2.677   5.236   3.248 -0.1513 -0.0531 -0.5321
  352MOL0     C47438   3.673   5.795   3.353  0.4054  0.4606 -0.5073
  352MOL0     C47439   3.777   5.821   3.430  0.5585 -0.1161 -0.1383
  352MOL0     C47440   3.982   5.854   3.854  0.0632  0.1563 -0.1377
  352MOL0     C47441   4.048   5.982   3.846 -0.8432  0.5172  0.6348
  352MOL0     C47442   4.159   6.003   3.935  0.1715 -1.0465  1.0809
  352MOL0     C47443   4.210   5.910   4.021  0.1455 -0.1098  0.0869
  352MOL0     O47444   4.323   5.937   4.097 -0.4418  1.0222 -0.0637
  352MOL0     C47445   4.359   5.860   4.213  0.8543  0.2511 -0.1197
  352MOL0     C47446   4.483   5.918   4.276  0.1914  1.1108  0.0995
  352MOL0     C47447   4.604   5.856   4.202 -0.5198  0.2646  0.0789
  352MOL0     C47448   4.724   5.909   4.264 -0.5450 -0.0392  0.6129
  352MOL0     C47449   4.837   5.856   4.191  0.0219 -0.1097  0.2828
  352MOL0     C47450   4.918   5.792   4.121  0.0648  0.2416  0.4587
  352MOL0     C47451   4.138   5.790   4.034 -0.7945  0.9500 -0.3564
  352MOL0     C47452   4.024   5.764   3.955  0.2184  0.0502 -0.5218
  352MOL0     H47453   3.628   5.955   3.689 -0.0506 -0.2880  0.7331
  352MOL0     H47454   3.432   5.910   3.566 -0.3022  0.6691 -2.8362
  352MOL0     H47455   3.287   5.771   3.452  0.8646  0.9684  1.1918
  352MOL0     H47456   3.306   5.907   3.351  3.5871 -1.2963 -1.8515
  352MOL0     H47457   3.103   5.768   3.260 -0.6474 -0.5369 -1.7154
  352MOL0     H47458   3.232   5.785   3.155 -0.2641  1.0352  0.6081
  352MOL0     H47459   3.127   5.537   3.199 -0.2083 -0.2495  0.5364
  352MOL0     H47460   3.299   5.540   3.228  1.7403  1.3175  1.7991
  352MOL0     H47461   3.219   5.581   3.489  1.2516 -2.3469  0.4335
  352MOL0     H47462   3.065   5.552   3.415 -0.3691  0.5845 -1.4990
  352MOL0     H47463   3.304   5.379   3.371 -1.1708  1.7291 -0.8791
  352MOL0     H47464   3.221   5.357   3.522  0.0749  0.9124  0.1654
  352MOL0     H47465   3.110   5.298   3.234 -1.6074  0.4224 -0.0633
  352MOL0     H47466   3.149   5.179   3.354  2.9157  1.0861 -2.0610
  352MOL0     H47467   2.946   5.182   3.436  0.1604  1.2218  4.3540
  352MOL0     H47468   2.980   5.340   3.505 -0.8383  1.1763 -0.8719
  352MOL0     H47469   2.894   5.360   3.216  0.9537 -1.0096 -0.3028
  352MOL0     H47470   2.864   5.465   3.361 -2.0442  0.5872 -1.1685
  352MOL0     H47471   2.701   5.324   3.561  0.3998  1.3475 -0.6210
  352MOL0     H47472   2.459   5.075   3.543 -0.2582 -0.0532 -1.6769
  352MOL0     H47473   2.449   5.242   3.610 -2.5713 -0.4559  0.1810
  352MOL0     H47474   2.227   5.196   3.544  1.6186 -2.3758  1.3293
  352MOL0     H47475   2.269   5.129   3.394 -2.4732  1.1383  0.4927
  352MOL0     H47476   2.332   5.336   3.308  0.8506 -3.3959  0.5276
  352MOL0     H47477   2.347   5.424   3.458  0.9758 -2.4304  2.6759
  352MOL0     H47478   2.086   5.330   3.346  2.7459 -1.5286  0.2230
  352MOL0     H47479   2.129   5.502   3.352  0.4016  0.1783  2.1141
  352MOL0     H47480   2.155   5.571   3.736  0.8054  0.2490 -0.2418
  352MOL0     H47481   2.102   5.770   3.913 -2.7246  1.6169  1.0218
  352MOL0     H47482   2.181   5.814   3.763 -0.8179 -0.9257 -1.1840
  352MOL0     H47483   2.048   5.913   3.813 -1.9867 -0.9350  0.0709
  352MOL0     H47484   1.653   6.036   3.523  2.0201  1.8858  1.0443
  352MOL0     H47485   1.449   6.204   3.504  0.2190  1.3625  0.2979
  352MOL0     H47486   1.180   6.271   3.831  0.3481 -0.8246  0.0365
  352MOL0     H47487   1.306   6.379   3.877  0.1813  0.3441  0.1717
  352MOL0     H47488   1.099   6.503   3.842  0.3758  3.6052 -0.9306
  352MOL0     H47489   1.226   6.557   3.738 -1.8355  0.5119  0.2677
  352MOL0     H47490   1.039   6.350   3.636  0.3464  0.2420 -3.3541
  352MOL0     H47491   1.145   6.457   3.543 -1.2108 -0.8565 -0.5258
  352MOL0     H47492   0.914   6.550   3.710 -0.0881  1.3430 -0.2984
  352MOL0     H47493   1.016   6.650   3.602  0.1405 -0.4540 -0.6938
  352MOL0     H47494   0.821   6.423   3.548  0.4558  0.9584  0.8774
  352MOL0     H47495   0.932   6.474   3.416 -0.4534  1.0279 -0.6714
  352MOL0     H47496   0.748   6.679   3.555 -2.4754 -1.1751  0.2631
  352MOL0     H47497   0.844   6.684   3.401  0.7165 -1.1137 -0.6415
  352MOL0     H47498   0.626   6.497   3.432  1.2125 -1.5022 -1.4431
  352MOL0     H47499   0.705   6.557   3.290  0.5203  1.1045  0.2731
  352MOL0     H47500   0.618   6.778   3.318  2.0752 -2.0118 -1.3485
  352MOL0     H47501   0.521   6.729   3.465 -3.5289  1.2877 -2.4353
  352MOL0     H47502   1.374   6.152   3.916  1.2488  0.6688  0.1252
  352MOL0     H47503   1.542   5.975   3.924 -0.5231 -0.7189 -0.4424
  352MOL0     H47504   1.724   5.697   3.537 -0.0369 -1.0706  1.6153
  352MOL0     H47505   1.870   5.504   3.424  1.9026  1.3242 -0.6339
  352MOL0     H47506   3.704   5.750   3.259  0.7994 -1.5637  0.5244
  352MOL0     H47507   3.882   5.796   3.412  0.3125 -0.9163 -0.5256
  352MOL0     H47508   4.007   6.045   3.768 -2.8816  0.7402  1.8250
  352MOL0     H47509   4.202   6.103   3.929 -0.4134 -0.7723  1.4017
  352MOL0     H47510   4.278   5.862   4.286  1.1703 -2.4904  0.4130
  352MOL0     H47511   4.363   5.752   4.196 -3.0307 -0.3754  1.7271
  352MOL0     H47512   4.483   5.884   4.380 -0.3968 -1.7588 -0.7443
  352MOL0     H47513   4.475   6.027   4.269 -0.0591  0.9954 -2.2125
  352MOL0     H47514   4.585   5.887   4.099  0.2317  2.5504  0.5684
  352MOL0     H47515   4.603   5.747   4.204 -0.6150  0.2635 -0.0184
  352MOL0     H47516   4.735   5.882   4.369  1.2100  2.0839  1.0550
  352MOL0     H47517   4.724   6.019   4.263  0.4749 -0.0270 -0.4266
  352MOL0     H47518   5.001   5.739   4.078  0.1827  2.0095 -1.6617
  352MOL0     H47519   4.162   5.720   4.113  0.8173  0.5391 -1.1758
  352MOL0     H47520   3.971   5.674   3.983  1.4387  0.0291  2.0263
  353MOL0     O47521   2.517   5.782   0.667  0.1282 -0.3142 -0.0833
  353MOL0     C47522   2.537   5.760   0.550  0.9197  0.3459  0.1482
  353MOL0     O47523   2.435   5.741   0.460 -0.6694 -0.2123 -0.1808
  353MOL0     C47524   2.304   5.750   0.489 -0.1698 -0.8906  0.5829
  353MOL0     C47525   2.223   5.776   0.382  0.9927 -0.2803  0.6712
  353MOL0     C47526   2.082   5.788   0.398 -0.2812  0.3889 -0.7104
  353MOL0     C47527   2.021   5.765   0.526  0.1721  0.8408  1.0303
  353MOL0     O47528   1.882   5.756   0.534  1.2434 -1.2907  0.3948
  353MOL0     C47529   1.821   5.644   0.595 -0.1436 -0.0435 -0.5086
  353MOL0     C47530   1.802   5.673   0.748 -0.7532 -0.2475  0.4121
  353MOL0     C47531   1.660   5.628   0.810 -0.9992 -0.1949 -0.7252
  353MOL0     C47532   1.658   5.475   0.811  1.0201  0.7651  0.2088
  353MOL0     C47533   1.524   5.403   0.870 -0.3936 -0.4302 -0.0441
  353MOL0     C47534   1.506   5.252   0.831 -0.2947 -0.3794 -0.2433
  353MOL0     C47535   1.635   5.184   0.873  0.0298 -0.3481  0.4187
  353MOL0     C47536   1.618   5.044   0.826 -0.9316  0.4466 -0.6016
  353MOL0     N47537   1.617   5.004   0.682  0.2835 -0.0518  0.3815
  353MOL0     C47538   1.687   5.066   0.575  0.1194  0.7629  0.7547
  353MOL0     C47539   1.611   5.032   0.465 -0.1900 -0.3022 -0.1216
  353MOL0     C47540   1.615   5.079   0.324 -0.5729  0.5199  0.8067
  353MOL0     C47541   1.636   4.953   0.231 -0.5868 -0.2659 -0.3171
  353MOL0     C47542   1.674   4.977   0.082  0.5278  0.7409 -0.1529
  353MOL0     C47543   1.781   5.081   0.065  0.6115 -0.3863 -0.0458
  353MOL0     O47544   1.879   5.053   0.169 -0.4606  0.1890 -0.2068
  353MOL0     C47545   2.009   5.101   0.152 -0.0977  0.1302 -0.2774
  353MOL0     C47546   2.070   5.161   0.033 -0.1085 -0.3714 -0.0991
  353MOL0     C47547   2.201   5.211   0.025  0.2241  1.2017 -0.9619
  353MOL0     C47548   2.246   5.254  -0.106 -0.1026  1.1376  0.5496
  353MOL0     C47549   2.283   5.200   0.138  0.2445  0.2135  0.1537
  353MOL0     C47550   2.416   5.247   0.141 -0.1820 -0.4822  0.0218
  353MOL0     O47551   2.458   5.347   0.059 -0.0025 -0.0890 -0.2694
  353MOL0     C47552   2.595   5.370   0.030  0.5148  0.1339  0.0025
  353MOL0     C47553   2.658   5.487   0.043  0.3817 -0.4939  0.2625
  353MOL0     C47554   2.783   5.503  -0.003  0.6417  0.3002 -0.3382
  353MOL0     C47555   2.851   5.395  -0.069  0.1484  0.2412  0.8166
  353MOL0     O47556   2.972   5.438  -0.123 -0.1388  0.1767  0.1233
  353MOL0     C47557   3.066   5.345  -0.173  0.4266  0.0510  0.9880
  353MOL0     C47558   3.211   5.397  -0.158 -0.5114 -0.4744  1.0018
  353MOL0     C47559   3.301   5.270  -0.183 -0.6901  0.0633  0.2871
  353MOL0     C47560   3.451   5.315  -0.183 -0.2804 -0.3918 -0.1489
  353MOL0     C47561   3.543   5.196  -0.156  0.2832  0.0621 -0.1979
  353MOL0     C47562   3.689   5.226  -0.169  0.1119  0.2194  0.2442
  353MOL0     C47563   3.724   5.261  -0.317 -0.7696 -1.2986 -0.2626
  353MOL0     C47564   3.866   5.249  -0.350  0.3217  0.2088 -0.3595
  353MOL0    Cl47565   3.968   5.332  -0.229  0.0019  0.0480 -0.0616
  353MOL0     C47566   2.796   5.267  -0.063 -0.6951 -0.3301  0.3018
  353MOL0     C47567   2.667   5.253  -0.016 -0.6157  0.6169 -0.2547
  353MOL0     O47568   2.488   5.181   0.212 -0.0199  0.0781  0.1638
  353MOL0     C47569   2.228   5.149   0.259  0.6972 -0.4574 -0.3844
  353MOL0     C47570   2.094   5.100   0.264  0.4144 -0.4121 -0.2242
  353MOL0     N47571   1.508   4.942   0.505 -0.5973 -1.0655 -0.1978
  353MOL0     N47572   1.528   4.919   0.635  0.5295  0.0665  0.3257
  353MOL0     C47573   2.106   5.742   0.634 -0.8516 -0.4504  0.2436
  353MOL0     C47574   2.245   5.742   0.622 -0.0001  0.5381  0.7898
  353MOL0     C47575   2.680   5.762   0.511  0.0098 -0.4534  0.3133
  353MOL0     C47576   2.711   5.719   0.380 -0.0313 -0.2354  0.0938
  353MOL0     C47577   2.839   5.714   0.338  0.0003 -0.2812 -0.0136
  353MOL0     C47578   2.936   5.771   0.428  0.0495  0.0429  2.0272
  353MOL0     O47579   3.070   5.779   0.389  0.2783 -0.5934  0.2964
  353MOL0     C47580   3.102   5.757   0.248  0.5888  0.2928  0.7842
  353MOL0     C47581   3.224   5.845   0.223  0.4570 -0.4816  0.0122
  353MOL0     C47582   3.287   5.828   0.081 -0.0087  0.4372 -0.3194
  353MOL0     C47583   3.240   5.924  -0.015  0.2349  0.4368 -0.8996
  353MOL0     C47584   3.095   5.931  -0.032 -0.6228 -0.1804 -0.4739
  353MOL0     C47585   2.974   5.931  -0.031  0.5773  0.2714  0.5299
  353MOL0     C47586   2.902   5.817   0.547 -0.0067 -0.2726 -0.4004
  353MOL0     C47587   2.773   5.809   0.600  0.3486  0.4877  0.3852
  353MOL0     H47588   2.276   5.768   0.288  2.2984 -0.6258  1.4123
  353MOL0     H47589   2.019   5.797   0.310 -2.3639 -0.3770  0.6099
  353MOL0     H47590   1.726   5.633   0.541  0.6642 -0.8699 -1.8241
  353MOL0     H47591   1.881   5.554   0.576 -0.5970 -0.3037 -0.7223
  353MOL0     H47592   1.879   5.617   0.802  1.6059  1.0572 -1.3776
  353MOL0     H47593   1.813   5.780   0.768 -0.1336 -0.4425  1.1624
  353MOL0     H47594   1.655   5.670   0.911  0.6088  0.9870 -1.0814
  353MOL0     H47595   1.583   5.674   0.748 -0.0804  1.5050 -0.6787
  353MOL0     H47596   1.671   5.439   0.708 -1.1834 -4.5848  1.4302
  353MOL0     H47597   1.749   5.434   0.854 -0.7106  0.8527  4.4174
  353MOL0     H47598   1.528   5.407   0.979 -2.5705  1.2128  0.0282
  353MOL0     H47599   1.437   5.463   0.842 -1.5565 -1.2794  1.5869
  353MOL0     H47600   1.422   5.214   0.890  2.0106 -1.4417  2.5553
  353MOL0     H47601   1.489   5.246   0.723 -4.8250  1.0171  0.1706
  353MOL0     H47602   1.724   5.225   0.826  0.2034  1.6347  2.3118
  353MOL0     H47603   1.660   5.192   0.979  0.6727  0.8968  0.1809
  353MOL0     H47604   1.546   4.983   0.881 -1.2858  0.2699 -1.2438
  353MOL0     H47605   1.718   5.004   0.849 -1.3097  0.1365  0.5289
  353MOL0     H47606   1.779   5.121   0.590  0.0927  1.5318 -1.4297
  353MOL0     H47607   1.523   5.134   0.306 -1.9148 -1.6867  0.5503
  353MOL0     H47608   1.697   5.151   0.317 -0.8747  0.6976 -1.8075
  353MOL0     H47609   1.554   4.881   0.242 -2.7353  2.2191  1.0939
  353MOL0     H47610   1.721   4.894   0.266 -0.2999  1.1870  1.5643
  353MOL0     H47611   1.581   4.999   0.028  0.5548 -1.4650 -1.2185
  353MOL0     H47612   1.725   4.890   0.040  2.7109  2.5065 -1.3426
  353MOL0     H47613   1.745   5.184   0.079  4.0603  1.2227 -1.6024
  353MOL0     H47614   1.811   5.069  -0.039 -0.9900 -2.0266 -0.3583
  353MOL0     H47615   2.011   5.177  -0.057 -0.5849  1.2723  0.4570
  353MOL0     H47616   2.349   5.220  -0.125  0.1718  2.1040  0.2114
  353MOL0     H47617   2.182   5.212  -0.184 -2.3044  4.4049  0.4002
  353MOL0     H47618   2.239   5.362  -0.122  2.1052  1.2452 -0.1383
  353MOL0     H47619   2.595   5.565   0.085  0.0113 -0.3205 -0.6000
  353MOL0     H47620   2.827   5.602   0.005  0.6275  0.2733  0.1024
  353MOL0     H47621   3.050   5.250  -0.121 -1.6527  0.4081  1.0816
  353MOL0     H47622   3.044   5.327  -0.279 -0.9530 -0.5750  1.3540
  353MOL0     H47623   3.229   5.483  -0.223  0.3728 -0.3696  1.3710
  353MOL0     H47624   3.230   5.430  -0.056  2.1012 -0.6929  0.6587
  353MOL0     H47625   3.281   5.225  -0.280  3.4034  1.7629 -1.5766
  353MOL0     H47626   3.282   5.206  -0.096  3.0586 -0.0320  1.1724
  353MOL0     H47627   3.478   5.370  -0.273 -1.4201  1.2921  0.4864
  353MOL0     H47628   3.450   5.383  -0.097 -2.3045  0.4636 -0.8115
  353MOL0     H47629   3.501   5.128  -0.231  0.4415 -1.3743  0.9896
  353MOL0     H47630   3.535   5.146  -0.060  0.5386 -0.6855 -0.5580
  353MOL0     H47631   3.720   5.315  -0.113 -0.3728  1.8551 -1.9587
  353MOL0     H47632   3.744   5.141  -0.127  0.6719 -0.3718 -1.5909
  353MOL0     H47633   3.700   5.367  -0.332 -0.5381 -0.9329  1.7229
  353MOL0     H47634   3.668   5.202  -0.390  3.2866 -1.0070 -4.0336
  353MOL0     H47635   3.882   5.292  -0.450 -2.2817  4.2096  0.6773
  353MOL0     H47636   3.890   5.143  -0.354 -0.6793 -0.1724  2.0360
  353MOL0     H47637   2.848   5.186  -0.112 -0.2504 -0.3320  0.7635
  353MOL0     H47638   2.616   5.159  -0.030  0.1004  0.4329 -1.9656
  353MOL0     H47639   2.295   5.152   0.344  2.8317  2.3994 -1.9965
  353MOL0     H47640   2.044   5.058   0.350 -1.6009 -1.5492 -1.8561
  353MOL0     H47641   2.064   5.733   0.734 -0.4635  1.8263  0.6518
  353MOL0     H47642   2.308   5.724   0.708  0.7838 -0.9495 -0.0568
  353MOL0     H47643   2.630   5.681   0.320  1.8171 -5.1999  0.3082
  353MOL0     H47644   2.849   5.661   0.244 -0.6787  0.9188 -0.7846
  353MOL0     H47645   3.119   5.654   0.215 -0.4863  0.3447  0.0184
  353MOL0     H47646   3.018   5.800   0.192  0.6520  0.3864  0.7596
  353MOL0     H47647   3.303   5.824   0.295 -0.6062 -0.1374  1.3212
  353MOL0     H47648   3.201   5.950   0.244  1.4179 -0.6581  2.1650
  353MOL0     H47649   3.278   5.726   0.042  1.1558  0.5564 -0.9584
  353MOL0     H47650   3.396   5.833   0.091  0.2155  0.0954 -2.2728
  353MOL0     H47651   3.290   5.910  -0.111 -0.8743 -1.1136 -1.2815
  353MOL0     H47652   3.260   6.026   0.020 -3.2626  0.6696  0.9481
  353MOL0     H47653   2.868   5.938  -0.035  0.5466  1.9978  2.6253
  353MOL0     H47654   2.981   5.845   0.617 -0.6274 -0.0496  0.2281
  353MOL0     H47655   2.743   5.826   0.703 -0.6037  1.1106  0.0142
  354MOL0     O47656   3.071   9.822   9.184  0.1181 -0.1517  0.2060
  354MOL0     C47657   3.136   9.924   9.214  0.3461  0.1920 -0.0130
  354MOL0     O47658   3.126  10.053   9.155 -0.7330 -0.1074  0.7649
  354MOL0     C47659   3.041  10.057   9.048 -0.6838  0.6091  0.1429
  354MOL0     C47660   2.943  10.155   9.047  0.0043  0.0276 -0.4713
  354MOL0     C47661   2.845  10.157   8.952  0.2434 -0.2678  0.4810
  354MOL0     C47662   2.857  10.072   8.841  0.3555  0.4801 -0.3901
  354MOL0     O47663   2.780  10.060   8.729  0.4909 -0.1839 -0.0088
  354MOL0     C47664   2.652  10.136   8.739  0.5946  0.5030  0.2363
  354MOL0     C47665   2.575  10.118   8.604  0.2067  0.7473 -0.3386
  354MOL0     C47666   2.448  10.197   8.611  0.6113  0.0301 -0.3792
  354MOL0     C47667   2.449  10.339   8.575  0.1879  0.3745 -0.6255
  354MOL0     C47668   2.306  10.388   8.595 -0.0370 -0.4703  0.1738
  354MOL0     C47669   2.205  10.339   8.494  0.5558 -0.7028  1.5297
  354MOL0     C47670   2.058  10.393   8.509 -0.3777  1.3386  0.3634
  354MOL0     C47671   1.970  10.321   8.402  1.0142  0.8217 -0.8559
  354MOL0     N47672   1.912  10.425   8.311  0.3966 -0.2422  0.3278
  354MOL0     C47673   1.782  10.443   8.269  0.6183  0.1138  0.3962
  354MOL0     C47674   1.768  10.549   8.194 -0.5196 -0.0497  0.1371
  354MOL0     C47675   1.629  10.585   8.141  0.3993  0.9470 -0.0602
  354MOL0     C47676   1.628  10.583   7.982 -0.3695 -0.3473  0.2625
  354MOL0     C47677   1.685  10.452   7.923  1.2147  0.2865  0.5300
  354MOL0     C47678   1.612  10.419   7.798 -0.1923  0.1266 -0.6443
  354MOL0     O47679   1.642  10.506   7.685  0.6902 -0.3312  0.2513
  354MOL0     C47680   1.562  10.486   7.568 -0.0382  0.0477  0.4964
  354MOL0     C47681   1.580  10.581   7.468  0.5236 -0.2844 -0.3801
  354MOL0     C47682   1.485  10.574   7.357  0.0898  0.5429 -1.0049
  354MOL0     C47683   1.502  10.678   7.254 -0.6039  0.3458 -0.0784
  354MOL0     C47684   1.398  10.455   7.344 -0.3405  0.3356 -0.4445
  354MOL0     C47685   1.295  10.446   7.239  0.3666  0.1848  0.9003
  354MOL0     O47686   1.173  10.400   7.289 -0.3700  0.2253 -0.1953
  354MOL0     C47687   1.074  10.351   7.203 -0.4571  0.9518  0.0489
  354MOL0     C47688   1.001  10.239   7.246 -0.4190 -0.4207 -0.6441
  354MOL0     C47689   0.893  10.196   7.177  1.1827 -0.2701  0.0176
  354MOL0     C47690   0.845  10.254   7.058 -0.2748  0.4236  0.3359
  354MOL0     O47691   0.733  10.195   7.006 -0.1322 -0.1526  0.4011
  354MOL0     C47692   0.680  10.255   6.886  0.2855  0.2701  0.4501
  354MOL0     C47693   0.557  10.178   6.851  0.8270  0.4507  0.7428
  354MOL0     C47694   0.444  10.198   6.957  0.4525  0.2870  0.4972
  354MOL0     C47695   0.316  10.132   6.916  1.4969 -0.1740  1.2174
  354MOL0     C47696   0.193  10.186   7.008  0.6801  0.5918 -0.1171
  354MOL0     C47697   0.077  10.086   7.011  0.3732  0.7920 -0.3364
  354MOL0     C47698  -0.060  10.133   7.037  0.0378 -0.6749  0.3264
  354MOL0     C47699  -0.173  10.031   7.032 -0.2235  0.3977  0.0153
  354MOL0    Cl47700  -0.325  10.076   7.124 -0.2981  0.1438 -0.5116
  354MOL0     C47701   0.918  10.360   7.013  0.6052  0.2563  1.0895
  354MOL0     C47702   1.023  10.422   7.089 -0.6087  0.5393 -0.9468
  354MOL0     O47703   1.322  10.468   7.121  0.2023 -1.0048  0.0951
  354MOL0     C47704   1.413  10.356   7.439  0.5028  0.2414  0.7787
  354MOL0     C47705   1.488  10.373   7.553 -0.2150  0.4873  0.4170
  354MOL0     N47706   1.888  10.601   8.178  0.1125 -0.2746 -0.4513
  354MOL0     N47707   1.976  10.523   8.238  0.1341 -0.1670 -0.2953
  354MOL0     C47708   2.964   9.977   8.828 -0.7194 -0.5008  0.8715
  354MOL0     C47709   3.050   9.966   8.939 -0.4081 -0.5462 -0.1675
  354MOL0     C47710   3.233   9.898   9.330  0.9826  0.5297  0.2009
  354MOL0     C47711   3.255  10.001   9.417  0.0519 -1.4888 -0.0262
  354MOL0     C47712   3.342   9.981   9.526 -0.2565 -0.5173 -0.8369
  354MOL0     C47713   3.387   9.858   9.560  0.1467 -0.3024 -0.4761
  354MOL0     O47714   3.456   9.842   9.669 -0.4539 -0.1079  0.4911
  354MOL0     C47715   3.386   9.870   9.794  0.9500  0.2127 -0.3674
  354MOL0     C47716   3.440   9.980   9.880  0.1719  0.6181 -0.0938
  354MOL0     C47717   3.582   9.958   9.907  0.0168  0.3572 -0.0988
  354MOL0     C47718   3.631  10.045  10.021 -0.0946  0.5657 -0.2633
  354MOL0     C47719   3.612  10.194   9.997 -0.4100 -0.0222 -0.3378
  354MOL0     C47720   3.587  10.320   9.997  0.4496 -0.4714 -0.0953
  354MOL0     C47721   3.362   9.746   9.476 -0.1259 -0.0925 -0.3779
  354MOL0     C47722   3.282   9.771   9.363 -0.1986  0.6526  0.0825
  354MOL0     H47723   2.930  10.220   9.133 -0.7726  0.1606 -0.6796
  354MOL0     H47724   2.769  10.235   8.959 -1.6544 -1.9821  0.0575
  354MOL0     H47725   2.587  10.108   8.822 -0.7093 -0.5216 -1.0948
  354MOL0     H47726   2.669  10.243   8.757 -2.9363  1.0890  0.7115
  354MOL0     H47727   2.636  10.151   8.519 -1.5430  1.8416 -1.2327
  354MOL0     H47728   2.554  10.010   8.604 -2.3164  1.0212  3.7279
  354MOL0     H47729   2.383  10.147   8.539  0.0098 -0.8602  0.7451
  354MOL0     H47730   2.414  10.199   8.715 -1.1615 -0.7310 -0.9078
  354MOL0     H47731   2.521  10.391   8.639  2.3090 -2.2552 -0.6620
  354MOL0     H47732   2.496  10.342   8.476 -1.3133 -1.8478 -1.5123
  354MOL0     H47733   2.264  10.367   8.694  0.9965  1.2871  1.0403
  354MOL0     H47734   2.303  10.498   8.592 -2.0975 -0.4630  0.6649
  354MOL0     H47735   2.239  10.364   8.394  1.2392  1.9226  2.3466
  354MOL0     H47736   2.187  10.231   8.497 -2.0984 -0.3839 -0.0668
  354MOL0     H47737   2.018  10.365   8.607  0.3419 -2.5734 -0.3315
  354MOL0     H47738   2.056  10.502   8.500 -3.1367  1.3643  0.3354
  354MOL0     H47739   1.883  10.264   8.437 -1.3873  3.6598 -1.7840
  354MOL0     H47740   2.029  10.259   8.334 -0.1917  0.9942 -2.1056
  354MOL0     H47741   1.698  10.382   8.300 -2.4459  0.2393 -5.9998
  354MOL0     H47742   1.547  10.525   8.180  1.2891 -0.6878 -0.6007
  354MOL0     H47743   1.607  10.686   8.176 -0.2892 -0.1428  2.8959
  354MOL0     H47744   1.689  10.665   7.945 -1.9426  0.0956 -1.5022
  354MOL0     H47745   1.531  10.606   7.936 -0.1643  0.4725  0.2362
  354MOL0     H47746   1.679  10.366   7.991  0.7008 -2.0981 -2.3516
  354MOL0     H47747   1.789  10.476   7.898  2.0652 -3.9048 -0.6678
  354MOL0     H47748   1.504  10.418   7.818 -0.1145 -1.1569 -0.2377
  354MOL0     H47749   1.647  10.320   7.768  1.0705  0.9114 -1.8758
  354MOL0     H47750   1.645  10.667   7.481  0.3646  0.2096 -2.3896
  354MOL0     H47751   1.560  10.763   7.290  1.5765 -0.4673 -1.4317
  354MOL0     H47752   1.544  10.642   7.160  1.6709  0.6711  0.7579
  354MOL0     H47753   1.409  10.729   7.228 -1.6165 -1.4485 -0.1492
  354MOL0     H47754   1.017  10.211   7.350 -1.6512 -1.1585 -0.6266
  354MOL0     H47755   0.828  10.123   7.223 -0.5138  2.1279  1.7084
  354MOL0     H47756   0.651  10.359   6.901  1.0368  0.9637 -2.3548
  354MOL0     H47757   0.751  10.256   6.803  0.8531 -0.6905  0.9097
  354MOL0     H47758   0.526  10.211   6.751  2.1948 -0.1827  0.0768
  354MOL0     H47759   0.590  10.074   6.854  1.4068  0.6029  0.0247
  354MOL0     H47760   0.426  10.304   6.978 -2.4558 -0.2156  0.9808
  354MOL0     H47761   0.477  10.146   7.048  0.7165  0.1792  0.3423
  354MOL0     H47762   0.304  10.156   6.810  2.0273  2.0766  1.6275
  354MOL0     H47763   0.325  10.023   6.925 -1.9610 -0.6452  0.3246
  354MOL0     H47764   0.163  10.282   6.966  2.3162  1.0909 -0.2464
  354MOL0     H47765   0.230  10.209   7.109 -1.6136  3.7443  0.1660
  354MOL0     H47766   0.074  10.049   6.907  3.1130 -0.3308 -0.1248
  354MOL0     H47767   0.106  10.005   7.079  2.1172 -0.8766 -2.8644
  354MOL0     H47768  -0.097  10.196   6.955  2.5976 -2.9850 -2.8807
  354MOL0     H47769  -0.053  10.179   7.135  1.5645  0.5648 -0.3312
  354MOL0     H47770  -0.131   9.947   7.087  3.1734  3.0211  1.8603
  354MOL0     H47771  -0.194   9.996   6.930  0.2178 -2.1502  0.7330
  354MOL0     H47772   0.879  10.421   6.932 -2.8920 -1.3420  1.4310
  354MOL0     H47773   1.081  10.509   7.059  1.5938 -0.9258 -1.1962
  354MOL0     H47774   1.340  10.275   7.434 -1.6479  1.9913  2.1534
  354MOL0     H47775   1.490  10.289   7.621 -1.4003 -0.5681 -0.7819
  354MOL0     H47776   2.989   9.917   8.741  0.4008 -2.0508  2.1877
  354MOL0     H47777   3.125   9.888   8.937  2.7673  2.2202  0.2530
  354MOL0     H47778   3.202  10.095   9.400 -1.3525 -1.7595  2.4130
  354MOL0     H47779   3.367  10.069   9.585  2.1828 -1.0070 -1.0477
  354MOL0     H47780   3.285   9.897   9.764  1.4864 -0.1159 -2.6285
  354MOL0     H47781   3.379   9.777   9.850 -1.7081 -0.4785 -1.7337
  354MOL0     H47782   3.393   9.973   9.979  0.0093 -0.6475 -0.2418
  354MOL0     H47783   3.430  10.078   9.831  2.2224  1.1526  0.4700
  354MOL0     H47784   3.643   9.987   9.821  0.9430 -0.7192  0.1596
  354MOL0     H47785   3.599   9.852   9.926 -2.0056 -0.6955 -3.4461
  354MOL0     H47786   3.735  10.019  10.044  0.1638  1.2044 -0.6828
  354MOL0     H47787   3.581  10.016  10.113  2.5806 -1.0522  0.7967
  354MOL0     H47788   3.595  10.426  10.004 -1.6002 -0.3500  1.3633
  354MOL0     H47789   3.405   9.652   9.510  1.6155  0.3114 -1.3433
  354MOL0     H47790   3.256   9.678   9.315  2.0845 -1.3483  2.3893
  355MOL0     O47791   5.771   8.480   8.540 -0.8504  1.0463  0.2781
  355MOL0     C47792   5.878   8.533   8.563  0.5468  0.6076  0.1589
  355MOL0     O47793   5.887   8.661   8.606  0.2139  0.3894 -0.2244
  355MOL0     C47794   5.770   8.731   8.637  0.3944 -0.6682 -0.5690
  355MOL0     C47795   5.769   8.869   8.593 -0.7074  0.1911 -0.8823
  355MOL0     C47796   5.656   8.956   8.612 -1.4640  0.1486  0.2595
  355MOL0     C47797   5.540   8.901   8.679 -0.1713 -0.5710 -0.1226
  355MOL0     O47798   5.421   8.963   8.707  0.2399 -0.7086 -0.1723
  355MOL0     C47799   5.413   9.103   8.678 -0.3680  0.1017 -0.3509
  355MOL0     C47800   5.264   9.139   8.681 -0.1085 -0.8907  0.0752
  355MOL0     C47801   5.196   9.130   8.820  0.2818 -0.7792 -0.8702
  355MOL0     C47802   5.042   9.140   8.795  0.7738 -0.3255 -0.0241
  355MOL0     C47803   4.967   9.160   8.926  0.2866 -0.6681 -0.9375
  355MOL0     C47804   4.816   9.182   8.906 -0.3886  0.0957 -0.1493
  355MOL0     C47805   4.771   9.273   9.011 -0.3911  0.8671 -0.1612
  355MOL0     C47806   4.793   9.415   8.965 -0.1297  0.3942 -0.0865
  355MOL0     N47807   4.671   9.476   8.899  0.4640 -0.5762  0.1684
  355MOL0     C47808   4.534   9.488   8.936 -0.0749 -0.5040 -0.0550
  355MOL0     C47809   4.480   9.566   8.850  0.1806 -0.1318 -0.1717
  355MOL0     C47810   4.332   9.604   8.842  0.9127  0.7161  0.4031
  355MOL0     C47811   4.253   9.540   8.738 -0.2243  1.4551 -0.4626
  355MOL0     C47812   4.108   9.587   8.741  0.4302  0.6975 -0.9545
  355MOL0     C47813   4.011   9.492   8.662 -0.5045 -0.4236  0.1756
  355MOL0     O47814   4.033   9.523   8.525  0.1821 -0.3706  0.6538
  355MOL0     C47815   3.948   9.455   8.440 -0.3252 -0.4913 -0.1055
  355MOL0     C47816   3.905   9.525   8.331 -0.3723 -0.4448 -0.0811
  355MOL0     C47817   3.837   9.462   8.232 -0.3812  0.2762  0.2285
  355MOL0     C47818   3.814   9.545   8.112 -0.1975 -0.0055  0.0806
  355MOL0     C47819   3.783   9.332   8.253 -0.2500  1.0465  0.7252
  355MOL0     C47820   3.702   9.251   8.153 -0.1040  0.5049  0.3376
  355MOL0     O47821   3.718   9.270   8.022  0.1457 -0.6703 -0.0410
  355MOL0     C47822   3.649   9.194   7.929  0.1148  0.6177 -0.4638
  355MOL0     C47823   3.508   9.208   7.908 -0.4053  0.0175  0.5463
  355MOL0     C47824   3.441   9.139   7.807  0.0994  0.4071 -0.2003
  355MOL0     C47825   3.505   9.040   7.737  0.5249 -0.3033 -0.4390
  355MOL0     O47826   3.442   8.979   7.631 -0.8351 -0.0009  0.2998
  355MOL0     C47827   3.468   8.839   7.607 -0.1011 -1.2434  0.1784
  355MOL0     C47828   3.402   8.783   7.482 -0.6411 -0.4636 -0.2631
  355MOL0     C47829   3.248   8.773   7.490 -0.4295 -0.5360  0.9498
  355MOL0     C47830   3.179   8.714   7.609 -0.5545  0.0358 -0.2681
  355MOL0     C47831   3.031   8.710   7.571  0.4418  0.7223 -0.1789
  355MOL0     C47832   2.971   8.615   7.678 -0.0133  0.3197  0.0311
  355MOL0     C47833   2.815   8.623   7.687 -0.1445 -0.2842  0.3377
  355MOL0     C47834   2.745   8.568   7.812  0.2919 -0.8132 -0.8562
  355MOL0    Cl47835   2.579   8.616   7.856  0.1242  0.1608 -0.2834
  355MOL0     C47836   3.635   9.015   7.764 -0.2973 -0.3854  0.2357
  355MOL0     C47837   3.710   9.084   7.851 -0.2034  1.0505  0.0291
  355MOL0     O47838   3.617   9.182   8.201  0.7447 -0.3426  0.3132
  355MOL0     C47839   3.817   9.259   8.369  0.5396  0.2446 -0.9877
  355MOL0     C47840   3.908   9.321   8.461  0.0002  0.2220 -0.2542
  355MOL0     N47841   4.579   9.625   8.771  0.2856  0.4855  0.9047
  355MOL0     N47842   4.685   9.562   8.796  0.5276 -0.2698 -0.2038
  355MOL0     C47843   5.540   8.769   8.719 -0.2048  1.0534  0.8651
  355MOL0     C47844   5.650   8.684   8.706 -0.0272  0.2068  1.1914
  355MOL0     C47845   5.996   8.442   8.530 -0.0271 -1.1340  0.4392
  355MOL0     C47846   6.104   8.442   8.624  0.1805  0.4999 -0.1002
  355MOL0     C47847   6.228   8.363   8.600  1.1394 -1.1232 -0.2647
  355MOL0     C47848   6.228   8.288   8.479  0.2516 -0.7560  0.7824
  355MOL0     O47849   6.341   8.206   8.454 -0.6339 -0.1819 -0.4414
  355MOL0     C47850   6.385   8.182   8.319 -0.4400  1.4661 -0.4404
  355MOL0     C47851   6.521   8.112   8.336  0.3705 -0.1790 -0.1717
  355MOL0     C47852   6.620   8.195   8.412  1.2371  0.2278  0.2948
  355MOL0     C47853   6.763   8.131   8.420  0.5598  0.4066 -0.9225
  355MOL0     C47854   6.822   8.105   8.291 -0.6634 -0.7044 -0.4715
  355MOL0     C47855   6.863   8.081   8.184  0.4297 -0.6374 -0.4798
  355MOL0     C47856   6.117   8.285   8.395  0.5695 -0.4626  0.0826
  355MOL0     C47857   6.003   8.368   8.417 -0.8302  0.3473  0.8863
  355MOL0     H47858   5.861   8.907   8.549  0.4583  0.7064  1.8109
  355MOL0     H47859   5.655   9.061   8.582  0.7323  0.3273  0.6398
  355MOL0     H47860   5.478   9.160   8.745  0.3121 -2.0690  0.9397
  355MOL0     H47861   5.454   9.129   8.579 -0.0924 -3.0423 -1.1801
  355MOL0     H47862   5.260   9.243   8.646  1.8438 -0.1989  1.6679
  355MOL0     H47863   5.212   9.074   8.610  2.2004 -1.4955 -1.1747
  355MOL0     H47864   5.217   9.037   8.873  1.7716 -0.2485 -0.4915
  355MOL0     H47865   5.229   9.215   8.881 -0.5166 -0.9035 -0.2429
  355MOL0     H47866   5.027   9.225   8.729  3.5684 -0.7986 -1.4109
  355MOL0     H47867   5.018   9.040   8.756 -0.5752 -0.4070  0.9436
  355MOL0     H47868   4.989   9.089   9.006 -2.8368  0.9109  1.5666
  355MOL0     H47869   5.013   9.253   8.962  0.0441 -1.6635  2.2551
  355MOL0     H47870   4.778   9.223   8.812  0.4622 -0.7923 -0.9054
  355MOL0     H47871   4.774   9.080   8.905  0.9542 -0.5615  2.2234
  355MOL0     H47872   4.663   9.264   9.026 -0.3107  2.3465  1.6241
  355MOL0     H47873   4.824   9.260   9.105 -1.4472  0.5860  0.4189
  355MOL0     H47874   4.870   9.422   8.888 -2.9499 -2.3059 -3.5406
  355MOL0     H47875   4.831   9.477   9.046  1.6134 -0.0960 -0.4833
  355MOL0     H47876   4.497   9.433   9.021 -1.6012 -0.3350 -0.5763
  355MOL0     H47877   4.286   9.579   8.939  3.1397 -0.2488  1.2907
  355MOL0     H47878   4.333   9.713   8.836  2.8516  0.7138  0.2572
  355MOL0     H47879   4.258   9.431   8.750  2.1938  1.6254  0.4617
  355MOL0     H47880   4.287   9.561   8.636 -0.3334 -0.9813 -1.0820
  355MOL0     H47881   4.101   9.685   8.693 -1.4621  0.6393 -0.8581
  355MOL0     H47882   4.072   9.595   8.843  0.2906  0.6419 -1.0013
  355MOL0     H47883   3.912   9.514   8.702  0.0866  1.1134  0.9077
  355MOL0     H47884   4.016   9.386   8.689 -2.7801 -0.6705 -0.2211
  355MOL0     H47885   3.937   9.625   8.305  0.7051 -0.3899  1.3401
  355MOL0     H47886   3.711   9.583   8.118  0.2188  1.3486 -0.8174
  355MOL0     H47887   3.878   9.633   8.099  0.6176  0.0823  3.7658
  355MOL0     H47888   3.830   9.480   8.026  0.5432 -0.4518  0.5437
  355MOL0     H47889   3.438   9.270   7.964  1.3307  0.6147  2.1508
  355MOL0     H47890   3.337   9.165   7.795  0.0513  0.3417  0.0537
  355MOL0     H47891   3.573   8.813   7.589 -0.5645 -3.4240  0.3515
  355MOL0     H47892   3.422   8.798   7.697 -4.8675  1.9217 -0.4647
  355MOL0     H47893   3.431   8.843   7.395 -0.1787  1.5038  1.1585
  355MOL0     H47894   3.440   8.683   7.462 -1.1785 -0.4710 -1.3315
  355MOL0     H47895   3.229   8.716   7.399  1.1261  0.6814 -0.2053
  355MOL0     H47896   3.210   8.875   7.480 -1.9897 -1.3364 -2.8256
  355MOL0     H47897   3.206   8.614   7.644 -3.7526 -0.1685  2.1668
  355MOL0     H47898   3.185   8.784   7.694  1.5233  2.3054 -2.1293
  355MOL0     H47899   3.022   8.661   7.474  2.5324 -0.9300  0.4036
  355MOL0     H47900   2.980   8.807   7.567 -2.2351 -0.6012 -0.7878
  355MOL0     H47901   3.002   8.514   7.649  2.7218  0.6902  1.3392
  355MOL0     H47902   3.002   8.643   7.779 -1.2208 -0.4978  0.6545
  355MOL0     H47903   2.779   8.587   7.590  1.0885 -0.9707  0.1155
  355MOL0     H47904   2.797   8.731   7.693  3.6262  0.8227 -3.4442
  355MOL0     H47905   2.807   8.603   7.895  0.2420 -2.3137 -0.1517
  355MOL0     H47906   2.749   8.458   7.812 -0.7633 -0.8703  0.2824
  355MOL0     H47907   3.694   8.940   7.713  0.2626  1.1837 -1.5313
  355MOL0     H47908   3.809   9.042   7.861 -1.4535 -4.2167 -4.4718
  355MOL0     H47909   3.784   9.156   8.381  0.7664  0.1170 -1.4389
  355MOL0     H47910   3.953   9.262   8.540 -1.1948  1.0544  1.1095
  355MOL0     H47911   5.452   8.729   8.769  0.9058 -0.1559  1.9155
  355MOL0     H47912   5.630   8.588   8.752 -2.8369  1.3788  2.6760
  355MOL0     H47913   6.101   8.496   8.719  1.6447  0.9695 -0.2882
  355MOL0     H47914   6.306   8.364   8.675  0.1685  1.2231  0.7932
  355MOL0     H47915   6.316   8.115   8.267  1.6745 -1.3656  0.1677
  355MOL0     H47916   6.390   8.279   8.269 -0.0585  2.4094  1.3573
  355MOL0     H47917   6.561   8.079   8.240 -1.0652  4.9642 -2.9058
  355MOL0     H47918   6.505   8.017   8.388 -2.5379 -0.5666 -1.5838
  355MOL0     H47919   6.581   8.217   8.511  1.7283  0.1930  0.5021
  355MOL0     H47920   6.618   8.290   8.357  1.1414 -0.0158 -0.1210
  355MOL0     H47921   6.768   8.036   8.474  1.3223 -0.2315 -2.0722
  355MOL0     H47922   6.830   8.201   8.472  0.4804 -0.1463 -0.0583
  355MOL0     H47923   6.904   8.065   8.086 -1.1275  0.6032 -1.3708
  355MOL0     H47924   6.118   8.235   8.299  1.9834 -1.6174  0.6727
  355MOL0     H47925   5.933   8.378   8.334  1.7021 -0.4602 -1.5167
  356MOL0     O47926   9.584   6.321   6.606  0.2118  0.2843  0.8411
  356MOL0     C47927   9.624   6.311   6.723 -0.0170 -0.5110 -1.4448
  356MOL0     O47928   9.755   6.317   6.767  0.2179 -0.4850  0.2417
  356MOL0     C47929   9.852   6.308   6.664  0.3089 -0.5929 -0.0308
  356MOL0     C47930   9.874   6.408   6.568  0.2087  0.1891 -0.6545
  356MOL0     C47931   9.993   6.397   6.491 -0.8234  0.2110 -0.5254
  356MOL0     C47932  10.078   6.286   6.500  0.2919 -0.5398 -0.0956
  356MOL0     O47933  10.201   6.307   6.437 -0.0936  0.3955  0.3378
  356MOL0     C47934  10.282   6.183   6.413 -1.0863  0.3009 -0.5315
  356MOL0     C47935  10.358   6.208   6.284 -0.1913  0.1560  1.3992
  356MOL0     C47936  10.504   6.137   6.276  0.1806 -0.1173  0.0693
  356MOL0     C47937  10.502   5.992   6.226 -0.0616  0.7196  0.2415
  356MOL0     C47938  10.639   5.920   6.252 -0.6836 -0.4568 -0.7727
  356MOL0     C47939  10.651   5.797   6.172  0.5995  1.4109 -0.8050
  356MOL0     C47940  10.676   5.821   6.025  0.1296 -0.6351  1.1557
  356MOL0     C47941  10.653   5.694   5.947 -1.1191 -0.2944  0.8102
  356MOL0     N47942  10.681   5.705   5.804  0.3982  0.0466 -0.0060
  356MOL0     C47943  10.765   5.627   5.734  0.9512  0.4035 -0.0319
  356MOL0     C47944  10.773   5.667   5.607  0.3342 -0.7777 -0.4324
  356MOL0     C47945  10.848   5.602   5.497  0.2744  0.1691  0.6706
  356MOL0     C47946  10.764   5.581   5.373 -1.1095 -0.0053  0.6079
  356MOL0     C47947  10.650   5.480   5.382 -0.7087  0.4743  0.2326
  356MOL0     C47948  10.526   5.545   5.423  0.2307  0.4116  0.2123
  356MOL0     O47949  10.467   5.606   5.302  0.5446  0.8511  0.0945
  356MOL0     C47950  10.330   5.617   5.314 -0.5510 -0.1101 -0.2350
  356MOL0     C47951  10.252   5.606   5.427  1.1612  0.6796  0.1874
  356MOL0     C47952  10.113   5.626   5.423 -0.2361 -1.0138 -0.2084
  356MOL0     C47953  10.038   5.634   5.546  1.1022 -0.3857 -0.6662
  356MOL0     C47954  10.058   5.632   5.291  1.0068 -0.9091  0.3366
  356MOL0     C47955   9.908   5.670   5.270  0.4680 -0.0377 -0.2179
  356MOL0     O47956   9.856   5.626   5.159 -0.0638 -0.8632  0.1418
  356MOL0     C47957   9.740   5.689   5.111 -0.3473  0.2798 -0.5562
  356MOL0     C47958   9.751   5.787   5.011  0.6623 -0.9798 -0.5858
  356MOL0     C47959   9.637   5.861   4.966 -0.2592  0.0311 -0.6627
  356MOL0     C47960   9.508   5.833   5.011 -0.4115  0.8256 -1.3490
  356MOL0     O47961   9.407   5.900   4.950  0.6343 -0.4400  0.3164
  356MOL0     C47962   9.314   5.951   5.043  0.5244  0.5211 -0.0501
  356MOL0     C47963   9.187   6.022   4.985 -0.4748  0.0770 -0.3655
  356MOL0     C47964   9.087   6.063   5.096 -0.0965 -0.1713  0.1711
  356MOL0     C47965   8.952   6.122   5.050  0.6304 -0.2750  0.4565
  356MOL0     C47966   8.866   6.167   5.174 -0.1666  0.5007  0.0603
  356MOL0     C47967   8.733   6.218   5.124 -0.7375  0.1473 -0.3584
  356MOL0     C47968   8.627   6.277   5.231  0.4990 -0.1330  0.5825
  356MOL0     C47969   8.669   6.221   5.372  0.8409 -0.4161 -0.0237
  356MOL0    Cl47970   8.582   6.305   5.499 -0.0837  0.0874  0.1060
  356MOL0     C47971   9.494   5.719   5.107 -0.7312 -0.7168 -1.1227
  356MOL0     C47972   9.612   5.650   5.153  0.4971  0.7172  0.9332
  356MOL0     O47973   9.838   5.718   5.364  0.5466 -0.6965  0.3224
  356MOL0     C47974  10.143   5.634   5.171  0.3712 -0.0874  0.4110
  356MOL0     C47975  10.274   5.626   5.189 -1.0609 -0.8104 -0.1315
  356MOL0     N47976  10.694   5.790   5.601  0.4222 -0.4627 -0.2255
  356MOL0     N47977  10.640   5.810   5.721  0.0926  0.7542  0.5086
  356MOL0     C47978  10.047   6.191   6.597  0.2254  0.0361 -0.4370
  356MOL0     C47979   9.936   6.204   6.682 -0.8042  0.6254 -0.2500
  356MOL0     C47980   9.526   6.305   6.833  0.2865  0.3687  1.2988
  356MOL0     C47981   9.566   6.284   6.963  1.0832 -0.0106 -0.4364
  356MOL0     C47982   9.478   6.238   7.064  0.4567  0.3093  0.1492
  356MOL0     C47983   9.343   6.223   7.044 -0.9838  0.3998 -0.4559
  356MOL0     O47984   9.271   6.188   7.153  1.0459 -0.3605 -0.2990
  356MOL0     C47985   9.128   6.216   7.140 -0.9680 -0.7543 -0.2732
  356MOL0     C47986   9.066   6.179   7.272 -0.4605  0.5617 -0.0979
  356MOL0     C47987   8.922   6.226   7.285 -0.0711 -0.0997 -0.5546
  356MOL0     C47988   8.834   6.144   7.184 -0.2248  0.0322  0.3095
  356MOL0     C47989   8.700   6.119   7.236 -0.0817 -0.1760 -1.1266
  356MOL0     C47990   8.596   6.090   7.291 -0.8576  0.0670 -0.1089
  356MOL0     C47991   9.304   6.245   6.909  0.2768  1.5529 -0.7476
  356MOL0     C47992   9.395   6.286   6.806 -0.2970 -0.0533  0.4327
  356MOL0     H47993   9.804   6.491   6.562  0.3747  0.3661 -0.2192
  356MOL0     H47994  10.031   6.478   6.430 -0.7850  1.5700  1.2299
  356MOL0     H47995  10.352   6.161   6.494 -2.4699  0.5971  0.7912
  356MOL0     H47996  10.224   6.091   6.406 -3.1214  1.3045  1.6901
  356MOL0     H47997  10.294   6.177   6.200 -0.7531 -4.6829  3.2782
  356MOL0     H47998  10.367   6.316   6.268 -0.4863  0.1939  1.4750
  356MOL0     H47999  10.569   6.195   6.210 -0.9660 -1.3896 -2.3252
  356MOL0     H48000  10.546   6.133   6.377 -3.3558 -2.3189  1.6356
  356MOL0     H48001  10.422   5.936   6.276 -2.7137  1.2202 -3.1114
  356MOL0     H48002  10.494   5.998   6.117  0.6628  0.8813  0.1934
  356MOL0     H48003  10.725   5.986   6.237 -0.9589  0.7314  2.1764
  356MOL0     H48004  10.644   5.890   6.357 -1.5308  1.4212 -0.1542
  356MOL0     H48005  10.741   5.739   6.197  1.3310  1.8901 -2.2025
  356MOL0     H48006  10.561   5.738   6.191 -1.7431  5.1470  0.8695
  356MOL0     H48007  10.608   5.894   5.980  2.6513  2.2841  1.7231
  356MOL0     H48008  10.775   5.868   6.020 -1.2219  2.4501  0.7620
  356MOL0     H48009  10.551   5.656   5.952 -2.3724  1.7455 -3.8565
  356MOL0     H48010  10.724   5.626   5.995  1.0048  1.8637  0.9385
  356MOL0     H48011  10.817   5.541   5.777  0.3882  0.5482  0.9669
  356MOL0     H48012  10.935   5.661   5.467 -0.3645  1.0624  0.5385
  356MOL0     H48013  10.893   5.507   5.529  2.1614  0.4575 -0.9165
  356MOL0     H48014  10.839   5.549   5.301  0.8129 -0.4340  2.6940
  356MOL0     H48015  10.731   5.679   5.336 -0.6577 -0.4767 -1.1198
  356MOL0     H48016  10.668   5.390   5.441  1.1264 -0.2551 -1.3527
  356MOL0     H48017  10.638   5.436   5.283  1.8351  0.0906  0.0128
  356MOL0     H48018  10.526   5.608   5.513 -1.2065 -2.4781  2.4083
  356MOL0     H48019  10.466   5.460   5.457  0.4680  0.6255  1.1859
  356MOL0     H48020  10.297   5.589   5.524 -0.2187  1.2144  0.9555
  356MOL0     H48021   9.977   5.724   5.545  3.0450  1.0146  0.5243
  356MOL0     H48022   9.975   5.544   5.551  3.5187 -2.1244  1.7051
  356MOL0     H48023  10.094   5.623   5.640 -0.8885 -1.7788  0.4403
  356MOL0     H48024   9.836   5.836   4.964 -1.2991  3.2306 -0.2718
  356MOL0     H48025   9.656   5.945   4.900  0.1767  0.7340  0.3105
  356MOL0     H48026   9.287   5.869   5.110  2.8371 -1.7981 -1.7788
  356MOL0     H48027   9.378   6.026   5.091 -1.1428  1.5824  0.6074
  356MOL0     H48028   9.220   6.107   4.926  1.7060 -0.9351 -0.6751
  356MOL0     H48029   9.131   5.957   4.917 -1.6350  0.9580 -0.2990
  356MOL0     H48030   9.131   6.142   5.157 -0.0774 -0.4914  0.5737
  356MOL0     H48031   9.077   5.974   5.159  3.0375 -1.5404 -1.0198
  356MOL0     H48032   8.959   6.206   4.980 -0.1379  0.0963  0.8133
  356MOL0     H48033   8.894   6.045   4.998  0.6892 -0.2337  0.3298
  356MOL0     H48034   8.909   6.257   5.218 -1.2781  1.1366 -0.1270
  356MOL0     H48035   8.857   6.093   5.254 -2.9444  0.0752 -0.5424
  356MOL0     H48036   8.753   6.279   5.036 -1.2015 -2.3114 -2.2473
  356MOL0     H48037   8.682   6.133   5.078 -1.6015 -0.0712  0.9386
  356MOL0     H48038   8.526   6.251   5.199 -0.0301  1.5445  0.7926
  356MOL0     H48039   8.627   6.387   5.236 -0.8693 -0.0839  0.0035
  356MOL0     H48040   8.772   6.247   5.397  1.6075 -1.6534 -1.6819
  356MOL0     H48041   8.656   6.113   5.386 -0.2792 -0.2742  0.1475
  356MOL0     H48042   9.398   5.704   5.155 -1.4435  2.7430 -1.2714
  356MOL0     H48043   9.614   5.576   5.232 -3.9486 -1.8498 -1.0215
  356MOL0     H48044  10.096   5.652   5.075  2.1590  1.7148 -0.1736
  356MOL0     H48045  10.347   5.621   5.110 -0.1728 -1.0612  0.6908
  356MOL0     H48046  10.120   6.113   6.614  1.3256  1.2729  0.6791
  356MOL0     H48047   9.914   6.130   6.758 -0.5824  0.1079 -0.6880
  356MOL0     H48048   9.671   6.303   6.983  1.0219  0.6440 -0.6873
  356MOL0     H48049   9.513   6.228   7.166 -3.7272 -2.1445  1.6022
  356MOL0     H48050   9.113   6.322   7.117  4.5319 -0.0934 -2.3189
  356MOL0     H48051   9.078   6.154   7.065 -3.7456  1.4949 -0.4438
  356MOL0     H48052   9.127   6.219   7.353 -0.4300 -3.2936  1.9892
  356MOL0     H48053   9.062   6.071   7.283  0.6722  0.2507 -2.2466
  356MOL0     H48054   8.899   6.333   7.288  0.9965  0.1304  2.2368
  356MOL0     H48055   8.882   6.207   7.385 -1.8003  1.0589 -0.9774
  356MOL0     H48056   8.889   6.053   7.161  0.8506  0.8805 -0.5758
  356MOL0     H48057   8.826   6.203   7.092 -0.2724 -1.5869 -0.7603
  356MOL0     H48058   8.500   6.062   7.331 -0.2445  0.3140  1.6420
  356MOL0     H48059   9.208   6.214   6.869  1.1226  1.3373 -2.7282
  356MOL0     H48060   9.358   6.285   6.704  0.4860  1.0192  0.1206
  357MOL0     O48061   0.204   0.266   3.767  0.2284 -0.2002  0.0514
  357MOL0     C48062   0.293   0.353   3.751 -0.3839  1.0009 -0.6361
  357MOL0     O48063   0.274   0.488   3.750  0.4753 -1.1622  0.4447
  357MOL0     C48064   0.155   0.531   3.788  0.1915  0.7116  0.7213
  357MOL0     C48065   0.129   0.547   3.923  0.5093  0.1182  0.2365
  357MOL0     C48066   0.002   0.572   3.964  0.4259 -0.2900  0.3559
  357MOL0     C48067  -0.100   0.603   3.869  0.9922 -0.4391 -1.5834
  357MOL0     O48068  -0.226   0.653   3.900  0.6770  0.4363 -0.0567
  357MOL0     C48069  -0.319   0.566   3.972 -0.5867 -0.2262 -0.0625
  357MOL0     C48070  -0.465   0.614   3.959 -0.5750  0.5905  0.2379
  357MOL0     C48071  -0.481   0.755   4.009 -0.8164 -0.9258 -0.2261
  357MOL0     C48072  -0.618   0.816   4.019  0.0938  0.6279 -0.8542
  357MOL0     C48073  -0.637   0.920   4.129 -0.4712  0.2157 -0.6830
  357MOL0     C48074  -0.779   0.963   4.150 -0.0103  0.1868 -0.2676
  357MOL0     C48075  -0.832   1.053   4.036  0.2837 -0.8457  0.4766
  357MOL0     C48076  -0.962   1.130   4.059 -0.3559 -0.1349  0.0433
  357MOL0     N48077  -1.074   1.065   4.006 -0.3658  1.3043 -0.9120
  357MOL0     C48078  -1.127   0.937   4.040  0.2907 -0.5310 -0.8766
  357MOL0     C48079  -1.223   0.914   3.949  0.3188  1.2742  0.0740
  357MOL0     C48080  -1.308   0.784   3.947 -0.2806 -0.3467  0.5759
  357MOL0     C48081  -1.457   0.799   3.988 -0.1225 -0.4639  0.4593
  357MOL0     C48082  -1.540   0.860   3.873 -0.1382 -0.4746  0.8595
  357MOL0     C48083  -1.693   0.846   3.892  0.1907 -1.2172  0.2212
  357MOL0     O48084  -1.726   0.949   3.984 -0.8417  0.0582  0.1696
  357MOL0     C48085  -1.842   0.939   4.042  0.0096  0.1318 -0.2176
  357MOL0     C48086  -1.905   1.055   4.094 -0.1055  0.3947  0.5793
  357MOL0     C48087  -2.036   1.054   4.150 -0.1543 -0.0824 -0.3465
  357MOL0     C48088  -2.103   1.183   4.198 -0.1618 -0.7746  1.1972
  357MOL0     C48089  -2.109   0.927   4.155  0.1995  1.1376 -0.5775
  357MOL0     C48090  -2.243   0.915   4.212 -0.4574 -0.1107  0.1147
  357MOL0     O48091  -2.299   1.003   4.297  0.7462  0.2348 -0.3151
  357MOL0     C48092  -2.416   0.974   4.364 -0.1706 -1.4013 -0.1246
  357MOL0     C48093  -2.421   0.869   4.447 -0.3175 -0.2550 -0.2996
  357MOL0     C48094  -2.532   0.853   4.532  0.5782  0.8253  0.5802
  357MOL0     C48095  -2.647   0.926   4.514  0.1620  0.1068  0.0661
  357MOL0     O48096  -2.741   0.903   4.609  0.0331 -0.4547 -0.3620
  357MOL0     C48097  -2.863   0.976   4.594 -0.1387 -0.5560 -0.4883
  357MOL0     C48098  -2.943   0.958   4.728  0.2577  0.0569  0.2789
  357MOL0     C48099  -3.096   0.973   4.698 -0.1180 -0.1720 -0.0940
  357MOL0     C48100  -3.166   0.842   4.668 -1.2617 -0.3521  0.0457
  357MOL0     C48101  -3.301   0.849   4.615 -0.2166  0.1809 -0.3963
  357MOL0     C48102  -3.370   0.715   4.601  0.4271 -0.4723  0.7572
  357MOL0     C48103  -3.523   0.745   4.611 -0.0380  0.2576 -1.0477
  357MOL0     C48104  -3.603   0.617   4.606 -0.8064  0.8171 -0.0259
  357MOL0    Cl48105  -3.580   0.524   4.450 -0.0866 -0.2236  0.1564
  357MOL0     C48106  -2.648   1.034   4.422 -0.1449  0.2627  0.0488
  357MOL0     C48107  -2.531   1.053   4.348  0.2608  0.0388  0.5238
  357MOL0     O48108  -2.299   0.817   4.161  0.5070 -0.1769  0.0607
  357MOL0     C48109  -2.043   0.816   4.094  0.3387 -0.5211  0.0284
  357MOL0     C48110  -1.917   0.824   4.051 -0.4925  0.4603 -0.2226
  357MOL0     N48111  -1.233   1.020   3.859  0.0965  0.0247 -0.0758
  357MOL0     N48112  -1.137   1.096   3.897  0.5857  0.3889  0.2763
  357MOL0     C48113  -0.075   0.586   3.732  0.0452 -0.9259 -0.7835
  357MOL0     C48114   0.050   0.541   3.692 -0.9364 -0.0699  1.1647
  357MOL0     C48115   0.428   0.296   3.716 -0.0286  1.3368 -0.3292
  357MOL0     C48116   0.517   0.376   3.643 -0.0441 -0.0115  1.1430
  357MOL0     C48117   0.629   0.326   3.578 -0.7079 -0.1567  0.7198
  357MOL0     C48118   0.659   0.190   3.590 -0.7382 -0.1595 -0.2966
  357MOL0     O48119   0.763   0.136   3.519 -0.6688  0.7761 -0.1817
  357MOL0     C48120   0.844   0.207   3.421 -0.0515  0.1634 -0.4215
  357MOL0     C48121   0.931   0.099   3.356  0.1015 -0.0238 -0.1383
  357MOL0     C48122   1.040   0.061   3.459 -0.5990  0.8072  0.0587
  357MOL0     C48123   1.147  -0.025   3.390  0.0641  0.4514 -0.2774
  357MOL0     C48124   1.219   0.052   3.288  0.3548  0.8324  0.0574
  357MOL0     C48125   1.284   0.118   3.210 -0.7218  0.2071 -0.0296
  357MOL0     C48126   0.579   0.102   3.670  0.8271  0.4282 -0.1964
  357MOL0     C48127   0.465   0.162   3.738  0.2964 -0.1192  0.0215
  357MOL0     H48128   0.209   0.525   3.993  0.9247  0.8746  0.0188
  357MOL0     H48129  -0.021   0.584   4.069 -1.3764  0.9396 -0.1271
  357MOL0     H48130  -0.328   0.462   3.939 -3.8665 -0.2825  0.6980
  357MOL0     H48131  -0.299   0.555   4.079 -2.9391 -1.3633  0.3368
  357MOL0     H48132  -0.503   0.606   3.857  1.5765 -2.3849 -0.4627
  357MOL0     H48133  -0.521   0.540   4.019  1.0832 -0.1525  0.9392
  357MOL0     H48134  -0.446   0.754   4.113 -0.6903  0.5691 -0.2436
  357MOL0     H48135  -0.422   0.822   3.946  0.2954 -1.5477  0.1217
  357MOL0     H48136  -0.637   0.858   3.920 -0.4836  0.9165 -0.6300
  357MOL0     H48137  -0.683   0.732   4.045 -0.5228  1.1248 -0.7618
  357MOL0     H48138  -0.614   0.883   4.229 -0.6188  1.4456 -0.1777
  357MOL0     H48139  -0.567   1.003   4.119  0.3798 -0.3739  0.2035
  357MOL0     H48140  -0.839   0.872   4.161 -0.4806  0.6609  1.4641
  357MOL0     H48141  -0.779   1.018   4.244  1.9972 -0.1131 -0.0543
  357MOL0     H48142  -0.757   1.132   4.033 -0.9352  0.3509  0.7282
  357MOL0     H48143  -0.829   0.996   3.943  0.1486 -0.0811  0.0017
  357MOL0     H48144  -0.961   1.227   4.010 -0.5518  0.7979  1.7977
  357MOL0     H48145  -0.982   1.166   4.161 -2.8280  0.3059 -0.5231
  357MOL0     H48146  -1.115   0.876   4.129 -2.3006  1.9428  1.3602
  357MOL0     H48147  -1.291   0.741   3.848  3.4973 -0.9903  1.3527
  357MOL0     H48148  -1.263   0.715   4.019 -1.0218 -0.3478  1.0509
  357MOL0     H48149  -1.468   0.864   4.075  0.8011 -0.7501  0.8149
  357MOL0     H48150  -1.499   0.699   4.000  0.0453 -0.2652  3.2904
  357MOL0     H48151  -1.520   0.811   3.777  2.0654 -0.0133  1.0264
  357MOL0     H48152  -1.515   0.964   3.851 -1.2343 -0.2847  0.4578
  357MOL0     H48153  -1.697   0.743   3.929  0.5466 -1.4656 -0.4177
  357MOL0     H48154  -1.757   0.856   3.804  0.2030 -0.3886  0.2981
  357MOL0     H48155  -1.864   1.155   4.085  1.5452 -0.1962  1.1821
  357MOL0     H48156  -2.203   1.193   4.155  1.1273 -0.4652 -1.9760
  357MOL0     H48157  -2.111   1.189   4.307 -0.8954 -2.5990  1.2810
  357MOL0     H48158  -2.037   1.265   4.169 -1.5400  0.3315  1.1109
  357MOL0     H48159  -2.332   0.808   4.453  1.0745  1.8122  2.5691
  357MOL0     H48160  -2.529   0.774   4.606 -1.1177 -0.8121 -0.9704
  357MOL0     H48161  -2.844   1.083   4.581  2.0360 -0.9502 -0.8428
  357MOL0     H48162  -2.917   0.941   4.505 -1.9630  1.5718 -0.3109
  357MOL0     H48163  -2.937   0.858   4.773  2.4204  0.6390  1.4185
  357MOL0     H48164  -2.926   1.040   4.798  0.0569  0.2148  0.1424
  357MOL0     H48165  -3.119   1.027   4.606 -0.1361 -1.4946 -0.8941
  357MOL0     H48166  -3.144   1.025   4.782 -2.2186 -1.8379 -0.1832
  357MOL0     H48167  -3.118   0.778   4.593  0.5539 -0.6930  1.4414
  357MOL0     H48168  -3.163   0.788   4.763  1.4380 -2.7043 -1.2391
  357MOL0     H48169  -3.299   0.881   4.510  0.5970 -3.3276 -1.5824
  357MOL0     H48170  -3.351   0.923   4.678  1.1856  0.8850 -0.0682
  357MOL0     H48171  -3.353   0.679   4.500  1.5636 -0.6265  0.9902
  357MOL0     H48172  -3.338   0.638   4.672  0.6404 -2.3657 -1.2867
  357MOL0     H48173  -3.552   0.815   4.532 -0.1786 -0.8515 -2.0113
  357MOL0     H48174  -3.546   0.794   4.706  3.7889  2.2867 -0.9359
  357MOL0     H48175  -3.705   0.658   4.608 -1.7095 -0.7749 -3.8444
  357MOL0     H48176  -3.581   0.551   4.690 -0.4289 -1.6305 -1.9100
  357MOL0     H48177  -2.731   1.101   4.405  0.7773  1.4133 -0.0274
  357MOL0     H48178  -2.532   1.133   4.274  0.3944 -2.1667 -1.9899
  357MOL0     H48179  -2.094   0.720   4.094  1.2568 -1.0421  1.5303
  357MOL0     H48180  -1.885   0.731   4.005  1.8481  0.1325  1.8468
  357MOL0     H48181  -0.148   0.621   3.659  3.2752  0.3661 -3.6489
  357MOL0     H48182   0.060   0.524   3.586 -0.2755 -0.5884  1.3025
  357MOL0     H48183   0.490   0.477   3.615  3.9993  0.8115 -0.6095
  357MOL0     H48184   0.689   0.393   3.518 -0.3356  0.7126  2.0277
  357MOL0     H48185   0.785   0.255   3.342 -1.7252 -1.6193 -0.3035
  357MOL0     H48186   0.897   0.292   3.466  0.7765 -1.4803  1.9100
  357MOL0     H48187   0.962   0.132   3.257 -0.0172  1.8213  0.4004
  357MOL0     H48188   0.878   0.005   3.338  2.4555 -1.3349 -0.7403
  357MOL0     H48189   1.002   0.005   3.544  2.4113 -0.5876  0.6277
  357MOL0     H48190   1.084   0.150   3.506  2.4697  1.2389 -3.2078
  357MOL0     H48191   1.111  -0.118   3.345 -1.5244  0.9464 -0.1097
  357MOL0     H48192   1.216  -0.063   3.465  0.2895  0.1569 -0.6311
  357MOL0     H48193   1.324   0.175   3.129 -3.1945 -0.4278 -1.8193
  357MOL0     H48194   0.595  -0.005   3.672 -2.3571 -0.1480  0.6778
  357MOL0     H48195   0.395   0.099   3.791 -1.1251 -1.0766 -2.8052
  358MOL0     O48196   0.924   9.059   8.378  0.9915  0.1627 -0.4282
  358MOL0     C48197   0.864   9.063   8.268  0.5036  1.0544  0.6659
  358MOL0     O48198   0.922   9.025   8.145 -0.3350  0.1133 -0.2918
  358MOL0     C48199   1.055   8.994   8.133  0.1246  0.2381  0.0837
  358MOL0     C48200   1.122   9.029   8.016 -0.3846 -0.0093  0.0436
  358MOL0     C48201   1.260   9.004   8.002  0.2243 -0.0937  0.1349
  358MOL0     C48202   1.336   8.950   8.103  0.4402  1.0720 -0.3947
  358MOL0     O48203   1.470   8.941   8.087 -0.0420 -0.3432 -0.8142
  358MOL0     C48204   1.550   8.861   8.185  0.9330  0.0089 -0.0776
  358MOL0     C48205   1.669   8.820   8.093 -0.6294  0.0114  0.0741
  358MOL0     C48206   1.804   8.898   8.098 -0.1885  0.1404 -0.5066
  358MOL0     C48207   1.873   8.848   7.973 -0.1559  0.0455  0.6277
  358MOL0     C48208   2.002   8.933   7.941  0.3426 -0.0357  0.5261
  358MOL0     C48209   2.104   8.916   8.054 -1.0993 -0.4556 -0.5006
  358MOL0     C48210   2.233   8.985   8.014  0.3428 -0.3522 -0.4308
  358MOL0     C48211   2.330   8.962   8.132 -0.5635 -0.9525 -1.2990
  358MOL0     N48212   2.467   8.994   8.090  0.2966  0.3665  0.9787
  358MOL0     C48213   2.559   8.895   8.060  0.5505  0.7806 -0.4728
  358MOL0     C48214   2.677   8.964   8.033 -0.4398  0.3874 -0.1010
  358MOL0     C48215   2.802   8.904   7.985  0.0033 -0.5469  0.0911
  358MOL0     C48216   2.921   8.963   8.049 -0.6554 -0.8400  0.4143
  358MOL0     C48217   3.046   8.863   8.039  0.5055 -0.3481  0.1947
  358MOL0     C48218   3.155   8.938   8.120  0.1075 -0.7690  0.0859
  358MOL0     O48219   3.265   8.846   8.138  0.6904  0.1364 -0.3554
  358MOL0     C48220   3.361   8.885   8.228 -0.2303  0.6485 -0.2793
  358MOL0     C48221   3.338   8.960   8.339 -0.3468 -0.0102 -0.2845
  358MOL0     C48222   3.433   8.967   8.443  0.0099  0.2251 -0.1801
  358MOL0     C48223   3.379   9.044   8.567  0.5385 -0.3418 -0.1805
  358MOL0     C48224   3.558   8.893   8.432 -0.3646  0.0702  0.1985
  358MOL0     C48225   3.669   8.887   8.530 -0.0365  0.1158  1.0220
  358MOL0     O48226   3.743   8.772   8.529 -0.3099 -0.0047  0.1277
  358MOL0     C48227   3.862   8.768   8.594  0.0711 -0.3127  1.1657
  358MOL0     C48228   3.953   8.871   8.589 -0.2905  0.7562 -0.7920
  358MOL0     C48229   4.072   8.859   8.661  0.8787  0.5263 -0.0292
  358MOL0     C48230   4.088   8.751   8.756 -0.3299 -0.2197  0.4894
  358MOL0     O48231   4.197   8.742   8.839 -0.5198  1.0617 -0.3649
  358MOL0     C48232   4.316   8.822   8.809  0.4851  0.6458  0.6569
  358MOL0     C48233   4.451   8.764   8.866  0.2654 -0.2741  0.2653
  358MOL0     C48234   4.481   8.630   8.808 -0.1274 -0.7400  0.6553
  358MOL0     C48235   4.612   8.589   8.878 -0.0891 -0.3413  0.2496
  358MOL0     C48236   4.653   8.454   8.825  0.0979 -0.0498 -0.2823
  358MOL0     C48237   4.775   8.407   8.905 -0.0709  0.3134 -0.1491
  358MOL0     C48238   4.742   8.354   9.047 -0.3331 -0.1245  0.7908
  358MOL0     C48239   4.883   8.328   9.111  0.7950  0.8427 -0.2918
  358MOL0    Cl48240   4.963   8.489   9.145 -0.2393 -0.0812 -0.2819
  358MOL0     C48241   3.995   8.649   8.751  0.1500  0.0569 -0.1647
  358MOL0     C48242   3.880   8.657   8.665  0.6190  0.3787 -0.4678
  358MOL0     O48243   3.688   8.980   8.612 -0.1117 -0.3116 -0.2444
  358MOL0     C48244   3.573   8.818   8.318 -0.3478 -0.0038  0.1750
  358MOL0     C48245   3.482   8.819   8.215 -1.2300  0.2000 -0.0402
  358MOL0     N48246   2.652   9.107   8.057  0.0849  0.1181 -0.6216
  358MOL0     N48247   2.524   9.115   8.080 -0.4821 -0.4147 -0.4332
  358MOL0     C48248   1.272   8.921   8.227 -0.2444  0.4056  0.0507
  358MOL0     C48249   1.130   8.933   8.233  0.4649  0.5464 -0.0952
  358MOL0     C48250   0.721   9.086   8.269 -0.5542  0.0244 -0.2860
  358MOL0     C48251   0.641   9.070   8.156 -0.7297 -0.0058  1.2188
  358MOL0     C48252   0.501   9.074   8.165 -0.2893  0.5840  0.3846
  358MOL0     C48253   0.446   9.107   8.287  0.1896 -0.5328  0.5615
  358MOL0     O48254   0.318   9.096   8.272  0.6911  0.6298  0.1616
  358MOL0     C48255   0.213   9.120   8.365  0.4465  0.6657  0.1950
  358MOL0     C48256   0.178   9.268   8.385  0.1526 -1.2084  0.6514
  358MOL0     C48257   0.151   9.338   8.246  0.5262  0.2771 -0.4511
  358MOL0     C48258   0.004   9.323   8.209 -0.2344  1.7329  0.4031
  358MOL0     C48259  -0.033   9.384   8.079 -0.1652  0.6834 -0.9667
  358MOL0     C48260  -0.063   9.436   7.977  0.3795 -0.7314 -0.3572
  358MOL0     C48261   0.521   9.136   8.398 -0.7348 -0.0221 -0.3284
  358MOL0     C48262   0.660   9.119   8.395 -0.8390  0.4014  0.4354
  358MOL0     H48263   1.057   9.078   7.944 -0.2328  1.3209  0.7701
  358MOL0     H48264   1.302   9.033   7.907  0.6037 -0.2006  0.2673
  358MOL0     H48265   1.587   8.923   8.267  1.6167  1.1680 -1.2081
  358MOL0     H48266   1.505   8.768   8.221  2.7132 -1.4620 -1.4391
  358MOL0     H48267   1.689   8.714   8.115 -2.6400 -0.2074  1.0778
  358MOL0     H48268   1.633   8.827   7.990 -0.3431 -2.6771 -0.2886
  358MOL0     H48269   1.789   9.005   8.087  1.4364  0.5491  0.8461
  358MOL0     H48270   1.856   8.879   8.193  0.2458 -0.5863 -0.8797
  358MOL0     H48271   1.904   8.744   7.990  0.0045 -0.0116  0.0125
  358MOL0     H48272   1.814   8.848   7.881  3.6310  1.4124 -2.0454
  358MOL0     H48273   2.050   8.880   7.859  1.6620 -0.2251  1.3841
  358MOL0     H48274   1.971   9.035   7.916 -0.3889 -0.1232  1.0505
  358MOL0     H48275   2.071   8.969   8.144  3.4226  0.2841  1.0049
  358MOL0     H48276   2.114   8.808   8.065 -0.7964 -0.5356 -1.5042
  358MOL0     H48277   2.265   8.930   7.925 -2.2380 -1.1989 -0.9259
  358MOL0     H48278   2.220   9.092   7.992 -3.1318 -0.8778 -1.5804
  358MOL0     H48279   2.316   8.863   8.177 -1.2357 -0.6677 -0.8552
  358MOL0     H48280   2.315   9.047   8.200  2.6695 -0.8405 -0.5370
  358MOL0     H48281   2.543   8.788   8.059  0.6454  0.7690 -0.8755
  358MOL0     H48282   2.802   8.799   8.016 -1.3826 -0.6713 -0.2591
  358MOL0     H48283   2.810   8.916   7.876  3.9763  0.6731  0.3741
  358MOL0     H48284   2.901   8.988   8.153  2.0977  0.2224  0.7771
  358MOL0     H48285   2.949   9.053   7.994 -1.0170 -0.4078  0.9388
  358MOL0     H48286   3.065   8.833   7.935 -1.0086 -0.8457  0.0416
  358MOL0     H48287   3.012   8.774   8.094 -0.8705 -0.3666 -0.6382
  358MOL0     H48288   3.112   8.976   8.213 -0.4737 -0.4168 -0.3249
  358MOL0     H48289   3.190   9.027   8.068  0.1072 -1.2245 -0.7209
  358MOL0     H48290   3.249   9.020   8.356 -0.7484 -0.8778  0.8048
  358MOL0     H48291   3.270   9.041   8.572  0.2057  2.0988 -3.2845
  358MOL0     H48292   3.428   9.003   8.656 -0.3839 -1.8882 -0.3414
  358MOL0     H48293   3.393   9.152   8.566  0.6784 -0.3175  1.5125
  358MOL0     H48294   3.918   8.959   8.537 -3.0300  0.1214 -0.1833
  358MOL0     H48295   4.144   8.941   8.658  1.8163 -0.3130 -1.9907
  358MOL0     H48296   4.337   8.822   8.702 -2.2919 -2.0071 -0.0030
  358MOL0     H48297   4.311   8.929   8.833  1.3398  0.5483  1.3363
  358MOL0     H48298   4.524   8.841   8.841 -1.7413  1.8317  0.5628
  358MOL0     H48299   4.452   8.777   8.974 -0.3793  1.2200  0.1199
  358MOL0     H48300   4.498   8.633   8.700 -0.2740 -5.9098  0.2592
  358MOL0     H48301   4.400   8.558   8.821  0.2660 -0.8828  2.6347
  358MOL0     H48302   4.684   8.662   8.840 -2.2670  1.8160  0.0014
  358MOL0     H48303   4.603   8.599   8.986 -1.4877 -2.2390  0.3639
  358MOL0     H48304   4.684   8.475   8.723 -0.1267  0.1000 -0.3201
  358MOL0     H48305   4.594   8.362   8.823  2.2181 -1.4821  0.0621
  358MOL0     H48306   4.822   8.330   8.843 -0.6870 -1.9830  2.0862
  358MOL0     H48307   4.841   8.495   8.903 -1.8455  1.6858 -0.8929
  358MOL0     H48308   4.682   8.262   9.047 -0.8345  0.1644  2.5900
  358MOL0     H48309   4.686   8.438   9.088 -0.4521  0.6268 -0.8598
  358MOL0     H48310   4.947   8.269   9.045  1.7225  1.1870  0.2722
  358MOL0     H48311   4.870   8.261   9.197 -0.9143  1.5101 -0.0065
  358MOL0     H48312   4.008   8.570   8.824  0.4843 -2.4230 -2.7257
  358MOL0     H48313   3.804   8.579   8.667  3.3383 -2.4678  1.0091
  358MOL0     H48314   3.664   8.760   8.305  0.2579  1.2458 -1.5704
  358MOL0     H48315   3.512   8.759   8.130 -1.5210 -3.1112  2.0124
  358MOL0     H48316   1.329   8.896   8.316 -1.6187 -0.1796  0.8041
  358MOL0     H48317   1.085   8.910   8.329  0.4942 -0.2565 -0.2648
  358MOL0     H48318   0.687   9.050   8.059  0.2381  1.4705  1.3401
  358MOL0     H48319   0.445   9.045   8.076  1.1810  0.4056 -0.5210
  358MOL0     H48320   0.127   9.060   8.336 -1.1262  2.0139  1.8332
  358MOL0     H48321   0.244   9.089   8.466  3.1516 -1.4782 -1.1619
  358MOL0     H48322   0.271   9.306   8.429  0.4603  0.0005 -0.9443
  358MOL0     H48323   0.089   9.287   8.447 -1.1125  0.5218 -1.5582
  358MOL0     H48324   0.222   9.308   8.168  1.2676  1.9395 -0.4529
  358MOL0     H48325   0.148   9.447   8.246  0.8169  0.2884  0.3999
  358MOL0     H48326  -0.070   9.354   8.283 -2.3629 -0.2423 -0.7373
  358MOL0     H48327  -0.009   9.214   8.211 -0.0798  1.7250  1.1514
  358MOL0     H48328  -0.081   9.479   7.880  0.4625 -1.3497 -0.6491
  358MOL0     H48329   0.470   9.169   8.488  3.2691 -1.2095  2.6373
  358MOL0     H48330   0.715   9.137   8.487  0.1537  0.0827 -0.0757
  359MOL0     O48331   3.890   5.839   9.938 -0.6452 -0.6089  0.9623
  359MOL0     C48332   3.919   5.864   9.824  0.0483  0.4674 -0.0789
  359MOL0     O48333   3.840   5.928   9.734  0.6895  0.0656 -0.4148
  359MOL0     C48334   3.726   5.998   9.777 -0.7331 -0.1493 -0.9698
  359MOL0     C48335   3.633   5.921   9.854  0.1745  0.2939  0.4405
  359MOL0     C48336   3.522   5.985   9.896  0.3303  0.3058 -0.5308
  359MOL0     C48337   3.485   6.110   9.843  0.2077  0.5326  0.7843
  359MOL0     O48338   3.360   6.175   9.867 -0.4365  0.0398  0.9483
  359MOL0     C48339   3.257   6.100   9.917  1.0976 -0.0942 -0.9389
  359MOL0     C48340   3.135   6.184   9.968 -0.6409 -0.6066  0.4715
  359MOL0     C48341   3.027   6.090  10.028 -0.5557  0.4630 -0.2868
  359MOL0     C48342   2.895   6.164  10.057 -0.8464 -0.2758  0.6360
  359MOL0     C48343   2.768   6.080  10.059 -0.1150  0.3558  0.1255
  359MOL0     C48344   2.649   6.166  10.101  0.8507  0.7248  0.2023
  359MOL0     C48345   2.518   6.102  10.091 -0.2619 -0.2539 -0.1426
  359MOL0     C48346   2.407   6.206  10.120 -0.0144 -0.0663  1.0081
  359MOL0     N48347   2.277   6.145  10.142  0.8837  0.3628  0.4084
  359MOL0     C48348   2.184   6.141  10.040 -0.6362  0.3527 -0.4128
  359MOL0     C48349   2.066   6.138  10.113 -0.9649 -0.4021  0.0183
  359MOL0     C48350   1.926   6.172  10.067  0.1902 -0.2807 -0.0274
  359MOL0     C48351   1.834   6.046  10.053  0.3000 -0.8070  0.3400
  359MOL0     C48352   1.686   6.087  10.058  0.5244 -0.4405  0.1687
  359MOL0     C48353   1.626   6.127  10.186 -0.4579 -0.6696  0.2073
  359MOL0     O48354   1.479   6.109  10.201  0.0582  0.2845 -0.0010
  359MOL0     C48355   1.415   6.220  10.263 -0.9725  0.2857  0.0479
  359MOL0     C48356   1.467   6.271  10.377  0.4987 -0.6132 -0.3396
  359MOL0     C48357   1.381   6.355  10.449  0.4309 -0.0891  0.0578
  359MOL0     C48358   1.436   6.395  10.587  0.6197 -0.3260 -0.0830
  359MOL0     C48359   1.248   6.390  10.401  0.4887  0.0679  0.3742
  359MOL0     C48360   1.147   6.468  10.480 -0.1630 -0.2319  0.1621
  359MOL0     O48361   1.029   6.517  10.423  0.0661  0.2468 -0.4142
  359MOL0     C48362   0.947   6.608  10.487  0.3267  0.0330  0.1282
  359MOL0     C48363   0.808   6.573  10.496  0.0248 -0.0138 -0.4144
  359MOL0     C48364   0.713   6.663  10.558 -1.2116  0.2789 -0.1361
  359MOL0     C48365   0.757   6.792  10.601  0.2083 -0.8128  0.3240
  359MOL0     O48366   0.676   6.886  10.654  0.2757  0.3383  0.6327
  359MOL0     C48367   0.542   6.846  10.683  0.5448  0.6115 -0.1787
  359MOL0     C48368   0.486   6.958  10.766 -0.3889  0.4646 -0.1338
  359MOL0     C48369   0.341   6.973  10.736 -0.0519  0.2664 -0.2109
  359MOL0     C48370   0.275   6.833  10.753  0.3675  0.1655 -0.2159
  359MOL0     C48371   0.120   6.858  10.755 -0.1702  0.5067 -0.7954
  359MOL0     C48372   0.052   6.864  10.611  0.0131 -0.0410  0.1035
  359MOL0     C48373  -0.092   6.906  10.608  0.8086 -0.4085  0.3836
  359MOL0     C48374  -0.196   6.810  10.672 -0.9172 -1.4548  0.1433
  359MOL0    Cl48375  -0.186   6.641  10.621  0.6990 -0.2732  0.0866
  359MOL0     C48376   0.887   6.824  10.593 -0.1341  0.3791  0.0612
  359MOL0     C48377   0.986   6.727  10.553  0.6609  0.0252 -0.0912
  359MOL0     O48378   1.173   6.494  10.598  0.0069  0.4653  0.3017
  359MOL0     C48379   1.217   6.353  10.278  0.6537  0.5477 -0.2950
  359MOL0     C48380   1.295   6.265  10.212  0.6888 -0.9078  0.3453
  359MOL0     N48381   2.089   6.110  10.249 -0.4826 -0.0290  0.5957
  359MOL0     N48382   2.214   6.123  10.265 -0.0500 -0.6288  0.6626
  359MOL0     C48383   3.569   6.173   9.751 -0.1173  0.6743 -0.5424
  359MOL0     C48384   3.696   6.121   9.728  0.3236 -0.1980 -0.4587
  359MOL0     C48385   4.052   5.826   9.769 -0.1837 -0.3303 -1.2192
  359MOL0     C48386   4.101   5.858   9.642  1.0622 -0.0061  0.7618
  359MOL0     C48387   4.231   5.825   9.609 -0.0980 -0.7803 -0.5154
  359MOL0     C48388   4.317   5.757   9.696  0.7170  0.2586 -0.7469
  359MOL0     O48389   4.443   5.720   9.653  0.2979  0.6789 -0.0047
  359MOL0     C48390   4.556   5.776   9.722  0.4447  0.4848 -0.1414
  359MOL0     C48391   4.671   5.766   9.632 -0.0863 -0.4108 -0.3564
  359MOL0     C48392   4.631   5.873   9.530 -0.5181 -0.0819 -0.6705
  359MOL0     C48393   4.741   5.866   9.420  0.8616 -0.5591  0.0299
  359MOL0     C48394   4.880   5.894   9.468  0.2158 -0.0464 -0.0532
  359MOL0     C48395   4.990   5.903   9.511 -0.7634  0.3785 -0.2840
  359MOL0     C48396   4.280   5.724   9.826  1.0386 -0.4588 -0.4944
  359MOL0     C48397   4.145   5.764   9.864 -0.2115 -0.0169  0.9983
  359MOL0     H48398   3.652   5.816   9.871 -0.6137  0.6353  4.1103
  359MOL0     H48399   3.468   5.917   9.961 -0.2445 -0.5488 -1.8580
  359MOL0     H48400   3.231   6.033   9.835 -2.4038 -0.8367  0.5873
  359MOL0     H48401   3.293   6.036   9.998 -3.0677  0.5483  1.7191
  359MOL0     H48402   3.176   6.257  10.038  0.8320 -0.8103 -0.1366
  359MOL0     H48403   3.092   6.245   9.888  0.6979  0.6138  0.6494
  359MOL0     H48404   3.011   6.013   9.951  1.9157  1.0637 -1.5089
  359MOL0     H48405   3.068   6.032  10.111 -1.6633  3.1386  2.2899
  359MOL0     H48406   2.920   6.222  10.146 -2.9036  0.6347  0.6964
  359MOL0     H48407   2.891   6.235   9.974  3.5881  1.1847  1.4297
  359MOL0     H48408   2.737   6.045   9.961 -0.8696  1.5127 -0.0671
  359MOL0     H48409   2.783   6.001  10.134  0.7076  1.5298  1.2629
  359MOL0     H48410   2.648   6.180  10.210  1.3765  0.1724  0.2819
  359MOL0     H48411   2.658   6.256  10.040  1.0321 -0.6682 -1.9057
  359MOL0     H48412   2.511   6.053   9.994 -2.0588 -2.9114  1.2156
  359MOL0     H48413   2.514   6.027  10.170  0.8347  0.5632  0.7254
  359MOL0     H48414   2.407   6.281  10.040 -0.9621 -0.2412  0.8335
  359MOL0     H48415   2.436   6.262  10.209 -3.6824  0.6842  1.8991
  359MOL0     H48416   2.200   6.157   9.933 -2.8587 -2.3585 -1.2637
  359MOL0     H48417   1.900   6.236  10.151 -0.9517  0.1145 -0.6612
  359MOL0     H48418   1.920   6.234   9.977 -1.3597 -0.0943  0.1681
  359MOL0     H48419   1.851   5.983  10.140  1.4858  1.8516  2.1927
  359MOL0     H48420   1.856   5.991   9.961 -1.2471 -2.4746  0.9091
  359MOL0     H48421   1.627   6.011  10.006 -1.1475  2.9189 -3.3063
  359MOL0     H48422   1.673   6.174   9.994 -0.4736 -1.2127 -0.7039
  359MOL0     H48423   1.648   6.233  10.204  1.2764 -0.6167 -1.8603
  359MOL0     H48424   1.678   6.070  10.263 -1.2864 -0.1019  1.2221
  359MOL0     H48425   1.562   6.240  10.418 -0.3965 -1.1193  1.4500
  359MOL0     H48426   1.540   6.368  10.608  1.1841  2.8070  1.7630
  359MOL0     H48427   1.448   6.503  10.589 -0.4563 -0.1959  0.9215
  359MOL0     H48428   1.376   6.352  10.668  2.5827 -3.5293 -0.1476
  359MOL0     H48429   0.780   6.476  10.456  2.1948 -2.2648  3.0268
  359MOL0     H48430   0.616   6.621  10.580 -0.7719 -0.4076  0.5761
  359MOL0     H48431   0.484   6.827  10.593  0.6300 -0.8732  0.0561
  359MOL0     H48432   0.539   6.755  10.743  0.6435  0.1011 -0.9407
  359MOL0     H48433   0.506   6.938  10.871  1.1342  0.7788 -0.3442
  359MOL0     H48434   0.543   7.051  10.753  1.1462 -0.4742 -0.2777
  359MOL0     H48435   0.307   7.006  10.637 -3.0591 -1.8940 -0.0263
  359MOL0     H48436   0.302   7.044  10.809  0.4074 -0.7183  1.0216
  359MOL0     H48437   0.302   6.763  10.673 -2.7598  0.3472 -1.5830
  359MOL0     H48438   0.320   6.788  10.842 -1.5105  2.3179  1.9759
  359MOL0     H48439   0.113   6.952  10.810  3.7878  0.7694 -0.4362
  359MOL0     H48440   0.068   6.785  10.819  0.1727 -1.5156 -2.7056
  359MOL0     H48441   0.110   6.932  10.548  1.5321 -2.1091 -0.8401
  359MOL0     H48442   0.054   6.767  10.561 -1.1215  1.2243 -2.5853
  359MOL0     H48443  -0.118   6.920  10.503 -2.3133 -0.5040  1.0504
  359MOL0     H48444  -0.105   7.002  10.658 -0.7781  1.5461 -3.4049
  359MOL0     H48445  -0.294   6.843  10.637 -0.2123  0.9404  0.2401
  359MOL0     H48446  -0.196   6.827  10.780  0.1720  3.1088 -0.3544
  359MOL0     H48447   0.922   6.919  10.631  0.1465 -0.8696  3.1590
  359MOL0     H48448   1.094   6.742  10.554  1.0855 -2.5508 -0.6490
  359MOL0     H48449   1.122   6.381  10.234  0.4463 -1.9141 -1.5908
  359MOL0     H48450   1.257   6.226  10.119 -0.1867  0.8527 -0.0775
  359MOL0     H48451   3.550   6.277   9.730 -2.4000  0.7037  1.3494
  359MOL0     H48452   3.777   6.159   9.667  1.9824 -2.9478 -0.1579
  359MOL0     H48453   4.049   5.901   9.558 -1.0153 -2.8396  0.4678
  359MOL0     H48454   4.262   5.864   9.512  1.8788  0.9005  0.6994
  359MOL0     H48455   4.540   5.879   9.753  0.6360  0.0998  1.3223
  359MOL0     H48456   4.569   5.711   9.810  0.4305 -0.1551 -0.6050
  359MOL0     H48457   4.676   5.663   9.597  2.1164 -2.1117  4.1166
  359MOL0     H48458   4.764   5.783   9.688 -1.2138 -0.7358  1.7240
  359MOL0     H48459   4.644   5.966   9.586  0.7329 -0.5795 -0.1041
  359MOL0     H48460   4.537   5.881   9.473  0.4269  2.0240 -2.0922
  359MOL0     H48461   4.709   5.938   9.343 -3.2028 -5.3840 -3.5069
  359MOL0     H48462   4.732   5.771   9.366 -0.7852 -1.5861  1.9601
  359MOL0     H48463   5.087   5.910   9.555 -0.0256 -0.0350 -1.7660
  359MOL0     H48464   4.353   5.685   9.897  0.2014  0.7153  1.0538
  359MOL0     H48465   4.119   5.758   9.969 -2.2524  3.2325  0.8328
  360MOL0     O48466   4.518   6.650  10.799 -0.4845 -0.8855  0.1729
  360MOL0     C48467   4.595   6.710  10.867  0.1054 -0.2301 -0.3408
  360MOL0     O48468   4.570   6.841  10.910  0.2176  0.1680  0.2736
  360MOL0     C48469   4.445   6.895  10.898  0.0086  1.0041  0.7824
  360MOL0     C48470   4.377   6.893  10.774  0.1515  0.6918 -0.3592
  360MOL0     C48471   4.255   6.959  10.764 -0.1105  0.3309  0.0624
  360MOL0     C48472   4.197   7.019  10.874  0.3380  0.2929  0.4401
  360MOL0     O48473   4.069   7.072  10.871  0.5408  0.4497 -0.7755
  360MOL0     C48474   3.984   7.054  10.760  0.0351 -0.8765  0.3590
  360MOL0     C48475   3.863   7.152  10.788  0.2315  0.4690  0.7516
  360MOL0     C48476   3.758   7.138  10.670  0.2796 -0.2138 -0.1849
  360MOL0     C48477   3.626   7.208  10.695 -0.3982  0.5123  0.2908
  360MOL0     C48478   3.518   7.166  10.595 -0.2438 -0.0292  0.3723
  360MOL0     C48479   3.381   7.187  10.652  0.0364 -0.1153 -0.4872
  360MOL0     C48480   3.360   7.335  10.694 -0.4487 -0.8274  0.5743
  360MOL0     C48481   3.320   7.344  10.839 -0.1297 -0.4840 -1.1431
  360MOL0     N48482   3.181   7.309  10.867  0.5587  0.1566  0.4375
  360MOL0     C48483   3.134   7.190  10.915 -0.0549 -0.1752  0.2753
  360MOL0     C48484   3.008   7.209  10.962  0.0982  0.1588 -0.1684
  360MOL0     C48485   2.925   7.099  11.028 -0.4641  0.2966  0.3056
  360MOL0     C48486   2.891   6.989  10.933  0.0260 -0.0261  0.1780
  360MOL0     C48487   2.784   7.034  10.840 -0.1002 -0.2636  0.5954
  360MOL0     C48488   2.655   7.086  10.913 -0.2641  0.0187 -0.3346
  360MOL0     O48489   2.591   6.984  10.993 -0.8637 -0.6076  0.8468
  360MOL0     C48490   2.465   7.006  11.028 -0.4194  0.6029 -1.3575
  360MOL0     C48491   2.387   7.122  11.025 -0.7003  0.7548  0.4502
  360MOL0     C48492   2.254   7.136  11.079  0.6393  0.6266  0.5381
  360MOL0     C48493   2.178   7.269  11.065  0.4879  1.0050 -0.0673
  360MOL0     C48494   2.200   7.020  11.142  0.9287  0.3558 -0.2046
  360MOL0     C48495   2.075   7.026  11.223  0.0253  0.3213 -0.3192
  360MOL0     O48496   2.049   7.146  11.298  0.0662  0.0618  0.3974
  360MOL0     C48497   1.922   7.175  11.344  0.2022  0.1693  0.1206
  360MOL0     C48498   1.839   7.093  11.425  0.6978  0.2069  0.0466
  360MOL0     C48499   1.707   7.132  11.456  0.0485  0.4240 -0.2133
  360MOL0     C48500   1.649   7.249  11.407  0.3262 -0.2061  0.6387
  360MOL0     O48501   1.521   7.287  11.446  0.4099  0.6566  0.2157
  360MOL0     C48502   1.489   7.419  11.488  0.1278  0.2634  1.3003
  360MOL0     C48503   1.346   7.409  11.539  0.3673  0.1555  0.3007
  360MOL0     C48504   1.333   7.352  11.678  0.0337  0.2512  0.0099
  360MOL0     C48505   1.186   7.333  11.721  0.3611 -0.8738  0.1602
  360MOL0     C48506   1.169   7.242  11.843 -0.1666  0.9222  0.2863
  360MOL0     C48507   1.018   7.197  11.852 -0.3595  0.3433 -0.3225
  360MOL0     C48508   0.920   7.311  11.874 -0.3277  0.0638 -0.5138
  360MOL0     C48509   0.777   7.261  11.891 -0.3272  0.8854  0.9230
  360MOL0    Cl48510   0.717   7.176  11.743  0.4592  0.2954 -0.2214
  360MOL0     C48511   1.725   7.329  11.328 -0.9627  0.6093  0.4980
  360MOL0     C48512   1.859   7.294  11.294  0.3303  0.3626 -0.3724
  360MOL0     O48513   2.006   6.923  11.218 -0.1197 -0.1166 -0.1914
  360MOL0     C48514   2.270   6.899  11.121 -0.0541 -0.6532  0.4601
  360MOL0     C48515   2.397   6.894  11.085  0.6523  0.2810  0.3476
  360MOL0     N48516   2.974   7.336  10.934 -0.2862  0.3475  0.0046
  360MOL0     N48517   3.075   7.398  10.882  0.0787  0.0368 -0.4855
  360MOL0     C48518   4.268   7.035  10.990 -0.3113 -0.4862  0.5847
  360MOL0     C48519   4.396   6.979  10.998 -0.4797 -0.4626  0.0608
  360MOL0     C48520   4.728   6.645  10.904 -0.1144 -0.0149  0.3376
  360MOL0     C48521   4.814   6.721  10.983 -0.3873 -0.2195  0.5450
  360MOL0     C48522   4.936   6.679  11.021  0.0154  1.3520 -0.1168
  360MOL0     C48523   4.979   6.553  10.975  0.3349 -0.2196 -0.5156
  360MOL0     O48524   5.114   6.518  10.993 -0.5679 -0.0648  0.2462
  360MOL0     C48525   5.139   6.406  11.081  0.3738 -0.1429 -1.1482
  360MOL0     C48526   5.225   6.308  10.997  0.1632  0.5849  0.4617
  360MOL0     C48527   5.335   6.376  10.918 -0.8996 -0.7310  1.1204
  360MOL0     C48528   5.463   6.294  10.902  0.1891  0.2205  0.0929
  360MOL0     C48529   5.569   6.372  10.841 -0.2249 -0.3533 -0.5585
  360MOL0     C48530   5.670   6.426  10.808 -0.1062  0.7143  0.3114
  360MOL0     C48531   4.890   6.465  10.900 -0.1559 -0.2479 -0.9409
  360MOL0     C48532   4.766   6.517  10.864  0.1313 -0.1723  0.5556
  360MOL0     H48533   4.401   6.841  10.682 -3.6019 -1.1285 -0.4886
  360MOL0     H48534   4.211   6.968  10.665  0.4383  3.4478  0.0148
  360MOL0     H48535   4.027   7.080  10.663  3.0076 -1.6720  1.3602
  360MOL0     H48536   3.952   6.952  10.780 -0.7497 -0.3964  1.6580
  360MOL0     H48537   3.823   7.123  10.885 -1.2446  0.2070  0.0919
  360MOL0     H48538   3.893   7.255  10.808  1.4327  0.2247  0.3154
  360MOL0     H48539   3.803   7.165  10.574 -0.4423  1.7305 -0.0165
  360MOL0     H48540   3.726   7.033  10.664 -0.0291 -0.1194 -0.2117
  360MOL0     H48541   3.604   7.184  10.799 -2.4927  1.4794  0.1118
  360MOL0     H48542   3.643   7.316  10.684  1.8359  0.0832 -1.4155
  360MOL0     H48543   3.508   7.228  10.505 -2.6540 -2.3468 -1.0892
  360MOL0     H48544   3.533   7.063  10.562 -3.6784 -0.0791 -1.4858
  360MOL0     H48545   3.304   7.149  10.583 -0.3696 -0.0615 -0.0676
  360MOL0     H48546   3.387   7.127  10.743  1.6956  0.6361 -0.0716
  360MOL0     H48547   3.445   7.396  10.662 -0.7567 -0.4426  0.4739
  360MOL0     H48548   3.278   7.381  10.638 -0.8788 -0.1228  1.7339
  360MOL0     H48549   3.323   7.443  10.884 -2.1274 -1.5157  1.5046
  360MOL0     H48550   3.385   7.278  10.897 -0.8454 -2.0909 -2.1099
  360MOL0     H48551   3.190   7.097  10.920  0.9920  0.1800 -2.7639
  360MOL0     H48552   2.996   7.048  11.093 -1.1520 -1.2457 -0.1178
  360MOL0     H48553   2.846   7.138  11.092  0.2745  0.6833  0.9914
  360MOL0     H48554   2.866   6.903  10.996 -1.5103  1.9849  2.5173
  360MOL0     H48555   2.978   6.966  10.870 -1.8855 -1.3134 -2.1472
  360MOL0     H48556   2.749   6.946  10.785  0.6926 -0.5636  0.5455
  360MOL0     H48557   2.811   7.118  10.776 -0.2405 -1.3824 -1.0065
  360MOL0     H48558   2.587   7.119  10.834 -2.9303  2.6944  2.7996
  360MOL0     H48559   2.678   7.170  10.979 -1.0817 -0.7578  0.9782
  360MOL0     H48560   2.435   7.206  10.977  1.9769 -0.7357  0.3036
  360MOL0     H48561   2.211   7.313  10.970  1.3936 -1.0557 -0.7792
  360MOL0     H48562   2.069   7.267  11.076  0.4761  1.2004 -0.1517
  360MOL0     H48563   2.224   7.321  11.149 -1.9451 -0.8307  2.6174
  360MOL0     H48564   1.880   6.995  11.446  0.2213 -0.6104 -2.4773
  360MOL0     H48565   1.646   7.064  11.514 -2.2102 -0.9505 -3.8465
  360MOL0     H48566   1.555   7.458  11.567  2.0269  3.4447 -1.5852
  360MOL0     H48567   1.495   7.482  11.399 -2.3498 -0.4395  0.5493
  360MOL0     H48568   1.294   7.505  11.534 -0.1007  0.1144  2.9857
  360MOL0     H48569   1.290   7.340  11.475  3.9598 -2.5806 -0.2112
  360MOL0     H48570   1.392   7.412  11.749  0.6109 -1.8892  1.4346
  360MOL0     H48571   1.380   7.254  11.666  0.3909  0.4009  0.1699
  360MOL0     H48572   1.146   7.431  11.748  1.4127 -0.9472  2.1566
  360MOL0     H48573   1.123   7.308  11.635  0.9695  2.3772 -1.4001
  360MOL0     H48574   1.186   7.297  11.936 -3.3391  0.5334  1.2302
  360MOL0     H48575   1.229   7.151  11.842 -0.6744  0.5263  2.1616
  360MOL0     H48576   0.992   7.146  11.759 -0.4127 -0.5871  0.1816
  360MOL0     H48577   0.995   7.125  11.932 -2.2315  2.6498  1.3633
  360MOL0     H48578   0.921   7.393  11.802  4.1592  0.1354 -0.6723
  360MOL0     H48579   0.949   7.349  11.972 -0.2989 -0.6681 -0.2328
  360MOL0     H48580   0.711   7.347  11.906 -3.4685 -1.2737  0.3602
  360MOL0     H48581   0.779   7.200  11.981 -0.6259  1.5660  1.3982
  360MOL0     H48582   1.671   7.413  11.286 -0.5399  1.2691  1.2540
  360MOL0     H48583   1.927   7.358  11.239  1.5513  0.8679  1.6416
  360MOL0     H48584   2.233   6.802  11.153  0.9458 -0.4062  2.5738
  360MOL0     H48585   2.437   6.794  11.067 -0.9991 -0.2295 -0.8031
  360MOL0     H48586   4.230   7.094  11.072  0.5749  2.5921 -1.0664
  360MOL0     H48587   4.458   6.994  11.086  0.7907 -0.8817 -0.7458
  360MOL0     H48588   4.785   6.823  11.005  0.2175  0.5096 -1.6845
  360MOL0     H48589   5.008   6.744  11.071  1.4640  0.1146 -0.5355
  360MOL0     H48590   5.207   6.429  11.164  0.2346 -1.7013 -0.5883
  360MOL0     H48591   5.051   6.356  11.121 -0.1641  0.9176 -0.9779
  360MOL0     H48592   5.164   6.247  10.930 -1.5202  3.6111 -0.9687
  360MOL0     H48593   5.271   6.240  11.069  1.3663  0.6571 -0.2100
  360MOL0     H48594   5.363   6.468  10.970 -4.7414  1.4025 -0.1914
  360MOL0     H48595   5.300   6.404  10.818 -2.8895  0.9877  2.2380
  360MOL0     H48596   5.441   6.214  10.831  1.2751 -0.0660  0.0536
  360MOL0     H48597   5.495   6.262  11.002 -0.6054 -0.4132  0.1530
  360MOL0     H48598   5.767   6.464  10.782  1.4391 -0.8580  3.3023
  360MOL0     H48599   4.916   6.364  10.869 -3.0253 -0.8525 -1.7170
  360MOL0     H48600   4.701   6.455  10.802 -0.7353 -0.8521  2.0959
  361MOL0     O48601  11.330   2.338   3.857 -0.1511 -0.2062 -0.2306
  361MOL0     C48602  11.357   2.226   3.820 -0.7819  0.4161  0.4037
  361MOL0     O48603  11.269   2.121   3.795 -0.1944 -0.3799 -0.3543
  361MOL0     C48604  11.133   2.138   3.804 -0.0138  0.2159 -0.0509
  361MOL0     C48605  11.054   2.031   3.853 -0.1529  0.4906  0.2533
  361MOL0     C48606  10.916   2.047   3.875 -0.5412 -0.8567 -0.4497
  361MOL0     C48607  10.854   2.171   3.838 -1.3006  0.1881 -0.7046
  361MOL0     O48608  10.725   2.184   3.871  1.2803 -0.3147 -0.4576
  361MOL0     C48609  10.699   2.290   3.969 -0.5103 -0.0617 -0.5015
  361MOL0     C48610  10.609   2.391   3.916  1.0756 -0.8447 -0.1824
  361MOL0     C48611  10.470   2.338   3.851  0.9687  0.3729  0.0553
  361MOL0     C48612  10.400   2.230   3.936 -0.4899 -0.5649 -0.0431
  361MOL0     C48613  10.262   2.196   3.881  0.2297 -0.0465 -0.7099
  361MOL0     C48614  10.176   2.103   3.971 -0.4467 -0.3864 -0.7936
  361MOL0     C48615  10.041   2.068   3.895 -0.1638 -0.2194 -0.2808
  361MOL0     C48616  10.047   1.931   3.817  0.4843 -0.9906 -0.6196
  361MOL0     N48617  10.107   1.815   3.892  0.6915  0.8252  1.0567
  361MOL0     C48618  10.049   1.724   3.978  0.1163  0.3056  0.7804
  361MOL0     C48619  10.148   1.637   4.009  0.0647 -0.1663  0.0807
  361MOL0     C48620  10.137   1.509   4.089  0.2791  0.4966 -0.4850
  361MOL0     C48621  10.066   1.505   4.229 -0.8878  0.3714 -0.5318
  361MOL0     C48622  10.076   1.373   4.317  0.3331  0.4531  0.1698
  361MOL0     C48623  10.024   1.392   4.457 -0.1202 -0.3303 -0.4544
  361MOL0     O48624   9.968   1.275   4.526 -0.6658  0.5375  0.8039
  361MOL0     C48625   9.840   1.282   4.569 -1.0042  0.4963  0.2619
  361MOL0     C48626   9.826   1.302   4.706  0.2453  0.1349 -0.4733
  361MOL0     C48627   9.701   1.281   4.762 -0.0894  0.0396  0.1018
  361MOL0     C48628   9.704   1.301   4.916 -0.2259  0.4985  0.3046
  361MOL0     C48629   9.582   1.268   4.687  0.6871  0.0253  0.1459
  361MOL0     C48630   9.440   1.273   4.738  0.0780 -0.2996 -0.3090
  361MOL0     O48631   9.343   1.285   4.639  0.0976  0.3354  0.3859
  361MOL0     C48632   9.211   1.305   4.665  0.0808  0.1862 -0.0357
  361MOL0     C48633   9.119   1.205   4.622 -0.7292  0.1652 -1.1443
  361MOL0     C48634   8.987   1.222   4.666 -0.3990  0.1620 -0.0046
  361MOL0     C48635   8.943   1.334   4.738  0.3590 -0.7728  1.1170
  361MOL0     O48636   8.812   1.356   4.769 -0.5953 -0.0713 -0.6667
  361MOL0     C48637   8.724   1.396   4.664  0.3815 -0.0213  0.6733
  361MOL0     C48638   8.600   1.475   4.713  0.5615  0.1095  0.1276
  361MOL0     C48639   8.527   1.402   4.821  0.6680 -0.3518 -0.2874
  361MOL0     C48640   8.382   1.427   4.827  0.3646  0.0290 -0.7475
  361MOL0     C48641   8.283   1.317   4.883 -0.2616  0.7567 -0.0425
  361MOL0     C48642   8.139   1.368   4.908 -0.1576  0.4370 -0.2908
  361MOL0     C48643   8.066   1.245   4.974  0.1057  0.8885  1.0432
  361MOL0     C48644   7.917   1.283   4.982 -0.0526 -0.4871  0.1083
  361MOL0    Cl48645   7.893   1.417   5.092  0.2276 -0.0666  0.3967
  361MOL0     C48646   9.034   1.430   4.772  1.0151  0.0797  1.2415
  361MOL0     C48647   9.170   1.419   4.732 -0.1999 -0.8693  0.0975
  361MOL0     O48648   9.414   1.266   4.858  0.8791  0.0473 -0.3742
  361MOL0     C48649   9.607   1.234   4.549  0.4647  0.7031 -0.6608
  361MOL0     C48650   9.734   1.240   4.493 -0.0302  0.0608 -0.4607
  361MOL0     N48651  10.270   1.690   3.954 -0.9300  0.7875  0.4871
  361MOL0     N48652  10.242   1.785   3.883  0.2776 -0.0941 -0.2395
  361MOL0     C48653  10.934   2.267   3.777  0.3128  0.0339  0.0881
  361MOL0     C48654  11.069   2.250   3.756 -0.1689 -0.6742 -0.5102
  361MOL0     C48655  11.503   2.220   3.795  1.3667  0.0432  0.7409
  361MOL0     C48656  11.542   2.131   3.697 -1.0029  0.7595  0.9549
  361MOL0     C48657  11.680   2.120   3.667 -0.3715 -0.0124 -0.2962
  361MOL0     C48658  11.778   2.186   3.744  0.3332  0.4027  0.6815
  361MOL0     O48659  11.914   2.181   3.735  0.3479 -0.5911  0.3423
  361MOL0     C48660  11.971   2.139   3.611  0.0398  0.8562 -0.1978
  361MOL0     C48661  12.118   2.165   3.587  0.2717 -0.2190  1.2950
  361MOL0     C48662  12.170   2.093   3.463  0.2528  0.4744  0.3821
  361MOL0     C48663  12.104   2.144   3.329 -0.3519 -0.3559  0.7402
  361MOL0     C48664  11.978   2.078   3.301  0.4298 -0.0124 -0.3039
  361MOL0     C48665  11.867   2.031   3.274  0.4862 -1.1307 -1.2232
  361MOL0     C48666  11.743   2.278   3.835 -0.2282 -0.3139  0.7594
  361MOL0     C48667  11.601   2.300   3.858  0.5956 -0.3250  0.4982
  361MOL0     H48668  11.116   1.942   3.863 -1.7727 -1.0319 -2.1860
  361MOL0     H48669  10.869   1.964   3.926  2.2811 -1.4769  1.4094
  361MOL0     H48670  10.656   2.239   4.055 -0.1477 -0.4763 -0.5626
  361MOL0     H48671  10.788   2.341   4.008  0.6721 -2.2490 -0.1894
  361MOL0     H48672  10.585   2.466   3.992 -1.7957 -2.3377  0.5180
  361MOL0     H48673  10.655   2.441   3.830  1.8226 -1.2668 -0.0348
  361MOL0     H48674  10.406   2.422   3.822  1.5425  0.8196  0.0644
  361MOL0     H48675  10.482   2.290   3.753 -0.7799 -1.0060  0.4636
  361MOL0     H48676  10.466   2.143   3.947 -0.0840 -0.1972  0.4647
  361MOL0     H48677  10.387   2.266   4.038 -0.1353 -2.1508  0.5979
  361MOL0     H48678  10.218   2.296   3.873  0.2381  0.1050  0.8246
  361MOL0     H48679  10.280   2.146   3.786  0.7050 -2.3730  0.5156
  361MOL0     H48680  10.233   2.012   3.992  0.3820  0.3975  0.5105
  361MOL0     H48681  10.166   2.145   4.071 -0.7908  0.2213 -1.0797
  361MOL0     H48682   9.956   2.077   3.963  0.8703 -0.4521  1.0856
  361MOL0     H48683  10.026   2.140   3.814  0.0287  0.2702  0.1213
  361MOL0     H48684  10.119   1.949   3.737 -0.9620 -0.2614 -1.8024
  361MOL0     H48685   9.949   1.901   3.779  0.2263 -2.9458  1.4170
  361MOL0     H48686   9.944   1.708   3.998  0.1123  1.5218  1.7976
  361MOL0     H48687  10.074   1.437   4.034 -0.7632 -0.2618  1.5946
  361MOL0     H48688  10.229   1.451   4.097 -1.7034 -2.8072  0.6426
  361MOL0     H48689   9.961   1.536   4.217 -0.7831  0.3807 -1.4753
  361MOL0     H48690  10.114   1.586   4.284 -2.1375  0.0130  1.1691
  361MOL0     H48691  10.174   1.324   4.316 -0.5451 -1.5409 -3.1287
  361MOL0     H48692  10.010   1.303   4.264  2.2428  0.5377 -2.5719
  361MOL0     H48693   9.948   1.469   4.445  0.2186  0.2282  0.7692
  361MOL0     H48694  10.107   1.426   4.519 -1.3889 -1.8276  2.2778
  361MOL0     H48695   9.912   1.332   4.765  1.3946 -0.3651 -1.8315
  361MOL0     H48696   9.805   1.277   4.951 -0.4356 -0.1850  0.4518
  361MOL0     H48697   9.667   1.401   4.942 -0.0225  0.1889  1.8959
  361MOL0     H48698   9.646   1.227   4.972 -0.4942 -0.1027 -0.7437
  361MOL0     H48699   9.154   1.121   4.563  1.7561  1.6222 -1.9441
  361MOL0     H48700   8.911   1.146   4.654  0.7804 -1.3613  1.6079
  361MOL0     H48701   8.784   1.455   4.595  0.2015  0.3465  0.8300
  361MOL0     H48702   8.678   1.313   4.609 -0.9475  1.8833 -1.2650
  361MOL0     H48703   8.644   1.568   4.748 -0.4632  0.4904  0.4322
  361MOL0     H48704   8.528   1.503   4.636  0.4740  1.9688  0.8487
  361MOL0     H48705   8.569   1.432   4.918  2.5288 -2.7174 -0.2742
  361MOL0     H48706   8.544   1.295   4.803  1.4818 -0.0014 -1.8423
  361MOL0     H48707   8.381   1.510   4.899  0.1576 -1.4211  0.9946
  361MOL0     H48708   8.343   1.460   4.730  0.7417 -0.3961 -1.0457
  361MOL0     H48709   8.336   1.282   4.972 -0.7898  0.1678  0.0534
  361MOL0     H48710   8.273   1.238   4.808  1.7614  0.3954  0.0103
  361MOL0     H48711   8.130   1.456   4.972  1.4926  1.6423 -1.6258
  361MOL0     H48712   8.097   1.405   4.814 -1.6490 -0.2126  0.1011
  361MOL0     H48713   8.106   1.220   5.072 -3.1784  0.2174  2.3442
  361MOL0     H48714   8.082   1.155   4.914  0.2492  0.5864  1.5340
  361MOL0     H48715   7.860   1.195   5.013  1.0472 -1.1056  0.4287
  361MOL0     H48716   7.872   1.312   4.886 -2.4799 -0.9587  1.0284
  361MOL0     H48717   9.001   1.522   4.821 -1.2046  1.9221 -3.1401
  361MOL0     H48718   9.246   1.496   4.738 -0.8946 -0.0233 -1.3959
  361MOL0     H48719   9.527   1.209   4.481 -1.1296  1.1567  0.9708
  361MOL0     H48720   9.744   1.220   4.387  1.0913  2.3252 -0.8603
  361MOL0     H48721  10.897   2.360   3.736  1.1802 -0.1155 -1.1111
  361MOL0     H48722  11.120   2.339   3.721 -2.8647  1.2034 -0.0092
  361MOL0     H48723  11.470   2.072   3.641  1.9867 -0.5181 -1.8783
  361MOL0     H48724  11.711   2.052   3.589  0.9882  0.9629 -0.6555
  361MOL0     H48725  11.948   2.032   3.607 -1.9518  1.2128  0.5912
  361MOL0     H48726  11.914   2.188   3.531 -1.8313  1.1362  1.2318
  361MOL0     H48727  12.177   2.126   3.672  0.6075 -1.7303  0.4132
  361MOL0     H48728  12.132   2.272   3.569 -0.8387 -0.2522  0.1462
  361MOL0     H48729  12.146   1.987   3.467 -0.9116  0.7126  0.1138
  361MOL0     H48730  12.276   2.113   3.443 -0.1153  0.2408 -2.1451
  361MOL0     H48731  12.164   2.124   3.239  0.8031 -1.3426  1.6996
  361MOL0     H48732  12.100   2.254   3.331  2.0549 -0.2125  2.8833
  361MOL0     H48733  11.765   1.999   3.263 -0.4026  0.7280  0.8835
  361MOL0     H48734  11.826   2.333   3.878 -0.4242  0.7191 -0.1369
  361MOL0     H48735  11.567   2.370   3.934 -1.4868  0.4633 -1.0692
  362MOL0     O48736   4.024   5.070   3.471  0.0322 -0.1069  0.0001
  362MOL0     C48737   3.978   5.018   3.569  0.3214  0.1184 -0.4218
  362MOL0     O48738   3.843   5.011   3.590  0.4422 -0.4089 -1.2856
  362MOL0     C48739   3.757   4.990   3.489 -0.0745  0.1621 -0.2870
  362MOL0     C48740   3.633   5.046   3.481 -0.3485  0.0034  0.1418
  362MOL0     C48741   3.540   5.019   3.381  0.5093 -0.1313 -0.1079
  362MOL0     C48742   3.564   4.921   3.291  0.6832  0.3525 -0.2862
  362MOL0     O48743   3.460   4.880   3.205  0.7543 -1.0724 -0.3659
  362MOL0     C48744   3.481   4.753   3.141  0.2708 -0.0169  0.3537
  362MOL0     C48745   3.342   4.706   3.081  0.3491 -0.2552 -0.2700
  362MOL0     C48746   3.326   4.556   3.117  0.4426  0.5816  0.7765
  362MOL0     C48747   3.435   4.474   3.041  0.3892  1.0187  0.4162
  362MOL0     C48748   3.426   4.323   3.082  0.1624 -0.8243 -0.4757
  362MOL0     C48749   3.542   4.243   3.035 -0.1312 -0.2149  0.5841
  362MOL0     C48750   3.535   4.101   3.089  0.1404  0.6695  0.2435
  362MOL0     C48751   3.659   4.014   3.040  0.7233  0.4039 -1.4670
  362MOL0     N48752   3.794   4.068   3.082 -0.5041 -0.1170 -0.4408
  362MOL0     C48753   3.844   4.075   3.214  0.4176 -0.6809 -0.6804
  362MOL0     C48754   3.968   4.121   3.212  0.6825 -1.4848 -0.3628
  362MOL0     C48755   4.067   4.164   3.317  0.6760  0.5319 -0.1047
  362MOL0     C48756   4.166   4.040   3.344 -0.4268  0.1480 -0.5131
  362MOL0     C48757   4.285   4.030   3.250  1.0105  0.6004  0.0557
  362MOL0     C48758   4.386   4.141   3.261 -1.0529 -0.2546  0.1209
  362MOL0     O48759   4.464   4.129   3.381 -0.1997  0.5760 -1.1020
  362MOL0     C48760   4.599   4.151   3.372  0.4602 -0.7957 -0.1103
  362MOL0     C48761   4.651   4.255   3.297  0.2735  0.3042 -0.7415
  362MOL0     C48762   4.792   4.290   3.299 -0.3120 -0.1680  0.4643
  362MOL0     C48763   4.832   4.391   3.191 -0.1915 -0.3752 -0.2504
  362MOL0     C48764   4.876   4.224   3.389  0.1343  0.2351 -0.7671
  362MOL0     C48765   5.012   4.251   3.413 -1.0222  0.5907  0.1918
  362MOL0     O48766   5.064   4.214   3.531 -0.4243  0.0590 -0.2608
  362MOL0     C48767   5.195   4.243   3.567 -0.1675 -0.0277  0.7113
  362MOL0     C48768   5.223   4.271   3.704 -1.0589  0.3106 -0.0267
  362MOL0     C48769   5.351   4.298   3.750  0.2361  0.0444  0.4113
  362MOL0     C48770   5.453   4.305   3.656 -0.3864  0.3188 -0.7798
  362MOL0     O48771   5.585   4.339   3.678  0.5241  0.4068  0.1726
  362MOL0     C48772   5.633   4.324   3.809 -0.2368 -0.1454  0.1152
  362MOL0     C48773   5.789   4.315   3.807 -0.4803  0.0094  0.3408
  362MOL0     C48774   5.853   4.359   3.943 -0.3375  0.8774 -0.1421
  362MOL0     C48775   5.999   4.404   3.925  0.0724  0.6195  0.6732
  362MOL0     C48776   6.082   4.304   3.851 -0.0301  0.0450  0.0829
  362MOL0     C48777   6.232   4.307   3.887  0.1836  0.2669 -0.4307
  362MOL0     C48778   6.273   4.219   4.002  0.1310 -0.2778  0.0010
  362MOL0     C48779   6.428   4.236   4.040 -0.1776 -0.3255 -0.3998
  362MOL0    Cl48780   6.492   4.129   4.160 -0.0346  0.1033 -0.1825
  362MOL0     C48781   5.433   4.269   3.521 -0.4008 -0.2068  0.0068
  362MOL0     C48782   5.304   4.233   3.480 -0.9205  0.4850  0.3773
  362MOL0     O48783   5.080   4.307   3.324  0.1141 -0.2057  0.1393
  362MOL0     C48784   4.812   4.123   3.471 -0.2161 -0.4206 -0.2457
  362MOL0     C48785   4.688   4.085   3.457 -0.0633  0.2611  0.0180
  362MOL0     N48786   3.989   4.146   3.080  0.8442 -0.0789 -0.4972
  362MOL0     N48787   3.895   4.110   3.006 -0.2734  0.4594 -0.5737
  362MOL0     C48788   3.690   4.862   3.296 -0.7927  0.0571  0.8196
  362MOL0     C48789   3.785   4.895   3.390  0.0902  0.2073  0.6528
  362MOL0     C48790   4.080   4.973   3.670  0.8087  1.1230  0.1636
  362MOL0     C48791   4.047   4.935   3.798  0.0259  0.0006  0.3917
  362MOL0     C48792   4.139   4.877   3.889  0.6137 -0.9813 -0.2076
  362MOL0     C48793   4.272   4.857   3.852 -0.2856  0.4213  0.3479
  362MOL0     O48794   4.352   4.806   3.947 -0.5557  0.0616 -0.3160
  362MOL0     C48795   4.490   4.806   3.934 -0.4116 -0.0730 -0.4385
  362MOL0     C48796   4.550   4.947   3.945 -0.2444  0.6982 -1.1433
  362MOL0     C48797   4.698   4.963   3.938 -0.0758 -1.8899 -0.3131
  362MOL0     C48798   4.764   4.892   4.067  0.3608 -0.2823  0.1775
  362MOL0     C48799   4.911   4.921   4.058  1.3743  0.0282  0.5982
  362MOL0     C48800   5.025   4.960   4.051  0.2740 -0.0013  0.7895
  362MOL0     C48801   4.308   4.883   3.719  0.1306 -0.6624  0.2638
  362MOL0     C48802   4.209   4.947   3.636 -0.7769  0.6709 -0.6628
  362MOL0     H48803   3.613   5.115   3.563  1.7228 -0.5369  1.1674
  362MOL0     H48804   3.444   5.069   3.382 -0.4622 -1.8603 -1.7157
  362MOL0     H48805   3.551   4.763   3.058 -0.4956  0.1227 -0.2934
  362MOL0     H48806   3.530   4.681   3.208  2.4889  0.2828 -0.8593
  362MOL0     H48807   3.260   4.763   3.125 -0.1293  0.0799 -1.5316
  362MOL0     H48808   3.335   4.717   2.972 -1.2228 -0.3634 -0.1988
  362MOL0     H48809   3.339   4.540   3.224  3.2049  1.1586  0.6211
  362MOL0     H48810   3.226   4.523   3.088  0.0081  0.5363  2.2672
  362MOL0     H48811   3.429   4.488   2.933  0.1135  0.0007  0.2894
  362MOL0     H48812   3.531   4.515   3.072  1.2483 -0.9745  0.5230
  362MOL0     H48813   3.415   4.320   3.191  0.9336 -0.0492 -0.3714
  362MOL0     H48814   3.329   4.278   3.056 -0.4472 -0.1214  0.5444
  362MOL0     H48815   3.540   4.235   2.926  1.4704  0.2336  0.4990
  362MOL0     H48816   3.632   4.295   3.069  0.7770 -1.2679 -0.1100
  362MOL0     H48817   3.548   4.092   3.197 -1.8750  0.6149  0.5204
  362MOL0     H48818   3.440   4.055   3.064 -0.8288  3.1973 -1.1268
  362MOL0     H48819   3.664   3.987   2.934 -0.0495  1.8583 -1.9041
  362MOL0     H48820   3.639   3.922   3.096  0.8564  1.2478  0.0136
  362MOL0     H48821   3.780   4.036   3.293 -3.0823  0.3200 -2.7946
  362MOL0     H48822   4.119   4.254   3.284 -0.3217  1.5526  1.0069
  362MOL0     H48823   4.008   4.188   3.406 -1.0457 -1.4706 -0.6348
  362MOL0     H48824   4.118   3.942   3.339  1.0820 -0.8513  2.2163
  362MOL0     H48825   4.200   4.054   3.447  0.3497 -3.9901 -0.0467
  362MOL0     H48826   4.252   4.017   3.146  2.1312  1.4904 -0.4293
  362MOL0     H48827   4.331   3.937   3.281 -0.0529 -0.0831 -0.3356
  362MOL0     H48828   4.339   4.240   3.257  0.3538  0.4180 -0.3134
  362MOL0     H48829   4.451   4.129   3.174  1.1366  0.4855  1.5797
  362MOL0     H48830   4.581   4.317   3.242 -0.3570  1.7782  1.5803
  362MOL0     H48831   4.868   4.343   3.100 -2.5381  0.5406 -1.7322
  362MOL0     H48832   4.746   4.441   3.147  0.0643 -0.5478 -0.9521
  362MOL0     H48833   4.898   4.472   3.221 -1.0188 -0.0437  0.7471
  362MOL0     H48834   5.135   4.295   3.763  0.3260  3.2782  1.0455
  362MOL0     H48835   5.370   4.336   3.850  1.3094  0.9078 -0.1069
  362MOL0     H48836   5.606   4.412   3.869  0.9478  0.2797  0.0483
  362MOL0     H48837   5.583   4.236   3.851 -0.4810  0.2923  0.7570
  362MOL0     H48838   5.812   4.209   3.795 -2.4633 -0.4426  0.2802
  362MOL0     H48839   5.828   4.377   3.726  0.8194  0.7488  1.4873
  362MOL0     H48840   5.851   4.271   4.009  0.7574 -0.9531 -2.4072
  362MOL0     H48841   5.796   4.438   3.993  0.8742  1.0671  0.9918
  362MOL0     H48842   6.000   4.491   3.858 -1.0724  0.5651  0.5761
  362MOL0     H48843   6.042   4.430   4.022  2.0170 -1.3363  0.4133
  362MOL0     H48844   6.072   4.328   3.745  1.5823 -3.4241 -1.0143
  362MOL0     H48845   6.042   4.203   3.869 -0.8183  0.4820  0.8557
  362MOL0     H48846   6.291   4.277   3.800  0.6798  1.3134 -0.4662
  362MOL0     H48847   6.253   4.412   3.910 -2.2476  0.7720 -0.2506
  362MOL0     H48848   6.254   4.114   3.980 -0.4609 -0.0510 -0.6219
  362MOL0     H48849   6.215   4.250   4.089 -1.0253 -2.0497 -0.0907
  362MOL0     H48850   6.440   4.340   4.071  0.1542 -0.7892  1.1330
  362MOL0     H48851   6.494   4.223   3.954 -0.2782 -0.8243 -0.4028
  362MOL0     H48852   5.512   4.289   3.451 -1.6831  1.9335 -0.9268
  362MOL0     H48853   5.294   4.200   3.377  0.0473 -2.8768  1.2051
  362MOL0     H48854   4.863   4.057   3.541 -2.1252 -0.4747  1.1829
  362MOL0     H48855   4.638   4.006   3.512 -2.8144  0.0477 -2.5757
  362MOL0     H48856   3.721   4.770   3.247 -0.0376 -0.7421  2.6725
  362MOL0     H48857   3.879   4.840   3.392 -0.0248 -0.1851 -1.8007
  362MOL0     H48858   3.941   4.933   3.823 -0.1815 -0.2008 -0.4705
  362MOL0     H48859   4.115   4.859   3.994  0.2435 -3.0309 -0.6037
  362MOL0     H48860   4.533   4.730   4.000 -1.8224  0.0504  0.6769
  362MOL0     H48861   4.518   4.775   3.833  1.5603 -1.6907  0.5379
  362MOL0     H48862   4.520   4.980   4.044 -3.0838  0.4743 -1.8494
  362MOL0     H48863   4.496   5.007   3.872  0.4847  1.4926 -1.0481
  362MOL0     H48864   4.708   5.072   3.942  1.8303 -2.0568  1.6374
  362MOL0     H48865   4.731   4.928   3.839  1.5932  2.3543 -1.5010
  362MOL0     H48866   4.758   4.783   4.069  2.3506 -0.4298 -0.0313
  362MOL0     H48867   4.719   4.935   4.157  2.2971 -1.2891  1.7059
  362MOL0     H48868   5.126   4.995   4.054  0.7058 -0.8756 -1.6122
  362MOL0     H48869   4.402   4.860   3.670 -0.1604 -1.1187 -0.0945
  362MOL0     H48870   4.245   4.965   3.536 -0.5494  1.1573 -0.4955
  363MOL0     O48871   0.485   8.664   4.127  0.3550  0.3236  0.5375
  363MOL0     C48872   0.540   8.656   4.018  0.7489  0.6651 -0.2067
  363MOL0     O48873   0.497   8.709   3.902  0.8475  0.0429  0.0984
  363MOL0     C48874   0.383   8.775   3.880  1.3608 -0.5964 -0.9643
  363MOL0     C48875   0.267   8.736   3.944 -0.0875  0.8180 -0.1947
  363MOL0     C48876   0.149   8.813   3.927 -0.3686  0.7359 -0.2421
  363MOL0     C48877   0.151   8.911   3.824  0.0969  0.5556  1.3296
  363MOL0     O48878   0.038   8.983   3.820 -1.0290 -0.2158  0.4445
  363MOL0     C48879   0.070   9.127   3.832  0.2166 -0.3478  1.1161
  363MOL0     C48880  -0.023   9.190   3.931  0.3558 -0.1185  0.4518
  363MOL0     C48881  -0.155   9.240   3.871  1.0910 -0.5083  0.2982
  363MOL0     C48882  -0.256   9.320   3.958  0.9129  0.1835  0.2982
  363MOL0     C48883  -0.378   9.367   3.877  0.3779  0.3984  0.3350
  363MOL0     C48884  -0.447   9.279   3.766  0.1953 -0.3413 -0.4205
  363MOL0     C48885  -0.493   9.145   3.832  0.5640 -0.4058 -0.0913
  363MOL0     C48886  -0.604   9.066   3.765 -0.6195 -0.2875  0.2009
  363MOL0     N48887  -0.608   8.925   3.796 -0.5596 -0.1610 -0.4641
  363MOL0     C48888  -0.533   8.832   3.724 -0.4947 -0.2716  0.5746
  363MOL0     C48889  -0.569   8.716   3.773  0.7600  0.0676  0.4552
  363MOL0     C48890  -0.525   8.571   3.736 -0.3109 -0.4094 -0.1695
  363MOL0     C48891  -0.644   8.470   3.727  1.0783 -0.1582  0.3218
  363MOL0     C48892  -0.608   8.347   3.647 -0.2968 -1.2993  0.2143
  363MOL0     C48893  -0.516   8.252   3.714  0.0498 -0.4302 -0.2004
  363MOL0     O48894  -0.494   8.140   3.629  0.4454  0.5229 -0.4234
  363MOL0     C48895  -0.429   8.023   3.675  0.0996 -0.4527 -0.3787
  363MOL0     C48896  -0.432   7.906   3.595 -1.1496  0.3306  0.3363
  363MOL0     C48897  -0.368   7.789   3.637 -0.3866 -0.4077 -0.1551
  363MOL0     C48898  -0.366   7.683   3.539 -0.2298  0.2388 -0.1249
  363MOL0     C48899  -0.294   7.797   3.760  0.1501 -0.0596 -0.2435
  363MOL0     C48900  -0.202   7.680   3.807  0.6232  0.4646  0.9270
  363MOL0     O48901  -0.198   7.557   3.742 -0.0272 -0.0294  0.0900
  363MOL0     C48902  -0.093   7.473   3.762 -0.9177  0.7422 -0.4648
  363MOL0     C48903  -0.048   7.422   3.890 -0.2360  1.0290  0.5595
  363MOL0     C48904   0.060   7.327   3.897  0.5013 -0.5402 -0.0894
  363MOL0     C48905   0.123   7.289   3.778  0.3122  0.5611  0.1895
  363MOL0     O48906   0.217   7.188   3.779 -0.3256  0.1204 -0.0328
  363MOL0     C48907   0.358   7.229   3.750 -0.3757 -0.8673 -0.3662
  363MOL0     C48908   0.451   7.119   3.796  0.1339 -0.0408  0.4492
  363MOL0     C48909   0.481   7.090   3.948 -0.3072  0.0231 -0.4449
  363MOL0     C48910   0.356   7.040   4.020  0.6161  0.6367  0.1327
  363MOL0     C48911   0.378   7.036   4.173  0.2525 -0.0513 -0.7903
  363MOL0     C48912   0.492   6.946   4.224 -0.5824  0.7147  1.3501
  363MOL0     C48913   0.492   6.940   4.371 -0.4620 -0.2756  0.0437
  363MOL0     C48914   0.592   6.838   4.425  0.3504 -0.7034  0.2287
  363MOL0    Cl48915   0.753   6.921   4.405 -0.0064  0.1497 -0.0056
  363MOL0     C48916   0.087   7.344   3.655  0.2776  1.2419 -0.9686
  363MOL0     C48917  -0.013   7.441   3.651 -0.3370 -0.4165  0.5058
  363MOL0     O48918  -0.150   7.702   3.912 -0.1665  0.3798  0.2387
  363MOL0     C48919  -0.294   7.916   3.841  0.2148 -1.2156 -0.8565
  363MOL0     C48920  -0.361   8.027   3.798  0.3310 -0.1433  0.1523
  363MOL0     N48921  -0.682   8.732   3.854 -0.5439 -0.6581  0.1069
  363MOL0     N48922  -0.697   8.863   3.876 -0.0461  0.3157  0.2265
  363MOL0     C48923   0.263   8.935   3.743  0.2561 -0.7042 -0.3552
  363MOL0     C48924   0.381   8.877   3.787 -0.6308 -0.4206  0.3583
  363MOL0     C48925   0.669   8.588   4.023  0.5543 -0.6684  0.5144
  363MOL0     C48926   0.750   8.591   3.915 -0.1546 -0.6759  0.2443
  363MOL0     C48927   0.880   8.538   3.919 -0.0423 -0.3384  0.2184
  363MOL0     C48928   0.923   8.467   4.035 -0.0285 -0.4336 -0.1972
  363MOL0     O48929   1.046   8.418   4.056 -0.2729 -0.0443  0.0730
  363MOL0     C48930   1.152   8.476   3.985 -0.2341  0.2188 -1.2176
  363MOL0     C48931   1.282   8.426   4.053 -0.5851  0.1554 -0.0045
  363MOL0     C48932   1.412   8.499   3.999 -0.3544  0.2792  0.2171
  363MOL0     C48933   1.476   8.451   3.873 -0.0044 -0.1585  0.3186
  363MOL0     C48934   1.401   8.510   3.761 -0.1745 -0.3796  0.1297
  363MOL0     C48935   1.319   8.547   3.669  0.0762  0.4782 -0.1458
  363MOL0     C48936   0.832   8.445   4.144 -0.8779  0.6171 -0.0243
  363MOL0     C48937   0.705   8.508   4.135  0.2028  0.4078  0.0252
  363MOL0     H48938   0.250   8.652   4.010 -0.5449 -2.3032 -3.8829
  363MOL0     H48939   0.061   8.792   3.986 -1.7009 -0.3121 -2.4455
  363MOL0     H48940   0.173   9.156   3.849  0.0432  2.1809 -1.3849
  363MOL0     H48941   0.056   9.169   3.732  0.7138  1.9947  1.9909
  363MOL0     H48942  -0.039   9.131   4.021 -0.5310  1.0193  1.0715
  363MOL0     H48943   0.033   9.281   3.953  2.6692 -0.3924 -3.3645
  363MOL0     H48944  -0.128   9.319   3.799  0.3252 -0.0820  0.4678
  363MOL0     H48945  -0.205   9.157   3.821  1.5188 -0.8190  0.3819
  363MOL0     H48946  -0.292   9.248   4.032 -1.2875  2.0761  1.2198
  363MOL0     H48947  -0.207   9.402   4.013  2.9462 -1.6765  1.4490
  363MOL0     H48948  -0.460   9.403   3.940  0.0741  0.1236  0.0996
  363MOL0     H48949  -0.339   9.464   3.844  1.9478  0.9621  3.4693
  363MOL0     H48950  -0.533   9.331   3.723  0.5815 -0.8581 -1.8623
  363MOL0     H48951  -0.380   9.258   3.682 -0.1633  0.1319 -0.8325
  363MOL0     H48952  -0.408   9.078   3.848  2.0052  1.0918 -1.0918
  363MOL0     H48953  -0.533   9.175   3.929 -0.4122  2.0923 -1.1667
  363MOL0     H48954  -0.602   9.078   3.656 -1.6231 -0.6673  0.1266
  363MOL0     H48955  -0.702   9.110   3.787 -0.7167  1.4322 -2.9942
  363MOL0     H48956  -0.471   8.850   3.637  2.3318 -2.8604  1.8889
  363MOL0     H48957  -0.483   8.587   3.636  1.6993  2.8915  1.0528
  363MOL0     H48958  -0.459   8.522   3.808 -0.0546 -0.2600 -0.3010
  363MOL0     H48959  -0.726   8.522   3.677 -1.3217  0.8647  4.8344
  363MOL0     H48960  -0.689   8.437   3.821  2.2632 -2.3055  0.2085
  363MOL0     H48961  -0.562   8.388   3.556  1.8534 -2.6002  0.6518
  363MOL0     H48962  -0.697   8.289   3.620 -0.8458 -0.2523 -0.2776
  363MOL0     H48963  -0.551   8.218   3.811  1.8213  0.5853  0.8484
  363MOL0     H48964  -0.421   8.306   3.723  0.7256 -0.8499 -3.4929
  363MOL0     H48965  -0.477   7.913   3.497 -1.7877 -3.3911  0.2027
  363MOL0     H48966  -0.264   7.647   3.523  0.3657  2.7634 -2.9915
  363MOL0     H48967  -0.430   7.596   3.557 -0.8600  0.8656  0.7155
  363MOL0     H48968  -0.401   7.727   3.445  0.9545  0.6027 -0.4029
  363MOL0     H48969  -0.114   7.447   3.972  1.2932 -1.6193  2.7703
  363MOL0     H48970   0.095   7.283   3.989 -2.6814 -1.9062  0.6076
  363MOL0     H48971   0.366   7.243   3.642  0.7036  0.4780 -0.1293
  363MOL0     H48972   0.368   7.323   3.804 -0.2310 -2.3481  2.3899
  363MOL0     H48973   0.409   7.028   3.752  0.9219  0.0092 -0.4220
  363MOL0     H48974   0.550   7.135   3.753 -1.0220  0.2525 -2.3095
  363MOL0     H48975   0.499   7.188   3.992 -2.8325  0.9666 -1.2871
  363MOL0     H48976   0.563   7.020   3.958  0.3929  1.0747  1.9161
  363MOL0     H48977   0.271   7.103   3.992  2.2781  4.0149  2.0091
  363MOL0     H48978   0.321   6.939   3.997 -1.3359  1.4242 -0.5985
  363MOL0     H48979   0.284   7.005   4.218 -0.2630 -0.9469 -2.3814
  363MOL0     H48980   0.402   7.136   4.209 -0.4595 -0.0057 -0.4305
  363MOL0     H48981   0.490   6.845   4.182  1.6998  0.3343  1.9900
  363MOL0     H48982   0.587   6.990   4.191  0.5209  1.0493  4.6405
  363MOL0     H48983   0.389   6.915   4.397 -0.7638 -0.3969 -1.1956
  363MOL0     H48984   0.503   7.035   4.424  2.0149 -1.8810  2.7168
  363MOL0     H48985   0.584   6.748   4.365 -0.6083 -0.2423 -0.3726
  363MOL0     H48986   0.561   6.829   4.529 -2.7202  0.6691 -0.4397
  363MOL0     H48987   0.135   7.298   3.569  0.0372  0.2252 -0.5723
  363MOL0     H48988  -0.049   7.480   3.557  0.6031 -0.4964  0.1074
  363MOL0     H48989  -0.224   7.923   3.925  0.3042 -2.3835 -0.8167
  363MOL0     H48990  -0.349   8.122   3.849 -0.7343 -1.8009  3.8030
  363MOL0     H48991   0.267   9.008   3.663  0.9522 -0.7123 -0.3365
  363MOL0     H48992   0.471   8.895   3.729  0.5063 -1.5058  1.7255
  363MOL0     H48993   0.707   8.646   3.832 -0.0324 -1.6195 -0.4521
  363MOL0     H48994   0.950   8.556   3.837 -0.1408 -0.3027  0.1430
  363MOL0     H48995   1.157   8.455   3.878 -1.1055 -1.0629 -1.0250
  363MOL0     H48996   1.145   8.585   3.981 -0.6393  0.1750 -1.7199
  363MOL0     H48997   1.295   8.318   4.041 -2.2200 -0.3485  2.1683
  363MOL0     H48998   1.280   8.444   4.160  3.3065  1.5054 -0.0148
  363MOL0     H48999   1.483   8.498   4.082 -1.6892 -0.9311  1.4032
  363MOL0     H49000   1.390   8.605   3.983 -1.7253  0.0635  0.4702
  363MOL0     H49001   1.481   8.343   3.860  0.0272 -0.1582  0.3243
  363MOL0     H49002   1.581   8.485   3.871 -0.1782  0.5071  1.4675
  363MOL0     H49003   1.251   8.568   3.589 -4.3419 -2.1533  2.4878
  363MOL0     H49004   0.859   8.383   4.229  0.2051 -1.2981 -1.6880
  363MOL0     H49005   0.643   8.476   4.217  1.4274  2.6328  1.9338
  364MOL0     O49006   5.226   7.329   5.721  0.2141 -0.8519  0.4298
  364MOL0     C49007   5.315   7.389   5.776  0.3990 -0.2036 -0.4956
  364MOL0     O49008   5.304   7.468   5.883 -0.3811  0.4382  0.3203
  364MOL0     C49009   5.182   7.476   5.941  0.7819 -0.2491  0.2655
  364MOL0     C49010   5.088   7.562   5.870  0.0829 -0.8251  0.2025
  364MOL0     C49011   4.953   7.569   5.908  0.4274  0.8511 -0.2548
  364MOL0     C49012   4.912   7.504   6.026 -0.1385  0.4599 -0.6221
  364MOL0     O49013   4.788   7.521   6.068 -0.4168 -0.1666  0.5678
  364MOL0     C49014   4.761   7.647   6.125  0.3549 -0.4004  0.0689
  364MOL0     C49015   4.641   7.652   6.221 -0.0784  0.5274  0.0225
  364MOL0     C49016   4.512   7.576   6.156 -0.8473 -0.6649  0.4925
  364MOL0     C49017   4.395   7.577   6.259 -0.0806 -0.3153  0.1324
  364MOL0     C49018   4.270   7.506   6.205 -0.5568  0.0317  0.1659
  364MOL0     C49019   4.285   7.351   6.193  0.5694  0.3888 -0.4141
  364MOL0     C49020   4.179   7.294   6.095  0.7480 -0.3064 -0.3715
  364MOL0     C49021   4.042   7.264   6.167 -0.2836  0.1013  0.8843
  364MOL0     N49022   3.931   7.262   6.073  0.5222 -0.0700 -0.0832
  364MOL0     C49023   3.921   7.167   5.971 -0.4527  0.4080 -0.8072
  364MOL0     C49024   3.801   7.193   5.922  0.4782 -0.0541 -0.2199
  364MOL0     C49025   3.728   7.091   5.842  0.2830 -0.3874  0.5832
  364MOL0     C49026   3.623   7.144   5.746  0.4038  0.4689 -0.3147
  364MOL0     C49027   3.574   7.027   5.658 -0.2917  0.3772 -0.1200
  364MOL0     C49028   3.426   7.046   5.600 -0.1107  0.1785 -0.1777
  364MOL0     O49029   3.374   6.918   5.558  0.3700 -0.0692 -0.1367
  364MOL0     C49030   3.240   6.916   5.535  0.3999 -0.0921  0.0684
  364MOL0     C49031   3.174   6.796   5.541 -0.1281  0.2622  0.2071
  364MOL0     C49032   3.041   6.784   5.523  0.7360  0.4244 -0.6148
  364MOL0     C49033   2.981   6.645   5.522  0.8592  0.4971 -0.3312
  364MOL0     C49034   2.957   6.898   5.508  0.6261 -0.4518  0.1114
  364MOL0     C49035   2.808   6.902   5.477 -0.5188 -0.7473 -0.2397
  364MOL0     O49036   2.743   7.021   5.469  0.1215 -1.2050 -0.3092
  364MOL0     C49037   2.607   7.025   5.463 -0.1031  0.9259 -0.0835
  364MOL0     C49038   2.526   7.034   5.575 -0.4014 -0.7745 -0.1285
  364MOL0     C49039   2.384   7.024   5.564  0.0089  0.1832 -0.2210
  364MOL0     C49040   2.324   7.018   5.441 -0.1351  1.1271 -0.2975
  364MOL0     O49041   2.187   7.034   5.434  0.5099  1.0790 -0.0898
  364MOL0     C49042   2.119   7.072   5.312  0.1834 -0.7973  0.1925
  364MOL0     C49043   1.976   7.138   5.341 -0.6845 -0.4443  0.3605
  364MOL0     C49044   1.867   7.034   5.337 -0.0511 -0.1930  0.6424
  364MOL0     C49045   1.731   7.112   5.349 -0.2195  0.5369 -1.2209
  364MOL0     C49046   1.604   7.030   5.389 -0.2351 -0.0479  0.1991
  364MOL0     C49047   1.567   6.948   5.271  0.7051  0.3204  0.2954
  364MOL0     C49048   1.455   6.850   5.314 -0.2599 -0.7980  0.5893
  364MOL0     C49049   1.332   6.910   5.393  0.4522 -0.2149  0.5086
  364MOL0    Cl49050   1.269   7.047   5.295  0.2301  0.2609 -0.5132
  364MOL0     C49051   2.406   7.021   5.324  0.2277  0.1492 -0.0123
  364MOL0     C49052   2.547   7.016   5.334  0.3117  0.1761 -0.8747
  364MOL0     O49053   2.761   6.789   5.458 -0.2844 -0.4969  0.1607
  364MOL0     C49054   3.024   7.027   5.495  0.4702 -0.5785  0.0533
  364MOL0     C49055   3.159   7.032   5.520 -0.0983  0.2993 -0.8972
  364MOL0     N49056   3.747   7.309   5.973  0.0111  0.0855  0.6703
  364MOL0     N49057   3.822   7.348   6.072 -0.4066 -0.0129  0.1073
  364MOL0     C49058   5.001   7.428   6.103 -1.6058 -0.8521 -0.3369
  364MOL0     C49059   5.144   7.417   6.059  0.5756  0.5451  0.2332
  364MOL0     C49060   5.447   7.366   5.722  0.4259  0.0349 -0.5750
  364MOL0     C49061   5.466   7.252   5.638  1.3288 -0.0637 -0.1573
  364MOL0     C49062   5.596   7.220   5.584  0.4691  0.2398  0.1234
  364MOL0     C49063   5.705   7.301   5.607  0.0119 -0.2805 -0.2530
  364MOL0     O49064   5.831   7.271   5.551 -0.5051  0.7330 -0.1577
  364MOL0     C49065   5.940   7.359   5.540 -0.0379  0.2529 -0.2854
  364MOL0     C49066   6.077   7.290   5.525  1.0205 -0.4395  0.7158
  364MOL0     C49067   6.187   7.386   5.531  0.2008 -0.3075  0.1720
  364MOL0     C49068   6.319   7.309   5.530 -0.3649  0.0905 -0.2831
  364MOL0     C49069   6.425   7.396   5.580  0.3081  0.7446 -0.5870
  364MOL0     C49070   6.502   7.461   5.646 -0.0469 -0.8302  0.4752
  364MOL0     C49071   5.674   7.419   5.678  0.1666  0.7256 -0.7700
  364MOL0     C49072   5.552   7.451   5.734  0.1146 -0.3666 -0.2739
  364MOL0     H49073   5.132   7.609   5.782  0.9381 -1.9086  0.0226
  364MOL0     H49074   4.879   7.626   5.853  0.0476 -1.4841 -2.3034
  364MOL0     H49075   4.854   7.682   6.170  1.4895 -0.3581 -2.1886
  364MOL0     H49076   4.752   7.715   6.040  0.6335 -0.1267  0.2611
  364MOL0     H49077   4.678   7.592   6.305  2.6851 -2.7924 -3.2412
  364MOL0     H49078   4.612   7.748   6.266 -0.0071  0.3730  0.4038
  364MOL0     H49079   4.468   7.632   6.073  1.2553  0.9217  0.3515
  364MOL0     H49080   4.545   7.478   6.121  0.0041 -0.3727  0.4455
  364MOL0     H49081   4.416   7.521   6.351 -0.4105  0.5448  0.7381
  364MOL0     H49082   4.370   7.677   6.295 -1.2301 -1.1361  1.7630
  364MOL0     H49083   4.188   7.539   6.270  0.7089 -0.1704  1.9505
  364MOL0     H49084   4.255   7.542   6.103  0.8590  0.0510 -0.0579
  364MOL0     H49085   4.389   7.330   6.166  0.3296 -0.6979 -0.5258
  364MOL0     H49086   4.269   7.295   6.285 -2.0303 -1.6510 -1.9637
  364MOL0     H49087   4.164   7.359   6.008  1.0357  0.9283  0.4818
  364MOL0     H49088   4.227   7.203   6.057  0.0997  0.2429 -2.6959
  364MOL0     H49089   4.021   7.351   6.230 -0.3028  1.0090 -0.3517
  364MOL0     H49090   4.054   7.176   6.232  3.2773  1.6174  2.5640
  364MOL0     H49091   3.981   7.077   5.960  2.3765  1.7902  1.6073
  364MOL0     H49092   3.800   7.035   5.782  1.1348  0.7142  0.5555
  364MOL0     H49093   3.669   7.031   5.912 -4.0392  1.3265 -1.2266
  364MOL0     H49094   3.669   7.215   5.677  0.8855  0.1103 -0.3700
  364MOL0     H49095   3.542   7.188   5.805 -1.8493 -2.6869 -0.8431
  364MOL0     H49096   3.571   6.939   5.722 -0.9943 -0.9636 -1.9412
  364MOL0     H49097   3.654   7.013   5.584  1.6063 -0.4264  1.9414
  364MOL0     H49098   3.429   7.117   5.517 -2.2448  0.2015 -0.2904
  364MOL0     H49099   3.359   7.091   5.674  0.8065 -0.1742  0.8807
  364MOL0     H49100   3.230   6.706   5.563  2.3449  1.8025  0.5325
  364MOL0     H49101   2.951   6.604   5.425  3.3067 -1.9681 -0.1629
  364MOL0     H49102   3.049   6.576   5.572 -0.4935 -1.9338 -1.6363
  364MOL0     H49103   2.895   6.643   5.591  1.0110  1.3597 -0.1129
  364MOL0     H49104   2.578   7.034   5.670  0.2593 -1.4529 -0.4720
  364MOL0     H49105   2.316   7.024   5.649  1.7225  1.0167  1.1989
  364MOL0     H49106   2.170   7.147   5.251 -0.5569 -0.0920  0.4196
  364MOL0     H49107   2.094   6.991   5.242 -2.9319  0.7550 -0.6865
  364MOL0     H49108   1.972   7.173   5.445 -1.3921 -2.5519  1.0875
  364MOL0     H49109   1.953   7.214   5.265  0.6010 -1.1582 -0.7922
  364MOL0     H49110   1.878   6.970   5.425 -0.2049  1.1763  1.6844
  364MOL0     H49111   1.866   6.976   5.244  3.0768  1.5654 -0.6304
  364MOL0     H49112   1.734   7.195   5.421 -2.6560 -0.2590 -0.0950
  364MOL0     H49113   1.711   7.166   5.256 -1.2032  3.2298  0.4214
  364MOL0     H49114   1.516   7.093   5.408  0.5466  1.1308 -0.0190
  364MOL0     H49115   1.614   6.966   5.477 -2.5752 -0.0964  0.4931
  364MOL0     H49116   1.545   7.005   5.180  1.2533 -1.1311 -0.7769
  364MOL0     H49117   1.649   6.883   5.239 -0.8148 -1.4230 -0.1880
  364MOL0     H49118   1.496   6.768   5.373 -0.8310 -4.1527 -3.2469
  364MOL0     H49119   1.418   6.803   5.223 -0.3014  0.0171  0.1706
  364MOL0     H49120   1.355   6.938   5.496 -1.0983  1.0443  0.5408
  364MOL0     H49121   1.250   6.838   5.400  0.3936 -0.0287  1.9992
  364MOL0     H49122   2.354   7.028   5.229 -2.1143  1.6296  1.2792
  364MOL0     H49123   2.608   7.007   5.244  3.1378  0.4999  0.8734
  364MOL0     H49124   2.969   7.116   5.467  0.1516 -0.8780 -0.2724
  364MOL0     H49125   3.213   7.126   5.512  0.6222 -0.2457 -2.9041
  364MOL0     H49126   4.972   7.385   6.199  0.1202 -0.6284  0.3259
  364MOL0     H49127   5.214   7.355   6.114  0.1474  0.4589  0.6887
  364MOL0     H49128   5.379   7.189   5.624  1.1587  0.6649 -2.9879
  364MOL0     H49129   5.614   7.125   5.534 -1.4902  0.2126 -0.6014
  364MOL0     H49130   5.920   7.430   5.459  1.9648  2.0712  0.7186
  364MOL0     H49131   5.951   7.426   5.626 -0.7203  2.2687 -1.7028
  364MOL0     H49132   6.081   7.234   5.432  1.9067 -1.9028  1.5969
  364MOL0     H49133   6.088   7.212   5.601  4.2968 -1.2193 -0.3948
  364MOL0     H49134   6.173   7.449   5.620  1.5219 -0.1905  0.3128
  364MOL0     H49135   6.171   7.450   5.444  1.6444 -1.1021 -0.7008
  364MOL0     H49136   6.339   7.272   5.429 -0.9169  0.9941 -0.7377
  364MOL0     H49137   6.308   7.221   5.593  1.0142 -1.3885 -2.0025
  364MOL0     H49138   6.577   7.503   5.709  1.7196 -1.1239 -1.3229
  364MOL0     H49139   5.758   7.488   5.678 -1.3740  2.7332 -1.9851
  364MOL0     H49140   5.545   7.547   5.783  1.2147 -0.5657  0.3153
  365MOL0     O49141   6.046  10.977   1.994  0.0928  0.8906 -0.4572
  365MOL0     C49142   6.161  10.932   2.024 -0.2687 -0.5862  0.6828
  365MOL0     O49143   6.254  10.900   1.923 -0.1828  0.4465  0.2943
  365MOL0     C49144   6.207  10.851   1.799  0.2196 -0.7032 -0.3455
  365MOL0     C49145   6.298  10.843   1.702  0.5161 -0.2890  0.1782
  365MOL0     C49146   6.266  10.786   1.574 -0.3752 -0.2124  0.0953
  365MOL0     C49147   6.138  10.745   1.550  0.3162  0.4065  0.5159
  365MOL0     O49148   6.125  10.693   1.423  0.2912  0.2911 -0.3546
  365MOL0     C49149   6.013  10.719   1.342 -0.2925 -0.2153  0.2730
  365MOL0     C49150   6.007  10.671   1.198 -0.3805  0.6690  0.9303
  365MOL0     C49151   6.020  10.515   1.216 -0.3288 -0.0419 -0.5985
  365MOL0     C49152   5.998  10.426   1.093 -0.2896 -1.5307  0.3913
  365MOL0     C49153   5.973  10.274   1.110  0.2511 -0.3195  0.3829
  365MOL0     C49154   6.073  10.203   1.205  0.2726 -0.5998  0.3594
  365MOL0     C49155   6.041  10.056   1.233  0.1224  0.1382  1.0209
  365MOL0     C49156   6.124   9.980   1.344  0.2393 -0.6401 -0.3095
  365MOL0     N49157   6.217   9.880   1.297  0.2530  0.1805 -0.3393
  365MOL0     C49158   6.170   9.782   1.208  0.0738  0.9356  1.3146
  365MOL0     C49159   6.281   9.732   1.143 -0.0372  0.0168  0.0812
  365MOL0     C49160   6.288   9.618   1.045 -0.0706 -0.9151 -0.3912
  365MOL0     C49161   6.234   9.655   0.909  0.7273  0.2610 -0.5108
  365MOL0     C49162   6.189   9.520   0.829 -1.1637 -0.2989 -0.3815
  365MOL0     C49163   6.099   9.540   0.715 -0.0696  0.3614 -0.4948
  365MOL0     O49164   6.060   9.407   0.665  0.0051 -0.6236 -1.0501
  365MOL0     C49165   5.969   9.389   0.559  0.9493  0.9968 -0.2400
  365MOL0     C49166   5.893   9.486   0.493 -0.3954 -0.5171 -0.7008
  365MOL0     C49167   5.799   9.454   0.392  0.2789 -0.4328 -0.3702
  365MOL0     C49168   5.732   9.569   0.324  0.3296  0.6174 -0.2767
  365MOL0     C49169   5.783   9.315   0.351 -0.8126 -0.2156 -0.3941
  365MOL0     C49170   5.686   9.284   0.249 -0.0434  1.3298 -0.0074
  365MOL0     O49171   5.588   9.360   0.224 -0.1922 -0.6037  0.5457
  365MOL0     C49172   5.482   9.323   0.152 -0.5431  0.2433 -0.3769
  365MOL0     C49173   5.426   9.400   0.051 -1.0512  0.7369  0.5962
  365MOL0     C49174   5.308   9.358  -0.017  0.0994 -0.1055  0.4585
  365MOL0     C49175   5.244   9.238   0.019 -0.0208 -0.8806 -0.4212
  365MOL0     O49176   5.116   9.205  -0.034 -1.0084 -0.8406 -0.0012
  365MOL0     C49177   5.061   9.080  -0.013 -0.4394  0.6860 -1.0655
  365MOL0     C49178   4.938   9.026  -0.086 -0.3557 -0.1150  0.4383
  365MOL0     C49179   4.974   8.969  -0.226  0.0613  0.3522 -0.3309
  365MOL0     C49180   4.845   8.961  -0.309  0.8967 -0.5073  0.2347
  365MOL0     C49181   4.861   8.916  -0.457  1.1648  0.3849  0.3586
  365MOL0     C49182   4.926   8.771  -0.473 -0.2884 -0.0465  0.7307
  365MOL0     C49183   4.930   8.727  -0.620 -0.3168 -0.0926  0.1669
  365MOL0     C49184   5.026   8.607  -0.630  0.5134  0.4926  0.1270
  365MOL0    Cl49185   5.190   8.667  -0.598 -0.0232 -0.0827 -0.0590
  365MOL0     C49186   5.295   9.165   0.123  0.8097  0.0721 -0.8735
  365MOL0     C49187   5.414   9.208   0.191 -0.4454  0.3876  0.7432
  365MOL0     O49188   5.715   9.183   0.178  0.4405 -0.6248  0.0429
  365MOL0     C49189   5.870   9.217   0.405  0.9447  0.0383 -0.8835
  365MOL0     C49190   5.951   9.259   0.510 -0.7745 -0.2527 -0.8175
  365MOL0     N49191   6.393   9.797   1.193 -0.4044  0.4109 -0.9003
  365MOL0     N49192   6.351   9.892   1.274  0.7224  0.8711 -0.9542
  365MOL0     C49193   6.031  10.767   1.638  0.5756 -0.0184 -0.1802
  365MOL0     C49194   6.066  10.820   1.764  0.1140  0.3839 -0.4551
  365MOL0     C49195   6.214  10.956   2.162 -0.4538 -0.5205 -0.9970
  365MOL0     C49196   6.132  10.986   2.271  0.1773  0.3745  0.8782
  365MOL0     C49197   6.191  11.005   2.398 -0.4025  0.3805 -0.0240
  365MOL0     C49198   6.330  11.012   2.422  0.4678 -0.3642 -0.7930
  365MOL0     O49199   6.377  11.044   2.550 -0.1619 -0.0625  0.3045
  365MOL0     C49200   6.492  10.966   2.591 -0.2446  0.3940  0.4286
  365MOL0     C49201   6.440  10.876   2.703  0.4753 -0.5945  0.1620
  365MOL0     C49202   6.364  10.758   2.652 -0.4250  0.0290  1.0158
  365MOL0     C49203   6.299  10.675   2.756  0.6676  0.3956 -0.7748
  365MOL0     C49204   6.189  10.603   2.694 -0.5397  0.4704 -0.9946
  365MOL0     C49205   6.094  10.529   2.652 -0.4356 -0.6931 -0.3511
  365MOL0     C49206   6.406  10.979   2.310  0.2257  0.4228  1.0393
  365MOL0     C49207   6.358  10.958   2.179  0.5642 -0.1060  0.3195
  365MOL0     H49208   6.400  10.872   1.722 -0.4669  1.7990  2.8637
  365MOL0     H49209   6.345  10.761   1.504 -1.0300 -3.8632  0.4500
  365MOL0     H49210   5.916  10.691   1.383 -0.1222  0.3996  1.1115
  365MOL0     H49211   6.003  10.828   1.349  0.5293 -0.0750 -0.5060
  365MOL0     H49212   5.917  10.701   1.143  0.6985 -1.9393 -2.5777
  365MOL0     H49213   6.095  10.712   1.148  0.5853 -2.8124 -0.5125
  365MOL0     H49214   6.120  10.515   1.260 -0.9831 -0.1153  0.9543
  365MOL0     H49215   5.941  10.477   1.282  0.2671 -2.4805 -1.2016
  365MOL0     H49216   5.913  10.466   1.037  2.7455  0.5221 -3.2473
  365MOL0     H49217   6.087  10.441   1.030 -1.3829  2.9895 -0.3868
  365MOL0     H49218   5.870  10.250   1.141  0.4572 -1.4788  0.2131
  365MOL0     H49219   5.969  10.229   1.010 -3.3461  2.1776 -0.8055
  365MOL0     H49220   6.171  10.228   1.162  0.0838  0.1282  0.3413
  365MOL0     H49221   6.069  10.248   1.305  4.2208 -1.0949  0.9093
  365MOL0     H49222   5.938  10.059   1.271  0.3217  4.0065  1.6541
  365MOL0     H49223   6.052   9.997   1.141  3.8673 -1.2127  2.1584
  365MOL0     H49224   6.064   9.927   1.418 -0.9627  0.6860 -0.2963
  365MOL0     H49225   6.166  10.053   1.415 -2.7108  1.6278 -0.7152
  365MOL0     H49226   6.068   9.747   1.193 -0.1400  2.7742 -2.8224
  365MOL0     H49227   6.394   9.591   1.041  0.6647  1.1959  2.0763
  365MOL0     H49228   6.227   9.538   1.088 -0.5780 -0.3018  0.0449
  365MOL0     H49229   6.315   9.702   0.852  3.1779 -2.2413  0.6379
  365MOL0     H49230   6.145   9.717   0.916  0.0564 -0.5669 -1.3904
  365MOL0     H49231   6.133   9.453   0.894  0.6190 -1.5870 -0.0924
  365MOL0     H49232   6.279   9.463   0.805 -0.7391  0.4816 -0.6993
  365MOL0     H49233   6.165   9.595   0.647  1.6470 -0.6001  0.3187
  365MOL0     H49234   6.011   9.599   0.743 -0.9068 -1.9417  2.2122
  365MOL0     H49235   5.919   9.588   0.518 -1.9049 -0.3017  0.0913
  365MOL0     H49236   5.750   9.557   0.217  0.9845  3.3139 -0.5538
  365MOL0     H49237   5.624   9.563   0.340 -0.1669 -3.8501 -3.3152
  365MOL0     H49238   5.777   9.659   0.366 -2.3466  1.4241  1.0809
  365MOL0     H49239   5.477   9.490   0.020  1.0479 -0.4178  0.5234
  365MOL0     H49240   5.265   9.425  -0.091 -2.5241 -0.6200  1.4279
  365MOL0     H49241   5.129   8.994  -0.011 -2.2473 -0.8100 -1.4522
  365MOL0     H49242   5.034   9.085   0.093 -1.2550 -2.1080 -1.0590
  365MOL0     H49243   4.913   8.941  -0.023  4.2834 -3.2542 -1.3825
  365MOL0     H49244   4.865   9.107  -0.093 -0.6208 -0.0595  2.9805
  365MOL0     H49245   5.017   8.869  -0.220 -0.8587 -0.0366 -0.0103
  365MOL0     H49246   5.041   9.041  -0.272 -0.8256  1.3630 -0.0883
  365MOL0     H49247   4.779   8.887  -0.262 -0.3269 -0.1936 -0.9372
  365MOL0     H49248   4.802   9.061  -0.300  1.8397 -0.2153  1.9970
  365MOL0     H49249   4.925   8.990  -0.506 -2.0313  3.1606  0.0122
  365MOL0     H49250   4.761   8.927  -0.501  2.1473  2.8961 -1.4466
  365MOL0     H49251   5.025   8.781  -0.428  0.0623  4.4722 -0.5270
  365MOL0     H49252   4.861   8.701  -0.420 -0.7603 -1.7225 -1.8961
  365MOL0     H49253   4.957   8.812  -0.682  3.1479 -0.8093  0.4882
  365MOL0     H49254   4.829   8.689  -0.638 -0.8001  1.1950  0.1143
  365MOL0     H49255   5.020   8.564  -0.730 -1.3900  0.8444  0.0504
  365MOL0     H49256   5.000   8.527  -0.561 -2.1123  0.1427 -1.1548
  365MOL0     H49257   5.246   9.076   0.159 -2.9172  0.8871 -3.3726
  365MOL0     H49258   5.442   9.143   0.273  0.9327  0.3077  0.2269
  365MOL0     H49259   5.872   9.117   0.363 -1.3690 -0.9298  1.0717
  365MOL0     H49260   6.015   9.181   0.550 -2.1317 -1.7917 -1.5563
  365MOL0     H49261   5.929  10.737   1.616  0.6068 -0.6278  0.4771
  365MOL0     H49262   5.980  10.826   1.830  1.4029 -1.0297  1.4791
  365MOL0     H49263   6.025  11.002   2.259  0.3218  0.2864 -0.7406
  365MOL0     H49264   6.128  11.047   2.477 -0.7518 -1.2008  0.5675
  365MOL0     H49265   6.542  10.904   2.517 -0.5237  0.6720  0.0070
  365MOL0     H49266   6.568  11.038   2.622  0.6219  0.3229 -1.4070
  365MOL0     H49267   6.372  10.930   2.770 -2.9849 -0.8740 -2.8272
  365MOL0     H49268   6.521  10.836   2.764 -0.2915 -1.2995  0.7403
  365MOL0     H49269   6.428  10.691   2.594 -1.6795 -0.5184  0.2317
  365MOL0     H49270   6.288  10.796   2.583  1.4573  2.4276  0.1087
  365MOL0     H49271   6.254  10.737   2.834  0.3833 -1.4077  0.5600
  365MOL0     H49272   6.368  10.612   2.813  0.9251  2.6529  1.5804
  365MOL0     H49273   6.026  10.471   2.593  1.6101 -0.9252 -2.6223
  365MOL0     H49274   6.515  10.973   2.311  0.3441 -1.3030 -2.9647
  365MOL0     H49275   6.428  10.936   2.099  0.9540 -0.4745  0.7591
  366MOL0     O49276   4.863   2.911  11.381 -0.3761 -0.2910 -0.0075
  366MOL0     C49277   4.809   2.835  11.307 -0.1678  0.6451 -0.1406
  366MOL0     O49278   4.675   2.813  11.289 -0.2801  0.1308 -0.1770
  366MOL0     C49279   4.572   2.882  11.354  1.0602  0.2390 -0.4061
  366MOL0     C49280   4.577   2.978  11.458 -0.5631  0.6773  0.1641
  366MOL0     C49281   4.461   3.045  11.507 -0.0151  0.2158 -0.2168
  366MOL0     C49282   4.336   3.022  11.458 -0.7318  0.2023  0.4420
  366MOL0     O49283   4.232   3.093  11.511 -0.2570  0.6151 -0.1117
  366MOL0     C49284   4.127   3.123  11.421  1.5957 -0.0464 -0.2206
  366MOL0     C49285   3.998   3.039  11.452 -0.5915  0.2040 -0.4582
  366MOL0     C49286   3.878   3.092  11.363  0.3482  0.4352 -0.8153
  366MOL0     C49287   3.741   3.053  11.407  0.5067 -0.2194 -0.9221
  366MOL0     C49288   3.631   3.069  11.301  0.3861 -0.2252  0.3300
  366MOL0     C49289   3.488   3.037  11.334 -0.8794  0.3882  0.9505
  366MOL0     C49290   3.404   3.030  11.204 -0.0571 -0.3795 -0.5165
  366MOL0     C49291   3.259   3.020  11.252  0.0504  0.6011 -0.6863
  366MOL0     N49292   3.170   3.014  11.135  0.1878 -0.0162  0.5713
  366MOL0     C49293   3.166   3.123  11.040  0.6219  0.9373 -0.0540
  366MOL0     C49294   3.078   3.073  10.949 -0.0874  1.2901 -0.0654
  366MOL0     C49295   3.012   3.171  10.843 -0.4474 -0.3108 -0.3174
  366MOL0     C49296   3.042   3.131  10.703  0.0352  0.4368 -0.3144
  366MOL0     C49297   2.960   3.182  10.591  0.9261  1.1878  0.4272
  366MOL0     C49298   3.006   3.099  10.466 -0.3976 -0.4194 -0.1555
  366MOL0     O49299   2.942   3.151  10.345 -0.0814 -0.0950  0.6260
  366MOL0     C49300   2.828   3.086  10.297 -0.3059  0.0166  0.1588
  366MOL0     C49301   2.781   3.131  10.169 -0.1987 -0.0863 -0.9253
  366MOL0     C49302   2.650   3.096  10.127 -1.0897  1.1327  0.4102
  366MOL0     C49303   2.626   3.147   9.987 -0.1829  0.1896  0.2811
  366MOL0     C49304   2.569   3.015  10.209  0.4130  0.6938 -0.1430
  366MOL0     C49305   2.423   2.993  10.168  0.3900 -0.2205  0.1662
  366MOL0     O49306   2.354   2.922  10.264  0.3866 -0.8432  0.4787
  366MOL0     C49307   2.213   2.916  10.256  0.1070 -0.5242  0.8767
  366MOL0     C49308   2.135   2.893  10.147  0.7900 -0.0442  0.1559
  366MOL0     C49309   1.994   2.887  10.162  1.1373  0.2538 -1.5334
  366MOL0     C49310   1.930   2.914  10.284 -0.2792 -0.5795 -0.6175
  366MOL0     O49311   1.795   2.917  10.311 -0.2516  0.6808  0.1367
  366MOL0     C49312   1.716   2.830  10.223 -0.0504 -0.2760  0.5629
  366MOL0     C49313   1.646   2.904  10.109  0.6684  0.5513 -0.5138
  366MOL0     C49314   1.507   2.970  10.154 -0.2298  0.0799  0.0599
  366MOL0     C49315   1.451   3.070  10.041 -0.1201 -0.7404 -0.2728
  366MOL0     C49316   1.313   3.134  10.077 -0.1513  0.6523 -0.4391
  366MOL0     C49317   1.199   3.030  10.095  0.7576 -0.2756 -0.0645
  366MOL0     C49318   1.062   3.083  10.057 -0.3553 -0.6418  0.1456
  366MOL0     C49319   0.950   3.012  10.126  0.5073  0.3340  0.3496
  366MOL0    Cl49320   0.792   3.041  10.065 -0.4921 -0.3434  0.0933
  366MOL0     C49321   2.009   2.944  10.399  0.1053  0.5325 -0.1443
  366MOL0     C49322   2.151   2.951  10.375  0.2397 -0.0901 -0.1021
  366MOL0     O49323   2.377   3.030  10.059 -0.0016 -0.5877 -0.2272
  366MOL0     C49324   2.621   2.986  10.338  0.2992 -0.0540 -0.3222
  366MOL0     C49325   2.744   3.010  10.388 -0.4073 -0.1366 -0.2221
  366MOL0     N49326   3.028   2.946  10.996  0.2718  0.4104  0.3044
  366MOL0     N49327   3.099   2.909  11.097  0.5517 -0.4705  0.5039
  366MOL0     C49328   4.330   2.912  11.362 -0.6317 -0.1030  1.0277
  366MOL0     C49329   4.439   2.842  11.311 -0.1475 -0.8884  0.0534
  366MOL0     C49330   4.903   2.763  11.217 -0.6430 -0.3568 -0.1464
  366MOL0     C49331   5.045   2.770  11.228 -0.1523  0.1307 -0.9421
  366MOL0     C49332   5.127   2.715  11.133 -0.1469 -0.0263  0.8516
  366MOL0     C49333   5.072   2.625  11.037 -0.3373 -0.1880 -0.2986
  366MOL0     O49334   5.160   2.566  10.951  0.3776  0.2772 -0.3508
  366MOL0     C49335   5.106   2.480  10.850 -0.8900 -0.0232 -0.3123
  366MOL0     C49336   5.224   2.423  10.771  1.2305  0.3225 -0.0084
  366MOL0     C49337   5.191   2.289  10.700  0.2234  0.7837  0.6513
  366MOL0     C49338   5.292   2.241  10.594  0.5912  0.1150 -0.5711
  366MOL0     C49339   5.411   2.189  10.659  0.2553  0.0131  0.7076
  366MOL0     C49340   5.505   2.143  10.718  1.3638 -0.2098  0.1296
  366MOL0     C49341   4.935   2.602  11.030  0.7821  0.4649  0.4033
  366MOL0     C49342   4.847   2.673  11.120 -0.8514  0.8834  0.1160
  366MOL0     H49343   4.674   2.996  11.503 -0.8532  2.6582  0.1179
  366MOL0     H49344   4.473   3.122  11.583 -1.3549 -1.1216  1.4215
  366MOL0     H49345   4.101   3.229  11.428  3.1132  0.2711  1.3062
  366MOL0     H49346   4.156   3.102  11.318 -0.7926  2.7261 -1.6237
  366MOL0     H49347   4.015   2.933  11.429  0.1957 -0.1565  1.5763
  366MOL0     H49348   3.983   3.040  11.560  2.0316 -1.9791  0.0380
  366MOL0     H49349   3.884   3.200  11.346 -0.2111  0.6549  0.3024
  366MOL0     H49350   3.887   3.036  11.269 -1.0428 -0.2327 -0.5741
  366MOL0     H49351   3.739   2.952  11.448 -1.3877  0.7078  1.4661
  366MOL0     H49352   3.724   3.116  11.494 -1.8556  1.3907 -2.4546
  366MOL0     H49353   3.640   3.175  11.278  0.4391 -0.3491 -0.2373
  366MOL0     H49354   3.661   3.016  11.209 -0.4993 -0.3273  0.0972
  366MOL0     H49355   3.487   2.937  11.378 -0.0583  0.3180  0.8267
  366MOL0     H49356   3.454   3.113  11.405  2.4007  4.0220 -0.9364
  366MOL0     H49357   3.417   3.125  11.151 -2.6190  1.8578  2.5307
  366MOL0     H49358   3.436   2.943  11.144 -1.6086 -1.3939  0.0822
  366MOL0     H49359   3.238   3.113  11.305  0.7736  1.0279 -1.1334
  366MOL0     H49360   3.218   2.935  11.308 -3.8851  1.4671 -1.9328
  366MOL0     H49361   3.212   3.221  11.044  4.0488 -0.4923 -0.7197
  366MOL0     H49362   2.904   3.177  10.863 -0.2072  1.0122  0.6836
  366MOL0     H49363   3.050   3.269  10.871  1.8973 -1.4969  1.0287
  366MOL0     H49364   3.052   3.023  10.692 -1.5513  0.0635  1.3713
  366MOL0     H49365   3.145   3.163  10.684  0.4185 -0.3715  0.3532
  366MOL0     H49366   2.988   3.287  10.574  0.8326  0.6715 -3.9220
  366MOL0     H49367   2.854   3.167  10.614  0.8529  0.2822 -0.4429
  366MOL0     H49368   2.987   2.991  10.468 -1.2395 -0.2718  0.0863
  366MOL0     H49369   3.115   3.103  10.450 -0.3849 -0.6885 -0.1365
  366MOL0     H49370   2.859   3.183  10.115  1.9592 -1.1537  0.9850
  366MOL0     H49371   2.602   3.060   9.926  3.1236 -0.8787  0.3342
  366MOL0     H49372   2.541   3.215   9.999 -0.0285  0.3136  0.6779
  366MOL0     H49373   2.711   3.197   9.941 -0.1911  0.3445  0.4320
  366MOL0     H49374   2.180   2.860  10.054 -1.4195 -1.8130 -0.3781
  366MOL0     H49375   1.925   2.866  10.080 -0.2360 -2.0069  0.1002
  366MOL0     H49376   1.771   2.748  10.177 -1.5513 -0.7840 -0.4067
  366MOL0     H49377   1.643   2.773  10.281 -0.9872 -2.3343 -2.4063
  366MOL0     H49378   1.720   2.972  10.067  1.5982  0.1422  0.4084
  366MOL0     H49379   1.616   2.835  10.030  0.8815  2.6788 -2.5503
  366MOL0     H49380   1.521   3.036  10.240  1.3896  0.1535 -0.2353
  366MOL0     H49381   1.431   2.896  10.181 -0.7286  1.6084  3.4092
  366MOL0     H49382   1.517   3.157  10.040 -2.7689  1.5342  2.2764
  366MOL0     H49383   1.444   3.023   9.943 -1.5873  1.8180 -1.4842
  366MOL0     H49384   1.286   3.207   9.999  2.0737  0.3238 -1.5872
  366MOL0     H49385   1.327   3.186  10.172 -1.4263  0.2681 -0.0265
  366MOL0     H49386   1.226   2.940  10.040  0.6210 -0.3476 -0.0158
  366MOL0     H49387   1.195   2.991  10.197  0.3444 -1.6103 -0.5695
  366MOL0     H49388   1.053   3.072   9.948 -0.9459 -1.3752  0.2625
  366MOL0     H49389   1.055   3.189  10.083 -0.1002 -0.2716 -1.2032
  366MOL0     H49390   0.955   3.035  10.233  0.8463  2.9095 -0.1674
  366MOL0     H49391   0.963   2.903  10.126  0.9736  0.3528  2.3073
  366MOL0     H49392   1.984   2.954  10.504  0.4247 -1.1943  0.1214
  366MOL0     H49393   2.215   2.987  10.455  2.3181 -1.4999 -1.0405
  366MOL0     H49394   2.550   2.940  10.407 -1.3699  0.6545 -1.4859
  366MOL0     H49395   2.776   2.988  10.489  0.6579 -1.9818 -0.9042
  366MOL0     H49396   4.238   2.882  11.312 -0.8898 -2.3543  2.6779
  366MOL0     H49397   4.420   2.769  11.233 -0.5180  0.0010 -0.7084
  366MOL0     H49398   5.102   2.828  11.300 -0.3257  0.5808 -1.1655
  366MOL0     H49399   5.233   2.736  11.128  0.1072 -1.2289  0.9039
  366MOL0     H49400   5.054   2.398  10.902  1.1388  0.3622  2.5833
  366MOL0     H49401   5.041   2.532  10.780 -0.1351  0.9333 -0.3154
  366MOL0     H49402   5.307   2.399  10.838  0.3469  2.3672  1.9543
  366MOL0     H49403   5.256   2.504  10.704 -0.9274  0.4649 -0.9368
  366MOL0     H49404   5.096   2.298  10.646  1.3364  1.2238 -1.3196
  366MOL0     H49405   5.170   2.206  10.768 -1.7473  1.0697  0.4625
  366MOL0     H49406   5.321   2.327  10.532  0.7973 -0.8580 -1.8747
  366MOL0     H49407   5.249   2.163  10.532  0.1187 -2.0665  2.3094
  366MOL0     H49408   5.595   2.102  10.759 -0.0704 -0.8672  2.9226
  366MOL0     H49409   4.885   2.535  10.961 -0.7551 -0.4310  2.2946
  366MOL0     H49410   4.740   2.659  11.109 -1.0141  1.9494  0.1836
  367MOL0     O49411  11.033   7.616  10.643 -0.1737 -0.5040  0.0906
  367MOL0     C49412  11.076   7.692  10.557  0.9775  0.2257 -0.2594
  367MOL0     O49413  11.020   7.810  10.510  0.0274 -0.6930 -0.0612
  367MOL0     C49414  10.906   7.847  10.571  0.2246  0.1527  0.2141
  367MOL0     C49415  10.780   7.828  10.496 -0.3224  0.6592  1.1748
  367MOL0     C49416  10.668   7.888  10.548  0.3423 -0.2454 -0.5852
  367MOL0     C49417  10.671   7.959  10.673 -0.5037  0.4636 -0.4606
  367MOL0     O49418  10.542   7.998  10.722  0.4853 -0.0274  0.2349
  367MOL0     C49419  10.523   8.077  10.840  0.6119 -0.8896 -0.1136
  367MOL0     C49420  10.380   8.144  10.830  0.0547  0.3129 -0.6167
  367MOL0     C49421  10.269   8.052  10.880 -0.6230  0.8939  0.8330
  367MOL0     C49422  10.131   8.101  10.832  0.6644 -0.4022 -0.2977
  367MOL0     C49423  10.012   8.012  10.872  0.2026  0.2434  0.5378
  367MOL0     C49424  10.001   7.867  10.810  0.4662 -0.4904  0.2161
  367MOL0     C49425   9.908   7.783  10.897  0.2278  0.3204 -0.8446
  367MOL0     C49426   9.905   7.639  10.847  1.5788 -0.4896 -0.7488
  367MOL0     N49427   9.846   7.618  10.711  0.3953 -0.0952 -0.1770
  367MOL0     C49428   9.724   7.669  10.667 -0.7477  0.0972 -0.2497
  367MOL0     C49429   9.729   7.656  10.533  0.4189 -0.2111 -0.2667
  367MOL0     C49430   9.621   7.706  10.433  0.2860 -0.1061  0.1151
  367MOL0     C49431   9.547   7.588  10.376 -0.0987  0.1300 -0.3087
  367MOL0     C49432   9.409   7.634  10.316  0.1962 -0.2880  0.3397
  367MOL0     C49433   9.293   7.669  10.418 -0.3759  0.0240  0.0546
  367MOL0     O49434   9.170   7.740  10.362 -0.9897 -0.3549 -0.1688
  367MOL0     C49435   9.067   7.664  10.310  0.5960  0.0094 -0.6980
  367MOL0     C49436   9.070   7.530  10.267 -0.5280  0.6115  0.0486
  367MOL0     C49437   8.967   7.476  10.183  1.0898  0.0216 -0.4100
  367MOL0     C49438   8.981   7.342  10.123 -0.0248 -0.1699 -0.0167
  367MOL0     C49439   8.850   7.549  10.173  0.7805 -0.8260  1.4657
  367MOL0     C49440   8.742   7.503  10.085  1.2281  0.5178 -0.4582
  367MOL0     O49441   8.741   7.562   9.960  0.3272  0.3271  0.1503
  367MOL0     C49442   8.640   7.516   9.879 -0.7331  0.6448 -0.3868
  367MOL0     C49443   8.647   7.389   9.823  0.4295 -0.3365 -0.5277
  367MOL0     C49444   8.543   7.347   9.729 -0.3963 -0.4497 -0.0034
  367MOL0     C49445   8.433   7.431   9.712  0.1852  0.3922 -0.5803
  367MOL0     O49446   8.342   7.392   9.623 -0.1691  0.8597  0.0272
  367MOL0     C49447   8.204   7.392   9.667 -0.2896 -0.3954 -0.7072
  367MOL0     C49448   8.117   7.503   9.602  0.8044 -0.6730 -0.2537
  367MOL0     C49449   8.100   7.492   9.452 -0.5429 -0.4329 -0.1766
  367MOL0     C49450   8.053   7.623   9.394  0.5840  0.4013  0.2598
  367MOL0     C49451   8.052   7.599   9.243 -0.3842  0.2318  0.1083
  367MOL0     C49452   8.008   7.724   9.170 -0.3656  0.5088 -0.2062
  367MOL0     C49453   7.861   7.755   9.187  0.5159 -0.7162 -0.5388
  367MOL0     C49454   7.767   7.640   9.161  0.3594  0.4428 -0.8783
  367MOL0    Cl49455   7.609   7.702   9.108  0.1924 -0.6886 -0.1809
  367MOL0     C49456   8.432   7.550   9.780 -0.9770  0.5674 -0.0724
  367MOL0     C49457   8.535   7.595   9.859  0.6548  0.0064  0.4513
  367MOL0     O49458   8.676   7.405  10.122  0.0934  0.5545 -0.5608
  367MOL0     C49459   8.851   7.679  10.218 -0.2009  0.2481  0.6194
  367MOL0     C49460   8.949   7.731  10.296 -0.1870  0.1163 -0.6376
  367MOL0     N49461   9.845   7.592  10.505  0.0368 -0.3015 -0.0841
  367MOL0     N49462   9.918   7.567  10.608 -0.4434  0.4774 -0.0776
  367MOL0     C49463  10.791   7.953  10.751  0.8170  0.3609  0.1892
  367MOL0     C49464  10.907   7.912  10.694 -0.1136 -0.2015 -0.1441
  367MOL0     C49465  11.204   7.664  10.489 -0.5261 -0.1436 -0.1816
  367MOL0     C49466  11.245   7.710  10.363  0.7448  0.8200 -0.2741
  367MOL0     C49467  11.369   7.678  10.308 -0.3103  0.8461  0.2749
  367MOL0     C49468  11.465   7.608  10.383 -1.0217 -0.2437 -0.4510
  367MOL0     O49469  11.594   7.600  10.330  0.4095 -0.3169  0.6612
  367MOL0     C49470  11.697   7.544  10.408 -0.1667 -0.0191  0.9355
  367MOL0     C49471  11.823   7.549  10.331  0.6502 -0.1724  0.2124
  367MOL0     C49472  11.952   7.548  10.418 -1.4642  0.4650 -0.0029
  367MOL0     C49473  11.985   7.420  10.498 -0.7777  0.9359  0.2140
  367MOL0     C49474  12.129   7.398  10.525  0.1580  0.3822 -0.4131
  367MOL0     C49475  12.245   7.371  10.542 -0.2429 -0.2968 -1.4434
  367MOL0     C49476  11.429   7.560  10.514 -0.5386 -0.0754  0.6467
  367MOL0     C49477  11.301   7.592  10.565 -0.0774 -0.0435 -0.1949
  367MOL0     H49478  10.764   7.777  10.402 -0.1378 -0.1985  1.5959
  367MOL0     H49479  10.574   7.890  10.494  0.8709 -1.1247 -1.5891
  367MOL0     H49480  10.531   8.012  10.928  1.9320 -2.4355 -1.2955
  367MOL0     H49481  10.601   8.153  10.830  0.1391 -0.1890  1.3069
  367MOL0     H49482  10.363   8.245  10.870 -4.3733  0.0136 -1.1630
  367MOL0     H49483  10.370   8.162  10.722 -5.1209  0.8888 -0.3225
  367MOL0     H49484  10.282   7.954  10.833  0.9516  1.5914 -0.2553
  367MOL0     H49485  10.276   8.030  10.987 -0.8596 -1.9718  0.3389
  367MOL0     H49486  10.117   8.201  10.876 -0.9370 -1.2105  1.1485
  367MOL0     H49487  10.127   8.111  10.723 -0.3827 -1.6345 -0.3914
  367MOL0     H49488  10.037   7.998  10.978  7.1662 -1.3494 -0.7580
  367MOL0     H49489   9.920   8.069  10.862  0.3349  0.2208 -1.1020
  367MOL0     H49490   9.961   7.884  10.709  2.2382  0.3151 -0.3905
  367MOL0     H49491  10.092   7.807  10.793  0.9737  0.4227 -0.3804
  367MOL0     H49492   9.933   7.796  11.002 -0.6224 -1.2174 -0.4295
  367MOL0     H49493   9.808   7.827  10.885 -0.0704 -0.3306 -0.7370
  367MOL0     H49494   9.841   7.579  10.911  2.2973 -0.4414  0.0284
  367MOL0     H49495  10.004   7.593  10.853  1.3876 -0.8696 -0.4882
  367MOL0     H49496   9.649   7.716  10.730  1.2519  0.1701  2.2473
  367MOL0     H49497   9.551   7.765  10.492  1.2973 -0.1515  1.4092
  367MOL0     H49498   9.677   7.757  10.354 -3.1832  0.0570 -2.5233
  367MOL0     H49499   9.532   7.503  10.443 -1.4571  0.9873  0.5284
  367MOL0     H49500   9.609   7.556  10.292 -0.2042  1.8124 -1.0787
  367MOL0     H49501   9.360   7.568  10.243 -2.0884  0.1783  1.3512
  367MOL0     H49502   9.421   7.731  10.267  2.2488  1.3907  3.7944
  367MOL0     H49503   9.341   7.733  10.493  0.3852 -0.9258  0.3970
  367MOL0     H49504   9.270   7.575  10.468  1.5586 -2.2995 -3.0761
  367MOL0     H49505   9.165   7.477  10.265 -1.4678 -1.5566  3.5266
  367MOL0     H49506   9.086   7.319  10.105 -0.2918 -1.0560 -0.4938
  367MOL0     H49507   8.937   7.269  10.191 -1.0532  1.9655  1.7279
  367MOL0     H49508   8.927   7.332  10.028 -1.1911  0.1792  0.5810
  367MOL0     H49509   8.736   7.326   9.830  0.0289 -0.8634 -0.0738
  367MOL0     H49510   8.557   7.254   9.675  0.0713  0.3777 -1.3512
  367MOL0     H49511   8.149   7.301   9.640 -0.3629  0.3198 -3.1468
  367MOL0     H49512   8.205   7.411   9.775  0.3212  0.5906 -0.8765
  367MOL0     H49513   8.022   7.524   9.651  2.0139  1.6386  1.3339
  367MOL0     H49514   8.171   7.596   9.622  0.9026 -0.6026 -0.8334
  367MOL0     H49515   8.033   7.408   9.432  0.7444 -1.7815  0.8813
  367MOL0     H49516   8.197   7.464   9.409  1.0067 -0.0048  2.7898
  367MOL0     H49517   7.958   7.654   9.439  1.6443  3.4266  0.6122
  367MOL0     H49518   8.130   7.698   9.415  0.6300  0.5123 -0.2982
  367MOL0     H49519   7.995   7.512   9.211  1.1077 -0.4297 -0.8824
  367MOL0     H49520   8.157   7.579   9.218 -0.4077 -1.5516  1.2465
  367MOL0     H49521   8.070   7.813   9.188  0.5264 -0.5368  2.4749
  367MOL0     H49522   8.028   7.706   9.064 -2.8357  3.3423 -1.2952
  367MOL0     H49523   7.844   7.835   9.114  1.7411 -1.8623 -2.1453
  367MOL0     H49524   7.834   7.798   9.284 -0.5394 -0.6862 -0.8301
  367MOL0     H49525   7.766   7.585   9.255  1.3874  2.2019  0.2236
  367MOL0     H49526   7.815   7.580   9.083  2.1077 -0.6429  0.9122
  367MOL0     H49527   8.352   7.618   9.751 -0.0135  1.7470 -0.0298
  367MOL0     H49528   8.526   7.691   9.909 -2.0887  0.9664 -1.5858
  367MOL0     H49529   8.760   7.731  10.188 -0.4326 -1.6056 -2.1894
  367MOL0     H49530   8.935   7.829  10.340 -0.3637  0.2036 -0.8921
  367MOL0     H49531  10.787   7.989  10.853 -2.4644  0.6202  0.0645
  367MOL0     H49532  10.996   7.922  10.757 -1.5177  0.4648  1.8287
  367MOL0     H49533  11.176   7.765  10.299  2.5490 -0.9542 -4.0916
  367MOL0     H49534  11.397   7.698  10.206  1.8185 -0.5554  0.5272
  367MOL0     H49535  11.708   7.583  10.509  2.1155 -1.0764  1.1601
  367MOL0     H49536  11.676   7.438  10.428  1.2915 -0.2197  1.5183
  367MOL0     H49537  11.825   7.644  10.276 -1.4036 -1.0457 -1.4827
  367MOL0     H49538  11.820   7.463  10.263  0.4228 -1.6801  2.0468
  367MOL0     H49539  11.958   7.632  10.488 -1.1504 -0.3869  1.0089
  367MOL0     H49540  12.041   7.552  10.354 -1.5811  2.2334 -0.1115
  367MOL0     H49541  11.946   7.336  10.441 -2.5847 -0.2995  2.9994
  367MOL0     H49542  11.938   7.431  10.596 -1.0475 -0.5649  0.2697
  367MOL0     H49543  12.346   7.344  10.566 -0.8771 -1.0463  0.6421
  367MOL0     H49544  11.501   7.511  10.578 -1.5668  0.5179  2.3231
  367MOL0     H49545  11.285   7.564  10.669  1.3931  2.2212  0.7181
  368MOL0     O49546   0.058   6.253  10.620 -0.2435  0.7422  0.1248
  368MOL0     C49547   0.111   6.159  10.558  0.4288 -0.1212 -0.3682
  368MOL0     O49548   0.050   6.039  10.521 -0.2833 -0.7051  0.0775
  368MOL0     C49549  -0.080   6.033  10.559 -0.8695 -0.0954  0.2233
  368MOL0     C49550  -0.117   6.000  10.692  0.4371  1.2820  0.2203
  368MOL0     C49551  -0.246   5.983  10.728 -0.9911  0.8791 -0.0261
  368MOL0     C49552  -0.343   6.000  10.628 -0.4962 -1.0105 -0.1973
  368MOL0     O49553  -0.470   5.978  10.673  0.8536  0.7891  0.5683
  368MOL0     C49554  -0.582   5.977  10.578 -0.6361  0.6922 -0.8975
  368MOL0     C49555  -0.713   5.932  10.645 -0.1693  0.6955 -0.9172
  368MOL0     C49556  -0.740   6.011  10.777 -0.8822 -0.9503  0.7160
  368MOL0     C49557  -0.875   5.953  10.816  0.5833  0.4285 -0.4988
  368MOL0     C49558  -0.918   5.988  10.963 -0.8764  0.3915  0.1485
  368MOL0     C49559  -0.926   6.131  10.999 -0.2099  0.0735 -0.3639
  368MOL0     C49560  -1.028   6.217  10.914 -0.0335 -0.0920  0.0108
  368MOL0     C49561  -1.055   6.356  10.967 -0.3831 -0.2896  0.7088
  368MOL0     N49562  -1.113   6.361  11.100 -0.3071  0.1464  0.5194
  368MOL0     C49563  -1.038   6.373  11.218  0.0515 -0.3133 -0.0847
  368MOL0     C49564  -1.141   6.403  11.305  0.1723  0.8714 -0.2515
  368MOL0     C49565  -1.126   6.437  11.458 -0.4522 -0.1555  0.0847
  368MOL0     C49566  -1.229   6.381  11.551  0.8213 -0.1422 -0.9432
  368MOL0     C49567  -1.230   6.430  11.693  0.3181  0.2538  0.4616
  368MOL0     C49568  -1.369   6.453  11.751  0.4602 -0.3898  0.1097
  368MOL0     O49569  -1.441   6.558  11.682  0.3985 -0.0224 -0.7027
  368MOL0     C49570  -1.552   6.613  11.743 -0.2520  0.5508 -0.1520
  368MOL0     C49571  -1.614   6.551  11.857  0.0830  0.9764  0.1617
  368MOL0     C49572  -1.737   6.593  11.916 -0.2765 -1.3214 -0.6929
  368MOL0     C49573  -1.793   6.523  12.033  0.3669  0.3902 -0.4433
  368MOL0     C49574  -1.793   6.707  11.846 -0.3603 -0.3143  0.0379
  368MOL0     C49575  -1.924   6.767  11.890  0.7134 -0.3931  1.0857
  368MOL0     O49576  -1.980   6.875  11.826  0.3547  0.0017  0.2458
  368MOL0     C49577  -2.110   6.909  11.851  0.3544 -0.7643 -0.0581
  368MOL0     C49578  -2.117   7.046  11.895  0.1013  0.3144  0.4011
  368MOL0     C49579  -2.235   7.106  11.936  0.0483  0.6581 -0.0354
  368MOL0     C49580  -2.349   7.029  11.953  0.9156  0.3708  0.3626
  368MOL0     O49581  -2.463   7.101  11.994 -0.2745  0.3500 -0.6343
  368MOL0     C49582  -2.533   7.179  11.887 -1.4082  1.0654 -0.8901
  368MOL0     C49583  -2.516   7.325  11.927 -0.4321  0.4838  0.1177
  368MOL0     C49584  -2.594   7.428  11.840  0.2279 -1.2408 -0.6920
  368MOL0     C49585  -2.557   7.423  11.695 -0.7188 -0.6996 -0.0588
  368MOL0     C49586  -2.635   7.531  11.617  0.7674 -0.1330 -1.3173
  368MOL0     C49587  -2.598   7.574  11.477 -0.5676 -0.5145 -0.4322
  368MOL0     C49588  -2.706   7.664  11.420  1.4600  0.2081  0.1882
  368MOL0     C49589  -2.700   7.690  11.270  0.5020 -0.5697 -0.1190
  368MOL0    Cl49590  -2.836   7.799  11.214  0.2541 -0.0446  0.3617
  368MOL0     C49591  -2.342   6.892  11.918  0.2850  0.4137  0.1071
  368MOL0     C49592  -2.225   6.831  11.864  0.3988  0.3865  0.1326
  368MOL0     O49593  -1.982   6.716  11.992 -0.0669 -0.2799  0.4881
  368MOL0     C49594  -1.734   6.765  11.736 -0.5635  0.1396  0.1555
  368MOL0     C49595  -1.609   6.726  11.686  0.6213  1.0194  0.1740
  368MOL0     N49596  -1.263   6.407  11.240 -0.0033 -0.0748  0.1625
  368MOL0     N49597  -1.245   6.396  11.113  0.1785 -0.1894  0.1313
  368MOL0     C49598  -0.309   6.035  10.500  0.5639 -0.2306  0.8447
  368MOL0     C49599  -0.177   6.046  10.463 -0.2538 -1.3477  0.2171
  368MOL0     C49600   0.254   6.180  10.541 -0.2073  0.0879  0.7911
  368MOL0     C49601   0.345   6.078  10.493 -1.1757 -1.0532  0.2823
  368MOL0     C49602   0.485   6.099  10.497  0.6505  0.2294 -0.1788
  368MOL0     C49603   0.541   6.217  10.546 -0.8737 -0.7116  0.0611
  368MOL0     O49604   0.675   6.242  10.567  0.9753  0.2098  0.3559
  368MOL0     C49605   0.769   6.134  10.539 -0.2906 -0.0111 -0.6768
  368MOL0     C49606   0.900   6.181  10.606  0.6147  0.7655  0.7433
  368MOL0     C49607   1.023   6.097  10.567 -0.7721  0.2635 -0.2428
  368MOL0     C49608   1.140   6.139  10.658 -0.6942 -0.5907  0.4430
  368MOL0     C49609   1.269   6.085  10.608  0.2587 -0.5327 -0.0908
  368MOL0     C49610   1.368   6.044  10.559 -0.3191  0.4905  0.4338
  368MOL0     C49611   0.460   6.315  10.586  0.0699  0.6761  0.2668
  368MOL0     C49612   0.317   6.306  10.571  0.7767 -0.4320 -0.1162
  368MOL0     H49613  -0.043   5.987  10.770  0.2770  0.0207  0.1820
  368MOL0     H49614  -0.268   5.955  10.830  0.3398  2.0800  0.6285
  368MOL0     H49615  -0.588   6.081  10.545  3.6765  1.8867  1.3155
  368MOL0     H49616  -0.566   5.909  10.494 -0.0255 -1.3461  0.7769
  368MOL0     H49617  -0.790   5.940  10.568 -2.4505  0.6165  1.2508
  368MOL0     H49618  -0.699   5.825  10.660  1.4142  1.2786  2.8423
  368MOL0     H49619  -0.661   5.980  10.846  1.3492 -0.2814 -1.4039
  368MOL0     H49620  -0.741   6.119  10.765  0.4649 -0.9587  0.4293
  368MOL0     H49621  -0.937   5.993  10.736  0.3104 -1.9213 -1.5459
  368MOL0     H49622  -0.887   5.845  10.806  2.6770  0.0965  0.0439
  368MOL0     H49623  -1.014   5.939  10.979 -0.9879  1.0330  1.5657
  368MOL0     H49624  -0.850   5.950  11.040 -1.7076 -1.3388  0.0743
  368MOL0     H49625  -0.953   6.136  11.104  2.9251 -1.3944  0.6297
  368MOL0     H49626  -0.829   6.177  10.976 -1.2269  1.9888 -1.0663
  368MOL0     H49627  -1.008   6.215  10.806 -2.2304  0.7607 -0.4554
  368MOL0     H49628  -1.121   6.165  10.939 -0.8192  1.7247  1.0454
  368MOL0     H49629  -1.128   6.396  10.896  2.2308  0.2048 -1.9410
  368MOL0     H49630  -0.970   6.425  10.954 -2.7959  2.8677  0.5894
  368MOL0     H49631  -0.932   6.377  11.241 -0.1657  2.3289  0.8178
  368MOL0     H49632  -1.032   6.395  11.493  0.8471  1.8927 -0.7669
  368MOL0     H49633  -1.125   6.547  11.452  0.5645 -0.2240 -1.7331
  368MOL0     H49634  -1.223   6.273  11.566  5.0769  0.0504 -0.0687
  368MOL0     H49635  -1.331   6.400  11.516  0.1822 -1.0611  0.3097
  368MOL0     H49636  -1.168   6.518  11.704  1.8921 -0.7725  0.0604
  368MOL0     H49637  -1.183   6.353  11.755  1.7015 -0.2031 -1.0993
  368MOL0     H49638  -1.358   6.485  11.855  2.4486 -0.4670 -0.0506
  368MOL0     H49639  -1.414   6.353  11.755  0.0065 -0.1993 -0.1502
  368MOL0     H49640  -1.574   6.455  11.889  0.1844  1.3997  1.3618
  368MOL0     H49641  -1.732   6.442  12.074  0.2993  0.9128  0.7398
  368MOL0     H49642  -1.806   6.588  12.120  0.2469  1.7689 -1.4722
  368MOL0     H49643  -1.892   6.478  12.018 -0.1358  1.7046 -1.1795
  368MOL0     H49644  -2.028   7.107  11.882 -1.6800  2.7643 -0.9234
  368MOL0     H49645  -2.232   7.213  11.955  1.0401  0.1035  3.9190
  368MOL0     H49646  -2.510   7.149  11.785 -0.7600  0.6934 -0.6457
  368MOL0     H49647  -2.637   7.152  11.906 -0.1963 -2.4951  1.9318
  368MOL0     H49648  -2.558   7.337  12.027 -2.1739  3.1525 -0.8203
  368MOL0     H49649  -2.408   7.342  11.936 -0.2149 -0.9902  0.6413
  368MOL0     H49650  -2.570   7.530  11.872  0.7411 -1.0138 -1.7622
  368MOL0     H49651  -2.701   7.415  11.855  0.6221 -1.0982  3.2632
  368MOL0     H49652  -2.451   7.450  11.688 -0.2660 -2.4457 -0.6423
  368MOL0     H49653  -2.578   7.324  11.653 -1.2241 -1.0322  0.9445
  368MOL0     H49654  -2.631   7.616  11.686  1.9063  0.2776 -1.8673
  368MOL0     H49655  -2.739   7.496  11.623  1.2194 -1.2408  1.9267
  368MOL0     H49656  -2.500   7.623  11.485 -0.8504 -0.2412  2.2816
  368MOL0     H49657  -2.602   7.486  11.413 -0.1918 -1.3898  0.7046
  368MOL0     H49658  -2.704   7.762  11.469 -2.2227 -0.0696  1.1926
  368MOL0     H49659  -2.806   7.624  11.438  1.2430  0.4857 -0.3777
  368MOL0     H49660  -2.730   7.597  11.220 -6.3020  1.5628 -1.1085
  368MOL0     H49661  -2.599   7.725  11.250  1.1761 -2.6639 -0.6014
  368MOL0     H49662  -2.429   6.831  11.940  0.3767  0.6824  1.2344
  368MOL0     H49663  -2.219   6.728  11.833  4.0189 -0.5457  3.2341
  368MOL0     H49664  -1.779   6.853  11.693 -2.1557 -1.5017 -1.7383
  368MOL0     H49665  -1.568   6.781  11.601 -1.7260  0.1704 -1.5974
  368MOL0     H49666  -0.380   6.038  10.418 -0.1847 -2.1918  1.3707
  368MOL0     H49667  -0.150   6.076  10.361 -1.8550  0.3215  0.2221
  368MOL0     H49668   0.306   5.982  10.461 -2.0623 -0.4857 -0.3711
  368MOL0     H49669   0.556   6.025  10.462 -0.1964 -0.6109 -0.1411
  368MOL0     H49670   0.741   6.037  10.579  1.5267 -0.9357 -1.4971
  368MOL0     H49671   0.782   6.123  10.431 -0.8296  0.0671 -0.7493
  368MOL0     H49672   0.889   6.178  10.715  0.8725  2.5454  0.8436
  368MOL0     H49673   0.912   6.287  10.585  0.7748  0.4666 -0.7449
  368MOL0     H49674   1.054   6.120  10.465  0.4183 -0.6873 -0.1212
  368MOL0     H49675   1.002   5.990  10.578  0.2466 -0.0741 -1.3396
  368MOL0     H49676   1.115   6.095  10.755  0.2851 -0.6122  0.6934
  368MOL0     H49677   1.140   6.248  10.670 -0.3757 -0.8710  4.2563
  368MOL0     H49678   1.455   6.002  10.513  0.0853  2.1949 -0.4371
  368MOL0     H49679   0.504   6.406  10.625 -3.1738  3.2368 -1.4937
  368MOL0     H49680   0.254   6.386  10.610 -0.9174 -1.3522 -0.8473
  369MOL0     O49681   9.600   8.708   5.070 -0.5561 -0.3827 -0.7900
  369MOL0     C49682   9.610   8.827   5.114 -0.3911  0.3387 -0.0970
  369MOL0     O49683   9.508   8.917   5.110  0.3596 -0.0691 -0.2243
  369MOL0     C49684   9.388   8.868   5.083  0.1961 -0.8508 -0.6143
  369MOL0     C49685   9.319   8.796   5.183 -0.1120 -0.5553  0.0658
  369MOL0     C49686   9.193   8.741   5.145 -0.1432  1.1288  0.6369
  369MOL0     C49687   9.130   8.764   5.021  0.4145 -0.2869 -0.3520
  369MOL0     O49688   9.001   8.731   4.979  0.1334  0.6085  0.3859
  369MOL0     C49689   8.910   8.706   5.081  0.6269 -0.5648 -0.5900
  369MOL0     C49690   8.853   8.561   5.077 -0.0944 -0.3589 -0.2946
  369MOL0     C49691   8.943   8.450   5.122 -0.0087  1.0834 -0.3810
  369MOL0     C49692   8.888   8.313   5.063  0.1596  1.0235 -0.3390
  369MOL0     C49693   8.957   8.188   5.132  0.6625  0.5005  0.2976
  369MOL0     C49694   8.895   8.053   5.069 -0.7141 -0.4099  0.4259
  369MOL0     C49695   8.884   8.033   4.922 -0.0825  0.0136 -0.3031
  369MOL0     C49696   8.850   7.886   4.888 -0.8511  0.0038  0.3739
  369MOL0     N49697   8.818   7.872   4.747  0.2901  1.0888  0.7351
  369MOL0     C49698   8.728   7.951   4.668  0.3888  1.2290 -0.9723
  369MOL0     C49699   8.747   7.901   4.544  0.4898 -1.1025 -0.1919
  369MOL0     C49700   8.693   7.941   4.416  0.1862  0.1648 -0.4135
  369MOL0     C49701   8.579   7.847   4.379  1.6304 -0.7764 -0.5588
  369MOL0     C49702   8.620   7.711   4.319  0.1423  0.3686  0.3604
  369MOL0     C49703   8.626   7.728   4.170  0.2399  0.9173  0.1377
  369MOL0     O49704   8.718   7.828   4.133 -0.1669  0.7121  0.4407
  369MOL0     C49705   8.737   7.840   3.996  0.0519 -0.0565  0.3026
  369MOL0     C49706   8.816   7.745   3.944 -0.1785  0.8867  0.5362
  369MOL0     C49707   8.857   7.754   3.814 -0.1068 -0.8192  0.9612
  369MOL0     C49708   8.949   7.641   3.766 -0.0385  0.2803  0.1387
  369MOL0     C49709   8.816   7.863   3.738  0.3094 -0.1473  0.7108
  369MOL0     C49710   8.841   7.882   3.586  0.1730 -0.3774 -0.2687
  369MOL0     O49711   8.864   8.008   3.532  0.3700  0.3516 -0.3189
  369MOL0     C49712   8.911   8.018   3.405  0.8962 -0.1123  0.2024
  369MOL0     C49713   9.041   7.996   3.363 -0.0556 -0.4538 -0.4545
  369MOL0     C49714   9.096   8.019   3.243 -0.6482 -0.6082  0.8878
  369MOL0     C49715   9.008   8.067   3.145 -0.7009 -0.3194  0.5266
  369MOL0     O49716   9.054   8.076   3.019 -0.5918  0.2151  0.0099
  369MOL0     C49717   8.995   8.156   2.917  0.1769  1.0810 -0.1085
  369MOL0     C49718   9.080   8.192   2.798  0.6454  0.1185 -0.5832
  369MOL0     C49719   9.209   8.268   2.841  0.4806  0.0902 -0.0630
  369MOL0     C49720   9.328   8.240   2.745  0.6007  0.3573 -1.0270
  369MOL0     C49721   9.303   8.305   2.611  0.7607 -0.4224  0.0138
  369MOL0     C49722   9.425   8.281   2.511  1.0528 -1.4750 -1.0015
  369MOL0     C49723   9.453   8.400   2.422 -0.2148  0.5465  0.6771
  369MOL0     C49724   9.499   8.351   2.288  0.5485 -0.7944  0.0623
  369MOL0    Cl49725   9.656   8.270   2.308  0.1949  0.2796 -0.1082
  369MOL0     C49726   8.871   8.092   3.182 -0.2092 -0.1980 -0.2442
  369MOL0     C49727   8.823   8.058   3.300  0.5409 -0.1735 -0.2136
  369MOL0     O49728   8.831   7.780   3.523 -0.6460  0.1053 -0.0205
  369MOL0     C49729   8.742   7.972   3.797  0.4214 -0.5566  0.5900
  369MOL0     C49730   8.701   7.956   3.926  0.2339  0.1574 -0.9814
  369MOL0     N49731   8.851   7.810   4.551  0.2006  0.5310 -0.4846
  369MOL0     N49732   8.898   7.803   4.669 -0.0393  0.2873  0.0760
  369MOL0     C49733   9.202   8.836   4.928 -0.3934  0.5169  0.9521
  369MOL0     C49734   9.324   8.889   4.954  0.1269  0.7954 -0.8342
  369MOL0     C49735   9.745   8.870   5.152 -0.3133 -0.2253 -0.0440
  369MOL0     C49736   9.789   9.003   5.136  0.2291 -0.3628 -0.2498
  369MOL0     C49737   9.901   9.054   5.192  0.0424 -0.2285 -0.5295
  369MOL0     C49738   9.985   8.967   5.266  0.4019 -0.7455 -0.0893
  369MOL0     O49739  10.102   8.994   5.334  0.3103 -0.5402  0.1245
  369MOL0     C49740  10.139   9.122   5.370  0.1217 -0.3286  0.2648
  369MOL0     C49741  10.261   9.108   5.451 -0.2839  0.2270 -0.0259
  369MOL0     C49742  10.239   9.012   5.569  0.3310 -1.0773 -0.0455
  369MOL0     C49743  10.377   8.998   5.634  0.2441  0.1107  0.0007
  369MOL0     C49744  10.478   8.902   5.571  0.5044 -0.1517  0.4012
  369MOL0     C49745  10.573   8.832   5.527  0.3783  0.4382 -0.0859
  369MOL0     C49746   9.952   8.830   5.270 -0.3588 -0.5270 -1.0785
  369MOL0     C49747   9.833   8.783   5.218  0.0448 -0.1705 -0.7246
  369MOL0     H49748   9.365   8.774   5.279 -3.0458 -2.0259  1.2363
  369MOL0     H49749   9.143   8.677   5.217 -3.6455  1.5212 -1.2501
  369MOL0     H49750   8.944   8.717   5.184 -1.7346 -0.5174  0.2486
  369MOL0     H49751   8.833   8.782   5.065  0.0250 -0.6642  1.6341
  369MOL0     H49752   8.762   8.559   5.137  0.7123  0.0189  0.9888
  369MOL0     H49753   8.825   8.546   4.972 -1.7060  1.2650 -0.1471
  369MOL0     H49754   9.043   8.477   5.087  0.6286 -0.0715  0.4473
  369MOL0     H49755   8.944   8.454   5.232 -2.6811  0.1277 -0.2646
  369MOL0     H49756   8.780   8.301   5.073  0.2818 -0.4426 -0.6459
  369MOL0     H49757   8.905   8.318   4.955  0.7885  0.2510 -0.2836
  369MOL0     H49758   9.065   8.196   5.119  0.4272  2.7399 -0.7967
  369MOL0     H49759   8.937   8.183   5.239  0.0150  2.3922  0.3118
  369MOL0     H49760   8.954   7.969   5.108  1.4993  1.3534  1.0821
  369MOL0     H49761   8.793   8.042   5.108 -0.4900  0.4222  1.2893
  369MOL0     H49762   8.807   8.103   4.887  0.5811 -0.1205 -2.1088
  369MOL0     H49763   8.977   8.053   4.868 -0.1882 -2.3525 -1.5174
  369MOL0     H49764   8.756   7.849   4.931 -0.3190  0.9546  2.4313
  369MOL0     H49765   8.942   7.830   4.906  2.6821  4.3367 -2.0323
  369MOL0     H49766   8.656   8.023   4.706  0.3513 -0.1467  1.8247
  369MOL0     H49767   8.659   8.045   4.419 -0.9196 -0.1718 -0.6651
  369MOL0     H49768   8.768   7.927   4.338  0.9967 -1.0737  0.5508
  369MOL0     H49769   8.515   7.890   4.301  0.5433 -2.1425 -0.4645
  369MOL0     H49770   8.509   7.825   4.461  0.5609  1.4846 -0.7798
  369MOL0     H49771   8.535   7.643   4.315  1.7995 -1.9863 -5.1348
  369MOL0     H49772   8.704   7.657   4.365  1.2096  1.0969 -0.6690
  369MOL0     H49773   8.532   7.746   4.118  0.0776 -3.5105 -1.5212
  369MOL0     H49774   8.650   7.625   4.143 -1.2589  0.1163  1.6297
  369MOL0     H49775   8.839   7.656   4.001  0.1858  1.3371  1.0992
  369MOL0     H49776   8.993   7.677   3.673 -2.1850  1.0648 -0.6467
  369MOL0     H49777   9.022   7.613   3.842 -0.6095  0.4882  0.7772
  369MOL0     H49778   8.897   7.548   3.740  0.4951  0.0978 -0.2875
  369MOL0     H49779   9.112   7.972   3.441  1.0905 -0.4711 -1.4787
  369MOL0     H49780   9.201   7.998   3.230 -0.9762 -1.7331 -0.0867
  369MOL0     H49781   8.911   8.104   2.871 -0.4869  1.3876  0.7513
  369MOL0     H49782   8.970   8.254   2.959 -0.0361  0.9471  0.0726
  369MOL0     H49783   9.103   8.104   2.738 -1.2418 -0.6730 -0.2214
  369MOL0     H49784   9.018   8.247   2.727  0.9059  0.4394 -0.5667
  369MOL0     H49785   9.244   8.234   2.939  2.0245  1.3826 -0.1233
  369MOL0     H49786   9.189   8.374   2.858  0.8905 -0.3505  4.3951
  369MOL0     H49787   9.418   8.281   2.791  1.0100 -1.5022 -0.0701
  369MOL0     H49788   9.347   8.134   2.729  0.3689  0.1362  0.0806
  369MOL0     H49789   9.278   8.411   2.620 -3.9421 -1.2169 -1.0518
  369MOL0     H49790   9.220   8.265   2.552 -2.0455  3.5851  0.8427
  369MOL0     H49791   9.513   8.243   2.563  1.6653 -1.5194 -2.0356
  369MOL0     H49792   9.390   8.190   2.463 -2.2039 -2.8206  3.2650
  369MOL0     H49793   9.518   8.473   2.471  0.9140  0.0379 -0.0306
  369MOL0     H49794   9.357   8.449   2.404 -1.2179 -1.7020 -0.3784
  369MOL0     H49795   9.509   8.438   2.221  2.9076 -0.2561  1.0255
  369MOL0     H49796   9.424   8.286   2.242  1.2186 -1.6896  0.2095
  369MOL0     H49797   8.807   8.121   3.100  0.1420 -0.0094 -0.4553
  369MOL0     H49798   8.721   8.082   3.329  0.0834  1.2196 -2.7317
  369MOL0     H49799   8.719   8.068   3.753 -0.0982 -0.9535 -0.0147
  369MOL0     H49800   8.656   8.038   3.980  3.1631  0.9508  0.4727
  369MOL0     H49801   9.155   8.856   4.832 -0.9289  4.0176  1.7836
  369MOL0     H49802   9.382   8.958   4.893  2.7954  1.0734  1.7652
  369MOL0     H49803   9.732   9.081   5.086  0.7850 -0.2091 -0.6470
  369MOL0     H49804   9.917   9.162   5.187 -2.9337  0.5151  2.2803
  369MOL0     H49805  10.158   9.180   5.280  2.8155 -1.1519  0.2032
  369MOL0     H49806  10.052   9.161   5.424 -1.5587 -0.6426 -2.0907
  369MOL0     H49807  10.304   9.199   5.494 -0.3829  0.1717  0.1884
  369MOL0     H49808  10.340   9.066   5.388  0.8102 -2.2933  2.7480
  369MOL0     H49809  10.215   8.915   5.524 -0.3844 -1.0598  0.2840
  369MOL0     H49810  10.158   9.039   5.638  0.5919 -1.6252  0.4909
  369MOL0     H49811  10.361   8.958   5.735  1.3461 -2.4693 -0.7646
  369MOL0     H49812  10.435   9.091   5.643  1.8117 -1.0138  2.8111
  369MOL0     H49813  10.652   8.775   5.484  0.6771  0.9792 -0.2578
  369MOL0     H49814  10.010   8.761   5.330 -2.9249 -0.9363  1.1250
  369MOL0     H49815   9.804   8.678   5.223 -1.8648  0.3169 -0.5349
  370MOL0     O49816   7.842   4.486   0.561 -0.2291  0.0940  0.4578
  370MOL0     C49817   7.801   4.581   0.498 -0.1711  0.0243  0.5241
  370MOL0     O49818   7.666   4.620   0.494 -0.0847  0.1402 -0.0980
  370MOL0     C49819   7.565   4.534   0.538 -0.3486 -0.3254 -0.3712
  370MOL0     C49820   7.447   4.599   0.565 -0.5226 -0.2775  1.0018
  370MOL0     C49821   7.326   4.525   0.588  0.0060 -0.0019 -0.2005
  370MOL0     C49822   7.325   4.389   0.603  0.3789 -0.2065  0.4873
  370MOL0     O49823   7.224   4.306   0.638 -0.2012 -0.2208 -0.2367
  370MOL0     C49824   7.087   4.357   0.615 -0.8736 -1.1021  0.4452
  370MOL0     C49825   7.001   4.243   0.576  0.0859  0.6241 -0.1352
  370MOL0     C49826   6.844   4.271   0.587  0.6219  0.0135  0.6323
  370MOL0     C49827   6.768   4.135   0.599  0.4114 -0.4527 -0.1844
  370MOL0     C49828   6.643   4.160   0.692 -0.6291 -0.6056 -0.4171
  370MOL0     C49829   6.549   4.031   0.699 -1.3041 -0.1811  0.1813
  370MOL0     C49830   6.463   4.015   0.573  0.8732  0.2550  0.5155
  370MOL0     C49831   6.357   3.899   0.575 -0.7647  0.2999  0.0908
  370MOL0     N49832   6.239   3.935   0.658  0.1632 -0.0688  0.3933
  370MOL0     C49833   6.153   3.838   0.703 -0.9478 -0.6494 -0.1967
  370MOL0     C49834   6.062   3.905   0.771  0.1964  0.1639 -0.1465
  370MOL0     C49835   5.947   3.853   0.849  0.6116  0.8496  0.2320
  370MOL0     C49836   5.989   3.829   0.995  0.3336  0.0454  0.0032
  370MOL0     C49837   5.882   3.751   1.068 -0.4535  0.8008 -0.7713
  370MOL0     C49838   5.752   3.822   1.071 -0.8821 -0.0729  0.5085
  370MOL0     O49839   5.665   3.724   1.133  0.2916 -0.0355 -0.2121
  370MOL0     C49840   5.526   3.730   1.133 -0.0365 -0.3681 -0.1389
  370MOL0     C49841   5.454   3.814   1.038  0.3198 -0.0424 -0.9080
  370MOL0     C49842   5.314   3.822   1.036  0.8947 -0.2201  0.7262
  370MOL0     C49843   5.261   3.922   0.928  0.1343  0.8010  0.3105
  370MOL0     C49844   5.234   3.737   1.113  0.2238  0.4355 -1.4866
  370MOL0     C49845   5.087   3.725   1.087 -0.2538 -0.2481  0.2429
  370MOL0     O49846   5.028   3.607   1.115  0.0197 -0.2920 -0.1485
  370MOL0     C49847   4.896   3.606   1.130  0.6509  0.0482  0.1621
  370MOL0     C49848   4.809   3.645   1.027  0.2806  0.3557 -0.0171
  370MOL0     C49849   4.672   3.644   1.049  0.4347 -1.3359  0.1642
  370MOL0     C49850   4.614   3.615   1.173 -0.6460  0.1355  0.0291
  370MOL0     O49851   4.476   3.606   1.194  0.0731  0.2355 -0.6606
  370MOL0     C49852   4.399   3.628   1.073 -0.7768  0.4913  0.0731
  370MOL0     C49853   4.252   3.610   1.098 -0.5751  0.2569  0.5205
  370MOL0     C49854   4.196   3.720   1.196 -1.2535 -0.0265 -0.9772
  370MOL0     C49855   4.120   3.825   1.121  0.4309  1.0043 -0.7622
  370MOL0     C49856   4.036   3.916   1.216 -0.2894 -0.7974 -0.6056
  370MOL0     C49857   3.926   3.842   1.292 -1.7487 -0.2296 -0.2269
  370MOL0     C49858   3.829   3.751   1.211  0.0121 -0.5965 -0.4136
  370MOL0     C49859   3.741   3.823   1.107 -1.1704  0.1617 -0.4342
  370MOL0    Cl49860   3.685   3.975   1.185 -0.3835  0.4142  0.7639
  370MOL0     C49861   4.695   3.560   1.266 -0.5401  0.6719 -0.8140
  370MOL0     C49862   4.837   3.556   1.248  0.2645 -0.5590  0.1223
  370MOL0     O49863   5.024   3.828   1.057  0.0895 -0.3485  0.2435
  370MOL0     C49864   5.299   3.655   1.205  0.3838  0.2934  0.8894
  370MOL0     C49865   5.442   3.653   1.219 -1.0953 -0.1951 -0.4361
  370MOL0     N49866   6.079   4.047   0.743  0.0617  0.4043 -0.8074
  370MOL0     N49867   6.190   4.063   0.681 -0.0663  0.2821 -0.4452
  370MOL0     C49868   7.454   4.322   0.578  0.0614 -0.6967 -0.4651
  370MOL0     C49869   7.572   4.392   0.533  0.0589 -0.0250 -0.1030
  370MOL0     C49870   7.900   4.666   0.427 -0.4794 -0.8186  0.1701
  370MOL0     C49871   8.028   4.614   0.402 -0.0590  0.2838  0.3372
  370MOL0     C49872   8.134   4.682   0.343  0.3536  0.5283 -0.6309
  370MOL0     C49873   8.115   4.814   0.307 -0.1897 -0.4820  0.3767
  370MOL0     O49874   8.215   4.893   0.245 -0.7685 -0.1166 -0.4572
  370MOL0     C49875   8.331   4.828   0.194 -0.3023 -0.9305  0.2803
  370MOL0     C49876   8.433   4.928   0.132 -0.6619 -0.2601  0.0281
  370MOL0     C49877   8.429   5.070   0.191 -0.2145  0.6935 -0.4050
  370MOL0     C49878   8.502   5.099   0.328  0.1614 -0.6264 -0.3701
  370MOL0     C49879   8.647   5.101   0.317  0.2714 -0.5432 -0.2012
  370MOL0     C49880   8.766   5.092   0.313  0.6836  0.0835  0.3565
  370MOL0     C49881   7.996   4.878   0.350  0.5488  0.5107 -0.8663
  370MOL0     C49882   7.886   4.804   0.407 -1.0350 -0.4285  0.3338
  370MOL0     H49883   7.439   4.706   0.545  2.3821  0.0076  0.8809
  370MOL0     H49884   7.237   4.585   0.606 -0.5485 -0.7211 -0.4807
  370MOL0     H49885   7.058   4.397   0.713  0.3843 -1.5513  1.0253
  370MOL0     H49886   7.073   4.440   0.545 -0.2709  0.0419  1.6206
  370MOL0     H49887   7.024   4.206   0.476  1.4766  2.4818 -0.5657
  370MOL0     H49888   7.025   4.162   0.645  1.6800  1.7752  0.7409
  370MOL0     H49889   6.822   4.340   0.669 -0.2186  1.5621 -0.8250
  370MOL0     H49890   6.812   4.325   0.497  0.3810  2.2269  1.9728
  370MOL0     H49891   6.744   4.096   0.500  0.2300  3.4159 -1.8261
  370MOL0     H49892   6.821   4.055   0.651 -1.3970 -1.2249  0.5830
  370MOL0     H49893   6.678   4.178   0.794  1.9157  1.3117 -1.5327
  370MOL0     H49894   6.586   4.247   0.657 -1.5739 -0.1301  2.0846
  370MOL0     H49895   6.614   3.948   0.730  0.8638  0.4977 -2.1910
  370MOL0     H49896   6.485   4.038   0.787  0.2040  1.2082  1.2238
  370MOL0     H49897   6.415   4.112   0.560 -0.8376 -0.6777 -0.5483
  370MOL0     H49898   6.522   4.004   0.482  1.9173  3.1994  0.7383
  370MOL0     H49899   6.409   3.810   0.612  0.6434  0.7898 -0.6284
  370MOL0     H49900   6.328   3.868   0.474  1.6420 -1.8109 -0.0503
  370MOL0     H49901   6.182   3.734   0.699  2.0862  0.0379  1.1124
  370MOL0     H49902   5.864   3.925   0.845 -0.1909 -0.0168  0.8064
  370MOL0     H49903   5.905   3.760   0.811  0.1588  1.7412 -1.5595
  370MOL0     H49904   6.009   3.921   1.050 -1.4344 -0.9397  2.4715
  370MOL0     H49905   6.070   3.756   0.991 -1.0870 -1.5572 -1.2578
  370MOL0     H49906   5.906   3.712   1.168 -2.8811 -1.1305 -0.8616
  370MOL0     H49907   5.845   3.660   1.020 -1.7262  0.2564  1.1088
  370MOL0     H49908   5.725   3.841   0.967 -2.3805 -1.6124  0.5637
  370MOL0     H49909   5.763   3.920   1.119 -0.8827  0.1776  0.0038
  370MOL0     H49910   5.509   3.874   0.966 -0.7037  0.1780 -1.5401
  370MOL0     H49911   5.189   3.873   0.862 -0.7560 -2.0697  3.1144
  370MOL0     H49912   5.224   4.010   0.982  1.4590  1.5282  0.0781
  370MOL0     H49913   5.346   3.957   0.868 -0.6417 -2.0636 -2.7701
  370MOL0     H49914   4.843   3.683   0.931 -1.5596  0.8071 -0.5290
  370MOL0     H49915   4.615   3.671   0.961 -0.4503 -1.1719  0.7786
  370MOL0     H49916   4.408   3.733   1.041 -1.9998  0.0174 -1.9800
  370MOL0     H49917   4.431   3.560   0.994 -2.9254  0.8833 -1.2218
  370MOL0     H49918   4.198   3.607   1.003  0.2645  1.7300 -0.0412
  370MOL0     H49919   4.252   3.518   1.157 -1.3410  0.1780  0.3987
  370MOL0     H49920   4.283   3.759   1.250  0.5006 -2.9598 -1.5044
  370MOL0     H49921   4.132   3.672   1.271  0.2092 -2.3159 -1.1123
  370MOL0     H49922   4.196   3.888   1.073 -1.1078  1.4303 -2.7598
  370MOL0     H49923   4.055   3.774   1.049  0.9205 -2.1751  0.8816
  370MOL0     H49924   3.989   3.996   1.158  0.2027  1.2821  1.7538
  370MOL0     H49925   4.102   3.960   1.290  3.3929 -0.5840 -3.7209
  370MOL0     H49926   3.969   3.769   1.361  0.0298  0.4732 -0.5383
  370MOL0     H49927   3.873   3.913   1.355  0.5922 -0.2177  1.8936
  370MOL0     H49928   3.742   3.715   1.268 -0.9785  0.1132 -1.4353
  370MOL0     H49929   3.883   3.665   1.171  0.6989 -1.5616  2.3362
  370MOL0     H49930   3.657   3.763   1.073  0.6150 -0.5580 -4.1056
  370MOL0     H49931   3.801   3.847   1.018  2.0873  2.2878  2.0826
  370MOL0     H49932   4.658   3.518   1.359  2.5484 -1.4613 -0.3854
  370MOL0     H49933   4.895   3.506   1.325 -1.6928 -0.8553  1.4777
  370MOL0     H49934   5.246   3.593   1.277 -1.1183 -0.6368 -0.9308
  370MOL0     H49935   5.479   3.583   1.293 -0.7656 -0.1678 -0.5711
  370MOL0     H49936   7.450   4.214   0.590  1.0146 -0.5930  1.2258
  370MOL0     H49937   7.655   4.328   0.506 -1.0102 -2.6493  2.3727
  370MOL0     H49938   8.046   4.511   0.431 -2.3480 -0.3985 -0.4615
  370MOL0     H49939   8.220   4.621   0.320  2.0595  3.1826 -1.7995
  370MOL0     H49940   8.388   4.780   0.274 -0.0842  1.8671  1.9177
  370MOL0     H49941   8.298   4.761   0.113 -0.3973  0.4829 -0.8834
  370MOL0     H49942   8.422   4.933   0.023 -0.8209 -1.2603 -0.0102
  370MOL0     H49943   8.532   4.898   0.166 -0.0576  4.0301  2.9125
  370MOL0     H49944   8.327   5.107   0.198  0.2257  1.7505  0.8546
  370MOL0     H49945   8.470   5.133   0.111  2.4268 -1.5515 -0.9703
  370MOL0     H49946   8.470   5.041   0.415  1.1663  3.9895  3.4933
  370MOL0     H49947   8.485   5.201   0.363 -0.4071 -2.1293  4.4549
  370MOL0     H49948   8.870   5.108   0.294  0.3058  3.0934  0.3946
  370MOL0     H49949   7.985   4.984   0.331  0.1535  0.4262 -1.1339
  370MOL0     H49950   7.805   4.869   0.439  0.1896  0.9237  0.7668
  371MOL0     O49951   9.140   9.227  10.278  0.1061 -0.0359 -0.2567
  371MOL0     C49952   9.211   9.129  10.252 -0.1243  0.3722  0.1918
  371MOL0     O49953   9.196   9.008  10.313 -0.5322  0.1026 -0.1585
  371MOL0     C49954   9.091   8.986  10.399  0.0847 -1.0930  0.2326
  371MOL0     C49955   8.987   8.911  10.357  1.0262 -0.5148 -0.1927
  371MOL0     C49956   8.875   8.884  10.440 -0.1948 -0.4131 -0.2750
  371MOL0     C49957   8.862   8.956  10.562 -0.2434  0.2806 -0.7533
  371MOL0     O49958   8.748   8.940  10.637  0.2078 -0.5325 -0.4546
  371MOL0     C49959   8.747   8.947  10.783 -0.1971 -0.1545 -0.1296
  371MOL0     C49960   8.678   8.818  10.843 -0.4348 -0.5351 -0.3953
  371MOL0     C49961   8.690   8.801  10.997  0.1241  1.0398 -0.9837
  371MOL0     C49962   8.623   8.676  11.059 -0.6718 -0.1065  0.8739
  371MOL0     C49963   8.638   8.700  11.204  0.5661 -0.5537  0.0569
  371MOL0     C49964   8.557   8.589  11.275 -0.7272  0.0567  0.1815
  371MOL0     C49965   8.578   8.610  11.425 -0.5220 -0.0005  0.4150
  371MOL0     C49966   8.487   8.513  11.506  0.2447 -0.3017 -0.1397
  371MOL0     N49967   8.344   8.526  11.476 -0.2062 -0.2134  0.1031
  371MOL0     C49968   8.272   8.642  11.505 -0.4425  0.1852  0.0454
  371MOL0     C49969   8.159   8.611  11.450  0.1505 -0.3914 -0.3649
  371MOL0     C49970   8.033   8.697  11.457 -0.5088 -0.3358 -0.7360
  371MOL0     C49971   7.910   8.637  11.383  0.5704  0.2903  0.4426
  371MOL0     C49972   7.858   8.501  11.421  1.6507  0.7273 -0.2449
  371MOL0     C49973   7.720   8.461  11.371  0.1963  0.3309  0.0241
  371MOL0     O49974   7.629   8.575  11.363  0.1854 -0.2070  0.4626
  371MOL0     C49975   7.501   8.554  11.367 -0.3098 -0.3559  0.6386
  371MOL0     C49976   7.451   8.489  11.479 -0.0932  0.2873  0.1797
  371MOL0     C49977   7.314   8.486  11.497 -0.3602 -0.2817  0.5598
  371MOL0     C49978   7.275   8.421  11.633 -0.1179 -0.6350  0.2333
  371MOL0     C49979   7.223   8.541  11.402 -0.9945 -0.1033 -0.4925
  371MOL0     C49980   7.078   8.537  11.413 -0.5787  0.8314 -0.4541
  371MOL0     O49981   7.011   8.623  11.324  0.2605  0.3610 -0.7360
  371MOL0     C49982   6.872   8.624  11.314  0.0536  0.0167 -0.2265
  371MOL0     C49983   6.827   8.650  11.187 -0.8720  0.4574 -0.0917
  371MOL0     C49984   6.693   8.655  11.155 -0.2310 -0.3081  0.2735
  371MOL0     C49985   6.593   8.627  11.254 -0.4799  0.5000  0.4717
  371MOL0     O49986   6.461   8.615  11.206 -0.3058 -0.0653 -0.3411
  371MOL0     C49987   6.371   8.601  11.324  1.0405  0.3278  0.4582
  371MOL0     C49988   6.221   8.595  11.295  0.4908 -1.0869 -0.2202
  371MOL0     C49989   6.185   8.715  11.212 -0.5686 -0.2087  0.2784
  371MOL0     C49990   6.039   8.729  11.171 -0.0343  0.1919  0.4845
  371MOL0     C49991   6.004   8.648  11.047  0.5874  0.7036  0.2954
  371MOL0     C49992   5.843   8.651  11.042  0.4342  0.5599 -0.1089
  371MOL0     C49993   5.784   8.516  10.999 -0.7577  0.2391  0.1206
  371MOL0     C49994   5.630   8.529  11.023 -0.8267  0.0835 -0.3226
  371MOL0    Cl49995   5.598   8.543  11.200  0.2021 -0.3363  0.1695
  371MOL0     C49996   6.643   8.617  11.388  0.3328  0.1979 -0.3270
  371MOL0     C49997   6.779   8.615  11.417 -0.7765 -0.7267  0.1142
  371MOL0     O49998   7.025   8.443  11.471  0.0353 -0.1091  0.7055
  371MOL0     C49999   7.277   8.601  11.287  0.1940  0.0087 -0.1901
  371MOL0     C50000   7.416   8.619  11.276  0.6873  0.0516  0.8003
  371MOL0     N50001   8.163   8.486  11.390 -0.0490  1.0162 -1.0604
  371MOL0     N50002   8.270   8.433  11.406  0.8754 -0.0031 -0.2850
  371MOL0     C50003   8.973   9.033  10.608  0.0516  0.0541 -0.3984
  371MOL0     C50004   9.089   9.040  10.529  0.9084 -0.1467 -0.1988
  371MOL0     C50005   9.310   9.132  10.137 -1.0209 -0.1753  0.1320
  371MOL0     C50006   9.383   9.252  10.106 -0.4993  0.3382 -0.7416
  371MOL0     C50007   9.476   9.248  10.008 -0.0848 -0.4918  0.0357
  371MOL0     C50008   9.513   9.127   9.939  0.2746 -0.6865 -0.1037
  371MOL0     O50009   9.611   9.127   9.846  0.8150  0.0220  0.8925
  371MOL0     C50010   9.734   9.139   9.914 -0.3720 -0.6561 -0.3444
  371MOL0     C50011   9.836   9.057   9.846  0.0884  0.2688  0.5415
  371MOL0     C50012   9.911   9.141   9.737  0.6232  0.1090  0.0878
  371MOL0     C50013   9.991   9.073   9.625 -0.2367 -1.7890  0.1086
  371MOL0     C50014  10.087   8.976   9.681  0.4432  0.7824 -1.2467
  371MOL0     C50015  10.173   8.900   9.731 -0.2009 -0.7221 -0.3465
  371MOL0     C50016   9.435   9.017   9.964 -0.4896 -0.3792 -0.4722
  371MOL0     C50017   9.342   9.012  10.069  0.3815  0.1676 -0.1697
  371MOL0     H50018   8.979   8.864  10.260  1.9250  0.4763 -0.7734
  371MOL0     H50019   8.785   8.836  10.403 -2.6317  3.4056  0.0638
  371MOL0     H50020   8.848   8.962  10.821 -0.2435  0.0641 -0.0905
  371MOL0     H50021   8.685   9.030  10.818 -0.1437  0.0905 -0.6034
  371MOL0     H50022   8.572   8.827  10.817  0.0977  2.2264 -2.0269
  371MOL0     H50023   8.724   8.730  10.796  1.2958 -0.2733  0.7093
  371MOL0     H50024   8.795   8.792  11.027 -0.2992 -0.1444  0.2446
  371MOL0     H50025   8.639   8.884  11.047 -0.0572 -0.7643  2.1010
  371MOL0     H50026   8.522   8.664  11.021  0.3821 -1.5041 -1.7501
  371MOL0     H50027   8.689   8.592  11.036 -1.5889 -0.5293 -0.3665
  371MOL0     H50028   8.741   8.694  11.240  0.9318  2.0417 -0.3825
  371MOL0     H50029   8.595   8.792  11.244  1.8146 -1.0222  2.7264
  371MOL0     H50030   8.450   8.584  11.254 -0.8156 -0.7433  0.7973
  371MOL0     H50031   8.596   8.491  11.244  1.6764  0.6615  1.0382
  371MOL0     H50032   8.680   8.600  11.463  0.1506  0.3370 -1.2172
  371MOL0     H50033   8.544   8.708  11.460  1.6968 -0.3533  4.0662
  371MOL0     H50034   8.489   8.532  11.613 -0.4862  1.0390 -0.3393
  371MOL0     H50035   8.518   8.413  11.474  4.1707  0.6001  0.4148
  371MOL0     H50036   8.302   8.728  11.563 -0.3042  1.5472 -1.9580
  371MOL0     H50037   8.013   8.718  11.563 -1.9701 -0.4079 -0.9801
  371MOL0     H50038   8.048   8.798  11.417  0.9623 -0.3799 -0.3483
  371MOL0     H50039   7.944   8.624  11.280  0.1910 -3.4697  0.6570
  371MOL0     H50040   7.831   8.711  11.391  0.5750  0.3362  0.0580
  371MOL0     H50041   7.856   8.492  11.530 -1.5699  1.0149 -0.1680
  371MOL0     H50042   7.924   8.422  11.384  0.0601 -1.0983  0.6082
  371MOL0     H50043   7.682   8.389  11.443 -1.6424  0.1283 -1.0911
  371MOL0     H50044   7.730   8.406  11.276 -2.4469  1.7267 -1.1670
  371MOL0     H50045   7.517   8.445  11.552  1.9922  1.1484 -1.1029
  371MOL0     H50046   7.227   8.327  11.604 -0.3116 -0.7617  0.9663
  371MOL0     H50047   7.362   8.392  11.693  1.0693  1.2654 -0.4408
  371MOL0     H50048   7.198   8.481  11.682  2.0991  1.9594  0.8622
  371MOL0     H50049   6.908   8.671  11.118 -1.0373  1.1077 -0.0947
  371MOL0     H50050   6.655   8.655  11.054  1.8247 -2.7661 -0.6262
  371MOL0     H50051   6.398   8.508  11.374 -1.3142  0.3842  2.0156
  371MOL0     H50052   6.391   8.691  11.384  2.6785  1.0644 -1.1061
  371MOL0     H50053   6.184   8.508  11.239 -2.7994  0.3932 -0.5776
  371MOL0     H50054   6.152   8.595  11.379 -0.6323 -0.4321 -1.1199
  371MOL0     H50055   6.244   8.703  11.121 -0.8909 -2.1606  0.2934
  371MOL0     H50056   6.221   8.807  11.258  1.8418 -0.6551 -0.5549
  371MOL0     H50057   5.976   8.700  11.256  0.2909  1.4353  1.1915
  371MOL0     H50058   6.013   8.835  11.158 -1.9276 -0.4779 -1.9206
  371MOL0     H50059   6.028   8.541  11.054  0.2522  0.5190 -1.0368
  371MOL0     H50060   6.048   8.691  10.957  1.1911  2.4115  1.3547
  371MOL0     H50061   5.810   8.670  11.145 -0.0932 -3.1305  0.5314
  371MOL0     H50062   5.797   8.732  10.984  2.6673  2.0132  0.0277
  371MOL0     H50063   5.818   8.431  11.059 -0.5553 -0.1813 -0.5781
  371MOL0     H50064   5.806   8.497  10.894 -2.0204  1.7117 -0.4607
  371MOL0     H50065   5.582   8.445  10.974  2.9342 -1.1931 -2.2443
  371MOL0     H50066   5.601   8.626  10.981  0.3384  0.2502 -0.7758
  371MOL0     H50067   6.578   8.599  11.473 -1.5662  2.1581 -1.2565
  371MOL0     H50068   6.825   8.599  11.514  0.3459 -0.5841 -0.3704
  371MOL0     H50069   7.207   8.623  11.207 -1.9329 -0.3416  1.4696
  371MOL0     H50070   7.456   8.680  11.196 -1.1982  1.3651  0.7888
  371MOL0     H50071   8.971   9.086  10.703  1.5498 -1.1500  0.3222
  371MOL0     H50072   9.161   9.100  10.584  2.0334 -0.4769 -1.2913
  371MOL0     H50073   9.361   9.345  10.158 -2.5960 -0.4481 -0.1177
  371MOL0     H50074   9.528   9.336   9.973  0.5321 -1.2101 -0.9079
  371MOL0     H50075   9.759   9.245   9.918 -1.2927 -0.4662  0.7338
  371MOL0     H50076   9.734   9.112  10.021  2.4020 -0.4833 -0.2264
  371MOL0     H50077   9.791   8.967   9.802 -1.4878 -1.6108  5.3549
  371MOL0     H50078   9.904   9.018   9.922  0.6869  2.0251  0.9394
  371MOL0     H50079   9.978   9.214   9.782  0.6654  2.0461 -2.8465
  371MOL0     H50080   9.836   9.209   9.697 -3.2918 -3.1755  1.1921
  371MOL0     H50081  10.048   9.148   9.568 -0.5890  0.9274  3.0556
  371MOL0     H50082   9.928   9.030   9.547  0.4400 -1.3660 -0.6853
  371MOL0     H50083  10.250   8.834   9.765  1.3353 -0.1535 -2.4789
  371MOL0     H50084   9.451   8.923   9.913 -3.8803 -1.1914 -0.2517
  371MOL0     H50085   9.291   8.918  10.087  0.4811 -0.0049 -0.7942
  372MOL0     O50086   6.358   6.692  10.047 -0.8058  0.4131 -0.8863
  372MOL0     C50087   6.380   6.816  10.047  0.7930  0.9059  0.0561
  372MOL0     O50088   6.282   6.907  10.048  0.1464 -1.4766  0.4752
  372MOL0     C50089   6.153   6.865  10.058 -0.2540 -0.0216 -0.1399
  372MOL0     C50090   6.066   6.910  10.164 -0.6419  0.2180  0.4570
  372MOL0     C50091   5.931   6.866  10.167  0.2043 -0.1729 -0.3757
  372MOL0     C50092   5.882   6.804  10.055  0.4766  0.7469 -0.0459
  372MOL0     O50093   5.745   6.783  10.057 -0.5145 -1.1744  0.2163
  372MOL0     C50094   5.702   6.680  10.146 -0.2018 -0.6700  0.4351
  372MOL0     C50095   5.713   6.536  10.103 -0.8135  0.1678 -0.1034
  372MOL0     C50096   5.597   6.488  10.017  0.5191  0.6638 -0.7669
  372MOL0     C50097   5.480   6.451  10.105  0.7111  0.2518 -0.0130
  372MOL0     C50098   5.355   6.431  10.024 -0.8364  0.8327 -0.9250
  372MOL0     C50099   5.242   6.534  10.045  0.1770 -0.5319  0.1599
  372MOL0     C50100   5.144   6.519   9.933  0.3731  0.1375  0.1415
  372MOL0     C50101   5.063   6.394   9.946  0.4526 -0.5016 -0.8766
  372MOL0     N50102   4.970   6.396  10.063 -0.5893 -0.5593 -0.0137
  372MOL0     C50103   4.877   6.490  10.079 -0.1024  0.3049  0.2196
  372MOL0     C50104   4.839   6.470  10.207  0.4879 -0.3121 -0.1191
  372MOL0     C50105   4.712   6.542  10.248 -0.5243  0.5168  0.0227
  372MOL0     C50106   4.587   6.497  10.174  0.2258  0.0302 -0.6364
  372MOL0     C50107   4.545   6.350  10.174 -0.4058 -0.8482  0.9611
  372MOL0     C50108   4.561   6.274  10.301 -0.0936  0.1694 -0.1151
  372MOL0     O50109   4.508   6.337  10.421 -0.2506 -0.1822  0.5123
  372MOL0     C50110   4.371   6.340  10.455 -0.0684 -0.8551 -0.2599
  372MOL0     C50111   4.346   6.423  10.569  0.5535 -0.3453 -0.1694
  372MOL0     C50112   4.206   6.443  10.618 -0.8705  0.1910  0.2399
  372MOL0     C50113   4.199   6.537  10.737  0.4084  0.1697 -0.3341
  372MOL0     C50114   4.097   6.385  10.551  0.0404  0.6685 -0.7238
  372MOL0     C50115   3.962   6.396  10.603  0.1114 -0.0224 -0.1966
  372MOL0     O50116   3.881   6.286  10.606  0.5559  0.9801  0.2875
  372MOL0     C50117   3.750   6.301  10.658 -0.7026 -0.3153  1.1505
  372MOL0     C50118   3.709   6.372  10.771  0.3504  1.0375 -0.1585
  372MOL0     C50119   3.577   6.368  10.819 -0.0576  0.7000  0.4216
  372MOL0     C50120   3.484   6.296  10.750  0.9563 -0.2407 -0.0043
  372MOL0     O50121   3.350   6.286  10.779 -0.1006  0.1428  0.3894
  372MOL0     C50122   3.284   6.351  10.890 -0.1397  0.0862  0.4598
  372MOL0     C50123   3.141   6.308  10.918  0.2115  0.5304 -0.0524
  372MOL0     C50124   3.089   6.360  11.047  0.9580  0.9036 -0.9062
  372MOL0     C50125   2.944   6.308  11.072 -0.4283 -0.7812  0.0414
  372MOL0     C50126   2.915   6.304  11.224  0.4120 -0.2952  0.0183
  372MOL0     C50127   2.769   6.248  11.242  0.3964  0.5833 -0.8011
  372MOL0     C50128   2.735   6.248  11.393  0.1375 -1.2022  0.5544
  372MOL0     C50129   2.599   6.218  11.426  0.2590  0.5517  0.1368
  372MOL0    Cl50130   2.592   6.044  11.370 -0.4187  0.0039  0.1554
  372MOL0     C50131   3.519   6.227  10.633  0.3902 -0.2135 -0.5262
  372MOL0     C50132   3.653   6.230  10.592  0.2076 -0.5273  0.0837
  372MOL0     O50133   3.924   6.507  10.638 -0.1366  0.0780  0.5506
  372MOL0     C50134   4.126   6.301  10.435 -0.6810 -0.0314  0.5446
  372MOL0     C50135   4.263   6.281  10.384  1.2464  0.4522 -0.4902
  372MOL0     N50136   4.913   6.377  10.264 -0.0114 -0.0946 -0.3821
  372MOL0     N50137   5.006   6.342  10.179 -0.5357  0.0272 -0.1889
  372MOL0     C50138   5.963   6.767   9.954 -0.0033 -0.0078  0.1427
  372MOL0     C50139   6.098   6.795   9.954 -0.0162  0.4368  0.4162
  372MOL0     C50140   6.514   6.865  10.064 -0.6049  0.4453  0.2621
  372MOL0     C50141   6.530   7.004  10.043 -0.4768 -0.4543 -0.7617
  372MOL0     C50142   6.661   7.055  10.042 -0.1112  0.0560  0.8415
  372MOL0     C50143   6.770   6.975  10.071  0.2299 -0.1974  0.8892
  372MOL0     O50144   6.901   7.016  10.059 -0.4714 -0.4015 -0.2954
  372MOL0     C50145   6.926   7.156  10.049  0.3594  0.1859 -0.9466
  372MOL0     C50146   7.073   7.181  10.082  1.0559 -0.5418  0.0213
  372MOL0     C50147   7.096   7.172  10.230 -0.7152  0.6364  0.6915
  372MOL0     C50148   7.243   7.190  10.274 -0.7970 -0.7007  0.7157
  372MOL0     C50149   7.331   7.069  10.237 -0.6741 -0.3464 -0.1370
  372MOL0     C50150   7.395   6.969  10.250 -0.0503  0.2336  0.1176
  372MOL0     C50151   6.749   6.841  10.109 -1.0553  0.1676  0.4580
  372MOL0     C50152   6.623   6.782  10.098 -1.0748  0.1826 -0.0915
  372MOL0     H50153   6.102   6.959  10.254 -1.3286  3.3097 -0.8421
  372MOL0     H50154   5.869   6.897  10.250 -0.4373 -1.6110 -0.2788
  372MOL0     H50155   5.776   6.692  10.226 -2.0879  1.3423  2.0360
  372MOL0     H50156   5.606   6.702  10.194 -0.4458 -0.0169 -0.3311
  372MOL0     H50157   5.799   6.525  10.037 -0.2069 -3.6508  1.0472
  372MOL0     H50158   5.714   6.479  10.196  0.3906 -1.0184 -0.8065
  372MOL0     H50159   5.563   6.562   9.945 -1.5163 -0.0785 -0.6470
  372MOL0     H50160   5.619   6.394   9.966 -0.2899 -0.5829  1.0545
  372MOL0     H50161   5.491   6.354  10.155  0.3225  1.1897  1.9978
  372MOL0     H50162   5.453   6.515  10.190 -0.7792 -2.8997  2.0723
  372MOL0     H50163   5.373   6.427   9.916  0.1078  4.7578 -1.0710
  372MOL0     H50164   5.315   6.332  10.047  2.1025 -1.0412 -3.0946
  372MOL0     H50165   5.202   6.540  10.146 -2.2336 -1.2365 -0.7062
  372MOL0     H50166   5.292   6.631  10.031  1.9505 -1.2287  1.2886
  372MOL0     H50167   5.077   6.604   9.918  0.1851 -0.2514 -1.4134
  372MOL0     H50168   5.203   6.511   9.842 -0.4570  1.5554 -0.5609
  372MOL0     H50169   5.128   6.307   9.957  3.2763  1.6314  0.6504
  372MOL0     H50170   5.021   6.391   9.845  1.4160 -0.7376 -1.2906
  372MOL0     H50171   4.834   6.558  10.006  0.1115 -0.1919 -0.3857
  372MOL0     H50172   4.688   6.538  10.355 -0.8312 -1.5210 -0.0846
  372MOL0     H50173   4.720   6.649  10.230 -1.3756  0.9864  2.1230
  372MOL0     H50174   4.575   6.544  10.076  1.1497  0.3393 -0.6053
  372MOL0     H50175   4.508   6.540  10.237  0.7925  0.4579 -0.2101
  372MOL0     H50176   4.602   6.312  10.090 -0.6718 -0.6148  0.6727
  372MOL0     H50177   4.437   6.363  10.162 -0.3598  4.9104  3.2743
  372MOL0     H50178   4.668   6.254  10.312  0.1395  0.7225 -1.2268
  372MOL0     H50179   4.505   6.181  10.292 -2.2917  1.4282 -0.3243
  372MOL0     H50180   4.432   6.464  10.620 -0.8231  0.4271  1.6665
  372MOL0     H50181   4.299   6.556  10.779 -0.9888  0.8885  3.0052
  372MOL0     H50182   4.148   6.628  10.706 -0.2291  0.4667  1.4627
  372MOL0     H50183   4.143   6.493  10.820  1.3824  1.9841  1.3654
  372MOL0     H50184   3.783   6.429  10.826  2.6604 -0.9466 -1.0345
  372MOL0     H50185   3.549   6.422  10.908  1.6624  0.1165  1.3499
  372MOL0     H50186   3.348   6.349  10.979  3.0869  1.3895 -1.6569
  372MOL0     H50187   3.285   6.458  10.863  0.9138 -0.6254 -2.7503
  372MOL0     H50188   3.073   6.334  10.837  0.8387  1.8137 -0.1932
  372MOL0     H50189   3.137   6.199  10.925  0.0144  0.5609  0.3720
  372MOL0     H50190   3.093   6.469  11.045 -0.1590  1.0892  1.8061
  372MOL0     H50191   3.145   6.331  11.137 -0.0957  0.0625 -0.5035
  372MOL0     H50192   2.874   6.373  11.020 -2.3818 -2.0345  0.9959
  372MOL0     H50193   2.933   6.210  11.024 -0.5984 -0.6507 -0.1877
  372MOL0     H50194   2.904   6.406  11.263  0.2000 -0.9423  1.7040
  372MOL0     H50195   2.978   6.252  11.296  2.3801 -0.4938 -1.7209
  372MOL0     H50196   2.697   6.313  11.191 -1.1739 -0.3314  0.1643
  372MOL0     H50197   2.774   6.143  11.211  1.2895  0.6877 -1.0104
  372MOL0     H50198   2.767   6.349  11.420 -0.4079 -0.7244 -0.5249
  372MOL0     H50199   2.796   6.174  11.445  2.2426  0.7535  1.0258
  372MOL0     H50200   2.529   6.286  11.375 -0.8214 -2.1686 -2.3082
  372MOL0     H50201   2.586   6.223  11.534 -0.7908  0.2966  0.0294
  372MOL0     H50202   3.446   6.167  10.579 -2.7071 -1.1452  4.0852
  372MOL0     H50203   3.678   6.174  10.502  0.6131  1.4520 -1.0827
  372MOL0     H50204   4.041   6.254  10.387 -2.2325  2.1528  1.0123
  372MOL0     H50205   4.285   6.224  10.294  2.2198 -2.3316  1.3784
  372MOL0     H50206   5.912   6.715   9.873  0.2512 -1.2900  0.7763
  372MOL0     H50207   6.148   6.766   9.863 -1.6119  0.4812 -0.5244
  372MOL0     H50208   6.457   7.082  10.021 -0.3182 -0.0384  0.1231
  372MOL0     H50209   6.670   7.159  10.016 -1.0632 -0.7154 -3.3160
  372MOL0     H50210   6.907   7.169   9.942 -4.5033 -1.4771 -0.5755
  372MOL0     H50211   6.866   7.224  10.110  2.6778 -0.2991  2.1142
  372MOL0     H50212   7.101   7.281  10.048 -0.9616 -0.0526 -0.3290
  372MOL0     H50213   7.138   7.104  10.040  0.0256 -1.8383  0.7284
  372MOL0     H50214   7.071   7.069  10.260  1.0412 -0.5459 -1.6098
  372MOL0     H50215   7.041   7.250  10.284 -2.3457 -0.8270  1.2616
  372MOL0     H50216   7.259   7.216  10.379 -1.3250  1.4948  0.3054
  372MOL0     H50217   7.280   7.274  10.215 -2.2602 -3.1646 -4.2253
  372MOL0     H50218   7.457   6.884  10.269 -0.5035 -0.0176  0.4782
  372MOL0     H50219   6.839   6.783  10.123  0.4095  1.6479 -2.1131
  372MOL0     H50220   6.614   6.678  10.126  1.3103 -0.1285 -0.2951
  373MOL0     O50221   7.404   1.714  10.843  0.6480  0.3345 -0.3896
  373MOL0     C50222   7.491   1.809  10.836  0.2541  0.0681  0.2150
  373MOL0     O50223   7.463   1.947  10.861  0.1885 -0.1019  1.0520
  373MOL0     C50224   7.329   1.968  10.870 -0.3589  0.1937 -0.0565
  373MOL0     C50225   7.254   2.000  10.754  0.0132 -0.6619 -0.3358
  373MOL0     C50226   7.124   2.046  10.772  0.6251  0.3109 -0.5763
  373MOL0     C50227   7.070   2.061  10.899 -0.2327 -1.3383 -0.3749
  373MOL0     O50228   6.949   2.121  10.928 -0.3876 -0.2381  0.1174
  373MOL0     C50229   6.845   2.046  10.872  0.4304  0.1021 -0.4083
  373MOL0     C50230   6.712   2.125  10.901 -0.0608 -0.0412 -0.6779
  373MOL0     C50231   6.587   2.060  10.833 -0.8674 -0.1244 -0.1016
  373MOL0     C50232   6.453   2.111  10.897  0.1334 -0.1106 -0.4390
  373MOL0     C50233   6.433   2.258  10.856  0.5081  0.2339 -0.4487
  373MOL0     C50234   6.291   2.308  10.902 -0.2630  0.6144  0.3360
  373MOL0     C50235   6.184   2.262  10.812 -0.4907  0.0285 -0.6010
  373MOL0     C50236   6.204   2.298  10.664  0.3566  0.1831  0.6577
  373MOL0     N50237   6.190   2.440  10.638  0.1237 -0.7833 -0.4972
  373MOL0     C50238   6.073   2.505  10.636  0.1900 -0.9954  0.6669
  373MOL0     C50239   6.099   2.635  10.612 -0.3853 -0.3937 -0.2854
  373MOL0     C50240   5.991   2.744  10.606  0.7807 -1.1102 -0.2979
  373MOL0     C50241   5.951   2.781  10.744  0.5375 -0.3004 -0.2377
  373MOL0     C50242   5.834   2.878  10.761  0.5126  0.3121 -0.2074
  373MOL0     C50243   5.826   2.922  10.903  0.2438 -0.8109 -0.8240
  373MOL0     O50244   5.788   2.801  10.977  0.0744 -1.2830  0.0215
  373MOL0     C50245   5.730   2.825  11.100  0.5398 -0.8504 -0.2857
  373MOL0     C50246   5.789   2.893  11.205 -0.3005 -1.1161  0.2959
  373MOL0     C50247   5.717   2.930  11.321 -0.1588 -1.1397 -0.4415
  373MOL0     C50248   5.804   3.000  11.429  0.2110 -0.8384 -0.5753
  373MOL0     C50249   5.583   2.884  11.334  0.2981  0.2134 -0.1315
  373MOL0     C50250   5.500   2.900  11.457 -0.6753  0.0981  0.1898
  373MOL0     O50251   5.374   2.848  11.438 -0.1818 -0.1189 -0.7482
  373MOL0     C50252   5.283   2.844  11.542  0.8547  0.2807  0.7300
  373MOL0     C50253   5.285   2.752  11.651 -0.7256 -1.4993 -0.4364
  373MOL0     C50254   5.172   2.738  11.739 -0.7706 -0.8936  0.1218
  373MOL0     C50255   5.061   2.817  11.729  0.6492  0.4222 -0.0439
  373MOL0     O50256   4.951   2.787  11.807 -0.3886 -0.1023  0.1080
  373MOL0     C50257   4.818   2.800  11.754  1.1828 -0.1954 -0.3580
  373MOL0     C50258   4.729   2.793  11.876  0.0038  0.7507 -0.2790
  373MOL0     C50259   4.585   2.823  11.843  0.5325  0.6009 -0.5006
  373MOL0     C50260   4.501   2.707  11.772  0.9298 -0.6097 -0.5114
  373MOL0     C50261   4.359   2.755  11.771  0.1767  0.9150 -0.3056
  373MOL0     C50262   4.258   2.656  11.712  0.1706  1.0986  0.7785
  373MOL0     C50263   4.124   2.711  11.689 -0.5505  0.6833  1.0981
  373MOL0     C50264   4.037   2.745  11.807 -0.2693 -0.1491 -0.1098
  373MOL0    Cl50265   3.888   2.826  11.758 -0.0015 -0.1566  0.0330
  373MOL0     C50266   5.053   2.904  11.618  0.3701 -1.4972 -0.6311
  373MOL0     C50267   5.162   2.922  11.525 -0.5645 -0.9081 -0.6855
  373MOL0     O50268   5.540   2.966  11.551  0.4614 -0.0699  0.6648
  373MOL0     C50269   5.524   2.810  11.225 -1.1146  0.4262  0.1170
  373MOL0     C50270   5.597   2.788  11.110  0.3996  0.4645 -0.6541
  373MOL0     N50271   6.239   2.644  10.602 -0.2504  0.1995 -0.0924
  373MOL0     N50272   6.290   2.528  10.612 -0.2691  0.8420  0.1785
  373MOL0     C50273   7.141   2.020  11.011 -0.0485 -0.7785  0.0242
  373MOL0     C50274   7.274   1.975  10.994  0.0546  0.2473  0.5082
  373MOL0     C50275   7.628   1.761  10.842 -0.8186 -0.0648 -0.1015
  373MOL0     C50276   7.660   1.617  10.807 -0.1997 -0.4195 -0.3824
  373MOL0     C50277   7.787   1.569  10.846  0.7976 -0.1646 -0.2581
  373MOL0     C50278   7.892   1.654  10.878 -0.1136  0.5248 -0.1078
  373MOL0     O50279   8.026   1.605  10.881  0.3700 -0.0479 -0.0751
  373MOL0     C50280   8.128   1.679  10.949  0.0876 -0.7349  0.1835
  373MOL0     C50281   8.248   1.594  10.948  0.2962  0.5824  0.4889
  373MOL0     C50282   8.222   1.460  11.022 -0.6585  0.3476 -0.5843
  373MOL0     C50283   8.178   1.469  11.169  0.4824 -0.6208 -0.1318
  373MOL0     C50284   8.206   1.350  11.252  0.4067  0.0850 -0.8888
  373MOL0     C50285   8.225   1.257  11.332 -0.1410 -0.1422  0.1973
  373MOL0     C50286   7.866   1.788  10.878 -0.2188  0.5706 -0.0914
  373MOL0     C50287   7.738   1.846  10.870  0.3183  0.1154 -0.2674
  373MOL0     H50288   7.303   1.987  10.658  1.8376 -0.0191  0.4839
  373MOL0     H50289   7.074   2.080  10.682  1.0801 -0.3025 -1.0692
  373MOL0     H50290   6.857   2.037  10.763  0.0170  0.2858 -0.4724
  373MOL0     H50291   6.843   1.951  10.924 -1.5640  0.7761  0.8697
  373MOL0     H50292   6.701   2.135  11.009  0.9611  3.4373 -0.7506
  373MOL0     H50293   6.715   2.220  10.846  1.0918 -0.5078 -1.4656
  373MOL0     H50294   6.578   2.095  10.730  0.5186 -0.0747 -0.2292
  373MOL0     H50295   6.607   1.952  10.828  0.4235  0.1475 -1.5821
  373MOL0     H50296   6.372   2.046  10.863  1.2420 -1.8378  0.1535
  373MOL0     H50297   6.457   2.104  11.006 -0.8498  1.6345 -0.2537
  373MOL0     H50298   6.509   2.318  10.908  1.3788  0.8672 -2.3713
  373MOL0     H50299   6.454   2.273  10.750  0.1838 -1.8302 -0.8417
  373MOL0     H50300   6.273   2.267  11.001  0.4283 -1.7190 -0.4432
  373MOL0     H50301   6.287   2.417  10.908 -3.2063  0.7341 -1.6975
  373MOL0     H50302   6.176   2.155  10.831 -0.6851  0.3769  1.5599
  373MOL0     H50303   6.092   2.296  10.860 -0.5746 -0.1200 -0.6584
  373MOL0     H50304   6.125   2.246  10.609  1.8380 -0.9773 -0.4867
  373MOL0     H50305   6.300   2.267  10.620  0.6147  0.8044  0.7797
  373MOL0     H50306   5.976   2.458  10.646 -0.9870  1.1855  0.1622
  373MOL0     H50307   6.044   2.827  10.559  0.4824 -1.3541 -1.0798
  373MOL0     H50308   5.899   2.721  10.552  0.2812  0.0421  0.0274
  373MOL0     H50309   6.037   2.830  10.789 -0.7588  2.7528 -0.8680
  373MOL0     H50310   5.921   2.694  10.804  3.0784 -0.0739  1.5019
  373MOL0     H50311   5.738   2.835  10.731  0.7464  0.3322 -0.9961
  373MOL0     H50312   5.850   2.966  10.698  1.0643 -0.3263 -0.9738
  373MOL0     H50313   5.747   2.998  10.906  1.5156  0.5128  0.5866
  373MOL0     H50314   5.918   2.971  10.935 -0.8005 -0.1717  1.4623
  373MOL0     H50315   5.892   2.925  11.195 -0.9451  0.4865 -1.8062
  373MOL0     H50316   5.766   3.022  11.530 -0.8500 -0.6317 -1.0093
  373MOL0     H50317   5.887   2.939  11.464 -1.9202 -1.1260  5.0375
  373MOL0     H50318   5.832   3.099  11.390 -1.7877  0.3503  0.8132
  373MOL0     H50319   5.373   2.691  11.666  0.7621  0.0187 -2.4925
  373MOL0     H50320   5.174   2.669  11.823 -1.8512 -0.0614  0.8690
  373MOL0     H50321   4.797   2.892  11.699  0.4254  0.3917  0.8768
  373MOL0     H50322   4.784   2.718  11.690  0.2422 -1.1690  1.3287
  373MOL0     H50323   4.742   2.703  11.937  1.3011 -0.8168 -2.6884
  373MOL0     H50324   4.756   2.880  11.937 -1.4503  0.0352  1.4541
  373MOL0     H50325   4.562   2.914  11.787  0.4680 -0.6551 -2.6453
  373MOL0     H50326   4.542   2.838  11.942 -0.2680  0.7682 -0.8687
  373MOL0     H50327   4.530   2.681  11.670 -1.9772 -3.4628 -0.7520
  373MOL0     H50328   4.508   2.610  11.821  1.1381  0.0560  0.8287
  373MOL0     H50329   4.353   2.846  11.710  1.9522 -1.1652 -3.9714
  373MOL0     H50330   4.320   2.784  11.869  0.8585  1.3991 -0.1752
  373MOL0     H50331   4.301   2.616  11.620  2.5977 -1.7046  2.9267
  373MOL0     H50332   4.245   2.565  11.771 -1.3366  3.0605  3.6998
  373MOL0     H50333   4.073   2.645  11.618 -2.3171  2.8900  0.1837
  373MOL0     H50334   4.136   2.806  11.635 -2.5436  0.9317  1.0019
  373MOL0     H50335   4.086   2.798  11.890 -3.2528 -1.2724  2.5583
  373MOL0     H50336   4.002   2.651  11.851 -0.3753  0.3573  0.9386
  373MOL0     H50337   4.973   2.977  11.621  1.6361 -0.0498  1.9295
  373MOL0     H50338   5.155   3.007  11.458  1.2657  1.0118  1.3701
  373MOL0     H50339   5.421   2.776  11.228 -0.4900 -1.6403 -0.4013
  373MOL0     H50340   5.559   2.733  11.024  0.3986 -1.4646  0.5344
  373MOL0     H50341   7.101   2.027  11.111  0.3395 -1.8854  0.2667
  373MOL0     H50342   7.337   1.945  11.078 -0.3548 -2.7513 -0.1391
  373MOL0     H50343   7.577   1.549  10.788 -0.6466 -0.0385  0.1741
  373MOL0     H50344   7.815   1.465  10.860  3.5756  0.9258  5.0700
  373MOL0     H50345   8.141   1.764  10.880  0.6460 -2.0151 -1.3454
  373MOL0     H50346   8.096   1.716  11.047  1.5928  0.3770  0.2885
  373MOL0     H50347   8.323   1.638  11.015 -1.2772  3.0490  0.7472
  373MOL0     H50348   8.291   1.582  10.848  1.5194 -1.2076  1.1718
  373MOL0     H50349   8.315   1.401  11.024 -0.6359  0.1407  4.1632
  373MOL0     H50350   8.152   1.393  10.970 -0.9996  0.2018  0.0549
  373MOL0     H50351   8.070   1.485  11.160  0.2497 -2.4580 -1.3299
  373MOL0     H50352   8.222   1.550  11.228 -1.5146 -1.5852  2.8963
  373MOL0     H50353   8.243   1.172  11.395  0.9762 -0.9854 -1.2076
  373MOL0     H50354   7.950   1.856  10.892  2.4132 -2.0928 -1.8133
  373MOL0     H50355   7.725   1.951  10.894  0.9263 -0.1741  1.4924
  374MOL0     O50356   8.620   0.419   0.259  0.5718  0.7306 -0.0444
  374MOL0     C50357   8.677   0.398   0.147 -0.1065 -0.2310 -0.1340
  374MOL0     O50358   8.621   0.417   0.020 -0.0115 -0.3888  0.3000
  374MOL0     C50359   8.490   0.455   0.026  0.0147 -0.1704  0.1750
  374MOL0     C50360   8.398   0.361   0.066  0.3876 -0.0891  0.5492
  374MOL0     C50361   8.263   0.395   0.066  0.1087  0.1503 -0.1639
  374MOL0     C50362   8.221   0.526   0.034 -0.0299  0.0208 -0.7070
  374MOL0     O50363   8.090   0.560   0.057  0.3915 -0.9808  0.5265
  374MOL0     C50364   8.066   0.697   0.081 -0.1943 -0.2189  0.0493
  374MOL0     C50365   7.924   0.725   0.140  0.1909  0.6366  0.4636
  374MOL0     C50366   7.858   0.866   0.109 -0.0217  0.3461 -0.9977
  374MOL0     C50367   7.945   0.988   0.125  0.5964 -0.0684 -1.1193
  374MOL0     C50368   7.867   1.121   0.113 -0.0459  0.6287  0.6577
  374MOL0     C50369   7.828   1.146  -0.038  0.4783  0.5840  0.2996
  374MOL0     C50370   7.805   1.294  -0.062 -0.0423  0.5008  0.3399
  374MOL0     C50371   7.748   1.323  -0.198 -1.1820 -0.2728 -0.4143
  374MOL0     N50372   7.670   1.449  -0.202 -0.3952 -0.0840 -0.0217
  374MOL0     C50373   7.539   1.457  -0.238 -0.4932  0.3760  0.5862
  374MOL0     C50374   7.509   1.587  -0.222  0.7678  0.3788 -0.4133
  374MOL0     C50375   7.374   1.644  -0.226  0.7851  0.0391  0.0678
  374MOL0     C50376   7.308   1.630  -0.088  0.5258 -0.7987  0.1124
  374MOL0     C50377   7.172   1.698  -0.087  1.1207  0.6405  0.4129
  374MOL0     C50378   7.145   1.718   0.066 -0.0696  0.0462 -0.0788
  374MOL0     O50379   7.015   1.778   0.087  0.3687  0.0328 -0.4262
  374MOL0     C50380   6.901   1.703   0.094 -0.7435  1.2841  0.1190
  374MOL0     C50381   6.885   1.560   0.101 -0.2312 -0.1087 -0.2218
  374MOL0     C50382   6.752   1.510   0.108 -0.0688  0.5991 -0.1031
  374MOL0     C50383   6.736   1.361   0.083 -0.3169 -1.0106 -0.0525
  374MOL0     C50384   6.636   1.586   0.131  0.1615  0.0562 -0.1762
  374MOL0     C50385   6.498   1.547   0.163  0.5750  0.5077 -0.6827
  374MOL0     O50386   6.400   1.644   0.172 -0.0851  0.0975  0.1612
  374MOL0     C50387   6.265   1.614   0.200  0.0365 -0.3930  0.2044
  374MOL0     C50388   6.199   1.482   0.188  0.0942 -1.2557  0.9210
  374MOL0     C50389   6.058   1.476   0.214 -0.3302 -0.5086  0.4851
  374MOL0     C50390   5.981   1.578   0.252  0.1072 -0.2994 -0.2089
  374MOL0     O50391   5.845   1.577   0.271  0.7127 -0.0711  0.3062
  374MOL0     C50392   5.786   1.449   0.305  0.3327  0.0584  0.4404
  374MOL0     C50393   5.638   1.455   0.331 -0.8093 -0.0985 -0.0776
  374MOL0     C50394   5.551   1.472   0.202 -0.0695 -0.6360 -0.2068
  374MOL0     C50395   5.411   1.438   0.246  0.1886  0.2687 -0.4292
  374MOL0     C50396   5.311   1.492   0.142 -0.2413 -0.8124  0.1309
  374MOL0     C50397   5.163   1.458   0.173 -0.3329 -0.1341 -0.1709
  374MOL0     C50398   5.083   1.514   0.059 -0.0813  1.0253 -0.9579
  374MOL0     C50399   4.931   1.462   0.074  0.0252 -0.0749  0.8669
  374MOL0    Cl50400   4.905   1.283   0.040 -0.4281 -0.4024 -0.4043
  374MOL0     C50401   6.050   1.703   0.256 -0.5532 -0.4322 -0.8995
  374MOL0     C50402   6.193   1.721   0.244  0.8417 -0.1956 -0.9486
  374MOL0     O50403   6.485   1.433   0.207  0.0069 -0.2612  0.1146
  374MOL0     C50404   6.655   1.727   0.147 -0.0045  0.3227 -0.4431
  374MOL0     C50405   6.786   1.782   0.125 -0.0532 -0.1520 -0.0741
  374MOL0     N50406   7.623   1.663  -0.203 -0.1439  0.6934  0.5355
  374MOL0     N50407   7.717   1.577  -0.185 -0.1034 -0.4053 -0.7039
  374MOL0     C50408   8.325   0.610  -0.007  0.7244  0.7800 -0.7839
  374MOL0     C50409   8.452   0.578  -0.030 -0.3331  0.3354  0.3900
  374MOL0     C50410   8.812   0.347   0.154 -0.7279  0.3497 -0.4654
  374MOL0     C50411   8.855   0.295   0.272  0.1190  0.4170  0.2165
  374MOL0     C50412   8.991   0.267   0.296 -0.2920  0.2667  0.4932
  374MOL0     C50413   9.089   0.300   0.196  0.0359 -0.2302 -0.8843
  374MOL0     O50414   9.222   0.285   0.205 -0.1101  0.0670 -0.4492
  374MOL0     C50415   9.267   0.198   0.307  0.9885  0.3585 -1.1278
  374MOL0     C50416   9.415   0.187   0.298 -0.7594  0.5570 -0.3491
  374MOL0     C50417   9.486   0.319   0.260 -0.3228  0.2345 -0.3574
  374MOL0     C50418   9.641   0.294   0.246 -0.9300 -0.5615 -0.1252
  374MOL0     C50419   9.692   0.288   0.387 -0.0561  0.1753  0.5932
  374MOL0     C50420   9.740   0.309   0.497  0.4193  0.3304  1.1561
  374MOL0     C50421   9.042   0.343   0.075  0.1790 -0.8219 -0.8891
  374MOL0     C50422   8.910   0.366   0.057  0.8592 -0.5923  0.0181
  374MOL0     H50423   8.431   0.258   0.073 -2.8375 -1.4063 -1.4528
  374MOL0     H50424   8.190   0.324   0.104 -1.9650  3.3472  2.3651
  374MOL0     H50425   8.137   0.742   0.151 -0.1018 -0.5088  0.1423
  374MOL0     H50426   8.082   0.758  -0.009 -1.5877  0.9365  0.5435
  374MOL0     H50427   7.869   0.651   0.080  3.2547 -0.9455 -0.6326
  374MOL0     H50428   7.913   0.713   0.248  0.7556  0.9047  0.5562
  374MOL0     H50429   7.819   0.863   0.007 -0.9212 -1.5709 -0.6394
  374MOL0     H50430   7.769   0.873   0.171 -0.2714 -0.7390 -1.2167
  374MOL0     H50431   7.980   0.986   0.229 -1.5299  3.4189 -0.1727
  374MOL0     H50432   8.026   0.982   0.053  1.1749 -1.0283 -0.4211
  374MOL0     H50433   7.777   1.132   0.174  0.5013  0.2398  1.5459
  374MOL0     H50434   7.937   1.192   0.157 -0.6208  0.5448  1.7428
  374MOL0     H50435   7.920   1.125  -0.093  0.3941  1.0915 -0.0425
  374MOL0     H50436   7.745   1.080  -0.065  0.2086  1.8383 -2.2546
  374MOL0     H50437   7.745   1.348   0.012 -0.3178  1.8791 -0.8479
  374MOL0     H50438   7.903   1.344  -0.059 -0.6078  1.6220  0.6867
  374MOL0     H50439   7.687   1.240  -0.235 -2.2094  0.6649 -0.8779
  374MOL0     H50440   7.830   1.335  -0.270 -0.7267 -1.5433 -0.1374
  374MOL0     H50441   7.473   1.385  -0.286  0.2942  0.0154  0.0103
  374MOL0     H50442   7.383   1.751  -0.250  2.0293  0.1605  0.9864
  374MOL0     H50443   7.312   1.600  -0.304 -0.7013  0.3089  1.0592
  374MOL0     H50444   7.388   1.662  -0.020  1.3466 -0.9908 -0.7477
  374MOL0     H50445   7.284   1.524  -0.070  1.2868 -1.6610 -3.2636
  374MOL0     H50446   7.091   1.639  -0.131 -0.2787  3.6270 -1.3411
  374MOL0     H50447   7.172   1.793  -0.140  0.4293  0.1159 -0.5589
  374MOL0     H50448   7.221   1.785   0.107  0.6435 -1.0831  0.5065
  374MOL0     H50449   7.160   1.629   0.128  0.9031  0.1323 -0.1882
  374MOL0     H50450   6.967   1.491   0.081  0.1294 -0.1185  1.1778
  374MOL0     H50451   6.663   1.360   0.001 -0.8277  2.2341  0.1972
  374MOL0     H50452   6.832   1.318   0.055  0.3576 -0.2955  1.0751
  374MOL0     H50453   6.690   1.310   0.168 -4.9089  0.2159 -1.5245
  374MOL0     H50454   6.254   1.395   0.153  0.5393 -0.3064 -0.8551
  374MOL0     H50455   6.003   1.385   0.191  0.1059 -0.5845 -0.3012
  374MOL0     H50456   5.799   1.380   0.221  0.0191  0.1769  0.2926
  374MOL0     H50457   5.840   1.410   0.391  2.3545  0.2413 -0.7010
  374MOL0     H50458   5.606   1.362   0.379  0.1083 -0.9728 -1.0940
  374MOL0     H50459   5.614   1.528   0.408  0.7383 -0.8892  1.2096
  374MOL0     H50460   5.592   1.410   0.122 -1.1080 -0.0193 -1.2374
  374MOL0     H50461   5.562   1.578   0.176 -1.4864  0.0712  1.8137
  374MOL0     H50462   5.395   1.330   0.248  3.4115 -0.2659  0.7055
  374MOL0     H50463   5.386   1.466   0.349  0.0044  0.8124 -0.6146
  374MOL0     H50464   5.342   1.458   0.043  1.8818  2.6817 -0.5649
  374MOL0     H50465   5.328   1.599   0.126  0.3074 -1.3396 -3.8069
  374MOL0     H50466   5.146   1.350   0.185 -1.0354 -0.1772 -1.3837
  374MOL0     H50467   5.141   1.512   0.265  0.2770  3.1098 -1.8007
  374MOL0     H50468   5.135   1.485  -0.033  3.1696  0.2789  0.9457
  374MOL0     H50469   5.091   1.623   0.069 -2.7552  1.3232 -1.5024
  374MOL0     H50470   4.864   1.521   0.011  0.3758 -0.6566 -0.0702
  374MOL0     H50471   4.896   1.475   0.176  0.5280  1.1358  0.8983
  374MOL0     H50472   5.983   1.787   0.271 -0.5330 -0.7574  1.3900
  374MOL0     H50473   6.241   1.818   0.248 -0.1439  0.2715  0.6260
  374MOL0     H50474   6.570   1.793   0.159 -2.4401 -1.7693 -4.2085
  374MOL0     H50475   6.802   1.889   0.138  2.5091 -0.7151  2.3027
  374MOL0     H50476   8.282   0.704  -0.041 -1.6923  0.5782  1.4565
  374MOL0     H50477   8.519   0.646  -0.082 -2.0551 -0.1203 -2.6389
  374MOL0     H50478   8.781   0.272   0.348 -0.9998 -0.5779 -1.1013
  374MOL0     H50479   9.021   0.233   0.395 -0.4817  3.4362  1.7589
  374MOL0     H50480   9.243   0.239   0.405 -0.7625 -2.0149 -0.4766
  374MOL0     H50481   9.211   0.104   0.300 -0.4437  0.9734  1.1575
  374MOL0     H50482   9.432   0.121   0.213 -2.1688  2.2786 -2.0370
  374MOL0     H50483   9.460   0.143   0.388 -0.4331  3.1704  0.8659
  374MOL0     H50484   9.477   0.394   0.338  2.1082 -1.8307  2.1315
  374MOL0     H50485   9.457   0.360   0.163 -2.0940  1.4367  0.6420
  374MOL0     H50486   9.687   0.376   0.189  3.3508 -1.1617  2.0389
  374MOL0     H50487   9.658   0.194   0.204  0.2161 -1.5119  2.3915
  374MOL0     H50488   9.785   0.310   0.594  3.5449 -0.3047 -0.1561
  374MOL0     H50489   9.106   0.369  -0.009  0.6150 -1.0462 -0.6338
  374MOL0     H50490   8.877   0.395  -0.042 -1.0238 -0.3402  0.6740
  375MOL0     O50491   2.202   9.796   5.313  0.3523 -0.0985 -0.2025
  375MOL0     C50492   2.151   9.809   5.423  0.1348 -1.2141 -0.6193
  375MOL0     O50493   2.214   9.860   5.533 -0.0633  0.4568 -1.1502
  375MOL0     C50494   2.325   9.927   5.511 -0.6966  0.6125 -0.4098
  375MOL0     C50495   2.343  10.041   5.437 -0.2216  0.0470  1.1865
  375MOL0     C50496   2.474  10.097   5.423  0.0621  0.0053  0.6961
  375MOL0     C50497   2.590  10.045   5.488  0.2004  0.0912 -0.0421
  375MOL0     O50498   2.695  10.130   5.468 -0.0427 -0.1609  0.8940
  375MOL0     C50499   2.823  10.097   5.529 -0.2095  0.6980  0.9153
  375MOL0     C50500   2.830  10.144   5.675  0.5629  0.0535 -0.4692
  375MOL0     C50501   2.986  10.149   5.724  0.9748  0.2604  0.7133
  375MOL0     C50502   3.030  10.005   5.752  0.6288 -0.0948 -0.0436
  375MOL0     C50503   3.167  10.013   5.808  0.3095  0.2241 -0.0424
  375MOL0     C50504   3.277  10.090   5.716 -0.0159 -0.0308 -0.2545
  375MOL0     C50505   3.422  10.035   5.740 -0.3485 -0.2491 -0.0706
  375MOL0     C50506   3.460   9.896   5.682  0.3550 -0.2900  0.5714
  375MOL0     N50507   3.601   9.855   5.693 -0.5478 -0.4610 -0.2115
  375MOL0     C50508   3.692   9.901   5.790  0.6172 -0.6364 -0.3608
  375MOL0     C50509   3.812   9.838   5.775 -0.4794 -0.4099 -0.4958
  375MOL0     C50510   3.922   9.833   5.874  0.3917 -0.4223  0.3347
  375MOL0     C50511   4.025   9.933   5.828  0.3883  0.4492  0.0123
  375MOL0     C50512   4.161   9.903   5.902  0.3261 -0.1731 -1.2531
  375MOL0     C50513   4.139   9.907   6.052 -0.1853 -0.2005  0.7309
  375MOL0     O50514   4.265   9.919   6.129  0.4703 -0.0091  0.2342
  375MOL0     C50515   4.360   9.818   6.131 -1.1809  0.1066  0.4290
  375MOL0     C50516   4.356   9.700   6.059 -0.0092 -0.7778 -0.1803
  375MOL0     C50517   4.457   9.608   6.051  0.1127  0.6420 -0.1538
  375MOL0     C50518   4.430   9.478   5.968  1.3126  0.0758 -0.7569
  375MOL0     C50519   4.568   9.627   6.136 -0.4894 -0.3190 -0.0495
  375MOL0     C50520   4.678   9.531   6.161  0.5193  0.3520  0.0919
  375MOL0     O50521   4.741   9.544   6.289 -0.0130  0.2308  0.7050
  375MOL0     C50522   4.832   9.451   6.331 -0.6020 -0.4610 -0.1390
  375MOL0     C50523   4.948   9.496   6.402  0.1732 -0.3224  1.0302
  375MOL0     C50524   5.020   9.404   6.479  0.4218  0.5749 -0.5457
  375MOL0     C50525   4.991   9.264   6.475  1.0604  0.2396 -0.0740
  375MOL0     O50526   5.060   9.158   6.539  0.1368 -0.5444 -0.5205
  375MOL0     C50527   5.163   9.184   6.634 -0.4134  0.1155 -0.0649
  375MOL0     C50528   5.114   9.201   6.776  0.0236 -0.3236 -0.0816
  375MOL0     C50529   4.984   9.110   6.798  0.1448 -0.1328  0.1011
  375MOL0     C50530   4.977   9.061   6.942  0.1781 -0.3699  0.1084
  375MOL0     C50531   4.881   9.146   7.030  0.4757  0.1598  0.0927
  375MOL0     C50532   4.892   9.120   7.180  0.0562  0.2075 -0.0682
  375MOL0     C50533   4.849   8.982   7.214 -0.6075  0.1218  0.2249
  375MOL0     C50534   4.864   8.959   7.369  0.7748 -0.1717  1.0806
  375MOL0    Cl50535   4.880   8.793   7.412  0.3037 -0.3867 -0.0936
  375MOL0     C50536   4.882   9.226   6.398  0.7577  0.3646 -0.3691
  375MOL0     C50537   4.804   9.314   6.329  0.5212 -0.1375 -0.7702
  375MOL0     O50538   4.724   9.467   6.065  0.0310 -0.3627 -0.6464
  375MOL0     C50539   4.590   9.758   6.193 -0.0980 -0.7861 -0.6671
  375MOL0     C50540   4.483   9.846   6.197  0.2589 -0.4338 -0.3096
  375MOL0     N50541   3.797   9.755   5.666 -0.0616 -0.5365 -0.3492
  375MOL0     N50542   3.670   9.770   5.617 -0.4783  0.6223  0.2003
  375MOL0     C50543   2.572   9.943   5.570  0.2190  0.6181  0.0266
  375MOL0     C50544   2.441   9.880   5.583  0.3664  0.0863  0.3390
  375MOL0     C50545   2.003   9.784   5.429 -0.3512  0.1626 -0.2143
  375MOL0     C50546   1.925   9.762   5.312  0.3665  0.2505 -0.4616
  375MOL0     C50547   1.789   9.732   5.319  0.3147 -0.5717 -0.1138
  375MOL0     C50548   1.718   9.743   5.449  0.1569  0.1674  0.5730
  375MOL0     O50549   1.582   9.756   5.465 -0.8363 -0.4500  0.5050
  375MOL0     C50550   1.513   9.659   5.386 -0.1676  0.0406 -0.1980
  375MOL0     C50551   1.409   9.730   5.303  0.0021  1.0983  0.0653
  375MOL0     C50552   1.326   9.841   5.370  0.2293 -0.4560 -0.3228
  375MOL0     C50553   1.188   9.860   5.305 -0.0729 -0.1497 -0.9649
  375MOL0     C50554   1.219   9.919   5.174 -0.1366 -0.5193 -0.2173
  375MOL0     C50555   1.234   9.951   5.057  0.0057  0.3158 -0.1984
  375MOL0     C50556   1.797   9.777   5.559  0.6016 -0.4099  0.3911
  375MOL0     C50557   1.935   9.788   5.552 -0.9427 -0.2873  0.5332
  375MOL0     H50558   2.272  10.096   5.376  0.1593  0.8746  1.4778
  375MOL0     H50559   2.485  10.178   5.352  0.0094 -0.7843 -0.2384
  375MOL0     H50560   2.841   9.989   5.532  3.2046  1.1549  1.9836
  375MOL0     H50561   2.906  10.145   5.476  1.5423 -4.1738 -1.3269
  375MOL0     H50562   2.791  10.246   5.686  1.5470  0.4231 -0.2930
  375MOL0     H50563   2.764  10.088   5.742  0.2164  1.8603  0.7706
  375MOL0     H50564   3.054  10.203   5.656 -0.0685  1.3800  0.5281
  375MOL0     H50565   2.981  10.203   5.819  1.5926  0.6141  0.5555
  375MOL0     H50566   2.955   9.953   5.813 -0.4558 -1.3738 -2.3450
  375MOL0     H50567   3.033   9.945   5.661 -2.4352 -1.0743  0.3935
  375MOL0     H50568   3.155  10.060   5.906  0.6532  1.2803 -0.4867
  375MOL0     H50569   3.202   9.911   5.828 -2.1428 -0.8039 -0.6715
  375MOL0     H50570   3.245  10.085   5.611  2.1459 -0.8025 -0.9137
  375MOL0     H50571   3.270  10.196   5.741 -2.0239 -0.3294  0.6679
  375MOL0     H50572   3.492  10.107   5.697 -0.3257  0.3251  0.9154
  375MOL0     H50573   3.449  10.038   5.846  0.3000  0.1816 -0.2386
  375MOL0     H50574   3.431   9.891   5.577  1.0756  0.3979  0.3320
  375MOL0     H50575   3.398   9.821   5.732  0.9152  0.0524  1.8103
  375MOL0     H50576   3.663   9.954   5.880  2.0173  1.2188 -0.9276
  375MOL0     H50577   3.880   9.858   5.972 -0.1374 -0.4340  0.1192
  375MOL0     H50578   3.966   9.734   5.888 -0.6583 -0.9749 -0.0874
  375MOL0     H50579   3.997  10.037   5.843 -1.1984 -0.0408  0.6595
  375MOL0     H50580   4.048   9.913   5.723  1.4113 -1.1938  0.5106
  375MOL0     H50581   4.230   9.983   5.875  1.7802 -1.4026 -1.3494
  375MOL0     H50582   4.202   9.807   5.869  0.8894  0.3592 -2.1379
  375MOL0     H50583   4.074   9.827   6.090 -1.7976  0.3827 -0.6606
  375MOL0     H50584   4.077   9.994   6.075 -2.4842 -2.1302  2.4065
  375MOL0     H50585   4.262   9.681   6.007 -0.6564  2.3171 -0.3753
  375MOL0     H50586   4.372   9.504   5.878  0.7317  1.2784 -0.0676
  375MOL0     H50587   4.522   9.424   5.947 -0.3381 -2.8061 -1.0921
  375MOL0     H50588   4.359   9.410   6.016  1.0797 -0.4723 -1.8357
  375MOL0     H50589   4.968   9.602   6.396  1.1842 -0.5733 -1.0374
  375MOL0     H50590   5.109   9.443   6.526 -0.6314 -0.2011  2.3134
  375MOL0     H50591   5.223   9.093   6.628  0.0493  0.0133  3.6961
  375MOL0     H50592   5.219   9.273   6.604  0.3135 -0.2427  0.1846
  375MOL0     H50593   5.195   9.186   6.848 -1.2567 -1.2743  1.2090
  375MOL0     H50594   5.072   9.301   6.791 -1.3814 -1.3344  4.0625
  375MOL0     H50595   4.991   9.019   6.738 -0.3535 -2.3881  3.2110
  375MOL0     H50596   4.900   9.173   6.770  0.3729  0.9521  1.7196
  375MOL0     H50597   4.936   8.960   6.940  1.8650 -1.1043 -1.5423
  375MOL0     H50598   5.078   9.051   6.984  1.3109  0.3651 -2.2182
  375MOL0     H50599   4.781   9.140   6.986  0.1282 -0.3061  0.9122
  375MOL0     H50600   4.919   9.248   7.021 -0.2012  0.3994 -0.0832
  375MOL0     H50601   4.996   9.125   7.214  1.2095 -0.4709 -3.1811
  375MOL0     H50602   4.828   9.189   7.236  1.4442  0.9242  0.7012
  375MOL0     H50603   4.915   8.907   7.170 -0.4828 -1.5490  2.9806
  375MOL0     H50604   4.750   8.963   7.171 -0.5396  1.7885 -0.7830
  375MOL0     H50605   4.771   8.991   7.417  0.3961 -0.4470  0.5352
  375MOL0     H50606   4.943   9.022   7.413  0.4386  3.0300 -2.4622
  375MOL0     H50607   4.865   9.119   6.389  2.5015  0.1609 -1.6096
  375MOL0     H50608   4.711   9.279   6.286 -0.7016  1.4517  0.4866
  375MOL0     H50609   4.686   9.790   6.232 -1.4328  0.1929  2.0593
  375MOL0     H50610   4.490   9.935   6.259 -0.0688 -0.9900  0.5243
  375MOL0     H50611   2.653   9.895   5.623  0.7598  1.3386 -0.1453
  375MOL0     H50612   2.435   9.792   5.646  1.3624 -0.9357 -0.9345
  375MOL0     H50613   1.974   9.751   5.216  2.1893 -1.4845  0.6020
  375MOL0     H50614   1.724   9.722   5.233 -0.6022 -0.6295  0.5725
  375MOL0     H50615   1.570   9.597   5.316 -1.8385 -1.1746 -0.5295
  375MOL0     H50616   1.467   9.593   5.460 -0.6438 -0.9349 -1.3399
  375MOL0     H50617   1.347   9.642   5.284 -2.5812  2.7952  0.1506
  375MOL0     H50618   1.445   9.752   5.202  0.2889  1.4764  0.2472
  375MOL0     H50619   1.386   9.932   5.375  0.4457 -0.6391  0.6233
  375MOL0     H50620   1.308   9.817   5.475 -0.4385  2.5479  0.3396
  375MOL0     H50621   1.125   9.921   5.370  1.9285  2.1374 -1.0345
  375MOL0     H50622   1.144   9.760   5.305 -2.3958  0.6687  2.9922
  375MOL0     H50623   1.246   9.986   4.956  1.4222  2.6762  0.6985
  375MOL0     H50624   1.744   9.817   5.645  1.6083  0.7976  0.4743
  375MOL0     H50625   1.978   9.831   5.642  1.3504 -0.4914 -0.3937
  376MOL0     O50626   3.469   7.564   4.509  0.4726 -0.3918  0.2775
  376MOL0     C50627   3.447   7.461   4.455  0.0302  0.9029 -0.2264
  376MOL0     O50628   3.321   7.405   4.424  0.4436 -0.7499 -0.0081
  376MOL0     C50629   3.204   7.481   4.454 -0.6979 -0.1164  0.8938
  376MOL0     C50630   3.186   7.621   4.438  0.0717  0.6757 -0.4301
  376MOL0     C50631   3.058   7.690   4.460  0.2171  0.9989  0.6654
  376MOL0     C50632   2.948   7.610   4.511  0.6043 -0.4548  0.6972
  376MOL0     O50633   2.821   7.663   4.525  0.5960  0.1136  0.2300
  376MOL0     C50634   2.801   7.792   4.582  0.5171 -0.3991  0.4099
  376MOL0     C50635   2.724   7.791   4.714  0.3907 -1.1549 -0.9616
  376MOL0     C50636   2.571   7.757   4.707 -0.5291  0.8325 -1.2872
  376MOL0     C50637   2.520   7.730   4.851 -0.0955  0.3736 -0.8226
  376MOL0     C50638   2.369   7.710   4.843 -0.1387  0.2626  0.3430
  376MOL0     C50639   2.284   7.831   4.857  1.0238  0.0160  0.5315
  376MOL0     C50640   2.135   7.793   4.897  0.0118  0.8153 -0.3681
  376MOL0     C50641   2.047   7.919   4.881  0.8373 -0.3712  0.3983
  376MOL0     N50642   1.918   7.911   4.945  0.8637 -0.1170 -0.0472
  376MOL0     C50643   1.882   7.835   5.055  0.2363  0.4184  0.0698
  376MOL0     C50644   1.756   7.882   5.086  0.2882  0.1149  0.1831
  376MOL0     C50645   1.668   7.826   5.197  0.1449 -0.6679  0.2983
  376MOL0     C50646   1.517   7.810   5.151  0.3797 -0.2174  0.0930
  376MOL0     C50647   1.418   7.765   5.256  0.8635  0.0660 -0.3096
  376MOL0     C50648   1.273   7.795   5.205  0.3532 -0.3563 -0.4089
  376MOL0     O50649   1.175   7.726   5.277  0.2365 -0.1914  0.1955
  376MOL0     C50650   1.066   7.795   5.325  0.2609  0.7008  1.1375
  376MOL0     C50651   1.001   7.740   5.435  0.3395 -0.8351 -0.9195
  376MOL0     C50652   0.872   7.794   5.475 -0.6585  0.0885  0.2056
  376MOL0     C50653   0.801   7.738   5.599 -0.6463  0.6782 -0.2217
  376MOL0     C50654   0.819   7.905   5.407  1.3111  0.0256  0.1998
  376MOL0     C50655   0.683   7.967   5.436  0.1132 -0.1761 -0.1391
  376MOL0     O50656   0.652   7.973   5.569  0.2879  0.2363  0.0897
  376MOL0     C50657   0.527   8.021   5.604 -0.6280 -0.7196 -0.5216
  376MOL0     C50658   0.459   7.946   5.701 -0.0636 -0.2355 -0.1705
  376MOL0     C50659   0.335   7.999   5.753 -0.1598 -0.3821 -0.8253
  376MOL0     C50660   0.274   8.119   5.713  0.5336  0.1329 -0.4317
  376MOL0     O50661   0.146   8.158   5.745  0.3769 -0.9034  0.3378
  376MOL0     C50662   0.066   8.068   5.829 -0.0480  0.6172  0.3706
  376MOL0     C50663  -0.042   8.144   5.910  0.1034  0.0424 -0.6272
  376MOL0     C50664  -0.144   8.048   5.987  0.2230  0.1883  0.4697
  376MOL0     C50665  -0.228   8.126   6.086 -1.0289  0.0491 -0.6853
  376MOL0     C50666  -0.313   8.029   6.171  0.9887  0.7596 -0.3760
  376MOL0     C50667  -0.408   8.100   6.271  1.3253 -0.2713  0.7027
  376MOL0     C50668  -0.497   8.002   6.353 -1.0467 -0.5625 -0.3444
  376MOL0     C50669  -0.638   7.983   6.308 -0.6962 -0.6638 -0.3543
  376MOL0    Cl50670  -0.747   8.088   6.407  0.2467  0.4296 -0.6022
  376MOL0     C50671   0.342   8.190   5.613 -0.4202 -0.1886 -0.8780
  376MOL0     C50672   0.472   8.148   5.569 -0.2306 -0.8413  0.3829
  376MOL0     O50673   0.602   7.984   5.351 -0.1090  0.5362  0.9601
  376MOL0     C50674   0.886   7.954   5.298  0.0834 -1.3800 -0.0699
  376MOL0     C50675   1.003   7.894   5.247  0.7247 -0.6009 -0.2824
  376MOL0     N50676   1.716   7.976   4.994 -0.0600  0.3874  0.0201
  376MOL0     N50677   1.815   7.990   4.909 -0.2725 -0.4952  0.3346
  376MOL0     C50678   2.969   7.471   4.517  0.2731 -0.5339  0.1185
  376MOL0     C50679   3.089   7.407   4.490  0.4547  0.0484  0.3573
  376MOL0     C50680   3.555   7.368   4.416 -0.0248 -0.0528  0.2538
  376MOL0     C50681   3.524   7.224   4.417 -0.2028  0.0061 -0.5523
  376MOL0     C50682   3.629   7.139   4.381 -0.1887 -0.4163  0.3427
  376MOL0     C50683   3.757   7.182   4.344  0.1051  0.3267  0.2165
  376MOL0     O50684   3.856   7.087   4.318  0.3096  0.2014  0.2549
  376MOL0     C50685   3.992   7.144   4.308  0.2939 -0.4261 -0.0125
  376MOL0     C50686   4.089   7.029   4.298  0.7949  0.7795  0.5511
  376MOL0     C50687   4.062   6.914   4.402 -1.0195  0.1576  0.8340
  376MOL0     C50688   4.053   6.968   4.550  0.1177  0.1685 -0.5309
  376MOL0     C50689   3.997   6.869   4.635  0.9947  0.3294  0.2202
  376MOL0     C50690   3.974   6.779   4.713 -0.1488  0.4967  0.7654
  376MOL0     C50691   3.779   7.321   4.341 -0.2415 -0.5194  0.5298
  376MOL0     C50692   3.685   7.413   4.389  0.4416 -0.7884 -0.0955
  376MOL0     H50693   3.270   7.676   4.397  0.9881  0.8326  1.5629
  376MOL0     H50694   3.046   7.795   4.438 -0.4061  0.7122 -0.4143
  376MOL0     H50695   2.889   7.855   4.595 -0.5922  1.5552 -0.9513
  376MOL0     H50696   2.740   7.845   4.508 -1.6114  0.2201  2.4725
  376MOL0     H50697   2.775   7.718   4.777  1.3009 -1.4207 -1.9710
  376MOL0     H50698   2.736   7.884   4.771 -2.1492 -2.2686  1.6559
  376MOL0     H50699   2.528   7.845   4.658  2.2517  1.4381 -2.8418
  376MOL0     H50700   2.553   7.673   4.639 -3.2116  2.1997 -2.4405
  376MOL0     H50701   2.568   7.635   4.877 -1.9255 -1.5437 -3.8681
  376MOL0     H50702   2.550   7.803   4.927  0.9607  0.7990 -1.6333
  376MOL0     H50703   2.347   7.652   4.753  0.1843 -0.6287  0.8317
  376MOL0     H50704   2.336   7.649   4.928 -1.5931 -0.9098 -0.9894
  376MOL0     H50705   2.322   7.903   4.930 -0.2892 -0.1908  1.4464
  376MOL0     H50706   2.289   7.890   4.765 -0.2151  2.7629  2.0905
  376MOL0     H50707   2.109   7.722   4.818  3.8319  2.9466 -3.9437
  376MOL0     H50708   2.132   7.752   4.998 -0.6077  0.3235 -0.5773
  376MOL0     H50709   2.050   7.936   4.773  1.6974  0.4885  0.5391
  376MOL0     H50710   2.090   8.010   4.924  0.6681 -0.5506  0.9557
  376MOL0     H50711   1.938   7.757   5.105 -1.7505 -0.2180  1.4378
  376MOL0     H50712   1.703   7.730   5.237  4.2750 -0.0257 -1.3066
  376MOL0     H50713   1.667   7.903   5.275 -2.3193  1.3552 -1.5616
  376MOL0     H50714   1.513   7.730   5.076  0.2730  1.2346 -1.5240
  376MOL0     H50715   1.479   7.899   5.100  0.8495 -0.4233 -0.6449
  376MOL0     H50716   1.441   7.803   5.356  1.9555 -1.2092 -0.0438
  376MOL0     H50717   1.427   7.656   5.253  1.9942  0.1628 -1.6774
  376MOL0     H50718   1.259   7.774   5.099  1.1949  0.5644 -0.7229
  376MOL0     H50719   1.258   7.903   5.208  1.0115 -0.2729  0.2922
  376MOL0     H50720   1.037   7.656   5.494 -0.4851 -1.3354 -1.1172
  376MOL0     H50721   0.819   7.798   5.689 -0.4111  1.5982 -0.8685
  376MOL0     H50722   0.693   7.733   5.580 -0.8250  2.1565  0.2726
  376MOL0     H50723   0.851   7.643   5.624  1.5717  1.4693 -1.3626
  376MOL0     H50724   0.503   7.853   5.736 -0.1432 -0.3614 -0.4018
  376MOL0     H50725   0.294   7.929   5.825 -0.6662  0.3344 -0.3988
  376MOL0     H50726   0.022   7.995   5.761 -0.9806  0.2178  1.3646
  376MOL0     H50727   0.129   8.022   5.905  2.1103  2.7962  0.0276
  376MOL0     H50728   0.014   8.203   5.983 -0.6327  0.5749 -0.4826
  376MOL0     H50729  -0.093   8.224   5.856  1.1640  2.4829  1.7572
  376MOL0     H50730  -0.089   7.966   6.033  0.6542  1.2445  1.8970
  376MOL0     H50731  -0.202   8.000   5.907  1.0068 -0.1636  0.0960
  376MOL0     H50732  -0.169   8.191   6.152 -2.2072 -0.2656  0.7237
  376MOL0     H50733  -0.299   8.188   6.030  0.9774 -0.0232 -3.5871
  376MOL0     H50734  -0.246   7.959   6.223  1.5046  1.3595 -0.2233
  376MOL0     H50735  -0.372   7.969   6.101  2.9411  1.3970 -2.7157
  376MOL0     H50736  -0.362   8.165   6.346 -0.6300 -0.1487  1.8647
  376MOL0     H50737  -0.478   8.163   6.216 -1.3275 -1.5550  2.3855
  376MOL0     H50738  -0.499   8.044   6.454 -0.2306 -0.5442 -0.3304
  376MOL0     H50739  -0.462   7.899   6.351  0.5825 -0.0731 -3.0381
  376MOL0     H50740  -0.658   7.876   6.317  0.3312 -0.9145 -0.8218
  376MOL0     H50741  -0.650   7.998   6.200  2.3034 -0.4938 -0.7568
  376MOL0     H50742   0.306   8.287   5.580  2.0838  1.5571  1.1755
  376MOL0     H50743   0.523   8.205   5.492  1.5338  0.4496  2.3536
  376MOL0     H50744   0.846   8.032   5.235 -1.0660 -3.3019 -1.8437
  376MOL0     H50745   1.046   7.944   5.161  2.4856  3.0292  2.4629
  376MOL0     H50746   2.899   7.391   4.540 -1.4390  0.2457 -2.0670
  376MOL0     H50747   3.102   7.300   4.489 -2.9763 -0.5117 -2.3264
  376MOL0     H50748   3.424   7.184   4.434 -1.7246  3.5594 -0.2778
  376MOL0     H50749   3.611   7.033   4.367  0.6979 -0.4568 -0.5817
  376MOL0     H50750   3.996   7.196   4.212 -0.1567 -2.7375 -1.3638
  376MOL0     H50751   4.007   7.207   4.396  1.1299 -2.2897  1.2339
  376MOL0     H50752   4.182   7.075   4.332  0.3194  0.2594  2.7500
  376MOL0     H50753   4.085   6.996   4.194 -4.9036  0.4253  0.5250
  376MOL0     H50754   4.156   6.859   4.401  0.4703  2.5606  0.9310
  376MOL0     H50755   3.974   6.855   4.375  1.1589 -2.4452 -1.1074
  376MOL0     H50756   3.989   7.056   4.546  0.5963  0.5636  0.2620
  376MOL0     H50757   4.155   6.992   4.582 -0.0213  1.9796 -1.3227
  376MOL0     H50758   3.964   6.700   4.785 -2.8859 -0.2197 -0.3111
  376MOL0     H50759   3.874   7.361   4.308 -0.4202 -0.9624 -0.5395
  376MOL0     H50760   3.709   7.517   4.405 -0.1596 -0.7948  0.9873
  377MOL0     O50761   7.772   0.111   6.656  0.3776  0.1951  0.2889
  377MOL0     C50762   7.773   0.207   6.727  0.3787 -0.1029 -0.5864
  377MOL0     O50763   7.663   0.270   6.772  0.4158 -0.4706 -0.2553
  377MOL0     C50764   7.542   0.207   6.752  0.1480 -0.1409 -0.2330
  377MOL0     C50765   7.466   0.239   6.639 -0.0592 -1.0467  0.3724
  377MOL0     C50766   7.342   0.192   6.617  0.5584  0.2229 -0.2698
  377MOL0     C50767   7.280   0.107   6.702 -0.7763 -0.2939 -0.5291
  377MOL0     O50768   7.153   0.069   6.674  0.6951 -0.0736 -0.8563
  377MOL0     C50769   7.072   0.010   6.772  0.0626 -0.8855 -0.0330
  377MOL0     C50770   7.023   0.098   6.889 -0.6481  0.2327  0.4997
  377MOL0     C50771   6.902   0.035   6.959  0.4199  0.3240  0.2373
  377MOL0     C50772   6.776   0.126   6.960  0.3197 -0.6428  0.0437
  377MOL0     C50773   6.655   0.072   7.043  0.2620  0.3877  0.1390
  377MOL0     C50774   6.564   0.193   7.076 -0.1110  0.2337 -1.7285
  377MOL0     C50775   6.413   0.177   7.030 -0.1727 -0.8673 -0.9467
  377MOL0     C50776   6.401   0.169   6.881 -0.1366  1.1048  0.3376
  377MOL0     N50777   6.270   0.191   6.814 -0.6006  0.7249 -0.2438
  377MOL0     C50778   6.206   0.308   6.797 -0.8730 -0.0804  0.9169
  377MOL0     C50779   6.106   0.274   6.716 -0.7496  0.1458  0.7495
  377MOL0     C50780   6.018   0.373   6.671  0.3320  0.0442  0.0697
  377MOL0     C50781   5.884   0.376   6.735 -0.4160  1.1298  0.3201
  377MOL0     C50782   5.797   0.491   6.677 -0.3303 -0.0832  1.0220
  377MOL0     C50783   5.663   0.491   6.736 -0.2115 -0.2071 -0.1329
  377MOL0     O50784   5.662   0.573   6.851  0.9931  0.2104 -0.1610
  377MOL0     C50785   5.582   0.542   6.958 -0.4221 -0.3194  1.1529
  377MOL0     C50786   5.632   0.591   7.079  0.5286 -0.2632 -0.4301
  377MOL0     C50787   5.555   0.583   7.196  0.3199  0.5476  1.3225
  377MOL0     C50788   5.613   0.634   7.322  0.7354 -0.5668 -0.0083
  377MOL0     C50789   5.432   0.525   7.192 -0.0307 -0.4437 -0.4464
  377MOL0     C50790   5.353   0.522   7.314 -0.3101 -0.5290  0.6900
  377MOL0     O50791   5.318   0.651   7.359  0.1696  0.5406  0.2289
  377MOL0     C50792   5.259   0.660   7.485  0.9738  1.0166  0.1325
  377MOL0     C50793   5.321   0.733   7.581 -1.4122 -0.1000  0.0313
  377MOL0     C50794   5.270   0.737   7.711  0.5384  0.4772 -0.4730
  377MOL0     C50795   5.141   0.679   7.735 -0.1968  0.0775 -0.0253
  377MOL0     O50796   5.083   0.696   7.856  0.0881  0.3068 -0.1177
  377MOL0     C50797   5.010   0.823   7.868  0.7284 -0.8975 -1.2199
  377MOL0     C50798   4.872   0.833   7.794 -0.9140 -0.2051  0.8738
  377MOL0     C50799   4.798   0.963   7.820  0.4706  0.0972  0.1746
  377MOL0     C50800   4.718   0.968   7.957  0.2719 -0.5065  0.2055
  377MOL0     C50801   4.633   1.093   7.966  0.1559 -0.0015  0.1365
  377MOL0     C50802   4.698   1.236   7.941 -0.2826 -0.0738 -0.2550
  377MOL0     C50803   4.782   1.251   8.062  0.5073 -0.4296 -0.5571
  377MOL0     C50804   4.836   1.395   8.080  0.7879 -0.0473 -0.1443
  377MOL0    Cl50805   4.889   1.402   8.254 -0.2962  0.0628 -0.1019
  377MOL0     C50806   5.084   0.599   7.634 -0.3007  0.5011 -0.4506
  377MOL0     C50807   5.142   0.591   7.515  0.7546  0.4284 -0.2694
  377MOL0     O50808   5.315   0.414   7.357  0.0169 -0.1597  0.3103
  377MOL0     C50809   5.376   0.471   7.074  0.5278  1.0243 -0.1435
  377MOL0     C50810   5.459   0.470   6.962 -0.0604 -0.6088  0.0406
  377MOL0     N50811   6.112   0.143   6.682  0.4043  0.3491 -0.7518
  377MOL0     N50812   6.214   0.090   6.741 -0.0025  0.0234  0.1844
  377MOL0     C50813   7.349   0.077   6.824  0.7102  0.7977 -0.5484
  377MOL0     C50814   7.483   0.118   6.838  0.1142 -0.4718 -0.4961
  377MOL0     C50815   7.903   0.260   6.762 -0.5232  0.3300 -0.3108
  377MOL0     C50816   7.916   0.362   6.853 -0.3883 -0.2964  0.0725
  377MOL0     C50817   8.042   0.409   6.881 -0.1306  0.5011 -0.5852
  377MOL0     C50818   8.159   0.355   6.821  0.3104 -0.8005 -0.3781
  377MOL0     O50819   8.267   0.425   6.854 -0.5005 -0.6773 -0.0438
  377MOL0     C50820   8.388   0.363   6.823 -0.8501  0.0537  0.3524
  377MOL0     C50821   8.511   0.457   6.801 -1.0401 -0.9788 -0.0395
  377MOL0     C50822   8.576   0.502   6.935 -1.1125  1.0500 -0.4508
  377MOL0     C50823   8.730   0.526   6.897 -0.0541 -0.1744 -0.5333
  377MOL0     C50824   8.810   0.407   6.854  0.5021  0.2452  0.3737
  377MOL0     C50825   8.870   0.309   6.803  0.2024  0.1078 -0.1219
  377MOL0     C50826   8.144   0.251   6.733  0.0329 -0.7579  0.5076
  377MOL0     C50827   8.018   0.210   6.698  0.2816 -0.4481 -0.3645
  377MOL0     H50828   7.493   0.325   6.579  1.0203 -0.0280  2.2277
  377MOL0     H50829   7.291   0.223   6.526 -0.0823 -1.7220 -0.6258
  377MOL0     H50830   6.982  -0.027   6.720  0.3983 -0.2621 -1.1038
  377MOL0     H50831   7.112  -0.084   6.809 -0.4168 -0.2919  2.0957
  377MOL0     H50832   7.107   0.125   6.954 -1.7274  2.7581  0.9569
  377MOL0     H50833   7.004   0.196   6.846  2.3483  1.0368  0.7926
  377MOL0     H50834   6.890  -0.066   6.919 -0.9022  1.6948 -3.1749
  377MOL0     H50835   6.934   0.029   7.064  0.4888  0.2384  0.2112
  377MOL0     H50836   6.806   0.228   6.990 -1.1502 -1.0743  3.4757
  377MOL0     H50837   6.737   0.136   6.859  0.8823  1.8088 -0.0071
  377MOL0     H50838   6.615   0.000   6.972 -0.0231  0.5653  0.1178
  377MOL0     H50839   6.697   0.021   7.131 -0.8414 -2.9335 -1.1123
  377MOL0     H50840   6.570   0.216   7.183  0.3618 -1.5448 -1.3339
  377MOL0     H50841   6.594   0.287   7.029  2.2377  1.3589  1.6115
  377MOL0     H50842   6.371   0.091   7.083 -1.9799 -0.4009 -1.5768
  377MOL0     H50843   6.357   0.267   7.055  0.1583 -0.5063 -1.4859
  377MOL0     H50844   6.432   0.067   6.856 -0.2799  0.5714  2.2141
  377MOL0     H50845   6.475   0.228   6.826  1.3200 -2.5822 -2.0177
  377MOL0     H50846   6.222   0.410   6.831 -3.1818  0.0792  1.7621
  377MOL0     H50847   6.056   0.475   6.681  1.8883 -0.7056  2.4636
  377MOL0     H50848   6.008   0.361   6.562  2.5385  0.3945 -0.2086
  377MOL0     H50849   5.893   0.388   6.844  0.2825 -1.7714  0.6583
  377MOL0     H50850   5.839   0.281   6.705  1.2017  0.4751 -0.1491
  377MOL0     H50851   5.782   0.474   6.571  0.3372  2.0095  0.5420
  377MOL0     H50852   5.849   0.586   6.693  1.0788 -0.5474 -0.5200
  377MOL0     H50853   5.618   0.394   6.759 -2.9815  1.2548  1.0532
  377MOL0     H50854   5.595   0.533   6.661  0.5694  1.1002 -0.1325
  377MOL0     H50855   5.734   0.629   7.079 -0.2857  2.0596 -0.2748
  377MOL0     H50856   5.580   0.566   7.401 -1.0277  0.1082 -0.1203
  377MOL0     H50857   5.722   0.634   7.330  0.6327 -0.9723  1.7333
  377MOL0     H50858   5.591   0.739   7.345  4.3623  1.0567 -2.9024
  377MOL0     H50859   5.412   0.783   7.549 -2.0512  0.8325 -0.3792
  377MOL0     H50860   5.322   0.803   7.780  1.1465 -0.7231  0.2371
  377MOL0     H50861   4.989   0.830   7.975  3.0961  1.6271 -0.8195
  377MOL0     H50862   5.072   0.910   7.844  2.6662 -2.4209 -2.0282
  377MOL0     H50863   4.898   0.845   7.688  3.1741 -0.2208  1.7072
  377MOL0     H50864   4.808   0.748   7.821  0.3248 -0.3322  3.7117
  377MOL0     H50865   4.740   0.972   7.727  0.9816 -0.8925 -0.2466
  377MOL0     H50866   4.875   1.040   7.818  1.2483 -0.6871 -0.2618
  377MOL0     H50867   4.646   0.886   7.962 -0.4603  0.0626 -0.6824
  377MOL0     H50868   4.788   0.962   8.041 -1.7194 -3.1581  1.8010
  377MOL0     H50869   4.571   1.085   8.056 -0.4436  2.0123 -0.0331
  377MOL0     H50870   4.557   1.085   7.888 -1.6116  0.4836  1.7140
  377MOL0     H50871   4.757   1.243   7.850  1.6257 -0.8238  0.8761
  377MOL0     H50872   4.623   1.316   7.936 -0.7133 -0.3900  0.7757
  377MOL0     H50873   4.871   1.189   8.054  2.5601  2.4085 -1.3181
  377MOL0     H50874   4.728   1.229   8.154 -1.9663  0.9817 -1.5550
  377MOL0     H50875   4.756   1.466   8.060  0.6421 -0.5912 -1.6100
  377MOL0     H50876   4.918   1.407   8.009  1.5108 -3.0399  0.0519
  377MOL0     H50877   4.993   0.545   7.658  0.9794 -1.8301 -0.5417
  377MOL0     H50878   5.097   0.526   7.441  0.0526 -0.9929  1.3232
  377MOL0     H50879   5.277   0.426   7.072  0.4149  1.2579  0.2069
  377MOL0     H50880   5.421   0.418   6.875  0.5410 -1.2067  0.1241
  377MOL0     H50881   7.302   0.010   6.896 -1.2588  0.7563 -1.8033
  377MOL0     H50882   7.534   0.072   6.922  0.3317 -1.0378 -0.9278
  377MOL0     H50883   7.833   0.399   6.912  0.4567 -0.8040  1.6302
  377MOL0     H50884   8.054   0.488   6.955  0.1955  0.6399 -0.7816
  377MOL0     H50885   8.402   0.279   6.892  0.0921 -1.6025 -1.7421
  377MOL0     H50886   8.371   0.327   6.721 -4.4018 -0.0074  0.8400
  377MOL0     H50887   8.464   0.549   6.766  0.9381  0.0337 -0.1730
  377MOL0     H50888   8.583   0.422   6.727  0.7108 -0.9492  1.5560
  377MOL0     H50889   8.567   0.424   7.011  0.9750  0.8941 -0.3123
  377MOL0     H50890   8.528   0.594   6.969 -2.4606 -0.3878  1.8156
  377MOL0     H50891   8.778   0.573   6.983  0.0263  1.9515 -1.6722
  377MOL0     H50892   8.732   0.597   6.814  2.3738  0.2688 -0.1523
  377MOL0     H50893   8.939   0.246   6.750  2.2276  0.3015  2.1112
  377MOL0     H50894   8.220   0.185   6.694 -2.4829 -2.2241 -2.3339
  377MOL0     H50895   8.013   0.120   6.637 -0.8302  0.1878 -1.2530
  378MOL0     O50896   3.579   3.631   9.359  0.3484  0.1843  0.6470
  378MOL0     C50897   3.614   3.642   9.471  0.6392  0.5129 -0.0108
  378MOL0     O50898   3.594   3.556   9.572 -0.2464  0.4229 -0.0149
  378MOL0     C50899   3.535   3.433   9.542 -0.9875  1.3592  0.1036
  378MOL0     C50900   3.546   3.356   9.420 -0.6408  0.6875  0.3979
  378MOL0     C50901   3.487   3.228   9.406  0.1251 -0.2696  0.2929
  378MOL0     C50902   3.408   3.178   9.508  0.4014 -1.0711  0.0084
  378MOL0     O50903   3.354   3.060   9.481  0.3281  0.6878 -0.4551
  378MOL0     C50904   3.211   3.058   9.482 -0.7500 -0.9712  0.2441
  378MOL0     C50905   3.163   2.915   9.464 -0.6152 -0.5761 -0.4611
  378MOL0     C50906   3.051   2.867   9.560 -0.8141  0.1710  0.1768
  378MOL0     C50907   2.920   2.933   9.510  0.5190  0.0923  0.1332
  378MOL0     C50908   2.816   2.951   9.623  0.4319 -0.0345 -0.7454
  378MOL0     C50909   2.682   3.019   9.592 -0.5489 -0.0313  0.4680
  378MOL0     C50910   2.568   2.929   9.548 -0.3845  0.4073  0.8675
  378MOL0     C50911   2.500   2.859   9.663  0.3178 -0.4194 -0.0329
  378MOL0     N50912   2.386   2.782   9.620 -0.0410  0.1996  0.3134
  378MOL0     C50913   2.410   2.646   9.594 -0.2800 -0.4067  0.4649
  378MOL0     C50914   2.286   2.607   9.557 -0.4467  0.2073  0.1336
  378MOL0     C50915   2.246   2.473   9.513 -0.9430  0.3205  0.4975
  378MOL0     C50916   2.121   2.430   9.586 -0.8947 -0.1747 -0.3082
  378MOL0     C50917   1.998   2.487   9.521  0.2138 -0.9618  1.3035
  378MOL0     C50918   1.865   2.442   9.582  0.5387  0.5955 -0.2381
  378MOL0     O50919   1.745   2.472   9.507  0.1667  0.1129 -0.2991
  378MOL0     C50920   1.621   2.430   9.552 -0.1990 -0.2354 -0.4667
  378MOL0     C50921   1.519   2.430   9.457 -0.2562 -0.2158  0.0839
  378MOL0     C50922   1.395   2.388   9.498 -0.1646  0.1136  0.1348
  378MOL0     C50923   1.282   2.400   9.399 -0.6889  0.0066  0.1183
  378MOL0     C50924   1.369   2.356   9.637 -0.5921  0.6733 -0.2041
  378MOL0     C50925   1.246   2.315   9.706  0.6743 -0.0227  0.1180
  378MOL0     O50926   1.257   2.221   9.800  0.1751  0.4758  0.0022
  378MOL0     C50927   1.150   2.211   9.887  1.0861 -0.1796  0.5102
  378MOL0     C50928   1.024   2.171   9.844 -0.5949  0.2904 -0.1122
  378MOL0     C50929   0.919   2.152   9.937  0.1206  0.3717  0.4884
  378MOL0     C50930   0.941   2.177  10.072 -0.5546  0.3729 -0.3781
  378MOL0     O50931   0.837   2.171  10.153  0.4841 -0.2929  0.6239
  378MOL0     C50932   0.838   2.135  10.290  0.4904  0.1671 -1.2714
  378MOL0     C50933   0.707   2.056  10.325 -1.2615 -0.7560 -0.4939
  378MOL0     C50934   0.579   2.139  10.297  0.5233  0.1069  0.6969
  378MOL0     C50935   0.452   2.052  10.301  0.3323 -0.3795  0.8331
  378MOL0     C50936   0.439   1.942  10.193 -0.5644 -0.1760 -0.9458
  378MOL0     C50937   0.385   1.992  10.065  0.6777 -0.2741  0.1763
  378MOL0     C50938   0.474   2.089   9.990 -0.3668  0.1440 -0.0401
  378MOL0     C50939   0.464   2.097   9.835  0.4148  0.2260 -0.3438
  378MOL0    Cl50940   0.548   1.970   9.755 -0.2366  0.2567  0.2949
  378MOL0     C50941   1.069   2.208  10.124  0.5693  0.5523  0.6155
  378MOL0     C50942   1.170   2.230  10.029  0.8270 -0.8677  0.2632
  378MOL0     O50943   1.141   2.379   9.679  0.0563 -0.0058  0.7008
  378MOL0     C50944   1.472   2.361   9.733 -0.5333 -1.3007 -0.2297
  378MOL0     C50945   1.597   2.400   9.687 -0.4627 -0.1929 -1.6647
  378MOL0     N50946   2.207   2.720   9.546  0.2139  2.0616  0.4782
  378MOL0     N50947   2.265   2.821   9.598  0.4945  1.1387 -0.0284
  378MOL0     C50948   3.389   3.253   9.626  0.2035  0.4130 -0.0733
  378MOL0     C50949   3.455   3.378   9.640  0.4118  0.2359 -0.0220
  378MOL0     C50950   3.680   3.766   9.514  0.0233 -0.6649 -0.7471
  378MOL0     C50951   3.658   3.886   9.441 -0.5412 -1.0048 -1.2430
  378MOL0     C50952   3.701   4.006   9.485  0.5247  0.0298  0.7974
  378MOL0     C50953   3.780   4.019   9.606  0.3557 -0.1558  0.7925
  378MOL0     O50954   3.825   4.145   9.625 -0.2350 -0.8628 -1.3355
  378MOL0     C50955   3.849   4.192   9.759  0.6746  0.5143  0.0674
  378MOL0     C50956   3.742   4.174   9.866 -1.1590  0.4588  0.4855
  378MOL0     C50957   3.794   4.204  10.007  1.1784 -0.5833  0.9614
  378MOL0     C50958   3.797   4.353  10.019 -1.2762 -0.3979  0.8465
  378MOL0     C50959   3.667   4.420  10.044 -0.1570 -0.2051 -0.1990
  378MOL0     C50960   3.555   4.458  10.059  0.2290  0.1446 -0.6664
  378MOL0     C50961   3.800   3.902   9.683 -0.8871  0.5239 -0.3353
  378MOL0     C50962   3.741   3.781   9.641  0.3285 -0.1360 -0.3065
  378MOL0     H50963   3.607   3.393   9.338 -0.9979  1.2746  0.3930
  378MOL0     H50964   3.503   3.166   9.319 -2.2741 -0.9433  0.2506
  378MOL0     H50965   3.184   3.105   9.577  0.2792  0.6979 -0.2434
  378MOL0     H50966   3.178   3.119   9.397 -0.6660 -0.9230  0.2456
  378MOL0     H50967   3.119   2.906   9.365 -0.7622 -1.0615 -0.3531
  378MOL0     H50968   3.247   2.845   9.465  1.7032  1.7415 -4.4468
  378MOL0     H50969   3.050   2.758   9.551  0.9744 -0.0691  2.1628
  378MOL0     H50970   3.076   2.890   9.664 -2.7270  1.3797  0.4223
  378MOL0     H50971   2.946   3.032   9.473  6.5815  0.0435  2.9389
  378MOL0     H50972   2.878   2.882   9.423 -1.1280  2.6420 -0.6465
  378MOL0     H50973   2.803   2.848   9.658  2.1249 -0.4508 -1.2531
  378MOL0     H50974   2.862   3.014   9.700 -1.9633  0.7902  0.1041
  378MOL0     H50975   2.653   3.087   9.673 -0.0586  0.8637 -0.0979
  378MOL0     H50976   2.700   3.086   9.508  0.9448 -0.3237  0.5392
  378MOL0     H50977   2.502   2.994   9.490 -0.3243 -0.6636 -0.4426
  378MOL0     H50978   2.616   2.851   9.489 -1.5988 -1.0765  1.7803
  378MOL0     H50979   2.478   2.948   9.722 -0.7308  2.5188 -4.3525
  378MOL0     H50980   2.568   2.791   9.715  0.8487 -0.5021 -0.8166
  378MOL0     H50981   2.496   2.581   9.583  1.4294  2.0216 -1.3518
  378MOL0     H50982   2.234   2.466   9.404  4.2403 -2.8338 -0.2044
  378MOL0     H50983   2.320   2.396   9.537  0.4185  0.8517 -1.7616
  378MOL0     H50984   2.128   2.463   9.690 -0.1439 -0.0353 -0.4000
  378MOL0     H50985   2.119   2.321   9.596  0.5145 -0.2469 -0.6464
  378MOL0     H50986   1.986   2.479   9.412 -2.5207  1.7837  1.2779
  378MOL0     H50987   1.993   2.594   9.542 -1.6055 -0.9529  0.9451
  378MOL0     H50988   1.857   2.488   9.682 -2.5220 -0.7265  0.2558
  378MOL0     H50989   1.859   2.334   9.593 -2.6617  0.7289  0.3158
  378MOL0     H50990   1.539   2.449   9.352 -0.8437 -1.0543 -0.1835
  378MOL0     H50991   1.251   2.505   9.405  2.8173  1.0786  4.5043
  378MOL0     H50992   1.311   2.388   9.295  2.5458 -1.3306  1.0584
  378MOL0     H50993   1.203   2.324   9.407 -3.6382  2.7473 -0.6309
  378MOL0     H50994   1.011   2.149   9.739  2.1309 -1.0121 -0.2768
  378MOL0     H50995   0.819   2.131   9.902  0.6905 -1.7960  0.0339
  378MOL0     H50996   0.927   2.073  10.305  0.1959 -0.4569 -2.0217
  378MOL0     H50997   0.847   2.223  10.354  2.6511 -1.0820  0.2807
  378MOL0     H50998   0.716   1.956  10.281  0.8321 -1.3226  1.0529
  378MOL0     H50999   0.709   2.040  10.433 -3.9722 -0.5183 -0.3336
  378MOL0     H51000   0.591   2.199  10.206 -0.2775  0.2094  0.6559
  378MOL0     H51001   0.577   2.215  10.375  1.2199  1.9806 -1.0220
  378MOL0     H51002   0.467   1.998  10.395  0.9484  1.1292  1.6448
  378MOL0     H51003   0.354   2.101  10.300  0.0909 -0.8600  0.1014
  378MOL0     H51004   0.377   1.862  10.234  1.4033 -0.4005  1.8603
  378MOL0     H51005   0.536   1.894  10.179  0.3378  1.6895 -1.3266
  378MOL0     H51006   0.366   1.902  10.006  2.0379 -1.0300  0.8593
  378MOL0     H51007   0.281   2.026  10.075  0.1338 -1.0020 -2.3356
  378MOL0     H51008   0.573   2.063  10.028 -2.2634 -1.7838  4.2396
  378MOL0     H51009   0.462   2.191  10.029  0.9257  0.3402 -0.1288
  378MOL0     H51010   0.510   2.188   9.799  2.5177 -1.2785 -1.6591
  378MOL0     H51011   0.357   2.101   9.810 -0.2612 -1.3097  1.9680
  378MOL0     H51012   1.078   2.238  10.228 -0.6798  0.3133  0.8201
  378MOL0     H51013   1.272   2.244  10.064  0.1141 -2.0092  3.1269
  378MOL0     H51014   1.458   2.348   9.840  0.6221  1.4632  0.3329
  378MOL0     H51015   1.672   2.412   9.765 -0.3664  0.5851 -1.8737
  378MOL0     H51016   3.318   3.210   9.697  0.1723 -3.0696 -1.9592
  378MOL0     H51017   3.468   3.436   9.731 -2.4648  0.8475  0.0924
  378MOL0     H51018   3.600   3.893   9.349 -1.3850  0.0210 -0.6524
  378MOL0     H51019   3.666   4.095   9.433 -1.3177 -0.8668  0.4021
  378MOL0     H51020   3.936   4.138   9.797  1.2756  2.0160  0.9180
  378MOL0     H51021   3.887   4.295   9.757  2.0285  0.0278 -0.9475
  378MOL0     H51022   3.709   4.070   9.869  0.2350 -0.0588 -0.6908
  378MOL0     H51023   3.651   4.229   9.837 -2.2888 -1.4571  0.2037
  378MOL0     H51024   3.889   4.154  10.027  1.3547  0.5509  3.3378
  378MOL0     H51025   3.722   4.170  10.082  1.5039 -1.9886  0.6643
  378MOL0     H51026   3.859   4.402   9.943  1.9232 -0.8785  2.9547
  378MOL0     H51027   3.858   4.373  10.107  0.8766  1.1590 -0.9074
  378MOL0     H51028   3.457   4.501  10.048 -0.9682 -1.7799  1.4508
  378MOL0     H51029   3.853   3.906   9.778 -1.0727  3.2715 -0.2517
  378MOL0     H51030   3.723   3.696   9.707 -0.2096  0.2005 -0.0130
  379MOL0     O51031   7.755   6.690   7.986  0.5059 -0.6162 -0.7252
  379MOL0     C51032   7.812   6.773   7.913 -0.3999 -0.5661 -0.2100
  379MOL0     O51033   7.744   6.828   7.806  0.3755 -1.1398  0.3169
  379MOL0     C51034   7.615   6.791   7.785 -0.2612 -0.0033 -1.0865
  379MOL0     C51035   7.585   6.732   7.665  0.0454  0.4253  0.1419
  379MOL0     C51036   7.457   6.681   7.643 -0.9391  0.8824 -0.0819
  379MOL0     C51037   7.357   6.697   7.735  0.8778 -0.4322 -0.6123
  379MOL0     O51038   7.227   6.646   7.707 -0.3520 -0.6950  0.4796
  379MOL0     C51039   7.138   6.620   7.813 -0.1846 -0.2288 -0.3175
  379MOL0     C51040   7.000   6.597   7.758  0.1316  0.1494 -0.0740
  379MOL0     C51041   6.929   6.730   7.710  0.3694  0.3172 -0.9599
  379MOL0     C51042   6.787   6.718   7.668 -0.1569 -0.2174  0.4974
  379MOL0     C51043   6.701   6.689   7.796 -0.7889  0.1646 -0.3040
  379MOL0     C51044   6.553   6.687   7.761  0.1371  1.1641  0.3703
  379MOL0     C51045   6.454   6.672   7.876 -0.3800  0.7861 -0.3179
  379MOL0     C51046   6.431   6.524   7.909 -0.0395 -0.0225  0.1156
  379MOL0     N51047   6.361   6.492   8.036  1.0164  0.3002 -0.5657
  379MOL0     C51048   6.222   6.471   8.049 -0.3682  0.1377  0.8497
  379MOL0     C51049   6.200   6.446   8.177 -0.4868 -0.1437  0.7738
  379MOL0     C51050   6.069   6.409   8.241  0.1948  0.6418  0.0758
  379MOL0     C51051   6.012   6.507   8.340 -0.1311 -0.5159 -0.4505
  379MOL0     C51052   5.868   6.462   8.377  0.0096 -0.1713  0.1121
  379MOL0     C51053   5.821   6.535   8.505  0.4055 -0.3819  0.0777
  379MOL0     O51054   5.749   6.445   8.584  0.1689  0.6304 -0.4609
  379MOL0     C51055   5.612   6.469   8.595 -0.3594  0.2997  0.3061
  379MOL0     C51056   5.524   6.379   8.543  0.5345  0.0325 -1.1257
  379MOL0     C51057   5.385   6.379   8.570 -0.1678 -0.1567 -0.0899
  379MOL0     C51058   5.316   6.272   8.500  0.0686  0.1017  0.8249
  379MOL0     C51059   5.332   6.490   8.648  0.4975  0.3278 -0.8353
  379MOL0     C51060   5.191   6.506   8.686 -0.5908 -0.1862  0.1655
  379MOL0     O51061   5.131   6.629   8.683 -0.6966 -0.0142  0.4558
  379MOL0     C51062   5.004   6.641   8.737 -0.2389 -0.2570  0.1998
  379MOL0     C51063   4.930   6.570   8.828 -0.6445  0.2708  0.3798
  379MOL0     C51064   4.792   6.590   8.840  1.0444 -1.2707  0.3049
  379MOL0     C51065   4.720   6.690   8.764 -0.2120  0.4686 -1.5181
  379MOL0     O51066   4.582   6.694   8.781 -0.1249 -0.8814  0.0804
  379MOL0     C51067   4.513   6.821   8.794 -0.3887 -0.5539  0.3029
  379MOL0     C51068   4.355   6.802   8.806 -1.0127  0.0792  0.4796
  379MOL0     C51069   4.322   6.710   8.917  0.0683  0.8751  0.3899
  379MOL0     C51070   4.170   6.706   8.951 -0.6768 -0.0883 -0.4264
  379MOL0     C51071   4.078   6.640   8.851  0.3977  0.4900 -0.2174
  379MOL0     C51072   3.940   6.604   8.920 -0.8346 -0.1466  0.0673
  379MOL0     C51073   3.835   6.559   8.824 -1.1914 -0.9779 -0.3775
  379MOL0     C51074   3.704   6.545   8.891  0.6133  0.3847  0.0585
  379MOL0    Cl51075   3.588   6.480   8.764  0.3730  0.2108 -0.0803
  379MOL0     C51076   4.794   6.765   8.678  0.0079  0.0604  0.7164
  379MOL0     C51077   4.933   6.741   8.664  0.8043  1.0383 -0.6288
  379MOL0     O51078   5.133   6.404   8.709 -0.2744  0.4328 -0.3722
  379MOL0     C51079   5.425   6.592   8.683  0.5380  0.2769 -0.0193
  379MOL0     C51080   5.560   6.583   8.656 -0.5598 -0.5943 -0.7829
  379MOL0     N51081   6.318   6.460   8.248 -0.7001 -0.3758  0.2095
  379MOL0     N51082   6.410   6.491   8.168 -0.2168  0.4091  0.6680
  379MOL0     C51083   7.392   6.755   7.861 -0.5071 -0.0124  0.0363
  379MOL0     C51084   7.519   6.808   7.885  0.0911 -0.5639 -0.5139
  379MOL0     C51085   7.957   6.806   7.924 -0.2466 -0.1517 -0.2935
  379MOL0     C51086   8.035   6.759   8.031 -0.2584 -0.5048  0.2714
  379MOL0     C51087   8.168   6.798   8.048  0.2340 -0.0012 -0.2979
  379MOL0     C51088   8.232   6.887   7.960  0.1306  0.1912 -0.2076
  379MOL0     O51089   8.364   6.912   7.944 -0.0422 -0.3176 -0.1092
  379MOL0     C51090   8.459   6.811   7.963 -0.3643 -0.4855  0.4581
  379MOL0     C51091   8.595   6.874   7.915 -0.5043 -0.0047 -0.5537
  379MOL0     C51092   8.714   6.811   7.980 -0.2594  0.3419 -0.5597
  379MOL0     C51093   8.726   6.667   7.958 -0.9670 -0.2918 -0.1155
  379MOL0     C51094   8.849   6.605   8.010 -0.2767 -0.5216 -0.1461
  379MOL0     C51095   8.949   6.560   8.054 -0.2857 -0.4692  0.5814
  379MOL0     C51096   8.157   6.937   7.851 -0.3488  0.7149 -0.2303
  379MOL0     C51097   8.023   6.898   7.838  0.1257  0.2075  0.4402
  379MOL0     H51098   7.664   6.728   7.590  0.4624  0.7947  0.5574
  379MOL0     H51099   7.428   6.625   7.554 -0.4477  0.3318  0.1011
  379MOL0     H51100   7.166   6.530   7.869 -1.3521  1.2536  2.9032
  379MOL0     H51101   7.132   6.710   7.875 -0.1011 -1.9164  2.3175
  379MOL0     H51102   7.007   6.534   7.669  1.7816  2.0638 -1.3958
  379MOL0     H51103   6.941   6.547   7.835  1.3608 -1.3008 -0.0336
  379MOL0     H51104   6.933   6.808   7.786 -3.9809 -0.4034  0.2269
  379MOL0     H51105   6.987   6.759   7.621  0.3561 -3.8664 -2.5845
  379MOL0     H51106   6.763   6.809   7.610  1.3646  0.5401  1.0034
  379MOL0     H51107   6.781   6.634   7.598 -1.2210  0.5176 -0.3419
  379MOL0     H51108   6.724   6.589   7.833  0.8314  0.4708 -0.4110
  379MOL0     H51109   6.718   6.756   7.880 -2.7571 -0.5224  0.7097
  379MOL0     H51110   6.525   6.781   7.712 -1.4871  0.9868  0.9311
  379MOL0     H51111   6.545   6.607   7.687  0.4714  1.7546 -0.3239
  379MOL0     H51112   6.475   6.728   7.968 -0.8475  1.3445 -0.5445
  379MOL0     H51113   6.359   6.711   7.840  0.0506  0.4242 -1.9313
  379MOL0     H51114   6.528   6.481   7.934  1.8318  3.5484 -0.4244
  379MOL0     H51115   6.376   6.478   7.826  0.3972 -0.0963 -0.1330
  379MOL0     H51116   6.151   6.458   7.968  1.5056 -0.0352 -0.8451
  379MOL0     H51117   5.993   6.386   8.166 -1.6197 -1.5487  2.4112
  379MOL0     H51118   6.085   6.309   8.283 -1.6191 -2.1015 -4.8167
  379MOL0     H51119   6.017   6.602   8.286  1.7062  0.2670  1.0022
  379MOL0     H51120   6.077   6.516   8.427 -0.7764  1.7116 -0.1230
  379MOL0     H51121   5.876   6.355   8.398 -1.9546 -0.0126  1.9667
  379MOL0     H51122   5.800   6.482   8.292  2.2266 -0.3352 -1.7952
  379MOL0     H51123   5.761   6.624   8.486  0.8063  0.0474  0.7786
  379MOL0     H51124   5.911   6.567   8.559 -0.3152 -1.8361  2.2806
  379MOL0     H51125   5.575   6.309   8.478  3.0873  1.9972 -1.4241
  379MOL0     H51126   5.264   6.322   8.418  0.8917 -0.8004 -0.2778
  379MOL0     H51127   5.379   6.200   8.446  0.7402  0.8533  0.5864
  379MOL0     H51128   5.249   6.212   8.563 -1.2406  1.1382  0.4467
  379MOL0     H51129   4.968   6.481   8.879  3.3195  0.1260 -2.3981
  379MOL0     H51130   4.728   6.533   8.907  0.3305  3.0132  3.7786
  379MOL0     H51131   4.537   6.866   8.891 -3.0011 -0.5601  1.0217
  379MOL0     H51132   4.545   6.878   8.706  1.8382 -1.4898  0.4347
  379MOL0     H51133   4.302   6.895   8.827 -0.7751 -0.0383  1.6634
  379MOL0     H51134   4.323   6.760   8.710  0.1946 -1.6951  0.8023
  379MOL0     H51135   4.369   6.738   9.012 -0.7087 -0.5772  1.2361
  379MOL0     H51136   4.355   6.607   8.904  2.1298  1.6675 -1.1371
  379MOL0     H51137   4.166   6.644   9.041  2.6799  1.3960  0.9254
  379MOL0     H51138   4.131   6.806   8.972  0.6631  0.1882  0.9992
  379MOL0     H51139   4.135   6.554   8.814  2.8351  0.7552  2.5151
  379MOL0     H51140   4.062   6.706   8.765  2.7343 -2.0369 -2.7959
  379MOL0     H51141   3.954   6.520   8.988 -1.4741 -0.1552  0.1941
  379MOL0     H51142   3.908   6.685   8.986 -1.5957 -0.9914  0.7706
  379MOL0     H51143   3.859   6.464   8.775 -1.5498 -1.8821  1.1687
  379MOL0     H51144   3.843   6.635   8.745  2.4423 -0.5389  0.2092
  379MOL0     H51145   3.642   6.625   8.932 -1.9679 -1.3482 -0.2315
  379MOL0     H51146   3.713   6.475   8.975 -1.7148  2.4424  2.1688
  379MOL0     H51147   4.753   6.843   8.614  1.6496 -0.4931 -1.1209
  379MOL0     H51148   4.994   6.790   8.589  1.7899 -0.1273 -0.6260
  379MOL0     H51149   5.386   6.682   8.728 -0.3782 -0.5131  0.8163
  379MOL0     H51150   5.623   6.665   8.691 -1.1645  0.3335 -1.7801
  379MOL0     H51151   7.321   6.769   7.941  0.0791  0.0113  0.5615
  379MOL0     H51152   7.534   6.853   7.983 -1.9640 -2.5434  0.8018
  379MOL0     H51153   7.995   6.686   8.100  1.9009 -1.6390  0.4081
  379MOL0     H51154   8.228   6.755   8.128  1.5952 -0.5569 -1.5647
  379MOL0     H51155   8.469   6.792   8.070  1.0788  1.1744  0.6663
  379MOL0     H51156   8.441   6.720   7.905 -0.1613 -0.1837 -0.0854
  379MOL0     H51157   8.595   6.980   7.944 -0.3227  0.3577 -1.8354
  379MOL0     H51158   8.595   6.867   7.806 -1.9930  3.0987 -0.8778
  379MOL0     H51159   8.714   6.833   8.087  1.7745 -0.1530 -0.4000
  379MOL0     H51160   8.811   6.853   7.951 -0.0095 -0.6915 -1.2991
  379MOL0     H51161   8.716   6.640   7.853  0.8941  2.7557 -1.1923
  379MOL0     H51162   8.641   6.617   8.007  0.0523 -2.6524 -0.6441
  379MOL0     H51163   9.046   6.521   8.079 -0.0696  0.0483  0.5699
  379MOL0     H51164   8.209   6.988   7.770 -0.2028  0.1169 -0.5210
  379MOL0     H51165   7.969   6.929   7.750 -0.7123 -2.6049 -0.1508
  380MOL0     O51166   2.931   6.165   0.582 -0.4568  0.0929 -0.3388
  380MOL0     C51167   2.953   6.156   0.455  0.2063  0.1724 -0.8616
  380MOL0     O51168   2.858   6.141   0.360  0.1034 -0.1197 -0.0680
  380MOL0     C51169   2.727   6.155   0.401 -0.5917  0.3606 -0.0051
  380MOL0     C51170   2.630   6.057   0.369 -0.4843  0.5332  0.5155
  380MOL0     C51171   2.498   6.083   0.381 -0.9001  0.1950  0.2906
  380MOL0     C51172   2.455   6.210   0.436  0.6804  0.4297  0.1906
  380MOL0     O51173   2.319   6.242   0.454  0.7159 -0.0276 -0.3738
  380MOL0     C51174   2.229   6.130   0.469  0.5281  0.3576 -0.0730
  380MOL0     C51175   2.102   6.159   0.551 -0.6410 -0.6450  0.0090
  380MOL0     C51176   2.014   6.266   0.493  0.7354  1.0220  0.1977
  380MOL0     C51177   1.888   6.289   0.576 -0.2976  1.1237 -0.2915
  380MOL0     C51178   1.775   6.354   0.500 -0.1787 -0.0710 -0.0421
  380MOL0     C51179   1.637   6.349   0.569 -0.1044  0.6427 -0.2527
  380MOL0     C51180   1.519   6.435   0.515 -0.1570 -0.3402 -0.4829
  380MOL0     C51181   1.465   6.386   0.387 -0.0334 -0.3836 -0.2187
  380MOL0     N51182   1.458   6.489   0.282  0.6350 -0.2314 -0.4380
  380MOL0     C51183   1.565   6.540   0.221 -0.2786 -1.4428 -0.1508
  380MOL0     C51184   1.507   6.631   0.135 -0.2154  0.8432 -0.2204
  380MOL0     C51185   1.584   6.724   0.043  0.2083 -0.7887 -0.2717
  380MOL0     C51186   1.493   6.769  -0.075 -0.0333 -0.0157 -0.5255
  380MOL0     C51187   1.564   6.890  -0.144  0.7193  0.6279 -0.0943
  380MOL0     C51188   1.521   6.931  -0.280 -0.3134  0.2533  0.0052
  380MOL0     O51189   1.551   6.826  -0.376  0.1493  0.5208 -0.0315
  380MOL0     C51190   1.674   6.831  -0.441  0.3781  0.7633 -0.4121
  380MOL0     C51191   1.675   6.759  -0.566 -0.1034 -0.1993 -0.6737
  380MOL0     C51192   1.792   6.756  -0.646 -0.3126 -0.2883  0.6932
  380MOL0     C51193   1.777   6.663  -0.761  0.0667 -0.9600  0.1817
  380MOL0     C51194   1.904   6.829  -0.606  0.6299 -0.4877 -0.1033
  380MOL0     C51195   2.034   6.826  -0.676  0.4357 -0.2379 -0.2171
  380MOL0     O51196   2.140   6.881  -0.599 -0.4306 -0.6654  0.6127
  380MOL0     C51197   2.264   6.898  -0.670 -0.0899  0.5164 -0.8947
  380MOL0     C51198   2.316   7.025  -0.684 -0.2777  0.2593 -0.8710
  380MOL0     C51199   2.452   7.039  -0.743 -0.0339  0.1506 -0.3437
  380MOL0     C51200   2.529   6.928  -0.789 -1.1313 -0.8490 -0.8153
  380MOL0     O51201   2.640   6.940  -0.866 -0.7984  0.3091  0.6223
  380MOL0     C51202   2.703   7.070  -0.881 -0.9921  1.0858 -0.0275
  380MOL0     C51203   2.843   7.048  -0.935 -0.1060 -0.0254  0.2135
  380MOL0     C51204   2.858   7.013  -1.081  0.0645 -0.8390 -0.9317
  380MOL0     C51205   3.004   6.990  -1.121  0.4918  0.4444 -0.8833
  380MOL0     C51206   3.012   6.982  -1.275  0.1774 -0.3523 -0.6302
  380MOL0     C51207   3.152   7.015  -1.323  0.1614 -0.2172 -0.3858
  380MOL0     C51208   3.160   7.033  -1.473 -0.4225  0.2706  0.1293
  380MOL0     C51209   3.309   7.030  -1.529  0.2740  0.1946  0.3550
  380MOL0    Cl51210   3.421   7.127  -1.437 -0.2033  0.1549 -0.6936
  380MOL0     C51211   2.465   6.806  -0.766  0.5238 -0.2393 -0.2744
  380MOL0     C51212   2.336   6.789  -0.709  0.0981 -0.6109 -0.8273
  380MOL0     O51213   2.038   6.817  -0.799  0.6586 -0.8796 -0.9083
  380MOL0     C51214   1.895   6.905  -0.489  0.5346 -0.4790 -0.2710
  380MOL0     C51215   1.783   6.910  -0.408 -0.1151  0.4202  1.0879
  380MOL0     N51216   1.367   6.612   0.137 -0.3087 -0.7367 -0.2967
  380MOL0     N51217   1.340   6.522   0.228  0.4303 -0.0934 -0.3036
  380MOL0     C51218   2.553   6.306   0.461 -0.2720 -0.4744  0.3339
  380MOL0     C51219   2.689   6.281   0.448  0.2494 -0.3973 -1.0479
  380MOL0     C51220   3.081   6.182   0.405  0.2379 -0.1694  0.2801
  380MOL0     C51221   3.193   6.207   0.487  0.2202 -0.0274  0.7561
  380MOL0     C51222   3.322   6.220   0.437 -0.6082 -0.1118  0.0059
  380MOL0     C51223   3.342   6.219   0.298 -0.0677 -0.8308  0.1967
  380MOL0     O51224   3.455   6.249   0.225 -0.4728 -0.1617  0.9254
  380MOL0     C51225   3.576   6.261   0.299  0.1871  0.3396  0.5074
  380MOL0     C51226   3.698   6.264   0.213 -0.4619 -0.4843 -0.3396
  380MOL0     C51227   3.718   6.141   0.132  0.6283  0.6592  0.0322
  380MOL0     C51228   3.861   6.103   0.102  0.0417 -0.5541 -0.3002
  380MOL0     C51229   3.951   6.065   0.217  0.4073  0.1764 -0.3499
  380MOL0     C51230   4.036   6.032   0.299 -1.5641  1.5509  0.3820
  380MOL0     C51231   3.228   6.206   0.212 -0.0487  0.0018 -0.8256
  380MOL0     C51232   3.104   6.183   0.267 -0.0943  0.2581 -0.7676
  380MOL0     H51233   2.664   5.965   0.323 -3.5887 -0.6347  0.2976
  380MOL0     H51234   2.426   6.012   0.341 -1.1342  0.9713 -0.7027
  380MOL0     H51235   2.195   6.091   0.373  0.4159 -2.0154  0.8641
  380MOL0     H51236   2.276   6.049   0.526  0.4115  0.1160 -0.3211
  380MOL0     H51237   2.043   6.068   0.564 -1.0452 -0.4272 -0.2703
  380MOL0     H51238   2.139   6.191   0.648  1.8775 -1.4209 -0.6065
  380MOL0     H51239   2.070   6.358   0.478  0.0843  1.3220 -0.4182
  380MOL0     H51240   1.991   6.221   0.396 -0.7222 -1.2521  1.4892
  380MOL0     H51241   1.853   6.194   0.618 -2.6531  0.9248 -2.4271
  380MOL0     H51242   1.899   6.353   0.664 -1.7816  1.8096 -0.5688
  380MOL0     H51243   1.803   6.459   0.484  2.3239 -0.5450  0.8300
  380MOL0     H51244   1.765   6.314   0.398  2.5087 -1.6038  0.2058
  380MOL0     H51245   1.613   6.243   0.558  1.4111  0.3968 -1.5977
  380MOL0     H51246   1.660   6.372   0.673  1.3164 -0.1966 -0.3456
  380MOL0     H51247   1.437   6.440   0.588  2.0605 -3.8690  2.6766
  380MOL0     H51248   1.560   6.535   0.499  1.3925 -0.2949  2.7157
  380MOL0     H51249   1.365   6.348   0.410  0.8891 -1.8708  1.5851
  380MOL0     H51250   1.517   6.296   0.355 -2.6289 -2.7054  1.5617
  380MOL0     H51251   1.671   6.515   0.223 -0.0417 -0.4481  0.3446
  380MOL0     H51252   1.603   6.817   0.097 -1.5336 -0.2635 -0.4975
  380MOL0     H51253   1.680   6.684   0.010 -0.1097 -1.1398 -0.7968
  380MOL0     H51254   1.389   6.791  -0.049  0.0760  0.1955 -0.2625
  380MOL0     H51255   1.475   6.686  -0.144 -1.6311  1.1005 -1.5258
  380MOL0     H51256   1.672   6.875  -0.136  0.6853  1.2764  2.6630
  380MOL0     H51257   1.542   6.980  -0.087 -1.2361  1.0668 -1.4409
  380MOL0     H51258   1.564   7.029  -0.300 -1.9460  1.0620  0.2632
  380MOL0     H51259   1.414   6.954  -0.283  0.0290  2.1473  1.1635
  380MOL0     H51260   1.579   6.717  -0.596 -0.0639 -2.4173  1.8850
  380MOL0     H51261   1.730   6.573  -0.722  0.5767 -0.8809  0.9972
  380MOL0     H51262   1.715   6.707  -0.840  1.0823 -0.4469 -0.3500
  380MOL0     H51263   1.875   6.633  -0.798  0.3638  1.0190 -0.8284
  380MOL0     H51264   2.266   7.107  -0.635  3.2271  0.4701  2.9424
  380MOL0     H51265   2.491   7.139  -0.761  1.0065  0.2615  2.2074
  380MOL0     H51266   2.650   7.127  -0.957  0.0811  0.9335 -0.9076
  380MOL0     H51267   2.699   7.129  -0.789 -2.6935  2.7326 -1.0918
  380MOL0     H51268   2.903   7.135  -0.908 -1.6417  1.0787  0.1986
  380MOL0     H51269   2.893   6.972  -0.874  1.8559 -0.0458 -1.3117
  380MOL0     H51270   2.814   7.087  -1.147 -0.4101 -0.3167 -0.0396
  380MOL0     H51271   2.810   6.916  -1.097 -0.2687 -1.6095  3.4940
  380MOL0     H51272   3.068   7.067  -1.076 -1.1195  2.4000 -1.7346
  380MOL0     H51273   3.030   6.891  -1.084 -1.4385  1.2386  3.2639
  380MOL0     H51274   2.950   7.064  -1.313  0.4607  1.4449  2.3976
  380MOL0     H51275   2.984   6.884  -1.315 -1.8249 -0.4823  0.9332
  380MOL0     H51276   3.192   7.106  -1.276 -2.5035  0.9991 -0.3254
  380MOL0     H51277   3.214   6.929  -1.293  1.4475  1.0888  0.8609
  380MOL0     H51278   3.120   7.124  -1.518 -0.3227  0.1300 -0.2480
  380MOL0     H51279   3.115   6.952  -1.531  2.5187 -0.7088 -0.9709
  380MOL0     H51280   3.307   7.047  -1.637  0.9675  1.3197  0.4951
  380MOL0     H51281   3.346   6.928  -1.515 -4.5318 -2.0884 -1.3618
  380MOL0     H51282   2.522   6.719  -0.798  2.0881  0.7639 -0.3477
  380MOL0     H51283   2.300   6.691  -0.677 -0.5674 -0.6099 -1.5467
  380MOL0     H51284   1.977   6.971  -0.462 -1.6917  2.0400  0.7413
  380MOL0     H51285   1.795   6.979  -0.325  0.3365  0.8974  0.6370
  380MOL0     H51286   2.534   6.408   0.494  1.8352 -0.0475  0.4155
  380MOL0     H51287   2.757   6.362   0.471 -0.6622  0.3019 -0.7699
  380MOL0     H51288   3.182   6.198   0.595  0.5615  0.0010  0.7930
  380MOL0     H51289   3.401   6.233   0.510 -2.4605 -0.3207  2.1720
  380MOL0     H51290   3.578   6.347   0.367 -1.6610  0.4224  0.4908
  380MOL0     H51291   3.595   6.177   0.367  2.3597 -0.6001 -1.1202
  380MOL0     H51292   3.784   6.265   0.280  0.5215 -1.6655 -1.5173
  380MOL0     H51293   3.710   6.351   0.149  1.2263 -0.4445 -0.0301
  380MOL0     H51294   3.668   6.160   0.036 -0.0690 -1.2601 -0.0375
  380MOL0     H51295   3.676   6.054   0.183  1.7401 -0.5984 -1.1377
  380MOL0     H51296   3.916   6.183   0.051 -0.5771 -0.8168 -1.4339
  380MOL0     H51297   3.848   6.020   0.031  0.5346 -0.2788 -0.7215
  380MOL0     H51298   4.114   6.015   0.371 -1.2509 -1.0948 -0.4682
  380MOL0     H51299   3.227   6.214   0.104 -1.9135 -0.8733 -0.9154
  380MOL0     H51300   3.023   6.177   0.195 -1.6251 -0.6413  0.9291
  381MOL0     O51301   5.475  10.122   1.581 -0.3685 -0.3035 -0.5066
  381MOL0     C51302   5.383  10.161   1.647 -1.3984  0.4895 -0.2364
  381MOL0     O51303   5.259  10.178   1.602 -0.5488 -0.0922  0.1761
  381MOL0     C51304   5.222  10.105   1.488 -0.2418 -0.4552 -0.3500
  381MOL0     C51305   5.170  10.180   1.385 -0.5040 -0.1774  0.7347
  381MOL0     C51306   5.129  10.111   1.271  1.1277  0.9142 -0.5125
  381MOL0     C51307   5.148   9.980   1.252 -0.1834  0.4107  0.3415
  381MOL0     O51308   5.132   9.910   1.137 -0.6564 -0.3126  0.1059
  381MOL0     C51309   5.211   9.954   1.025 -0.5807 -0.5131  0.3448
  381MOL0     C51310   5.165   9.879   0.898 -0.1978 -0.1107  0.5036
  381MOL0     C51311   5.043   9.944   0.824  0.6398 -0.1327 -0.3567
  381MOL0     C51312   4.978   9.838   0.736  0.3312  0.3890  0.3557
  381MOL0     C51313   4.849   9.885   0.671 -0.1536  0.2041  0.6914
  381MOL0     C51314   4.720   9.880   0.752 -0.0682 -1.0902 -0.0642
  381MOL0     C51315   4.607   9.907   0.658 -0.1855 -0.1093  0.2022
  381MOL0     C51316   4.472   9.921   0.719  0.2181  0.4456  0.1287
  381MOL0     N51317   4.380   9.975   0.621  1.0569 -0.5935 -0.2389
  381MOL0     C51318   4.343   9.916   0.504  0.0126 -0.6065  0.3892
  381MOL0     C51319   4.277  10.022   0.433  0.0885 -0.3621 -0.0831
  381MOL0     C51320   4.228  10.004   0.293 -0.8899 -0.7006 -0.4981
  381MOL0     C51321   4.103   9.927   0.295  0.2288  0.3299 -0.0147
  381MOL0     C51322   3.981  10.019   0.323  0.1525  0.2197 -0.2154
  381MOL0     C51323   3.861   9.940   0.356  0.3639  0.7199 -0.7045
  381MOL0     O51324   3.751  10.031   0.350 -0.0256  0.3237 -0.4927
  381MOL0     C51325   3.626   9.967   0.368  0.2485  0.9901  0.5187
  381MOL0     C51326   3.598   9.829   0.385  0.3894 -0.4231  1.2207
  381MOL0     C51327   3.476   9.782   0.410  1.0449  0.0812  0.2327
  381MOL0     C51328   3.474   9.628   0.440  0.6344 -0.7547 -0.2653
  381MOL0     C51329   3.362   9.866   0.420  0.7786 -0.2985 -0.6079
  381MOL0     C51330   3.229   9.830   0.465  0.0802 -1.3455  0.3062
  381MOL0     O51331   3.152   9.938   0.512  0.2179 -0.0820  0.0361
  381MOL0     C51332   3.017   9.921   0.533  0.8517 -0.4304  0.3686
  381MOL0     C51333   2.927   9.937   0.424  0.4134 -0.4652  0.4882
  381MOL0     C51334   2.792   9.927   0.455 -0.8969 -0.8013 -0.0363
  381MOL0     C51335   2.749   9.886   0.582  0.3502  0.2275  0.3741
  381MOL0     O51336   2.612   9.887   0.599  0.3658  0.9944 -0.2653
  381MOL0     C51337   2.548   9.831   0.717  0.6470  0.0651 -0.1663
  381MOL0     C51338   2.410   9.878   0.745 -0.3582  0.1462  0.2176
  381MOL0     C51339   2.306   9.795   0.665 -0.9507  0.4200 -0.0921
  381MOL0     C51340   2.171   9.869   0.684 -0.5716  0.3304  0.2379
  381MOL0     C51341   2.060   9.830   0.577  0.6964  0.7787  0.0513
  381MOL0     C51342   2.035   9.675   0.557 -0.8007  0.2176 -0.3153
  381MOL0     C51343   1.902   9.640   0.490  1.1741 -0.4647  0.0162
  381MOL0     C51344   1.899   9.664   0.334 -0.1424  0.7299  0.1187
  381MOL0    Cl51345   2.021   9.553   0.258  0.2766 -0.5178 -0.1407
  381MOL0     C51346   2.841   9.849   0.684  0.3177  0.2234 -0.9398
  381MOL0     C51347   2.970   9.874   0.656 -0.1001 -0.1094 -0.3517
  381MOL0     O51348   3.199   9.716   0.469 -0.4017 -0.3667 -0.2919
  381MOL0     C51349   3.386  10.006   0.396  0.5130 -0.5129 -0.0672
  381MOL0     C51350   3.519  10.056   0.367 -0.4038 -1.1554 -0.1035
  381MOL0     N51351   4.266  10.136   0.513  0.3591 -0.1771 -0.1008
  381MOL0     N51352   4.324  10.105   0.626  0.2130 -0.7146 -0.4466
  381MOL0     C51353   5.215   9.905   1.350  0.5500 -0.4829  0.2870
  381MOL0     C51354   5.241   9.971   1.472 -0.2430  0.0552  0.1113
  381MOL0     C51355   5.403  10.216   1.782  1.0855 -0.1163  0.0150
  381MOL0     C51356   5.510  10.177   1.864 -0.6851  0.4137 -0.3351
  381MOL0     C51357   5.516  10.234   1.992  0.6587 -1.2128 -0.0349
  381MOL0     C51358   5.407  10.306   2.042  0.3336  0.2349 -1.1960
  381MOL0     O51359   5.413  10.361   2.164 -0.4326  0.1665 -0.6277
  381MOL0     C51360   5.289  10.374   2.240  0.0526  0.1454  0.0775
  381MOL0     C51361   5.329  10.406   2.389 -0.2455 -0.6910  0.4453
  381MOL0     C51362   5.403  10.298   2.458  0.1965  0.9629 -0.2942
  381MOL0     C51363   5.307  10.201   2.521  0.1135 -0.3527  0.5536
  381MOL0     C51364   5.246  10.242   2.645 -0.7054  0.0783 -0.8622
  381MOL0     C51365   5.178  10.264   2.742  0.1225  0.3021 -0.8279
  381MOL0     C51366   5.301  10.335   1.961  0.2622  0.6745  0.0567
  381MOL0     C51367   5.296  10.296   1.838 -0.5496  0.9366 -0.3064
  381MOL0     H51368   5.152  10.286   1.400  1.3588  0.5087 -1.2873
  381MOL0     H51369   5.085  10.172   1.194  1.3485  1.0747 -0.5144
  381MOL0     H51370   5.209  10.063   1.019 -0.5737 -0.4959  0.6485
  381MOL0     H51371   5.313   9.919   1.037 -1.3105 -2.7090  0.6680
  381MOL0     H51372   5.243   9.878   0.821 -1.9625  2.3614 -1.4766
  381MOL0     H51373   5.145   9.775   0.926 -0.2263 -0.0648  0.6557
  381MOL0     H51374   4.980   9.954   0.912  3.1350  1.4257  1.4035
  381MOL0     H51375   5.066  10.043   0.782 -0.1766 -0.5080 -1.7787
  381MOL0     H51376   5.043   9.821   0.650  0.4207  1.2151  0.2563
  381MOL0     H51377   4.961   9.741   0.784  0.7001 -0.4828 -1.1844
  381MOL0     H51378   4.871   9.985   0.632  2.1145  0.3520  2.1685
  381MOL0     H51379   4.842   9.820   0.583  0.2418 -0.3491  1.0559
  381MOL0     H51380   4.702   9.781   0.794 -0.3063 -0.3617  1.6313
  381MOL0     H51381   4.725   9.957   0.829 -2.1961 -1.2658  0.3076
  381MOL0     H51382   4.636  10.001   0.610  0.0341 -0.4960 -0.4295
  381MOL0     H51383   4.611   9.829   0.582  3.4885 -0.3958  0.5048
  381MOL0     H51384   4.464   9.990   0.804 -1.8214  2.7821 -1.7777
  381MOL0     H51385   4.448   9.816   0.736  3.3997 -1.3233 -4.3657
  381MOL0     H51386   4.375   9.818   0.470  0.5380 -0.4427  0.3951
  381MOL0     H51387   4.212  10.104   0.254 -1.1016 -0.1126  1.0116
  381MOL0     H51388   4.296   9.946   0.229  0.0635 -1.3941  1.0806
  381MOL0     H51389   4.110   9.846   0.369  1.1785  0.7759  0.4045
  381MOL0     H51390   4.098   9.880   0.196 -1.8728  2.3790 -0.9536
  381MOL0     H51391   3.959  10.082   0.237 -1.2671  1.4824  1.0181
  381MOL0     H51392   3.999  10.084   0.410 -0.2394 -0.0017  0.0343
  381MOL0     H51393   3.867   9.900   0.457 -0.2145  3.9669  0.7284
  381MOL0     H51394   3.846   9.857   0.286 -0.5579  0.2579  0.0264
  381MOL0     H51395   3.687   9.767   0.379  1.0281  0.4801  1.2736
  381MOL0     H51396   3.443   9.568   0.355 -0.4186 -3.0507  1.6347
  381MOL0     H51397   3.573   9.592   0.471  0.5952 -2.8221 -2.2964
  381MOL0     H51398   3.399   9.606   0.517 -0.4073 -2.1617 -1.6414
  381MOL0     H51399   2.961   9.977   0.329 -2.5739  0.8308 -0.1489
  381MOL0     H51400   2.720   9.975   0.389 -0.3191  0.2791  0.0842
  381MOL0     H51401   2.555   9.722   0.712  1.7744  0.0250  1.4504
  381MOL0     H51402   2.594   9.868   0.809 -1.1597 -1.7130  1.5786
  381MOL0     H51403   2.409   9.853   0.852  4.7225 -1.4823  0.1835
  381MOL0     H51404   2.403   9.986   0.735  0.3172  0.5677  3.1700
  381MOL0     H51405   2.288   9.692   0.699  2.1721  0.0140  0.6282
  381MOL0     H51406   2.331   9.791   0.558  2.8296 -1.4654  0.7118
  381MOL0     H51407   2.140   9.853   0.788  2.4501  0.1427  1.1981
  381MOL0     H51408   2.191   9.975   0.666 -0.8220  0.2772 -0.3852
  381MOL0     H51409   2.093   9.858   0.476  0.9132 -1.6099 -0.6026
  381MOL0     H51410   1.971   9.883   0.612 -0.5936 -2.1612  1.5360
  381MOL0     H51411   2.118   9.627   0.504 -0.4532 -1.2393  1.4560
  381MOL0     H51412   2.048   9.639   0.660  0.9517  1.8225  0.0851
  381MOL0     H51413   1.823   9.709   0.522  0.9958  2.0063 -4.8495
  381MOL0     H51414   1.888   9.535   0.516  4.5680 -1.3170 -1.1333
  381MOL0     H51415   1.917   9.768   0.307  0.1407  0.5816 -0.2649
  381MOL0     H51416   1.799   9.645   0.294 -1.6684  1.5298  3.2146
  381MOL0     H51417   2.815   9.801   0.778  0.8712  3.0147  0.7456
  381MOL0     H51418   3.045   9.861   0.734 -0.1828  0.4311 -0.1769
  381MOL0     H51419   3.298  10.068   0.400  1.1858  0.4090  1.4824
  381MOL0     H51420   3.527  10.163   0.347 -0.1370 -1.0367  0.6291
  381MOL0     H51421   5.243   9.801   1.337 -0.4091 -1.1361  2.7365
  381MOL0     H51422   5.262   9.908   1.557 -0.7894 -0.0798  0.1504
  381MOL0     H51423   5.595  10.115   1.837 -2.4816 -0.8678 -3.5916
  381MOL0     H51424   5.607  10.219   2.049  0.4139 -0.7053  0.5090
  381MOL0     H51425   5.241  10.462   2.197  1.8154  1.6230  1.0003
  381MOL0     H51426   5.219  10.290   2.241 -1.2796  1.2231 -0.1483
  381MOL0     H51427   5.249  10.449   2.450  0.1010  3.0157 -1.4476
  381MOL0     H51428   5.401  10.486   2.370  0.1591 -1.4194 -1.2760
  381MOL0     H51429   5.478  10.336   2.528 -1.1170  1.0391  1.1472
  381MOL0     H51430   5.458  10.239   2.384  1.7562 -0.9994  2.2631
  381MOL0     H51431   5.357  10.108   2.549  2.2768  0.2963 -0.9116
  381MOL0     H51432   5.224  10.171   2.456  2.0656 -3.2168 -0.8125
  381MOL0     H51433   5.126  10.269   2.836  1.7339 -0.5008  0.1604
  381MOL0     H51434   5.218  10.395   1.997 -0.0054  0.5311 -0.3270
  381MOL0     H51435   5.211  10.324   1.776 -0.2323  3.2348  0.1940
  382MOL0     O51436   9.846   6.975   6.263  0.4414 -0.6672 -0.4762
  382MOL0     C51437   9.821   6.948   6.384  0.2689 -0.0429  0.5177
  382MOL0     O51438   9.707   6.981   6.456 -0.0650 -0.0984 -0.3385
  382MOL0     C51439   9.614   7.062   6.392  0.1551 -0.1615 -0.6526
  382MOL0     C51440   9.644   7.198   6.355 -0.2514 -0.4138 -0.0119
  382MOL0     C51441   9.539   7.274   6.306 -0.8198  0.0595  0.2336
  382MOL0     C51442   9.416   7.214   6.268 -0.0996 -0.1834 -0.0997
  382MOL0     O51443   9.315   7.288   6.215  0.1710 -0.2439 -0.3698
  382MOL0     C51444   9.221   7.328   6.313 -0.3962 -0.9987  0.5325
  382MOL0     C51445   9.269   7.454   6.400  0.1429  0.6197 -0.3009
  382MOL0     C51446   9.147   7.512   6.479 -0.2735 -0.9767  1.0979
  382MOL0     C51447   9.186   7.634   6.559  0.2930 -0.1753 -0.1780
  382MOL0     C51448   9.076   7.676   6.659 -0.2136 -0.1016 -0.4170
  382MOL0     C51449   9.069   7.578   6.781  0.2981  1.0004  0.1671
  382MOL0     C51450   8.992   7.645   6.897  0.3618 -0.0463  0.8899
  382MOL0     C51451   8.849   7.684   6.861 -0.2167  0.3548  0.8464
  382MOL0     N51452   8.741   7.583   6.843 -0.2960 -0.1945  0.2286
  382MOL0     C51453   8.715   7.474   6.916 -0.0171  0.3564 -0.4645
  382MOL0     C51454   8.615   7.423   6.855 -0.0952 -0.4446  0.8083
  382MOL0     C51455   8.562   7.283   6.896  0.5980  0.2802 -0.6755
  382MOL0     C51456   8.439   7.311   6.991  0.2576  0.5759  0.2661
  382MOL0     C51457   8.304   7.336   6.912 -0.1705 -0.0882 -0.6189
  382MOL0     C51458   8.183   7.317   7.006 -0.5914 -0.7535  0.2344
  382MOL0     O51459   8.133   7.183   6.995  0.3834 -0.0443 -0.0415
  382MOL0     C51460   8.022   7.164   7.065 -0.5741 -0.6212 -0.0493
  382MOL0     C51461   8.022   7.072   7.170  0.8986  0.0126 -0.6655
  382MOL0     C51462   7.905   7.025   7.233  0.2003 -0.3575  0.2816
  382MOL0     C51463   7.920   6.922   7.346 -0.2595 -0.3771  0.5703
  382MOL0     C51464   7.778   7.085   7.200  1.1551  0.2555 -0.1212
  382MOL0     C51465   7.653   7.055   7.281 -0.0927 -0.8364  0.0677
  382MOL0     O51466   7.561   7.155   7.305  0.2300 -0.4637 -0.7011
  382MOL0     C51467   7.465   7.148   7.406  0.1560 -0.6889  0.4923
  382MOL0     C51468   7.472   7.058   7.516 -0.1074  0.0034  0.4102
  382MOL0     C51469   7.365   7.066   7.613 -0.2979  0.7137  0.3739
  382MOL0     C51470   7.266   7.167   7.610 -0.3823 -0.2736 -0.6857
  382MOL0     O51471   7.165   7.183   7.706 -1.3126 -0.0464 -1.0406
  382MOL0     C51472   7.135   7.068   7.793 -0.0268  0.0556  0.5384
  382MOL0     C51473   7.218   7.071   7.919  0.0375  0.7390  0.7817
  382MOL0     C51474   7.163   7.168   8.026 -0.5790 -0.4861  0.5651
  382MOL0     C51475   7.218   7.307   8.008 -0.1173 -0.8791  0.4988
  382MOL0     C51476   7.147   7.396   8.102 -0.5744 -1.0872  0.6755
  382MOL0     C51477   7.215   7.538   8.118 -0.3301  0.3096 -0.5759
  382MOL0     C51478   7.137   7.619   8.223  0.6277 -0.3907 -0.2850
  382MOL0     C51479   7.019   7.703   8.173  0.1771  0.8488  0.2704
  382MOL0    Cl51480   7.080   7.835   8.074 -0.5607 -0.4949  0.0387
  382MOL0     C51481   7.265   7.249   7.496  0.4988 -0.1322  0.1175
  382MOL0     C51482   7.361   7.243   7.397 -0.2212  0.2189 -0.6373
  382MOL0     O51483   7.639   6.939   7.310 -0.5936 -0.2793 -0.1115
  382MOL0     C51484   7.785   7.176   7.093 -0.0731 -0.3021  0.0543
  382MOL0     C51485   7.899   7.221   7.030  0.5656  0.5196 -0.7649
  382MOL0     N51486   8.586   7.491   6.742 -0.1463  0.3569 -0.2625
  382MOL0     N51487   8.668   7.588   6.739  1.0307 -0.0337 -0.0145
  382MOL0     C51488   9.402   7.081   6.284 -0.0483  0.2597 -0.1342
  382MOL0     C51489   9.499   7.000   6.348 -0.5362 -0.5959  0.1039
  382MOL0     C51490   9.919   6.858   6.458  0.5569 -0.5392  0.0795
  382MOL0     C51491  10.030   6.805   6.394 -0.5061 -0.5337  0.5115
  382MOL0     C51492  10.125   6.729   6.462  0.7167 -0.1643  1.6137
  382MOL0     C51493  10.099   6.699   6.593 -0.5973 -0.2525 -0.6031
  382MOL0     O51494  10.205   6.627   6.647  0.2946  0.8455  0.3216
  382MOL0     C51495  10.192   6.579   6.782 -0.1902 -0.8626 -0.3279
  382MOL0     C51496  10.319   6.510   6.829  0.0218 -0.0211 -0.3889
  382MOL0     C51497  10.353   6.390   6.730 -0.1990  0.5427 -0.8306
  382MOL0     C51498  10.477   6.299   6.772  1.1488  1.0238  0.6556
  382MOL0     C51499  10.463   6.258   6.914  0.3744 -0.1990 -0.8065
  382MOL0     C51500  10.456   6.230   7.027 -0.3799  0.0347 -0.3977
  382MOL0     C51501   9.990   6.757   6.669  0.0701 -0.8737  1.0445
  382MOL0     C51502   9.900   6.828   6.601  0.8877 -1.2234  0.4280
  382MOL0     H51503   9.738   7.242   6.387  0.3952 -1.1924 -0.7885
  382MOL0     H51504   9.562   7.377   6.282  0.4773  0.3733  2.4830
  382MOL0     H51505   9.135   7.376   6.265  0.8615 -0.5515 -1.3948
  382MOL0     H51506   9.183   7.245   6.373 -1.7631  0.3780  1.6361
  382MOL0     H51507   9.345   7.417   6.470  1.0056  2.1644 -0.3660
  382MOL0     H51508   9.309   7.526   6.329  0.9044 -1.9777 -2.6849
  382MOL0     H51509   9.068   7.537   6.407  1.7600 -0.1243 -0.9938
  382MOL0     H51510   9.109   7.430   6.540  1.5248 -1.7000  1.3060
  382MOL0     H51511   9.282   7.613   6.609  0.2861  0.7422  0.2558
  382MOL0     H51512   9.206   7.714   6.487 -0.1819  0.5234  0.4438
  382MOL0     H51513   9.109   7.772   6.699  0.3368  0.1729 -1.4886
  382MOL0     H51514   8.984   7.700   6.606  0.2406  2.4647 -0.1459
  382MOL0     H51515   9.023   7.483   6.749 -0.3422  1.8156 -1.4568
  382MOL0     H51516   9.170   7.558   6.816  0.8076  0.2117 -1.6395
  382MOL0     H51517   8.991   7.583   6.987 -2.1119 -0.8269  0.4250
  382MOL0     H51518   9.051   7.735   6.911 -1.0401  1.1942 -0.7707
  382MOL0     H51519   8.847   7.756   6.779 -5.0763 -1.3119 -0.8815
  382MOL0     H51520   8.820   7.748   6.945 -0.9335  0.8434  0.2367
  382MOL0     H51521   8.758   7.444   7.011 -3.0685  0.4075  1.0934
  382MOL0     H51522   8.534   7.222   6.810 -0.5034 -1.2789  0.7074
  382MOL0     H51523   8.645   7.240   6.954 -1.3127  0.8278  2.7743
  382MOL0     H51524   8.449   7.380   7.075 -1.2630 -0.1717  1.1061
  382MOL0     H51525   8.417   7.220   7.047  0.1293  0.1005 -0.5433
  382MOL0     H51526   8.290   7.272   6.824  1.6639  0.6262 -1.4801
  382MOL0     H51527   8.301   7.439   6.877 -2.0633  0.1692  0.1380
  382MOL0     H51528   8.099   7.381   6.977  0.5344  0.8198  0.3279
  382MOL0     H51529   8.214   7.334   7.110  0.5268 -2.0051  0.1271
  382MOL0     H51530   8.123   7.036   7.184 -0.0408 -2.1657  1.1151
  382MOL0     H51531   8.019   6.918   7.390  0.0381  3.9566  0.7620
  382MOL0     H51532   7.860   6.938   7.436  2.5211  1.9978  2.1534
  382MOL0     H51533   7.898   6.831   7.290 -2.5882  0.8003 -0.5989
  382MOL0     H51534   7.550   6.983   7.530  0.0035  0.4039  2.3354
  382MOL0     H51535   7.356   6.996   7.696 -2.7089  3.0104  2.2044
  382MOL0     H51536   7.030   7.076   7.824  0.1408  0.2623  1.0573
  382MOL0     H51537   7.145   6.971   7.744 -2.2319  0.9743 -1.9745
  382MOL0     H51538   7.220   6.968   7.957  1.3656  1.2388  2.1970
  382MOL0     H51539   7.325   7.090   7.906  0.8161 -0.4606  4.2754
  382MOL0     H51540   7.192   7.122   8.121  1.3346 -1.6376 -0.5167
  382MOL0     H51541   7.053   7.170   8.024 -0.6983 -3.0520 -1.4132
  382MOL0     H51542   7.324   7.305   8.033  0.8492 -3.5033 -2.9544
  382MOL0     H51543   7.203   7.351   7.909 -3.0892  3.8972  2.6990
  382MOL0     H51544   7.135   7.353   8.202  0.2759  0.1154  1.3134
  382MOL0     H51545   7.048   7.405   8.057  0.2581 -3.5030 -1.9693
  382MOL0     H51546   7.316   7.518   8.156 -0.0093  0.3953 -1.3556
  382MOL0     H51547   7.219   7.584   8.019  1.2429  0.5614 -0.4215
  382MOL0     H51548   7.204   7.690   8.271  0.3735 -1.1987  1.3395
  382MOL0     H51549   7.103   7.549   8.301 -1.5770  1.6543  0.7042
  382MOL0     H51550   6.949   7.734   8.250 -1.3890 -1.8432  0.0714
  382MOL0     H51551   6.964   7.640   8.102  1.4625  0.5103 -0.4666
  382MOL0     H51552   7.186   7.323   7.484  0.6157  0.0286  0.3383
  382MOL0     H51553   7.361   7.317   7.318 -0.6494 -1.3608 -2.1837
  382MOL0     H51554   7.692   7.224   7.066 -0.3106 -0.2935  0.8755
  382MOL0     H51555   7.887   7.292   6.949  0.8031  0.9863 -0.3923
  382MOL0     H51556   9.311   7.035   6.249  1.2349 -3.4355  0.9095
  382MOL0     H51557   9.495   6.892   6.351  0.9650 -0.6429  1.9540
  382MOL0     H51558  10.043   6.836   6.291 -3.0253 -3.7727 -0.9870
  382MOL0     H51559  10.217   6.696   6.413 -0.4544 -1.4459  0.1972
  382MOL0     H51560  10.173   6.661   6.852  2.4286  1.1417 -1.7969
  382MOL0     H51561  10.113   6.504   6.789  0.3497 -1.2970  2.1551
  382MOL0     H51562  10.321   6.475   6.932 -0.1898  0.0014 -0.3770
  382MOL0     H51563  10.404   6.578   6.824  3.0679 -3.4541  0.5012
  382MOL0     H51564  10.374   6.426   6.629  3.9603 -1.0432 -0.7075
  382MOL0     H51565  10.264   6.327   6.723 -0.6658  1.2304 -1.2857
  382MOL0     H51566  10.566   6.360   6.761  1.7628  0.0218 -0.0926
  382MOL0     H51567  10.479   6.214   6.702  1.0123  1.4189  0.1617
  382MOL0     H51568  10.457   6.184   7.124 -2.0418 -0.8407 -0.7541
  382MOL0     H51569   9.962   6.730   6.771  0.0097 -1.6961  0.8224
  382MOL0     H51570   9.805   6.864   6.640 -0.2596 -1.0522 -2.3144
  383MOL0     O51571   3.557   1.192   8.773 -0.1723 -0.0420 -0.6036
  383MOL0     C51572   3.619   1.295   8.752 -0.2045  0.0013  0.5112
  383MOL0     O51573   3.600   1.417   8.812  0.1519  0.2025  0.0404
  383MOL0     C51574   3.540   1.432   8.934  1.0630  0.0736 -0.2393
  383MOL0     C51575   3.478   1.559   8.955 -0.1371 -1.0384 -0.0460
  383MOL0     C51576   3.409   1.592   9.076 -0.2163  0.4996  0.0339
  383MOL0     C51577   3.399   1.496   9.185 -0.3225  0.2823  0.8196
  383MOL0     O51578   3.333   1.531   9.299  0.1047  0.8795  0.0217
  383MOL0     C51579   3.290   1.428   9.390 -0.2549 -0.4474 -0.6109
  383MOL0     C51580   3.197   1.487   9.487  0.5258 -0.1570  0.2589
  383MOL0     C51581   3.060   1.529   9.429  1.0194  0.2629  0.9438
  383MOL0     C51582   2.979   1.615   9.529 -0.7798  0.3001 -0.5174
  383MOL0     C51583   2.867   1.699   9.471 -0.0844  0.1054 -0.3920
  383MOL0     C51584   2.790   1.622   9.358 -0.1091 -0.0741 -0.1493
  383MOL0     C51585   2.660   1.700   9.314  0.3596  0.3302 -0.2141
  383MOL0     C51586   2.680   1.848   9.270  0.2828 -0.4280  0.5441
  383MOL0     N51587   2.755   1.837   9.150 -0.2218 -0.9124  0.1268
  383MOL0     C51588   2.698   1.814   9.028 -0.0808  0.7838 -0.2430
  383MOL0     C51589   2.802   1.798   8.944  0.9855 -0.9277 -0.7696
  383MOL0     C51590   2.777   1.799   8.800 -0.0773  1.1066  0.7779
  383MOL0     C51591   2.819   1.654   8.748 -0.4395 -0.0925  0.8509
  383MOL0     C51592   2.978   1.651   8.730 -1.1742 -0.2343  0.2706
  383MOL0     C51593   3.032   1.519   8.672 -0.5656 -0.4494 -0.2838
  383MOL0     O51594   3.174   1.542   8.649 -0.8099  0.3436  0.3674
  383MOL0     C51595   3.233   1.442   8.574  0.4338 -0.3750 -0.2147
  383MOL0     C51596   3.166   1.331   8.516 -0.1233  0.5682 -0.4936
  383MOL0     C51597   3.234   1.232   8.441 -0.1447  0.0441 -0.1156
  383MOL0     C51598   3.151   1.116   8.388  0.1701 -0.8356  0.1738
  383MOL0     C51599   3.377   1.245   8.413 -0.2090 -0.0349  0.2089
  383MOL0     C51600   3.452   1.152   8.321 -0.5972 -0.1872 -0.2193
  383MOL0     O51601   3.565   1.214   8.267 -0.3534 -0.6250  0.0905
  383MOL0     C51602   3.613   1.165   8.152  0.0142 -0.5981 -0.0770
  383MOL0     C51603   3.539   1.099   8.060 -0.7277  0.3053  0.3838
  383MOL0     C51604   3.593   1.046   7.938 -0.1479  0.1325  0.3331
  383MOL0     C51605   3.732   1.052   7.919 -0.4309 -0.5631 -0.2080
  383MOL0     O51606   3.775   1.006   7.797 -0.1950  0.4115 -0.2676
  383MOL0     C51607   3.918   0.982   7.794 -0.3475  1.1239  0.4504
  383MOL0     C51608   3.958   0.916   7.660 -0.5238  0.8678 -0.0438
  383MOL0     C51609   4.113   0.888   7.665 -0.4225  0.0579 -0.0755
  383MOL0     C51610   4.158   0.851   7.526 -0.8284 -0.6904 -0.4629
  383MOL0     C51611   4.285   0.780   7.524  0.2099 -0.0206 -0.2498
  383MOL0     C51612   4.325   0.742   7.384 -1.2233  0.5002  0.6207
  383MOL0     C51613   4.468   0.685   7.376  0.8953 -0.3921 -0.0513
  383MOL0     C51614   4.508   0.669   7.227 -0.4801  1.1429  0.4548
  383MOL0    Cl51615   4.399   0.567   7.126 -0.1154 -0.0524  0.2902
  383MOL0     C51616   3.809   1.118   8.017  0.5279 -0.7762  0.2627
  383MOL0     C51617   3.750   1.184   8.131  0.2963  0.4395 -0.3043
  383MOL0     O51618   3.425   1.037   8.320  0.1118 -0.4244 -0.1325
  383MOL0     C51619   3.443   1.361   8.477  0.2944  0.4767 -0.7717
  383MOL0     C51620   3.374   1.450   8.564  0.0266 -0.1075  0.3068
  383MOL0     N51621   2.922   1.809   9.017  0.7259 -0.2831  0.9119
  383MOL0     N51622   2.891   1.829   9.140  0.2827 -0.4439  0.3204
  383MOL0     C51623   3.469   1.377   9.168  0.6826  0.8536  0.4066
  383MOL0     C51624   3.533   1.346   9.044 -0.3557  0.7551 -0.3920
  383MOL0     C51625   3.717   1.288   8.650 -0.5833 -0.1565 -0.0259
  383MOL0     C51626   3.759   1.171   8.584 -0.3668 -0.8338  0.0653
  383MOL0     C51627   3.850   1.182   8.479  0.5265  0.3575  0.6810
  383MOL0     C51628   3.915   1.296   8.448 -0.4524  0.4290 -0.0864
  383MOL0     O51629   4.013   1.316   8.355  0.8588  0.5446  0.3520
  383MOL0     C51630   4.102   1.212   8.307 -0.1578  0.8314 -0.2397
  383MOL0     C51631   4.224   1.264   8.229 -0.1346 -0.8992  0.3777
  383MOL0     C51632   4.303   1.159   8.151  1.1409  0.1436 -0.1019
  383MOL0     C51633   4.236   1.098   8.032  0.6672 -0.3708 -0.6038
  383MOL0     C51634   4.316   0.991   7.981  0.2013  0.2083  0.9244
  383MOL0     C51635   4.371   0.892   7.936  0.4649  0.2384 -0.1819
  383MOL0     C51636   3.867   1.411   8.504 -0.2973 -0.2216  0.3854
  383MOL0     C51637   3.780   1.408   8.613  0.5306  0.2093 -0.5739
  383MOL0     H51638   3.476   1.638   8.880 -2.6976  0.6298  1.5770
  383MOL0     H51639   3.361   1.688   9.058 -1.8979 -0.8666 -3.9638
  383MOL0     H51640   3.227   1.351   9.343 -1.1448  0.5750 -1.1333
  383MOL0     H51641   3.373   1.388   9.449  0.6555  2.4062  0.1972
  383MOL0     H51642   3.190   1.423   9.575  3.6461 -1.8149 -0.5584
  383MOL0     H51643   3.243   1.578   9.526 -0.0431  0.1965  0.1312
  383MOL0     H51644   3.073   1.590   9.339 -3.3011  1.0640  0.6471
  383MOL0     H51645   3.005   1.437   9.406 -0.9572  2.1481 -2.7241
  383MOL0     H51646   2.929   1.541   9.593  0.3898 -2.2581 -2.3653
  383MOL0     H51647   3.040   1.676   9.596 -0.2884 -0.2223 -0.4779
  383MOL0     H51648   2.808   1.733   9.557  1.0142 -2.1485  1.3850
  383MOL0     H51649   2.912   1.786   9.423 -0.3462  2.2235  2.9056
  383MOL0     H51650   2.852   1.602   9.270 -0.5218  0.2843 -0.5283
  383MOL0     H51651   2.765   1.519   9.384 -2.7121 -0.0146 -2.0689
  383MOL0     H51652   2.621   1.646   9.227  0.8786 -0.2004 -0.1197
  383MOL0     H51653   2.587   1.690   9.395  0.0537  1.4094 -0.3441
  383MOL0     H51654   2.714   1.905   9.357  1.2895  0.6730 -0.5335
  383MOL0     H51655   2.594   1.908   9.240  1.2332  2.4123  3.0601
  383MOL0     H51656   2.595   1.810   8.996 -0.3527 -3.0113  0.7297
  383MOL0     H51657   2.672   1.820   8.776 -0.2763 -1.3955 -0.9175
  383MOL0     H51658   2.842   1.876   8.758  1.4219 -0.7264 -0.3958
  383MOL0     H51659   2.778   1.640   8.647  2.3019 -0.5226 -0.3004
  383MOL0     H51660   2.777   1.575   8.810  1.7870 -0.4692  2.0034
  383MOL0     H51661   3.025   1.670   8.827  0.3490 -0.0826 -0.4670
  383MOL0     H51662   3.009   1.732   8.663 -1.6906 -0.1502  0.1352
  383MOL0     H51663   2.987   1.507   8.573  1.7791  3.4227 -2.0557
  383MOL0     H51664   3.024   1.435   8.741  1.2000  0.5369  1.2103
  383MOL0     H51665   3.059   1.319   8.516  0.0077 -0.8093 -0.5853
  383MOL0     H51666   3.046   1.136   8.408  0.6288  1.7807  0.3462
  383MOL0     H51667   3.164   1.117   8.279 -0.3261 -3.3184  0.0497
  383MOL0     H51668   3.178   1.019   8.430 -2.7315 -1.8944 -0.1890
  383MOL0     H51669   3.431   1.108   8.055 -0.7385  0.2435  0.5042
  383MOL0     H51670   3.525   1.008   7.862 -0.9828  2.0204  0.0921
  383MOL0     H51671   3.972   1.076   7.801  0.9421  0.4436  0.0593
  383MOL0     H51672   3.956   0.923   7.878  2.0964  0.9443 -0.6919
  383MOL0     H51673   3.897   0.827   7.645  0.2214  0.3232  0.0545
  383MOL0     H51674   3.936   0.993   7.586 -0.7762  1.4783  0.6621
  383MOL0     H51675   4.122   0.813   7.744 -1.2079 -0.2619 -0.2778
  383MOL0     H51676   4.168   0.975   7.703 -0.9559 -0.5619  2.3081
  383MOL0     H51677   4.084   0.778   7.491 -1.8838  1.2955 -2.6626
  383MOL0     H51678   4.153   0.940   7.463 -2.0068 -0.1895  0.3189
  383MOL0     H51679   4.264   0.687   7.578  1.0223 -1.3238 -2.0883
  383MOL0     H51680   4.353   0.829   7.595 -1.4740 -2.0661  3.0421
  383MOL0     H51681   4.260   0.668   7.338 -1.9142  1.8897 -0.7484
  383MOL0     H51682   4.340   0.828   7.318  0.4107 -0.8670 -0.8942
  383MOL0     H51683   4.473   0.587   7.424  1.2218 -0.4980 -0.2941
  383MOL0     H51684   4.532   0.753   7.433 -2.4409  1.8229  1.4023
  383MOL0     H51685   4.614   0.641   7.232 -0.8354 -0.4297 -0.4573
  383MOL0     H51686   4.500   0.763   7.171  0.2869 -0.9955 -3.6304
  383MOL0     H51687   3.917   1.121   8.002  0.5781  0.7472  0.7400
  383MOL0     H51688   3.798   1.243   8.208 -1.8794  0.9954  0.6967
  383MOL0     H51689   3.551   1.372   8.473  0.3479  2.5538  2.2952
  383MOL0     H51690   3.423   1.524   8.626  0.3460 -0.3419  0.3402
  383MOL0     H51691   3.466   1.295   9.240 -0.1662  0.9580  0.5039
  383MOL0     H51692   3.572   1.245   9.033 -1.5470 -0.4337  4.1546
  383MOL0     H51693   3.724   1.072   8.612  0.4748 -0.6617  1.8065
  383MOL0     H51694   3.876   1.096   8.419  1.2344  1.5041 -0.7131
  383MOL0     H51695   4.140   1.141   8.382 -2.3337  1.5507  1.6889
  383MOL0     H51696   4.051   1.152   8.231 -1.3283 -0.1499  1.2463
  383MOL0     H51697   4.287   1.328   8.292  0.2231 -0.4366 -0.4193
  383MOL0     H51698   4.172   1.325   8.155 -0.9559 -1.5336  0.4220
  383MOL0     H51699   4.335   1.083   8.224  0.7901  1.0444  1.0048
  383MOL0     H51700   4.396   1.207   8.117  0.6334 -0.5871 -2.7279
  383MOL0     H51701   4.239   1.180   7.960 -2.3740 -1.7805 -2.5436
  383MOL0     H51702   4.134   1.065   8.054  0.5665 -0.5758 -1.3799
  383MOL0     H51703   4.423   0.800   7.919  1.0773  0.6737 -0.6850
  383MOL0     H51704   3.920   1.504   8.485 -1.2645  0.3364  0.3339
  383MOL0     H51705   3.773   1.507   8.657  4.7505  0.8476 -0.8779
  384MOL0     O51706  11.349   9.856   2.739  0.9938 -0.3065  0.0005
  384MOL0     C51707  11.377   9.858   2.621 -0.6702 -0.2396 -0.6257
  384MOL0     O51708  11.297   9.903   2.512 -0.1325  0.0542  0.3463
  384MOL0     C51709  11.176   9.956   2.529 -0.1098 -0.2142 -0.1379
  384MOL0     C51710  11.097   9.904   2.432  0.2893 -0.4073  0.3427
  384MOL0     C51711  10.964   9.940   2.423 -0.5101 -0.2474 -0.5214
  384MOL0     C51712  10.921  10.038   2.517  0.9278 -0.8786  0.3736
  384MOL0     O51713  10.787  10.062   2.489  0.0340  0.0843  0.0620
  384MOL0     C51714  10.705  10.071   2.610 -0.1888  0.0184  0.2294
  384MOL0     C51715  10.561  10.104   2.562  0.0006  0.0804  0.4274
  384MOL0     C51716  10.477  10.157   2.677 -0.2485 -0.3788 -0.5460
  384MOL0     C51717  10.342  10.180   2.623 -0.0607 -0.5191 -0.0363
  384MOL0     C51718  10.262  10.267   2.717  0.0421  0.2550  0.5811
  384MOL0     C51719  10.122  10.304   2.663 -0.9115  0.5951 -0.0102
  384MOL0     C51720  10.121  10.425   2.567 -0.6024  0.5865 -0.2819
  384MOL0     C51721   9.995  10.474   2.508 -0.4172 -0.8434  0.4466
  384MOL0     N51722  10.026  10.571   2.401 -0.2633 -0.0834  0.1893
  384MOL0     C51723  10.018  10.706   2.398  0.8263 -0.0315 -0.0472
  384MOL0     C51724  10.047  10.733   2.273  0.0158 -0.4120 -0.1231
  384MOL0     C51725  10.048  10.876   2.232 -0.6633 -0.3981 -0.4612
  384MOL0     C51726   9.913  10.936   2.234 -0.4424 -0.6309  0.2498
  384MOL0     C51727   9.916  11.071   2.160 -0.5327  0.1042  0.2096
  384MOL0     C51728   9.781  11.112   2.120  0.0869 -0.4006 -0.7826
  384MOL0     O51729   9.766  11.256   2.121  0.1250  0.0791 -0.2167
  384MOL0     C51730   9.635  11.291   2.149 -0.2217 -1.0140 -0.1817
  384MOL0     C51731   9.531  11.265   2.059 -0.0269  0.2308  0.0414
  384MOL0     C51732   9.398  11.314   2.087 -0.3230 -0.1294 -0.9556
  384MOL0     C51733   9.294  11.281   1.982  0.1466  0.3161  0.1370
  384MOL0     C51734   9.380  11.402   2.195  0.3043 -0.0469 -0.2134
  384MOL0     C51735   9.251  11.466   2.241  0.3369  0.6653  0.7907
  384MOL0     O51736   9.243  11.543   2.352  0.1105 -0.0651  0.1952
  384MOL0     C51737   9.128  11.622   2.373  0.9747 -0.9140  0.0926
  384MOL0     C51738   9.012  11.560   2.419  0.9097 -0.8374 -0.1548
  384MOL0     C51739   8.892  11.626   2.446 -0.4664  0.1258  0.2459
  384MOL0     C51740   8.882  11.754   2.409  1.1802 -0.3067 -0.2453
  384MOL0     O51741   8.779  11.835   2.433  0.4271 -0.0217 -0.4930
  384MOL0     C51742   8.673  11.786   2.526 -0.4163 -0.0566  0.3724
  384MOL0     C51743   8.570  11.903   2.549  0.3822  0.1435  0.7430
  384MOL0     C51744   8.505  11.949   2.420 -0.4672  0.2687 -0.4640
  384MOL0     C51745   8.367  11.996   2.450  1.1759  0.0264  0.9365
  384MOL0     C51746   8.327  12.087   2.335 -0.2367  0.0024 -0.1087
  384MOL0     C51747   8.200  12.168   2.363  0.0577  0.1794 -0.3653
  384MOL0     C51748   8.133  12.250   2.251  0.0403  0.1583 -0.0921
  384MOL0     C51749   8.224  12.371   2.223  0.0087 -0.1895  0.5889
  384MOL0    Cl51750   8.139  12.512   2.148 -0.0990  0.2744  0.2376
  384MOL0     C51751   8.998  11.824   2.364  0.2563 -1.3961 -0.0057
  384MOL0     C51752   9.122  11.761   2.354  0.8791  1.2196 -0.3823
  384MOL0     O51753   9.159  11.451   2.161  0.5100  0.8161 -0.3379
  384MOL0     C51754   9.490  11.419   2.287  0.3316  1.0670  0.1280
  384MOL0     C51755   9.615  11.374   2.262 -0.2970  0.8371  0.2837
  384MOL0     N51756  10.070  10.625   2.193 -0.4417  0.4976  0.0238
  384MOL0     N51757  10.062  10.527   2.270  0.2396  0.0525 -0.8121
  384MOL0     C51758  10.994  10.080   2.626 -0.8895  0.1544 -0.0369
  384MOL0     C51759  11.132  10.037   2.626 -0.0316 -0.8111 -0.1253
  384MOL0     C51760  11.514   9.838   2.583 -1.1798 -1.0754 -0.4390
  384MOL0     C51761  11.561   9.859   2.454 -0.1529 -0.4933  0.4585
  384MOL0     C51762  11.695   9.835   2.420  0.1007 -0.2502  0.8938
  384MOL0     C51763  11.798   9.793   2.507  0.2266  0.0950 -0.0113
  384MOL0     O51764  11.924   9.766   2.460 -0.2130  0.2361  0.4536
  384MOL0     C51765  12.013   9.673   2.513 -0.6517 -0.5801  0.0912
  384MOL0     C51766  12.137   9.737   2.574  0.3469  0.1644 -0.2703
  384MOL0     C51767  12.120   9.790   2.719  0.0954  0.9038  0.7636
  384MOL0     C51768  12.251   9.850   2.783 -0.1324  0.2689 -0.1012
  384MOL0     C51769  12.334   9.926   2.695  0.4218 -0.4183 -0.3320
  384MOL0     C51770  12.403  10.001   2.618 -0.3521 -0.1288  0.9739
  384MOL0     C51771  11.745   9.756   2.634  0.3830 -0.5898 -0.5102
  384MOL0     C51772  11.605   9.778   2.672  0.2041  0.6583 -0.2836
  384MOL0     H51773  11.140   9.830   2.366  1.7765 -2.8979  3.8336
  384MOL0     H51774  10.886   9.885   2.372 -2.5387  0.3969  1.7139
  384MOL0     H51775  10.707   9.974   2.660  0.7239  0.2133  0.5896
  384MOL0     H51776  10.728  10.152   2.680  1.0929  0.7767 -1.0107
  384MOL0     H51777  10.555  10.191   2.496  0.2893  1.7157  2.4378
  384MOL0     H51778  10.513  10.020   2.512  0.0095  1.8985 -2.9816
  384MOL0     H51779  10.476  10.076   2.751 -0.4741  0.7282  0.6868
  384MOL0     H51780  10.517  10.251   2.714  1.4226 -1.6057  0.9279
  384MOL0     H51781  10.356  10.222   2.523  0.1428  1.3959  0.7606
  384MOL0     H51782  10.291  10.083   2.615 -1.0295 -0.0917  0.7906
  384MOL0     H51783  10.248  10.205   2.806 -0.2221  1.3200  1.2987
  384MOL0     H51784  10.318  10.358   2.742  0.3758  0.7416 -1.6760
  384MOL0     H51785  10.085  10.217   2.609  0.3274  0.4761 -0.6915
  384MOL0     H51786  10.060  10.319   2.752 -0.0795  0.9873  0.5139
  384MOL0     H51787  10.194  10.497   2.605  1.1587 -0.3395 -1.7119
  384MOL0     H51788  10.182  10.378   2.488 -2.5748 -2.4074 -0.2089
  384MOL0     H51789   9.936  10.517   2.590  1.1470  1.2130  0.5550
  384MOL0     H51790   9.936  10.387   2.478 -0.7411 -0.1236 -1.0978
  384MOL0     H51791   9.977  10.760   2.483  1.6318 -0.5110  0.6649
  384MOL0     H51792  10.121  10.930   2.293  0.0863  0.1453 -1.7994
  384MOL0     H51793  10.076  10.875   2.126 -2.2090 -2.0199 -0.8992
  384MOL0     H51794   9.876  10.954   2.335  0.4752  1.0680  0.3186
  384MOL0     H51795   9.839  10.864   2.198 -0.6762 -0.5458  0.5531
  384MOL0     H51796   9.983  11.072   2.073  1.1535  1.2805  1.4838
  384MOL0     H51797   9.954  11.149   2.226 -0.1998  1.3349 -1.3626
  384MOL0     H51798   9.707  11.061   2.182 -0.1097 -0.0793 -0.7491
  384MOL0     H51799   9.759  11.087   2.016 -0.2771  3.1539 -1.6841
  384MOL0     H51800   9.555  11.204   1.973  4.1151  0.3677  0.9031
  384MOL0     H51801   9.224  11.362   1.959 -1.0203 -0.5957  0.3994
  384MOL0     H51802   9.337  11.265   1.882 -3.0541  0.7628 -1.4203
  384MOL0     H51803   9.241  11.188   2.004 -0.0242  0.3618 -0.0798
  384MOL0     H51804   9.012  11.452   2.416  0.4003 -0.8259 -1.5641
  384MOL0     H51805   8.816  11.560   2.488 -0.1054 -0.6958 -0.3499
  384MOL0     H51806   8.637  11.696   2.476  0.4901  0.4716 -1.3507
  384MOL0     H51807   8.711  11.752   2.622  1.6363 -0.1963 -0.4320
  384MOL0     H51808   8.490  11.876   2.618 -0.3738 -0.2928 -0.2733
  384MOL0     H51809   8.625  11.986   2.594 -1.3548  0.8813  1.5795
  384MOL0     H51810   8.497  11.870   2.344  0.8788 -0.5738  0.2450
  384MOL0     H51811   8.574  12.025   2.384  0.3276 -0.6170 -0.8495
  384MOL0     H51812   8.297  11.911   2.449  0.5646  0.4638  2.6002
  384MOL0     H51813   8.349  12.044   2.547  1.4045  1.1693  0.4200
  384MOL0     H51814   8.318  12.027   2.244 -0.8763 -1.3748  0.8230
  384MOL0     H51815   8.410  12.156   2.322  1.2796 -1.9973 -1.8004
  384MOL0     H51816   8.125  12.102   2.407  1.1331 -1.0612 -0.3173
  384MOL0     H51817   8.229  12.224   2.452  0.9693  0.1038 -0.5949
  384MOL0     H51818   8.033  12.287   2.276  0.1715  1.1053 -0.9148
  384MOL0     H51819   8.135  12.190   2.160 -1.3337 -1.5442  0.9394
  384MOL0     H51820   8.310  12.340   2.163  0.0747  0.5890  0.2678
  384MOL0     H51821   8.260  12.415   2.317 -2.4599 -1.5417  2.2738
  384MOL0     H51822   8.995  11.932   2.364  0.1552 -1.3433  2.3052
  384MOL0     H51823   9.215  11.812   2.333 -0.1901  2.7831 -1.6043
  384MOL0     H51824   9.469  11.461   2.385 -0.6070  1.3965 -0.2066
  384MOL0     H51825   9.692  11.397   2.334 -3.7591  2.2860  3.8680
  384MOL0     H51826  10.959  10.150   2.701 -2.8759 -2.9801  2.1911
  384MOL0     H51827  11.208  10.080   2.690 -0.2045 -3.1476  1.7766
  384MOL0     H51828  11.494   9.902   2.381 -0.2533  0.7498  1.2421
  384MOL0     H51829  11.713   9.869   2.319 -3.2588 -0.7767 -0.0118
  384MOL0     H51830  11.968   9.611   2.591 -0.6288  0.3587  0.8721
  384MOL0     H51831  12.055   9.603   2.440  0.6413 -0.4457  0.6716
  384MOL0     H51832  12.183   9.812   2.509  0.6642  0.0439 -0.1897
  384MOL0     H51833  12.209   9.654   2.581  2.3212  1.8971  4.6660
  384MOL0     H51834  12.094   9.712   2.791 -0.1021  2.0956  2.0364
  384MOL0     H51835  12.047   9.871   2.723  1.5529  2.4982 -1.8158
  384MOL0     H51836  12.319   9.776   2.827  0.8787  0.6633 -0.9797
  384MOL0     H51837  12.226   9.915   2.867 -0.1135  1.4520 -0.9884
  384MOL0     H51838  12.451  10.064   2.546  0.4343 -2.8709 -1.0587
  384MOL0     H51839  11.802   9.710   2.714 -0.5861  0.5988  0.9327
  384MOL0     H51840  11.566   9.739   2.766  0.3802  0.1384 -0.4262
  385MOL0     O51841   6.235   8.983   8.286 -0.5156  0.9728  0.2865
  385MOL0     C51842   6.212   8.870   8.328 -0.6406 -0.6463 -0.0994
  385MOL0     O51843   6.093   8.806   8.303  0.0659  0.1956  0.0582
  385MOL0     C51844   5.997   8.860   8.220 -1.1687  0.0178 -0.2946
  385MOL0     C51845   6.027   8.880   8.081  0.4750  0.0501 -0.3028
  385MOL0     C51846   5.931   8.903   7.988 -0.1243  0.5143  0.5178
  385MOL0     C51847   5.794   8.902   8.022  0.9101 -0.0602 -0.2975
  385MOL0     O51848   5.701   8.908   7.923  0.4354  0.2964  0.5144
  385MOL0     C51849   5.563   8.929   7.938  0.1987  0.3659  0.6959
  385MOL0     C51850   5.505   8.789   7.965 -0.5701  0.0865  0.3008
  385MOL0     C51851   5.355   8.790   7.973  0.4535  0.1748  0.6536
  385MOL0     C51852   5.310   8.739   7.840 -0.6885  0.3411  0.2005
  385MOL0     C51853   5.163   8.729   7.840  0.0728 -0.5830 -0.3885
  385MOL0     C51854   5.117   8.587   7.884  0.0804 -0.5480  0.3860
  385MOL0     C51855   4.968   8.584   7.926 -0.5772  0.3794  0.0899
  385MOL0     C51856   4.869   8.544   7.815  0.2740  0.1558 -0.0487
  385MOL0     N51857   4.911   8.432   7.729 -0.0468 -0.0245  0.3006
  385MOL0     C51858   4.860   8.301   7.733 -0.7869 -0.2581  0.1658
  385MOL0     C51859   4.913   8.238   7.629 -0.0487 -0.1194  0.5687
  385MOL0     C51860   4.874   8.102   7.571 -0.2899 -0.4670 -0.6637
  385MOL0     C51861   4.722   8.089   7.545  0.0197  0.2027 -1.0959
  385MOL0     C51862   4.679   7.951   7.475  0.1245 -0.4002 -0.9125
  385MOL0     C51863   4.533   7.916   7.447 -0.1874 -0.5940 -0.7597
  385MOL0     O51864   4.483   7.893   7.573  0.0940  0.3442 -0.0589
  385MOL0     C51865   4.372   7.815   7.586  0.9354  1.0658 -0.3000
  385MOL0     C51866   4.347   7.760   7.706  0.1273  0.3651  0.5200
  385MOL0     C51867   4.239   7.678   7.734  0.1745  0.9448  0.1488
  385MOL0     C51868   4.223   7.620   7.875 -0.1051  0.6798 -0.7031
  385MOL0     C51869   4.152   7.651   7.629 -0.3869 -0.1449  0.0807
  385MOL0     C51870   4.038   7.547   7.640  1.4129 -0.4286  0.9846
  385MOL0     O51871   4.002   7.500   7.514 -0.4215 -0.2681 -0.6700
  385MOL0     C51872   3.907   7.398   7.505 -0.2734  0.0948 -0.1280
  385MOL0     C51873   3.953   7.279   7.437 -0.5090 -0.1033 -1.2066
  385MOL0     C51874   3.846   7.188   7.417  0.4522 -0.2819 -0.4965
  385MOL0     C51875   3.706   7.209   7.450 -0.6067  0.3952 -0.0300
  385MOL0     O51876   3.614   7.111   7.412 -0.1385  0.0678  0.0539
  385MOL0     C51877   3.476   7.143   7.432 -0.5478 -0.1181 -0.5775
  385MOL0     C51878   3.390   7.010   7.437  0.1121  0.4713  1.4044
  385MOL0     C51879   3.338   6.972   7.296  0.1567 -0.0959 -0.0192
  385MOL0     C51880   3.442   6.883   7.229  0.7804  0.0560 -0.0427
  385MOL0     C51881   3.442   6.738   7.264 -0.2640  0.1659 -0.4951
  385MOL0     C51882   3.301   6.679   7.223  0.4927 -0.3779  0.6262
  385MOL0     C51883   3.300   6.529   7.213 -0.0362 -0.0701 -0.7493
  385MOL0     C51884   3.164   6.468   7.191  0.3302  0.1147  0.3089
  385MOL0    Cl51885   3.185   6.321   7.091  0.0763 -0.0617 -0.2967
  385MOL0     C51886   3.674   7.335   7.509 -0.6772 -0.0577 -0.8811
  385MOL0     C51887   3.775   7.421   7.537  0.8041  0.2674  0.8443
  385MOL0     O51888   4.007   7.502   7.748 -0.0553  0.7766  0.4004
  385MOL0     C51889   4.172   7.707   7.502 -0.5724 -0.2137  0.8167
  385MOL0     C51890   4.285   7.789   7.485  0.1540  0.2562 -0.9226
  385MOL0     N51891   4.999   8.327   7.571  0.9785 -0.0756 -0.6066
  385MOL0     N51892   5.001   8.439   7.635 -0.3927  0.2730 -0.3060
  385MOL0     C51893   5.763   8.886   8.161 -0.4912  0.1429 -0.7989
  385MOL0     C51894   5.859   8.869   8.258  0.1437  0.5797  1.3971
  385MOL0     C51895   6.331   8.801   8.390  0.4970 -0.0635 -0.3888
  385MOL0     C51896   6.466   8.859   8.400  0.7944 -0.6757  0.5764
  385MOL0     C51897   6.567   8.776   8.437 -0.4513  0.5525  0.7189
  385MOL0     C51898   6.549   8.648   8.473  0.4892  0.4612 -0.2819
  385MOL0     O51899   6.649   8.570   8.519  0.5183 -0.1378  0.4599
  385MOL0     C51900   6.737   8.622   8.614  0.3176 -0.2441  0.4399
  385MOL0     C51901   6.789   8.510   8.715 -0.1726  0.3604  0.7216
  385MOL0     C51902   6.668   8.428   8.783 -0.2513 -0.9368 -0.8971
  385MOL0     C51903   6.583   8.511   8.874  0.0387 -1.0791  0.9105
  385MOL0     C51904   6.656   8.556   8.989 -1.2030  0.2948 -0.1950
  385MOL0     C51905   6.741   8.591   9.072 -0.2837  0.4125 -0.7729
  385MOL0     C51906   6.426   8.588   8.465  0.9671  0.2217 -0.1370
  385MOL0     C51907   6.317   8.668   8.427  0.8164 -0.3266  0.7831
  385MOL0     H51908   6.127   8.874   8.039  0.1428 -1.0223 -0.9835
  385MOL0     H51909   5.959   8.918   7.884 -0.6488 -0.6809  0.1836
  385MOL0     H51910   5.555   8.996   8.024 -1.4650 -0.2182  1.0419
  385MOL0     H51911   5.517   8.974   7.850 -1.2732  1.2687  1.8715
  385MOL0     H51912   5.546   8.720   7.892  1.0631  1.7502 -0.4277
  385MOL0     H51913   5.545   8.764   8.064  0.0268 -1.5994 -0.3372
  385MOL0     H51914   5.331   8.715   8.049 -0.2226  0.9494  1.2168
  385MOL0     H51915   5.305   8.883   8.001  0.5002  0.2304  0.5511
  385MOL0     H51916   5.340   8.813   7.765  1.4093  0.5445  1.1738
  385MOL0     H51917   5.349   8.646   7.796 -0.1248  0.5508  0.2482
  385MOL0     H51918   5.125   8.813   7.899  2.3292 -0.4393  0.9598
  385MOL0     H51919   5.122   8.747   7.740  0.2808 -2.0209 -0.7589
  385MOL0     H51920   5.126   8.511   7.806 -3.0986 -1.0804  0.4260
  385MOL0     H51921   5.170   8.554   7.974  0.0657  0.5831  0.8246
  385MOL0     H51922   4.956   8.505   8.000 -2.0438 -0.2157 -0.7476
  385MOL0     H51923   4.936   8.679   7.969  2.0159  1.1068  0.5962
  385MOL0     H51924   4.846   8.628   7.749 -0.4532  0.8443  1.0488
  385MOL0     H51925   4.771   8.521   7.859 -0.4216  4.5239  1.1743
  385MOL0     H51926   4.782   8.270   7.803 -1.4902  2.3790  0.6724
  385MOL0     H51927   4.930   8.091   7.478  3.4609  2.8510  0.8963
  385MOL0     H51928   4.904   8.027   7.644 -1.7857 -1.3596 -0.9374
  385MOL0     H51929   4.668   8.159   7.480 -1.3085  2.9316  2.6185
  385MOL0     H51930   4.671   8.090   7.641  0.1932 -0.3025 -0.9972
  385MOL0     H51931   4.730   7.872   7.530  0.3465  0.5071  0.2146
  385MOL0     H51932   4.732   7.963   7.380  3.7505 -3.0813  0.5355
  385MOL0     H51933   4.528   7.833   7.376  0.9467  2.0905 -4.2839
  385MOL0     H51934   4.491   8.004   7.396 -0.2502  1.6175  2.7879
  385MOL0     H51935   4.421   7.795   7.778  1.9594  0.3081 -1.2288
  385MOL0     H51936   4.125   7.628   7.922  1.2922  0.3700  2.5656
  385MOL0     H51937   4.251   7.514   7.874 -0.1475  0.6659 -0.4060
  385MOL0     H51938   4.297   7.664   7.943 -0.8617  0.1043  0.5252
  385MOL0     H51939   4.045   7.266   7.380  1.2512  2.3848  0.8252
  385MOL0     H51940   3.871   7.091   7.376  1.6814 -0.3701  0.3987
  385MOL0     H51941   3.458   7.195   7.527  0.5717 -1.9832  0.7310
  385MOL0     H51942   3.438   7.206   7.352  0.8988 -0.4539 -1.5679
  385MOL0     H51943   3.445   6.927   7.482 -1.5968 -1.3475  0.2978
  385MOL0     H51944   3.297   7.035   7.489 -1.3898  0.6515 -1.2063
  385MOL0     H51945   3.323   7.054   7.225  2.7631  0.5060  0.0167
  385MOL0     H51946   3.246   6.916   7.313 -0.9612  1.6165 -0.3067
  385MOL0     H51947   3.430   6.888   7.120 -0.1235 -0.6911  0.0125
  385MOL0     H51948   3.538   6.924   7.263  1.7289 -1.7958 -0.3880
  385MOL0     H51949   3.447   6.718   7.371  0.3033 -1.6215 -0.8129
  385MOL0     H51950   3.535   6.694   7.225 -0.4750  0.9697 -1.9685
  385MOL0     H51951   3.228   6.703   7.300 -1.2911 -1.6938 -0.5776
  385MOL0     H51952   3.284   6.730   7.128  0.2748 -1.7196 -0.0730
  385MOL0     H51953   3.330   6.483   7.308  0.4139 -1.1745 -1.4020
  385MOL0     H51954   3.364   6.500   7.129 -2.0840 -3.2378 -1.3751
  385MOL0     H51955   3.104   6.540   7.135  0.1038 -0.4743 -0.2167
  385MOL0     H51956   3.118   6.433   7.284 -2.9448  0.5432 -1.0250
  385MOL0     H51957   3.575   7.369   7.538 -1.0752 -0.2380 -1.9775
  385MOL0     H51958   3.752   7.513   7.590 -0.8431 -1.9515  4.3509
  385MOL0     H51959   4.109   7.691   7.415  0.8028  3.3507 -1.0282
  385MOL0     H51960   4.302   7.831   7.387 -0.3886  2.5649 -0.0920
  385MOL0     H51961   5.660   8.885   8.196 -0.5208  0.1709 -0.8861
  385MOL0     H51962   5.828   8.833   8.356 -1.2160  0.4040  0.9314
  385MOL0     H51963   6.488   8.962   8.372 -0.3556 -0.8311 -1.0492
  385MOL0     H51964   6.665   8.822   8.438 -0.2966  0.2410  0.1178
  385MOL0     H51965   6.826   8.657   8.561  1.1273 -1.0254  1.2486
  385MOL0     H51966   6.692   8.697   8.680  2.9604 -0.2235  2.3509
  385MOL0     H51967   6.856   8.550   8.792  1.3380 -0.2396 -0.2379
  385MOL0     H51968   6.840   8.429   8.661 -3.0596 -0.2642 -1.2708
  385MOL0     H51969   6.708   8.352   8.851  0.5826  2.4849  2.8502
  385MOL0     H51970   6.597   8.376   8.717 -1.9140  0.1231 -0.0303
  385MOL0     H51971   6.499   8.446   8.902 -0.0749 -1.0399  0.6679
  385MOL0     H51972   6.541   8.596   8.818  0.7319 -1.1328  0.2901
  385MOL0     H51973   6.816   8.631   9.138 -0.6063 -0.0368 -0.1340
  385MOL0     H51974   6.423   8.482   8.485  0.5667  0.2628  0.0332
  385MOL0     H51975   6.216   8.631   8.421  0.4429  0.4911  1.8062
  386MOL0     O51976   5.532   4.801   8.799  0.2834  0.1021 -0.0242
  386MOL0     C51977   5.547   4.875   8.702 -0.1922 -0.0077  0.3496
  386MOL0     O51978   5.447   4.896   8.604 -0.7862  0.0844 -0.1937
  386MOL0     C51979   5.317   4.878   8.646 -0.2407 -0.2023 -0.2382
  386MOL0     C51980   5.241   4.988   8.651 -0.7345  0.2214 -0.3718
  386MOL0     C51981   5.102   4.973   8.660 -0.1084 -0.7430 -0.5116
  386MOL0     C51982   5.044   4.849   8.671 -0.2036  0.7088 -0.3199
  386MOL0     O51983   4.909   4.836   8.675  0.4542  0.7366  0.4776
  386MOL0     C51984   4.819   4.945   8.624  0.3151 -0.1437  0.9030
  386MOL0     C51985   4.681   4.891   8.608 -0.4916  0.3652  0.1129
  386MOL0     C51986   4.613   4.846   8.739 -0.2420 -0.0882  0.4498
  386MOL0     C51987   4.464   4.824   8.717  0.6656 -0.1452  0.0116
  386MOL0     C51988   4.369   4.781   8.821 -0.0323 -0.3136 -0.0991
  386MOL0     C51989   4.387   4.627   8.852  0.4295  0.3997  0.2312
  386MOL0     C51990   4.277   4.595   8.967  0.5144  0.9112 -0.6518
  386MOL0     C51991   4.302   4.454   9.022  0.8276 -0.4455  0.5454
  386MOL0     N51992   4.207   4.437   9.133  0.2736 -0.0866  0.5705
  386MOL0     C51993   4.113   4.341   9.141 -0.6730  0.2704  0.1904
  386MOL0     C51994   4.043   4.352   9.257 -0.2562  0.4876 -0.2312
  386MOL0     C51995   3.914   4.294   9.283  0.1998 -0.2335 -0.6934
  386MOL0     C51996   3.811   4.346   9.176 -1.1517 -0.2782 -0.0442
  386MOL0     C51997   3.802   4.501   9.168 -0.2605 -0.7176  0.4542
  386MOL0     C51998   3.663   4.546   9.126  0.5248  0.0250  0.1264
  386MOL0     O51999   3.550   4.505   9.218  0.0008  0.6455  0.0752
  386MOL0     C52000   3.470   4.609   9.267  0.6260  0.3216 -0.0773
  386MOL0     C52001   3.497   4.743   9.281 -0.8321 -0.3683 -0.3631
  386MOL0     C52002   3.409   4.831   9.339 -0.1978  0.7080 -0.2876
  386MOL0     C52003   3.466   4.972   9.328  0.0682  0.4782  0.5756
  386MOL0     C52004   3.283   4.785   9.380  0.5719  0.3619  0.5209
  386MOL0     C52005   3.176   4.865   9.447  1.1617  0.6964 -1.0673
  386MOL0     O52006   3.191   4.998   9.468 -0.5008  0.4019  0.3375
  386MOL0     C52007   3.099   5.054   9.554  0.8384 -0.0191 -0.3954
  386MOL0     C52008   3.108   5.048   9.695 -0.5160  0.5958 -0.5923
  386MOL0     C52009   3.008   5.088   9.783 -0.2753 -0.0578  0.6592
  386MOL0     C52010   2.890   5.135   9.723 -0.2019  0.1916  0.0668
  386MOL0     O52011   2.775   5.187   9.772  0.5361 -0.6258 -0.3490
  386MOL0     C52012   2.763   5.200   9.914 -0.1379 -0.9734  0.6976
  386MOL0     C52013   2.610   5.239   9.951 -0.7852 -0.5771 -0.3391
  386MOL0     C52014   2.567   5.366   9.876  0.6049  0.6202  0.3367
  386MOL0     C52015   2.439   5.329   9.795 -1.3020  0.1385 -0.2835
  386MOL0     C52016   2.398   5.458   9.722  0.5257  1.0011 -0.3880
  386MOL0     C52017   2.365   5.567   9.823 -0.0356 -0.5492 -0.2739
  386MOL0     C52018   2.290   5.677   9.747 -0.4115 -0.3561  0.1844
  386MOL0     C52019   2.273   5.810   9.825  0.2103 -0.3476  0.0772
  386MOL0    Cl52020   2.158   5.923   9.748 -0.1324 -0.1968 -0.9144
  386MOL0     C52021   2.880   5.143   9.586 -0.2212 -1.1159 -0.8128
  386MOL0     C52022   2.982   5.104   9.504  0.1137 -0.3079  0.0057
  386MOL0     O52023   3.077   4.799   9.489 -0.4300  0.1826  0.3079
  386MOL0     C52024   3.256   4.648   9.378  0.4658  0.6401  0.6072
  386MOL0     C52025   3.347   4.562   9.313 -1.0798  0.3105  0.0178
  386MOL0     N52026   4.116   4.447   9.332  0.1105  1.1966 -0.0227
  386MOL0     N52027   4.198   4.497   9.256 -0.1508 -0.1186  0.7693
  386MOL0     C52028   5.123   4.731   8.665  0.0535 -0.8675  0.3340
  386MOL0     C52029   5.256   4.746   8.653 -0.6578 -1.0481 -0.1770
  386MOL0     C52030   5.673   4.942   8.677 -0.0766 -0.1728  0.5687
  386MOL0     C52031   5.790   4.892   8.728  0.3757  0.0413 -0.4896
  386MOL0     C52032   5.913   4.952   8.699 -0.0244  0.4332 -0.4599
  386MOL0     C52033   5.919   5.066   8.615  0.7954  0.3406  0.1982
  386MOL0     O52034   6.047   5.123   8.591 -0.1549  0.3950 -0.1960
  386MOL0     C52035   6.056   5.238   8.510 -0.2233  0.0555 -0.3639
  386MOL0     C52036   6.209   5.238   8.505 -0.5659 -0.9278 -0.5799
  386MOL0     C52037   6.250   5.360   8.431 -0.1305  0.4425  0.1583
  386MOL0     C52038   6.397   5.371   8.430 -0.6029  0.1841  0.3944
  386MOL0     C52039   6.436   5.502   8.371 -0.4419 -0.3478 -1.5126
  386MOL0     C52040   6.493   5.595   8.311  1.5471 -0.1219 -0.1748
  386MOL0     C52041   5.798   5.113   8.565  0.1277 -0.2003  0.5567
  386MOL0     C52042   5.675   5.059   8.601 -0.0914 -0.2400 -0.9415
  386MOL0     H52043   5.298   5.080   8.645  0.1833 -0.3861 -2.1324
  386MOL0     H52044   5.044   5.065   8.648  1.8167  0.1236 -6.1433
  386MOL0     H52045   4.821   5.028   8.694  0.5118  0.8474 -0.2439
  386MOL0     H52046   4.856   4.974   8.525  0.6193 -1.2634  0.6623
  386MOL0     H52047   4.625   4.973   8.563  0.0568  0.6779 -0.0149
  386MOL0     H52048   4.692   4.802   8.545 -0.4798  0.3752  0.1010
  386MOL0     H52049   4.659   4.757   8.782  1.2188  1.6666  2.7697
  386MOL0     H52050   4.631   4.924   8.813 -0.1866  0.5905 -0.2672
  386MOL0     H52051   4.433   4.924   8.685 -0.6041 -0.1306  1.1966
  386MOL0     H52052   4.449   4.754   8.634 -5.2332 -1.2252  1.4802
  386MOL0     H52053   4.369   4.840   8.913  3.9107  0.4162 -0.3803
  386MOL0     H52054   4.272   4.800   8.775 -0.6196  0.0078  1.2108
  386MOL0     H52055   4.363   4.574   8.760 -1.4231 -1.8280  1.8752
  386MOL0     H52056   4.485   4.589   8.885 -1.2025 -2.4351  2.2569
  386MOL0     H52057   4.270   4.666   9.050  1.2964 -1.6540  1.7544
  386MOL0     H52058   4.178   4.587   8.922  0.5588 -3.3916 -0.4225
  386MOL0     H52059   4.404   4.450   9.060  0.8826 -0.5943  0.3836
  386MOL0     H52060   4.294   4.371   8.951 -1.4730 -0.5059  0.7829
  386MOL0     H52061   4.078   4.282   9.057  0.4526 -2.8871  1.7386
  386MOL0     H52062   3.921   4.185   9.291 -2.0779 -0.3440  0.6064
  386MOL0     H52063   3.878   4.325   9.381 -2.1213 -1.7707 -0.9893
  386MOL0     H52064   3.712   4.310   9.205 -1.2134  0.5915  0.8637
  386MOL0     H52065   3.842   4.310   9.077  2.7318  2.1973  0.0762
  386MOL0     H52066   3.883   4.531   9.102  0.3718 -2.3537  0.4378
  386MOL0     H52067   3.815   4.539   9.270 -2.4049  0.8254  0.2297
  386MOL0     H52068   3.640   4.500   9.030 -3.8919  3.6486 -0.8779
  386MOL0     H52069   3.658   4.650   9.093 -0.9335  0.9223  2.8455
  386MOL0     H52070   3.596   4.780   9.256 -0.8954  0.3222  0.3595
  386MOL0     H52071   3.506   5.002   9.425  2.4506 -0.2870 -0.1168
  386MOL0     H52072   3.541   4.986   9.250 -1.8763 -0.6804 -1.6137
  386MOL0     H52073   3.377   5.030   9.302  0.3918  0.6897 -0.0751
  386MOL0     H52074   3.210   5.029   9.726 -0.5378  0.6753 -0.4722
  386MOL0     H52075   3.019   5.093   9.891  2.3774  1.7852  0.4041
  386MOL0     H52076   2.787   5.102   9.956  0.4957 -1.5753 -0.9736
  386MOL0     H52077   2.829   5.276   9.957 -2.4009 -0.0140  2.7584
  386MOL0     H52078   2.551   5.149   9.931 -1.6946 -0.1006  0.1571
  386MOL0     H52079   2.609   5.259  10.058 -0.3913  2.5192 -0.8448
  386MOL0     H52080   2.642   5.403   9.806 -1.0528  1.7144 -0.9352
  386MOL0     H52081   2.544   5.442   9.952 -1.8814 -0.9583  1.2633
  386MOL0     H52082   2.475   5.256   9.722 -2.4157 -0.5716 -0.1524
  386MOL0     H52083   2.357   5.282   9.850 -1.7992  1.6614  0.3227
  386MOL0     H52084   2.313   5.436   9.657 -1.0757 -2.0064  2.4612
  386MOL0     H52085   2.480   5.495   9.659  3.1235 -3.3578  0.0083
  386MOL0     H52086   2.305   5.528   9.906 -1.3029 -0.7040 -1.2316
  386MOL0     H52087   2.446   5.621   9.872 -1.9237  0.3265  2.0955
  386MOL0     H52088   2.191   5.635   9.725  0.1632 -2.5702  1.5119
  386MOL0     H52089   2.341   5.703   9.654 -1.5039  0.5279 -0.1867
  386MOL0     H52090   2.374   5.841   9.853  1.1098 -2.2055 -0.8676
  386MOL0     H52091   2.225   5.763   9.911 -0.4003 -0.3946 -0.2832
  386MOL0     H52092   2.788   5.177   9.538 -0.6328 -0.7827  0.1746
  386MOL0     H52093   2.968   5.120   9.397  0.9403  0.2081 -0.0358
  386MOL0     H52094   3.161   4.607   9.409  0.4256 -1.3278 -1.8213
  386MOL0     H52095   3.339   4.456   9.291  1.9852  0.2072 -1.0578
  386MOL0     H52096   5.084   4.630   8.666 -1.0837 -0.4560  2.6345
  386MOL0     H52097   5.319   4.658   8.650 -2.7918 -2.6365 -1.6063
  386MOL0     H52098   5.798   4.814   8.803  2.8338  1.4770  0.9015
  386MOL0     H52099   6.004   4.917   8.747 -0.5708  0.4226  0.6015
  386MOL0     H52100   6.009   5.221   8.412  1.2510 -1.8996 -0.7928
  386MOL0     H52101   6.011   5.328   8.553 -0.5819 -0.2699 -0.0447
  386MOL0     H52102   6.253   5.151   8.455  0.9379 -0.2174 -0.5478
  386MOL0     H52103   6.243   5.243   8.609 -1.4792  3.1910 -0.2907
  386MOL0     H52104   6.223   5.450   8.488  1.9834  0.0272  1.9509
  386MOL0     H52105   6.211   5.362   8.329 -1.6042  0.4568  0.6979
  386MOL0     H52106   6.450   5.286   8.386  0.6173  0.9838  0.2358
  386MOL0     H52107   6.434   5.382   8.533 -0.6893 -0.1832  0.4655
  386MOL0     H52108   6.535   5.675   8.253  0.4522 -1.5435 -3.1187
  386MOL0     H52109   5.798   5.201   8.501 -0.5166  1.3100  2.5078
  386MOL0     H52110   5.583   5.102   8.563  0.3646  2.1489  0.4651
  387MOL0     O52111   7.629   4.372   7.733  0.0387  0.4551 -0.2003
  387MOL0     C52112   7.577   4.477   7.771  0.2547 -0.6117 -0.1725
  387MOL0     O52113   7.647   4.590   7.805  0.1791 -0.3739  0.9571
  387MOL0     C52114   7.784   4.596   7.801  0.0795  0.5337  0.0306
  387MOL0     C52115   7.864   4.538   7.700  0.7809  1.3344 -0.0333
  387MOL0     C52116   8.004   4.550   7.710  0.2501  0.3554  0.1399
  387MOL0     C52117   8.068   4.639   7.810  0.2111 -0.3171 -0.5966
  387MOL0     O52118   8.201   4.653   7.823  0.1260  0.2461  0.3965
  387MOL0     C52119   8.288   4.645   7.708  0.3199 -0.3316  0.2167
  387MOL0     C52120   8.337   4.496   7.688  0.5745  0.3772 -0.6871
  387MOL0     C52121   8.392   4.465   7.549 -0.5993  0.4178 -0.1324
  387MOL0     C52122   8.510   4.551   7.504  0.3435 -0.0738 -0.6646
  387MOL0     C52123   8.552   4.514   7.362  0.1136  0.0360  0.3503
  387MOL0     C52124   8.638   4.390   7.362  0.5226  0.5153  0.3451
  387MOL0     C52125   8.612   4.313   7.220  0.2345 -0.0544 -0.0006
  387MOL0     C52126   8.716   4.202   7.202  0.5332  0.2246 -0.0843
  387MOL0     N52127   8.684   4.104   7.095  0.1822  0.0928  0.3385
  387MOL0     C52128   8.670   4.138   6.957  0.1323 -0.6098 -0.7216
  387MOL0     C52129   8.642   4.021   6.896  0.0975  1.3329 -0.7278
  387MOL0     C52130   8.632   3.994   6.753 -0.5627 -0.2944  0.3848
  387MOL0     C52131   8.782   3.977   6.704 -0.4705 -0.5119 -1.0144
  387MOL0     C52132   8.799   3.865   6.605 -0.1169 -0.2021 -0.0321
  387MOL0     C52133   8.938   3.840   6.563 -0.2008  0.3959 -0.5529
  387MOL0     O52134   8.989   3.951   6.506 -0.0411  0.1905 -0.0478
  387MOL0     C52135   9.123   3.963   6.477 -0.5403  0.3514  0.1857
  387MOL0     C52136   9.225   3.977   6.573 -0.2950  0.3673  0.2408
  387MOL0     C52137   9.369   3.976   6.535 -0.3562  0.3558  0.4537
  387MOL0     C52138   9.467   3.982   6.652 -0.6172  0.0320  0.1418
  387MOL0     C52139   9.403   3.962   6.402 -0.0964  0.5520 -0.4048
  387MOL0     C52140   9.548   3.974   6.350  0.2762 -0.1039 -0.1546
  387MOL0     O52141   9.566   3.935   6.226  0.1983  0.3868 -0.2996
  387MOL0     C52142   9.686   3.944   6.170 -0.3690 -0.1465 -0.5038
  387MOL0     C52143   9.750   3.828   6.125  1.1521 -0.0677 -0.3685
  387MOL0     C52144   9.870   3.826   6.059  0.2084  0.3684 -0.6190
  387MOL0     C52145   9.944   3.945   6.059  0.1959  0.1478  0.4263
  387MOL0     O52146  10.060   3.931   5.989  1.1737  0.3524 -0.8647
  387MOL0     C52147  10.149   4.041   5.961  1.0873  0.1406  0.0328
  387MOL0     C52148  10.274   3.989   5.898  0.4606  0.0675 -0.1903
  387MOL0     C52149  10.381   4.101   5.894  1.1447  0.1275 -0.6765
  387MOL0     C52150  10.517   4.052   5.835  0.7525 -1.1975  0.7388
  387MOL0     C52151  10.625   4.161   5.849  1.1921  0.0061 -0.0709
  387MOL0     C52152  10.733   4.156   5.739 -0.9458  0.3840 -0.1473
  387MOL0     C52153  10.871   4.208   5.779  0.0899 -0.5989 -0.4118
  387MOL0     C52154  10.970   4.189   5.662  0.9745  0.4748 -0.0052
  387MOL0    Cl52155  11.128   4.247   5.717  0.2496  0.0660  0.2472
  387MOL0     C52156   9.888   4.064   6.112 -0.2657 -0.6537  0.9640
  387MOL0     C52157   9.757   4.069   6.168 -0.2888 -0.2066 -0.8231
  387MOL0     O52158   9.637   3.997   6.434 -0.4977  0.4565  0.2960
  387MOL0     C52159   9.297   3.930   6.310 -0.4977 -0.0855  0.7203
  387MOL0     C52160   9.165   3.939   6.350  0.1668  0.6760  0.3356
  387MOL0     N52161   8.644   3.926   6.999  0.1072  0.2082  0.8890
  387MOL0     N52162   8.667   3.976   7.112 -0.1195 -0.9093  0.1760
  387MOL0     C52163   7.977   4.699   7.901 -0.8733  0.3899 -1.2166
  387MOL0     C52164   7.837   4.680   7.902 -0.3088 -0.0819 -0.4617
  387MOL0     C52165   7.437   4.472   7.813 -0.1749 -0.4102 -0.9536
  387MOL0     C52166   7.383   4.566   7.903 -0.2804  0.9687 -0.7708
  387MOL0     C52167   7.247   4.558   7.935  1.3644 -0.2067  0.6083
  387MOL0     C52168   7.156   4.459   7.876 -0.5159 -0.6663 -0.2769
  387MOL0     O52169   7.017   4.458   7.879 -0.6978 -0.1231  0.1376
  387MOL0     C52170   6.946   4.569   7.929 -0.7792  0.6468 -1.0569
  387MOL0     C52171   6.947   4.573   8.083 -0.0478  0.1326 -0.5874
  387MOL0     C52172   6.857   4.451   8.139 -0.2461  0.4277  0.3502
  387MOL0     C52173   6.712   4.453   8.103 -0.0737  0.6720  0.3066
  387MOL0     C52174   6.659   4.587   8.126  0.7149  0.3210  0.0179
  387MOL0     C52175   6.597   4.686   8.136 -0.5531  0.0142  0.2109
  387MOL0     C52176   7.220   4.362   7.797 -0.7242 -1.1695 -0.0068
  387MOL0     C52177   7.356   4.368   7.773  0.1927  0.4484 -0.4022
  387MOL0     H52178   7.814   4.487   7.618  1.0517  0.8944  0.0779
  387MOL0     H52179   8.061   4.492   7.639  1.1958 -1.0896  1.9760
  387MOL0     H52180   8.228   4.675   7.622  0.4579 -0.5984  0.0293
  387MOL0     H52181   8.370   4.714   7.729  0.9617 -1.2685  0.8796
  387MOL0     H52182   8.419   4.477   7.758  0.9443 -0.0431 -1.2281
  387MOL0     H52183   8.262   4.421   7.716  1.4141  0.3942  1.9498
  387MOL0     H52184   8.435   4.365   7.552  1.9660  1.3866 -1.2193
  387MOL0     H52185   8.308   4.465   7.479 -1.8714 -1.8102  1.2852
  387MOL0     H52186   8.483   4.657   7.508 -0.6701 -0.2298  5.0306
  387MOL0     H52187   8.599   4.536   7.566 -0.7562 -2.4700  0.4619
  387MOL0     H52188   8.464   4.498   7.299  1.1491  2.3723 -1.8940
  387MOL0     H52189   8.597   4.601   7.313  1.3447  1.5491  3.8245
  387MOL0     H52190   8.742   4.407   7.389  0.2873 -1.6797  2.9926
  387MOL0     H52191   8.602   4.324   7.441  0.1546  0.1620 -0.1086
  387MOL0     H52192   8.512   4.269   7.215 -0.1336  0.8756 -4.0159
  387MOL0     H52193   8.612   4.387   7.140  0.2014  0.7824  0.7599
  387MOL0     H52194   8.723   4.151   7.299 -0.1230 -1.3849 -0.8522
  387MOL0     H52195   8.815   4.245   7.185  0.1488 -0.0868 -4.1538
  387MOL0     H52196   8.686   4.239   6.919 -3.8020 -1.0001 -4.1083
  387MOL0     H52197   8.578   3.899   6.748 -0.1120 -0.6503  1.9753
  387MOL0     H52198   8.581   4.073   6.697  1.6682  1.2965  0.4707
  387MOL0     H52199   8.847   3.949   6.788 -0.2674 -2.9212 -1.8929
  387MOL0     H52200   8.829   4.070   6.670  1.1585 -1.0561 -0.3683
  387MOL0     H52201   8.740   3.885   6.515 -0.6335  0.7132  0.4939
  387MOL0     H52202   8.742   3.782   6.647 -0.4743  0.0253 -0.0603
  387MOL0     H52203   8.926   3.767   6.482 -0.1603  0.1310 -0.3194
  387MOL0     H52204   9.006   3.795   6.636  1.5108 -3.2422 -3.9901
  387MOL0     H52205   9.195   3.994   6.676 -3.0366  0.5709 -0.5105
  387MOL0     H52206   9.529   4.071   6.639  0.0281 -0.7905 -3.1930
  387MOL0     H52207   9.412   3.993   6.747 -2.4772 -1.4755 -0.6878
  387MOL0     H52208   9.526   3.890   6.658  0.2839  0.7049  2.3392
  387MOL0     H52209   9.698   3.732   6.125  0.5238  0.1277 -3.8419
  387MOL0     H52210   9.927   3.737   6.033 -0.4998 -0.4891  0.5969
  387MOL0     H52211  10.099   4.109   5.890 -1.0906 -0.3309  1.0222
  387MOL0     H52212  10.175   4.096   6.051 -1.1401  1.1999  0.1093
  387MOL0     H52213  10.324   3.909   5.954 -1.2167  1.3031  3.3795
  387MOL0     H52214  10.253   3.956   5.796 -1.2846 -2.1248  0.7637
  387MOL0     H52215  10.389   4.147   5.993 -0.2691  2.0820 -1.4106
  387MOL0     H52216  10.345   4.186   5.837  0.6135 -1.3392 -2.6312
  387MOL0     H52217  10.551   3.956   5.877  2.7855 -1.4995 -1.4119
  387MOL0     H52218  10.495   4.033   5.730  0.9474 -1.1905  0.6951
  387MOL0     H52219  10.675   4.156   5.947  1.0545  2.1402  0.1536
  387MOL0     H52220  10.568   4.254   5.846  0.5574 -0.3803 -0.1538
  387MOL0     H52221  10.754   4.051   5.722  2.5807 -0.0324  4.6634
  387MOL0     H52222  10.699   4.213   5.653  1.8503  2.5084  0.0070
  387MOL0     H52223  10.912   4.170   5.874 -0.9043  0.4612  0.4670
  387MOL0     H52224  10.863   4.316   5.791  0.6265 -0.7106  1.2396
  387MOL0     H52225  10.932   4.256   5.583  0.5772  1.7964  1.2639
  387MOL0     H52226  10.977   4.082   5.639 -1.5175  0.2331  0.0759
  387MOL0     H52227   9.948   4.154   6.108  0.4247 -1.1364 -0.0151
  387MOL0     H52228   9.714   4.158   6.214  0.5220 -0.4179  0.3931
  387MOL0     H52229   9.308   3.901   6.206 -0.8007 -0.8881  0.8977
  387MOL0     H52230   9.092   3.924   6.272  1.0215 -0.3504 -0.2938
  387MOL0     H52231   8.028   4.743   7.986 -0.7706 -0.1239 -1.0046
  387MOL0     H52232   7.776   4.724   7.980  0.6213  0.6183 -0.1075
  387MOL0     H52233   7.449   4.647   7.932  0.5034  0.4397 -1.0256
  387MOL0     H52234   7.209   4.638   7.997  3.1239  1.4811 -0.3907
  387MOL0     H52235   6.999   4.655   7.887 -2.8432  1.7491 -1.5337
  387MOL0     H52236   6.843   4.574   7.894 -0.6775  0.9292 -1.3197
  387MOL0     H52237   6.913   4.667   8.126 -0.5532  0.8371 -2.4692
  387MOL0     H52238   7.050   4.576   8.119 -0.1847 -0.9111 -0.0527
  387MOL0     H52239   6.868   4.444   8.247 -1.0913  2.6623  0.6265
  387MOL0     H52240   6.897   4.354   8.106 -1.4295  0.1603 -0.3836
  387MOL0     H52241   6.666   4.384   8.173 -0.9454  1.2313  0.3041
  387MOL0     H52242   6.691   4.421   8.000 -0.6045 -0.2616  0.6969
  387MOL0     H52243   6.542   4.776   8.153 -0.6327  0.0223 -0.0772
  387MOL0     H52244   7.158   4.282   7.758 -0.7102 -0.8304 -0.7582
  387MOL0     H52245   7.396   4.288   7.712  0.2307 -0.2338  0.4961
  388MOL0     O52246   3.444   7.345   7.751  0.0656 -0.4557 -0.3345
  388MOL0     C52247   3.427   7.469   7.783  0.2804  0.2469  0.7510
  388MOL0     O52248   3.313   7.543   7.755 -0.1099 -0.3950 -0.6192
  388MOL0     C52249   3.215   7.489   7.674  0.2606  0.3001  0.4672
  388MOL0     C52250   3.242   7.423   7.547  1.0060 -0.0032 -0.1245
  388MOL0     C52251   3.140   7.372   7.471  0.0226 -0.6958 -0.1145
  388MOL0     C52252   3.011   7.384   7.514 -0.8855 -0.8120  0.4172
  388MOL0     O52253   2.917   7.341   7.426 -0.3082  0.5536 -0.4968
  388MOL0     C52254   2.787   7.394   7.435  0.2153 -0.1860  0.0286
  388MOL0     C52255   2.710   7.358   7.309 -0.6191 -0.4014 -0.2677
  388MOL0     C52256   2.576   7.431   7.293 -0.3368 -0.1174 -0.0865
  388MOL0     C52257   2.520   7.361   7.163  0.1150  0.1472  0.6863
  388MOL0     C52258   2.401   7.439   7.093 -0.5248 -0.1400 -0.4686
  388MOL0     C52259   2.326   7.354   6.993  0.9412 -0.9488 -0.4363
  388MOL0     C52260   2.407   7.314   6.876 -0.5628 -0.2269  0.6869
  388MOL0     C52261   2.327   7.266   6.754 -0.7150 -0.0039 -0.2222
  388MOL0     N52262   2.397   7.260   6.624 -0.5972 -0.8424 -0.5504
  388MOL0     C52263   2.527   7.295   6.593  0.0526  0.5491 -0.2735
  388MOL0     C52264   2.531   7.296   6.455 -0.2917 -0.3494 -0.8508
  388MOL0     C52265   2.657   7.331   6.377 -1.0576 -0.2246  1.0943
  388MOL0     C52266   2.668   7.257   6.237 -0.5033  0.3869  0.0131
  388MOL0     C52267   2.808   7.278   6.181 -0.5522 -0.6638  0.7364
  388MOL0     C52268   2.915   7.201   6.254  0.2639  0.5468 -0.2303
  388MOL0     O52269   3.044   7.218   6.191 -0.2519  0.1532  0.5411
  388MOL0     C52270   3.149   7.150   6.246 -0.4602 -1.2372 -0.1915
  388MOL0     C52271   3.270   7.176   6.182  0.1566 -0.1152 -0.5380
  388MOL0     C52272   3.385   7.111   6.231  0.1105 -0.0797 -0.0004
  388MOL0     C52273   3.507   7.120   6.147  0.0907 -0.6526 -0.0727
  388MOL0     C52274   3.384   7.023   6.338 -0.3158  0.2587  0.1458
  388MOL0     C52275   3.497   6.924   6.389  0.6989  0.1126 -0.3142
  388MOL0     O52276   3.593   6.884   6.297 -0.0210 -0.1741  0.5163
  388MOL0     C52277   3.699   6.808   6.338 -0.7821  0.6546 -0.5112
  388MOL0     C52278   3.804   6.859   6.407 -0.4198 -0.8833  0.1547
  388MOL0     C52279   3.905   6.782   6.466  1.1893 -0.0558  0.1071
  388MOL0     C52280   3.902   6.649   6.446  0.4135 -0.0832  0.2337
  388MOL0     O52281   4.015   6.584   6.487  0.2695 -0.5795  0.4151
  388MOL0     C52282   4.048   6.450   6.440 -0.3706 -0.3747 -0.2452
  388MOL0     C52283   4.164   6.404   6.532 -0.2131 -0.3297 -0.5424
  388MOL0     C52284   4.108   6.372   6.667 -0.2946  0.7245  0.5799
  388MOL0     C52285   4.210   6.288   6.737  0.6371  0.8991 -0.3793
  388MOL0     C52286   4.336   6.356   6.779  0.4663  0.1261 -0.3574
  388MOL0     C52287   4.419   6.241   6.858  0.0109 -0.0366  0.0693
  388MOL0     C52288   4.553   6.293   6.906 -0.3954  0.0232  0.2069
  388MOL0     C52289   4.633   6.182   6.985  0.6359  0.1514  0.1226
  388MOL0    Cl52290   4.799   6.237   7.002  0.0887  0.1876  0.2882
  388MOL0     C52291   3.788   6.587   6.381 -0.4380 -0.0434  0.3948
  388MOL0     C52292   3.688   6.667   6.336 -0.1780 -0.5546  0.0970
  388MOL0     O52293   3.481   6.886   6.504  0.1338  0.1337 -0.8219
  388MOL0     C52294   3.261   7.004   6.399 -0.7813  0.5143  0.0802
  388MOL0     C52295   3.145   7.071   6.354 -1.0841  0.2242 -0.9962
  388MOL0     N52296   2.406   7.267   6.406 -0.5743  0.8739  0.2439
  388MOL0     N52297   2.324   7.255   6.508 -0.3690  0.0733  0.4532
  388MOL0     C52298   2.977   7.445   7.636  0.3450  0.4898  0.1544
  388MOL0     C52299   3.076   7.498   7.720  0.4644 -0.1580  0.4841
  388MOL0     C52300   3.544   7.532   7.851  0.5443 -0.0564 -0.0794
  388MOL0     C52301   3.546   7.676   7.850 -0.8933 -0.3939 -0.4854
  388MOL0     C52302   3.660   7.745   7.915  0.7235  0.1352 -0.0057
  388MOL0     C52303   3.768   7.662   7.962 -0.2005  0.8442 -0.7405
  388MOL0     O52304   3.885   7.715   8.013  0.5910  0.3682 -0.3075
  388MOL0     C52305   3.911   7.858   8.010 -0.1274  0.1521  0.3533
  388MOL0     C52306   4.034   7.905   8.092  0.7140  0.6376 -0.4804
  388MOL0     C52307   4.007   7.891   8.252  0.1425  0.5626  0.2130
  388MOL0     C52308   4.128   7.937   8.335 -0.1302 -0.5335 -0.8269
  388MOL0     C52309   4.091   7.913   8.472 -0.0646  0.7265  0.6574
  388MOL0     C52310   4.056   7.882   8.581 -1.5816  0.3465 -0.8743
  388MOL0     C52311   3.758   7.524   7.969  0.7299 -0.2864 -0.2204
  388MOL0     C52312   3.651   7.462   7.908  1.1197 -0.4258  1.1530
  388MOL0     H52313   3.344   7.417   7.513  0.6177 -0.3160 -1.2841
  388MOL0     H52314   3.156   7.312   7.382  1.6564  0.1956 -0.4655
  388MOL0     H52315   2.728   7.349   7.516 -1.5721  2.1178  0.1035
  388MOL0     H52316   2.790   7.503   7.446  2.2160 -0.2828  0.8961
  388MOL0     H52317   2.779   7.378   7.226  0.4026 -0.5922  0.5169
  388MOL0     H52318   2.704   7.249   7.304  0.9782 -0.5708  0.7189
  388MOL0     H52319   2.507   7.420   7.376  1.5862 -0.6481  1.5095
  388MOL0     H52320   2.611   7.534   7.282 -1.4171  0.5690  2.4274
  388MOL0     H52321   2.593   7.350   7.083 -1.3937 -0.9488 -0.5914
  388MOL0     H52322   2.497   7.258   7.190  3.2561 -0.3788  1.7915
  388MOL0     H52323   2.333   7.466   7.174 -1.3763  2.0523 -1.8300
  388MOL0     H52324   2.421   7.540   7.055 -1.2538  0.5553  0.9281
  388MOL0     H52325   2.295   7.265   7.048  0.0741  1.2545  2.9420
  388MOL0     H52326   2.234   7.409   6.971  1.0492 -0.6380 -0.1098
  388MOL0     H52327   2.478   7.393   6.849 -0.0884 -1.1109 -0.7794
  388MOL0     H52328   2.471   7.230   6.901 -0.8445 -1.9994 -3.6158
  388MOL0     H52329   2.237   7.326   6.736  0.5491  1.4595 -2.1227
  388MOL0     H52330   2.298   7.162   6.773  1.1709 -0.1921  1.9324
  388MOL0     H52331   2.608   7.312   6.663 -0.1499  1.0460 -0.1510
  388MOL0     H52332   2.663   7.438   6.355 -0.4264 -1.0063 -3.2361
  388MOL0     H52333   2.745   7.302   6.435 -0.7876  1.3092  1.4996
  388MOL0     H52334   2.598   7.311   6.173 -1.0935  1.5370  1.5771
  388MOL0     H52335   2.634   7.153   6.241  0.8565 -0.2302 -2.5896
  388MOL0     H52336   2.834   7.384   6.193  1.3778 -1.3457  3.4468
  388MOL0     H52337   2.811   7.259   6.073 -0.3345 -0.7519  0.7570
  388MOL0     H52338   2.889   7.095   6.257  2.7054 -0.2082 -2.1126
  388MOL0     H52339   2.930   7.243   6.354  0.6692 -2.4843  1.0698
  388MOL0     H52340   3.275   7.251   6.103  0.7597  1.1362  0.6433
  388MOL0     H52341   3.513   7.024   6.094  1.6072 -0.5240 -0.1679
  388MOL0     H52342   3.500   7.217   6.096 -0.4279 -0.0294  1.1350
  388MOL0     H52343   3.596   7.126   6.210 -1.9679  3.0223  2.8828
  388MOL0     H52344   3.805   6.966   6.424  0.7404 -1.0099  1.0753
  388MOL0     H52345   3.988   6.828   6.517  2.0459 -0.5506 -0.8057
  388MOL0     H52346   3.966   6.378   6.434  0.2102 -1.0757  0.0866
  388MOL0     H52347   4.100   6.458   6.344  1.6840 -0.7341  0.7974
  388MOL0     H52348   4.218   6.318   6.492  1.8304  0.7858 -0.3367
  388MOL0     H52349   4.231   6.490   6.547 -0.8850 -0.0212  0.8099
  388MOL0     H52350   4.014   6.317   6.661  0.4736 -0.5974  0.3476
  388MOL0     H52351   4.094   6.470   6.712 -0.7511 -0.4955  3.2641
  388MOL0     H52352   4.158   6.261   6.829 -0.9661 -0.1159 -1.5235
  388MOL0     H52353   4.230   6.195   6.684  0.2303  1.1795 -1.0464
  388MOL0     H52354   4.317   6.444   6.841  1.0825 -0.2765  0.4190
  388MOL0     H52355   4.390   6.383   6.688 -0.8138  3.9079 -0.1412
  388MOL0     H52356   4.364   6.204   6.945 -0.5967 -1.8122 -1.0175
  388MOL0     H52357   4.437   6.158   6.789  1.2635 -0.5470  0.9726
  388MOL0     H52358   4.554   6.374   6.980 -0.2759 -0.4079  0.6770
  388MOL0     H52359   4.612   6.322   6.818 -0.8287 -3.2025 -1.2724
  388MOL0     H52360   4.625   6.087   6.933 -2.9314  0.9550 -1.0677
  388MOL0     H52361   4.580   6.170   7.080  1.2171 -3.0134  0.1353
  388MOL0     H52362   3.788   6.480   6.364  1.0344 -0.1775  1.1573
  388MOL0     H52363   3.597   6.637   6.287 -0.9505  2.4526 -0.5143
  388MOL0     H52364   3.244   6.932   6.479  2.9384 -0.7582 -0.0881
  388MOL0     H52365   3.049   7.053   6.402 -0.5902  1.2519  0.4276
  388MOL0     H52366   2.873   7.455   7.667 -0.2807 -0.8037 -1.3599
  388MOL0     H52367   3.060   7.559   7.808 -0.1366  3.0988 -1.7038
  388MOL0     H52368   3.466   7.729   7.800  1.0523  0.1385 -3.2887
  388MOL0     H52369   3.654   7.853   7.915 -1.7257  0.0721  1.2131
  388MOL0     H52370   3.915   7.892   7.906  0.5559  0.0744  0.3490
  388MOL0     H52371   3.826   7.911   8.056 -0.3150 -0.1706  0.3831
  388MOL0     H52372   4.068   8.001   8.053 -1.3850  2.0398  0.9648
  388MOL0     H52373   4.118   7.835   8.084 -0.4668 -0.8249 -0.4965
  388MOL0     H52374   3.983   7.787   8.274  0.3675  0.1482 -1.3912
  388MOL0     H52375   3.921   7.958   8.263 -0.8665 -0.5386 -0.7805
  388MOL0     H52376   4.149   8.044   8.340 -1.4757 -0.3157  1.9770
  388MOL0     H52377   4.226   7.893   8.312  0.0003  0.4411 -2.2276
  388MOL0     H52378   4.046   7.860   8.685  1.5516 -0.7702 -0.6914
  388MOL0     H52379   3.835   7.465   8.017  0.1898 -0.4772  0.4384
  388MOL0     H52380   3.646   7.354   7.895  2.0018 -0.1644 -2.0844
  389MOL0     O52381   1.958   3.819  11.342 -0.4106  0.2647 -0.3011
  389MOL0     C52382   2.035   3.788  11.248 -0.7120  0.0732 -0.5081
  389MOL0     O52383   2.000   3.716  11.132 -0.5353  0.0227 -0.0677
  389MOL0     C52384   1.873   3.668  11.123 -0.2672  0.4438 -0.4661
  389MOL0     C52385   1.828   3.567  11.213 -0.1176 -0.7796  1.4776
  389MOL0     C52386   1.705   3.510  11.189  0.0051  0.2273  0.1912
  389MOL0     C52387   1.618   3.550  11.081  0.5158  0.3181 -1.5708
  389MOL0     O52388   1.488   3.506  11.077 -0.2078 -0.0518 -0.0884
  389MOL0     C52389   1.462   3.365  11.101 -0.4013  0.2311  0.2267
  389MOL0     C52390   1.362   3.308  10.998 -0.1813 -0.5282  0.3260
  389MOL0     C52391   1.216   3.335  11.051 -0.2782  0.1589  0.2676
  389MOL0     C52392   1.114   3.315  10.933 -0.4319 -0.4874 -0.4861
  389MOL0     C52393   0.976   3.313  10.991 -0.3944  0.5536 -0.5497
  389MOL0     C52394   0.878   3.319  10.872 -0.7841  0.5698  0.2463
  389MOL0     C52395   0.734   3.308  10.928 -0.1699  0.7868  0.1989
  389MOL0     C52396   0.703   3.175  10.995 -1.0002 -0.8271 -0.5779
  389MOL0     N52397   0.558   3.148  10.997 -0.6174 -1.0017  0.1830
  389MOL0     C52398   0.461   3.216  11.060 -0.0495 -0.1791 -0.6228
  389MOL0     C52399   0.345   3.151  11.034  0.6785 -0.2645  0.1873
  389MOL0     C52400   0.213   3.181  11.094 -0.1178  0.9442  0.5084
  389MOL0     C52401   0.109   3.071  11.062 -0.1040 -0.1481  0.0018
  389MOL0     C52402  -0.009   3.074  11.173 -0.0024  0.1186  0.4887
  389MOL0     C52403  -0.117   3.160  11.117 -0.1951  0.1821 -0.4258
  389MOL0     O52404  -0.248   3.149  11.175 -0.1454 -0.1959 -0.0899
  389MOL0     C52405  -0.336   3.243  11.145  0.0998 -0.4372 -0.0646
  389MOL0     C52406  -0.315   3.373  11.086 -0.2265 -0.2820  0.0468
  389MOL0     C52407  -0.420   3.469  11.053 -0.3276  1.3639 -0.7933
  389MOL0     C52408  -0.378   3.611  11.009 -0.2079 -0.3360  0.5139
  389MOL0     C52409  -0.550   3.425  11.068 -0.6301 -0.7229  1.1572
  389MOL0     C52410  -0.657   3.512  11.017  0.1629 -1.1419 -0.5094
  389MOL0     O52411  -0.767   3.507  11.095  0.0775 -0.9501  0.2315
  389MOL0     C52412  -0.858   3.608  11.105  0.0909  0.5617  0.5935
  389MOL0     C52413  -0.836   3.743  11.110 -0.8298  0.3123 -0.4498
  389MOL0     C52414  -0.938   3.838  11.123  0.1423 -0.2319  0.0238
  389MOL0     C52415  -1.068   3.798  11.129  0.5193  0.1769 -0.2480
  389MOL0     O52416  -1.175   3.881  11.148  0.0295 -0.4812 -0.3966
  389MOL0     C52417  -1.160   3.992  11.239 -0.2286  0.4068 -0.5106
  389MOL0     C52418  -1.303   4.037  11.269  0.1643  0.3676  0.2845
  389MOL0     C52419  -1.304   4.139  11.380  0.4933  0.4710  0.0597
  389MOL0     C52420  -1.440   4.194  11.416 -0.5703  0.7383 -0.4220
  389MOL0     C52421  -1.527   4.246  11.294  0.1821 -0.6459 -0.6390
  389MOL0     C52422  -1.656   4.313  11.334  0.1022 -0.3848  0.4222
  389MOL0     C52423  -1.729   4.351  11.187 -0.5822  0.0435 -0.2162
  389MOL0     C52424  -1.838   4.463  11.195 -0.0741 -0.3269  0.1600
  389MOL0    Cl52425  -1.877   4.496  11.020 -0.1987  0.1768 -0.1271
  389MOL0     C52426  -1.090   3.661  11.124 -0.0390  0.5517  0.7542
  389MOL0     C52427  -0.989   3.570  11.102  0.5399  0.8293  0.3960
  389MOL0     O52428  -0.646   3.566  10.909 -0.6716  0.4089 -0.0237
  389MOL0     C52429  -0.578   3.303  11.128  0.1406  1.1143  0.4558
  389MOL0     C52430  -0.476   3.219  11.166 -0.6350  0.1555  0.1348
  389MOL0     N52431   0.375   3.058  10.939  0.0520 -0.4509  0.2539
  389MOL0     N52432   0.500   3.058  10.914  0.7590  0.1980 -0.1140
  389MOL0     C52433   1.653   3.661  11.009 -0.4687  0.0054  0.1577
  389MOL0     C52434   1.786   3.709  11.016  0.2317  0.5532 -0.3615
  389MOL0     C52435   2.180   3.818  11.260  0.0928  0.1029 -0.2727
  389MOL0     C52436   2.271   3.802  11.153  0.3438 -0.5987 -0.0193
  389MOL0     C52437   2.410   3.812  11.173  0.0390  0.2265  0.7193
  389MOL0     C52438   2.467   3.845  11.295  0.5732 -0.5143 -0.4644
  389MOL0     O52439   2.601   3.859  11.297 -0.5002  0.7227 -0.6288
  389MOL0     C52440   2.663   3.890  11.426 -0.8831  1.3336  0.5566
  389MOL0     C52441   2.819   3.893  11.414 -0.3444 -0.2904  0.6518
  389MOL0     C52442   2.878   3.749  11.398  0.4977  0.4166 -0.1030
  389MOL0     C52443   3.026   3.753  11.426 -0.3020 -0.2019 -0.2164
  389MOL0     C52444   3.032   3.775  11.566 -0.3870 -0.3915 -0.0628
  389MOL0     C52445   3.022   3.789  11.686 -0.0814  0.3039 -0.2564
  389MOL0     C52446   2.380   3.877  11.399 -0.0956  0.1477 -0.6030
  389MOL0     C52447   2.245   3.847  11.385 -0.0200  0.2052 -0.7821
  389MOL0     H52448   1.882   3.529  11.299  1.3706 -3.2071 -0.3743
  389MOL0     H52449   1.677   3.424  11.249  0.6163 -0.8219 -0.9573
  389MOL0     H52450   1.551   3.304  11.082 -0.9238 -0.2931 -0.5834
  389MOL0     H52451   1.433   3.342  11.204  2.7588  0.4375  1.2836
  389MOL0     H52452   1.372   3.339  10.894  0.9363 -0.2388  0.5100
  389MOL0     H52453   1.374   3.199  10.992  3.2307 -0.3202  1.3490
  389MOL0     H52454   1.204   3.270  11.138  2.2379 -0.7988 -0.0348
  389MOL0     H52455   1.218   3.436  11.093  5.3961  0.5242 -0.1384
  389MOL0     H52456   1.135   3.404  10.874 -0.1866 -1.3426 -1.7321
  389MOL0     H52457   1.139   3.222  10.882  3.2297 -0.8135  1.5457
  389MOL0     H52458   0.970   3.215  11.040 -0.0378  1.3905  1.2454
  389MOL0     H52459   0.945   3.397  11.053 -1.7288  1.4057 -2.3159
  389MOL0     H52460   0.895   3.419  10.829  0.2944  0.5325  0.5642
  389MOL0     H52461   0.910   3.244  10.799  4.0741 -2.9287  5.2102
  389MOL0     H52462   0.726   3.384  11.006  2.4616 -0.7294  2.0910
  389MOL0     H52463   0.662   3.319  10.846  2.0197 -0.4527 -1.9954
  389MOL0     H52464   0.750   3.172  11.094  2.0113 -0.3629 -1.8985
  389MOL0     H52465   0.748   3.089  10.946 -0.9213 -1.6578  0.8932
  389MOL0     H52466   0.464   3.310  11.114 -1.5278 -0.6358  0.2976
  389MOL0     H52467   0.218   3.177  11.203 -2.7268 -2.2512  0.6588
  389MOL0     H52468   0.186   3.284  11.067 -0.9419  0.7479  0.5598
  389MOL0     H52469   0.153   2.971  11.062 -0.5936 -0.3767  0.8378
  389MOL0     H52470   0.062   3.077  10.964 -0.7403 -0.0030  0.3098
  389MOL0     H52471   0.021   3.092  11.277 -0.9938 -1.9945  1.2113
  389MOL0     H52472  -0.056   2.975  11.180 -0.2808  0.3529  2.5886
  389MOL0     H52473  -0.114   3.135  11.011  1.5343 -1.8093  0.0072
  389MOL0     H52474  -0.078   3.262  11.126 -0.6191  0.2926  0.2612
  389MOL0     H52475  -0.213   3.408  11.077  0.3274 -1.8045  0.1123
  389MOL0     H52476  -0.463   3.678  11.025  0.2737  0.4308 -0.0463
  389MOL0     H52477  -0.294   3.651  11.067 -0.3155 -0.1782  0.5613
  389MOL0     H52478  -0.352   3.615  10.903 -0.1945  3.5240  0.5238
  389MOL0     H52479  -0.735   3.781  11.122  0.3581 -0.3124 -5.7417
  389MOL0     H52480  -0.912   3.940  11.149  1.1643 -1.0237  2.4223
  389MOL0     H52481  -1.118   3.959  11.334  0.2725  2.9827  0.2330
  389MOL0     H52482  -1.097   4.073  11.202 -1.1448  0.9490 -0.9034
  389MOL0     H52483  -1.335   4.084  11.176  1.9241 -1.9545 -1.6373
  389MOL0     H52484  -1.363   3.949  11.295 -0.8914  0.6275 -1.2019
  389MOL0     H52485  -1.237   4.217  11.344  1.6006 -0.1013  0.8398
  389MOL0     H52486  -1.273   4.098  11.477  2.4189 -0.0947 -0.7563
  389MOL0     H52487  -1.482   4.110  11.471  1.0689  0.9591  1.2631
  389MOL0     H52488  -1.429   4.269  11.495  4.4303 -1.7207  1.6726
  389MOL0     H52489  -1.543   4.155  11.235 -1.1125 -0.2484 -0.9307
  389MOL0     H52490  -1.465   4.312  11.233  1.6382 -0.8375  0.5792
  389MOL0     H52491  -1.723   4.237  11.375 -1.5326  0.4750 -0.5227
  389MOL0     H52492  -1.653   4.400  11.400  0.3717 -1.5906  2.0402
  389MOL0     H52493  -1.780   4.261  11.152 -1.4449  0.7515 -0.8234
  389MOL0     H52494  -1.660   4.388  11.111 -0.2578  4.3798  1.8628
  389MOL0     H52495  -1.786   4.551  11.234 -0.4373 -0.1845  0.3286
  389MOL0     H52496  -1.916   4.432  11.265  2.6438 -4.4833  1.6936
  389MOL0     H52497  -1.195   3.639  11.135 -0.6367  2.4907 -0.5062
  389MOL0     H52498  -0.991   3.463  11.084 -0.5377  1.0913 -1.2260
  389MOL0     H52499  -0.683   3.275  11.132 -0.0339  1.5602 -0.6233
  389MOL0     H52500  -0.505   3.120  11.200 -2.7762 -0.5010 -3.1328
  389MOL0     H52501   1.580   3.706  10.943  0.5983 -0.9825 -1.7996
  389MOL0     H52502   1.824   3.774  10.938  2.9310 -1.3348 -0.7725
  389MOL0     H52503   2.236   3.777  11.054  2.0893  1.3648 -1.2298
  389MOL0     H52504   2.478   3.795  11.090 -0.0187 -1.2512  0.9477
  389MOL0     H52505   2.638   3.994  11.451  2.0628  2.5900 -1.1681
  389MOL0     H52506   2.636   3.807  11.491 -4.6659  0.7557 -1.4903
  389MOL0     H52507   2.849   3.957  11.498  2.4575 -0.8761  0.1714
  389MOL0     H52508   2.829   3.948  11.319  0.8722  0.3978  1.1566
  389MOL0     H52509   2.853   3.706  11.301  1.3220 -0.7624  0.1822
  389MOL0     H52510   2.842   3.677  11.472 -0.2955  0.8877 -0.0238
  389MOL0     H52511   3.088   3.818  11.364 -0.0772  1.6503  1.8002
  389MOL0     H52512   3.061   3.649  11.418  2.3727  0.4900  1.3313
  389MOL0     H52513   3.020   3.789  11.793 -0.6823  0.3885 -0.2642
  389MOL0     H52514   2.419   3.918  11.492 -1.6922 -4.6076  2.5249
  389MOL0     H52515   2.184   3.868  11.473 -1.5046 -3.1465 -0.8897
  390MOL0     O52516   7.438   5.240  10.664 -0.6448 -0.6616  0.0197
  390MOL0     C52517   7.532   5.265  10.743 -0.2598  0.3861 -0.8883
  390MOL0     O52518   7.551   5.206  10.869 -0.8395 -0.3439  0.0231
  390MOL0     C52519   7.450   5.122  10.919 -0.6863 -0.8777  0.0264
  390MOL0     C52520   7.325   5.166  10.958  0.9189 -0.7037 -0.7774
  390MOL0     C52521   7.226   5.086  11.014  0.4340  0.2220  0.3773
  390MOL0     C52522   7.260   4.948  11.026  0.2439  0.2555  0.1406
  390MOL0     O52523   7.172   4.851  11.072  0.2946 -0.6160  0.4950
  390MOL0     C52524   7.047   4.888  11.131  1.1352 -0.0725 -0.5534
  390MOL0     C52525   7.060   4.946  11.272  0.6896 -0.0243  1.1533
  390MOL0     C52526   6.924   4.942  11.354 -0.0669  0.8436  0.3712
  390MOL0     C52527   6.963   4.947  11.496  0.9127  0.4422  0.0323
  390MOL0     C52528   6.834   4.958  11.580  1.0815 -0.0802 -0.7133
  390MOL0     C52529   6.775   4.821  11.587  0.2233  1.6623  0.5788
  390MOL0     C52530   6.645   4.807  11.663  0.3846 -0.0426 -0.2722
  390MOL0     C52531   6.657   4.802  11.812  0.1452 -0.4877 -0.2562
  390MOL0     N52532   6.530   4.757  11.872  0.7086 -0.5210  0.0664
  390MOL0     C52533   6.477   4.630  11.872  0.8625 -0.5539 -0.0831
  390MOL0     C52534   6.366   4.633  11.936  0.9415 -0.5006 -0.4762
  390MOL0     C52535   6.280   4.514  11.960  0.1068  0.4990  0.0362
  390MOL0     C52536   6.137   4.529  12.009  0.2192 -0.7364 -0.4184
  390MOL0     C52537   6.068   4.396  12.051  0.4679  0.5180  0.8296
  390MOL0     C52538   5.922   4.415  12.086  0.3188 -0.5005 -1.6302
  390MOL0     O52539   5.838   4.418  11.973 -0.2817 -0.8414  0.3824
  390MOL0     C52540   5.715   4.368  11.997 -0.7265  0.4095  0.1077
  390MOL0     C52541   5.693   4.225  11.989  0.2900 -0.6851 -0.1249
  390MOL0     C52542   5.556   4.181  12.005  0.2291  0.2568 -0.6773
  390MOL0     C52543   5.544   4.031  11.979  0.0166 -0.0630 -0.7761
  390MOL0     C52544   5.448   4.278  12.023  0.3618  0.1720  0.1155
  390MOL0     C52545   5.306   4.242  12.013  0.3932 -0.1110 -0.1312
  390MOL0     O52546   5.211   4.330  12.042  0.6464 -0.3853 -0.2698
  390MOL0     C52547   5.098   4.272  12.092 -0.2753  1.2938  0.6494
  390MOL0     C52548   4.984   4.286  12.020 -0.3654 -1.4040 -0.3724
  390MOL0     C52549   4.869   4.215  12.057 -0.3894 -0.3335  0.0522
  390MOL0     C52550   4.857   4.146  12.172  0.2354 -0.1473  0.0743
  390MOL0     O52551   4.736   4.076  12.200 -0.3067 -0.9630 -0.2990
  390MOL0     C52552   4.715   4.051  12.335 -0.3457 -0.3490  0.4068
  390MOL0     C52553   4.569   4.018  12.356  0.2544  0.4924 -0.2511
  390MOL0     C52554   4.466   4.112  12.292  0.7230 -0.9051  0.4267
  390MOL0     C52555   4.328   4.054  12.297 -0.2600  0.4409 -0.3251
  390MOL0     C52556   4.202   4.144  12.276 -0.5246 -0.6492  0.7732
  390MOL0     C52557   4.141   4.235  12.383 -0.2939 -0.7256 -0.1468
  390MOL0     C52558   4.000   4.284  12.353 -0.4130  0.2872  0.2353
  390MOL0     C52559   3.980   4.436  12.355 -0.2323 -0.6076 -0.5726
  390MOL0    Cl52560   3.860   4.477  12.243  0.4255 -0.1175  0.4877
  390MOL0     C52561   4.971   4.139  12.256 -0.3163  0.4890  0.3141
  390MOL0     C52562   5.086   4.204  12.214  0.5776  0.6097  0.4789
  390MOL0     O52563   5.279   4.121  11.977 -0.5288  0.0509  0.1050
  390MOL0     C52564   5.484   4.412  12.026 -0.7259  0.0230 -0.1995
  390MOL0     C52565   5.616   4.455  12.016  0.5086  0.2682 -1.2578
  390MOL0     N52566   6.338   4.757  11.976  0.6479 -0.2627 -0.0035
  390MOL0     N52567   6.430   4.837  11.932 -0.2226 -0.5214  0.1238
  390MOL0     C52568   7.390   4.903  10.998  0.2047 -0.8912  0.9056
  390MOL0     C52569   7.483   4.990  10.942  0.9517  0.0559 -0.2968
  390MOL0     C52570   7.624   5.373  10.702 -1.1694 -0.9048 -0.4228
  390MOL0     C52571   7.694   5.443  10.810 -0.5059  0.1997  0.5925
  390MOL0     C52572   7.784   5.546  10.781 -0.8742 -0.4432 -0.1305
  390MOL0     C52573   7.803   5.592  10.652 -0.2436  0.2904 -0.2623
  390MOL0     O52574   7.863   5.702  10.612 -0.1488  0.3898  0.3253
  390MOL0     C52575   7.949   5.773  10.704  0.2326  0.0657  0.5379
  390MOL0     C52576   8.089   5.718  10.720  0.0241 -0.1189 -0.1813
  390MOL0     C52577   8.192   5.716  10.600  0.3774  0.4090 -0.4103
  390MOL0     C52578   8.335   5.656  10.638  0.1432  0.1516 -0.0460
  390MOL0     C52579   8.461   5.727  10.601  0.6680  0.8419  0.0343
  390MOL0     C52580   8.559   5.797  10.585 -0.0184  0.1382  0.1006
  390MOL0     C52581   7.728   5.533  10.553  0.6707  0.2656  0.0586
  390MOL0     C52582   7.652   5.421  10.574 -0.7213 -0.0107  0.5619
  390MOL0     H52583   7.297   5.270  10.940 -0.7330 -0.1150  3.9097
  390MOL0     H52584   7.131   5.126  11.046  0.6401  1.5675 -0.5765
  390MOL0     H52585   6.996   4.944  11.052  1.5292 -0.0569 -0.8060
  390MOL0     H52586   6.992   4.794  11.140  0.8044  0.0098 -1.5126
  390MOL0     H52587   7.133   4.883  11.323 -0.7032 -1.7423  1.0979
  390MOL0     H52588   7.087   5.051  11.256 -0.7721 -0.0964 -2.9029
  390MOL0     H52589   6.852   5.022  11.331 -0.3341  0.6696  0.5816
  390MOL0     H52590   6.878   4.845  11.333  3.6107 -1.5429  2.4514
  390MOL0     H52591   7.030   4.864  11.520  2.9296  1.5471 -1.5329
  390MOL0     H52592   7.020   5.039  11.515 -2.9505  3.1920 -0.4762
  390MOL0     H52593   6.858   4.989  11.682  0.6681  0.8728 -0.8880
  390MOL0     H52594   6.755   5.025  11.544 -2.2051 -2.2394  1.9126
  390MOL0     H52595   6.752   4.780  11.488 -2.7417 -0.3192  1.9485
  390MOL0     H52596   6.852   4.758  11.633 -0.3400  0.8225  0.4007
  390MOL0     H52597   6.581   4.894  11.643  0.3030 -0.3231 -1.2794
  390MOL0     H52598   6.597   4.715  11.628  0.3063 -0.7635  1.6048
  390MOL0     H52599   6.688   4.897  11.857  2.2595 -1.2552  0.0493
  390MOL0     H52600   6.731   4.728  11.846 -0.0764 -0.6504 -0.1190
  390MOL0     H52601   6.528   4.544  11.831  1.1972  0.0750 -1.0295
  390MOL0     H52602   6.280   4.450  11.871 -2.0571  2.2326 -1.3398
  390MOL0     H52603   6.326   4.462  12.044  0.6609  1.3645  0.2831
  390MOL0     H52604   6.092   4.576  11.921  0.1022  0.6441  0.3516
  390MOL0     H52605   6.134   4.590  12.100 -0.1714 -2.3742  0.7100
  390MOL0     H52606   6.116   4.351  12.138 -2.1688 -2.9326  0.7236
  390MOL0     H52607   6.067   4.334  11.961  0.8150 -0.1119  1.2526
  390MOL0     H52608   5.904   4.498  12.155 -3.7937 -2.5205  0.0781
  390MOL0     H52609   5.909   4.323  12.145  2.4010  0.5561  0.6573
  390MOL0     H52610   5.778   4.164  11.963  0.4448 -0.8245  0.6920
  390MOL0     H52611   5.489   3.986  12.063  0.9335  1.1823  0.5405
  390MOL0     H52612   5.494   4.010  11.884  0.0865 -1.4068 -0.5322
  390MOL0     H52613   5.638   3.977  11.974  0.6394  0.9116  0.0253
  390MOL0     H52614   4.998   4.340  11.926  1.8057 -0.7277  0.2836
  390MOL0     H52615   4.782   4.208  11.992  0.9002 -1.6266 -1.6476
  390MOL0     H52616   4.759   3.958  12.370 -1.2960 -1.1708 -0.5097
  390MOL0     H52617   4.742   4.143  12.388 -1.7823  0.2687  0.1320
  390MOL0     H52618   4.554   3.921  12.308  0.8133  1.2944 -2.1355
  390MOL0     H52619   4.553   4.024  12.464 -0.1443 -0.2839 -0.2602
  390MOL0     H52620   4.483   4.127  12.185 -3.8532 -0.7319 -0.4469
  390MOL0     H52621   4.452   4.212  12.336 -0.7684 -0.9432  0.0609
  390MOL0     H52622   4.321   3.957  12.247  3.0155 -0.0881  0.0011
  390MOL0     H52623   4.326   4.034  12.405 -1.0859  0.5464 -0.3141
  390MOL0     H52624   4.128   4.067  12.251  0.4682 -1.2704 -0.3480
  390MOL0     H52625   4.217   4.202  12.184  0.0554 -1.7002  0.1850
  390MOL0     H52626   4.131   4.187  12.480  0.1927  0.7473  0.6728
  390MOL0     H52627   4.208   4.319  12.404 -1.2663  0.1024 -0.2659
  390MOL0     H52628   3.931   4.231  12.419 -1.0382 -0.3107 -0.8723
  390MOL0     H52629   3.976   4.256  12.250  1.3048  3.0755 -1.0706
  390MOL0     H52630   4.071   4.487  12.323 -0.5271  2.1992  2.5861
  390MOL0     H52631   3.952   4.469  12.456  1.2095  3.1519 -1.2310
  390MOL0     H52632   4.975   4.081  12.348  1.0704 -1.0397 -0.6487
  390MOL0     H52633   5.179   4.207  12.270 -0.4187 -2.7729  2.6274
  390MOL0     H52634   5.403   4.482  12.042  1.3226  2.2393  1.2882
  390MOL0     H52635   5.633   4.562  12.003 -0.2390  0.2957 -2.1842
  390MOL0     H52636   7.416   4.802  11.026  2.9970 -0.2183  1.0428
  390MOL0     H52637   7.578   4.952  10.904 -0.4375 -2.8276 -1.2338
  390MOL0     H52638   7.679   5.408  10.911 -0.6420  1.6688  1.1079
  390MOL0     H52639   7.829   5.593  10.868 -0.7085 -0.5539 -0.1571
  390MOL0     H52640   7.953   5.870  10.654 -1.8762  0.6686  1.4252
  390MOL0     H52641   7.910   5.779  10.806  3.1632 -0.4408  1.7825
  390MOL0     H52642   8.079   5.616  10.758 -2.6866  0.4709  0.8885
  390MOL0     H52643   8.129   5.769  10.809 -0.7463 -0.5738  0.4351
  390MOL0     H52644   8.198   5.819  10.565 -2.0087  0.2488 -1.5489
  390MOL0     H52645   8.150   5.656  10.518  2.8225 -1.8100 -0.1791
  390MOL0     H52646   8.326   5.551  10.606  0.0558 -0.1261  0.8662
  390MOL0     H52647   8.336   5.666  10.747 -3.2044  1.5177 -0.0349
  390MOL0     H52648   8.638   5.868  10.568 -1.6415  1.7759 -0.8448
  390MOL0     H52649   7.746   5.566  10.452 -1.9698  1.2726 -0.1534
  390MOL0     H52650   7.602   5.375  10.489 -0.9306  0.5106  0.3946
  391MOL0     O52651  10.258   7.105   3.456  0.2365 -0.4606 -1.3853
  391MOL0     C52652  10.351   7.114   3.375 -0.1964  0.4222  0.1418
  391MOL0     O52653  10.337   7.183   3.255  0.3168 -0.6016 -0.5711
  391MOL0     C52654  10.223   7.229   3.215  0.9804 -0.5878 -0.1878
  391MOL0     C52655  10.134   7.143   3.151  0.4404 -0.3008  0.0993
  391MOL0     C52656  10.010   7.186   3.104 -1.6725 -0.8113  0.0272
  391MOL0     C52657   9.981   7.323   3.098 -0.5151 -0.2335  0.0658
  391MOL0     O52658   9.882   7.383   3.035 -0.5821 -0.2607  0.0497
  391MOL0     C52659   9.780   7.301   2.984 -0.3990  0.0278  0.8159
  391MOL0     C52660   9.645   7.376   2.974  0.7013 -0.7758 -0.1919
  391MOL0     C52661   9.577   7.401   3.108 -0.4195  0.0959 -1.2189
  391MOL0     C52662   9.435   7.448   3.084 -0.1515  0.7497 -0.2121
  391MOL0     C52663   9.342   7.469   3.207 -0.0783  0.1500 -0.3118
  391MOL0     C52664   9.283   7.341   3.257 -0.3137 -0.6206  0.8299
  391MOL0     C52665   9.269   7.352   3.409  0.0005  0.5176 -0.0662
  391MOL0     C52666   9.173   7.456   3.475 -0.4067  0.3456  1.3560
  391MOL0     N52667   9.228   7.590   3.494  0.3233  0.0567  0.5077
  391MOL0     C52668   9.314   7.633   3.597  0.0306  0.0157  0.5927
  391MOL0     C52669   9.357   7.752   3.543  1.0422  0.9296 -0.0955
  391MOL0     C52670   9.451   7.848   3.602  0.4222 -0.3653  0.2654
  391MOL0     C52671   9.604   7.833   3.545  0.7592  0.2824 -0.3880
  391MOL0     C52672   9.682   7.713   3.604 -0.8988 -0.5397 -0.6261
  391MOL0     C52673   9.816   7.709   3.537 -0.3218 -1.0434  0.1567
  391MOL0     O52674   9.884   7.588   3.564 -0.1683  0.0200 -0.8341
  391MOL0     C52675  10.017   7.585   3.573  0.3514  0.5008  0.8629
  391MOL0     C52676  10.097   7.675   3.515 -0.5049  0.3082 -0.2311
  391MOL0     C52677  10.235   7.667   3.521 -0.0253 -0.0776 -0.0953
  391MOL0     C52678  10.314   7.781   3.452  0.3972 -0.0752  0.2017
  391MOL0     C52679  10.292   7.545   3.561 -0.0389  0.1288  0.5194
  391MOL0     C52680  10.436   7.509   3.533 -0.6507  0.6785  0.3041
  391MOL0     O52681  10.469   7.382   3.505  0.4124  0.2278 -0.3676
  391MOL0     C52682  10.597   7.348   3.474 -0.3497 -0.7892 -0.3705
  391MOL0     C52683  10.640   7.329   3.338  0.3582 -0.4103 -0.7639
  391MOL0     C52684  10.769   7.288   3.307  0.1407 -0.1807 -0.0615
  391MOL0     C52685  10.854   7.269   3.419 -0.7523  0.1818  0.5052
  391MOL0     O52686  10.977   7.224   3.384 -0.6989  0.1050 -0.3058
  391MOL0     C52687  11.090   7.285   3.438 -0.1140 -0.2348 -0.1723
  391MOL0     C52688  11.221   7.217   3.397 -0.5079  0.4426 -0.4507
  391MOL0     C52689  11.232   7.201   3.240  0.5081  1.1179 -1.1770
  391MOL0     C52690  11.375   7.171   3.190 -0.3752  0.4770 -0.2784
  391MOL0     C52691  11.455   7.062   3.241  0.6658  0.2385  0.0548
  391MOL0     C52692  11.603   7.079   3.193  0.0101  0.6945 -1.0031
  391MOL0     C52693  11.700   6.994   3.270  0.0364 -0.0401  0.3976
  391MOL0     C52694  11.728   7.066   3.409 -0.3641 -0.0759  0.2746
  391MOL0    Cl52695  11.903   7.031   3.443 -0.5093 -0.4268  0.0891
  391MOL0     C52696  10.817   7.286   3.555  0.9107  0.6458  0.1270
  391MOL0     C52697  10.685   7.326   3.580 -0.1412 -0.5487  0.6293
  391MOL0     O52698  10.518   7.601   3.536 -0.0739  0.4667  0.0001
  391MOL0     C52699  10.206   7.439   3.607 -0.2163 -0.0507 -0.5590
  391MOL0     C52700  10.073   7.464   3.611  0.6963 -0.0100  0.2007
  391MOL0     N52701   9.284   7.793   3.437 -1.1936  0.0957  0.9582
  391MOL0     N52702   9.211   7.694   3.402  0.5339 -0.2322 -0.0265
  391MOL0     C52703  10.065   7.409   3.178  0.5755  0.7534 -0.2025
  391MOL0     C52704  10.187   7.363   3.229 -0.7185  0.8123  0.1882
  391MOL0     C52705  10.469   7.032   3.399 -0.2148 -0.2656 -0.3827
  391MOL0     C52706  10.570   7.012   3.299 -0.3717  0.7283  0.2422
  391MOL0     C52707  10.697   6.961   3.327  0.0122  0.8925  0.7922
  391MOL0     C52708  10.715   6.905   3.454 -0.2960  0.4203 -0.3940
  391MOL0     O52709  10.829   6.863   3.496 -0.2426  0.1166 -0.3055
  391MOL0     C52710  10.946   6.874   3.420 -0.1249 -0.1846 -0.1361
  391MOL0     C52711  11.062   6.817   3.501 -0.4731 -0.1876 -0.2265
  391MOL0     C52712  11.180   6.813   3.408 -0.0330  0.5576 -0.1706
  391MOL0     C52713  11.315   6.800   3.484  0.1223 -0.1539  0.1739
  391MOL0     C52714  11.418   6.714   3.426 -0.2065 -0.0659  0.1752
  391MOL0     C52715  11.503   6.643   3.387  1.1339 -0.2371  0.5090
  391MOL0     C52716  10.610   6.902   3.546 -0.3849  0.1944  0.1911
  391MOL0     C52717  10.494   6.971   3.523 -0.1733 -0.8572  1.0433
  391MOL0     H52718  10.157   7.038   3.139  0.4750 -0.4992  1.6932
  391MOL0     H52719   9.946   7.120   3.046 -2.1096 -0.6729  0.3472
  391MOL0     H52720   9.802   7.267   2.882  0.3548  1.6625  0.3978
  391MOL0     H52721   9.756   7.217   3.050 -1.3244  0.4706  1.0560
  391MOL0     H52722   9.655   7.467   2.913 -0.4504 -0.6836 -0.2494
  391MOL0     H52723   9.582   7.306   2.920 -1.6931 -1.4789  3.2437
  391MOL0     H52724   9.572   7.319   3.180 -0.7051  2.3671  1.5041
  391MOL0     H52725   9.641   7.475   3.156  1.2592 -1.8700 -0.2448
  391MOL0     H52726   9.438   7.537   3.020  0.7958 -0.9160 -2.6366
  391MOL0     H52727   9.385   7.371   3.025 -1.7553 -1.8697  4.1432
  391MOL0     H52728   9.394   7.521   3.287  0.3938  1.1234 -1.2307
  391MOL0     H52729   9.258   7.531   3.173 -1.8349 -1.8454  0.1847
  391MOL0     H52730   9.192   7.319   3.200  0.8689  0.5826 -1.6747
  391MOL0     H52731   9.354   7.261   3.237 -0.3724 -1.3992  3.3766
  391MOL0     H52732   9.248   7.251   3.444  1.7202  0.5439  1.1686
  391MOL0     H52733   9.366   7.369   3.458  0.0780  0.2367 -0.1199
  391MOL0     H52734   9.154   7.430   3.580  1.1968  2.9205  2.3919
  391MOL0     H52735   9.085   7.463   3.411  1.2633  0.9114 -0.9970
  391MOL0     H52736   9.326   7.589   3.696 -0.6087 -0.4577  0.4610
  391MOL0     H52737   9.401   7.944   3.589 -3.2052 -2.0139  0.7701
  391MOL0     H52738   9.455   7.835   3.711  1.1078  0.1091  0.3062
  391MOL0     H52739   9.670   7.917   3.571 -0.7647  0.7476  2.4118
  391MOL0     H52740   9.608   7.824   3.437 -2.5262 -0.3656 -0.5427
  391MOL0     H52741   9.628   7.623   3.575 -2.0904 -0.5119  1.3225
  391MOL0     H52742   9.700   7.731   3.711  3.6770  0.1850 -1.3192
  391MOL0     H52743   9.863   7.801   3.572  0.8145 -0.2532 -3.0378
  391MOL0     H52744   9.811   7.731   3.430 -0.5097  2.7651  0.8080
  391MOL0     H52745  10.054   7.765   3.474 -0.2054  0.9208  0.7777
  391MOL0     H52746  10.247   7.856   3.409  1.1927 -0.6315 -2.1595
  391MOL0     H52747  10.385   7.814   3.528  2.9173 -1.6455 -1.3603
  391MOL0     H52748  10.382   7.744   3.375  1.2269 -3.4717  2.3565
  391MOL0     H52749  10.569   7.340   3.256 -1.8656  1.4630  1.2591
  391MOL0     H52750  10.810   7.270   3.208 -0.8496 -1.8877 -0.1998
  391MOL0     H52751  11.080   7.392   3.418  0.7884 -0.5251 -2.4712
  391MOL0     H52752  11.086   7.275   3.547  0.3400  0.2762 -0.1027
  391MOL0     H52753  11.302   7.279   3.436  0.4759  0.6991 -2.7584
  391MOL0     H52754  11.215   7.120   3.447 -0.9963  1.1388  0.8865
  391MOL0     H52755  11.189   7.288   3.189  0.0799  1.9293  0.4802
  391MOL0     H52756  11.177   7.112   3.209  0.7557  0.1050  1.0410
  391MOL0     H52757  11.368   7.154   3.082  2.9632 -1.0376 -0.3822
  391MOL0     H52758  11.429   7.265   3.197 -1.1954  0.9251  0.1275
  391MOL0     H52759  11.423   6.965   3.201  0.9270 -0.7121  2.0260
  391MOL0     H52760  11.443   7.056   3.349 -2.1450  0.2262 -0.1793
  391MOL0     H52761  11.611   7.042   3.091  1.6706 -0.0291 -0.6399
  391MOL0     H52762  11.629   7.185   3.197 -1.0625  0.9751 -1.0400
  391MOL0     H52763  11.790   6.987   3.206 -1.7881  0.1056 -2.3719
  391MOL0     H52764  11.668   6.891   3.284  1.3538 -0.4091  0.8741
  391MOL0     H52765  11.671   7.010   3.484 -0.1073 -0.9185 -0.1440
  391MOL0     H52766  11.702   7.172   3.405 -0.2642 -0.0945 -1.4195
  391MOL0     H52767  10.875   7.268   3.645  0.9414  0.4622  0.0705
  391MOL0     H52768  10.645   7.344   3.679  0.0040  1.4001  0.3623
  391MOL0     H52769  10.267   7.352   3.629  1.9239  1.7154  0.8433
  391MOL0     H52770  10.010   7.391   3.660  3.4740 -1.9197  1.1609
  391MOL0     H52771  10.023   7.509   3.188  0.2394  0.7375 -1.3132
  391MOL0     H52772  10.261   7.422   3.282 -0.0435 -1.1766  1.5425
  391MOL0     H52773  10.553   7.062   3.204  0.7724  1.9428  0.6486
  391MOL0     H52774  10.770   6.952   3.247 -0.2482  0.1732  0.6228
  391MOL0     H52775  10.947   6.816   3.327  3.2919 -0.5135 -0.0286
  391MOL0     H52776  10.965   6.979   3.396  3.3696 -0.5399  0.5223
  391MOL0     H52777  11.051   6.714   3.538  0.5861  0.4173  1.9833
  391MOL0     H52778  11.089   6.876   3.589  4.0479 -0.3702 -1.2545
  391MOL0     H52779  11.192   6.889   3.331  1.8234  0.4760 -0.0089
  391MOL0     H52780  11.166   6.720   3.352  1.0455  1.3135 -1.7602
  391MOL0     H52781  11.289   6.776   3.587  1.6356  0.6398  0.7721
  391MOL0     H52782  11.359   6.900   3.485 -0.5198  0.1868 -1.5672
  391MOL0     H52783  11.566   6.564   3.353 -2.4794 -1.3250 -4.8896
  391MOL0     H52784  10.626   6.860   3.644  0.2732 -2.9331 -1.1066
  391MOL0     H52785  10.423   6.976   3.605 -0.3348  0.8961  0.8565
  392MOL0     O52786   6.528   6.007  10.834  0.6695 -0.1122 -0.4423
  392MOL0     C52787   6.531   6.105  10.909 -0.3884  0.7870 -0.8032
  392MOL0     O52788   6.453   6.126  11.018  0.4246 -0.2709  0.0254
  392MOL0     C52789   6.362   6.030  11.044  0.4770  0.4052  0.0329
  392MOL0     C52790   6.249   5.998  10.959 -0.9417  0.4007  0.3512
  392MOL0     C52791   6.149   5.909  10.997  0.5282  0.5271  0.4300
  392MOL0     C52792   6.152   5.846  11.120 -0.6227  0.6657 -0.3123
  392MOL0     O52793   6.054   5.761  11.164 -0.0589  0.4286 -0.5759
  392MOL0     C52794   5.995   5.674  11.061 -0.4946  0.0444 -1.4329
  392MOL0     C52795   5.876   5.594  11.130  0.6508 -0.2643 -0.4902
  392MOL0     C52796   5.744   5.664  11.145 -0.0424  0.0398  1.1144
  392MOL0     C52797   5.704   5.732  11.010  0.0417  0.6027  0.1780
  392MOL0     C52798   5.563   5.784  11.013 -0.3633 -0.7511 -1.0469
  392MOL0     C52799   5.447   5.685  10.983  0.2363  0.5500  0.3711
  392MOL0     C52800   5.321   5.761  10.974  0.0690 -0.5483  0.1657
  392MOL0     C52801   5.280   5.823  11.113  0.0245  0.2901  0.5266
  392MOL0     N52802   5.135   5.860  11.105 -0.2074 -0.8066  0.0104
  392MOL0     C52803   5.031   5.786  11.151  0.8053 -0.8266 -0.6071
  392MOL0     C52804   4.925   5.871  11.148 -0.7899  0.9915  0.5417
  392MOL0     C52805   4.792   5.829  11.204  0.4785 -0.1885 -2.0271
  392MOL0     C52806   4.683   5.807  11.099  0.7836 -0.5385 -0.1883
  392MOL0     C52807   4.706   5.683  11.013  0.5827  0.2550  0.4182
  392MOL0     C52808   4.582   5.669  10.918 -0.0632 -0.3883  0.2902
  392MOL0     O52809   4.470   5.622  10.990  0.0757 -0.9377 -0.2381
  392MOL0     C52810   4.364   5.579  10.922 -0.2563  0.0847  0.5432
  392MOL0     C52811   4.367   5.488  10.817  0.6733 -0.2635  0.5103
  392MOL0     C52812   4.248   5.450  10.731 -0.1706  0.0282 -0.3866
  392MOL0     C52813   4.286   5.354  10.619  0.2389 -0.6945  0.4474
  392MOL0     C52814   4.129   5.517  10.766 -0.1188  0.4261 -0.4503
  392MOL0     C52815   4.001   5.488  10.697  0.4161 -0.0509 -0.2741
  392MOL0     O52816   3.883   5.527  10.752 -0.2920  0.4089 -0.5025
  392MOL0     C52817   3.760   5.493  10.705 -0.0971  0.1547 -0.2440
  392MOL0     C52818   3.722   5.451  10.573  0.0849 -0.9983 -0.9634
  392MOL0     C52819   3.587   5.428  10.544 -0.3117  0.5020 -0.2449
  392MOL0     C52820   3.487   5.449  10.642 -0.0641 -0.3942 -0.1650
  392MOL0     O52821   3.359   5.427  10.607  0.0220  0.6851  0.6612
  392MOL0     C52822   3.251   5.492  10.681 -0.5399 -0.0197  0.2216
  392MOL0     C52823   3.116   5.476  10.601 -0.0919 -1.1611  0.5421
  392MOL0     C52824   3.001   5.512  10.689 -0.7858  0.0836 -1.1138
  392MOL0     C52825   2.864   5.493  10.631  0.2782 -0.3452  0.3335
  392MOL0     C52826   2.753   5.551  10.717  0.0089  0.1611 -0.5886
  392MOL0     C52827   2.741   5.475  10.849 -0.4221 -0.4377  0.2956
  392MOL0     C52828   2.708   5.324  10.843 -0.3352 -0.0790  0.6904
  392MOL0     C52829   2.664   5.271  10.976 -0.3529 -0.4967 -0.0470
  392MOL0    Cl52830   2.479   5.295  10.995 -0.0277  0.2417 -0.0357
  392MOL0     C52831   3.534   5.487  10.772 -0.3924  0.7144  0.2286
  392MOL0     C52832   3.665   5.517  10.800  0.2692  0.6464 -0.5170
  392MOL0     O52833   4.003   5.430  10.587  0.3381  0.4802 -0.1169
  392MOL0     C52834   4.126   5.608  10.876  0.3255  0.7526  1.0650
  392MOL0     C52835   4.238   5.639  10.945 -0.1935  0.2048  0.2020
  392MOL0     N52836   4.963   5.998  11.097  0.0315  0.4348 -0.0012
  392MOL0     N52837   5.087   5.984  11.073 -0.2345 -0.6550  0.2210
  392MOL0     C52838   6.267   5.865  11.204  0.6174  0.3437 -0.1646
  392MOL0     C52839   6.369   5.956  11.167 -0.5287  0.1898  0.0022
  392MOL0     C52840   6.632   6.215  10.883  0.1497 -0.2587  0.1138
  392MOL0     C52841   6.760   6.172  10.849 -0.3685 -0.2948 -0.7430
  392MOL0     C52842   6.857   6.270  10.805 -0.1418  0.3534  0.1321
  392MOL0     C52843   6.834   6.410  10.801 -0.5934 -0.4563 -0.2628
  392MOL0     O52844   6.932   6.494  10.753  0.3655 -0.0219 -0.1933
  392MOL0     C52845   6.916   6.631  10.774 -0.8104  0.1918 -0.3249
  392MOL0     C52846   6.907   6.676  10.917 -0.4333 -0.6362 -0.2896
  392MOL0     C52847   6.917   6.832  10.932  0.1866  0.0217 -0.2296
  392MOL0     C52848   7.058   6.883  10.943 -0.8272 -0.0096  0.3199
  392MOL0     C52849   7.056   7.031  10.968 -0.2814  1.2072  0.1907
  392MOL0     C52850   7.052   7.140  11.008  0.7922 -0.2293  0.1285
  392MOL0     C52851   6.701   6.445  10.834  0.0948 -1.6488 -1.4646
  392MOL0     C52852   6.609   6.351  10.876 -0.0717  0.2188  0.1036
  392MOL0     H52853   6.252   6.037  10.858 -2.4658 -1.8830 -0.6542
  392MOL0     H52854   6.057   5.886  10.945  0.2061 -1.9603  1.9323
  392MOL0     H52855   5.957   5.724  10.971  0.0690 -0.0033 -1.7076
  392MOL0     H52856   6.077   5.612  11.025  0.3535  0.3974 -0.1793
  392MOL0     H52857   5.858   5.511  11.062  3.3718  0.4845 -2.2845
  392MOL0     H52858   5.899   5.556  11.230 -2.0953 -0.6206  0.0868
  392MOL0     H52859   5.662   5.592  11.157 -0.7463  0.2913 -1.5729
  392MOL0     H52860   5.737   5.731  11.231  0.9520  0.6465  0.7391
  392MOL0     H52861   5.770   5.817  10.995  1.6952 -0.2015  2.3202
  392MOL0     H52862   5.724   5.667  10.924 -3.1876  2.7216 -2.4089
  392MOL0     H52863   5.544   5.829  11.111  2.3372  3.1299 -2.0383
  392MOL0     H52864   5.558   5.867  10.941 -2.7565  0.6886  0.6396
  392MOL0     H52865   5.470   5.630  10.891 -1.2521  2.1900 -1.0483
  392MOL0     H52866   5.443   5.615  11.067  1.2113  1.0183  0.8290
  392MOL0     H52867   5.334   5.837  10.896  1.9256 -4.0651 -3.2543
  392MOL0     H52868   5.236   5.699  10.945  1.5668 -1.3274 -3.0651
  392MOL0     H52869   5.342   5.909  11.138  0.5508  0.4069 -1.1177
  392MOL0     H52870   5.282   5.748  11.193 -0.2207  0.6184  0.8460
  392MOL0     H52871   5.040   5.694  11.208  2.2055 -0.2396  0.1800
  392MOL0     H52872   4.800   5.736  11.261 -1.5249  0.0045 -1.3512
  392MOL0     H52873   4.764   5.916  11.265 -0.5524 -1.1756 -1.0309
  392MOL0     H52874   4.684   5.895  11.033 -0.0023  0.2979  0.8786
  392MOL0     H52875   4.586   5.790  11.145 -0.0751  0.2280 -1.6489
  392MOL0     H52876   4.711   5.601  11.085 -1.0961  2.5142  3.3491
  392MOL0     H52877   4.795   5.695  10.950 -0.4075 -1.0147 -1.2863
  392MOL0     H52878   4.605   5.592  10.844 -0.9073 -2.6597  2.2524
  392MOL0     H52879   4.559   5.771  10.886  0.4721  0.0363  1.2172
  392MOL0     H52880   4.466   5.445  10.808  0.7279 -0.2601  1.0773
  392MOL0     H52881   4.296   5.405  10.523 -0.2606 -1.4894 -0.0430
  392MOL0     H52882   4.382   5.308  10.643  0.6650 -0.2944 -0.4164
  392MOL0     H52883   4.206   5.279  10.620 -1.9985  1.5270 -0.6893
  392MOL0     H52884   3.791   5.452  10.490 -0.5954 -0.7293 -1.5306
  392MOL0     H52885   3.543   5.398  10.449 -2.1690  2.0671  0.0438
  392MOL0     H52886   3.245   5.459  10.785 -2.7025  3.8919  1.5590
  392MOL0     H52887   3.273   5.600  10.679  2.5733 -0.1742 -7.4856
  392MOL0     H52888   3.112   5.550  10.521 -0.6481 -1.2938  0.4428
  392MOL0     H52889   3.098   5.376  10.562  0.9738 -1.4935  0.8700
  392MOL0     H52890   3.016   5.615  10.721  3.1889 -0.7489  0.2671
  392MOL0     H52891   3.019   5.455  10.781 -1.2714 -1.2508 -1.8161
  392MOL0     H52892   2.861   5.557  10.542 -1.9509 -3.3950 -2.0334
  392MOL0     H52893   2.842   5.395  10.588 -1.6433 -0.2413  0.9459
  392MOL0     H52894   2.668   5.528  10.652  1.9404 -1.0173 -2.9062
  392MOL0     H52895   2.762   5.659  10.729  0.7707 -0.0215  0.7117
  392MOL0     H52896   2.834   5.485  10.906 -1.4579  1.0648  1.8334
  392MOL0     H52897   2.666   5.522  10.913 -0.3692 -1.0966  0.8408
  392MOL0     H52898   2.800   5.270  10.817 -1.5261 -1.4871 -0.8817
  392MOL0     H52899   2.633   5.305  10.766  0.3899  3.3115 -1.0586
  392MOL0     H52900   2.719   5.317  11.059 -1.1828 -0.8552  0.7267
  392MOL0     H52901   2.676   5.162  10.980 -0.8248 -0.5262  2.2333
  392MOL0     H52902   3.464   5.498  10.854 -1.1316 -2.5635  0.2008
  392MOL0     H52903   3.693   5.545  10.901  0.7031  0.0814 -0.4716
  392MOL0     H52904   4.038   5.655  10.918  0.6827  1.5981  0.8930
  392MOL0     H52905   4.237   5.719  11.019 -1.2476 -1.0211  1.5730
  392MOL0     H52906   6.271   5.825  11.304  0.9598  2.7482  0.8630
  392MOL0     H52907   6.459   5.956  11.227  0.5204  0.5718 -1.5246
  392MOL0     H52908   6.786   6.067  10.856  0.2170 -0.1880 -1.1985
  392MOL0     H52909   6.949   6.228  10.764 -0.2677  1.3078 -1.2019
  392MOL0     H52910   7.008   6.671  10.729 -1.1110  1.2095 -0.0433
  392MOL0     H52911   6.832   6.674  10.718 -2.7283 -1.8962  0.8014
  392MOL0     H52912   6.986   6.632  10.977  0.0427 -1.9760 -1.8417
  392MOL0     H52913   6.812   6.643  10.960  0.0308 -1.8607 -0.1865
  392MOL0     H52914   6.866   6.859  11.025 -2.5248 -2.2567 -0.8904
  392MOL0     H52915   6.865   6.872  10.844 -0.8181 -0.4335  0.1399
  392MOL0     H52916   7.114   6.862  10.852 -0.0030  1.4917  0.4640
  392MOL0     H52917   7.108   6.842  11.032  0.5570  0.6914 -0.1145
  392MOL0     H52918   7.054   7.240  11.046 -1.0752 -0.6369  1.4022
  392MOL0     H52919   6.655   6.541  10.813 -1.3364 -2.1370 -0.6532
  392MOL0     H52920   6.506   6.384  10.878 -1.0405 -2.5496  0.8511
  393MOL0     O52921   5.219   8.182   1.164  0.5571  0.6087  0.5495
  393MOL0     C52922   5.145   8.267   1.211 -0.2382  0.1341 -0.8072
  393MOL0     O52923   5.189   8.367   1.289 -0.0703  0.0145  0.4276
  393MOL0     C52924   5.308   8.338   1.354  0.3691 -0.3187 -0.8082
  393MOL0     C52925   5.328   8.227   1.437 -0.1416  0.3273  0.5970
  393MOL0     C52926   5.451   8.213   1.498  0.4231  0.0564 -0.2540
  393MOL0     C52927   5.551   8.305   1.491  0.5087 -0.5254  0.1706
  393MOL0     O52928   5.659   8.278   1.562 -0.3976 -0.6712 -0.3647
  393MOL0     C52929   5.716   8.374   1.649 -0.5996  0.4553 -0.3464
  393MOL0     C52930   5.839   8.323   1.716 -0.6602 -0.4717 -0.5580
  393MOL0     C52931   5.825   8.180   1.768 -0.0627  0.8472 -0.5244
  393MOL0     C52932   5.711   8.168   1.875 -0.4345 -0.2440  0.4599
  393MOL0     C52933   5.703   8.012   1.909  0.2393 -0.2550  1.1943
  393MOL0     C52934   5.594   8.001   2.015  0.2240  1.0066 -0.5130
  393MOL0     C52935   5.525   7.864   2.022 -0.1444 -0.7618  0.3172
  393MOL0     C52936   5.622   7.746   1.987  0.4584  1.1705  0.4823
  393MOL0     N52937   5.721   7.719   2.088  0.4899 -0.2089  0.4465
  393MOL0     C52938   5.855   7.753   2.082 -0.8933  0.1332 -0.1211
  393MOL0     C52939   5.909   7.710   2.199  0.0350 -0.4901 -0.8551
  393MOL0     C52940   6.052   7.719   2.249 -0.1325 -0.2468 -0.3808
  393MOL0     C52941   6.121   7.857   2.237  0.2219 -0.2687 -0.1042
  393MOL0     C52942   6.280   7.846   2.227 -0.8955  0.5296  0.8626
  393MOL0     C52943   6.343   7.820   2.363  0.9593 -0.1211  0.0048
  393MOL0     O52944   6.478   7.839   2.374  0.2119 -0.1772 -0.5802
  393MOL0     C52945   6.553   7.745   2.305  0.4686 -0.4612  0.5828
  393MOL0     C52946   6.664   7.791   2.230 -1.2390  0.2947  0.3661
  393MOL0     C52947   6.753   7.709   2.166  0.9514  0.7497 -0.4127
  393MOL0     C52948   6.860   7.778   2.087 -0.1239 -0.1052 -0.9336
  393MOL0     C52949   6.736   7.568   2.186  1.0206 -0.1433  0.0052
  393MOL0     C52950   6.849   7.467   2.141  0.6481 -0.1925  0.6818
  393MOL0     O52951   6.830   7.348   2.195 -0.7051 -0.1999  0.6074
  393MOL0     C52952   6.917   7.245   2.200 -0.0593  0.1311  0.1013
  393MOL0     C52953   6.857   7.122   2.218  0.5484 -0.1172 -0.6700
  393MOL0     C52954   6.933   7.002   2.239  0.1364  0.7190 -0.4268
  393MOL0     C52955   7.071   7.010   2.250 -0.7526 -0.4066  0.2934
  393MOL0     O52956   7.151   6.912   2.292 -0.5592  0.6804  0.7194
  393MOL0     C52957   7.106   6.775   2.289 -0.0492  0.0608 -0.2832
  393MOL0     C52958   7.226   6.680   2.297 -0.1335  0.3429  0.6191
  393MOL0     C52959   7.201   6.534   2.334 -0.3129  0.3415  0.1080
  393MOL0     C52960   7.335   6.452   2.308  0.1773 -0.5641 -0.7223
  393MOL0     C52961   7.322   6.313   2.359  0.8883  0.7951 -0.3512
  393MOL0     C52962   7.450   6.230   2.332 -0.1783  0.0961  0.3050
  393MOL0     C52963   7.444   6.079   2.348 -0.5347 -0.1786  0.3102
  393MOL0     C52964   7.575   6.023   2.406  0.7092 -0.3471 -0.1220
  393MOL0    Cl52965   7.710   6.054   2.291 -0.4068 -0.5505  0.4322
  393MOL0     C52966   7.138   7.142   2.231  0.2602  0.9117  0.1012
  393MOL0     C52967   7.058   7.259   2.210  0.3563  0.1720 -0.4809
  393MOL0     O52968   6.942   7.510   2.066  0.4357  0.8111  0.6848
  393MOL0     C52969   6.617   7.517   2.247  0.2642 -0.1427  0.7443
  393MOL0     C52970   6.524   7.605   2.306  0.8952  0.1873 -0.2280
  393MOL0     N52971   5.805   7.645   2.270  0.3274 -0.0176  1.0177
  393MOL0     N52972   5.697   7.657   2.205  1.0307 -0.1900  0.5701
  393MOL0     C52973   5.530   8.427   1.424  0.1805  0.5347  0.3019
  393MOL0     C52974   5.406   8.440   1.355  0.3763 -0.2912 -0.5034
  393MOL0     C52975   5.011   8.265   1.149 -0.1161 -0.8281  0.3095
  393MOL0     C52976   4.971   8.153   1.072  0.3289  0.4646  1.2184
  393MOL0     C52977   4.856   8.160   0.990 -0.3116  0.0915  0.6593
  393MOL0     C52978   4.758   8.255   1.016 -0.0021  0.5986  0.0062
  393MOL0     O52979   4.644   8.241   0.943  0.5569  0.0666 -0.5108
  393MOL0     C52980   4.524   8.268   1.027 -0.7763  0.3112 -0.3310
  393MOL0     C52981   4.449   8.391   0.962 -0.6343 -0.2687  0.1230
  393MOL0     C52982   4.360   8.353   0.842  0.2096  0.2593 -0.5016
  393MOL0     C52983   4.372   8.443   0.720  0.2161  0.0901 -0.8472
  393MOL0     C52984   4.500   8.426   0.654 -0.0872 -0.8105  0.2057
  393MOL0     C52985   4.601   8.440   0.589 -0.9724 -1.0578 -0.3895
  393MOL0     C52986   4.788   8.362   1.099  0.4626  0.4910 -0.0759
  393MOL0     C52987   4.916   8.371   1.166  0.1203 -0.3215  0.4819
  393MOL0     H52988   5.244   8.161   1.456 -0.3310  0.2714 -0.4092
  393MOL0     H52989   5.452   8.140   1.578  0.3929 -1.1835 -1.3397
  393MOL0     H52990   5.755   8.459   1.594  0.9239 -1.4418 -2.3895
  393MOL0     H52991   5.651   8.405   1.731  0.4270  0.7797  0.3644
  393MOL0     H52992   5.923   8.329   1.646 -0.9198  1.8479 -0.7605
  393MOL0     H52993   5.871   8.389   1.798  0.8570  0.3374 -1.7488
  393MOL0     H52994   5.796   8.107   1.692 -1.7935 -0.6545  1.4381
  393MOL0     H52995   5.921   8.151   1.811 -0.5779 -2.0923 -1.1234
  393MOL0     H52996   5.740   8.221   1.966  0.5013  0.9522 -0.5133
  393MOL0     H52997   5.613   8.200   1.839 -0.5267 -0.8205  0.1784
  393MOL0     H52998   5.674   7.954   1.821 -0.7617  0.1001  1.2734
  393MOL0     H52999   5.798   7.968   1.940 -0.8581 -3.9811 -0.1908
  393MOL0     H53000   5.638   8.034   2.109 -1.6613 -1.5818  1.4383
  393MOL0     H53001   5.515   8.069   1.983  0.1475  1.0979 -0.1237
  393MOL0     H53002   5.478   7.838   2.117 -0.2568 -0.4573  0.3478
  393MOL0     H53003   5.440   7.868   1.953 -0.5124  1.3650  0.8220
  393MOL0     H53004   5.670   7.762   1.890  0.0906  2.4913  0.4948
  393MOL0     H53005   5.557   7.658   1.980  0.1176  1.4503  0.0618
  393MOL0     H53006   5.915   7.789   1.999 -0.9201 -2.4483 -1.3613
  393MOL0     H53007   6.069   7.686   2.351  0.2885 -0.1395 -0.4135
  393MOL0     H53008   6.105   7.647   2.186 -2.6278 -1.1642 -1.5314
  393MOL0     H53009   6.086   7.921   2.319  0.8603  0.9977 -0.7892
  393MOL0     H53010   6.100   7.896   2.137  1.0414  0.4987  0.0148
  393MOL0     H53011   6.336   7.926   2.178  0.2863 -0.6439  0.2341
  393MOL0     H53012   6.301   7.766   2.155  1.2175 -0.5557  2.5800
  393MOL0     H53013   6.306   7.726   2.404  0.9807 -0.0099  0.2796
  393MOL0     H53014   6.295   7.894   2.427  0.8913  0.2875 -0.5086
  393MOL0     H53015   6.687   7.897   2.241 -2.2579  0.8974 -2.5411
  393MOL0     H53016   6.961   7.751   2.117 -0.4149 -0.2426 -0.0622
  393MOL0     H53017   6.844   7.756   1.981 -0.8059 -1.5891 -0.5553
  393MOL0     H53018   6.844   7.885   2.105 -1.0609 -0.6188  1.8533
  393MOL0     H53019   6.748   7.121   2.224  0.5701 -0.6809 -0.2780
  393MOL0     H53020   6.871   6.913   2.245 -0.5149  1.0389 -1.8686
  393MOL0     H53021   7.039   6.755   2.374  1.8948 -0.7948  1.1124
  393MOL0     H53022   7.048   6.753   2.198  0.4689  2.7095 -1.3392
  393MOL0     H53023   7.285   6.696   2.206 -1.6496  1.4511 -0.2227
  393MOL0     H53024   7.292   6.725   2.371  0.3430  0.6500  0.0154
  393MOL0     H53025   7.129   6.488   2.265  1.3192 -4.1788  1.0811
  393MOL0     H53026   7.156   6.523   2.433 -2.6899  0.0399 -0.9333
  393MOL0     H53027   7.363   6.446   2.203 -0.7197 -1.9041 -0.9087
  393MOL0     H53028   7.416   6.509   2.354  0.8616 -0.9819 -1.3935
  393MOL0     H53029   7.229   6.287   2.309  0.3847  3.8702 -1.1889
  393MOL0     H53030   7.287   6.305   2.463 -4.0103 -0.9316 -1.8742
  393MOL0     H53031   7.481   6.246   2.229 -1.3252 -1.7653 -0.3858
  393MOL0     H53032   7.526   6.275   2.397 -1.8222 -0.5663  2.8428
  393MOL0     H53033   7.430   6.037   2.248  1.9623  1.0109 -0.6290
  393MOL0     H53034   7.361   6.048   2.412  0.8815 -1.4172  1.6335
  393MOL0     H53035   7.565   5.916   2.421  0.0107 -0.3352 -0.4342
  393MOL0     H53036   7.600   6.070   2.502  3.0633 -0.2674 -0.7214
  393MOL0     H53037   7.245   7.156   2.244 -0.0244  2.4437  1.0114
  393MOL0     H53038   7.105   7.356   2.199  1.1424 -0.1871 -0.3938
  393MOL0     H53039   6.611   7.410   2.264  0.6213 -0.3414 -0.3041
  393MOL0     H53040   6.438   7.562   2.357  0.5865  2.3035  1.1331
  393MOL0     H53041   5.612   8.499   1.415 -0.4529  1.2386  0.0516
  393MOL0     H53042   5.391   8.522   1.285 -1.4728  0.8304  1.0965
  393MOL0     H53043   5.038   8.068   1.076 -1.1736 -0.7832  0.7867
  393MOL0     H53044   4.836   8.074   0.927 -2.4118  0.0549  1.2998
  393MOL0     H53045   4.457   8.182   1.035 -1.9396  1.2136 -0.1386
  393MOL0     H53046   4.549   8.287   1.132 -1.1873  1.4173 -0.4246
  393MOL0     H53047   4.527   8.461   0.931  0.1343 -1.1881 -0.0503
  393MOL0     H53048   4.387   8.445   1.035 -0.3987  0.2189 -0.0318
  393MOL0     H53049   4.258   8.363   0.880  0.3562 -0.6066  0.1706
  393MOL0     H53050   4.379   8.251   0.808  1.7413  0.6752 -0.9568
  393MOL0     H53051   4.363   8.549   0.745  0.4678  0.3129 -1.6736
  393MOL0     H53052   4.297   8.415   0.645  1.9555 -0.1014 -2.6072
  393MOL0     H53053   4.688   8.441   0.527 -1.8789 -0.4373 -1.7061
  393MOL0     H53054   4.716   8.442   1.113  0.1149 -0.0097  1.1853
  393MOL0     H53055   4.936   8.467   1.212 -3.2148  0.4133  0.6220
  394MOL0     O53056   7.149   1.102   2.660 -0.0915 -0.1424  0.4888
  394MOL0     C53057   7.087   0.996   2.663  0.6649 -0.1161  0.1023
  394MOL0     O53058   7.137   0.870   2.635 -0.1848  0.6735  0.1331
  394MOL0     C53059   7.265   0.833   2.594  0.0882  0.4207 -0.5660
  394MOL0     C53060   7.284   0.702   2.552 -0.2052 -0.2894 -0.1965
  394MOL0     C53061   7.407   0.649   2.496  0.1641 -0.4236 -0.4833
  394MOL0     C53062   7.515   0.741   2.500  1.0615 -0.5153 -0.5745
  394MOL0     O53063   7.646   0.719   2.466  0.0896 -0.0334  0.1245
  394MOL0     C53064   7.669   0.598   2.390 -0.2563 -0.2381  0.0086
  394MOL0     C53065   7.806   0.586   2.321 -0.0032 -0.4099  0.7600
  394MOL0     C53066   7.807   0.648   2.184 -0.0145 -0.1209 -0.1094
  394MOL0     C53067   7.756   0.795   2.184  0.3214  0.4749 -0.0186
  394MOL0     C53068   7.753   0.848   2.045 -0.6092 -0.0301  0.7648
  394MOL0     C53069   7.848   0.959   2.014  0.3845  0.3387 -0.2019
  394MOL0     C53070   7.808   1.023   1.889  0.0911  0.2196 -0.3910
  394MOL0     C53071   7.898   1.132   1.854  0.0517 -0.6500  0.0417
  394MOL0     N53072   7.842   1.225   1.763 -0.8008  0.4356  0.0829
  394MOL0     C53073   7.752   1.327   1.787  0.2689 -0.1177 -0.1603
  394MOL0     C53074   7.750   1.389   1.670  0.0907 -0.4612  0.1168
  394MOL0     C53075   7.672   1.513   1.638  1.1299  1.0990  0.8982
  394MOL0     C53076   7.559   1.490   1.542 -1.4373  0.5737 -0.4188
  394MOL0     C53077   7.424   1.547   1.584  0.8134  0.1352  0.5251
  394MOL0     C53078   7.363   1.442   1.674  0.5136 -0.0724  0.0031
  394MOL0     O53079   7.325   1.327   1.601 -0.2037 -0.4258  0.7307
  394MOL0     C53080   7.203   1.282   1.632  0.5830 -0.4445  0.4873
  394MOL0     C53081   7.187   1.192   1.738 -0.1694 -0.1922  0.9257
  394MOL0     C53082   7.059   1.140   1.765 -0.3475  0.2872 -0.1252
  394MOL0     C53083   7.050   1.034   1.871 -0.1281  0.2846 -0.1729
  394MOL0     C53084   6.944   1.190   1.697 -0.0641 -0.1301  0.3431
  394MOL0     C53085   6.807   1.134   1.722  0.4950 -0.3457  0.2020
  394MOL0     O53086   6.706   1.218   1.722 -0.0992 -0.3377 -0.2980
  394MOL0     C53087   6.573   1.179   1.729 -0.0178 -0.0544 -0.1739
  394MOL0     C53088   6.514   1.080   1.657  0.6939 -0.3336  0.8477
  394MOL0     C53089   6.377   1.049   1.662  0.4495 -0.7151  0.8054
  394MOL0     C53090   6.290   1.131   1.744  0.7478 -0.0722 -0.0292
  394MOL0     O53091   6.154   1.116   1.756 -0.7758 -0.2917  0.3789
  394MOL0     C53092   6.108   0.982   1.726 -0.4131  0.4906  0.2459
  394MOL0     C53093   5.956   0.993   1.749  0.3564  0.6151 -0.4139
  394MOL0     C53094   5.894   0.850   1.757  0.1553  0.1558 -0.7408
  394MOL0     C53095   5.763   0.860   1.825  0.0032  0.0998 -0.0913
  394MOL0     C53096   5.681   0.733   1.812  1.2513 -1.2098 -0.2142
  394MOL0     C53097   5.535   0.753   1.850  0.0529 -0.7656 -1.1570
  394MOL0     C53098   5.506   0.759   2.005 -0.4713 -0.3433 -1.1891
  394MOL0     C53099   5.386   0.860   2.046  0.4311 -0.2670  0.0636
  394MOL0    Cl53100   5.351   0.845   2.224 -0.3823  0.3481  0.0203
  394MOL0     C53101   6.346   1.242   1.816  0.4501  0.5216  0.5974
  394MOL0     C53102   6.486   1.258   1.812  0.3459  1.1002  0.6163
  394MOL0     O53103   6.792   1.010   1.728 -0.7568  0.5746 -0.4093
  394MOL0     C53104   6.955   1.289   1.599 -0.3290 -0.0644 -0.4613
  394MOL0     C53105   7.093   1.336   1.567  0.4268 -0.0493 -0.0514
  394MOL0     N53106   7.836   1.335   1.576  0.7949 -0.1621 -0.6335
  394MOL0     N53107   7.900   1.239   1.639  0.4567 -0.4350  0.5587
  394MOL0     C53108   7.494   0.865   2.549  0.0639  0.0397  0.2078
  394MOL0     C53109   7.372   0.912   2.590 -0.9088 -0.2202 -0.6207
  394MOL0     C53110   6.958   1.010   2.728 -0.2399  0.1676 -0.6359
  394MOL0     C53111   6.890   0.894   2.756  0.1343 -1.5940 -0.0068
  394MOL0     C53112   6.761   0.894   2.818 -0.8434 -0.1652 -0.4364
  394MOL0     C53113   6.709   1.010   2.862  0.0907  0.4631  0.6584
  394MOL0     O53114   6.587   1.004   2.933 -1.0671 -0.6018  0.5576
  394MOL0     C53115   6.557   1.112   3.027  0.2243 -0.6857 -0.7380
  394MOL0     C53116   6.646   1.126   3.146 -0.1944 -0.0940  0.5288
  394MOL0     C53117   6.607   1.015   3.244  0.1028  0.3865  0.3040
  394MOL0     C53118   6.678   1.032   3.379 -0.4210 -0.0667 -0.3784
  394MOL0     C53119   6.627   1.145   3.454  1.1954  0.0080  0.9754
  394MOL0     C53120   6.574   1.242   3.505  0.3149 -0.6848 -0.0056
  394MOL0     C53121   6.780   1.126   2.838  0.3680  0.1718 -1.0213
  394MOL0     C53122   6.898   1.128   2.760  0.0346 -0.4308 -0.0226
  394MOL0     H53123   7.197   0.641   2.536 -0.1011 -1.4841  3.0405
  394MOL0     H53124   7.423   0.549   2.457  0.5618 -0.8940  0.8635
  394MOL0     H53125   7.675   0.510   2.455  0.9745 -1.0287 -1.1107
  394MOL0     H53126   7.589   0.577   2.318 -0.2633 -0.2252  0.0129
  394MOL0     H53127   7.885   0.634   2.379 -0.0493  1.8328 -0.9388
  394MOL0     H53128   7.829   0.479   2.325  1.3779 -0.1050  1.4295
  394MOL0     H53129   7.905   0.635   2.137  2.0654 -0.3781  3.8591
  394MOL0     H53130   7.727   0.584   2.146 -0.6788 -0.8573  2.3339
  394MOL0     H53131   7.655   0.803   2.226 -0.2045  1.3969 -1.3645
  394MOL0     H53132   7.819   0.855   2.251  2.6869  0.4613 -2.1007
  394MOL0     H53133   7.777   0.769   1.973  3.7870 -0.4423  2.3869
  394MOL0     H53134   7.650   0.878   2.026  0.2810  2.2038 -1.0800
  394MOL0     H53135   7.847   1.039   2.088 -2.0516 -0.2255  0.4649
  394MOL0     H53136   7.950   0.920   2.001  0.3149 -0.0604  0.4190
  394MOL0     H53137   7.803   0.954   1.805  0.1100  0.8877 -0.9478
  394MOL0     H53138   7.706   1.062   1.896  0.2399  1.3626 -3.2655
  394MOL0     H53139   7.994   1.095   1.818  2.3130  3.3848  1.2753
  394MOL0     H53140   7.927   1.185   1.945 -0.4405  0.1912 -0.2799
  394MOL0     H53141   7.692   1.347   1.876  0.8872 -1.3911  0.5635
  394MOL0     H53142   7.622   1.547   1.729 -4.0008 -2.0655 -0.3201
  394MOL0     H53143   7.745   1.580   1.593  1.9631  0.1037  0.7423
  394MOL0     H53144   7.545   1.383   1.525 -0.8023  0.0858  1.7494
  394MOL0     H53145   7.601   1.541   1.455 -2.0158  2.5050  0.3751
  394MOL0     H53146   7.355   1.548   1.499  0.8767  0.4593  0.4764
  394MOL0     H53147   7.436   1.648   1.624 -1.2688  1.2280 -1.3413
  394MOL0     H53148   7.281   1.494   1.724 -0.7132 -2.4504  0.6236
  394MOL0     H53149   7.437   1.418   1.751  1.0806 -2.0971 -1.1045
  394MOL0     H53150   7.277   1.144   1.775  1.1485  0.5928 -1.1078
  394MOL0     H53151   7.151   0.999   1.895  0.3149  0.1380 -2.0723
  394MOL0     H53152   7.002   1.068   1.963  1.0580 -0.5161  0.7663
  394MOL0     H53153   6.996   0.943   1.844 -1.1559 -0.0143  2.5687
  394MOL0     H53154   6.573   1.013   1.595 -0.1232 -2.1587  1.9452
  394MOL0     H53155   6.355   0.952   1.621  1.5604 -1.2989  1.5438
  394MOL0     H53156   6.124   0.939   1.626 -2.5272 -0.7000  0.3592
  394MOL0     H53157   6.154   0.911   1.796 -0.2637  1.1954  0.8671
  394MOL0     H53158   5.943   1.042   1.846 -0.7808  3.1895 -1.7928
  394MOL0     H53159   5.902   1.051   1.674 -0.6504 -1.1708 -1.1415
  394MOL0     H53160   5.964   0.778   1.802 -0.4892  0.4740  0.8324
  394MOL0     H53161   5.872   0.816   1.656 -1.0730 -1.5040  0.0328
  394MOL0     H53162   5.785   0.865   1.932  5.4194  0.9234 -0.9884
  394MOL0     H53163   5.705   0.945   1.789  0.1760 -0.4402 -1.7506
  394MOL0     H53164   5.726   0.651   1.869  0.6625 -1.3132  0.1011
  394MOL0     H53165   5.674   0.693   1.711 -2.7127 -1.0132 -0.1465
  394MOL0     H53166   5.491   0.844   1.811 -0.3673 -0.2891  0.3520
  394MOL0     H53167   5.473   0.672   1.810 -0.1984 -0.3052 -1.7027
  394MOL0     H53168   5.599   0.789   2.053 -1.3349  1.2633 -0.4405
  394MOL0     H53169   5.467   0.664   2.043  0.9003 -0.8829 -1.1042
  394MOL0     H53170   5.292   0.832   1.998  0.0754  0.6674  0.1918
  394MOL0     H53171   5.406   0.961   2.009  1.4324 -1.2939 -2.3971
  394MOL0     H53172   6.276   1.302   1.872  0.3155 -1.3223  2.5345
  394MOL0     H53173   6.522   1.342   1.871  3.3210  0.1276  0.3318
  394MOL0     H53174   6.874   1.338   1.545 -1.1880 -0.7108  0.2208
  394MOL0     H53175   7.098   1.409   1.487 -1.6533 -0.8366 -0.9666
  394MOL0     H53176   7.578   0.933   2.551 -0.1771  0.3154  1.0918
  394MOL0     H53177   7.366   1.015   2.624  0.5610 -0.0424 -0.8372
  394MOL0     H53178   6.926   0.797   2.723  0.5557 -1.8309  1.0845
  394MOL0     H53179   6.702   0.804   2.816 -0.5407 -0.3562 -1.3930
  394MOL0     H53180   6.551   1.207   2.973 -2.6818 -1.4982 -2.0787
  394MOL0     H53181   6.456   1.104   3.068 -0.6015  3.4993 -1.4826
  394MOL0     H53182   6.631   1.229   3.178  0.2924  0.4478 -0.9006
  394MOL0     H53183   6.752   1.123   3.119  0.1521  0.5840  1.7440
  394MOL0     H53184   6.635   0.921   3.196  0.0961  1.2841 -1.5677
  394MOL0     H53185   6.499   1.017   3.262  0.3741  0.2762  2.1778
  394MOL0     H53186   6.785   1.034   3.356  0.0212 -0.6570  1.4306
  394MOL0     H53187   6.661   0.947   3.446  1.1087  0.0354  0.1941
  394MOL0     H53188   6.544   1.331   3.555  1.6918 -1.7472  2.9297
  394MOL0     H53189   6.726   1.217   2.864  2.0159  1.0539 -0.5437
  394MOL0     H53190   6.940   1.225   2.736  1.2330 -0.0000  3.3184
  395MOL0     O53191   9.688   0.102   3.525  0.3907 -0.2303  0.6218
  395MOL0     C53192   9.707   0.058   3.640  0.4043  0.5576  0.4047
  395MOL0     O53193   9.624   0.070   3.748 -0.8876  0.1892 -0.3221
  395MOL0     C53194   9.494   0.117   3.736  0.7821  0.0074 -0.3655
  395MOL0     C53195   9.434   0.176   3.621 -0.2206 -0.9677  0.4781
  395MOL0     C53196   9.300   0.213   3.623 -0.6628  0.4564  0.0043
  395MOL0     C53197   9.223   0.192   3.741  0.4624 -0.2055  0.1698
  395MOL0     O53198   9.095   0.216   3.717  0.2020  0.1172 -0.2104
  395MOL0     C53199   9.021   0.238   3.832  0.4601 -0.8715  0.4027
  395MOL0     C53200   8.915   0.344   3.788  0.0976  0.6299 -0.6528
  395MOL0     C53201   8.816   0.275   3.689 -0.5619 -0.4222 -0.8586
  395MOL0     C53202   8.706   0.374   3.649 -0.7119  0.5830  0.0704
  395MOL0     C53203   8.610   0.320   3.551  0.3296 -0.0023 -0.1603
  395MOL0     C53204   8.503   0.422   3.509 -0.1405  0.4921 -0.3256
  395MOL0     C53205   8.409   0.361   3.401  0.0988  0.1301 -0.1819
  395MOL0     C53206   8.289   0.292   3.471 -0.6523  0.1937 -0.3594
  395MOL0     N53207   8.246   0.177   3.395  0.5484 -0.8364  0.0362
  395MOL0     C53208   8.209   0.059   3.450 -0.8340  0.2740 -0.1059
  395MOL0     C53209   8.171  -0.020   3.344 -0.1011  0.9844  0.9601
  395MOL0     C53210   8.114  -0.158   3.343  0.1234 -0.0832 -0.4498
  395MOL0     C53211   7.961  -0.168   3.385  0.2972  0.9001  0.0054
  395MOL0     C53212   7.947  -0.123   3.527  0.7654  0.3848 -0.4602
  395MOL0     C53213   7.801  -0.148   3.568  0.5491  0.0027 -0.1376
  395MOL0     O53214   7.794  -0.293   3.570  0.0257 -0.3456 -0.0137
  395MOL0     C53215   7.671  -0.341   3.530  0.5472  0.1641 -1.1930
  395MOL0     C53216   7.639  -0.359   3.395 -0.6498 -0.2200 -0.2558
  395MOL0     C53217   7.517  -0.416   3.351 -0.1538  0.2008  0.5458
  395MOL0     C53218   7.483  -0.425   3.202  0.0401 -0.1709  0.8853
  395MOL0     C53219   7.428  -0.443   3.449 -1.6851  0.0347  0.8514
  395MOL0     C53220   7.294  -0.499   3.421  0.5645 -0.4149  0.3444
  395MOL0     O53221   7.198  -0.471   3.509  0.5101 -0.5349  0.4109
  395MOL0     C53222   7.066  -0.518   3.499 -0.2486  0.9034  0.0299
  395MOL0     C53223   7.000  -0.535   3.377  0.4485  0.0413  0.6953
  395MOL0     C53224   6.870  -0.590   3.377  0.5906 -0.3540  0.7297
  395MOL0     C53225   6.817  -0.650   3.489 -0.5078 -0.5830  0.6166
  395MOL0     O53226   6.691  -0.708   3.478 -1.1729 -0.2900  0.1986
  395MOL0     C53227   6.597  -0.726   3.588 -1.0552 -0.2768 -0.0277
  395MOL0     C53228   6.455  -0.777   3.542  1.3723 -0.0447 -0.1205
  395MOL0     C53229   6.364  -0.682   3.459 -0.0041  0.4936  1.1485
  395MOL0     C53230   6.331  -0.552   3.532  0.3351  0.1725  0.3463
  395MOL0     C53231   6.205  -0.476   3.464 -0.2307  1.2617  0.8452
  395MOL0     C53232   6.068  -0.553   3.486  0.6160  0.3595  0.7441
  395MOL0     C53233   5.933  -0.476   3.455  0.1544 -0.1986 -1.1613
  395MOL0     C53234   5.817  -0.566   3.457 -0.3009  0.0024  0.8206
  395MOL0    Cl53235   5.667  -0.490   3.408 -0.1339  0.0549 -0.1291
  395MOL0     C53236   6.887  -0.643   3.607 -0.2624  1.5030  0.5223
  395MOL0     C53237   7.008  -0.580   3.617 -0.1118 -0.6200  0.7589
  395MOL0     O53238   7.282  -0.578   3.331 -0.1517  0.0171  0.5812
  395MOL0     C53239   7.455  -0.430   3.589  0.4628 -0.0451  0.5729
  395MOL0     C53240   7.577  -0.378   3.627  0.2290 -0.6844  0.1577
  395MOL0     N53241   8.201   0.047   3.226  0.0409 -0.3718 -0.8609
  395MOL0     N53242   8.249   0.161   3.260 -0.4213 -0.3210  0.5945
  395MOL0     C53243   9.279   0.140   3.856 -0.7717  0.0110 -0.3545
  395MOL0     C53244   9.409   0.095   3.849 -0.4116  0.4616  0.6101
  395MOL0     C53245   9.837  -0.012   3.655  0.4777  0.0492 -0.4434
  395MOL0     C53246   9.900   0.000   3.786  1.1958 -0.2290  0.1118
  395MOL0     C53247  10.020  -0.073   3.816  0.2828  0.5029 -0.8635
  395MOL0     C53248  10.080  -0.157   3.711  0.0553 -0.0295  0.4825
  395MOL0     O53249  10.203  -0.218   3.746  0.2730 -0.3010 -0.0736
  395MOL0     C53250  10.290  -0.260   3.643  0.5249 -0.0759 -0.4025
  395MOL0     C53251  10.415  -0.173   3.647  0.1749 -0.2975 -0.2647
  395MOL0     C53252  10.374  -0.031   3.624 -0.2567 -0.6648 -0.6714
  395MOL0     C53253  10.492   0.064   3.605 -0.4093 -1.1682  0.1189
  395MOL0     C53254  10.590   0.057   3.719 -0.2873 -0.4397 -0.0622
  395MOL0     C53255  10.666   0.089   3.807  0.6538 -0.9991  0.5022
  395MOL0     C53256  10.014  -0.169   3.590 -0.2096  0.7462  0.3062
  395MOL0     C53257   9.902  -0.092   3.560 -0.4822  0.0352  0.7985
  395MOL0     H53258   9.486   0.205   3.530 -1.6368  0.7425  0.1665
  395MOL0     H53259   9.255   0.266   3.540  1.5180  1.3443 -0.6812
  395MOL0     H53260   8.973   0.149   3.871  1.1968 -1.9769 -1.1100
  395MOL0     H53261   9.080   0.296   3.904  2.0544 -1.7499 -0.1305
  395MOL0     H53262   8.865   0.364   3.883 -1.7519 -3.5731 -0.5260
  395MOL0     H53263   8.954   0.440   3.754 -2.7909  3.1895  2.5985
  395MOL0     H53264   8.863   0.257   3.592  0.0991 -2.1436 -0.2523
  395MOL0     H53265   8.782   0.175   3.718  1.0808 -0.0122  3.1746
  395MOL0     H53266   8.653   0.417   3.734 -1.7502  2.2288 -1.3615
  395MOL0     H53267   8.750   0.459   3.597 -0.5379 -1.5257 -3.6110
  395MOL0     H53268   8.664   0.287   3.462 -0.8086 -2.2170 -0.1212
  395MOL0     H53269   8.566   0.226   3.587 -0.9113 -0.1502 -1.9622
  395MOL0     H53270   8.443   0.448   3.597 -1.8679  0.2416 -1.3801
  395MOL0     H53271   8.553   0.516   3.484  1.9507  0.0711  1.9054
  395MOL0     H53272   8.380   0.436   3.326  1.3174  0.5744 -0.2305
  395MOL0     H53273   8.470   0.289   3.346  0.6559  1.1348 -0.9141
  395MOL0     H53274   8.213   0.368   3.489 -2.1874 -1.4928  0.6905
  395MOL0     H53275   8.315   0.247   3.567 -1.8391 -0.6983 -0.4287
  395MOL0     H53276   8.196   0.020   3.550  0.0451 -0.7794 -0.3725
  395MOL0     H53277   8.112  -0.196   3.241 -0.8231 -0.3327 -0.3534
  395MOL0     H53278   8.182  -0.229   3.392  0.6495 -1.0984 -2.5517
  395MOL0     H53279   7.927  -0.272   3.375  1.5690  0.4546  0.0660
  395MOL0     H53280   7.916  -0.108   3.306 -0.1968  1.2351  0.5346
  395MOL0     H53281   7.969  -0.017   3.537  0.3116  0.3792  0.7715
  395MOL0     H53282   8.011  -0.180   3.594 -2.3328 -2.2997  0.4956
  395MOL0     H53283   7.732  -0.100   3.498  1.3387  3.4112  1.2159
  395MOL0     H53284   7.780  -0.108   3.668  1.4389 -2.4761  1.1145
  395MOL0     H53285   7.707  -0.327   3.317 -0.3885 -1.7484 -0.6942
  395MOL0     H53286   7.561  -0.385   3.138  1.1217 -3.2640  0.0671
  395MOL0     H53287   7.468  -0.527   3.164  3.4494  0.2198 -2.0508
  395MOL0     H53288   7.391  -0.371   3.176  0.5139 -0.6003 -2.0003
  395MOL0     H53289   7.026  -0.501   3.277 -2.3278 -0.8310 -0.4464
  395MOL0     H53290   6.811  -0.588   3.286  0.4532  4.1827  0.7044
  395MOL0     H53291   6.649  -0.793   3.657  3.9838  3.6546  0.6544
  395MOL0     H53292   6.594  -0.631   3.642 -2.2895 -1.7384  2.6541
  395MOL0     H53293   6.474  -0.869   3.486  0.8451 -0.9793  1.1714
  395MOL0     H53294   6.407  -0.814   3.633  1.4856 -0.9132 -0.4039
  395MOL0     H53295   6.274  -0.737   3.430 -0.5530  2.1006 -0.3938
  395MOL0     H53296   6.423  -0.658   3.370  0.4074 -1.7076  0.7829
  395MOL0     H53297   6.311  -0.575   3.637 -0.3488  1.0412  0.4237
  395MOL0     H53298   6.410  -0.476   3.527  0.9830 -0.5614 -3.0530
  395MOL0     H53299   6.231  -0.459   3.359  0.1851  1.6605  1.0116
  395MOL0     H53300   6.188  -0.379   3.513 -0.3739  1.9799 -0.5743
  395MOL0     H53301   6.071  -0.642   3.422  1.8293  0.8732  0.0657
  395MOL0     H53302   6.070  -0.587   3.590  0.5437  2.3883  1.4492
  395MOL0     H53303   5.946  -0.433   3.356 -0.8761  1.5048 -0.6033
  395MOL0     H53304   5.922  -0.392   3.524  1.2367  0.3409 -1.6343
  395MOL0     H53305   5.807  -0.614   3.554 -1.8732 -0.7201  0.3381
  395MOL0     H53306   5.836  -0.645   3.384  0.3163 -1.0018  2.0354
  395MOL0     H53307   6.843  -0.688   3.696 -1.1817  2.6497  0.6695
  395MOL0     H53308   7.063  -0.577   3.710 -0.8498  0.5568  1.1931
  395MOL0     H53309   7.381  -0.465   3.660 -0.5489  0.6111 -0.1395
  395MOL0     H53310   7.599  -0.356   3.731  3.5229  0.4148 -0.6623
  395MOL0     H53311   9.222   0.124   3.947  2.0800 -0.2700  1.5072
  395MOL0     H53312   9.460   0.048   3.932  2.0597  1.5503 -0.1909
  395MOL0     H53313   9.852   0.058   3.864 -3.1895 -2.1950 -0.7872
  395MOL0     H53314  10.077  -0.063   3.907 -0.6512  0.2130 -0.2312
  395MOL0     H53315  10.310  -0.366   3.659 -2.5757 -1.0086 -2.0162
  395MOL0     H53316  10.243  -0.244   3.546  0.2468  0.4990 -0.1776
  395MOL0     H53317  10.489  -0.205   3.573 -1.7536 -3.2572 -1.0908
  395MOL0     H53318  10.458  -0.200   3.744 -0.6588 -1.0063 -0.0716
  395MOL0     H53319  10.310  -0.003   3.709  0.6097  2.8133 -1.0002
  395MOL0     H53320  10.317  -0.019   3.532  1.6854  1.1272 -1.7147
  395MOL0     H53321  10.451   0.165   3.596 -0.4626 -1.0746  1.2588
  395MOL0     H53322  10.541   0.029   3.514  2.5016  0.3797  0.9600
  395MOL0     H53323  10.742   0.101   3.881  1.8005 -0.3107 -0.7445
  395MOL0     H53324  10.048  -0.231   3.507 -3.4604  0.4359 -0.9433
  395MOL0     H53325   9.864  -0.097   3.458  1.3547 -1.5978  0.1431
  396MOL0     O53326   8.794   2.095   1.885 -1.2155 -0.2317  0.2872
  396MOL0     C53327   8.771   2.210   1.930 -0.2866 -0.2642  1.4593
  396MOL0     O53328   8.650   2.266   1.958  0.4540  0.0106  0.1051
  396MOL0     C53329   8.548   2.177   1.940 -0.1643 -0.4022 -0.0893
  396MOL0     C53330   8.454   2.205   1.838 -0.4043  0.2550 -0.2063
  396MOL0     C53331   8.339   2.117   1.818 -0.2897  0.3601 -0.4097
  396MOL0     C53332   8.319   2.010   1.901 -0.4269 -0.6441 -0.2398
  396MOL0     O53333   8.214   1.925   1.884 -0.3005  0.0375  0.7189
  396MOL0     C53334   8.197   1.862   1.759 -0.0454  0.3706 -0.0808
  396MOL0     C53335   8.282   1.736   1.745 -0.2092  0.3744  0.2900
  396MOL0     C53336   8.261   1.636   1.859  0.4232  0.5182  1.0084
  396MOL0     C53337   8.128   1.567   1.845 -0.2002  0.5478 -0.3870
  396MOL0     C53338   8.091   1.489   1.968  0.3225  0.2955 -0.9342
  396MOL0     C53339   8.084   1.566   2.106  0.1700 -0.9551  0.1257
  396MOL0     C53340   8.026   1.490   2.231  0.1644  0.3950 -0.1484
  396MOL0     C53341   7.873   1.460   2.217 -0.3222 -0.2865  0.2193
  396MOL0     N53342   7.808   1.382   2.323 -0.4350 -0.5779 -0.5286
  396MOL0     C53343   7.850   1.259   2.363  1.0826  0.3077  0.0984
  396MOL0     C53344   7.759   1.222   2.445  1.0224 -0.6610 -0.0533
  396MOL0     C53345   7.783   1.116   2.551  0.3488 -0.6202 -0.0801
  396MOL0     C53346   7.883   1.155   2.657  0.1266 -0.0436  0.6107
  396MOL0     C53347   7.833   1.263   2.756 -0.1498 -0.0032 -0.2111
  396MOL0     C53348   7.930   1.281   2.873  0.0141 -0.5108  0.2424
  396MOL0     O53349   7.943   1.418   2.910 -0.1670 -0.5710 -0.1910
  396MOL0     C53350   7.831   1.497   2.951  1.1403 -0.0364  0.5015
  396MOL0     C53351   7.843   1.639   2.970  0.1990 -0.5147 -0.4822
  396MOL0     C53352   7.745   1.725   3.025 -0.4777 -0.1432 -0.1473
  396MOL0     C53353   7.762   1.880   3.023  0.4735  0.1028  0.0719
  396MOL0     C53354   7.628   1.666   3.067  0.2101  0.0389 -0.1033
  396MOL0     C53355   7.517   1.742   3.134 -0.2556 -0.5809  0.2427
  396MOL0     O53356   7.385   1.690   3.106  0.8492  0.4969  0.0451
  396MOL0     C53357   7.292   1.767   3.171  0.2539  0.6889  0.3430
  396MOL0     C53358   7.219   1.705   3.269 -0.1839 -0.7074  0.5981
  396MOL0     C53359   7.124   1.769   3.344  0.3184 -0.5439  0.3912
  396MOL0     C53360   7.077   1.897   3.300  0.0505 -0.1441 -0.0846
  396MOL0     O53361   6.982   1.967   3.373 -0.8817 -0.6037 -0.9879
  396MOL0     C53362   6.859   1.888   3.395 -0.4836 -0.1699 -0.1811
  396MOL0     C53363   6.750   1.974   3.466  0.7962  0.5365 -0.4758
  396MOL0     C53364   6.725   2.104   3.395 -0.7133  0.3868 -0.8912
  396MOL0     C53365   6.598   2.164   3.447  0.6150 -0.3016 -1.0637
  396MOL0     C53366   6.591   2.320   3.421 -0.2478  0.0317 -0.8602
  396MOL0     C53367   6.491   2.391   3.521 -0.0976  0.4920  0.0375
  396MOL0     C53368   6.520   2.543   3.534 -0.0712  0.3604  0.5204
  396MOL0     C53369   6.420   2.613   3.629  0.0352  0.2153 -0.2336
  396MOL0    Cl53370   6.450   2.781   3.617 -0.1787 -0.2451  0.3371
  396MOL0     C53371   7.140   1.956   3.192  0.5361 -0.2712  0.4533
  396MOL0     C53372   7.254   1.900   3.138  0.1918 -0.2933  0.7976
  396MOL0     O53373   7.539   1.828   3.220  0.0585  0.4305  0.0682
  396MOL0     C53374   7.608   1.525   3.052 -0.1273 -0.4579 -0.5752
  396MOL0     C53375   7.703   1.448   2.988 -0.1872 -0.6305 -1.1065
  396MOL0     N53376   7.662   1.322   2.457 -0.1451  0.4329  0.2850
  396MOL0     N53377   7.696   1.419   2.386 -0.5602 -0.1946 -0.4555
  396MOL0     C53378   8.411   1.997   2.009 -0.5451  0.7972 -0.0885
  396MOL0     C53379   8.530   2.071   2.025  0.1174  0.1803 -0.0076
  396MOL0     C53380   8.893   2.301   1.941  0.3328 -0.4506 -0.5094
  396MOL0     C53381   8.876   2.444   1.956 -0.2183  0.2033 -0.4122
  396MOL0     C53382   8.992   2.528   1.962  0.0851  0.1757  0.2326
  396MOL0     C53383   9.120   2.475   1.944  0.0021 -0.7973 -0.1036
  396MOL0     O53384   9.235   2.544   1.930  0.2546 -0.0483  0.6327
  396MOL0     C53385   9.223   2.683   1.906 -0.2891  0.2964 -0.2382
  396MOL0     C53386   9.365   2.756   1.866 -1.0411 -0.2092 -0.6692
  396MOL0     C53387   9.469   2.708   1.971 -0.9936 -0.4546  0.6407
  396MOL0     C53388   9.603   2.777   1.952  1.5256  0.5679  0.4741
  396MOL0     C53389   9.695   2.727   2.047 -0.7272 -0.2191  0.0683
  396MOL0     C53390   9.754   2.655   2.132  0.7201 -0.3855  0.3925
  396MOL0     C53391   9.133   2.337   1.938 -0.4973 -0.4161  0.7150
  396MOL0     C53392   9.025   2.253   1.941  0.1508 -0.4976  0.5465
  396MOL0     H53393   8.467   2.291   1.773  1.4265 -0.0216 -0.2597
  396MOL0     H53394   8.277   2.132   1.731 -2.5439 -0.9320  0.8720
  396MOL0     H53395   8.093   1.828   1.760 -0.4522  1.5471  0.6292
  396MOL0     H53396   8.206   1.931   1.674  1.6918  0.3732  0.0642
  396MOL0     H53397   8.271   1.688   1.647 -1.1387  1.6969 -0.2932
  396MOL0     H53398   8.380   1.773   1.776 -0.6905  0.8592  1.2746
  396MOL0     H53399   8.335   1.556   1.859 -0.9684 -0.8439 -0.8163
  396MOL0     H53400   8.269   1.685   1.956  0.1974 -1.1837  1.9125
  396MOL0     H53401   8.048   1.640   1.830 -0.6895  0.3237  1.0059
  396MOL0     H53402   8.132   1.508   1.753 -1.2165 -0.4930  0.2213
  396MOL0     H53403   7.998   1.437   1.944  0.6858  0.2230 -2.2495
  396MOL0     H53404   8.166   1.410   1.975 -0.2274 -0.2451 -1.0544
  396MOL0     H53405   8.190   1.582   2.130 -0.4998  2.8424  1.2212
  396MOL0     H53406   8.043   1.665   2.088  2.8571  0.0012 -1.1934
  396MOL0     H53407   8.084   1.398   2.239  2.0948  1.4299 -1.5237
  396MOL0     H53408   8.039   1.545   2.325  2.9913  2.2196 -1.4672
  396MOL0     H53409   7.851   1.399   2.129  2.3995 -0.3224 -0.5256
  396MOL0     H53410   7.833   1.562   2.212  0.8568  0.1980  0.2935
  396MOL0     H53411   7.938   1.206   2.327  0.1428  0.3140 -2.3913
  396MOL0     H53412   7.693   1.083   2.604  0.3781 -1.8085 -0.7419
  396MOL0     H53413   7.811   1.024   2.500  0.3250 -0.7578  0.1552
  396MOL0     H53414   7.973   1.199   2.615 -0.4857  0.3490 -0.3204
  396MOL0     H53415   7.899   1.062   2.713  0.9056 -0.7872 -0.7922
  396MOL0     H53416   7.733   1.245   2.799  0.6249 -1.1015  1.2212
  396MOL0     H53417   7.817   1.355   2.700 -1.5780 -0.8854 -1.3617
  396MOL0     H53418   8.023   1.226   2.859  1.5761  1.1243  3.1490
  396MOL0     H53419   7.873   1.232   2.953  1.4804 -0.6393  1.2481
  396MOL0     H53420   7.943   1.673   2.944  1.2304 -2.4844  0.6620
  396MOL0     H53421   7.813   1.904   2.929 -2.6190  0.9578 -1.5229
  396MOL0     H53422   7.668   1.934   3.031  0.6027  0.3978 -0.3392
  396MOL0     H53423   7.823   1.901   3.111  0.3410 -1.3309  0.5306
  396MOL0     H53424   7.247   1.601   3.288 -0.5400 -1.1150 -0.9641
  396MOL0     H53425   7.081   1.719   3.430  0.2891 -0.2892  0.5274
  396MOL0     H53426   6.827   1.858   3.295  1.8138 -0.9575 -0.7588
  396MOL0     H53427   6.875   1.798   3.454 -0.1683  0.7836  1.2453
  396MOL0     H53428   6.656   1.918   3.465 -0.1459  1.9382  1.6414
  396MOL0     H53429   6.783   1.990   3.569  0.2563 -0.4395 -0.1397
  396MOL0     H53430   6.706   2.092   3.288  0.9247 -1.9734 -0.9825
  396MOL0     H53431   6.801   2.182   3.408 -0.8165  0.3889 -0.2367
  396MOL0     H53432   6.513   2.110   3.404  1.5512 -2.0717 -0.7503
  396MOL0     H53433   6.585   2.147   3.554  0.0885 -2.8939 -1.4815
  396MOL0     H53434   6.565   2.350   3.318 -3.9486 -0.6592 -0.2816
  396MOL0     H53435   6.692   2.360   3.436 -0.0807  0.5372 -2.9506
  396MOL0     H53436   6.390   2.374   3.482  0.5038 -0.1709 -1.3019
  396MOL0     H53437   6.498   2.340   3.618  1.0561  0.1169 -0.2284
  396MOL0     H53438   6.508   2.596   3.439  1.6526 -1.8570 -1.0361
  396MOL0     H53439   6.619   2.560   3.577  1.3352  0.4532 -2.5393
  396MOL0     H53440   6.430   2.575   3.731 -1.4714  1.1471  0.2903
  396MOL0     H53441   6.319   2.583   3.599 -0.0049 -1.8290  1.7026
  396MOL0     H53442   7.112   2.054   3.155 -1.8646 -0.4368  1.6393
  396MOL0     H53443   7.312   1.955   3.065 -2.2187  2.7464  0.9596
  396MOL0     H53444   7.522   1.474   3.095  0.5883 -0.5532  0.8070
  396MOL0     H53445   7.697   1.341   3.005  2.2569 -0.8658 -1.3542
  396MOL0     H53446   8.400   1.908   2.069  1.1725 -2.4527 -4.0708
  396MOL0     H53447   8.607   2.050   2.098 -0.5502 -1.2661  0.3112
  396MOL0     H53448   8.777   2.483   1.977  0.6534  1.1226  2.6297
  396MOL0     H53449   8.987   2.637   1.965  2.4431  0.4173 -1.2569
  396MOL0     H53450   9.157   2.694   1.819 -0.9933 -2.2146 -0.0747
  396MOL0     H53451   9.185   2.731   1.997  0.1497 -0.9086  0.6027
  396MOL0     H53452   9.357   2.865   1.859 -2.3486 -0.2570 -0.2848
  396MOL0     H53453   9.388   2.715   1.768 -1.3490  0.2071 -0.9249
  396MOL0     H53454   9.478   2.600   1.953 -0.1551 -0.3786  0.5714
  396MOL0     H53455   9.425   2.726   2.069 -2.8642 -1.0340 -0.0335
  396MOL0     H53456   9.585   2.884   1.961 -1.3937  0.2073 -0.3218
  396MOL0     H53457   9.636   2.759   1.849  0.0329  1.2349 -0.1428
  396MOL0     H53458   9.792   2.568   2.181 -1.0772 -2.3914 -1.5558
  396MOL0     H53459   9.235   2.301   1.935  0.4957  2.1849 -1.5712
  396MOL0     H53460   9.043   2.146   1.938  0.7055 -0.3993  0.0399
  397MOL0     O53461   7.950   9.669  10.482  0.0926  0.8377 -0.3079
  397MOL0     C53462   8.018   9.589  10.554  0.0986  0.0034  0.7040
  397MOL0     O53463   7.975   9.520  10.659  0.1533  0.8136 -0.0874
  397MOL0     C53464   7.841   9.494  10.691  0.4906  0.8041 -0.1029
  397MOL0     C53465   7.729   9.513  10.613 -0.5640  0.1801  0.1294
  397MOL0     C53466   7.599   9.492  10.653  0.4411  0.6211  0.4516
  397MOL0     C53467   7.574   9.422  10.774  0.3359  0.2428 -0.2580
  397MOL0     O53468   7.452   9.371  10.816 -0.4254 -0.1095  0.9751
  397MOL0     C53469   7.331   9.406  10.740  0.1954 -0.0828 -0.6312
  397MOL0     C53470   7.214   9.305  10.771  0.1120 -0.4161  0.0974
  397MOL0     C53471   7.079   9.368  10.735 -0.0396 -0.9172  0.2316
  397MOL0     C53472   6.962   9.277  10.771  0.2678  0.5737  0.0915
  397MOL0     C53473   6.830   9.349  10.754 -0.2058 -0.1024  0.2464
  397MOL0     C53474   6.790   9.404  10.614 -0.4924 -0.0930  0.0787
  397MOL0     C53475   6.667   9.487  10.626  0.0349  0.6067  0.1274
  397MOL0     C53476   6.643   9.577  10.509  0.3533  0.4900  0.5892
  397MOL0     N53477   6.503   9.631  10.515  0.0241  0.3199  0.0277
  397MOL0     C53478   6.450   9.712  10.612  0.5306  0.4101  0.3179
  397MOL0     C53479   6.328   9.750  10.562 -0.3525 -0.2800 -0.2326
  397MOL0     C53480   6.237   9.843  10.643  0.5660 -0.3515  0.0515
  397MOL0     C53481   6.108   9.862  10.559  0.9205  0.7888  0.0237
  397MOL0     C53482   5.997   9.937  10.639 -0.0346  0.0540 -1.4003
  397MOL0     C53483   5.867   9.964  10.555 -0.5184 -0.3710  0.5568
  397MOL0     O53484   5.811   9.846  10.490  0.7945  0.5562  0.4698
  397MOL0     C53485   5.680   9.836  10.462 -0.7958  0.2401 -0.5925
  397MOL0     C53486   5.592   9.940  10.472  0.4052 -0.6849 -1.2846
  397MOL0     C53487   5.456   9.929  10.437 -0.5501  0.3074  0.1047
  397MOL0     C53488   5.367  10.034  10.473  0.3435  0.0331 -0.7536
  397MOL0     C53489   5.410   9.816  10.367  0.1301 -0.0942  0.1078
  397MOL0     C53490   5.266   9.771  10.343  0.3734 -0.0560 -0.2900
  397MOL0     O53491   5.253   9.663  10.271 -0.5287  0.0838  0.3889
  397MOL0     C53492   5.126   9.609  10.271 -0.4691 -0.1685 -0.8160
  397MOL0     C53493   5.085   9.527  10.382  0.0699  0.3170 -0.7683
  397MOL0     C53494   4.954   9.467  10.381 -0.6057 -0.2682 -0.2925
  397MOL0     C53495   4.868   9.493  10.278  0.5912  0.6579 -0.1627
  397MOL0     O53496   4.738   9.438  10.265 -0.2349  0.1650 -0.8431
  397MOL0     C53497   4.690   9.356  10.376  0.6407 -0.1140 -0.7203
  397MOL0     C53498   4.546   9.327  10.349 -0.2017  0.8803 -0.0982
  397MOL0     C53499   4.522   9.234  10.227  0.9845 -0.4581 -0.0617
  397MOL0     C53500   4.400   9.130  10.236  0.0797 -0.1980 -0.8251
  397MOL0     C53501   4.352   9.090  10.088 -0.3631 -0.9339 -1.0572
  397MOL0     C53502   4.231   8.992  10.103  0.1754 -0.2469  0.9916
  397MOL0     C53503   4.180   8.955   9.961  0.9697 -0.2620  0.1024
  397MOL0     C53504   4.042   8.883   9.980 -0.1899  0.0378  0.0554
  397MOL0    Cl53505   3.999   8.839   9.812 -0.0671  0.0261  0.2582
  397MOL0     C53506   4.913   9.578  10.173 -0.1202  0.1042 -0.3605
  397MOL0     C53507   5.037   9.636  10.174 -0.0852 -0.1930 -0.1686
  397MOL0     O53508   5.169   9.839  10.385  0.5000  0.2438  0.1730
  397MOL0     C53509   5.509   9.720  10.328 -0.0451 -0.3378 -0.2914
  397MOL0     C53510   5.645   9.736  10.362 -0.7695 -0.0669 -0.5283
  397MOL0     N53511   6.308   9.691  10.443  0.4649  0.0704 -0.2723
  397MOL0     N53512   6.409   9.613  10.420  0.4793  0.0572 -0.1220
  397MOL0     C53513   7.679   9.401  10.858 -0.2016  0.4197 -0.6750
  397MOL0     C53514   7.814   9.431  10.819  0.5312  0.4349 -0.4843
  397MOL0     C53515   8.169   9.601  10.540  0.0333  0.6154  0.2343
  397MOL0     C53516   8.224   9.666  10.429 -0.0251  0.2008 -1.1441
  397MOL0     C53517   8.364   9.677  10.419  0.4643 -0.5724 -0.3839
  397MOL0     C53518   8.447   9.607  10.507  0.4116  0.3147 -0.2314
  397MOL0     O53519   8.589   9.598  10.492 -0.0961  0.2010  0.5155
  397MOL0     C53520   8.632   9.596  10.351 -0.2374  0.1794  0.6688
  397MOL0     C53521   8.692   9.731  10.319  0.3519  0.5934  0.3789
  397MOL0     C53522   8.840   9.737  10.333 -0.2173 -0.3286 -0.7558
  397MOL0     C53523   8.891   9.877  10.289  0.1858 -0.4634 -0.5488
  397MOL0     C53524   8.845   9.991  10.370  0.3642 -0.0879 -0.4147
  397MOL0     C53525   8.831  10.076  10.460 -0.8457 -0.2174  0.9952
  397MOL0     C53526   8.389   9.550  10.615  0.0238 -0.3444  0.5552
  397MOL0     C53527   8.256   9.546  10.638  0.2097 -0.1621 -0.4493
  397MOL0     H53528   7.745   9.548  10.511  4.1004 -2.4511 -0.3324
  397MOL0     H53529   7.514   9.524  10.593  0.9290 -2.4129 -2.0821
  397MOL0     H53530   7.314   9.507  10.778 -1.3035 -0.5852  0.1157
  397MOL0     H53531   7.346   9.398  10.632 -0.5073  0.7531 -0.8046
  397MOL0     H53532   7.222   9.214  10.711 -0.4391 -0.6659  0.3897
  397MOL0     H53533   7.213   9.285  10.879  1.0732 -0.0555  0.1844
  397MOL0     H53534   7.071   9.466  10.782  0.2325 -1.2013  0.8838
  397MOL0     H53535   7.081   9.391  10.628 -1.9732 -0.5193  0.2427
  397MOL0     H53536   6.961   9.191  10.703 -0.1770  1.4495 -1.0592
  397MOL0     H53537   6.969   9.253  10.877  0.1767  0.4378  0.0678
  397MOL0     H53538   6.756   9.276  10.789 -0.6822 -0.3821 -1.2762
  397MOL0     H53539   6.843   9.431  10.826 -1.0915  0.5643 -0.3291
  397MOL0     H53540   6.866   9.476  10.581  0.6367 -1.0110  0.6020
  397MOL0     H53541   6.801   9.316  10.549  0.5971 -0.8463  1.2252
  397MOL0     H53542   6.587   9.413  10.634  1.0169 -0.3656  1.6883
  397MOL0     H53543   6.662   9.543  10.720 -2.8440  2.2703 -0.9035
  397MOL0     H53544   6.663   9.525  10.415 -1.3838 -0.3847  0.6611
  397MOL0     H53545   6.714   9.660  10.518  2.6733 -0.6000 -4.2048
  397MOL0     H53546   6.484   9.758  10.704 -3.2486  3.0129  0.6609
  397MOL0     H53547   6.218   9.800  10.742 -1.1134  0.2208  0.0085
  397MOL0     H53548   6.287   9.939  10.658 -0.2765  0.1934 -0.5151
  397MOL0     H53549   6.052   9.776  10.521  0.6702 -0.0197  2.0636
  397MOL0     H53550   6.129   9.917  10.467 -3.1890  2.7171  0.0249
  397MOL0     H53551   6.041  10.036  10.656 -2.5733  1.1905 -1.0915
  397MOL0     H53552   5.966   9.901  10.737  0.8605  0.9926 -0.7491
  397MOL0     H53553   5.890  10.046  10.487  2.6421  0.1923  2.1239
  397MOL0     H53554   5.795  10.007  10.626 -2.2131  1.5770 -2.1302
  397MOL0     H53555   5.620  10.038  10.509 -1.1318 -1.0701  1.1236
  397MOL0     H53556   5.425  10.111  10.525 -0.4397 -0.3695  0.7865
  397MOL0     H53557   5.318  10.080  10.387 -0.3853  0.6976 -0.0107
  397MOL0     H53558   5.292   9.993  10.542  2.2386 -1.3213  0.6033
  397MOL0     H53559   5.151   9.489  10.458  1.4860  2.1218 -1.0258
  397MOL0     H53560   4.925   9.395  10.457  0.3894 -0.9045 -0.4964
  397MOL0     H53561   4.750   9.265  10.371  2.1316  0.8761 -1.7417
  397MOL0     H53562   4.692   9.410  10.471 -1.6934 -1.1038 -0.0401
  397MOL0     H53563   4.511   9.271  10.436 -0.4989  3.0462  1.2494
  397MOL0     H53564   4.472   9.408  10.345 -2.4861 -1.1391 -1.7241
  397MOL0     H53565   4.603   9.165  10.203 -1.0927 -4.0784  2.2761
  397MOL0     H53566   4.513   9.295  10.136 -0.8846 -0.8679 -0.2074
  397MOL0     H53567   4.432   9.039  10.288 -1.0727 -0.0186  0.2357
  397MOL0     H53568   4.311   9.170  10.285  0.0180 -1.7207  0.3534
  397MOL0     H53569   4.430   9.027  10.045 -0.4242 -0.0050 -2.6137
  397MOL0     H53570   4.334   9.181  10.031  1.6388  0.2548  0.1034
  397MOL0     H53571   4.263   8.905  10.162 -0.8311  0.6334  2.9634
  397MOL0     H53572   4.152   9.045  10.157 -0.1078  0.8917 -0.4939
  397MOL0     H53573   4.249   8.884   9.915  0.2188 -1.3442  0.6002
  397MOL0     H53574   4.166   9.044   9.899  1.6808 -0.0840  0.1901
  397MOL0     H53575   3.966   8.943  10.031 -1.4119  0.5298 -2.1692
  397MOL0     H53576   4.055   8.795  10.043 -0.5591  3.5450  5.6560
  397MOL0     H53577   4.847   9.606  10.092 -0.0413 -0.2485 -0.5453
  397MOL0     H53578   5.074   9.699  10.094  1.2866 -1.0260 -0.2160
  397MOL0     H53579   5.483   9.633  10.269 -0.5310 -1.3835  1.3967
  397MOL0     H53580   5.723   9.671  10.325 -1.9635 -2.5814  1.1359
  397MOL0     H53581   7.661   9.352  10.953  0.3166 -0.7962 -1.1765
  397MOL0     H53582   7.896   9.415  10.887 -0.3703  0.7027  0.7011
  397MOL0     H53583   8.163   9.704  10.347 -0.2219  2.4628 -0.0409
  397MOL0     H53584   8.399   9.731  10.332 -0.0301  1.2429  0.4990
  397MOL0     H53585   8.715   9.526  10.345  1.4983  2.1302  0.6939
  397MOL0     H53586   8.550   9.577  10.280 -0.5447  0.3346  0.9783
  397MOL0     H53587   8.649   9.797  10.395  1.1216  0.9334  0.5204
  397MOL0     H53588   8.664   9.762  10.218  1.2335  1.5800  0.4201
  397MOL0     H53589   8.886   9.656  10.275  3.4725  2.6074 -2.3407
  397MOL0     H53590   8.860   9.716  10.439 -1.5933  0.8987 -0.2050
  397MOL0     H53591   8.857   9.877  10.185  1.2912  0.5926 -0.9298
  397MOL0     H53592   9.000   9.880  10.300  0.0198 -0.6085  1.4728
  397MOL0     H53593   8.833  10.151  10.536  0.5522  0.8907 -0.1026
  397MOL0     H53594   8.453   9.494  10.682  0.1422  1.1944  1.7853
  397MOL0     H53595   8.218   9.505  10.732  0.6524 -0.4925 -0.4060
  398MOL0     O53596   3.498   8.457   4.553  0.4060 -0.3570 -0.0751
  398MOL0     C53597   3.540   8.550   4.630 -0.1060  0.3117  0.5738
  398MOL0     O53598   3.487   8.577   4.758 -0.7408  0.4705 -0.3094
  398MOL0     C53599   3.402   8.492   4.836 -0.2699 -0.5220  0.2125
  398MOL0     C53600   3.366   8.362   4.809 -0.1092 -0.4839  0.3519
  398MOL0     C53601   3.275   8.291   4.884  1.0166  0.3929  0.0901
  398MOL0     C53602   3.202   8.354   4.985  0.6385  0.0345 -0.2578
  398MOL0     O53603   3.123   8.304   5.081 -0.4666  0.0324 -0.5059
  398MOL0     C53604   3.188   8.180   5.137  0.1436 -0.6515 -0.6395
  398MOL0     C53605   3.113   8.121   5.260 -0.0678 -0.7785  0.2792
  398MOL0     C53606   3.032   8.219   5.351  0.5805  0.5519  0.6011
  398MOL0     C53607   3.111   8.301   5.448 -0.3539  0.6170  0.6062
  398MOL0     C53608   3.058   8.432   5.481 -0.3191 -0.2394 -0.8471
  398MOL0     C53609   3.045   8.527   5.360 -1.1054 -0.5861  0.1754
  398MOL0     C53610   2.993   8.656   5.425 -0.7357 -0.9015 -0.2874
  398MOL0     C53611   3.026   8.774   5.345 -0.3695 -0.1744  0.8303
  398MOL0     N53612   2.951   8.892   5.394  0.3170 -0.2129  0.0306
  398MOL0     C53613   2.834   8.938   5.327 -0.0303  1.1617 -1.1950
  398MOL0     C53614   2.800   9.054   5.385 -0.0363 -1.1492  0.0922
  398MOL0     C53615   2.690   9.149   5.347  0.0945  0.4919  0.9713
  398MOL0     C53616   2.716   9.217   5.211  0.0213  0.0166  0.5601
  398MOL0     C53617   2.593   9.297   5.185 -0.1827 -0.5115 -0.7409
  398MOL0     C53618   2.594   9.345   5.043 -0.4476 -0.2860  0.5997
  398MOL0     O53619   2.490   9.448   5.022 -0.5660 -0.0986 -0.0968
  398MOL0     C53620   2.360   9.415   5.021  0.8713 -0.9285  0.5740
  398MOL0     C53621   2.309   9.298   4.980  0.5184 -0.2777 -0.3466
  398MOL0     C53622   2.171   9.266   4.965 -1.4460 -0.4097  0.1189
  398MOL0     C53623   2.140   9.128   4.904  0.4436 -0.5218  0.2125
  398MOL0     C53624   2.077   9.356   5.016  0.1372  0.0128  0.2589
  398MOL0     C53625   1.932   9.341   5.015 -0.1614  1.0681 -0.7463
  398MOL0     O53626   1.866   9.410   5.113  0.2093 -0.3496 -0.1232
  398MOL0     C53627   1.733   9.437   5.089 -0.2891 -0.2059  0.9668
  398MOL0     C53628   1.705   9.548   5.007  0.3476  0.0929  0.6503
  398MOL0     C53629   1.568   9.565   4.961 -0.2174  0.2264  0.7170
  398MOL0     C53630   1.475   9.471   5.000  0.4788 -0.3815  0.4466
  398MOL0     O53631   1.347   9.485   4.945 -0.0906  0.6758  0.1565
  398MOL0     C53632   1.219   9.436   5.007 -1.7621 -0.1489  0.3440
  398MOL0     C53633   1.085   9.468   4.944 -0.4226 -0.1833 -0.3695
  398MOL0     C53634   1.056   9.611   4.978  1.1041  0.1037  0.0678
  398MOL0     C53635   0.926   9.673   4.915 -0.1310 -0.5986 -0.2055
  398MOL0     C53636   0.919   9.825   4.963  0.2162 -1.3083  0.9822
  398MOL0     C53637   0.801   9.898   4.897 -0.1971 -0.6545 -0.6079
  398MOL0     C53638   0.665   9.860   4.966  0.4522  0.7627  0.8946
  398MOL0     C53639   0.618   9.971   5.064 -0.3384  0.6197 -0.6762
  398MOL0    Cl53640   0.697   9.956   5.224  0.4858  0.0829 -0.1210
  398MOL0     C53641   1.507   9.360   5.077  0.0059  0.7861 -0.1830
  398MOL0     C53642   1.636   9.343   5.119  0.4530  0.0999  0.8624
  398MOL0     O53643   1.879   9.279   4.918  0.0177  0.2044 -0.4924
  398MOL0     C53644   2.126   9.482   5.055  0.8913 -0.3541  0.4254
  398MOL0     C53645   2.264   9.514   5.057  0.0795 -0.1945  0.2519
  398MOL0     N53646   2.893   9.072   5.487 -0.5428 -0.1114  0.2749
  398MOL0     N53647   2.979   8.971   5.500  0.3284  0.9397 -0.3441
  398MOL0     C53648   3.236   8.479   5.016 -0.2335 -0.8373 -0.1460
  398MOL0     C53649   3.336   8.546   4.945 -0.2793 -0.1105  0.3444
  398MOL0     C53650   3.667   8.623   4.600  0.3740  0.3495  0.2376
  398MOL0     C53651   3.748   8.673   4.703  0.4156 -0.2842 -0.0321
  398MOL0     C53652   3.872   8.752   4.668  0.9480  0.0598 -0.4095
  398MOL0     C53653   3.904   8.778   4.539  0.0862  0.9183  0.2902
  398MOL0     O53654   4.010   8.846   4.499 -0.2350  0.5176 -0.0274
  398MOL0     C53655   4.090   8.913   4.593 -0.1639 -0.4846 -0.1103
  398MOL0     C53656   4.191   9.019   4.532  0.0064  0.0663 -0.5894
  398MOL0     C53657   4.244   9.119   4.638 -0.0082 -0.8309 -0.0501
  398MOL0     C53658   4.316   9.238   4.558 -0.0025  0.6592  0.1369
  398MOL0     C53659   4.417   9.300   4.639  0.5889 -0.0661  0.2831
  398MOL0     C53660   4.499   9.364   4.696 -0.5779  0.7240  1.0502
  398MOL0     C53661   3.819   8.720   4.440 -0.8201  0.2332 -0.1147
  398MOL0     C53662   3.707   8.643   4.474 -0.0037  0.3428  0.7651
  398MOL0     H53663   3.414   8.324   4.719  1.6479  0.3158  0.9267
  398MOL0     H53664   3.256   8.185   4.867 -1.8785  0.3470  2.8001
  398MOL0     H53665   3.184   8.104   5.059 -1.3039 -1.7757  0.4555
  398MOL0     H53666   3.291   8.208   5.160  0.1909 -0.7782 -0.7011
  398MOL0     H53667   3.054   8.033   5.232  0.2643 -1.0793  0.5163
  398MOL0     H53668   3.185   8.072   5.326  0.2486  0.3722  0.8047
  398MOL0     H53669   2.964   8.276   5.287  0.7553 -0.8099 -0.8846
  398MOL0     H53670   2.964   8.150   5.402  0.3449  0.5051  0.2304
  398MOL0     H53671   3.106   8.244   5.540 -2.0653  0.3915  0.4188
  398MOL0     H53672   3.210   8.316   5.405  0.2247  0.1951  1.7837
  398MOL0     H53673   2.957   8.420   5.520 -1.6981  2.9471 -3.0687
  398MOL0     H53674   3.121   8.467   5.563  1.0759 -2.1462 -1.0404
  398MOL0     H53675   3.146   8.550   5.326  0.1437 -2.7341  2.1372
  398MOL0     H53676   2.972   8.501   5.283 -1.0842  0.3505 -0.1806
  398MOL0     H53677   2.885   8.655   5.444 -0.1996 -1.1283  3.4882
  398MOL0     H53678   3.038   8.674   5.522  2.2741 -0.7408 -1.6160
  398MOL0     H53679   3.014   8.773   5.236  0.1423  0.9661  0.7540
  398MOL0     H53680   3.131   8.787   5.373 -1.2086 -0.7747  4.8017
  398MOL0     H53681   2.778   8.903   5.241  0.2340  0.2947 -1.0288
  398MOL0     H53682   2.596   9.093   5.352 -1.5592  3.0417  0.4906
  398MOL0     H53683   2.683   9.215   5.434 -0.0304  3.3657 -1.0511
  398MOL0     H53684   2.726   9.140   5.134 -3.8550  2.4574 -2.8119
  398MOL0     H53685   2.805   9.280   5.210  1.3080 -1.7050 -0.8587
  398MOL0     H53686   2.598   9.383   5.253 -3.4722  1.1015 -2.2908
  398MOL0     H53687   2.499   9.243   5.200 -2.5529  2.9249 -2.0198
  398MOL0     H53688   2.591   9.256   4.980  0.3585 -1.8617  2.6959
  398MOL0     H53689   2.690   9.394   5.024 -0.8232  0.2796  0.1142
  398MOL0     H53690   2.388   9.234   4.943 -0.6499 -2.4066  0.6499
  398MOL0     H53691   2.153   9.146   4.797 -3.3407  2.5986  0.0368
  398MOL0     H53692   2.199   9.043   4.940 -2.0032 -2.5139 -0.2116
  398MOL0     H53693   2.039   9.091   4.926  1.4462 -3.1416  0.8623
  398MOL0     H53694   1.785   9.611   4.971  0.1117 -0.2374 -0.5052
  398MOL0     H53695   1.546   9.640   4.886  0.3113  0.5050  0.8418
  398MOL0     H53696   1.225   9.327   5.009 -1.9663 -0.1508  1.0543
  398MOL0     H53697   1.221   9.465   5.113 -0.6071 -1.3408  0.6867
  398MOL0     H53698   1.084   9.449   4.836  0.8409 -1.7249 -0.1491
  398MOL0     H53699   1.009   9.409   4.994 -0.5113  0.1639 -0.0888
  398MOL0     H53700   1.140   9.674   4.947  2.4439 -0.9713  1.3536
  398MOL0     H53701   1.044   9.608   5.087 -1.8057  3.5656  0.0318
  398MOL0     H53702   0.927   9.667   4.806 -1.2095  0.9823 -0.3376
  398MOL0     H53703   0.854   9.602   4.958  2.0558 -3.8746 -1.5467
  398MOL0     H53704   1.015   9.875   4.944 -0.3026  0.0729  1.8659
  398MOL0     H53705   0.902   9.841   5.070  1.8712 -1.6204  1.3180
  398MOL0     H53706   0.816  10.007   4.899 -0.3175 -0.5975 -2.1186
  398MOL0     H53707   0.802   9.873   4.791  1.7383 -0.4622 -0.6706
  398MOL0     H53708   0.675   9.770   5.028  4.9557 -0.4985 -1.2502
  398MOL0     H53709   0.590   9.866   4.887  0.1465  0.5871  1.1713
  398MOL0     H53710   0.510   9.956   5.079 -0.0489  0.1484  1.1822
  398MOL0     H53711   0.642  10.066   5.016  0.5038  0.6153 -0.2820
  398MOL0     H53712   1.429   9.287   5.094  3.4989 -3.8454 -2.0800
  398MOL0     H53713   1.674   9.258   5.175  0.3354  0.9477  2.3078
  398MOL0     H53714   2.048   9.554   5.076  1.7553 -0.0278  2.8266
  398MOL0     H53715   2.292   9.615   5.084  0.1210 -0.2266  0.3271
  398MOL0     H53716   3.193   8.515   5.109 -0.2397 -0.0003 -0.4691
  398MOL0     H53717   3.365   8.646   4.975 -1.5844  0.7465 -1.1203
  398MOL0     H53718   3.703   8.647   4.798 -2.3102 -2.0072 -1.6404
  398MOL0     H53719   3.928   8.779   4.756 -2.6791 -0.8945  2.4328
  398MOL0     H53720   4.030   8.964   4.669 -0.8175 -2.2391  0.5981
  398MOL0     H53721   4.157   8.845   4.647  1.9625  2.2429  0.9683
  398MOL0     H53722   4.134   9.066   4.451  1.2722  1.7178 -0.5764
  398MOL0     H53723   4.268   8.969   4.473 -0.3339  0.1820 -1.1461
  398MOL0     H53724   4.303   9.074   4.719 -0.2413 -1.2446 -0.1036
  398MOL0     H53725   4.161   9.170   4.687  1.6117 -0.7662  2.8735
  398MOL0     H53726   4.239   9.312   4.534 -3.4622 -2.8024 -0.4663
  398MOL0     H53727   4.364   9.198   4.468 -1.5325  1.6860 -1.1834
  398MOL0     H53728   4.581   9.415   4.743  0.1696  0.6876 -0.1662
  398MOL0     H53729   3.838   8.731   4.334 -1.2656 -0.8437 -0.3162
  398MOL0     H53730   3.656   8.609   4.385  1.1585  0.5494  0.0020
  399MOL0     O53731   8.825   5.077   1.140  0.4138 -0.0596  0.1896
  399MOL0     C53732   8.847   4.961   1.110 -1.0406 -0.0554  0.2499
  399MOL0     O53733   8.757   4.855   1.105  0.6333  0.0805  0.1299
  399MOL0     C53734   8.621   4.870   1.107  0.5494  0.6004  0.3493
  399MOL0     C53735   8.554   4.978   1.043  0.2447 -1.3940  0.7832
  399MOL0     C53736   8.416   4.984   1.040 -0.0626 -0.2699 -0.8473
  399MOL0     C53737   8.348   4.880   1.110  0.4463  0.1401  0.8452
  399MOL0     O53738   8.210   4.891   1.131 -0.5395  0.8883  0.5887
  399MOL0     C53739   8.139   5.004   1.087  0.8009  0.4362  0.3607
  399MOL0     C53740   7.992   4.984   1.136 -0.3115 -0.0613  0.3755
  399MOL0     C53741   7.897   5.088   1.090  0.4509  0.0072  0.5509
  399MOL0     C53742   7.757   5.046   1.120  0.6295  0.3442 -0.2048
  399MOL0     C53743   7.657   5.135   1.047 -1.3180  0.0726  0.1166
  399MOL0     C53744   7.525   5.113   1.118  0.5273 -0.0047  0.0107
  399MOL0     C53745   7.421   5.180   1.037 -0.3062 -0.4875 -0.3357
  399MOL0     C53746   7.290   5.207   1.123 -0.1551 -0.5066 -0.2209
  399MOL0     N53747   7.222   5.072   1.121 -0.5633 -0.0101  0.3478
  399MOL0     C53748   7.200   4.991   1.236 -0.1506  0.0835  0.4608
  399MOL0     C53749   7.105   4.913   1.200  0.0217  0.5662 -0.5552
  399MOL0     C53750   7.033   4.820   1.291 -1.1190 -1.0643 -0.1103
  399MOL0     C53751   6.886   4.826   1.273 -0.4422 -0.1635 -0.1822
  399MOL0     C53752   6.815   4.731   1.371 -0.7760 -0.8006 -1.5339
  399MOL0     C53753   6.684   4.684   1.308  0.2785 -0.4383 -0.2162
  399MOL0     O53754   6.612   4.586   1.382  0.3271  0.3207 -0.2507
  399MOL0     C53755   6.477   4.553   1.350  0.2542  0.3214  0.1725
  399MOL0     C53756   6.409   4.476   1.444  0.0230  0.3403 -0.4761
  399MOL0     C53757   6.272   4.452   1.437  0.0765 -0.1397  0.8882
  399MOL0     C53758   6.206   4.368   1.553 -0.2251  0.5196  0.1064
  399MOL0     C53759   6.198   4.508   1.322  0.0515  0.4302 -1.0632
  399MOL0     C53760   6.057   4.484   1.305 -0.0779 -0.1535 -0.0727
  399MOL0     O53761   6.018   4.483   1.170 -0.6993  0.2634 -0.3974
  399MOL0     C53762   5.892   4.494   1.126 -1.2498 -0.6673 -0.0403
  399MOL0     C53763   5.845   4.397   1.033  0.1322  0.1333  0.4959
  399MOL0     C53764   5.717   4.402   0.986  0.6356  0.6610  0.3231
  399MOL0     C53765   5.627   4.495   1.029  0.1309  0.9668  0.2699
  399MOL0     O53766   5.501   4.477   0.968 -0.2979  0.4823 -0.1955
  399MOL0     C53767   5.392   4.566   1.002 -0.1504  0.0100  0.4451
  399MOL0     C53768   5.268   4.488   0.952  0.4958 -0.8142 -0.9293
  399MOL0     C53769   5.143   4.569   0.957  0.0200 -0.2293  0.6088
  399MOL0     C53770   5.067   4.547   1.089 -0.6745  0.7725 -0.7013
  399MOL0     C53771   4.927   4.479   1.068  0.5865 -0.2379 -0.2321
  399MOL0     C53772   4.812   4.514   1.168 -0.1468 -0.2502  1.1787
  399MOL0     C53773   4.684   4.472   1.113  0.4897  1.2950  0.3645
  399MOL0     C53774   4.619   4.567   1.019 -0.2489  0.0037  0.5249
  399MOL0    Cl53775   4.488   4.473   0.942 -0.5894  0.4975 -0.3760
  399MOL0     C53776   5.659   4.591   1.123 -0.1371 -1.0282 -0.2476
  399MOL0     C53777   5.798   4.593   1.167  0.5450  0.0220  0.0385
  399MOL0     O53778   5.977   4.460   1.393  0.0651 -0.0690 -0.2994
  399MOL0     C53779   6.266   4.575   1.224 -0.4787  0.1905  0.0529
  399MOL0     C53780   6.402   4.598   1.238 -0.5472 -0.0852 -0.1413
  399MOL0     N53781   7.067   4.928   1.065 -0.9052  0.9826  0.5464
  399MOL0     N53782   7.150   5.017   1.014 -0.2188  0.5971  0.4539
  399MOL0     C53783   8.414   4.775   1.170  0.0565  0.6532 -0.6591
  399MOL0     C53784   8.548   4.766   1.176  0.0399 -0.4903 -0.0552
  399MOL0     C53785   8.983   4.935   1.067 -0.1938 -0.7782  0.2152
  399MOL0     C53786   9.100   4.974   1.131  0.1225  0.1912  0.2927
  399MOL0     C53787   9.231   4.936   1.085  1.4282  0.1672 -0.3464
  399MOL0     C53788   9.249   4.840   0.988  0.2476 -0.0778 -0.3741
  399MOL0     O53789   9.367   4.779   0.958 -0.0970  0.0074  0.0987
  399MOL0     C53790   9.492   4.835   0.984 -0.2258 -0.6431  0.5575
  399MOL0     C53791   9.598   4.756   0.910  0.4256  0.6774 -0.3964
  399MOL0     C53792   9.737   4.782   0.968  0.2695 -0.7986  0.8932
  399MOL0     C53793   9.851   4.692   0.920 -0.4399 -0.6822  0.1671
  399MOL0     C53794   9.835   4.658   0.778  0.0273 -0.8201  0.5551
  399MOL0     C53795   9.835   4.629   0.654 -0.4658  0.3787 -0.5039
  399MOL0     C53796   9.134   4.803   0.915 -0.2724  0.7093  0.8731
  399MOL0     C53797   9.007   4.857   0.952  0.2913 -0.5583  0.2116
  399MOL0     H53798   8.608   5.051   0.984 -1.2842 -1.9299 -1.3928
  399MOL0     H53799   8.384   5.059   0.969 -0.9537 -1.6991 -2.0302
  399MOL0     H53800   8.184   5.097   1.123  1.1572 -0.6108  2.8148
  399MOL0     H53801   8.135   4.998   0.978  1.3104 -0.5902  0.3921
  399MOL0     H53802   7.959   4.890   1.091 -2.9190  0.6691  0.5750
  399MOL0     H53803   7.975   4.986   1.244 -0.7951  3.6742  0.3702
  399MOL0     H53804   7.919   5.190   1.125  2.3297  0.0959 -0.7297
  399MOL0     H53805   7.906   5.104   0.982 -2.0251 -1.0492  0.1282
  399MOL0     H53806   7.735   4.940   1.101 -1.1094  0.9198 -1.6513
  399MOL0     H53807   7.737   5.067   1.226  0.0959 -1.6704  0.1550
  399MOL0     H53808   7.684   5.241   1.053  2.3419 -0.6284 -1.3326
  399MOL0     H53809   7.656   5.104   0.942  0.3446 -0.2133  0.1510
  399MOL0     H53810   7.509   5.006   1.102 -0.9352 -0.4353  3.4789
  399MOL0     H53811   7.530   5.143   1.223  2.3501 -2.3797  0.6810
  399MOL0     H53812   7.449   5.282   1.011 -2.2232  0.4823  1.0903
  399MOL0     H53813   7.405   5.129   0.942  0.4348 -1.8246  0.2251
  399MOL0     H53814   7.231   5.284   1.073  1.9813  0.6735 -1.0577
  399MOL0     H53815   7.316   5.245   1.223  0.9558 -2.4709  0.3046
  399MOL0     H53816   7.255   4.984   1.330  3.1941 -0.7219 -1.3813
  399MOL0     H53817   7.053   4.717   1.261  0.1606 -1.3272  1.5088
  399MOL0     H53818   7.067   4.836   1.394 -0.3045  2.0750 -0.7556
  399MOL0     H53819   6.860   4.808   1.168 -4.8958 -2.2646  1.0264
  399MOL0     H53820   6.850   4.927   1.295  1.4165  0.3704  0.5748
  399MOL0     H53821   6.804   4.779   1.468  0.3793 -1.4821 -1.0464
  399MOL0     H53822   6.876   4.642   1.389  2.4759  1.3616 -1.0305
  399MOL0     H53823   6.709   4.649   1.207 -1.3930  1.2132 -1.2548
  399MOL0     H53824   6.621   4.772   1.295  0.9620 -0.0755 -1.2612
  399MOL0     H53825   6.454   4.437   1.535  0.1109 -2.8392 -1.7642
  399MOL0     H53826   6.099   4.347   1.537  0.0004  0.5089 -1.5504
  399MOL0     H53827   6.258   4.273   1.567  1.0686  1.1422 -0.3317
  399MOL0     H53828   6.213   4.425   1.646 -0.3695  2.5788 -1.0783
  399MOL0     H53829   5.911   4.315   1.007  0.8793  1.7331 -3.2908
  399MOL0     H53830   5.682   4.329   0.913  0.2830  2.4995 -1.4299
  399MOL0     H53831   5.384   4.599   1.106  1.6653 -1.0950  0.9809
  399MOL0     H53832   5.394   4.657   0.941 -2.0619 -0.4710 -0.4177
  399MOL0     H53833   5.286   4.464   0.847  2.4894 -0.8069 -0.6297
  399MOL0     H53834   5.253   4.398   1.012  1.9152  0.2720  1.2141
  399MOL0     H53835   5.095   4.539   0.864  0.6521  1.0528 -0.1525
  399MOL0     H53836   5.173   4.673   0.941 -0.3244 -0.3139 -0.6426
  399MOL0     H53837   5.127   4.490   1.161 -1.2522 -0.3379 -1.0763
  399MOL0     H53838   5.071   4.644   1.140  0.7475  0.9230 -1.0472
  399MOL0     H53839   4.939   4.371   1.067 -1.1104 -0.4521 -0.8489
  399MOL0     H53840   4.898   4.496   0.963  0.6028  1.6159  0.0228
  399MOL0     H53841   4.831   4.456   1.259 -0.0628 -1.1286  0.6175
  399MOL0     H53842   4.821   4.621   1.185 -1.0178 -0.5235  3.7358
  399MOL0     H53843   4.611   4.444   1.190 -1.3110  2.1971 -0.9469
  399MOL0     H53844   4.701   4.379   1.060 -0.8092  1.6988 -0.8090
  399MOL0     H53845   4.690   4.598   0.942  0.2239 -1.0135  0.5339
  399MOL0     H53846   4.581   4.652   1.076  1.3648  1.3743 -0.3514
  399MOL0     H53847   5.585   4.664   1.155 -1.4969 -2.5549  0.1752
  399MOL0     H53848   5.838   4.669   1.233  4.8708 -0.2254 -1.9560
  399MOL0     H53849   6.215   4.633   1.148 -0.3926  2.3652  1.5723
  399MOL0     H53850   6.436   4.651   1.150  0.0774 -1.9310 -1.0771
  399MOL0     H53851   8.356   4.706   1.231  2.2591  0.0009  0.8165
  399MOL0     H53852   8.604   4.681   1.213  0.0184 -0.9031 -0.9566
  399MOL0     H53853   9.080   5.039   1.216 -2.8256  0.2162 -0.3102
  399MOL0     H53854   9.324   4.963   1.135  0.6005 -1.2105  2.0928
  399MOL0     H53855   9.496   4.938   0.947 -0.1818 -1.4812 -2.0362
  399MOL0     H53856   9.510   4.826   1.091  1.9541 -1.6370  0.1630
  399MOL0     H53857   9.588   4.766   0.801 -0.2874  0.8447 -0.3224
  399MOL0     H53858   9.575   4.651   0.932  0.1897  0.8349  0.1192
  399MOL0     H53859   9.740   4.775   1.077 -0.9253  2.9215  1.3185
  399MOL0     H53860   9.753   4.889   0.947 -0.8502 -0.8546 -0.3392
  399MOL0     H53861   9.861   4.592   0.964  4.0754 -0.2640  0.5217
  399MOL0     H53862   9.946   4.744   0.933 -1.5589  1.6084 -0.3149
  399MOL0     H53863   9.821   4.597   0.553 -1.8458  1.9364 -0.8501
  399MOL0     H53864   9.129   4.724   0.841 -2.2322  0.5680  1.1016
  399MOL0     H53865   8.920   4.822   0.896  1.4555 -0.7690 -1.5450
  400MOL0     O53866  10.393   3.977   1.940  0.2507  0.2320 -0.1130
  400MOL0     C53867  10.391   4.062   2.034  0.4342 -0.2801  0.5563
  400MOL0     O53868  10.274   4.107   2.095 -0.5612  1.1146  0.1061
  400MOL0     C53869  10.157   4.045   2.063  0.9017  0.6835  0.4756
  400MOL0     C53870  10.061   4.115   1.997  1.0903 -0.1395  0.8113
  400MOL0     C53871   9.932   4.061   1.974 -0.0172 -0.0525 -0.2152
  400MOL0     C53872   9.904   3.923   2.005 -0.1893  0.3070 -0.2830
  400MOL0     O53873   9.788   3.855   1.997  0.5966 -0.0775  0.5838
  400MOL0     C53874   9.663   3.919   1.943 -0.7165  0.3663 -0.4353
  400MOL0     C53875   9.541   3.824   1.956 -0.4077 -0.7257  0.1018
  400MOL0     C53876   9.418   3.877   1.886 -0.2512 -0.4496  0.1546
  400MOL0     C53877   9.369   4.012   1.945 -0.3201 -1.0946  0.5801
  400MOL0     C53878   9.251   3.982   2.034  0.2685 -0.7039 -0.3642
  400MOL0     C53879   9.181   4.104   2.105  0.5385  0.4426  0.4127
  400MOL0     C53880   9.139   4.193   1.986 -0.7624 -0.0125 -0.6511
  400MOL0     C53881   9.062   4.319   2.036 -0.4097  0.3371 -0.6896
  400MOL0     N53882   9.009   4.407   1.929 -0.0300  0.5518 -0.6577
  400MOL0     C53883   9.087   4.446   1.828  0.7439 -0.0346 -1.1023
  400MOL0     C53884   8.985   4.484   1.738 -0.9241  0.8087 -0.0884
  400MOL0     C53885   9.031   4.548   1.614  0.3348  0.1083  0.2563
  400MOL0     C53886   9.000   4.695   1.601  0.1630  0.8199 -0.0224
  400MOL0     C53887   9.040   4.752   1.454  0.1941 -0.3332 -0.6602
  400MOL0     C53888   9.189   4.768   1.430  0.6002  0.2361  0.4406
  400MOL0     O53889   9.268   4.650   1.451  0.5435  0.1501 -0.3228
  400MOL0     C53890   9.391   4.645   1.399 -0.2053  0.1719  0.9006
  400MOL0     C53891   9.448   4.518   1.370 -0.2474 -0.1117 -0.1979
  400MOL0     C53892   9.584   4.498   1.328  0.1047  0.0429  0.5015
  400MOL0     C53893   9.620   4.355   1.309  0.4422  0.0832 -0.4162
  400MOL0     C53894   9.668   4.615   1.319  0.0928  0.0051  0.3053
  400MOL0     C53895   9.816   4.615   1.287  0.0189  0.2721  0.2822
  400MOL0     O53896   9.894   4.734   1.284 -0.2047  0.0539 -0.6873
  400MOL0     C53897  10.032   4.731   1.294  0.1652  0.4392 -0.2233
  400MOL0     C53898  10.118   4.751   1.181  0.0102  0.2411 -0.6706
  400MOL0     C53899  10.259   4.743   1.202 -0.8472  0.5242  0.5214
  400MOL0     C53900  10.308   4.699   1.327 -0.2717 -0.0091 -0.5283
  400MOL0     O53901  10.435   4.664   1.360  0.6688 -0.1006 -0.5231
  400MOL0     C53902  10.530   4.675   1.256 -0.6227  0.2556 -0.7443
  400MOL0     C53903  10.666   4.667   1.331  0.3235 -0.1895  0.7308
  400MOL0     C53904  10.784   4.705   1.257  0.1383 -0.2692  0.7922
  400MOL0     C53905  10.899   4.693   1.357 -0.5957 -0.2479  0.6235
  400MOL0     C53906  11.024   4.771   1.319  0.1004  0.0641  0.1095
  400MOL0     C53907  11.093   4.731   1.194  0.7303  0.3988 -0.2559
  400MOL0     C53908  11.228   4.797   1.195  0.5735  0.3808  1.1310
  400MOL0     C53909  11.331   4.737   1.286 -0.0882  0.3979  0.2105
  400MOL0    Cl53910  11.482   4.827   1.278  0.2277  0.0954  0.3209
  400MOL0     C53911  10.222   4.683   1.436  0.3076 -0.4253 -0.4458
  400MOL0     C53912  10.090   4.702   1.418  0.3475  0.4147  0.0259
  400MOL0     O53913   9.871   4.505   1.268  0.0415 -0.1361 -0.7594
  400MOL0     C53914   9.613   4.735   1.344 -0.1981  0.3564  0.5630
  400MOL0     C53915   9.483   4.749   1.383  0.4544  0.4967 -0.4541
  400MOL0     N53916   8.858   4.474   1.789 -0.8370 -0.6382  0.6080
  400MOL0     N53917   8.873   4.430   1.915  0.5250  0.0580 -0.0260
  400MOL0     C53918  10.010   3.858   2.066  0.7378  0.7976 -0.5479
  400MOL0     C53919  10.132   3.917   2.093  0.2050  0.2281 -0.0911
  400MOL0     C53920  10.524   4.127   2.059 -0.2900 -0.1811  0.0664
  400MOL0     C53921  10.542   4.254   2.111 -0.8916  0.5128  0.3598
  400MOL0     C53922  10.667   4.313   2.121  0.1963 -0.5762  0.9122
  400MOL0     C53923  10.779   4.239   2.084 -0.0063  0.1084  1.1532
  400MOL0     O53924  10.911   4.282   2.105  0.7972 -0.4272 -0.0845
  400MOL0     C53925  10.927   4.370   2.217  0.7429 -0.8659  0.2944
  400MOL0     C53926  11.069   4.414   2.231 -1.5303  0.6981  0.0280
  400MOL0     C53927  11.179   4.302   2.213 -0.1739  1.3330  0.0788
  400MOL0     C53928  11.314   4.337   2.276 -0.8530  0.0184 -0.3198
  400MOL0     C53929  11.362   4.473   2.244 -0.7290  0.5601  0.6554
  400MOL0     C53930  11.404   4.588   2.218 -0.0278 -0.2266 -0.1171
  400MOL0     C53931  10.760   4.106   2.036  0.6981 -0.7333  0.4713
  400MOL0     C53932  10.633   4.042   2.021 -0.5494 -1.0064 -0.1887
  400MOL0     H53933  10.080   4.220   1.976  1.9741 -0.3527  0.4937
  400MOL0     H53934   9.846   4.114   1.933 -1.2354 -2.1934 -0.6349
  400MOL0     H53935   9.647   3.995   2.020 -0.6599  0.0259 -0.0862
  400MOL0     H53936   9.679   3.968   1.847  1.3180 -1.6443 -1.1851
  400MOL0     H53937   9.560   3.724   1.917 -1.8335 -1.2682  0.7362
  400MOL0     H53938   9.515   3.812   2.062 -2.5487 -0.9748 -0.3969
  400MOL0     H53939   9.452   3.888   1.783 -0.0764 -1.8947  0.0461
  400MOL0     H53940   9.343   3.798   1.878  1.7605 -2.5285  0.7468
  400MOL0     H53941   9.433   4.082   2.000 -0.2707 -0.9465  0.3377
  400MOL0     H53942   9.329   4.067   1.859 -0.0078 -3.1554 -0.9682
  400MOL0     H53943   9.193   3.917   1.970  0.6323  0.6316 -2.1214
  400MOL0     H53944   9.286   3.921   2.119  0.7681 -0.8039 -0.6382
  400MOL0     H53945   9.087   4.074   2.150 -1.1076 -1.7316 -3.9413
  400MOL0     H53946   9.256   4.147   2.173  0.0173  0.1933  1.1480
  400MOL0     H53947   9.230   4.225   1.935  1.3539 -1.0140  2.1986
  400MOL0     H53948   9.083   4.127   1.919  0.8615 -1.1018 -1.0055
  400MOL0     H53949   9.138   4.382   2.082 -0.1610  2.9438 -4.3057
  400MOL0     H53950   8.992   4.296   2.117  0.5991 -2.6728 -0.5464
  400MOL0     H53951   9.194   4.449   1.816  0.6713  1.7304 -1.6662
  400MOL0     H53952   9.136   4.529   1.588  0.3048 -0.3770  0.4691
  400MOL0     H53953   8.969   4.493   1.543 -1.2701  1.1776  0.7785
  400MOL0     H53954   9.058   4.750   1.676  0.9797  2.2731 -1.6404
  400MOL0     H53955   8.892   4.698   1.617  0.0469 -1.3770 -0.1059
  400MOL0     H53956   8.991   4.850   1.460  0.0700 -0.4910  1.9343
  400MOL0     H53957   8.994   4.691   1.376 -2.6475 -1.7789  1.9019
  400MOL0     H53958   9.235   4.847   1.489  2.6904 -0.0211 -0.7596
  400MOL0     H53959   9.206   4.786   1.323 -2.4679 -3.4720 -0.9352
  400MOL0     H53960   9.372   4.441   1.386 -2.3722  1.7837 -0.6350
  400MOL0     H53961   9.526   4.300   1.319  1.7270 -1.8940  1.5885
  400MOL0     H53962   9.668   4.331   1.214 -2.4261 -4.2202 -1.0623
  400MOL0     H53963   9.687   4.335   1.393  1.1812  1.6913 -0.5738
  400MOL0     H53964  10.079   4.791   1.088 -0.2311 -1.2339 -1.2236
  400MOL0     H53965  10.319   4.766   1.115 -1.5374 -0.9776 -0.3908
  400MOL0     H53966  10.523   4.596   1.180  1.3623 -1.1402  0.4298
  400MOL0     H53967  10.533   4.767   1.197  1.6684  0.3173 -0.5899
  400MOL0     H53968  10.652   4.742   1.409 -0.7486 -0.5317  0.8763
  400MOL0     H53969  10.689   4.566   1.368 -1.2522 -1.4097 -1.3492
  400MOL0     H53970  10.774   4.810   1.227  0.3659 -1.1148 -2.7194
  400MOL0     H53971  10.786   4.645   1.165 -2.2521  3.2863 -1.8709
  400MOL0     H53972  10.872   4.719   1.460  0.0225  2.5343  0.1847
  400MOL0     H53973  10.932   4.589   1.352 -1.0191 -0.3425 -0.3765
  400MOL0     H53974  11.096   4.763   1.401  2.0925  0.8784 -1.4571
  400MOL0     H53975  10.999   4.877   1.306 -1.7570 -0.1317  1.8180
  400MOL0     H53976  11.117   4.625   1.181  0.1430  0.1622  0.5152
  400MOL0     H53977  11.036   4.754   1.104  0.0881  0.1664  0.0801
  400MOL0     H53978  11.228   4.906   1.208  1.0374  0.2725  2.0925
  400MOL0     H53979  11.262   4.792   1.091 -1.2499  0.6047  0.4908
  400MOL0     H53980  11.345   4.632   1.262  1.2865 -0.0086  2.5143
  400MOL0     H53981  11.296   4.760   1.387 -1.1745  1.4441 -0.3778
  400MOL0     H53982  10.255   4.653   1.535 -2.9142  2.0442  1.5644
  400MOL0     H53983  10.011   4.686   1.490  1.5518 -0.7491  1.1466
  400MOL0     H53984   9.672   4.826   1.334  0.4708  0.2756  2.9693
  400MOL0     H53985   9.452   4.850   1.406  2.8374  0.8030  1.9264
  400MOL0     H53986   9.986   3.753   2.079 -2.0595  1.3735 -0.3392
  400MOL0     H53987  10.204   3.866   2.157 -1.3270  0.2616  1.7460
  400MOL0     H53988  10.451   4.309   2.135 -0.6553  0.4408  1.4779
  400MOL0     H53989  10.682   4.419   2.143  1.2781 -0.6480  0.5832
  400MOL0     H53990  10.869   4.462   2.204 -0.2023 -0.8422  3.6559
  400MOL0     H53991  10.894   4.316   2.306  1.0017 -0.4874  0.6244
  400MOL0     H53992  11.084   4.481   2.317 -0.2437 -0.6897  0.9224
  400MOL0     H53993  11.089   4.487   2.152 -0.2873  1.7184  1.2191
  400MOL0     H53994  11.190   4.285   2.106  3.0546 -1.1642  0.6455
  400MOL0     H53995  11.142   4.212   2.263  2.0062 -1.7451 -3.3108
  400MOL0     H53996  11.382   4.265   2.230 -2.5314 -0.5543 -2.0405
  400MOL0     H53997  11.317   4.337   2.385 -1.8935 -1.3471 -0.2695
  400MOL0     H53998  11.430   4.678   2.167  0.2000 -0.2614 -0.0640
  400MOL0     H53999  10.855   4.058   2.015  2.6330  3.6830 -2.2866
  400MOL0     H54000  10.640   3.937   1.995  0.4713 -1.5067  1.9107
  401MOL0     O54001   3.270   5.097  10.883  0.5150  0.3978 -0.2433
  401MOL0     C54002   3.333   4.989  10.892 -0.1680 -0.8945  0.1659
  401MOL0     O54003   3.285   4.873  10.936 -0.8093  0.3674  0.4331
  401MOL0     C54004   3.153   4.884  10.975  0.4940  1.0242  0.8483
  401MOL0     C54005   3.122   4.937  11.100  0.2027 -0.2425  0.3941
  401MOL0     C54006   2.996   4.914  11.155  0.1419  0.4239  0.5606
  401MOL0     C54007   2.896   4.852  11.072 -0.8432 -0.0134 -1.0575
  401MOL0     O54008   2.767   4.865  11.119  0.2981  0.3093 -1.0078
  401MOL0     C54009   2.649   4.844  11.040 -0.3787 -0.2502  0.0362
  401MOL0     C54010   2.531   4.908  11.114  1.2177  0.1817  0.1953
  401MOL0     C54011   2.405   4.859  11.035 -0.8824  0.1415  0.3555
  401MOL0     C54012   2.286   4.935  11.101 -1.4369 -0.0527 -1.1456
  401MOL0     C54013   2.159   4.898  11.030 -0.2078 -0.1831 -0.2978
  401MOL0     C54014   2.052   5.000  11.041  0.4428 -0.0276  0.1248
  401MOL0     C54015   1.908   4.967  11.001 -1.0368  1.0108  0.2789
  401MOL0     C54016   1.840   5.098  10.992  0.1998  0.4632  0.4388
  401MOL0     N54017   1.700   5.094  10.956  0.2884  0.3934 -0.1540
  401MOL0     C54018   1.605   5.029  11.029 -0.1644  0.7011  0.1161
  401MOL0     C54019   1.485   5.059  10.977 -1.0044 -0.0224 -0.1176
  401MOL0     C54020   1.352   4.999  11.024 -0.6279 -0.4318  0.7155
  401MOL0     C54021   1.332   5.015  11.178  0.5244 -0.1193 -0.7575
  401MOL0     C54022   1.304   5.163  11.211 -0.3915 -0.7750  0.8313
  401MOL0     C54023   1.337   5.201  11.359 -0.0916 -0.8399 -0.0800
  401MOL0     O54024   1.297   5.095  11.444 -0.6987  0.0114  0.5872
  401MOL0     C54025   1.167   5.067  11.478  0.3215 -0.3831  0.3094
  401MOL0     C54026   1.153   4.949  11.545  0.6757 -0.0583 -0.1935
  401MOL0     C54027   1.021   4.900  11.576  0.2792 -0.6246 -0.1609
  401MOL0     C54028   1.007   4.766  11.635  0.1279  0.3167  0.0305
  401MOL0     C54029   0.903   4.983  11.571  0.3980 -0.4982 -0.2259
  401MOL0     C54030   0.764   4.935  11.589  0.0410 -0.5324 -0.6464
  401MOL0     O54031   0.678   5.039  11.634  0.6300  0.5450  0.6688
  401MOL0     C54032   0.553   4.990  11.653  0.4066 -0.3619 -0.1161
  401MOL0     C54033   0.474   4.966  11.541 -0.3366  0.0107 -0.6045
  401MOL0     C54034   0.348   4.920  11.555  0.0266  0.2086 -0.5468
  401MOL0     C54035   0.286   4.905  11.684 -0.6845 -0.8655  0.4875
  401MOL0     O54036   0.160   4.880  11.709 -0.2796  0.1883 -0.6123
  401MOL0     C54037   0.081   4.835  11.595 -0.0514 -0.4154 -0.0749
  401MOL0     C54038  -0.056   4.787  11.649  0.1265 -0.5682  1.3267
  401MOL0     C54039  -0.142   4.904  11.685 -0.3021 -0.1467 -0.4155
  401MOL0     C54040  -0.200   4.982  11.560  0.1735  0.1278 -0.2140
  401MOL0     C54041  -0.325   5.066  11.596  0.4754  0.0176 -1.2931
  401MOL0     C54042  -0.403   5.100  11.476 -0.8639 -0.5738  0.7598
  401MOL0     C54043  -0.323   5.220  11.411 -0.2632 -0.3825 -0.0654
  401MOL0     C54044  -0.376   5.236  11.271  0.0336  0.2056 -0.1982
  401MOL0    Cl54045  -0.548   5.204  11.218 -0.6315 -0.2216  0.0264
  401MOL0     C54046   0.364   4.928  11.790 -1.4537 -0.0696 -0.6681
  401MOL0     C54047   0.497   4.971  11.783  1.1969  1.1033 -0.8938
  401MOL0     O54048   0.733   4.816  11.587 -0.6217 -0.5639  0.0379
  401MOL0     C54049   0.926   5.111  11.516  0.2459  0.3136  0.3777
  401MOL0     C54050   1.053   5.152  11.466  0.2568  0.1783 -0.4981
  401MOL0     N54051   1.512   5.136  10.862 -0.5553  0.3921 -0.6072
  401MOL0     N54052   1.641   5.165  10.852 -0.4938  1.1757  0.1924
  401MOL0     C54053   2.935   4.805  10.946  0.0802  0.4189  0.1769
  401MOL0     C54054   3.067   4.819  10.904 -0.6190 -1.1616 -0.2225
  401MOL0     C54055   3.476   4.991  10.843  0.2398  1.5860  0.0952
  401MOL0     C54056   3.530   5.090  10.770  0.2700 -0.4824  0.4462
  401MOL0     C54057   3.661   5.088  10.738 -0.2336  0.2013 -0.2068
  401MOL0     C54058   3.748   4.978  10.764 -0.4633  1.0739 -0.3919
  401MOL0     O54059   3.876   4.976  10.716 -0.1639  0.3929 -0.8854
  401MOL0     C54060   3.943   4.849  10.686  0.0168  0.0908 -1.1487
  401MOL0     C54061   3.910   4.785  10.551  0.0417 -1.1859 -0.7529
  401MOL0     C54062   3.970   4.873  10.434  0.8961 -0.9723 -0.0337
  401MOL0     C54063   4.114   4.928  10.440 -0.2375  0.0595 -0.2471
  401MOL0     C54064   4.215   4.813  10.434  0.7159 -0.2183 -0.2492
  401MOL0     C54065   4.285   4.725  10.427 -0.0716  0.4225  0.6803
  401MOL0     C54066   3.687   4.865  10.828 -0.3774  1.0814 -0.3905
  401MOL0     C54067   3.555   4.874  10.878  0.9097 -0.9155 -0.2367
  401MOL0     H54068   3.200   4.968  11.169  0.3905  0.5851 -0.1835
  401MOL0     H54069   2.967   4.951  11.253 -2.8927  0.1241 -0.1213
  401MOL0     H54070   2.647   4.891  10.941  0.5685  1.7606  0.8962
  401MOL0     H54071   2.636   4.736  11.031  0.5396 -0.4120  0.5247
  401MOL0     H54072   2.532   4.870  11.217 -0.2316 -0.5317 -0.0244
  401MOL0     H54073   2.541   5.017  11.112 -0.5639  0.3921 -2.6915
  401MOL0     H54074   2.405   4.878  10.927  2.3573 -3.8947 -0.5724
  401MOL0     H54075   2.395   4.751  11.052  0.9710 -0.5369 -2.3157
  401MOL0     H54076   2.266   4.913  11.206  0.5424  1.4542 -0.3863
  401MOL0     H54077   2.310   5.040  11.085  2.9253 -0.5923  0.3763
  401MOL0     H54078   2.180   4.885  10.923  0.5854 -1.1402 -0.0387
  401MOL0     H54079   2.123   4.806  11.077 -0.9163 -1.5566 -3.2526
  401MOL0     H54080   2.047   5.017  11.149  1.7702  4.1710 -0.2783
  401MOL0     H54081   2.077   5.096  10.995  1.2223 -0.3548 -0.1559
  401MOL0     H54082   1.902   4.916  10.905  1.0682 -0.7146  0.9961
  401MOL0     H54083   1.870   4.912  11.088 -1.8896 -0.7647 -1.1527
  401MOL0     H54084   1.892   5.159  10.917 -2.9077  1.2585 -1.2431
  401MOL0     H54085   1.857   5.142  11.091  0.5326  2.3245 -0.4045
  401MOL0     H54086   1.607   4.968  11.119  1.6629  0.4220 -0.0885
  401MOL0     H54087   1.273   5.046  10.964  0.3075  0.3604  0.0850
  401MOL0     H54088   1.353   4.894  10.994 -1.3838 -1.0664  2.7188
  401MOL0     H54089   1.421   4.981  11.232 -0.4171 -1.2221  0.1483
  401MOL0     H54090   1.244   4.957  11.208 -0.8894  1.3908 -1.7876
  401MOL0     H54091   1.201   5.190  11.187  0.1652  0.5786 -0.1730
  401MOL0     H54092   1.359   5.231  11.146 -1.1879  0.5816  1.5422
  401MOL0     H54093   1.287   5.296  11.381  4.2647  1.6502  0.3123
  401MOL0     H54094   1.441   5.231  11.376 -1.2489  2.8787  1.3155
  401MOL0     H54095   1.243   4.894  11.567  0.9680  1.0041  1.5007
  401MOL0     H54096   1.105   4.724  11.660 -0.3499 -4.1387 -3.9788
  401MOL0     H54097   0.937   4.766  11.719  0.0514 -0.6057 -0.0175
  401MOL0     H54098   0.964   4.711  11.551  1.6772 -1.1278  0.1275
  401MOL0     H54099   0.508   4.973  11.438 -2.1359 -1.6134 -1.3599
  401MOL0     H54100   0.296   4.900  11.462 -0.0148  0.0987 -0.5002
  401MOL0     H54101   0.066   4.923  11.531  0.9406  1.3173  1.9236
  401MOL0     H54102   0.137   4.753  11.550 -1.8035 -2.3469  1.0928
  401MOL0     H54103  -0.112   4.727  11.577  0.4674  0.1537  0.4456
  401MOL0     H54104  -0.044   4.737  11.745 -1.5318 -0.5644  1.5689
  401MOL0     H54105  -0.084   4.971  11.749 -0.5985  1.1189 -1.4369
  401MOL0     H54106  -0.230   4.870  11.742  1.1855 -2.0125  0.8815
  401MOL0     H54107  -0.128   5.056  11.525  0.6622 -1.3056 -2.4576
  401MOL0     H54108  -0.223   4.911  11.480  0.3005 -0.0332 -0.1092
  401MOL0     H54109  -0.296   5.161  11.641  1.7979 -1.0451  0.2464
  401MOL0     H54110  -0.387   5.015  11.670  0.0971  1.9066 -0.2617
  401MOL0     H54111  -0.403   5.013  11.411 -1.8978  1.6305 -2.4342
  401MOL0     H54112  -0.501   5.139  11.505  0.3262  2.3382  1.2857
  401MOL0     H54113  -0.214   5.209  11.408 -0.3718 -1.5430 -0.2410
  401MOL0     H54114  -0.341   5.310  11.470 -0.2393  1.5114 -2.7395
  401MOL0     H54115  -0.326   5.161  11.209 -1.1704 -1.4603  0.7497
  401MOL0     H54116  -0.342   5.335  11.240 -0.2866 -0.1778 -1.8813
  401MOL0     H54117   0.323   4.918  11.890  2.2217 -0.5760  0.9660
  401MOL0     H54118   0.543   5.013  11.872  3.6029 -0.6515 -1.2260
  401MOL0     H54119   0.846   5.180  11.491 -0.1399 -0.7154 -1.3761
  401MOL0     H54120   1.065   5.251  11.423  0.9138 -0.2780 -1.3769
  401MOL0     H54121   2.874   4.751  10.874  2.1520 -0.5985 -0.9159
  401MOL0     H54122   3.103   4.765  10.816  2.1952  0.2914 -0.0692
  401MOL0     H54123   3.459   5.168  10.744  1.0402  0.2944  0.6215
  401MOL0     H54124   3.711   5.173  10.693  0.2768 -0.1189 -0.2530
  401MOL0     H54125   4.049   4.871  10.699  0.4693 -2.9831  2.1100
  401MOL0     H54126   3.934   4.771  10.762 -1.1654 -0.3579 -1.7207
  401MOL0     H54127   3.802   4.785  10.536 -0.2108  1.7467  0.5139
  401MOL0     H54128   3.948   4.682  10.551 -2.1915 -2.1844  2.5205
  401MOL0     H54129   3.912   4.965  10.425  1.2830 -0.9019 -4.7724
  401MOL0     H54130   3.955   4.816  10.341 -0.7102 -1.1516  0.3078
  401MOL0     H54131   4.134   4.994  10.525  0.0449 -0.3487  0.0096
  401MOL0     H54132   4.137   4.993  10.355 -1.9939  0.5734 -0.3631
  401MOL0     H54133   4.351   4.642  10.441  1.1053  1.0058 -1.1348
  401MOL0     H54134   3.747   4.777  10.850 -3.3825 -1.4791 -1.5383
  401MOL0     H54135   3.513   4.790  10.931 -2.3335  0.1933 -0.8638
  402MOL0     O54136   5.491   4.460  10.448 -0.5330 -0.3574  0.0751
  402MOL0     C54137   5.492   4.505  10.332 -0.5705  0.2313 -0.2445
  402MOL0     O54138   5.379   4.528  10.261  0.0733  0.4724  0.3877
  402MOL0     C54139   5.250   4.523  10.318 -0.2011 -0.6346 -0.0733
  402MOL0     C54140   5.172   4.636  10.307 -0.1437  0.1142  0.3503
  402MOL0     C54141   5.037   4.628  10.339 -0.2714 -0.3324 -0.0628
  402MOL0     C54142   4.979   4.510  10.373 -0.0075  0.6446 -0.3410
  402MOL0     O54143   4.843   4.503  10.406  0.6256 -0.4037 -0.6962
  402MOL0     C54144   4.768   4.427  10.307 -0.4100  0.5293  0.5761
  402MOL0     C54145   4.739   4.279  10.340 -0.7690  0.5533  0.0328
  402MOL0     C54146   4.616   4.228  10.260  0.2035  0.1271 -0.9027
  402MOL0     C54147   4.616   4.073  10.263  0.4189  0.2653  0.6566
  402MOL0     C54148   4.491   3.993  10.209 -0.5680 -0.4246  0.0752
  402MOL0     C54149   4.358   4.019  10.286 -1.3164 -0.1514 -0.9918
  402MOL0     C54150   4.248   3.956  10.205  0.3239  0.1138 -0.1228
  402MOL0     C54151   4.105   3.993  10.254  0.3903 -0.3031 -0.2150
  402MOL0     N54152   3.992   3.924  10.188 -0.7010  0.1843  1.1108
  402MOL0     C54153   3.854   3.931  10.224 -0.4635 -0.3325  0.2603
  402MOL0     C54154   3.809   3.809  10.178 -1.0788 -0.0549  0.8334
  402MOL0     C54155   3.690   3.744  10.233 -0.5482  0.0554  0.3764
  402MOL0     C54156   3.560   3.818  10.192  0.1538 -0.1347  0.7047
  402MOL0     C54157   3.507   3.823  10.045 -0.9332  0.6556  0.8318
  402MOL0     C54158   3.365   3.880  10.026 -0.3245  1.1252 -0.2743
  402MOL0     O54159   3.367   4.019  10.072  0.1490  0.7877 -0.3199
  402MOL0     C54160   3.246   4.090  10.076  0.2580 -0.2805  0.3770
  402MOL0     C54161   3.111   4.041  10.065  0.0427 -0.3785  0.8070
  402MOL0     C54162   2.997   4.119  10.071  0.1496  0.9376 -0.7401
  402MOL0     C54163   2.856   4.049  10.045  0.0723 -0.2538  0.6771
  402MOL0     C54164   3.011   4.252  10.103 -0.3326 -0.0778  0.0755
  402MOL0     C54165   2.898   4.354  10.102  0.2549  0.3034  0.4950
  402MOL0     O54166   2.914   4.457  10.188 -0.2546  0.5480  0.2304
  402MOL0     C54167   2.803   4.540  10.209 -0.3660  0.0674  1.2234
  402MOL0     C54168   2.683   4.481  10.250  0.0454  0.0511 -0.1036
  402MOL0     C54169   2.564   4.566  10.262 -0.1320 -0.0004  0.4013
  402MOL0     C54170   2.576   4.713  10.245 -0.5554 -0.6098  0.1481
  402MOL0     O54171   2.465   4.784  10.253  0.1904 -0.2615 -0.7678
  402MOL0     C54172   2.477   4.918  10.212 -0.2733 -0.1171 -0.4018
  402MOL0     C54173   2.336   4.988  10.209  0.0268  0.6152  0.3119
  402MOL0     C54174   2.324   5.126  10.153 -1.0057 -0.4039  0.5664
  402MOL0     C54175   2.173   5.171  10.151 -0.4662  0.3507 -0.3706
  402MOL0     C54176   2.161   5.307  10.088  0.7284  0.3080 -0.9103
  402MOL0     C54177   2.009   5.337  10.074  0.9585 -0.0497  1.0094
  402MOL0     C54178   1.996   5.481  10.032  0.8390  0.7489 -1.0058
  402MOL0     C54179   1.863   5.555  10.040 -1.4814 -0.0903 -0.1571
  402MOL0    Cl54180   1.895   5.733  10.064 -0.3760 -0.0162  0.4139
  402MOL0     C54181   2.710   4.765  10.217  0.3192  0.4815 -0.2416
  402MOL0     C54182   2.816   4.677  10.190 -0.1228 -1.2744 -0.3011
  402MOL0     O54183   2.806   4.333  10.024  0.2003 -0.0231 -0.1638
  402MOL0     C54184   3.138   4.299  10.115 -0.5782 -0.4457 -1.5605
  402MOL0     C54185   3.258   4.233  10.102  0.1737 -0.4210 -0.7157
  402MOL0     N54186   3.910   3.741  10.114 -0.7789  0.3842  0.0158
  402MOL0     N54187   4.020   3.807  10.128 -0.4592  0.1510 -0.1108
  402MOL0     C54188   5.055   4.395  10.378  0.0528 -0.3965  0.6219
  402MOL0     C54189   5.191   4.398  10.353 -0.4383 -0.5117  0.2964
  402MOL0     C54190   5.617   4.514  10.258 -0.0819  0.3298  0.5466
  402MOL0     C54191   5.737   4.462  10.304 -1.3351 -0.5403  0.1821
  402MOL0     C54192   5.852   4.470  10.226 -0.2132 -0.4259  0.6991
  402MOL0     C54193   5.849   4.521  10.096 -0.3183  0.0626  0.1391
  402MOL0     O54194   5.970   4.522  10.038 -0.0255  0.3566 -0.1436
  402MOL0     C54195   5.997   4.641   9.963  0.9029  0.6282  0.8418
  402MOL0     C54196   6.147   4.645   9.932 -0.3961 -0.0675  0.2169
  402MOL0     C54197   6.235   4.655  10.062  0.4307 -0.3109 -0.0636
  402MOL0     C54198   6.383   4.629  10.028 -0.0006 -0.3107 -0.0994
  402MOL0     C54199   6.410   4.497   9.977  0.2210  0.4950 -1.4478
  402MOL0     C54200   6.447   4.398   9.919 -0.6281 -0.9581 -0.5234
  402MOL0     C54201   5.728   4.570  10.049  0.8279 -0.0801  0.5453
  402MOL0     C54202   5.614   4.571  10.134  0.1409 -1.4002  0.6033
  402MOL0     H54203   5.224   4.731  10.298 -1.9054  1.3004  1.9094
  402MOL0     H54204   4.986   4.724  10.349  2.0974  0.8893  0.9757
  402MOL0     H54205   4.678   4.489  10.310  1.2301  3.0476  2.3829
  402MOL0     H54206   4.811   4.431  10.207 -0.3514 -6.0612 -0.0799
  402MOL0     H54207   4.827   4.215  10.329 -2.4403 -2.1850  1.3532
  402MOL0     H54208   4.710   4.278  10.446 -0.0471 -3.1306  0.3216
  402MOL0     H54209   4.534   4.277  10.313  0.8402 -0.9107  1.1126
  402MOL0     H54210   4.612   4.260  10.155  0.9454  1.5479 -0.5117
  402MOL0     H54211   4.704   4.042  10.207 -0.8736 -1.0929 -0.6941
  402MOL0     H54212   4.636   4.049  10.368 -2.2861  1.6513  1.5961
  402MOL0     H54213   4.478   4.036  10.109  1.9216  1.7209  0.5858
  402MOL0     H54214   4.519   3.890  10.185 -2.2822 -0.2362 -3.3496
  402MOL0     H54215   4.363   3.967  10.382 -1.7721  0.7658 -0.4583
  402MOL0     H54216   4.345   4.127  10.294  2.4557  0.3848 -0.0856
  402MOL0     H54217   4.245   3.994  10.103  0.0222 -0.9218 -0.5114
  402MOL0     H54218   4.269   3.849  10.201  3.8395  0.7414 -1.6854
  402MOL0     H54219   4.083   4.100  10.248 -0.7840 -0.5138  0.2264
  402MOL0     H54220   4.106   3.975  10.362 -0.2971  0.6207 -0.0477
  402MOL0     H54221   3.798   3.989  10.297  3.1265  2.0211  1.4150
  402MOL0     H54222   3.687   3.642  10.195 -0.6668 -0.2271  1.1298
  402MOL0     H54223   3.697   3.746  10.342  0.3023  1.2593  0.3171
  402MOL0     H54224   3.569   3.922  10.226  1.4416 -0.0964  0.2835
  402MOL0     H54225   3.479   3.783  10.257 -1.0178  0.8302 -0.1642
  402MOL0     H54226   3.516   3.723  10.002 -3.5972  0.5171  0.4034
  402MOL0     H54227   3.579   3.882   9.989 -2.1589  3.3317  1.8762
  402MOL0     H54228   3.292   3.812  10.071 -2.3407  1.5559 -2.6744
  402MOL0     H54229   3.329   3.885   9.923 -0.3683 -0.6575 -0.3799
  402MOL0     H54230   3.086   3.939  10.036 -0.2983 -0.7092  2.1682
  402MOL0     H54231   2.822   4.104   9.957 -2.7846 -0.7752  1.3806
  402MOL0     H54232   2.875   3.948  10.010  2.6515  0.4623 -0.2694
  402MOL0     H54233   2.794   4.047  10.135 -0.7931 -2.1758  0.0738
  402MOL0     H54234   2.693   4.373  10.261  3.3198  0.4666  3.2016
  402MOL0     H54235   2.473   4.511  10.284 -0.1185 -0.2841 -0.2184
  402MOL0     H54236   2.532   4.971  10.291  0.5032  0.9366 -1.6079
  402MOL0     H54237   2.523   4.927  10.113 -1.6899 -3.7269 -1.5247
  402MOL0     H54238   2.282   4.923  10.140  0.4260  0.5328  0.0727
  402MOL0     H54239   2.284   4.971  10.303  1.5083 -1.1538  0.8507
  402MOL0     H54240   2.356   5.122  10.049  1.8111  1.1132  1.2782
  402MOL0     H54241   2.376   5.204  10.210 -0.3538  1.4410 -2.3459
  402MOL0     H54242   2.118   5.097  10.092 -1.6816  0.3665  0.7055
  402MOL0     H54243   2.131   5.164  10.252  4.0788  1.7475  1.8931
  402MOL0     H54244   2.209   5.313   9.989  0.3204  2.8092 -1.0064
  402MOL0     H54245   2.204   5.385  10.151  1.3755 -1.5968  1.1447
  402MOL0     H54246   1.971   5.276   9.992 -1.7161  1.8146  0.7326
  402MOL0     H54247   1.952   5.322  10.167 -2.3280 -0.6247 -0.9500
  402MOL0     H54248   2.026   5.479   9.926 -0.0217 -1.9296 -1.2684
  402MOL0     H54249   2.074   5.540  10.082  1.5307  0.8749 -2.1902
  402MOL0     H54250   1.804   5.514  10.122  0.4914 -4.4031 -0.6081
  402MOL0     H54251   1.808   5.541   9.946 -1.3166 -0.4293 -0.2057
  402MOL0     H54252   2.725   4.870  10.195 -1.5554  0.9091  0.3731
  402MOL0     H54253   2.905   4.721  10.147 -0.3515 -0.6795 -0.1690
  402MOL0     H54254   3.146   4.406  10.134  1.4011 -0.6298 -1.1760
  402MOL0     H54255   3.354   4.281  10.120 -0.8419  1.0150  1.2992
  402MOL0     H54256   5.011   4.297  10.389 -0.1232 -0.4018 -0.0549
  402MOL0     H54257   5.248   4.306  10.347 -1.8428 -1.4122  0.4228
  402MOL0     H54258   5.744   4.435  10.408 -1.4774  0.2199  0.3978
  402MOL0     H54259   5.955   4.457  10.258  0.9153  0.1756 -2.3426
  402MOL0     H54260   5.945   4.637   9.867  0.3821 -1.2344  1.1490
  402MOL0     H54261   5.966   4.736  10.006  0.8608  1.0933 -0.1838
  402MOL0     H54262   6.163   4.711   9.846  1.0545 -0.5685  0.0740
  402MOL0     H54263   6.174   4.550   9.886  0.2880  0.0182  0.4286
  402MOL0     H54264   6.198   4.574  10.124 -2.1415 -1.9575 -3.4079
  402MOL0     H54265   6.232   4.755  10.105  0.2767  0.5147 -1.8933
  402MOL0     H54266   6.452   4.646  10.111  0.0202  0.6758 -0.3064
  402MOL0     H54267   6.416   4.697   9.949  0.4197 -1.3724 -0.8740
  402MOL0     H54268   6.474   4.310   9.864 -2.5003 -2.5390  0.9535
  402MOL0     H54269   5.704   4.613   9.952 -0.3288 -0.6507  0.5589
  402MOL0     H54270   5.522   4.607  10.090  1.1545  0.1582 -0.3464
  403MOL0     O54271   1.534   9.314   9.909  0.0371 -0.0541 -0.2133
  403MOL0     C54272   1.622   9.391   9.879  0.4183 -0.0688 -0.1510
  403MOL0     O54273   1.606   9.489   9.791  0.5584  0.7518  0.2617
  403MOL0     C54274   1.482   9.525   9.737 -0.5188 -0.1400 -0.9927
  403MOL0     C54275   1.475   9.598   9.617 -1.2159 -0.1033 -0.5051
  403MOL0     C54276   1.355   9.653   9.571  0.1155 -0.8673 -0.0698
  403MOL0     C54277   1.237   9.643   9.648  0.0207 -0.9282  0.0761
  403MOL0     O54278   1.114   9.699   9.615  0.3198  0.6502 -0.6126
  403MOL0     C54279   1.112   9.824   9.550  0.0544 -0.0638  0.3528
  403MOL0     C54280   0.968   9.871   9.537 -0.0253  0.0182  0.6692
  403MOL0     C54281   0.880   9.797   9.425 -1.0862 -0.6413 -0.1252
  403MOL0     C54282   0.742   9.861   9.429 -1.0016 -0.6908  0.3079
  403MOL0     C54283   0.746   9.999   9.352  0.1615  0.2914  0.0374
  403MOL0     C54284   0.607  10.061   9.369 -0.4125 -0.3496  0.3081
  403MOL0     C54285   0.615  10.194   9.295  0.7031 -0.6592  0.4986
  403MOL0     C54286   0.483  10.274   9.304  0.0358 -0.9557  0.1768
  403MOL0     N54287   0.476  10.348   9.171 -0.4981  0.7844  0.2350
  403MOL0     C54288   0.391  10.314   9.074 -0.7978  0.7636  0.2811
  403MOL0     C54289   0.445  10.376   8.958  1.2025 -0.1907 -0.2213
  403MOL0     C54290   0.356  10.377   8.827  0.2950 -0.4061  0.4304
  403MOL0     C54291   0.255  10.492   8.837  0.0553 -0.1210  0.5395
  403MOL0     C54292   0.129  10.448   8.920  0.2650  0.2370  0.1821
  403MOL0     C54293   0.032  10.569   8.936 -0.0961 -0.6520  0.0345
  403MOL0     O54294  -0.042  10.550   8.806 -0.0775 -0.1584 -0.2123
  403MOL0     C54295  -0.143  10.632   8.778 -0.0655  0.3996  0.1831
  403MOL0     C54296  -0.156  10.761   8.832  0.0724  0.5274  1.2978
  403MOL0     C54297  -0.260  10.854   8.795  0.1348  0.0752 -0.3345
  403MOL0     C54298  -0.252  10.991   8.865  0.2085  0.9363 -0.2955
  403MOL0     C54299  -0.359  10.810   8.700 -0.2883 -0.6138  0.0918
  403MOL0     C54300  -0.474  10.895   8.664  0.4459 -0.3167  0.0759
  403MOL0     O54301  -0.568  10.825   8.594 -0.3294 -0.3394  0.0607
  403MOL0     C54302  -0.682  10.897   8.551  0.6833 -0.9408 -0.6362
  403MOL0     C54303  -0.811  10.869   8.577  0.3000  0.0762  0.0552
  403MOL0     C54304  -0.913  10.944   8.514  0.8459 -0.1291  0.8077
  403MOL0     C54305  -0.890  11.042   8.416 -0.3268  0.0704 -0.5413
  403MOL0     O54306  -0.988  11.104   8.352  0.0737  0.5221 -0.4252
  403MOL0     C54307  -0.988  11.094   8.206 -0.4679  0.6308  0.1475
  403MOL0     C54308  -1.114  11.028   8.154  0.6279  0.2865  0.3115
  403MOL0     C54309  -1.120  10.878   8.184  0.2537 -0.1571  0.7746
  403MOL0     C54310  -1.251  10.810   8.124  0.4456  0.0886  0.2470
  403MOL0     C54311  -1.382  10.861   8.194 -1.3195 -0.1281  0.3463
  403MOL0     C54312  -1.410  10.811   8.339  0.1208 -0.1986  0.2854
  403MOL0     C54313  -1.546  10.873   8.385  0.1113  0.0017 -0.2171
  403MOL0     C54314  -1.666  10.798   8.313 -1.0935 -0.0122 -0.0328
  403MOL0    Cl54315  -1.800  10.786   8.432 -0.3160  0.0460 -0.6201
  403MOL0     C54316  -0.758  11.061   8.390 -0.8918 -1.0961  0.1915
  403MOL0     C54317  -0.653  11.001   8.461 -0.2848  0.2113  0.4124
  403MOL0     O54318  -0.480  11.013   8.696  0.2641  0.8198 -0.1604
  403MOL0     C54319  -0.353  10.675   8.655 -1.1404 -0.1185 -0.9466
  403MOL0     C54320  -0.242  10.586   8.684  0.6924  0.2065 -0.3431
  403MOL0     N54321   0.553  10.451   8.986  0.0733  0.3316  0.3298
  403MOL0     N54322   0.571  10.431   9.114 -0.8044  0.0476  1.1672
  403MOL0     C54323   1.242   9.577   9.765 -0.7995  0.5980  0.0958
  403MOL0     C54324   1.364   9.524   9.815  0.6193 -0.1169  0.0701
  403MOL0     C54325   1.754   9.365   9.944 -0.1648  0.5231  1.1803
  403MOL0     C54326   1.856   9.459   9.918 -0.0334 -0.7055 -0.0628
  403MOL0     C54327   1.985   9.436   9.963 -0.0042  0.0592  0.4802
  403MOL0     C54328   2.010   9.320  10.034 -0.1842 -0.3593  0.3256
  403MOL0     O54329   2.141   9.306  10.075  0.6151 -1.1708  0.0811
  403MOL0     C54330   2.173   9.270  10.208  0.0327  0.2284  0.3329
  403MOL0     C54331   2.308   9.183  10.184  0.9439 -0.2789  1.0061
  403MOL0     C54332   2.322   9.087  10.301 -0.9860 -1.5163 -0.2998
  403MOL0     C54333   2.470   9.031  10.329 -0.1246 -0.9054 -0.2879
  403MOL0     C54334   2.531   8.963  10.213  0.1715 -0.5135 -0.1633
  403MOL0     C54335   2.579   8.915  10.111 -0.4884 -0.5573  0.0687
  403MOL0     C54336   1.914   9.223  10.049  0.1166 -0.1201  0.0614
  403MOL0     C54337   1.781   9.248  10.017  0.0240  0.1393  0.5512
  403MOL0     H54338   1.569   9.608   9.564  0.2545 -3.9884  1.0049
  403MOL0     H54339   1.364   9.709   9.478  2.2968  1.8699  1.6176
  403MOL0     H54340   1.168   9.896   9.610 -0.5552  2.1051 -1.5455
  403MOL0     H54341   1.152   9.822   9.448  0.0047 -0.9469  0.3388
  403MOL0     H54342   0.915   9.849   9.631 -1.0725  0.7009  0.2551
  403MOL0     H54343   0.964   9.979   9.520 -2.0406  0.2444  2.1234
  403MOL0     H54344   0.924   9.813   9.326 -0.2619 -1.6448  0.0645
  403MOL0     H54345   0.875   9.689   9.442 -3.3316 -0.3893  1.1808
  403MOL0     H54346   0.679   9.791   9.372 -0.4358 -1.2978  0.4156
  403MOL0     H54347   0.701   9.871   9.530 -1.7204  0.8060 -0.1152
  403MOL0     H54348   0.817  10.071   9.395  0.2397  0.1827  0.0941
  403MOL0     H54349   0.770   9.979   9.247  0.1350 -0.9114  0.2454
  403MOL0     H54350   0.531   9.995   9.326 -2.0672  2.6980 -1.8521
  403MOL0     H54351   0.574  10.077   9.472 -2.1344 -1.0985 -0.0907
  403MOL0     H54352   0.686  10.264   9.339  0.4739  0.1791 -0.4170
  403MOL0     H54353   0.632  10.163   9.192 -2.4420 -3.8652  0.7475
  403MOL0     H54354   0.487  10.347   9.386 -0.2428  0.3952 -0.9705
  403MOL0     H54355   0.392  10.213   9.311 -2.8979  2.0299 -5.1488
  403MOL0     H54356   0.298  10.258   9.082  0.6985 -1.6310  2.2297
  403MOL0     H54357   0.423  10.400   8.744 -0.9720 -1.1941 -0.8366
  403MOL0     H54358   0.299  10.286   8.810 -1.7899  0.9125  0.0290
  403MOL0     H54359   0.220  10.517   8.736 -1.0581 -1.6468  0.5111
  403MOL0     H54360   0.298  10.581   8.884  0.0868 -0.2796  0.8105
  403MOL0     H54361   0.163  10.431   9.023 -0.7538 -1.8703  0.2440
  403MOL0     H54362   0.076  10.358   8.888  0.6069 -0.2091  0.8400
  403MOL0     H54363   0.088  10.663   8.933 -0.7370 -0.2762 -0.3928
  403MOL0     H54364  -0.032  10.557   9.024  2.1977 -1.6704  1.6549
  403MOL0     H54365  -0.080  10.796   8.901  0.3359  1.0952  0.7235
  403MOL0     H54366  -0.238  11.072   8.793 -0.9681  2.0511  0.6870
  403MOL0     H54367  -0.348  11.010   8.913  1.0100  0.1915  1.7012
  403MOL0     H54368  -0.186  10.998   8.952 -0.0849 -0.2355  0.0403
  403MOL0     H54369  -0.848  10.802   8.654 -1.3739 -0.7768 -1.4254
  403MOL0     H54370  -1.011  10.911   8.548 -0.0392  1.1415 -0.4096
  403MOL0     H54371  -0.970  11.193   8.164  3.6257  0.4257  0.9782
  403MOL0     H54372  -0.906  11.029   8.172 -2.7651 -1.6737 -1.3375
  403MOL0     H54373  -1.205  11.070   8.198 -0.9616 -2.1133 -0.4863
  403MOL0     H54374  -1.128  11.039   8.046 -1.7720 -1.0018  0.4191
  403MOL0     H54375  -1.129  10.861   8.292  0.7641 -0.0894  0.8260
  403MOL0     H54376  -1.040  10.821   8.136 -1.7291 -0.0035 -3.0774
  403MOL0     H54377  -1.257  10.811   8.015 -1.5726  1.1937  0.3257
  403MOL0     H54378  -1.248  10.704   8.151 -1.3321 -0.3315 -1.0564
  403MOL0     H54379  -1.469  10.818   8.144 -2.4830 -1.5401  3.3033
  403MOL0     H54380  -1.385  10.970   8.181  1.7948  0.1286  0.9470
  403MOL0     H54381  -1.412  10.704   8.359  4.2855 -0.2710  1.1419
  403MOL0     H54382  -1.332  10.850   8.405  0.5340  0.8665 -0.7966
  403MOL0     H54383  -1.551  10.981   8.369  0.2603 -0.3835 -3.4125
  403MOL0     H54384  -1.562  10.846   8.490  1.6969  0.9103  0.2911
  403MOL0     H54385  -1.618  10.703   8.291  1.5821  1.2627 -0.1677
  403MOL0     H54386  -1.692  10.847   8.219 -0.8676 -0.5019 -0.3521
  403MOL0     H54387  -0.721  11.139   8.325 -2.0888  3.4545  4.3369
  403MOL0     H54388  -0.552  11.016   8.425 -1.4041 -0.3678 -3.5750
  403MOL0     H54389  -0.424  10.638   8.581  0.0979 -1.6541 -1.4237
  403MOL0     H54390  -0.243  10.492   8.631  0.7066 -0.7602  1.2993
  403MOL0     H54391   1.154   9.561   9.826  0.0313  2.0930  1.7831
  403MOL0     H54392   1.356   9.487   9.916 -2.2812  0.9924  0.3268
  403MOL0     H54393   1.837   9.554   9.870 -0.5856 -0.7583  0.0416
  403MOL0     H54394   2.055   9.517   9.944  1.1720 -1.0251  0.0206
  403MOL0     H54395   2.189   9.357  10.273 -0.9747  2.1668 -1.8582
  403MOL0     H54396   2.099   9.201  10.248 -0.9989  2.1747  2.0128
  403MOL0     H54397   2.407   9.231  10.186  2.9344 -3.9833  1.8018
  403MOL0     H54398   2.301   9.127  10.090  1.5414  0.8744  0.2516
  403MOL0     H54399   2.246   9.009  10.302 -0.2747 -2.2258 -0.6760
  403MOL0     H54400   2.298   9.154  10.384  0.8277 -0.7884 -0.3197
  403MOL0     H54401   2.463   8.957  10.410  1.7683 -0.6113  0.2045
  403MOL0     H54402   2.536   9.113  10.359 -1.4824  0.5690 -1.1740
  403MOL0     H54403   2.637   8.893  10.024  1.1776  2.3442  0.3105
  403MOL0     H54404   1.945   9.134  10.103  2.1325 -0.5003 -1.6195
  403MOL0     H54405   1.702   9.175  10.029 -0.5860  0.5566 -0.8305
  404MOL0     O54406   3.489  10.611   1.692 -0.4522 -0.2146  0.4182
  404MOL0     C54407   3.480  10.610   1.817 -0.0173  0.5979  0.7877
  404MOL0     O54408   3.587  10.574   1.902 -1.1163  0.0623 -0.2238
  404MOL0     C54409   3.703  10.522   1.845  0.2757  0.2265  0.1243
  404MOL0     C54410   3.702  10.388   1.796  0.8211  0.0426 -0.3688
  404MOL0     C54411   3.816  10.323   1.752  0.4180 -0.5633  0.4530
  404MOL0     C54412   3.936  10.394   1.739  0.7802 -0.3220  0.1990
  404MOL0     O54413   4.058  10.330   1.699 -0.0438  0.5530 -0.1410
  404MOL0     C54414   4.119  10.261   1.813  0.0689  0.1213  1.2593
  404MOL0     C54415   4.233  10.171   1.771  0.3101 -0.1314  0.2444
  404MOL0     C54416   4.355  10.237   1.703  0.6273  0.1571  0.2615
  404MOL0     C54417   4.474  10.149   1.683  0.0487  0.6901 -0.4313
  404MOL0     C54418   4.586  10.227   1.617 -0.0012 -0.3790 -0.4397
  404MOL0     C54419   4.699  10.138   1.557  0.1428  0.6602 -0.0307
  404MOL0     C54420   4.759  10.034   1.651 -0.4295 -0.7863 -0.5992
  404MOL0     C54421   4.869   9.945   1.600 -0.0951  0.1058  0.5809
  404MOL0     N54422   4.947   9.877   1.700  0.3241  0.2748  0.6063
  404MOL0     C54423   5.047   9.935   1.776  0.5942 -0.2170  0.0099
  404MOL0     C54424   5.097   9.829   1.853  0.7359  0.0356  0.4415
  404MOL0     C54425   5.221   9.827   1.937  0.5239 -0.7357 -0.3244
  404MOL0     C54426   5.214   9.933   2.049 -0.8961 -0.8220 -0.8960
  404MOL0     C54427   5.102   9.914   2.149  0.2589 -0.3142  1.0573
  404MOL0     C54428   5.068  10.038   2.230 -0.7346 -0.0711  0.3495
  404MOL0     O54429   4.987  10.128   2.142 -0.4669 -0.1446 -0.0445
  404MOL0     C54430   4.941  10.254   2.170  0.2843  0.7398  0.2442
  404MOL0     C54431   4.954  10.323   2.299  0.3976  0.3704 -0.7067
  404MOL0     C54432   4.905  10.453   2.327 -0.1556  0.5967 -0.0351
  404MOL0     C54433   4.913  10.498   2.472 -0.2057 -0.5498 -1.0993
  404MOL0     C54434   4.842  10.523   2.223 -0.0668  0.4059 -0.2551
  404MOL0     C54435   4.793  10.658   2.239 -0.4585 -0.1027 -0.4141
  404MOL0     O54436   4.708  10.705   2.149 -1.0338 -0.0383  0.2034
  404MOL0     C54437   4.669  10.834   2.157 -0.5631 -0.4838  0.0629
  404MOL0     C54438   4.764  10.933   2.126  0.7035  0.3175 -0.0651
  404MOL0     C54439   4.731  11.067   2.141  0.5128  0.7895  0.4128
  404MOL0     C54440   4.612  11.110   2.194  0.7750  0.5379 -0.1658
  404MOL0     O54441   4.569  11.242   2.194 -0.1058 -0.3134 -0.5288
  404MOL0     C54442   4.627  11.316   2.290 -0.9137  0.2876 -0.0522
  404MOL0     C54443   4.528  11.400   2.370  0.9079  0.4511  0.2174
  404MOL0     C54444   4.425  11.307   2.440  0.6826 -0.3490  0.3641
  404MOL0     C54445   4.304  11.391   2.492  0.5144  0.5508 -0.4025
  404MOL0     C54446   4.218  11.318   2.597 -0.9139 -0.1871  1.2361
  404MOL0     C54447   4.078  11.377   2.590  0.4197 -0.2868  0.6487
  404MOL0     C54448   3.982  11.307   2.692 -0.4418 -0.2844 -0.2772
  404MOL0     C54449   3.843  11.362   2.694  0.4977 -0.2606  0.2556
  404MOL0    Cl54450   3.836  11.544   2.724 -0.0699 -0.0891  0.3296
  404MOL0     C54451   4.512  11.009   2.208 -0.0666 -0.2003 -0.4720
  404MOL0     C54452   4.536  10.872   2.192 -0.2960 -0.5426 -0.8821
  404MOL0     O54453   4.844  10.733   2.323 -0.0722  0.2376  0.4503
  404MOL0     C54454   4.829  10.452   2.096  0.0500 -0.7887  0.3111
  404MOL0     C54455   4.871  10.323   2.075 -0.1921 -0.0408  0.2761
  404MOL0     N54456   5.023   9.718   1.820 -0.3932  0.0667 -0.5874
  404MOL0     N54457   4.945   9.745   1.728 -0.2381  1.1012  0.2815
  404MOL0     C54458   3.929  10.522   1.784  0.8025  0.1357 -0.3905
  404MOL0     C54459   3.819  10.593   1.836  0.2694  0.4415  0.0404
  404MOL0     C54460   3.351  10.642   1.885 -0.6377  0.6205 -0.7677
  404MOL0     C54461   3.337  10.630   2.023  0.4659 -0.4724 -0.3804
  404MOL0     C54462   3.215  10.663   2.080  0.4842 -0.3410  0.2750
  404MOL0     C54463   3.108  10.721   2.013  0.2940  0.1447  0.4698
  404MOL0     O54464   2.994  10.773   2.067 -0.1266 -0.2774  0.1639
  404MOL0     C54465   3.000  10.836   2.196 -1.4123  1.1296  0.0543
  404MOL0     C54466   2.854  10.849   2.248 -0.2460  0.2033  0.1275
  404MOL0     C54467   2.747  10.885   2.134 -0.0790  0.8853 -0.4373
  404MOL0     C54468   2.759  11.030   2.085 -0.2169  0.1097  0.3781
  404MOL0     C54469   2.637  11.075   2.012 -0.2764 -0.2347  0.2552
  404MOL0     C54470   2.559  11.136   1.946  1.0661  0.0250  0.2540
  404MOL0     C54471   3.123  10.730   1.875 -1.5726 -0.3152  0.0906
  404MOL0     C54472   3.245  10.688   1.816  0.3004 -0.2472 -0.2306
  404MOL0     H54473   3.610  10.334   1.809  2.3066 -2.6867 -0.5041
  404MOL0     H54474   3.810  10.221   1.715 -3.8631 -0.3353 -0.0168
  404MOL0     H54475   4.171  10.330   1.881  2.9237  0.8217 -1.3869
  404MOL0     H54476   4.035  10.211   1.862 -0.5715  0.9754  1.0704
  404MOL0     H54477   4.261  10.118   1.862 -0.4601  0.6700  0.9663
  404MOL0     H54478   4.184  10.105   1.698  0.6970  0.9378 -1.0223
  404MOL0     H54479   4.325  10.265   1.602  1.6483 -1.8234 -0.6664
  404MOL0     H54480   4.382  10.324   1.764  0.9569 -0.2711  0.7467
  404MOL0     H54481   4.511  10.116   1.781  0.3108  1.6976 -0.1732
  404MOL0     H54482   4.437  10.063   1.626 -2.0853  1.2174  0.0672
  404MOL0     H54483   4.547  10.299   1.544 -1.7418 -0.3054  0.5196
  404MOL0     H54484   4.621  10.292   1.698 -3.5810 -0.5762  1.4650
  404MOL0     H54485   4.659  10.089   1.468  0.5115 -1.1710  0.7458
  404MOL0     H54486   4.776  10.214   1.542 -0.7844  1.6700  0.2336
  404MOL0     H54487   4.794  10.088   1.740  1.2082  0.0367 -1.6838
  404MOL0     H54488   4.675   9.970   1.680 -1.2313  0.8448  0.8327
  404MOL0     H54489   4.922  10.003   1.523 -1.6556  1.9915  0.8462
  404MOL0     H54490   4.818   9.867   1.543  1.0116 -0.7441  0.6936
  404MOL0     H54491   5.076  10.040   1.773 -1.5787  0.4200 -0.3217
  404MOL0     H54492   5.239   9.729   1.983 -2.9596 -0.2100  2.6429
  404MOL0     H54493   5.305   9.846   1.870  1.2704 -2.3044  0.1141
  404MOL0     H54494   5.215  10.036   2.013  0.4345 -0.6707 -0.4819
  404MOL0     H54495   5.311   9.924   2.098 -1.2411 -2.2793 -0.4117
  404MOL0     H54496   5.129   9.831   2.214 -1.6843 -1.7181  0.1676
  404MOL0     H54497   5.012   9.880   2.097  1.7112 -0.2928 -1.6932
  404MOL0     H54498   5.161  10.089   2.256 -1.4201  0.5044  1.7688
  404MOL0     H54499   5.019  10.014   2.324 -0.9804  0.0538  0.2553
  404MOL0     H54500   5.001  10.257   2.372 -1.2444  2.0575  2.0541
  404MOL0     H54501   4.826  10.559   2.496 -0.9705 -2.4346  1.4189
  404MOL0     H54502   4.921  10.411   2.538 -2.6014  0.2421  0.3688
  404MOL0     H54503   5.002  10.562   2.478 -0.0895 -0.7941  2.7848
  404MOL0     H54504   4.868  10.911   2.105 -0.1893 -1.0677 -3.8191
  404MOL0     H54505   4.809  11.141   2.127  1.8924 -0.2114  2.3150
  404MOL0     H54506   4.686  11.260   2.363  1.4600  0.4486 -1.7380
  404MOL0     H54507   4.697  11.388   2.245  0.2047 -3.2205 -4.5904
  404MOL0     H54508   4.577  11.453   2.452  0.1754  0.0936  0.9070
  404MOL0     H54509   4.484  11.466   2.295 -0.6509 -1.3209 -0.5083
  404MOL0     H54510   4.469  11.250   2.522  1.1184  2.3245  2.1107
  404MOL0     H54511   4.392  11.241   2.359  1.1100  0.5659 -0.5895
  404MOL0     H54512   4.337  11.484   2.540  0.7500 -1.1321  2.9390
  404MOL0     H54513   4.244  11.411   2.402  2.3250  0.1209 -1.7741
  404MOL0     H54514   4.268  11.332   2.693 -0.9311 -2.7894  1.7176
  404MOL0     H54515   4.218  11.209   2.583  0.2730 -0.2173  1.3458
  404MOL0     H54516   4.082  11.485   2.609 -1.0900 -0.0017 -0.4593
  404MOL0     H54517   4.039  11.364   2.488  1.9091  3.6268 -0.6107
  404MOL0     H54518   4.026  11.305   2.792  1.7815  0.2343 -1.1924
  404MOL0     H54519   3.966  11.203   2.662 -1.6006 -0.1502 -0.1997
  404MOL0     H54520   3.798  11.314   2.781  2.4087  1.0300  2.0417
  404MOL0     H54521   3.799  11.343   2.596 -0.9762  0.1132  0.8210
  404MOL0     H54522   4.414  11.040   2.244 -0.2140 -0.4729 -0.6363
  404MOL0     H54523   4.454  10.805   2.215  1.7385 -2.3250  1.8155
  404MOL0     H54524   4.782  10.507   2.015 -1.6130  0.2171  1.8798
  404MOL0     H54525   4.846  10.266   1.986 -2.1867  1.0665  0.0831
  404MOL0     H54526   4.023  10.577   1.778  0.3058  0.8837 -1.6535
  404MOL0     H54527   3.830  10.698   1.864 -0.6341  1.0290 -1.6761
  404MOL0     H54528   3.420  10.593   2.083  1.2947  2.4309  0.4340
  404MOL0     H54529   3.213  10.645   2.187  3.1976 -1.1046  0.2898
  404MOL0     H54530   3.068  10.782   2.263 -2.0480 -0.5632 -0.5904
  404MOL0     H54531   3.047  10.934   2.185 -1.0891  1.0070  0.3162
  404MOL0     H54532   2.845  10.918   2.333 -3.5073 -1.0389  0.9214
  404MOL0     H54533   2.819  10.752   2.283  2.0854 -0.3882  0.9693
  404MOL0     H54534   2.652  10.879   2.189  1.0536 -1.9165  1.4532
  404MOL0     H54535   2.747  10.818   2.047  0.5124  0.6360 -0.2521
  404MOL0     H54536   2.848  11.052   2.024 -0.1843  3.9540  1.5558
  404MOL0     H54537   2.774  11.096   2.171  1.7597  1.5045 -0.9452
  404MOL0     H54538   2.474  11.168   1.889  0.2065 -1.7204  0.4714
  404MOL0     H54539   3.048  10.771   1.808  0.6949  0.5910 -2.0644
  404MOL0     H54540   3.259  10.705   1.710  0.2636 -2.1359 -0.5681
  405MOL0     O54541   3.266   2.915  10.474  0.5845  0.2983 -0.2118
  405MOL0     C54542   3.292   2.855  10.576 -0.3853 -0.8022  0.0105
  405MOL0     O54543   3.224   2.745  10.612 -0.5567 -0.2123 -0.1989
  405MOL0     C54544   3.109   2.715  10.553  0.4088 -0.1872 -0.2017
  405MOL0     C54545   3.098   2.669  10.419  0.8635 -0.0969 -0.0109
  405MOL0     C54546   2.969   2.613  10.374 -0.2623 -0.3333 -0.5177
  405MOL0     C54547   2.852   2.630  10.449 -0.0139 -0.4753  1.0086
  405MOL0     O54548   2.723   2.599  10.404 -0.3021  0.4722 -0.5354
  405MOL0     C54549   2.620   2.558  10.485  0.4581  0.7905 -0.3666
  405MOL0     C54550   2.515   2.486  10.399 -0.1946  0.4524  0.0771
  405MOL0     C54551   2.373   2.532  10.436 -0.0186 -0.2794 -0.3266
  405MOL0     C54552   2.272   2.458  10.345  0.2316 -0.7465  0.7951
  405MOL0     C54553   2.132   2.510  10.359 -0.3654 -0.1991  0.2092
  405MOL0     C54554   2.080   2.532  10.501 -0.4472  0.3709 -0.4077
  405MOL0     C54555   1.929   2.580  10.499 -1.0031  0.2462 -0.1039
  405MOL0     C54556   1.887   2.619  10.636 -0.0754 -0.3185  0.0652
  405MOL0     N54557   1.747   2.649  10.663  0.4248  0.3218  0.1086
  405MOL0     C54558   1.682   2.761  10.620  0.8443 -0.0039  0.4696
  405MOL0     C54559   1.553   2.734  10.658 -0.3739 -1.0418  0.1415
  405MOL0     C54560   1.437   2.842  10.640  0.1868 -0.1971  0.6215
  405MOL0     C54561   1.453   2.923  10.506 -1.0277  0.3539 -0.1763
  405MOL0     C54562   1.390   3.060  10.532  0.6853  0.3018 -1.0419
  405MOL0     C54563   1.241   3.044  10.565 -0.9066  0.3269 -0.4539
  405MOL0     O54564   1.183   2.948  10.476 -0.6154 -0.6553 -0.5017
  405MOL0     C54565   1.049   2.913  10.483  0.0257 -0.7786 -0.4183
  405MOL0     C54566   0.958   2.974  10.568 -0.5517  0.3063  0.3126
  405MOL0     C54567   0.828   2.934  10.561  0.7422  0.6216 -0.0166
  405MOL0     C54568   0.731   3.013  10.651  0.7012  0.0751 -0.2878
  405MOL0     C54569   0.777   2.828  10.480 -0.8207 -0.1197 -0.2021
  405MOL0     C54570   0.639   2.781  10.468  0.0317 -0.3076 -0.5813
  405MOL0     O54571   0.552   2.884  10.460  0.2221 -0.4192  0.8432
  405MOL0     C54572   0.422   2.848  10.488  0.1823 -1.1727 -0.1896
  405MOL0     C54573   0.344   2.768  10.403  0.0738 -0.4921 -0.3102
  405MOL0     C54574   0.210   2.750  10.429  0.3469  0.2870  0.1943
  405MOL0     C54575   0.146   2.816  10.534 -0.5676 -0.0082 -0.0339
  405MOL0     O54576   0.018   2.798  10.572  0.0556  0.0882  0.1363
  405MOL0     C54577  -0.078   2.767  10.482 -0.0873  0.4018  0.6705
  405MOL0     C54578  -0.209   2.787  10.555  0.0556  0.0754  0.8210
  405MOL0     C54579  -0.323   2.779  10.443 -0.1413 -0.5426 -0.7778
  405MOL0     C54580  -0.456   2.815  10.516  0.2722  0.3975 -0.1676
  405MOL0     C54581  -0.567   2.796  10.419  0.1102  0.1254  0.1656
  405MOL0     C54582  -0.681   2.896  10.438 -0.4023  0.3195  0.4317
  405MOL0     C54583  -0.802   2.858  10.349  0.0988  0.5717 -0.3572
  405MOL0     C54584  -0.913   2.966  10.339  0.1239  0.0621  0.8258
  405MOL0    Cl54585  -0.993   3.007  10.498  0.3188 -0.0759 -0.5407
  405MOL0     C54586   0.218   2.894  10.616 -0.2556 -0.1692  0.5380
  405MOL0     C54587   0.355   2.912  10.594  0.1171  0.7427  0.3636
  405MOL0     O54588   0.618   2.661  10.483  0.4537 -0.1381  0.1284
  405MOL0     C54589   0.875   2.767  10.406  0.0044  0.2592  0.1380
  405MOL0     C54590   1.006   2.813  10.399 -0.3821 -0.6622  0.2081
  405MOL0     N54591   1.547   2.620  10.723 -0.1843  0.4183 -0.2635
  405MOL0     N54592   1.662   2.560  10.716 -0.3427 -0.5050  0.8275
  405MOL0     C54593   2.862   2.695  10.574  0.2056 -0.0898 -0.1742
  405MOL0     C54594   2.986   2.734  10.624 -0.6193  0.3456  0.2080
  405MOL0     C54595   3.396   2.895  10.665 -0.0520 -0.1876  0.4926
  405MOL0     C54596   3.430   2.812  10.779 -0.3534 -0.7087 -0.3295
  405MOL0     C54597   3.536   2.843  10.861 -0.2065  0.9467 -0.2374
  405MOL0     C54598   3.615   2.959  10.825  0.9389  0.2083  0.0327
  405MOL0     O54599   3.718   2.987  10.903 -0.9686  0.2099 -0.3332
  405MOL0     C54600   3.824   3.058  10.843  0.2314 -0.6994  0.7665
  405MOL0     C54601   3.941   3.057  10.938 -0.1594  0.3984 -0.6287
  405MOL0     C54602   4.059   3.149  10.896 -1.1476 -0.5557 -0.0371
  405MOL0     C54603   4.186   3.135  10.984 -0.1219 -0.2880  0.8434
  405MOL0     C54604   4.251   3.007  10.976  0.1772  0.1559  0.5000
  405MOL0     C54605   4.310   2.903  10.979  0.2676 -0.2553 -0.3470
  405MOL0     C54606   3.567   3.051  10.724 -0.5450  0.6422 -0.4125
  405MOL0     C54607   3.464   3.014  10.641 -0.1844 -0.0085 -0.1771
  405MOL0     H54608   3.185   2.664  10.355  0.2571  1.5451 -1.0332
  405MOL0     H54609   2.964   2.564  10.277  1.8139  2.3419 -2.1474
  405MOL0     H54610   2.650   2.490  10.565 -1.4229  0.1552 -0.1579
  405MOL0     H54611   2.583   2.647  10.536  0.5074  0.4544  0.2611
  405MOL0     H54612   2.534   2.503  10.293 -0.9456  2.5023  0.2327
  405MOL0     H54613   2.522   2.377  10.409 -1.3127  0.2031 -1.4525
  405MOL0     H54614   2.348   2.500  10.538 -1.3320  2.0874  0.1758
  405MOL0     H54615   2.371   2.642  10.436  1.0387 -0.1978  2.0618
  405MOL0     H54616   2.306   2.485  10.244 -0.3562 -2.0978  0.2162
  405MOL0     H54617   2.289   2.352  10.365  3.9067 -0.5617 -0.6263
  405MOL0     H54618   2.122   2.596  10.292  0.8001  0.9015  1.4086
  405MOL0     H54619   2.074   2.430  10.311 -1.6501 -1.0646  2.9841
  405MOL0     H54620   2.084   2.434  10.549  2.8396  0.2640 -0.6752
  405MOL0     H54621   2.147   2.602  10.550  1.7871 -1.0109 -1.3280
  405MOL0     H54622   1.927   2.672  10.439  2.8130  1.6398  1.5657
  405MOL0     H54623   1.876   2.496  10.455  0.8171 -1.0327  0.0577
  405MOL0     H54624   1.941   2.710  10.665 -0.8159 -0.2749  1.3494
  405MOL0     H54625   1.926   2.555  10.716  1.3957  3.7296  2.9390
  405MOL0     H54626   1.732   2.847  10.576  1.2876 -1.2961 -1.6776
  405MOL0     H54627   1.343   2.786  10.634  0.4003 -0.4136 -1.4770
  405MOL0     H54628   1.436   2.911  10.724 -0.0636 -1.3392  1.5866
  405MOL0     H54629   1.400   2.864  10.431  0.6233 -3.7519  1.5517
  405MOL0     H54630   1.557   2.928  10.471 -1.0598 -1.1875 -0.5492
  405MOL0     H54631   1.400   3.115  10.438  1.8292  0.1195 -1.0482
  405MOL0     H54632   1.442   3.124  10.604  0.2584  0.8610 -1.2293
  405MOL0     H54633   1.193   3.142  10.558 -0.5565  0.6174  0.7991
  405MOL0     H54634   1.235   3.011  10.670 -0.1173 -1.5908 -0.9651
  405MOL0     H54635   0.977   3.054  10.638 -0.2394  0.3476  0.1822
  405MOL0     H54636   0.794   3.033  10.738  1.4622  0.0166 -0.8140
  405MOL0     H54637   0.705   3.110  10.608 -0.6877 -0.2901 -0.3119
  405MOL0     H54638   0.643   2.958  10.685 -1.7604  3.1349 -1.1982
  405MOL0     H54639   0.407   2.715  10.332  2.6101  1.7655  0.0753
  405MOL0     H54640   0.161   2.670  10.375  3.1757  0.2014 -2.5402
  405MOL0     H54641  -0.072   2.834  10.397  2.1557  0.0431  0.5038
  405MOL0     H54642  -0.077   2.664  10.445 -2.8456 -1.0003  3.9089
  405MOL0     H54643  -0.220   2.715  10.636 -0.1274 -0.5719  0.2328
  405MOL0     H54644  -0.221   2.883  10.607  3.8782 -0.3173  2.7677
  405MOL0     H54645  -0.328   2.681  10.395 -4.1698 -2.1506  2.3726
  405MOL0     H54646  -0.294   2.841  10.357 -0.6616  1.1004  0.1974
  405MOL0     H54647  -0.469   2.749  10.602  2.2857  1.8139  1.2803
  405MOL0     H54648  -0.461   2.918  10.551  1.8739  0.5819 -0.4219
  405MOL0     H54649  -0.603   2.694  10.432 -0.0536  0.2247  0.4975
  405MOL0     H54650  -0.537   2.797  10.314 -2.9443 -2.2645 -0.8700
  405MOL0     H54651  -0.698   2.907  10.545  2.1135 -2.0926  1.1982
  405MOL0     H54652  -0.641   2.995  10.413  0.9224  0.5339  3.0133
  405MOL0     H54653  -0.847   2.766  10.388  1.5423  0.5762  1.4424
  405MOL0     H54654  -0.756   2.848  10.250 -0.8138  0.5995 -0.7921
  405MOL0     H54655  -0.993   2.938  10.270  1.0735  0.3290 -0.4255
  405MOL0     H54656  -0.858   3.051  10.299  0.2831  0.5724  2.0968
  405MOL0     H54657   0.182   2.942  10.707  0.9293 -1.4687  1.7429
  405MOL0     H54658   0.421   2.977  10.651  1.4959 -0.7768  0.5667
  405MOL0     H54659   0.841   2.688  10.339 -1.1287  0.5935  0.2998
  405MOL0     H54660   1.078   2.773  10.328 -2.6337 -2.3301 -1.2681
  405MOL0     H54661   2.772   2.715  10.632 -0.7999  1.8846 -2.2783
  405MOL0     H54662   2.974   2.777  10.723 -0.3934 -2.6007  1.6320
  405MOL0     H54663   3.362   2.733  10.808 -1.4347  0.7810  1.4175
  405MOL0     H54664   3.560   2.775  10.941 -1.7564  1.1531  0.4450
  405MOL0     H54665   3.862   3.002  10.757  1.6778  2.0333 -0.4999
  405MOL0     H54666   3.799   3.162  10.817  1.1176  0.2401  3.4387
  405MOL0     H54667   3.982   2.956  10.933  2.2188  1.3627 -2.5029
  405MOL0     H54668   3.908   3.093  11.036  1.9293  0.2911  0.1605
  405MOL0     H54669   4.037   3.256  10.886  1.3617 -0.1615 -3.1722
  405MOL0     H54670   4.094   3.125  10.795  1.3924  1.5488  0.2435
  405MOL0     H54671   4.158   3.169  11.084 -1.8226  5.7796 -1.2552
  405MOL0     H54672   4.261   3.210  10.959  0.6208 -0.9145  1.1314
  405MOL0     H54673   4.357   2.808  10.995 -0.0390 -0.2328  0.7140
  405MOL0     H54674   3.623   3.137  10.688 -0.2300 -0.1849 -2.0014
  405MOL0     H54675   3.433   3.080  10.560 -0.3913 -0.6489 -0.6206
  406MOL0     O54676   1.823   9.680   7.881 -0.7588 -0.1478  0.2418
  406MOL0     C54677   1.894   9.579   7.876 -0.4478 -0.4280  0.0388
  406MOL0     O54678   1.848   9.448   7.853  0.2876  0.4188  0.5436
  406MOL0     C54679   1.711   9.443   7.843 -0.3575 -0.5139  0.3414
  406MOL0     C54680   1.635   9.464   7.722  0.6946  0.4458  0.4677
  406MOL0     C54681   1.499   9.472   7.736 -0.4360 -0.5246 -0.2921
  406MOL0     C54682   1.437   9.436   7.856  0.4202  0.1456 -1.0120
  406MOL0     O54683   1.299   9.445   7.853  0.4140  0.5446  0.4929
  406MOL0     C54684   1.227   9.431   7.977 -0.3225 -1.0689  0.5772
  406MOL0     C54685   1.086   9.429   7.941 -0.1646  0.2304 -0.3516
  406MOL0     C54686   0.986   9.421   8.056  0.6148 -0.1012 -0.0509
  406MOL0     C54687   0.967   9.554   8.132 -0.7492 -0.4697  0.4215
  406MOL0     C54688   0.862   9.541   8.245 -0.9244  0.2922 -0.7620
  406MOL0     C54689   0.714   9.542   8.206  0.4832 -0.4461 -0.2548
  406MOL0     C54690   0.627   9.473   8.312  0.3345 -0.0276 -0.3472
  406MOL0     C54691   0.471   9.467   8.283 -0.2783  0.1490  0.0193
  406MOL0     N54692   0.397   9.598   8.265  0.8192 -0.3888  0.4038
  406MOL0     C54693   0.304   9.654   8.356  0.5767  0.2170  0.5860
  406MOL0     C54694   0.264   9.764   8.288 -0.1735 -0.0833  0.5172
  406MOL0     C54695   0.170   9.868   8.340 -0.1629 -0.2115 -0.0882
  406MOL0     C54696   0.029   9.814   8.352  1.1910 -0.2323 -0.3750
  406MOL0     C54697  -0.019   9.772   8.218  0.0749  0.0093 -0.2857
  406MOL0     C54698  -0.148   9.695   8.240  0.1308  0.1006 -1.0144
  406MOL0     O54699  -0.246   9.791   8.241 -0.3048  0.4526  0.5364
  406MOL0     C54700  -0.369   9.733   8.254  0.2058  0.1527  0.6974
  406MOL0     C54701  -0.431   9.731   8.376  0.2307  0.3678  0.0386
  406MOL0     C54702  -0.558   9.682   8.409 -1.6644 -1.2228  0.2952
  406MOL0     C54703  -0.606   9.707   8.549 -0.1530 -0.0182  0.1534
  406MOL0     C54704  -0.632   9.636   8.294 -1.1238  0.0765 -0.0858
  406MOL0     C54705  -0.771   9.576   8.318  0.5921 -0.4717  0.1378
  406MOL0     O54706  -0.858   9.622   8.406  0.0784  0.0210  0.0548
  406MOL0     C54707  -0.996   9.602   8.396 -0.3735 -0.6201  0.3971
  406MOL0     C54708  -1.076   9.556   8.294  0.5820  0.5406  0.8282
  406MOL0     C54709  -1.215   9.538   8.313 -0.8738  1.5491 -0.5260
  406MOL0     C54710  -1.281   9.564   8.430 -0.0633 -0.4957 -0.0113
  406MOL0     O54711  -1.420   9.567   8.444  0.3988  0.4178  0.0693
  406MOL0     C54712  -1.517   9.544   8.338 -0.2446 -0.1650 -0.1506
  406MOL0     C54713  -1.643   9.609   8.395 -0.5395 -0.5375 -0.0163
  406MOL0     C54714  -1.707   9.532   8.512 -0.1122  0.8579  0.7278
  406MOL0     C54715  -1.764   9.403   8.467  0.0558  0.5603 -0.3083
  406MOL0     C54716  -1.863   9.346   8.576 -0.5295  0.6815 -0.0674
  406MOL0     C54717  -1.792   9.243   8.669  1.1376 -0.4915  0.3754
  406MOL0     C54718  -1.909   9.170   8.743 -0.6635 -0.1873  0.0994
  406MOL0     C54719  -1.840   9.082   8.846  0.0346  0.0444  1.1948
  406MOL0    Cl54720  -1.725   8.970   8.748 -0.0268  0.0091 -0.3858
  406MOL0     C54721  -1.193   9.589   8.543 -0.2472  0.1847  0.4955
  406MOL0     C54722  -1.055   9.612   8.522 -0.6481  0.7080 -0.0392
  406MOL0     O54723  -0.795   9.487   8.239 -0.4725 -0.0550  0.2829
  406MOL0     C54724  -0.568   9.637   8.164  0.0736  0.4023  0.0056
  406MOL0     C54725  -0.440   9.677   8.144  0.7409 -0.3179  0.0104
  406MOL0     N54726   0.341   9.790   8.177 -0.2156  0.3746 -0.4255
  406MOL0     N54727   0.422   9.694   8.169  1.0242  0.1821  0.2652
  406MOL0     C54728   1.513   9.394   7.964 -0.1294  0.2204 -0.3831
  406MOL0     C54729   1.648   9.391   7.958  0.4227  0.0318 -0.0696
  406MOL0     C54730   2.031   9.596   7.899  0.1707 -0.1922  0.1031
  406MOL0     C54731   2.104   9.478   7.922 -0.5753 -0.0424 -0.1303
  406MOL0     C54732   2.237   9.481   7.952  0.1355 -0.2047  0.3109
  406MOL0     C54733   2.306   9.600   7.959  0.2096  0.1344  1.1363
  406MOL0     O54734   2.439   9.591   7.978  0.3877 -0.0621 -0.1541
  406MOL0     C54735   2.520   9.713   7.964  0.5368  0.2080 -0.1619
  406MOL0     C54736   2.660   9.663   7.938  0.0722 -0.4180  0.5001
  406MOL0     C54737   2.725   9.618   8.070 -0.8292 -0.2912  1.2099
  406MOL0     C54738   2.876   9.595   8.065 -0.1966  1.4579  0.0292
  406MOL0     C54739   2.915   9.483   7.976 -0.6527 -0.2583 -0.2018
  406MOL0     C54740   2.959   9.402   7.902  0.5640 -0.2792  0.1787
  406MOL0     C54741   2.231   9.719   7.947 -1.0397  0.2254  0.2231
  406MOL0     C54742   2.096   9.708   7.918 -0.8079 -0.2339  0.4471
  406MOL0     H54743   1.682   9.480   7.625  0.5901  0.9593  0.4998
  406MOL0     H54744   1.435   9.515   7.659 -0.5473  2.5966  1.3866
  406MOL0     H54745   1.243   9.339   8.034 -1.2030 -1.7858 -0.3002
  406MOL0     H54746   1.253   9.519   8.036  4.0157 -0.3537 -2.0185
  406MOL0     H54747   1.054   9.511   7.876 -2.2072 -1.6581 -1.8856
  406MOL0     H54748   1.073   9.340   7.879  1.7398 -0.9130  0.7712
  406MOL0     H54749   0.892   9.385   8.015  2.2602 -2.9200 -1.6647
  406MOL0     H54750   1.017   9.343   8.126  0.1886  0.3128  0.6026
  406MOL0     H54751   1.058   9.581   8.187 -0.9523  2.0045 -0.3604
  406MOL0     H54752   0.957   9.640   8.066 -0.7104  0.5701  1.7385
  406MOL0     H54753   0.898   9.453   8.299 -1.4444  0.4443 -0.1565
  406MOL0     H54754   0.886   9.619   8.318  0.1739 -1.3777  0.7561
  406MOL0     H54755   0.680   9.645   8.192 -3.4754 -1.5496  0.0853
  406MOL0     H54756   0.708   9.490   8.109  2.7355  1.8044 -1.7044
  406MOL0     H54757   0.670   9.373   8.325  0.9009  0.3511  0.8797
  406MOL0     H54758   0.630   9.532   8.404 -0.9002  1.3790 -1.1690
  406MOL0     H54759   0.431   9.416   8.371  0.2097 -1.8534 -0.8723
  406MOL0     H54760   0.443   9.397   8.204 -1.2731  0.8789 -0.2863
  406MOL0     H54761   0.267   9.610   8.448 -1.5171 -1.3997 -0.9160
  406MOL0     H54762   0.202   9.909   8.436  3.2934 -1.8337 -0.3895
  406MOL0     H54763   0.169   9.961   8.283  0.6001  0.9962  1.7843
  406MOL0     H54764  -0.042   9.884   8.397  0.7468 -0.5490 -0.5699
  406MOL0     H54765   0.044   9.730   8.420  1.6296 -0.1542 -0.3725
  406MOL0     H54766   0.054   9.699   8.181 -2.2612 -0.8596 -3.7259
  406MOL0     H54767  -0.027   9.860   8.152 -0.3870  0.1250 -0.0782
  406MOL0     H54768  -0.140   9.634   8.331  0.0948 -1.4384 -2.0052
  406MOL0     H54769  -0.170   9.627   8.158 -1.0748 -1.4034  0.4866
  406MOL0     H54770  -0.362   9.768   8.450  2.3657  3.4893 -3.1525
  406MOL0     H54771  -0.592   9.613   8.603 -1.1718 -0.8331 -0.9511
  406MOL0     H54772  -0.543   9.791   8.579 -0.9688  0.5613  0.2568
  406MOL0     H54773  -0.712   9.726   8.569 -0.4656  1.7107 -2.5720
  406MOL0     H54774  -1.041   9.539   8.193 -2.1158 -0.1636 -0.0637
  406MOL0     H54775  -1.276   9.504   8.230 -2.1010  4.1178 -0.7468
  406MOL0     H54776  -1.481   9.595   8.249  4.2136 -1.7251  0.4796
  406MOL0     H54777  -1.528   9.438   8.311 -0.3913 -0.1539 -0.1350
  406MOL0     H54778  -1.612   9.709   8.425  1.4064 -0.7644 -1.1562
  406MOL0     H54779  -1.721   9.613   8.318 -1.1474 -0.8955  0.5638
  406MOL0     H54780  -1.785   9.591   8.561 -0.9416 -0.0934  0.5771
  406MOL0     H54781  -1.631   9.514   8.589  2.9779 -3.6639 -2.8582
  406MOL0     H54782  -1.825   9.401   8.376 -1.9857 -1.2800  0.9894
  406MOL0     H54783  -1.686   9.332   8.439  0.2843  0.7001 -0.0314
  406MOL0     H54784  -1.942   9.305   8.513  0.3194 -0.2004 -0.5866
  406MOL0     H54785  -1.910   9.420   8.641 -2.1549  0.7856 -1.3075
  406MOL0     H54786  -1.719   9.176   8.622 -0.6315 -1.7213 -0.7235
  406MOL0     H54787  -1.730   9.309   8.731 -1.4530  3.5694 -0.8928
  406MOL0     H54788  -1.969   9.114   8.671  0.1628 -1.8359  0.6517
  406MOL0     H54789  -1.984   9.235   8.788 -0.8709 -0.2598 -0.1351
  406MOL0     H54790  -1.916   9.027   8.903  0.4578  0.8818  2.6359
  406MOL0     H54791  -1.792   9.139   8.926 -1.1109  2.3539  0.3175
  406MOL0     H54792  -1.246   9.617   8.634 -4.6091  2.8111 -2.4883
  406MOL0     H54793  -0.992   9.643   8.605  0.1543 -2.9450  0.8815
  406MOL0     H54794  -0.619   9.623   8.069 -0.1509  3.4400 -0.4191
  406MOL0     H54795  -0.392   9.683   8.047 -2.3759  0.2521 -1.6340
  406MOL0     H54796   1.478   9.358   8.060  0.5730 -2.6616 -1.1019
  406MOL0     H54797   1.701   9.364   8.049 -3.1452 -0.6335  1.9797
  406MOL0     H54798   2.064   9.378   7.908  0.0087 -0.1941 -0.8314
  406MOL0     H54799   2.288   9.386   7.961  0.4422 -0.1074 -0.3427
  406MOL0     H54800   2.489   9.774   7.879  2.1839  0.2952 -0.7287
  406MOL0     H54801   2.527   9.779   8.052 -0.0714 -1.4372  1.1799
  406MOL0     H54802   2.713   9.735   7.874  1.6944 -1.0160  1.1001
  406MOL0     H54803   2.654   9.576   7.872 -3.8694  0.0834 -0.0459
  406MOL0     H54804   2.688   9.515   8.083  2.3825 -1.6504  0.5212
  406MOL0     H54805   2.715   9.677   8.161  0.8432 -2.3263  2.8148
  406MOL0     H54806   2.896   9.557   8.165 -0.6354 -0.8912 -0.6975
  406MOL0     H54807   2.948   9.673   8.039 -0.5795  1.3552 -1.4733
  406MOL0     H54808   2.990   9.322   7.838  0.3030  0.2165 -0.5780
  406MOL0     H54809   2.276   9.817   7.955 -2.1098  0.8373 -0.9849
  406MOL0     H54810   2.039   9.800   7.913 -2.0021 -0.9780  0.0374
  407MOL0     O54811   1.733   5.812   7.465 -0.1433 -0.0410  0.7318
  407MOL0     C54812   1.742   5.689   7.447 -0.4265 -0.2212 -0.5458
  407MOL0     O54813   1.859   5.627   7.416 -0.1191  0.1714  0.2861
  407MOL0     C54814   1.972   5.704   7.407  0.6881  0.5630 -1.0184
  407MOL0     C54815   2.080   5.647   7.465 -0.3903  0.3110 -0.2313
  407MOL0     C54816   2.209   5.701   7.447 -0.0280  0.2571 -0.5998
  407MOL0     C54817   2.224   5.821   7.376  0.2592 -1.0265  0.2070
  407MOL0     O54818   2.348   5.872   7.362 -0.0261 -0.3121  0.2308
  407MOL0     C54819   2.363   6.005   7.315 -0.2868  0.5295 -0.8716
  407MOL0     C54820   2.516   6.033   7.329  0.4252  0.3424  0.5794
  407MOL0     C54821   2.559   6.121   7.456 -0.1481 -0.6775  0.7708
  407MOL0     C54822   2.545   6.040   7.592  0.1012 -0.2138  0.0506
  407MOL0     C54823   2.618   6.113   7.705  0.0530  0.3236  0.0143
  407MOL0     C54824   2.574   6.264   7.724  0.6642 -0.0917 -0.4027
  407MOL0     C54825   2.629   6.300   7.862 -0.9194  0.5289 -0.4819
  407MOL0     C54826   2.566   6.426   7.912  0.1815  0.4862  0.3255
  407MOL0     N54827   2.544   6.425   8.053  0.4149 -0.2552 -0.4443
  407MOL0     C54828   2.455   6.343   8.127  0.4963  0.4772 -0.5685
  407MOL0     C54829   2.480   6.375   8.256  0.2876  0.3257 -0.0620
  407MOL0     C54830   2.428   6.314   8.379  0.0477  0.9318  0.6639
  407MOL0     C54831   2.351   6.399   8.473  0.1373 -1.0339  0.0836
  407MOL0     C54832   2.358   6.349   8.616  0.2712 -0.0511  0.3121
  407MOL0     C54833   2.263   6.410   8.717 -0.2481 -0.4281  0.0449
  407MOL0     O54834   2.279   6.334   8.833  0.0782  0.7084  0.2256
  407MOL0     C54835   2.167   6.342   8.914 -0.2550  0.5721  0.3353
  407MOL0     C54836   2.065   6.244   8.925  0.2497 -0.1691 -0.0070
  407MOL0     C54837   1.945   6.260   9.003 -0.4970 -0.4244 -0.5933
  407MOL0     C54838   1.849   6.143   9.007 -0.3643 -0.5289 -0.5412
  407MOL0     C54839   1.945   6.382   9.081  0.7789  0.8015  0.5433
  407MOL0     C54840   1.820   6.423   9.157  0.2705 -0.5793 -0.7272
  407MOL0     O54841   1.729   6.335   9.190 -0.4281  0.6488 -0.4500
  407MOL0     C54842   1.596   6.365   9.221  0.2368 -0.5685  0.0255
  407MOL0     C54843   1.500   6.375   9.118  0.1592  0.5594 -0.1694
  407MOL0     C54844   1.366   6.398   9.151  0.9417  0.0996 -0.4559
  407MOL0     C54845   1.327   6.409   9.292 -0.6029  0.0372  0.6977
  407MOL0     O54846   1.204   6.445   9.331  0.3092 -0.3147 -0.4424
  407MOL0     C54847   1.113   6.524   9.253 -0.0514 -0.6112 -0.3192
  407MOL0     C54848   1.003   6.584   9.342 -0.0140  1.0456  1.0462
  407MOL0     C54849   0.945   6.713   9.282  0.1199  0.3216 -1.5757
  407MOL0     C54850   0.827   6.759   9.361 -0.1775 -0.0498 -0.7978
  407MOL0     C54851   0.788   6.905   9.318 -0.2831 -0.0904  0.4713
  407MOL0     C54852   0.713   6.907   9.178 -0.1438  0.0565 -0.5874
  407MOL0     C54853   0.677   7.062   9.157  0.3616  0.1428  0.1532
  407MOL0     C54854   0.639   7.088   9.011  0.0354 -0.3442  0.2884
  407MOL0    Cl54855   0.472   7.033   8.974 -0.5029  0.3131  0.0742
  407MOL0     C54856   1.427   6.395   9.389 -0.4926  0.0025  0.3295
  407MOL0     C54857   1.557   6.374   9.356  0.2224  0.4335 -0.3243
  407MOL0     O54858   1.814   6.535   9.207 -0.6371  0.1488 -0.2436
  407MOL0     C54859   2.045   6.473   9.070 -0.6208 -0.5432  0.4041
  407MOL0     C54860   2.157   6.455   8.985 -0.3730 -0.3094 -0.4276
  407MOL0     N54861   2.572   6.480   8.260 -0.4299  0.3386  0.0657
  407MOL0     N54862   2.613   6.504   8.144 -0.6620 -0.6744 -0.1327
  407MOL0     C54863   2.109   5.884   7.321 -0.2196 -0.3967  0.8309
  407MOL0     C54864   1.990   5.826   7.338  0.6167 -0.4996  0.6937
  407MOL0     C54865   1.620   5.619   7.446 -0.1896 -0.1151  0.2590
  407MOL0     C54866   1.499   5.685   7.458  0.0149 -0.1579  0.4342
  407MOL0     C54867   1.374   5.619   7.463 -0.0077 -0.1652 -1.4411
  407MOL0     C54868   1.380   5.478   7.473  0.3819  0.1914  0.2895
  407MOL0     O54869   1.257   5.399   7.463 -0.7868  0.0670 -0.2918
  407MOL0     C54870   1.130   5.452   7.507 -0.6727 -0.6870  0.1242
  407MOL0     C54871   1.016   5.339   7.509 -1.1327  0.0460 -0.1693
  407MOL0     C54872   0.879   5.396   7.557  0.2072 -0.2733  0.6934
  407MOL0     C54873   0.767   5.296   7.600 -1.0062  0.0319 -0.3590
  407MOL0     C54874   0.670   5.383   7.661  0.3388 -0.2025  0.0903
  407MOL0     C54875   0.599   5.464   7.715  0.0651  0.1190 -0.0170
  407MOL0     C54876   1.497   5.409   7.455  0.0932 -0.5731 -0.0623
  407MOL0     C54877   1.618   5.482   7.448  0.0258  0.1874  0.3217
  407MOL0     H54878   2.061   5.555   7.520 -4.2913  1.3703  0.4820
  407MOL0     H54879   2.293   5.645   7.486 -0.0937  0.7312  0.2441
  407MOL0     H54880   2.318   6.014   7.216 -1.6808  0.0966 -0.2990
  407MOL0     H54881   2.306   6.076   7.375  0.7610 -0.3757  1.2944
  407MOL0     H54882   2.572   5.940   7.335  1.8132  1.2340  2.5253
  407MOL0     H54883   2.553   6.091   7.244  0.8711 -1.7272 -0.7044
  407MOL0     H54884   2.668   6.133   7.455  0.0993 -2.6714  0.3743
  407MOL0     H54885   2.511   6.219   7.467 -0.0623 -0.6347  0.7637
  407MOL0     H54886   2.438   6.039   7.614  0.2856  1.4026  1.2429
  407MOL0     H54887   2.580   5.938   7.571  0.4495 -0.3680  1.2718
  407MOL0     H54888   2.601   6.060   7.799  0.2667  0.8651  0.3640
  407MOL0     H54889   2.725   6.119   7.683  0.3836  3.1656  1.9416
  407MOL0     H54890   2.616   6.325   7.644 -1.2489 -0.8986 -2.1127
  407MOL0     H54891   2.464   6.271   7.727  0.7150  0.5837  1.2060
  407MOL0     H54892   2.586   6.219   7.921 -0.6816  1.2975  0.7798
  407MOL0     H54893   2.737   6.313   7.869 -1.0286  0.7835  1.0469
  407MOL0     H54894   2.476   6.461   7.859 -0.2999  0.3574  1.0563
  407MOL0     H54895   2.636   6.507   7.887  3.4124 -2.0658  0.5233
  407MOL0     H54896   2.390   6.260   8.099  1.8046 -1.0513  0.7545
  407MOL0     H54897   2.368   6.228   8.349 -1.6985  2.4180 -0.2857
  407MOL0     H54898   2.515   6.277   8.434 -1.1709  1.0615  2.7880
  407MOL0     H54899   2.246   6.400   8.441 -0.1774  4.7696  0.1193
  407MOL0     H54900   2.378   6.505   8.473 -1.4949 -0.4565  3.5219
  407MOL0     H54901   2.458   6.352   8.662 -0.1837 -2.5807  1.6910
  407MOL0     H54902   2.333   6.242   8.617 -1.7775  0.3687  2.6830
  407MOL0     H54903   2.161   6.423   8.679 -0.9679  1.5080  2.4513
  407MOL0     H54904   2.291   6.512   8.743 -3.2857  0.9807 -1.6515
  407MOL0     H54905   2.077   6.154   8.867 -0.4872  1.3082 -2.6121
  407MOL0     H54906   1.744   6.163   8.985 -0.1060  0.5424 -0.8178
  407MOL0     H54907   1.894   6.060   8.951  2.4178 -0.2451  1.0698
  407MOL0     H54908   1.852   6.097   9.106  1.5635  0.3364 -0.1488
  407MOL0     H54909   1.526   6.360   9.014 -1.9893 -0.4901 -0.6170
  407MOL0     H54910   1.287   6.401   9.077 -2.8163  1.1981  3.1915
  407MOL0     H54911   1.162   6.606   9.200 -1.5243 -2.4613 -5.0751
  407MOL0     H54912   1.055   6.451   9.194 -3.2905  0.6005  1.0916
  407MOL0     H54913   0.926   6.507   9.345 -1.2498  2.2011  0.1698
  407MOL0     H54914   1.031   6.600   9.447  1.5300 -1.4601  1.0839
  407MOL0     H54915   0.917   6.686   9.179 -3.8996  0.2959 -0.6593
  407MOL0     H54916   1.022   6.790   9.276  1.0324 -0.5339 -1.1574
  407MOL0     H54917   0.747   6.688   9.335 -0.2342  0.1933 -1.3060
  407MOL0     H54918   0.845   6.751   9.469  0.1221  0.9725 -0.7563
  407MOL0     H54919   0.872   6.976   9.315 -0.2215 -0.1672 -2.6404
  407MOL0     H54920   0.713   6.934   9.392 -2.1863  0.9931 -1.7764
  407MOL0     H54921   0.776   6.878   9.093 -2.0966  1.0423 -2.4848
  407MOL0     H54922   0.622   6.847   9.173 -0.4716  0.5740 -0.9912
  407MOL0     H54923   0.774   7.112   9.171  0.5656 -0.7738  2.4548
  407MOL0     H54924   0.600   7.098   9.225  0.4739  0.0155  0.3494
  407MOL0     H54925   0.700   7.036   8.937 -2.3679  0.1215 -2.2235
  407MOL0     H54926   0.646   7.193   8.981  0.1856 -0.1295  1.0722
  407MOL0     H54927   1.402   6.396   9.495  1.3307 -2.2954  0.8628
  407MOL0     H54928   1.630   6.368   9.436 -1.9263  1.9676  1.8661
  407MOL0     H54929   2.046   6.568   9.122  1.9909  0.6023 -1.4965
  407MOL0     H54930   2.224   6.539   8.973 -1.7346  0.8744 -0.0011
  407MOL0     H54931   2.123   5.976   7.266 -0.0337 -0.6969  0.3647
  407MOL0     H54932   1.902   5.851   7.279 -0.0652 -0.2735  1.7843
  407MOL0     H54933   1.495   5.793   7.470 -3.1793 -0.3838  2.6480
  407MOL0     H54934   1.286   5.680   7.482 -0.2628 -1.2623  1.2657
  407MOL0     H54935   1.146   5.488   7.609  1.6814  0.5365 -0.6058
  407MOL0     H54936   1.100   5.532   7.440  0.9983 -0.7454 -0.7371
  407MOL0     H54937   1.044   5.257   7.575  2.7586 -0.6214 -2.3809
  407MOL0     H54938   1.010   5.302   7.407 -1.3562  0.5481 -0.3404
  407MOL0     H54939   0.842   5.447   7.467 -0.4989  0.5803  1.4474
  407MOL0     H54940   0.896   5.478   7.627  2.6515 -0.2021  0.1036
  407MOL0     H54941   0.811   5.227   7.672 -0.5547  0.6719 -0.0105
  407MOL0     H54942   0.715   5.246   7.518 -0.2457 -1.0981 -0.1778
  407MOL0     H54943   0.524   5.528   7.757  1.0688  0.1591  1.7973
  407MOL0     H54944   1.493   5.300   7.453 -1.7556 -0.5292 -0.0377
  407MOL0     H54945   1.713   5.429   7.444 -1.8831 -3.4767 -2.0899
  408MOL0     O54946   4.438   7.079   6.457 -0.1383 -0.1840 -0.8930
  408MOL0     C54947   4.467   7.155   6.544 -0.5509 -0.1103  0.2319
  408MOL0     O54948   4.389   7.249   6.597 -0.4657 -0.3246 -0.8815
  408MOL0     C54949   4.259   7.261   6.556  0.9697 -1.4619 -0.1878
  408MOL0     C54950   4.174   7.155   6.540 -0.0942  0.5293 -0.1875
  408MOL0     C54951   4.036   7.183   6.515 -0.5888 -0.3793  1.2754
  408MOL0     C54952   3.987   7.311   6.505  0.0295 -0.4671 -1.1127
  408MOL0     O54953   3.857   7.313   6.480 -0.2620 -0.3411 -0.2043
  408MOL0     C54954   3.796   7.440   6.440 -1.0607 -0.2339  0.0135
  408MOL0     C54955   3.646   7.418   6.424 -0.1559  0.0360  0.1086
  408MOL0     C54956   3.573   7.339   6.531 -0.3403 -0.4518 -0.1727
  408MOL0     C54957   3.573   7.399   6.670  0.0809  0.4612 -0.6146
  408MOL0     C54958   3.469   7.324   6.758 -1.0635 -0.6105 -0.4017
  408MOL0     C54959   3.506   7.181   6.788 -0.0572  0.0787  0.6469
  408MOL0     C54960   3.406   7.113   6.884 -0.3322 -0.3295 -0.5094
  408MOL0     C54961   3.268   7.111   6.821  0.9857  0.4598 -0.0756
  408MOL0     N54962   3.204   6.986   6.852  0.1438 -0.5307 -0.3165
  408MOL0     C54963   3.227   6.881   6.782  0.2841  0.6427 -0.2959
  408MOL0     C54964   3.151   6.779   6.830  0.1796  0.3394 -0.2263
  408MOL0     C54965   3.145   6.635   6.785  0.5293  0.1781 -0.5874
  408MOL0     C54966   3.007   6.591   6.813 -0.1690 -0.8136 -0.7715
  408MOL0     C54967   2.995   6.450   6.774  0.1691 -0.0033 -0.2898
  408MOL0     C54968   2.846   6.414   6.765  0.7233 -0.4396 -0.4000
  408MOL0     O54969   2.795   6.436   6.898  0.2671 -0.1712 -0.2757
  408MOL0     C54970   2.677   6.383   6.934 -0.0632  0.4574  0.6660
  408MOL0     C54971   2.585   6.318   6.856  1.0074  0.2141  0.1506
  408MOL0     C54972   2.456   6.280   6.884 -0.7565 -0.4645 -1.1085
  408MOL0     C54973   2.385   6.218   6.773  0.1428  0.3975 -0.2662
  408MOL0     C54974   2.421   6.298   7.020 -0.1882 -1.1151  0.5428
  408MOL0     C54975   2.294   6.255   7.081  0.6591  0.3641  0.6884
  408MOL0     O54976   2.218   6.177   7.008  0.6149  0.8666  0.1013
  408MOL0     C54977   2.086   6.133   7.041  0.1914  0.0867  0.7320
  408MOL0     C54978   2.035   6.039   6.951 -0.4153 -0.1031 -0.0748
  408MOL0     C54979   1.901   5.990   6.968  0.4738 -0.5936  0.1277
  408MOL0     C54980   1.815   6.044   7.078  0.3225 -0.2738  0.3550
  408MOL0     O54981   1.685   6.002   7.111 -0.2390  0.4165 -1.2348
  408MOL0     C54982   1.637   5.880   7.058 -0.7879 -0.2005 -0.4795
  408MOL0     C54983   1.491   5.879   7.093 -0.3306 -0.3211  0.1441
  408MOL0     C54984   1.426   5.741   7.067 -0.5071 -0.3607 -0.2252
  408MOL0     C54985   1.280   5.750   7.078 -0.2639  0.4437  0.4014
  408MOL0     C54986   1.203   5.616   7.110 -0.2046  0.9008  0.7033
  408MOL0     C54987   1.070   5.641   7.168 -0.4514  0.7714  0.8667
  408MOL0     C54988   0.981   5.520   7.152 -0.3047 -0.6803  0.1938
  408MOL0     C54989   0.837   5.563   7.195  0.4397  0.5755  0.0880
  408MOL0    Cl54990   0.738   5.414   7.205  0.0961  0.0370 -0.0410
  408MOL0     C54991   1.867   6.136   7.163  0.0448 -0.4526 -0.1817
  408MOL0     C54992   2.000   6.179   7.151 -0.1150 -0.4025  0.3070
  408MOL0     O54993   2.263   6.302   7.191 -0.2706  0.0391 -0.0694
  408MOL0     C54994   2.515   6.366   7.109  0.6718 -0.1149  0.3049
  408MOL0     C54995   2.640   6.411   7.065  0.8054 -0.4424 -0.2656
  408MOL0     N54996   3.086   6.834   6.940 -0.0357  0.7802  0.9441
  408MOL0     N54997   3.109   6.957   6.944  0.5837  0.9198  0.3456
  408MOL0     C54998   4.075   7.417   6.539 -0.0441 -0.5516  0.2104
  408MOL0     C54999   4.208   7.387   6.565  0.8672 -0.1285  0.2302
  408MOL0     C55000   4.598   7.128   6.618  0.4721  0.2459  0.0710
  408MOL0     C55001   4.623   7.175   6.749 -1.3570  0.1356  0.0817
  408MOL0     C55002   4.756   7.150   6.805  0.4992  0.3447  0.2658
  408MOL0     C55003   4.848   7.060   6.744 -0.6194  0.2522  0.9147
  408MOL0     O55004   4.976   7.028   6.782 -0.1855 -0.0955 -0.2462
  408MOL0     C55005   5.027   7.054   6.912  0.4560 -0.6492  0.0855
  408MOL0     C55006   5.177   7.054   6.902  0.0394  0.1470  0.8728
  408MOL0     C55007   5.238   7.173   6.818  0.3883 -0.0082 -0.7558
  408MOL0     C55008   5.385   7.147   6.807 -0.4225 -0.3311  0.3039
  408MOL0     C55009   5.476   7.265   6.788  0.0443 -0.2024  0.3270
  408MOL0     C55010   5.552   7.365   6.776 -0.0823  0.0559  0.6227
  408MOL0     C55011   4.807   6.994   6.628 -0.5992 -0.5847  0.1798
  408MOL0     C55012   4.687   7.038   6.562 -0.5532  0.1116  0.1028
  408MOL0     H55013   4.202   7.050   6.534  0.0921  0.5718 -0.0867
  408MOL0     H55014   3.965   7.101   6.507 -1.0911  0.1596 -0.0694
  408MOL0     H55015   3.825   7.516   6.513  1.7485 -2.3458  1.2802
  408MOL0     H55016   3.838   7.457   6.340 -1.3015  3.4705  0.3852
  408MOL0     H55017   3.600   7.517   6.430  0.8451  0.6086 -1.1620
  408MOL0     H55018   3.618   7.380   6.325 -0.3819 -3.9144  1.5016
  408MOL0     H55019   3.470   7.339   6.493 -1.3329  4.8893  1.6788
  408MOL0     H55020   3.612   7.237   6.542  0.4305  0.0193  1.9164
  408MOL0     H55021   3.671   7.386   6.716  1.3451 -0.0047 -3.2179
  408MOL0     H55022   3.553   7.507   6.667 -0.2803  0.4554  0.9488
  408MOL0     H55023   3.457   7.376   6.853  0.8670  0.7599 -0.8477
  408MOL0     H55024   3.372   7.342   6.709 -1.3949 -0.2495  0.3684
  408MOL0     H55025   3.514   7.117   6.700 -0.3300 -1.1076  1.4591
  408MOL0     H55026   3.607   7.176   6.831 -0.6633 -1.9908  1.9749
  408MOL0     H55027   3.433   7.009   6.903  1.0097 -0.6308 -3.5020
  408MOL0     H55028   3.401   7.165   6.980  2.0059 -0.4797 -0.2480
  408MOL0     H55029   3.265   7.113   6.712 -1.1603 -2.2536 -0.1830
  408MOL0     H55030   3.204   7.196   6.847  1.9220  1.6566 -1.5101
  408MOL0     H55031   3.294   6.870   6.697  1.1885  0.3184  0.4502
  408MOL0     H55032   3.168   6.636   6.678 -1.9817  0.4307 -1.1894
  408MOL0     H55033   3.220   6.582   6.844  0.0123  0.5725  0.4522
  408MOL0     H55034   2.949   6.667   6.761  1.4623  1.9619  1.2181
  408MOL0     H55035   2.980   6.589   6.919 -2.7640 -3.8818 -1.3253
  408MOL0     H55036   3.043   6.376   6.839 -0.2471  1.3048  1.5582
  408MOL0     H55037   3.037   6.429   6.675 -1.2842  0.0310 -0.9357
  408MOL0     H55038   2.815   6.314   6.732 -0.4662 -0.7088  1.3930
  408MOL0     H55039   2.805   6.496   6.705  1.3064  1.1682  1.3353
  408MOL0     H55040   2.615   6.287   6.756 -0.0780 -3.1605  0.7429
  408MOL0     H55041   2.405   6.255   6.672 -2.1781 -0.7307 -1.1899
  408MOL0     H55042   2.415   6.113   6.774 -0.3859  0.2466 -0.3746
  408MOL0     H55043   2.279   6.241   6.788  0.7626  2.3492  1.8625
  408MOL0     H55044   2.105   6.012   6.873  0.8702  2.5906  0.0552
  408MOL0     H55045   1.869   5.922   6.889  2.5445  0.5035 -1.7766
  408MOL0     H55046   1.647   5.864   6.950  2.7891  0.0672 -0.3130
  408MOL0     H55047   1.686   5.800   7.114 -0.3335 -0.1181 -0.7508
  408MOL0     H55048   1.467   5.910   7.196 -0.7518 -0.0471 -0.0335
  408MOL0     H55049   1.448   5.962   7.036  2.7671  1.0912 -0.3564
  408MOL0     H55050   1.466   5.672   7.141 -3.5664 -0.5952  1.3378
  408MOL0     H55051   1.451   5.723   6.962  1.0575  2.3776 -0.4414
  408MOL0     H55052   1.262   5.826   7.155  1.9678 -1.0594  2.5654
  408MOL0     H55053   1.233   5.789   6.987 -1.7967  0.4646  1.1670
  408MOL0     H55054   1.254   5.545   7.176 -1.2951  0.1648  0.7949
  408MOL0     H55055   1.191   5.562   7.016  0.1927 -0.5059  1.4263
  408MOL0     H55056   1.078   5.675   7.272 -0.7916  0.7683  0.8944
  408MOL0     H55057   1.029   5.719   7.103 -1.2821 -0.4441 -0.1142
  408MOL0     H55058   1.031   5.440   7.208  2.0524 -0.5890 -1.6529
  408MOL0     H55059   0.955   5.490   7.050  0.7249 -1.2598  0.0918
  408MOL0     H55060   0.793   5.631   7.121 -0.2332 -0.3604 -0.4011
  408MOL0     H55061   0.840   5.611   7.292  0.1480 -0.3192  0.5552
  408MOL0     H55062   1.807   6.179   7.243 -0.0437  1.1963 -1.0829
  408MOL0     H55063   2.034   6.244   7.231  0.8600 -0.1303 -0.3175
  408MOL0     H55064   2.494   6.363   7.215 -1.8983 -5.4358 -0.0046
  408MOL0     H55065   2.724   6.454   7.118 -0.4178  1.6757  0.1107
  408MOL0     H55066   4.043   7.521   6.540  0.0596 -0.4116  4.0748
  408MOL0     H55067   4.271   7.472   6.591 -0.3300  0.7557  0.3184
  408MOL0     H55068   4.542   7.224   6.801 -1.3533 -0.9107  1.1067
  408MOL0     H55069   4.778   7.193   6.902  0.4227  0.9311  0.0237
  408MOL0     H55070   5.004   7.155   6.946  1.9632 -0.7601  1.5604
  408MOL0     H55071   4.982   6.985   6.983  0.0000 -0.6616 -0.2093
  408MOL0     H55072   5.198   6.953   6.864 -1.7255 -0.3125  1.0282
  408MOL0     H55073   5.206   7.066   7.007 -1.3985 -3.2797  1.7873
  408MOL0     H55074   5.226   7.276   6.855 -1.0213 -0.0076 -1.1709
  408MOL0     H55075   5.194   7.175   6.718 -2.3427  1.6577  0.3668
  408MOL0     H55076   5.406   7.078   6.725  4.7994 -0.7515  1.5949
  408MOL0     H55077   5.433   7.109   6.898  0.8274 -0.0915 -0.2297
  408MOL0     H55078   5.616   7.449   6.761 -1.0415  0.6348 -0.4319
  408MOL0     H55079   4.876   6.921   6.585  0.2053 -0.2863  0.9344
  408MOL0     H55080   4.669   7.004   6.461 -2.7053  1.1027  0.1011
  409MOL0     O55081   0.810   5.029   0.582  0.3564  0.6631 -0.2914
  409MOL0     C55082   0.843   5.136   0.614  0.6668 -0.2127 -1.0504
  409MOL0     O55083   0.763   5.237   0.659  0.6166  0.6183  0.0423
  409MOL0     C55084   0.627   5.206   0.683  0.2957  0.1585  0.4461
  409MOL0     C55085   0.591   5.105   0.769  0.3045 -0.0147 -0.1177
  409MOL0     C55086   0.458   5.080   0.795 -0.4083  0.3196  0.2312
  409MOL0     C55087   0.359   5.142   0.725  0.0931 -0.4746 -0.2058
  409MOL0     O55088   0.222   5.115   0.731 -0.1010  0.9069  0.2931
  409MOL0     C55089   0.183   5.036   0.851  0.2541 -0.2440  0.6733
  409MOL0     C55090   0.036   5.063   0.862  0.1793  0.5131 -0.2227
  409MOL0     C55091  -0.063   5.010   0.763 -0.0377  0.1664  0.0818
  409MOL0     C55092  -0.061   4.854   0.755  0.9667 -0.5841  0.0280
  409MOL0     C55093  -0.168   4.805   0.662 -1.0016  0.5154  0.8333
  409MOL0     C55094  -0.307   4.831   0.701 -0.2797 -0.3654 -0.3990
  409MOL0     C55095  -0.339   4.772   0.841  0.3177  0.0635 -0.9557
  409MOL0     C55096  -0.485   4.710   0.842 -1.4689 -0.1661 -0.2801
  409MOL0     N55097  -0.582   4.807   0.841  0.2488  0.0888  0.2721
  409MOL0     C55098  -0.620   4.896   0.943 -0.5639 -1.1825  0.1874
  409MOL0     C55099  -0.717   4.982   0.882  0.2190 -0.4489  0.0682
  409MOL0     C55100  -0.795   5.089   0.944 -0.5525 -0.1788 -0.0177
  409MOL0     C55101  -0.912   5.041   1.034  0.7794  0.3817  0.1427
  409MOL0     C55102  -0.929   5.135   1.157 -0.5628  0.2307 -0.0514
  409MOL0     C55103  -1.050   5.076   1.228  0.1084  0.6135  0.4785
  409MOL0     O55104  -1.160   5.105   1.144  0.1279 -0.2265 -0.3504
  409MOL0     C55105  -1.289   5.112   1.200 -0.6665  0.2115  0.6218
  409MOL0     C55106  -1.315   5.101   1.338  0.0247  0.0757 -0.1857
  409MOL0     C55107  -1.449   5.099   1.386  1.0311 -0.7584 -0.1212
  409MOL0     C55108  -1.470   5.097   1.533  0.8039 -0.0134 -0.9161
  409MOL0     C55109  -1.557   5.099   1.300  0.4734 -0.2406  0.2378
  409MOL0     C55110  -1.702   5.085   1.331 -0.3771 -0.6685 -0.2224
  409MOL0     O55111  -1.734   5.089   1.466 -0.9596  0.2920 -1.0771
  409MOL0     C55112  -1.862   5.074   1.504  0.0235  0.4061 -0.7870
  409MOL0     C55113  -1.982   5.110   1.429 -0.1675  0.0507 -0.6272
  409MOL0     C55114  -2.109   5.110   1.486 -0.1570 -0.9769  0.0326
  409MOL0     C55115  -2.132   5.075   1.624  0.4084 -1.0322 -0.0272
  409MOL0     O55116  -2.256   5.104   1.675 -0.2591  0.4134  0.2400
  409MOL0     C55117  -2.285   5.118   1.808 -0.3307  0.4658 -0.7993
  409MOL0     C55118  -2.429   5.186   1.814 -0.6638  0.1155 -1.0058
  409MOL0     C55119  -2.517   5.082   1.750 -1.1839  0.2415  0.0239
  409MOL0     C55120  -2.654   5.136   1.706 -0.1739  0.8572  0.2089
  409MOL0     C55121  -2.745   5.027   1.643 -0.5049 -0.1621 -0.4192
  409MOL0     C55122  -2.741   4.892   1.718  0.3161 -0.2480  0.4573
  409MOL0     C55123  -2.855   4.798   1.676 -0.6196 -0.1835 -0.0279
  409MOL0     C55124  -2.813   4.721   1.554 -0.0483 -0.0168 -0.0856
  409MOL0    Cl55125  -2.953   4.615   1.508  0.2262  0.0625  0.4033
  409MOL0     C55126  -2.019   5.031   1.695 -0.8023 -0.0618  0.4149
  409MOL0     C55127  -1.896   5.033   1.635 -0.3203 -0.4457  0.8792
  409MOL0     O55128  -1.780   5.066   1.238  0.7343 -0.1549 -0.7721
  409MOL0     C55129  -1.526   5.116   1.166 -0.7522  0.2992  1.3824
  409MOL0     C55130  -1.394   5.121   1.119 -0.3079 -0.2289 -0.6122
  409MOL0     N55131  -0.741   4.932   0.751 -0.0859 -0.0763 -0.2687
  409MOL0     N55132  -0.655   4.834   0.728 -1.4038  0.0698 -0.0607
  409MOL0     C55133   0.398   5.244   0.638 -0.1671 -0.2351  0.5985
  409MOL0     C55134   0.535   5.279   0.611 -0.1467  0.3074 -0.7139
  409MOL0     C55135   0.983   5.178   0.584  0.1998  0.6850  0.0985
  409MOL0     C55136   1.036   5.293   0.637 -0.6605  0.0145 -0.0201
  409MOL0     C55137   1.163   5.343   0.601 -0.7143 -1.1455 -0.4085
  409MOL0     C55138   1.236   5.286   0.498  0.1032  0.9322  0.1515
  409MOL0     O55139   1.348   5.332   0.435  0.2184  0.3105  0.2298
  409MOL0     C55140   1.399   5.470   0.452  0.4358 -0.8435 -1.1448
  409MOL0     C55141   1.543   5.493   0.392 -0.0603  0.1656 -0.1643
  409MOL0     C55142   1.551   5.437   0.249 -0.1014 -0.5684 -0.2587
  409MOL0     C55143   1.682   5.478   0.176  0.5326 -0.4443 -1.2598
  409MOL0     C55144   1.794   5.425   0.254  0.3826  0.6814 -0.2618
  409MOL0     C55145   1.874   5.359   0.325  0.1922  0.5160  0.4694
  409MOL0     C55146   1.196   5.161   0.468 -0.1379  0.3144  0.1492
  409MOL0     C55147   1.069   5.107   0.501 -0.1018  0.5703  0.0174
  409MOL0     H55148   0.667   5.047   0.820  2.3193  1.1531 -1.6596
  409MOL0     H55149   0.432   5.010   0.874 -1.6957  1.5407  0.9195
  409MOL0     H55150   0.198   4.933   0.818  2.2436  1.0103 -2.8983
  409MOL0     H55151   0.239   5.066   0.940 -0.7548 -2.5578  2.1806
  409MOL0     H55152   0.008   5.030   0.962 -1.3326 -1.6678 -1.2786
  409MOL0     H55153   0.036   5.172   0.867  1.1565  0.6079 -1.4266
  409MOL0     H55154  -0.160   5.046   0.799 -0.0885 -0.6680  0.8324
  409MOL0     H55155  -0.041   5.053   0.665 -1.0456  1.1650  0.2732
  409MOL0     H55156   0.036   4.828   0.710  0.6602  0.5795 -1.3778
  409MOL0     H55157  -0.072   4.807   0.852  1.5285 -2.0687 -0.6028
  409MOL0     H55158  -0.163   4.855   0.565 -4.1243  2.8677  1.7373
  409MOL0     H55159  -0.156   4.696   0.657  2.4465  0.8117  0.1981
  409MOL0     H55160  -0.330   4.938   0.705  0.7194 -0.0415 -2.0696
  409MOL0     H55161  -0.381   4.786   0.633 -2.1229  0.0402  1.2366
  409MOL0     H55162  -0.271   4.689   0.858  0.7793  0.4479 -0.9191
  409MOL0     H55163  -0.318   4.845   0.919 -1.1862 -0.1438 -0.3247
  409MOL0     H55164  -0.498   4.643   0.928  2.5128 -1.3760 -0.4177
  409MOL0     H55165  -0.482   4.652   0.749  5.1787  1.1378 -1.4036
  409MOL0     H55166  -0.576   4.921   1.039  1.1619  1.1692 -1.1169
  409MOL0     H55167  -0.729   5.149   1.007 -3.0038  1.7912  0.8174
  409MOL0     H55168  -0.831   5.148   0.859 -1.3096 -0.5406  0.0488
  409MOL0     H55169  -0.905   4.935   1.057  2.5001  0.4682  0.2037
  409MOL0     H55170  -1.000   5.063   0.974  1.6062  3.5777 -0.0966
  409MOL0     H55171  -0.938   5.238   1.120 -3.6508 -0.3739 -1.2740
  409MOL0     H55172  -0.847   5.129   1.229 -1.5907 -1.4283  1.0310
  409MOL0     H55173  -1.061   5.122   1.326  4.7535  2.4008  0.4049
  409MOL0     H55174  -1.039   4.969   1.247 -0.5673  0.6899  1.3505
  409MOL0     H55175  -1.243   5.100   1.418  1.3499 -1.6714 -1.3148
  409MOL0     H55176  -1.505   5.197   1.559  1.0733 -0.4810  1.4087
  409MOL0     H55177  -1.534   5.017   1.571 -0.8281  0.5845 -2.2711
  409MOL0     H55178  -1.371   5.093   1.580  0.3264 -4.1803  0.1346
  409MOL0     H55179  -1.971   5.160   1.334 -0.9626  4.2470  1.2780
  409MOL0     H55180  -2.194   5.151   1.432 -2.3991 -1.6940  2.7586
  409MOL0     H55181  -2.290   5.019   1.855 -0.6378  0.5399 -0.6695
  409MOL0     H55182  -2.208   5.176   1.860  0.5060 -0.8005 -0.5910
  409MOL0     H55183  -2.464   5.200   1.916 -2.6452 -0.9875 -1.4901
  409MOL0     H55184  -2.424   5.281   1.760  1.8920  0.9673  0.5319
  409MOL0     H55185  -2.531   5.010   1.831  0.6941 -1.4274 -1.0417
  409MOL0     H55186  -2.478   5.025   1.665 -0.4806 -2.2289  1.8922
  409MOL0     H55187  -2.703   5.169   1.798  1.0013  0.9627  0.8052
  409MOL0     H55188  -2.648   5.218   1.633  2.4911 -0.7241 -1.5002
  409MOL0     H55189  -2.721   5.011   1.538 -1.5185 -0.5754 -0.5995
  409MOL0     H55190  -2.848   5.060   1.629  0.4427  3.1051 -0.5894
  409MOL0     H55191  -2.648   4.840   1.694  0.0747 -1.5132  2.1417
  409MOL0     H55192  -2.740   4.921   1.823  2.7661  2.9730 -0.2894
  409MOL0     H55193  -2.945   4.857   1.658  0.8061  1.9758 -0.5182
  409MOL0     H55194  -2.872   4.722   1.752 -0.0378 -1.2180 -0.9123
  409MOL0     H55195  -2.729   4.656   1.578 -0.2719 -1.9071 -3.7473
  409MOL0     H55196  -2.789   4.786   1.470 -1.1606 -2.0837 -2.1057
  409MOL0     H55197  -2.012   4.995   1.798 -2.8423 -4.8704 -0.8721
  409MOL0     H55198  -1.815   4.998   1.699 -0.5190 -2.1562  0.2532
  409MOL0     H55199  -1.597   5.105   1.084  0.9744 -2.4996  0.1050
  409MOL0     H55200  -1.371   5.131   1.013  1.0924 -1.4212 -0.4644
  409MOL0     H55201   0.320   5.300   0.588 -2.0262 -0.3557  3.1521
  409MOL0     H55202   0.558   5.372   0.559 -0.4239  2.9441  3.4218
  409MOL0     H55203   0.979   5.366   0.692  0.0171  1.8585 -1.6529
  409MOL0     H55204   1.202   5.432   0.647 -0.3989 -1.0389 -0.8721
  409MOL0     H55205   1.325   5.539   0.411 -0.7414 -1.9624 -0.9720
  409MOL0     H55206   1.405   5.497   0.558  1.6889  1.2975 -1.7159
  409MOL0     H55207   1.614   5.455   0.466 -1.0023  1.3809  1.4282
  409MOL0     H55208   1.559   5.601   0.390 -1.7735  0.4925 -3.3471
  409MOL0     H55209   1.463   5.472   0.193  0.0471  0.3657  0.0609
  409MOL0     H55210   1.548   5.329   0.233  0.3231 -0.1678 -4.1595
  409MOL0     H55211   1.690   5.587   0.177 -0.3478 -0.2405  2.9787
  409MOL0     H55212   1.683   5.440   0.073 -0.5473  0.9903 -1.8411
  409MOL0     H55213   1.925   5.298   0.398  0.6553  0.1580 -0.1467
  409MOL0     H55214   1.255   5.097   0.403  1.3326  1.7489 -0.0040
  409MOL0     H55215   1.031   5.028   0.437  1.6677  0.4339 -0.9507
  410MOL0     O55216   6.144   9.043   6.957  0.1927  0.6591 -0.4082
  410MOL0     C55217   6.164   9.123   6.864 -0.1364 -0.0843 -0.1430
  410MOL0     O55218   6.111   9.115   6.733 -0.0887  0.2004  0.4496
  410MOL0     C55219   6.010   9.028   6.709 -0.1027 -0.3574  0.6935
  410MOL0     C55220   5.881   9.069   6.653 -0.1416 -0.4086  0.7773
  410MOL0     C55221   5.768   8.981   6.655  0.4317  0.1360  0.3817
  410MOL0     C55222   5.780   8.851   6.711 -0.6514 -0.1121  0.1577
  410MOL0     O55223   5.667   8.774   6.698 -0.6808  0.2743  0.0315
  410MOL0     C55224   5.666   8.633   6.730 -0.3269 -0.0932  0.6653
  410MOL0     C55225   5.538   8.565   6.691 -0.5264 -0.3879  0.2763
  410MOL0     C55226   5.418   8.625   6.745 -0.0414 -0.4059 -0.2311
  410MOL0     C55227   5.329   8.679   6.634  1.0412 -0.5525 -0.2998
  410MOL0     C55228   5.228   8.789   6.680  0.1808  1.2992 -0.6834
  410MOL0     C55229   5.132   8.747   6.799  0.4898  0.8019  0.0029
  410MOL0     C55230   5.043   8.639   6.773  0.2734 -0.7944  0.2317
  410MOL0     C55231   4.957   8.601   6.889 -0.2271 -0.6198 -0.6029
  410MOL0     N55232   4.848   8.528   6.834  0.6665  0.4587 -0.1517
  410MOL0     C55233   4.721   8.574   6.830 -0.6809 -0.0694 -1.0549
  410MOL0     C55234   4.656   8.485   6.753  1.0441 -0.0990  0.0872
  410MOL0     C55235   4.510   8.486   6.722 -0.4897 -0.5682  0.1417
  410MOL0     C55236   4.433   8.359   6.767 -0.7124  0.2585  0.6358
  410MOL0     C55237   4.286   8.361   6.767  0.9449  0.1793 -0.4462
  410MOL0     C55238   4.213   8.229   6.802  0.3595 -0.1284  0.1388
  410MOL0     O55239   4.073   8.234   6.816  0.7460  0.3497 -0.7113
  410MOL0     C55240   3.976   8.263   6.724 -0.3523 -0.2967  0.0335
  410MOL0     C55241   4.002   8.275   6.584 -0.5165  0.2195 -1.4652
  410MOL0     C55242   3.898   8.289   6.492 -0.6579 -0.3421  0.4382
  410MOL0     C55243   3.949   8.272   6.353  0.4129  0.7049 -0.1033
  410MOL0     C55244   3.769   8.300   6.534  0.0059 -0.3562 -0.2008
  410MOL0     C55245   3.647   8.283   6.447  0.5968 -0.4169  0.2786
  410MOL0     O55246   3.516   8.285   6.501  0.1923 -0.1022  0.0504
  410MOL0     C55247   3.402   8.252   6.423 -0.3223 -0.4474 -0.6313
  410MOL0     C55248   3.278   8.319   6.442 -0.0594 -0.3076  0.4399
  410MOL0     C55249   3.159   8.289   6.374 -0.7427  0.2581  0.5144
  410MOL0     C55250   3.163   8.195   6.268  0.1981 -0.0002  0.6713
  410MOL0     O55251   3.062   8.177   6.174  0.3289 -0.3505  0.4219
  410MOL0     C55252   2.947   8.258   6.210  0.6046  0.6766  0.6252
  410MOL0     C55253   2.836   8.250   6.111 -0.0957 -0.8881 -0.5772
  410MOL0     C55254   2.700   8.246   6.168 -0.2140  0.3189 -0.5916
  410MOL0     C55255   2.596   8.249   6.053  1.4271  0.0664  0.2377
  410MOL0     C55256   2.454   8.288   6.103  0.3180 -0.6350  1.1006
  410MOL0     C55257   2.366   8.343   5.993  0.6609  0.4636 -0.0408
  410MOL0     C55258   2.339   8.240   5.879 -0.4399 -0.5613 -1.0689
  410MOL0     C55259   2.223   8.278   5.787  0.0468 -0.0227 -0.7438
  410MOL0    Cl55260   2.077   8.255   5.882  0.2107  0.5207  0.1334
  410MOL0     C55261   3.284   8.119   6.255  0.2845 -0.5679  0.7268
  410MOL0     C55262   3.393   8.149   6.334 -0.3722 -1.0344 -1.0397
  410MOL0     O55263   3.664   8.277   6.332  0.0745  0.8333  0.2080
  410MOL0     C55264   3.746   8.303   6.676 -0.3038 -0.1176 -0.0575
  410MOL0     C55265   3.843   8.274   6.766  0.1576  0.1370  0.2561
  410MOL0     N55266   4.748   8.387   6.715 -0.0602  0.5240 -0.2150
  410MOL0     N55267   4.857   8.418   6.761  0.0802  0.2564 -0.2728
  410MOL0     C55268   5.909   8.807   6.748  0.8697  0.7368  0.2771
  410MOL0     C55269   6.019   8.894   6.757 -0.3921 -0.4118 -0.3080
  410MOL0     C55270   6.265   9.237   6.893 -0.3098  0.2698 -0.1185
  410MOL0     C55271   6.316   9.261   7.020  0.8239 -0.7430 -0.3702
  410MOL0     C55272   6.399   9.370   7.039 -0.0598  0.0121  0.4454
  410MOL0     C55273   6.443   9.448   6.929  0.3570 -0.6306 -0.3455
  410MOL0     O55274   6.535   9.543   6.950 -0.3313 -0.2780  0.1374
  410MOL0     C55275   6.551   9.657   6.863 -0.0666  0.6797 -0.4650
  410MOL0     C55276   6.426   9.745   6.860  0.1928  0.2014 -0.9179
  410MOL0     C55277   6.451   9.855   6.759  0.2671  0.0201 -0.2669
  410MOL0     C55278   6.339   9.954   6.766  0.1114 -0.4583  0.8483
  410MOL0     C55279   6.353  10.039   6.882  0.2708 -0.1139 -0.1616
  410MOL0     C55280   6.380  10.126   6.958 -0.4908  0.1660 -0.8080
  410MOL0     C55281   6.400   9.422   6.801 -0.7931 -0.1746  0.0634
  410MOL0     C55282   6.321   9.315   6.794  0.3549  0.3791 -0.5028
  410MOL0     H55283   5.870   9.171   6.619  4.4477 -0.0382 -0.3514
  410MOL0     H55284   5.670   9.012   6.619  1.0862  2.7744  0.6761
  410MOL0     H55285   5.746   8.588   6.670 -0.3596 -2.9602  2.5437
  410MOL0     H55286   5.685   8.612   6.836 -0.1349  0.4341  0.7385
  410MOL0     H55287   5.545   8.553   6.582  2.9953 -0.3273  0.3883
  410MOL0     H55288   5.551   8.463   6.730  2.5915  1.5148  5.1232
  410MOL0     H55289   5.368   8.544   6.798  1.5152 -1.0093  0.3380
  410MOL0     H55290   5.445   8.704   6.815  4.3954 -0.2386 -1.8452
  410MOL0     H55291   5.381   8.728   6.551  1.7143 -0.3295  0.2477
  410MOL0     H55292   5.271   8.601   6.583 -1.2913  2.0822 -1.9768
  410MOL0     H55293   5.290   8.873   6.711  0.5454  0.8824 -0.2699
  410MOL0     H55294   5.164   8.812   6.594  0.0837 -1.7003 -1.5381
  410MOL0     H55295   5.194   8.723   6.886  1.7660  2.5839 -0.3590
  410MOL0     H55296   5.095   8.849   6.818 -1.0160  0.5559 -1.4347
  410MOL0     H55297   4.974   8.676   6.696  0.4542  0.1658  0.5097
  410MOL0     H55298   5.094   8.549   6.738  2.4604  0.4843 -0.0848
  410MOL0     H55299   4.914   8.688   6.940  1.4829  0.5442 -1.0518
  410MOL0     H55300   5.013   8.547   6.965 -1.8939  0.1213  1.2407
  410MOL0     H55301   4.676   8.664   6.871 -0.5841  0.2109 -1.5411
  410MOL0     H55302   4.469   8.572   6.776  0.6021 -0.8714  1.5273
  410MOL0     H55303   4.477   8.494   6.618  1.4577 -1.0857 -0.5480
  410MOL0     H55304   4.460   8.346   6.872  3.1541  3.8485  0.3165
  410MOL0     H55305   4.464   8.269   6.712 -3.7147  0.0911 -0.9707
  410MOL0     H55306   4.241   8.398   6.674 -0.4341  0.2760  0.2334
  410MOL0     H55307   4.255   8.437   6.839  0.7790  0.1650 -0.4998
  410MOL0     H55308   4.257   8.184   6.892 -1.2287  0.2841  1.1820
  410MOL0     H55309   4.230   8.168   6.714 -3.0413  0.0887 -0.8210
  410MOL0     H55310   4.107   8.287   6.560  0.7528 -0.9887  2.6711
  410MOL0     H55311   3.890   8.344   6.297 -2.7049 -2.5568 -1.3952
  410MOL0     H55312   4.054   8.304   6.351  0.4987  1.0943  3.5306
  410MOL0     H55313   3.944   8.172   6.308  1.6656  0.3653  0.4340
  410MOL0     H55314   3.279   8.392   6.522  2.1405  0.1957  0.0193
  410MOL0     H55315   3.074   8.352   6.402 -0.3826  0.0234  2.2834
  410MOL0     H55316   2.916   8.217   6.306 -3.6318  0.6178 -0.5692
  410MOL0     H55317   2.977   8.363   6.208  0.7215  0.7135  2.6937
  410MOL0     H55318   2.838   8.338   6.046 -0.6739 -1.0359 -0.8019
  410MOL0     H55319   2.848   8.164   6.044 -0.8800  0.0235 -1.9224
  410MOL0     H55320   2.691   8.330   6.238 -0.7629 -0.4693  0.3080
  410MOL0     H55321   2.686   8.158   6.232  0.0428  3.3720  4.1690
  410MOL0     H55322   2.625   8.327   5.981 -0.1069  0.3770 -0.0865
  410MOL0     H55323   2.593   8.150   6.007 -1.0512  0.7180 -1.2200
  410MOL0     H55324   2.455   8.359   6.186 -3.4451  0.2525  0.5807
  410MOL0     H55325   2.410   8.201   6.153 -1.3309 -0.8365 -0.6156
  410MOL0     H55326   2.264   8.365   6.026 -0.1572 -0.9150 -1.4542
  410MOL0     H55327   2.402   8.442   5.963 -0.4039  1.3093  1.3756
  410MOL0     H55328   2.311   8.142   5.919 -0.0439 -0.0135  0.6276
  410MOL0     H55329   2.430   8.239   5.820 -1.3823  0.2544 -2.5882
  410MOL0     H55330   2.223   8.229   5.689 -0.7632  1.1389 -1.3509
  410MOL0     H55331   2.241   8.380   5.753  1.3591  0.2877  0.7841
  410MOL0     H55332   3.280   8.043   6.178 -0.5740  0.4383 -0.2644
  410MOL0     H55333   3.481   8.085   6.327  0.0044 -0.7777  0.7184
  410MOL0     H55334   3.645   8.313   6.714  0.0865 -0.7937  1.2284
  410MOL0     H55335   3.809   8.248   6.866 -2.5538 -1.5656 -1.0162
  410MOL0     H55336   5.930   8.709   6.790  0.4409  0.2989 -0.5180
  410MOL0     H55337   6.117   8.862   6.792  0.4231  3.3430  1.2976
  410MOL0     H55338   6.281   9.216   7.112 -3.1813  0.3195 -1.1668
  410MOL0     H55339   6.429   9.388   7.142  1.2278 -2.7858  0.6835
  410MOL0     H55340   6.637   9.713   6.900 -0.1665  1.7147 -1.7175
  410MOL0     H55341   6.583   9.628   6.762 -0.4823  0.5043 -0.5509
  410MOL0     H55342   6.382   9.787   6.951  3.0372  1.0531  0.1854
  410MOL0     H55343   6.350   9.672   6.830  0.3070 -1.3261  2.0907
  410MOL0     H55344   6.454   9.811   6.658 -2.0885 -0.7377 -0.0773
  410MOL0     H55345   6.547   9.907   6.768  0.2076  0.3633 -1.3770
  410MOL0     H55346   6.246   9.899   6.780 -0.4008  0.8754  3.3279
  410MOL0     H55347   6.337   9.997   6.665  3.1459 -2.7162 -0.3094
  410MOL0     H55348   6.403  10.206   7.026  1.9519  1.0848 -2.5875
  410MOL0     H55349   6.437   9.470   6.712  0.7993  2.4472  1.9953
  410MOL0     H55350   6.296   9.289   6.691  0.2496 -1.0744 -0.1366
  411MOL0     O55351   8.824   3.520   6.729  0.2615  0.2875  0.1060
  411MOL0     C55352   8.775   3.404   6.701 -1.0751  0.5372  0.0357
  411MOL0     O55353   8.646   3.370   6.712 -0.6447 -0.3385  0.0109
  411MOL0     C55354   8.550   3.449   6.769 -0.2382 -0.4245  0.0313
  411MOL0     C55355   8.579   3.551   6.868  0.0667 -0.1909 -0.2608
  411MOL0     C55356   8.470   3.617   6.929  1.2215  0.6931 -0.0696
  411MOL0     C55357   8.339   3.576   6.899 -0.6223 -0.5637  0.1947
  411MOL0     O55358   8.229   3.627   6.961  0.2911 -0.0636  0.7412
  411MOL0     C55359   8.247   3.772   6.982 -0.5201  0.0177  0.0092
  411MOL0     C55360   8.113   3.845   7.013  0.8245 -0.2254  1.1654
  411MOL0     C55361   8.048   3.827   7.144  0.4028  0.3779  0.4317
  411MOL0     C55362   8.123   3.900   7.253 -0.1115  0.0303  0.5791
  411MOL0     C55363   8.034   3.907   7.377  0.1110  0.4466 -0.0620
  411MOL0     C55364   7.933   4.021   7.367  0.7346 -0.2877  0.0988
  411MOL0     C55365   7.815   3.994   7.454 -0.2620 -0.0128 -0.3755
  411MOL0     C55366   7.686   4.078   7.434  0.3929 -0.6373  0.3989
  411MOL0     N55367   7.595   4.039   7.328 -0.5250  0.5370 -0.5932
  411MOL0     C55368   7.457   4.066   7.338 -0.0895  0.3342  0.6157
  411MOL0     C55369   7.404   3.995   7.238  0.1518  0.9275 -0.2321
  411MOL0     C55370   7.260   3.990   7.204 -0.2152  0.1998 -0.2450
  411MOL0     C55371   7.165   3.911   7.302 -0.5022 -0.0511 -0.6219
  411MOL0     C55372   7.032   3.885   7.239 -0.1641  0.3094  0.6315
  411MOL0     C55373   6.916   3.867   7.332 -0.4444  0.5792 -0.7987
  411MOL0     O55374   6.808   3.827   7.239 -0.0995  0.6622  0.0680
  411MOL0     C55375   6.688   3.802   7.303  0.0711  1.1000  0.4070
  411MOL0     C55376   6.666   3.793   7.441  0.2899  0.3211  0.4008
  411MOL0     C55377   6.533   3.779   7.494  1.0315  1.6083 -0.5378
  411MOL0     C55378   6.529   3.775   7.648 -0.8379 -0.6333 -0.6124
  411MOL0     C55379   6.422   3.775   7.402  0.1087 -0.0647  0.1836
  411MOL0     C55380   6.286   3.770   7.448  1.4697  0.2697 -0.4629
  411MOL0     O55381   6.190   3.765   7.347 -0.0363  0.7332  0.2919
  411MOL0     C55382   6.051   3.746   7.361 -0.4854 -1.1232  1.5500
  411MOL0     C55383   5.981   3.754   7.486 -0.2106 -0.0330  0.1446
  411MOL0     C55384   5.841   3.735   7.498 -0.2041  0.5638  0.2241
  411MOL0     C55385   5.770   3.691   7.384  0.0319 -0.4591  0.1832
  411MOL0     O55386   5.627   3.682   7.395  0.3609 -0.1066  0.7598
  411MOL0     C55387   5.556   3.618   7.283  0.1936  0.2259  0.1117
  411MOL0     C55388   5.490   3.727   7.207  0.4010 -0.5059 -0.5084
  411MOL0     C55389   5.379   3.806   7.283 -0.3496  0.1146 -0.7306
  411MOL0     C55390   5.320   3.907   7.194  0.9661  0.2866 -0.3388
  411MOL0     C55391   5.417   4.018   7.155  0.2155  0.0768 -0.5193
  411MOL0     C55392   5.348   4.151   7.100 -0.4683 -0.3117  0.4985
  411MOL0     C55393   5.295   4.128   6.960  0.4280  0.5773 -1.0284
  411MOL0     C55394   5.307   4.260   6.888  0.9342 -0.3209 -0.2219
  411MOL0    Cl55395   5.470   4.310   6.862  0.3650  0.3576  0.2606
  411MOL0     C55396   5.834   3.682   7.261 -0.3521  0.0325  0.6618
  411MOL0     C55397   5.972   3.709   7.255  0.2832 -0.8035  0.1335
  411MOL0     O55398   6.263   3.765   7.570  0.4663 -0.1020  0.3346
  411MOL0     C55399   6.449   3.770   7.268 -0.2814 -0.5016  0.8835
  411MOL0     C55400   6.577   3.785   7.220  0.5211 -0.8119  0.2422
  411MOL0     N55401   7.503   3.907   7.185 -0.3267 -0.0758 -0.0177
  411MOL0     N55402   7.614   3.934   7.249 -0.1530  0.6492  0.0157
  411MOL0     C55403   8.314   3.474   6.806  0.3231  0.1002 -1.3772
  411MOL0     C55404   8.420   3.411   6.740 -0.3583 -0.2841  0.4369
  411MOL0     C55405   8.864   3.291   6.659 -0.0429 -0.3543  0.1643
  411MOL0     C55406   9.002   3.314   6.650 -0.6231  0.2898  0.4776
  411MOL0     C55407   9.095   3.209   6.620 -0.5883 -0.9124 -0.3036
  411MOL0     C55408   9.042   3.080   6.607 -0.2790  0.7413 -0.0919
  411MOL0     O55409   9.128   2.977   6.581  0.0529  0.0505 -0.0850
  411MOL0     C55410   9.093   2.847   6.623 -0.1228  0.3612 -0.3950
  411MOL0     C55411   9.211   2.754   6.636 -0.1051 -0.4271  0.6733
  411MOL0     C55412   9.318   2.821   6.724  0.9969  0.4171  0.3303
  411MOL0     C55413   9.442   2.729   6.740 -0.1809 -0.8388  0.0498
  411MOL0     C55414   9.554   2.775   6.657  0.2690 -0.6526  0.6581
  411MOL0     C55415   9.640   2.803   6.585 -0.0269 -0.2878  0.9777
  411MOL0     C55416   8.908   3.058   6.607  0.0795 -0.2996 -0.0616
  411MOL0     C55417   8.809   3.159   6.630 -0.6174  0.4462 -0.3796
  411MOL0     H55418   8.680   3.573   6.901 -0.6606  0.4088  1.7099
  411MOL0     H55419   8.501   3.692   7.001 -0.2856  1.2922 -0.0163
  411MOL0     H55420   8.305   3.792   7.073  2.7428 -1.8437 -1.4970
  411MOL0     H55421   8.294   3.824   6.898 -0.9367 -0.0246 -0.2488
  411MOL0     H55422   8.125   3.950   6.986  0.5365 -0.5349 -0.2517
  411MOL0     H55423   8.048   3.804   6.935  0.6910  1.1890  0.4986
  411MOL0     H55424   7.943   3.858   7.133 -0.4434 -2.3287  0.2379
  411MOL0     H55425   8.046   3.720   7.167 -2.0702  0.3003  0.1240
  411MOL0     H55426   8.213   3.851   7.289 -0.8201 -0.0494  2.3695
  411MOL0     H55427   8.155   3.996   7.212 -0.0062 -0.2104  0.0955
  411MOL0     H55428   7.991   3.807   7.388  0.0169  0.3263 -1.4124
  411MOL0     H55429   8.102   3.923   7.462  0.8852  2.2291 -0.9682
  411MOL0     H55430   7.988   4.112   7.395 -1.1383 -0.0622  3.5608
  411MOL0     H55431   7.896   4.045   7.267 -0.8921  3.5048  1.4002
  411MOL0     H55432   7.791   3.888   7.457  2.4133 -0.6613  0.0077
  411MOL0     H55433   7.848   4.008   7.557 -0.5848  0.3281 -0.3139
  411MOL0     H55434   7.726   4.179   7.419 -4.4571  1.5513  0.3880
  411MOL0     H55435   7.636   4.073   7.531 -2.5848 -2.3735 -1.0648
  411MOL0     H55436   7.399   4.137   7.396 -0.0770  1.4026 -0.6232
  411MOL0     H55437   7.228   4.093   7.189 -0.3879  0.3262  0.9048
  411MOL0     H55438   7.257   3.933   7.110 -1.0933 -0.7071  0.3144
  411MOL0     H55439   7.145   3.969   7.392 -0.2238 -0.3233 -0.3829
  411MOL0     H55440   7.207   3.814   7.331 -1.9330 -0.1808  1.1654
  411MOL0     H55441   7.025   3.796   7.176 -2.6078  0.1882  0.9799
  411MOL0     H55442   7.016   3.972   7.175  0.6115  1.0242  1.3711
  411MOL0     H55443   6.906   3.961   7.387  0.7210 -1.2914  2.9158
  411MOL0     H55444   6.927   3.783   7.402  0.7091  0.8163 -0.6843
  411MOL0     H55445   6.751   3.803   7.508  0.3343  3.5353  0.0269
  411MOL0     H55446   6.483   3.682   7.682 -2.1810  0.4948  0.7592
  411MOL0     H55447   6.630   3.766   7.690 -0.8534  2.6840  0.4298
  411MOL0     H55448   6.480   3.863   7.690  0.8966  0.1051 -0.0544
  411MOL0     H55449   6.036   3.767   7.579 -1.1587  1.7080  0.5231
  411MOL0     H55450   5.776   3.730   7.585 -1.1395  1.6776 -0.3746
  411MOL0     H55451   5.622   3.556   7.222  1.0726  1.4906 -0.2754
  411MOL0     H55452   5.491   3.544   7.330 -0.1497  2.3257  3.1718
  411MOL0     H55453   5.572   3.796   7.187 -0.2046  1.1449  2.2027
  411MOL0     H55454   5.436   3.683   7.122 -0.0700  0.4503 -0.7232
  411MOL0     H55455   5.424   3.842   7.376  0.2988 -4.4420  0.9879
  411MOL0     H55456   5.300   3.737   7.314  1.6111 -2.3480 -0.9678
  411MOL0     H55457   5.287   3.859   7.102 -4.0340 -2.5772  2.5040
  411MOL0     H55458   5.235   3.940   7.255  3.6261 -1.2386  4.7795
  411MOL0     H55459   5.499   3.984   7.091  1.7447 -1.6855  2.1595
  411MOL0     H55460   5.467   4.051   7.247  1.5349 -1.0123 -0.8010
  411MOL0     H55461   5.264   4.184   7.162 -1.0580 -3.2228  1.4266
  411MOL0     H55462   5.416   4.236   7.105 -1.4868  0.6238 -0.8512
  411MOL0     H55463   5.189   4.103   6.967 -0.0103  1.6218 -3.1067
  411MOL0     H55464   5.343   4.043   6.912 -1.0189  0.4520 -2.3249
  411MOL0     H55465   5.253   4.342   6.937 -1.8196 -2.9545  1.5796
  411MOL0     H55466   5.260   4.255   6.789  1.4237  0.5187 -0.5049
  411MOL0     H55467   5.777   3.660   7.172 -1.2885  0.9277  1.0145
  411MOL0     H55468   6.026   3.707   7.160 -1.7512  1.7529 -1.2186
  411MOL0     H55469   6.364   3.753   7.202 -0.6506 -0.5697  1.3709
  411MOL0     H55470   6.590   3.787   7.112  4.0920 -1.4663  0.5356
  411MOL0     H55471   8.214   3.435   6.792 -0.5086  0.4880  2.3392
  411MOL0     H55472   8.403   3.324   6.677  0.3717 -1.0562  1.2767
  411MOL0     H55473   9.056   3.407   6.651  2.5462 -1.4029 -0.0152
  411MOL0     H55474   9.202   3.225   6.614 -0.9192  1.6885 -0.5300
  411MOL0     H55475   9.046   2.854   6.722  0.4018  1.1405 -0.1937
  411MOL0     H55476   9.011   2.809   6.561  2.6465  0.3656 -4.4654
  411MOL0     H55477   9.259   2.731   6.540 -1.8279 -1.4797  0.0118
  411MOL0     H55478   9.166   2.662   6.675 -2.9999  0.6141  0.0388
  411MOL0     H55479   9.276   2.839   6.824  0.1442 -1.7055  0.4196
  411MOL0     H55480   9.345   2.919   6.686 -0.2779 -0.5229 -3.4360
  411MOL0     H55481   9.413   2.628   6.711  1.4382 -0.9780 -1.2568
  411MOL0     H55482   9.463   2.717   6.846  0.6152  1.5304  0.2202
  411MOL0     H55483   9.724   2.827   6.522 -1.3690 -1.2554 -1.2990
  411MOL0     H55484   8.867   2.959   6.591  0.8833 -0.5212 -0.7789
  411MOL0     H55485   8.705   3.129   6.634 -0.4987  0.1425  0.8817
  412MOL0     O55486   1.780  11.232   5.472  0.7591 -0.3613 -0.0587
  412MOL0     C55487   1.753  11.175   5.363  0.0237 -0.3565 -0.1888
  412MOL0     O55488   1.633  11.182   5.299 -0.5814 -0.3298  0.3361
  412MOL0     C55489   1.530  11.261   5.338  0.3514  0.4023  0.2360
  412MOL0     C55490   1.491  11.278   5.471  0.3731 -0.4075  0.5494
  412MOL0     C55491   1.380  11.358   5.497 -0.4859 -1.0192 -0.1376
  412MOL0     C55492   1.307  11.416   5.399 -0.1512  0.4216 -0.3894
  412MOL0     O55493   1.198  11.488   5.429 -0.2819  0.3472  0.0903
  412MOL0     C55494   1.083  11.534   5.351 -0.0483 -0.0382 -0.7799
  412MOL0     C55495   1.014  11.414   5.282 -0.1235  0.0784  0.2962
  412MOL0     C55496   0.952  11.323   5.385 -0.8242  0.7717  0.7099
  412MOL0     C55497   0.809  11.361   5.429  1.3235  0.3660  0.4824
  412MOL0     C55498   0.728  11.231   5.442 -0.2496  0.4520  0.6199
  412MOL0     C55499   0.601  11.244   5.522  0.0577 -0.1382 -0.2654
  412MOL0     C55500   0.517  11.113   5.518 -0.0385 -0.8867  0.0039
  412MOL0     C55501   0.375  11.130   5.571 -0.9577 -0.6072  0.2071
  412MOL0     N55502   0.371  11.172   5.712  0.2723 -0.0677  0.9729
  412MOL0     C55503   0.333  11.085   5.809 -0.4222  0.7357  0.1987
  412MOL0     C55504   0.320  11.167   5.916 -0.5803  0.0987  0.4880
  412MOL0     C55505   0.293  11.123   6.050  0.3458  0.1979  0.6648
  412MOL0     C55506   0.151  11.164   6.089 -0.3176  0.1088 -0.0149
  412MOL0     C55507   0.107  11.101   6.217  0.5182  0.2122 -0.6931
  412MOL0     C55508  -0.013  11.165   6.288  0.5419 -0.2543  0.7642
  412MOL0     O55509  -0.131  11.130   6.220 -0.5921  0.2433  0.4384
  412MOL0     C55510  -0.243  11.168   6.279 -0.3693 -0.5080 -0.0630
  412MOL0     C55511  -0.285  11.305   6.272 -0.8386 -0.4403 -0.2436
  412MOL0     C55512  -0.391  11.345   6.353 -0.0620  0.3079 -0.2616
  412MOL0     C55513  -0.412  11.496   6.364 -0.2071  0.5579 -0.4032
  412MOL0     C55514  -0.480  11.248   6.414  0.1556 -0.5483  0.2263
  412MOL0     C55515  -0.621  11.289   6.456  0.2092  0.4562  1.1529
  412MOL0     O55516  -0.677  11.200   6.533  0.5933  1.4795 -0.0017
  412MOL0     C55517  -0.811  11.217   6.541  0.0707  0.3843  0.0594
  412MOL0     C55518  -0.876  11.306   6.630  0.2765  0.4711  0.3490
  412MOL0     C55519  -1.013  11.310   6.636 -0.8580  0.2091 -0.2726
  412MOL0     C55520  -1.091  11.211   6.565  0.2130  0.7452  0.0491
  412MOL0     O55521  -1.233  11.201   6.573  0.3572 -0.1473  0.2057
  412MOL0     C55522  -1.300  11.322   6.599 -0.2555  1.2124 -0.0712
  412MOL0     C55523  -1.338  11.301   6.745 -0.1286 -0.1259  0.8544
  412MOL0     C55524  -1.427  11.419   6.797 -1.0635 -0.3452  0.1762
  412MOL0     C55525  -1.439  11.394   6.946 -0.1419  1.2101  0.7002
  412MOL0     C55526  -1.516  11.499   7.016 -0.8750  0.4183  0.8188
  412MOL0     C55527  -1.666  11.476   6.986  0.6093 -0.1752  0.0295
  412MOL0     C55528  -1.746  11.587   7.059  0.3621 -0.6626 -0.9773
  412MOL0     C55529  -1.884  11.529   7.095 -0.9452 -0.5216 -0.2563
  412MOL0    Cl55530  -1.999  11.554   6.962  0.2260  0.0563 -0.1121
  412MOL0     C55531  -1.028  11.108   6.499 -0.0302  0.2095  0.3876
  412MOL0     C55532  -0.886  11.114   6.477  0.0928 -0.1714 -1.3386
  412MOL0     O55533  -0.683  11.375   6.389 -0.1878  0.0921  0.1140
  412MOL0     C55534  -0.437  11.116   6.414 -0.0173  0.0643 -0.1301
  412MOL0     C55535  -0.314  11.081   6.365  0.5489 -0.4366  0.0541
  412MOL0     N55536   0.350  11.300   5.882 -0.2725 -0.4098 -0.3046
  412MOL0     N55537   0.372  11.295   5.764  0.3895  0.3758 -0.0499
  412MOL0     C55538   1.344  11.390   5.265 -0.0897 -0.1403 -1.1795
  412MOL0     C55539   1.455  11.314   5.238  0.0132 -0.3142 -0.5649
  412MOL0     C55540   1.866  11.108   5.292 -0.2246  0.4275  0.4027
  412MOL0     C55541   1.851  11.017   5.179 -0.0514 -0.9489 -0.4390
  412MOL0     C55542   1.960  10.965   5.110  0.8646  0.0531 -0.5963
  412MOL0     C55543   2.090  10.998   5.160 -0.2431  0.4936  0.4583
  412MOL0     O55544   2.205  10.947   5.100 -0.4978  0.2328  0.5810
  412MOL0     C55545   2.195  10.919   4.962  0.4740  0.5245 -0.2087
  412MOL0     C55546   2.323  10.921   4.889 -0.1082 -1.3330  1.2635
  412MOL0     C55547   2.321  10.837   4.763  0.2590 -0.4579  0.0345
  412MOL0     C55548   2.341  10.681   4.784 -0.0938 -0.1558  0.0460
  412MOL0     C55549   2.350  10.613   4.652  0.4569 -0.7987  0.8112
  412MOL0     C55550   2.357  10.562   4.546 -0.8849 -0.4802  0.5315
  412MOL0     C55551   2.105  11.077   5.272 -0.1579 -0.5030  0.8810
  412MOL0     C55552   1.998  11.128   5.328  0.7129 -0.1416  1.5375
  412MOL0     H55553   1.536  11.226   5.554  1.6799  0.1124  0.1855
  412MOL0     H55554   1.338  11.367   5.597 -2.8052 -0.9459 -1.0509
  412MOL0     H55555   1.015  11.586   5.419  0.1372  0.1328 -0.7246
  412MOL0     H55556   1.106  11.610   5.275 -2.1991 -1.9032 -3.5445
  412MOL0     H55557   0.941  11.458   5.214  0.7971 -1.0103 -1.4681
  412MOL0     H55558   1.086  11.356   5.224 -3.5734 -1.5401 -2.7579
  412MOL0     H55559   0.957  11.224   5.340 -0.1928  1.3721 -0.6145
  412MOL0     H55560   1.013  11.305   5.474 -1.0322  2.4896  1.2451
  412MOL0     H55561   0.802  11.418   5.522 -2.1436  1.6619 -0.4380
  412MOL0     H55562   0.770  11.434   5.357  1.3678  1.4612  1.5450
  412MOL0     H55563   0.700  11.184   5.347 -4.1050  0.5904  1.5376
  412MOL0     H55564   0.785  11.163   5.507  0.2379  2.2249  2.1300
  412MOL0     H55565   0.623  11.272   5.625 -0.2286 -3.4474  0.8292
  412MOL0     H55566   0.532  11.319   5.484  3.8736  3.0167 -1.5952
  412MOL0     H55567   0.500  11.074   5.417 -2.3383  0.2294 -0.1030
  412MOL0     H55568   0.560  11.033   5.579  0.2958 -0.1978  0.6828
  412MOL0     H55569   0.332  11.030   5.561 -1.1539 -0.2844 -3.2617
  412MOL0     H55570   0.315  11.197   5.509 -0.5776 -1.5367 -1.2024
  412MOL0     H55571   0.324  10.979   5.788 -1.2278  1.2478 -2.3922
  412MOL0     H55572   0.289  11.014   6.055  0.8754  0.2170  1.5825
  412MOL0     H55573   0.362  11.161   6.125  1.1961 -2.3098  1.2513
  412MOL0     H55574   0.083  11.130   6.011  0.7890  1.9382 -1.8902
  412MOL0     H55575   0.159  11.272   6.105  0.3109 -0.1365  1.4612
  412MOL0     H55576   0.194  11.126   6.278  0.2961  0.7174 -0.5759
  412MOL0     H55577   0.103  10.992   6.220 -0.2377  0.2334 -0.5818
  412MOL0     H55578   0.005  11.272   6.286  1.1388 -0.3543  0.6095
  412MOL0     H55579  -0.016  11.134   6.393  2.8270  1.5576  1.4384
  412MOL0     H55580  -0.219  11.377   6.225 -1.6914  0.4538 -0.0953
  412MOL0     H55581  -0.425  11.515   6.471  1.9990 -0.6902  0.1614
  412MOL0     H55582  -0.327  11.558   6.334 -0.0821  1.2426  1.2352
  412MOL0     H55583  -0.504  11.517   6.308 -2.9033 -1.6994  2.7865
  412MOL0     H55584  -0.814  11.376   6.686 -0.5133  1.1406  0.3974
  412MOL0     H55585  -1.051  11.387   6.703 -0.9925  0.7831 -0.9947
  412MOL0     H55586  -1.253  11.414   6.564  1.1532  0.9421  0.9957
  412MOL0     H55587  -1.388  11.323   6.535 -0.3011 -1.3134 -0.1701
  412MOL0     H55588  -1.395  11.208   6.757 -1.7329  0.1131 -3.3504
  412MOL0     H55589  -1.245  11.291   6.802  0.7143 -2.1256 -0.7679
  412MOL0     H55590  -1.522  11.397   6.748 -2.4299 -2.0855  3.3150
  412MOL0     H55591  -1.391  11.520   6.776 -0.1651 -0.1271  2.4945
  412MOL0     H55592  -1.490  11.301   6.972  0.3604  0.5919 -0.4540
  412MOL0     H55593  -1.336  11.391   6.982 -0.2839  0.4996  1.0614
  412MOL0     H55594  -1.482  11.599   6.987  0.3140 -0.1542  0.1841
  412MOL0     H55595  -1.504  11.492   7.124 -1.3334  1.2685  0.9371
  412MOL0     H55596  -1.693  11.475   6.880  0.2541 -0.8353  0.1191
  412MOL0     H55597  -1.697  11.378   7.024 -0.2069 -0.0846 -0.3837
  412MOL0     H55598  -1.770  11.680   7.007  0.7677 -0.3577 -0.6225
  412MOL0     H55599  -1.696  11.620   7.150 -0.1301 -1.6720 -0.3146
  412MOL0     H55600  -1.920  11.582   7.184  1.8847  0.2261  0.5394
  412MOL0     H55601  -1.878  11.422   7.117  0.6438 -0.2811  0.5734
  412MOL0     H55602  -1.077  11.024   6.451  2.1528 -2.6873  2.8410
  412MOL0     H55603  -0.840  11.031   6.425 -0.2261 -1.1383 -0.1387
  412MOL0     H55604  -0.501  11.050   6.471  1.0675  1.2021  2.5934
  412MOL0     H55605  -0.275  10.980   6.365  1.8873 -0.0450 -3.0541
  412MOL0     H55606   1.291  11.429   5.179 -0.6567  1.1094 -0.2988
  412MOL0     H55607   1.502  11.324   5.140 -0.2375 -2.8726 -1.0005
  412MOL0     H55608   1.747  10.998   5.153 -0.5153 -1.3842  1.5471
  412MOL0     H55609   1.940  10.905   5.021 -0.3850  0.8944 -0.8983
  412MOL0     H55610   2.132  10.833   4.937 -2.9200  3.3604 -2.4996
  412MOL0     H55611   2.127  10.995   4.922 -0.6525  0.2026  0.9891
  412MOL0     H55612   2.409  10.898   4.953 -1.0895  0.5622  3.3747
  412MOL0     H55613   2.344  11.021   4.850 -1.8898 -1.3944  0.0437
  412MOL0     H55614   2.403  10.878   4.703  0.6401 -0.6885  0.3897
  412MOL0     H55615   2.226  10.855   4.712 -1.1869 -0.5685  2.5195
  412MOL0     H55616   2.262  10.645   4.851  0.9311 -0.8227  0.9291
  412MOL0     H55617   2.435  10.669   4.839  1.8829  4.5164 -1.8187
  412MOL0     H55618   2.390  10.509   4.459 -0.9224  2.2001 -1.2477
  412MOL0     H55619   2.208  11.101   5.297 -0.4625  2.8761 -0.5525
  412MOL0     H55620   2.019  11.205   5.401  0.6033  1.4767 -0.0706
  413MOL0     O55621   8.179  11.219   1.294  0.5625  0.1157  0.3261
  413MOL0     C55622   8.226  11.120   1.338  0.0777  0.2074  0.0684
  413MOL0     O55623   8.159  11.013   1.393 -0.4236 -0.0365 -0.5759
  413MOL0     C55624   8.024  11.026   1.413  0.4088  0.4011 -0.3341
  413MOL0     C55625   7.937  10.935   1.350  0.6980  0.3897  0.5346
  413MOL0     C55626   7.795  10.951   1.360 -0.0407 -0.1003  0.2247
  413MOL0     C55627   7.738  11.057   1.427 -0.4886  0.3216  0.4933
  413MOL0     O55628   7.607  11.073   1.431 -0.3914  0.0152 -0.1576
  413MOL0     C55629   7.553  11.135   1.556  0.0093 -0.2366  0.8506
  413MOL0     C55630   7.413  11.078   1.567  0.1632  0.0759 -0.0010
  413MOL0     C55631   7.362  11.060   1.709 -0.2387  0.5262  0.0588
  413MOL0     C55632   7.280  11.179   1.764  0.9964  0.2011  0.8235
  413MOL0     C55633   7.261  11.180   1.912 -0.1885 -0.9573  0.3091
  413MOL0     C55634   7.190  11.059   1.958  0.6551 -0.3598  0.2287
  413MOL0     C55635   7.132  11.092   2.097 -0.4960 -0.1482  0.3887
  413MOL0     C55636   7.016  11.203   2.088 -0.6487  0.1996  0.6477
  413MOL0     N55637   6.945  11.195   2.208  0.0695 -0.1867  0.0188
  413MOL0     C55638   6.966  11.278   2.314 -0.8993 -0.0549 -0.1968
  413MOL0     C55639   6.880  11.236   2.412 -0.2335  0.5980 -0.7740
  413MOL0     C55640   6.854  11.288   2.557 -0.4313  0.4215  0.1189
  413MOL0     C55641   6.982  11.314   2.631  0.1318  0.2514  0.6691
  413MOL0     C55642   7.056  11.184   2.680 -0.4468 -0.4138 -0.0293
  413MOL0     C55643   7.200  11.222   2.744  0.2256  1.1890  0.6330
  413MOL0     O55644   7.252  11.096   2.793  0.5026  0.5750  0.8281
  413MOL0     C55645   7.386  11.101   2.832 -0.0120 -0.9420  0.4237
  413MOL0     C55646   7.428  11.186   2.939  0.1330 -0.2285 -0.0595
  413MOL0     C55647   7.553  11.199   2.983 -0.9587  0.1695 -0.8798
  413MOL0     C55648   7.579  11.302   3.098 -0.1201  0.8979  0.5490
  413MOL0     C55649   7.653  11.119   2.918  0.3593  0.0841 -0.1624
  413MOL0     C55650   7.794  11.119   2.967  0.6465 -0.1611  0.0181
  413MOL0     O55651   7.881  11.078   2.868  0.5592 -0.8259  0.1597
  413MOL0     C55652   8.013  11.074   2.891 -0.7137 -0.8608 -0.5107
  413MOL0     C55653   8.080  11.197   2.900 -0.4187 -0.3532 -0.3554
  413MOL0     C55654   8.220  11.184   2.934 -0.5271 -0.4711  0.6168
  413MOL0     C55655   8.283  11.059   2.944  0.2276 -1.2917 -0.2484
  413MOL0     O55656   8.422  11.063   2.969  0.5345 -0.1949 -0.0328
  413MOL0     C55657   8.500  10.947   2.992 -0.6378  0.7209  0.3005
  413MOL0     C55658   8.614  10.982   3.086 -0.5780  0.6502 -0.3226
  413MOL0     C55659   8.559  11.030   3.228 -0.1162 -0.2024  0.8144
  413MOL0     C55660   8.560  11.185   3.237  0.2558 -1.0410  0.2593
  413MOL0     C55661   8.480  11.228   3.363 -0.0852 -0.7384  0.1625
  413MOL0     C55662   8.551  11.217   3.492 -0.2583 -0.5502 -0.7522
  413MOL0     C55663   8.486  11.282   3.619 -0.6483 -0.0125  0.2500
  413MOL0     C55664   8.568  11.258   3.750  0.2767 -0.5087 -0.7007
  413MOL0    Cl55665   8.541  11.082   3.784 -0.0802 -0.1179  0.2281
  413MOL0     C55666   8.208  10.937   2.925  0.4806 -0.4647 -0.6774
  413MOL0     C55667   8.073  10.950   2.895  0.2551 -0.2598  1.0696
  413MOL0     O55668   7.829  11.162   3.078  0.6680  0.3177  0.5578
  413MOL0     C55669   7.610  11.029   2.807  0.1944  0.8035  0.0835
  413MOL0     C55670   7.477  11.019   2.767 -0.4488  0.2286  0.1591
  413MOL0     N55671   6.811  11.136   2.361  0.2115  0.6013 -0.4810
  413MOL0     N55672   6.849  11.114   2.249  0.3159  0.1176  0.7968
  413MOL0     C55673   7.827  11.142   1.490 -0.1071 -0.9497  0.4331
  413MOL0     C55674   7.972  11.127   1.493 -0.1065  0.5195  0.6157
  413MOL0     C55675   8.373  11.095   1.320 -0.4753  0.0742  0.3609
  413MOL0     C55676   8.430  10.985   1.380 -0.4117 -0.2823  0.3812
  413MOL0     C55677   8.569  10.964   1.384 -0.6007 -0.1353  1.4454
  413MOL0     C55678   8.654  11.046   1.315 -0.7233 -0.5108  0.6840
  413MOL0     O55679   8.788  11.016   1.300  0.2785  0.0825 -0.4129
  413MOL0     C55680   8.834  10.897   1.368 -0.1496  0.2006  0.1052
  413MOL0     C55681   8.979  10.873   1.319 -0.6808 -0.7252 -0.2322
  413MOL0     C55682   9.076  10.971   1.387 -0.7942 -0.2748  0.1955
  413MOL0     C55683   9.226  10.957   1.376 -0.0239  1.0628 -0.3032
  413MOL0     C55684   9.279  10.840   1.462  0.2134 -0.3227 -0.7286
  413MOL0     C55685   9.311  10.765   1.547 -0.4659  0.5402  0.5182
  413MOL0     C55686   8.592  11.156   1.242  0.1910 -0.6019  0.0568
  413MOL0     C55687   8.455  11.174   1.240  0.3827 -0.9835  1.0294
  413MOL0     H55688   7.979  10.858   1.286 -0.1272 -1.0430  1.6579
  413MOL0     H55689   7.728  10.882   1.310  0.5511 -1.0119  0.6596
  413MOL0     H55690   7.613  11.083   1.631  2.7881  0.3898 -0.7736
  413MOL0     H55691   7.550  11.244   1.555  3.7234  0.0391  2.2890
  413MOL0     H55692   7.345  11.133   1.501  1.0523 -0.5455 -1.4714
  413MOL0     H55693   7.409  10.980   1.520  1.9399 -0.3140  0.5934
  413MOL0     H55694   7.304  10.968   1.718 -1.5656  1.3774  0.4151
  413MOL0     H55695   7.450  11.063   1.773 -0.2160  2.3419  0.0036
  413MOL0     H55696   7.333  11.273   1.744 -2.0302  1.8479  0.0109
  413MOL0     H55697   7.184  11.195   1.716  1.0571  3.0085  1.4925
  413MOL0     H55698   7.358  11.181   1.964 -0.1876 -4.5991  0.6078
  413MOL0     H55699   7.210  11.273   1.939 -2.4528 -1.5685 -1.5602
  413MOL0     H55700   7.120  11.013   1.888  0.2719  0.9809 -0.3065
  413MOL0     H55701   7.278  10.998   1.979  1.9403  1.2216 -0.3591
  413MOL0     H55702   7.088  11.003   2.143  1.7702 -1.1918  0.6834
  413MOL0     H55703   7.220  11.127   2.152  0.8838 -1.5282 -0.8395
  413MOL0     H55704   6.949  11.159   2.014  0.0839 -2.2510  1.3415
  413MOL0     H55705   7.057  11.300   2.062  4.3844 -2.0418 -1.0764
  413MOL0     H55706   7.035  11.361   2.320 -1.0689  0.2540 -2.0009
  413MOL0     H55707   6.789  11.374   2.542 -3.1477 -1.8605 -2.2916
  413MOL0     H55708   6.785  11.223   2.611  1.9710 -2.0112  0.4908
  413MOL0     H55709   6.961  11.382   2.714 -0.0005  2.1721 -0.8427
  413MOL0     H55710   7.053  11.364   2.564  1.3227 -1.3770  0.6798
  413MOL0     H55711   7.070  11.116   2.596 -0.2830 -2.2508  1.4212
  413MOL0     H55712   7.001  11.127   2.756 -0.4481 -0.9989 -0.4636
  413MOL0     H55713   7.183  11.298   2.821 -0.9939  0.6583  0.9081
  413MOL0     H55714   7.269  11.264   2.669  1.9616  0.4859  1.7778
  413MOL0     H55715   7.355  11.260   2.970  0.2088  1.3764 -3.2108
  413MOL0     H55716   7.506  11.383   3.105 -1.5691 -0.1851 -1.1939
  413MOL0     H55717   7.604  11.254   3.193  1.2074 -0.0044 -0.2088
  413MOL0     H55718   7.673  11.353   3.073 -0.0961  0.1730 -0.9448
  413MOL0     H55719   8.016  11.284   2.885  0.3408  0.1146 -0.9722
  413MOL0     H55720   8.284  11.268   2.958 -0.1754  0.1809 -2.2074
  413MOL0     H55721   8.449  10.869   3.048  2.2359 -1.5554 -0.0477
  413MOL0     H55722   8.537  10.906   2.897  0.7333  0.4728  0.9176
  413MOL0     H55723   8.682  10.897   3.090 -0.6170  0.6179 -0.3525
  413MOL0     H55724   8.674  11.066   3.048  0.0630  0.9575  1.2976
  413MOL0     H55725   8.629  10.990   3.301 -0.2838 -4.1630 -0.9777
  413MOL0     H55726   8.462  10.985   3.254  0.1895 -2.2790 -1.3335
  413MOL0     H55727   8.659  11.232   3.237 -0.0680 -0.3227 -0.3662
  413MOL0     H55728   8.507  11.222   3.149  1.0943 -2.6240 -0.9594
  413MOL0     H55729   8.392  11.164   3.372  0.3362 -1.1020  2.3178
  413MOL0     H55730   8.443  11.330   3.353 -2.1040 -1.2940  1.3094
  413MOL0     H55731   8.572  11.113   3.517  2.1833  0.4627  2.0869
  413MOL0     H55732   8.650  11.262   3.477 -0.1518  0.5581  2.5560
  413MOL0     H55733   8.384  11.242   3.633  0.3965 -1.9181  3.9009
  413MOL0     H55734   8.468  11.389   3.606 -0.6762 -0.1989 -1.3675
  413MOL0     H55735   8.536  11.308   3.841 -1.0229  2.0520 -2.4557
  413MOL0     H55736   8.670  11.293   3.732 -0.8413  3.8067  0.2253
  413MOL0     H55737   8.250  10.837   2.936  0.2546 -0.5827 -0.8986
  413MOL0     H55738   8.005  10.865   2.896 -0.8896  0.3855 -3.2295
  413MOL0     H55739   7.690  10.965   2.771 -0.8158 -1.5794  1.7706
  413MOL0     H55740   7.442  10.960   2.684 -0.8946 -0.1204  0.5888
  413MOL0     H55741   7.800  11.231   1.545  1.3322 -1.2846  1.7371
  413MOL0     H55742   8.041  11.202   1.530  0.8842 -1.0767  2.1475
  413MOL0     H55743   8.356  10.920   1.425 -1.8581  1.5842  0.8059
  413MOL0     H55744   8.607  10.876   1.435  0.1510 -1.4653 -1.2347
  413MOL0     H55745   8.822  10.919   1.474 -1.3513 -0.1420  0.0491
  413MOL0     H55746   8.790  10.800   1.343  1.9004  0.0505 -3.7734
  413MOL0     H55747   8.983  10.903   1.214  2.1325  4.1097  0.9302
  413MOL0     H55748   9.005  10.768   1.336  1.5659  0.1091  2.3276
  413MOL0     H55749   9.059  10.968   1.495  1.2320 -1.0122  0.5321
  413MOL0     H55750   9.051  11.071   1.349 -0.3329  0.1374  0.9438
  413MOL0     H55751   9.266  11.055   1.406  2.0771  0.5408 -1.2021
  413MOL0     H55752   9.248  10.937   1.271 -0.0447 -3.7268  0.4028
  413MOL0     H55753   9.344  10.684   1.610  4.0769  0.3785 -1.6903
  413MOL0     H55754   8.657  11.216   1.180 -1.7142  0.3514 -1.1228
  413MOL0     H55755   8.410  11.246   1.173  2.4699 -4.2036 -4.5064
  414MOL0     O55756   4.855   1.498   4.974 -0.0463 -0.4852 -0.2334
  414MOL0     C55757   4.802   1.552   5.065  0.7139  0.4461  0.1938
  414MOL0     O55758   4.686   1.506   5.116 -0.1481  0.3552  0.1527
  414MOL0     C55759   4.624   1.402   5.049  0.3809  0.4799  0.5130
  414MOL0     C55760   4.562   1.428   4.926  0.4708 -0.1071 -1.2479
  414MOL0     C55761   4.519   1.320   4.847  0.0671 -0.0997 -0.0636
  414MOL0     C55762   4.519   1.189   4.898  0.4537  0.0540  0.3958
  414MOL0     O55763   4.482   1.072   4.836  0.0481 -0.2146  0.1147
  414MOL0     C55764   4.489   1.084   4.690  1.0835  0.5802 -0.1470
  414MOL0     C55765   4.450   0.948   4.634  0.6943  0.2714  0.3843
  414MOL0     C55766   4.301   0.924   4.650  0.1283  1.1058 -0.6149
  414MOL0     C55767   4.278   0.774   4.617 -0.2189 -0.0788  0.3755
  414MOL0     C55768   4.158   0.718   4.694  0.1247  0.3181  0.2365
  414MOL0     C55769   4.130   0.578   4.659  0.2763 -0.5795 -0.3072
  414MOL0     C55770   4.050   0.515   4.771  1.6668 -0.2697 -0.4730
  414MOL0     C55771   3.917   0.574   4.795  0.3266 -0.4108 -0.7642
  414MOL0     N55772   3.869   0.516   4.923  0.4517 -0.1904 -0.6374
  414MOL0     C55773   3.752   0.444   4.942  0.2797 -0.3144  0.2582
  414MOL0     C55774   3.752   0.414   5.071  0.4076 -0.0374 -0.0284
  414MOL0     C55775   3.675   0.304   5.130 -0.4660  0.3011 -0.5962
  414MOL0     C55776   3.747   0.242   5.256 -0.6912  0.0926  0.1577
  414MOL0     C55777   3.687   0.110   5.302  0.0689  0.1747  0.7252
  414MOL0     C55778   3.550   0.132   5.357 -0.6176 -0.9524 -0.2803
  414MOL0     O55779   3.523   0.224   5.466 -0.7259  0.2331 -0.0455
  414MOL0     C55780   3.394   0.241   5.500 -0.4817  0.3091 -0.3104
  414MOL0     C55781   3.377   0.377   5.534  0.0386  1.1737  0.3469
  414MOL0     C55782   3.258   0.424   5.589  0.1720 -0.4142 -0.4066
  414MOL0     C55783   3.251   0.567   5.617  0.7096  0.2690 -0.2147
  414MOL0     C55784   3.159   0.329   5.622  0.0568  0.5071  0.5259
  414MOL0     C55785   3.034   0.359   5.704 -0.0780 -0.7262 -0.8342
  414MOL0     O55786   2.998   0.490   5.730 -0.2261  0.4140  0.5820
  414MOL0     C55787   2.886   0.517   5.807  0.3279  0.1589 -0.0308
  414MOL0     C55788   2.797   0.620   5.767 -0.3957 -0.7403  0.2060
  414MOL0     C55789   2.695   0.673   5.855 -0.2365 -0.1084  0.7731
  414MOL0     C55790   2.676   0.605   5.972  1.4661 -0.4403 -0.1925
  414MOL0     O55791   2.576   0.644   6.059 -0.2129  0.0734  0.7330
  414MOL0     C55792   2.498   0.535   6.114 -0.4738 -0.3165  0.0022
  414MOL0     C55793   2.353   0.578   6.100 -0.0972  0.4331  0.3831
  414MOL0     C55794   2.261   0.475   6.176 -0.1398  0.1764  0.8009
  414MOL0     C55795   2.108   0.499   6.151 -0.1104 -0.7043 -0.1411
  414MOL0     C55796   2.020   0.388   6.210  0.4621  0.5344  0.3099
  414MOL0     C55797   1.875   0.417   6.163  0.2427  0.8069  0.2325
  414MOL0     C55798   1.784   0.317   6.229 -0.4054 -0.0491 -0.4821
  414MOL0     C55799   1.641   0.357   6.225  0.3305  0.4815 -0.1499
  414MOL0    Cl55800   1.543   0.215   6.267  0.2318 -0.0077  0.2225
  414MOL0     C55801   2.762   0.507   6.021  0.2242  0.2265  0.2742
  414MOL0     C55802   2.865   0.465   5.935  0.2816 -0.2409  0.4592
  414MOL0     O55803   2.964   0.264   5.740 -0.3643 -0.1347 -0.0592
  414MOL0     C55804   3.182   0.187   5.586 -0.2430  0.6018 -0.0939
  414MOL0     C55805   3.297   0.145   5.515 -0.3140  0.3185 -0.1924
  414MOL0     N55806   3.846   0.495   5.134  0.1053  0.6131 -0.1392
  414MOL0     N55807   3.921   0.546   5.047  0.2951 -0.2847 -0.1969
  414MOL0     C55808   4.560   1.176   5.034 -0.2940  0.1945  0.4539
  414MOL0     C55809   4.613   1.280   5.108 -0.7568  0.0816 -0.2995
  414MOL0     C55810   4.847   1.690   5.098 -0.1241  0.7487  1.1533
  414MOL0     C55811   4.763   1.787   5.138  0.3591  0.2530  0.8048
  414MOL0     C55812   4.807   1.918   5.177  0.0670 -0.8311  0.5633
  414MOL0     C55813   4.942   1.946   5.166 -0.7726 -0.0723  0.2019
  414MOL0     O55814   4.992   2.053   5.235  0.6203  0.1059 -0.3885
  414MOL0     C55815   5.051   2.145   5.144  0.4445 -0.0772 -0.6406
  414MOL0     C55816   5.200   2.162   5.170 -0.3246  0.1704 -0.6032
  414MOL0     C55817   5.262   2.288   5.098 -0.8299  0.3098  0.1290
  414MOL0     C55818   5.413   2.298   5.111  0.1354  0.5161 -0.3346
  414MOL0     C55819   5.473   2.170   5.064  0.0056  0.1331  0.1710
  414MOL0     C55820   5.530   2.063   5.032  0.9727  0.2622 -0.3154
  414MOL0     C55821   5.031   1.846   5.115 -0.2903 -0.2320 -0.3798
  414MOL0     C55822   4.973   1.724   5.086 -0.3757  0.6270 -0.6437
  414MOL0     H55823   4.562   1.526   4.881 -1.4006 -0.1263 -1.3769
  414MOL0     H55824   4.483   1.345   4.748  2.2287  0.9272 -0.6404
  414MOL0     H55825   4.417   1.164   4.668 -1.0614 -0.6864  1.7684
  414MOL0     H55826   4.590   1.106   4.655  2.4400 -3.7105  0.4571
  414MOL0     H55827   4.468   0.935   4.527 -4.8424 -3.9145 -0.4722
  414MOL0     H55828   4.512   0.875   4.686 -0.3192 -0.7090  0.2506
  414MOL0     H55829   4.290   0.947   4.757  0.7649 -1.7386  0.1365
  414MOL0     H55830   4.250   0.996   4.585 -1.1173  0.4264 -0.4181
  414MOL0     H55831   4.256   0.763   4.510  1.9276 -0.5222 -0.0623
  414MOL0     H55832   4.367   0.715   4.643  0.0995 -0.3941 -1.2782
  414MOL0     H55833   4.180   0.722   4.801  0.0102 -0.6776  0.3068
  414MOL0     H55834   4.072   0.783   4.675 -0.0566  0.2188  0.6857
  414MOL0     H55835   4.086   0.559   4.560  0.6548 -0.5085 -0.4936
  414MOL0     H55836   4.220   0.516   4.645  0.8621 -0.1866  1.5199
  414MOL0     H55837   4.031   0.408   4.764  1.1433 -0.3119  1.1930
  414MOL0     H55838   4.104   0.533   4.864  1.1267  0.2923 -0.2629
  414MOL0     H55839   3.844   0.547   4.718 -1.3570 -1.0509  0.9822
  414MOL0     H55840   3.924   0.683   4.803  1.9316 -0.5223 -0.3411
  414MOL0     H55841   3.692   0.410   4.857 -0.1971 -1.4025  1.0032
  414MOL0     H55842   3.583   0.345   5.171 -0.7394 -0.4416 -0.4571
  414MOL0     H55843   3.660   0.227   5.054  0.8480 -0.6568  0.0751
  414MOL0     H55844   3.753   0.316   5.337  1.8473 -1.0523  1.1453
  414MOL0     H55845   3.848   0.214   5.225 -1.3008  0.7859 -2.7819
  414MOL0     H55846   3.748   0.051   5.371  1.2049  0.2183 -0.2160
  414MOL0     H55847   3.674   0.049   5.212 -2.3474  0.6521  0.6733
  414MOL0     H55848   3.521   0.035   5.398 -1.4007 -1.1291 -1.2212
  414MOL0     H55849   3.487   0.158   5.272 -1.2579  0.8370  0.6914
  414MOL0     H55850   3.464   0.441   5.528  0.8724 -0.0291 -0.8704
  414MOL0     H55851   3.245   0.581   5.726 -1.2482  1.6261 -0.4518
  414MOL0     H55852   3.345   0.616   5.590  0.3191  0.8912 -0.4646
  414MOL0     H55853   3.168   0.625   5.575  3.0828  4.7537  0.6068
  414MOL0     H55854   2.831   0.676   5.680 -0.6406  0.2391  0.7204
  414MOL0     H55855   2.639   0.761   5.825  0.4112 -0.5846 -2.1426
  414MOL0     H55856   2.508   0.436   6.068  2.6290  0.0057 -0.2193
  414MOL0     H55857   2.526   0.522   6.218 -0.0557 -2.7259 -0.3535
  414MOL0     H55858   2.328   0.672   6.149 -1.3507 -0.4060  1.3961
  414MOL0     H55859   2.319   0.579   5.996  0.0484 -0.1728  0.3247
  414MOL0     H55860   2.276   0.481   6.284 -0.9646  3.7120  0.8144
  414MOL0     H55861   2.293   0.377   6.138 -0.1810  1.0795 -1.7852
  414MOL0     H55862   2.082   0.597   6.192  1.4497 -0.4476  0.3034
  414MOL0     H55863   2.091   0.500   6.043 -0.6097 -1.1393 -0.0704
  414MOL0     H55864   2.029   0.380   6.319  0.3296 -2.1004  0.1950
  414MOL0     H55865   2.050   0.300   6.152  1.7727  0.6269  0.8209
  414MOL0     H55866   1.848   0.519   6.195  0.8357  0.5533  1.6036
  414MOL0     H55867   1.872   0.404   6.055  1.2170  3.4263 -0.1871
  414MOL0     H55868   1.812   0.316   6.335 -2.1418 -0.5304 -0.0030
  414MOL0     H55869   1.813   0.222   6.183  0.0152 -0.2342  0.1565
  414MOL0     H55870   1.605   0.384   6.126  1.5013 -0.8166 -0.9722
  414MOL0     H55871   1.619   0.436   6.297 -0.4002  0.2436 -0.1026
  414MOL0     H55872   2.745   0.468   6.121 -0.9215 -3.8013 -1.3081
  414MOL0     H55873   2.928   0.384   5.971 -1.1931 -1.1490  1.0928
  414MOL0     H55874   3.121   0.105   5.621  1.3781 -0.0219  1.3472
  414MOL0     H55875   3.309   0.042   5.483 -2.1520  0.2821 -0.9117
  414MOL0     H55876   4.555   1.073   5.066 -5.0838  0.3579  0.9637
  414MOL0     H55877   4.669   1.270   5.200  3.2990 -1.0937 -2.6673
  414MOL0     H55878   4.656   1.766   5.134  0.0648  1.7638 -0.1702
  414MOL0     H55879   4.757   1.996   5.234  1.1579  0.2863  0.0424
  414MOL0     H55880   5.030   2.126   5.038  0.8093 -1.8445 -0.4333
  414MOL0     H55881   5.002   2.242   5.159  2.7296  1.4051 -2.1843
  414MOL0     H55882   5.242   2.062   5.155 -1.4236 -0.3218 -0.5672
  414MOL0     H55883   5.216   2.176   5.277 -0.9109 -1.9281 -0.1986
  414MOL0     H55884   5.219   2.375   5.148  0.5476  1.4035 -0.5426
  414MOL0     H55885   5.240   2.291   4.991  0.0396 -0.7581 -0.1029
  414MOL0     H55886   5.436   2.315   5.217 -1.9849 -0.0921  0.2744
  414MOL0     H55887   5.449   2.384   5.054  2.4051  1.7673  2.6787
  414MOL0     H55888   5.593   1.978   5.022  3.1082  1.4634  1.8113
  414MOL0     H55889   5.138   1.864   5.114 -0.1634 -0.9533  0.1007
  414MOL0     H55890   5.029   1.635   5.058  0.6875  1.1364 -0.2062
  415MOL0     O55891   2.690   9.960   8.058 -0.1595 -0.7321 -0.8272
  415MOL0     C55892   2.812   9.974   8.041 -0.6973  0.6683  1.0809
  415MOL0     O55893   2.866  10.009   7.919 -0.3403  0.0884  0.4514
  415MOL0     C55894   2.794  10.039   7.805  0.6116  0.4140  0.0007
  415MOL0     C55895   2.885  10.079   7.707  0.1926  0.1796 -0.5071
  415MOL0     C55896   2.839  10.107   7.579  0.7935  0.3584 -0.6036
  415MOL0     C55897   2.698  10.096   7.548  0.2667  0.2374  0.4863
  415MOL0     O55898   2.630  10.113   7.432 -0.0564 -0.3656  0.7937
  415MOL0     C55899   2.694  10.181   7.324  0.3580  0.4389  0.7092
  415MOL0     C55900   2.600  10.177   7.200 -0.0749 -0.0880 -0.2554
  415MOL0     C55901   2.477  10.263   7.216  0.1760 -0.4323 -0.4007
  415MOL0     C55902   2.388  10.241   7.093 -0.3354 -0.4380  0.5831
  415MOL0     C55903   2.375  10.358   6.991 -0.2738 -1.2907 -0.4740
  415MOL0     C55904   2.298  10.483   7.045  0.0718 -1.1151 -1.0814
  415MOL0     C55905   2.252  10.579   6.937 -0.2643  0.2811 -0.6057
  415MOL0     C55906   2.343  10.693   6.898 -0.7613  0.7179 -0.0071
  415MOL0     N55907   2.475  10.631   6.860  0.6224  0.3070  0.3802
  415MOL0     C55908   2.496  10.551   6.752  0.3475  0.6067 -0.6924
  415MOL0     C55909   2.635  10.541   6.757  0.2026  0.8426 -0.4123
  415MOL0     C55910   2.708  10.476   6.651 -0.0399  0.7791 -0.5597
  415MOL0     C55911   2.675  10.331   6.652 -0.3435  0.4057  0.0901
  415MOL0     C55912   2.789  10.251   6.723 -0.1864  0.3319 -0.0928
  415MOL0     C55913   2.921  10.235   6.640  1.0476  0.1813  0.5007
  415MOL0     O55914   3.014  10.148   6.713 -0.0465  0.5499 -0.7240
  415MOL0     C55915   3.056  10.026   6.663  0.2474 -0.3618 -0.4688
  415MOL0     C55916   3.155   9.964   6.736 -0.3328  0.1939  0.0669
  415MOL0     C55917   3.217   9.853   6.679  0.4134  0.5368 -0.2090
  415MOL0     C55918   3.339   9.794   6.741  0.6404  0.3155 -1.1177
  415MOL0     C55919   3.146   9.782   6.575  0.7413  0.5076  0.2204
  415MOL0     C55920   3.194   9.655   6.513 -0.3556 -0.3569  0.3709
  415MOL0     O55921   3.327   9.643   6.483 -0.5383  0.0921 -0.8711
  415MOL0     C55922   3.367   9.521   6.439 -0.2000  0.1300  0.6346
  415MOL0     C55923   3.386   9.414   6.528  0.5572  0.2870  0.9217
  415MOL0     C55924   3.422   9.286   6.482  0.5341  0.3622 -0.5239
  415MOL0     C55925   3.440   9.262   6.351 -0.4413  0.4083 -0.3352
  415MOL0     O55926   3.468   9.133   6.325 -0.3781  0.5246  0.5202
  415MOL0     C55927   3.460   9.073   6.190  0.5803  0.1854 -0.2257
  415MOL0     C55928   3.310   9.045   6.160  0.4413  0.6791  0.2420
  415MOL0     C55929   3.284   9.031   6.010 -0.6851  0.4114  0.4050
  415MOL0     C55930   3.347   8.906   5.937 -0.7038 -0.6304 -0.3920
  415MOL0     C55931   3.310   8.886   5.789 -0.2315 -0.0959  0.4537
  415MOL0     C55932   3.395   8.778   5.720  0.2993 -0.8545  0.3078
  415MOL0     C55933   3.346   8.754   5.572  0.4613  1.0218 -0.6377
  415MOL0     C55934   3.401   8.631   5.505  0.7883  0.2989 -0.0576
  415MOL0    Cl55935   3.563   8.641   5.452 -0.6605  0.2705  0.0833
  415MOL0     C55936   3.438   9.367   6.259  0.2142  0.5317  0.3847
  415MOL0     C55937   3.396   9.499   6.303  1.0315 -0.2682 -0.4121
  415MOL0     O55938   3.107   9.569   6.489  0.3455  0.5649 -0.2296
  415MOL0     C55939   3.021   9.839   6.524  0.0401  0.1728 -0.3278
  415MOL0     C55940   2.987   9.965   6.560 -0.2216 -0.4172  0.2270
  415MOL0     N55941   2.688  10.606   6.871 -0.1726 -0.1347 -0.5634
  415MOL0     N55942   2.586  10.659   6.939 -0.3880  0.5198 -0.6791
  415MOL0     C55943   2.616  10.048   7.648  0.5467 -0.1510  0.1010
  415MOL0     C55944   2.662  10.006   7.773 -0.0481 -0.4451 -0.3403
  415MOL0     C55945   2.898   9.950   8.160  0.3932 -0.8211  0.9990
  415MOL0     C55946   3.032   9.970   8.152  0.1694  0.2262  1.0593
  415MOL0     C55947   3.113   9.948   8.264  0.2088  1.3156 -0.1479
  415MOL0     C55948   3.068   9.916   8.394  0.6632 -0.1484  0.4867
  415MOL0     O55949   3.136   9.878   8.508 -0.5738 -0.5365 -0.4031
  415MOL0     C55950   3.279   9.854   8.499  0.3092 -0.9761 -0.7633
  415MOL0     C55951   3.326   9.786   8.629 -0.3837 -0.2620  0.0518
  415MOL0     C55952   3.368   9.898   8.731 -0.1621  0.7953  0.2137
  415MOL0     C55953   3.452   9.828   8.844  0.1410 -0.6001 -0.8791
  415MOL0     C55954   3.380   9.749   8.943  0.1597  0.2967 -0.5748
  415MOL0     C55955   3.317   9.676   9.025 -0.5111  0.6287  0.3281
  415MOL0     C55956   2.926   9.918   8.404  0.0770  0.8325  0.2729
  415MOL0     C55957   2.840   9.913   8.286  0.0326 -0.9819  0.5266
  415MOL0     H55958   2.992  10.095   7.712  0.0207  1.2663 -0.0213
  415MOL0     H55959   2.911  10.144   7.506  0.0181  2.2453 -0.4863
  415MOL0     H55960   2.710  10.285   7.353  1.4224  0.4603  0.0593
  415MOL0     H55961   2.796  10.142   7.315  0.5855  1.2864 -0.6070
  415MOL0     H55962   2.648  10.210   7.107  1.2443 -0.4109  0.2961
  415MOL0     H55963   2.575  10.072   7.184 -2.2398  0.0936  1.5315
  415MOL0     H55964   2.428  10.237   7.310  1.7118 -1.3808  0.1608
  415MOL0     H55965   2.502  10.370   7.219 -1.8892  0.1078 -0.8380
  415MOL0     H55966   2.407  10.150   7.036  2.6388 -0.8379  2.0636
  415MOL0     H55967   2.285  10.226   7.127 -0.3498 -0.2218  0.6416
  415MOL0     H55968   2.476  10.388   6.961 -0.5772 -0.1912 -0.4348
  415MOL0     H55969   2.322  10.321   6.903  0.7664 -0.0570 -1.6431
  415MOL0     H55970   2.211  10.453   7.103  0.6082  2.1183  1.7853
  415MOL0     H55971   2.348  10.551   7.116 -1.0570  0.3818 -1.6534
  415MOL0     H55972   2.221  10.514   6.854 -1.2843 -1.7826  1.2851
  415MOL0     H55973   2.165  10.633   6.974  1.8495  2.3406  1.7613
  415MOL0     H55974   2.354  10.762   6.983  2.3483 -0.0097  0.2952
  415MOL0     H55975   2.300  10.746   6.813  3.8566  2.6542 -1.4419
  415MOL0     H55976   2.427  10.520   6.674 -1.2076 -0.5488  1.0538
  415MOL0     H55977   2.666  10.511   6.557 -1.4565 -0.0039 -0.2537
  415MOL0     H55978   2.815  10.494   6.635  0.1387  0.9887  0.7218
  415MOL0     H55979   2.667  10.285   6.553  1.8719 -1.2942  0.6213
  415MOL0     H55980   2.583  10.309   6.707  0.2369 -0.4854  0.7125
  415MOL0     H55981   2.742  10.153   6.738 -0.2164  0.7368  3.3594
  415MOL0     H55982   2.806  10.304   6.817 -3.1213  3.4789 -1.1357
  415MOL0     H55983   2.962  10.336   6.629  4.9867 -1.2040  0.8921
  415MOL0     H55984   2.886  10.198   6.544  0.0941  0.7423  0.6178
  415MOL0     H55985   3.180  10.015   6.829  0.7822 -0.7406  0.3029
  415MOL0     H55986   3.358   9.841   6.837 -0.5728  1.8445 -1.6035
  415MOL0     H55987   3.328   9.687   6.760 -0.8187  0.8899  1.6668
  415MOL0     H55988   3.426   9.798   6.674  0.5418  0.2725 -1.2490
  415MOL0     H55989   3.377   9.444   6.632 -2.0612  3.2016  0.0216
  415MOL0     H55990   3.438   9.204   6.552 -0.6869  0.2438 -0.3521
  415MOL0     H55991   3.507   9.139   6.117  2.1287  1.6946  2.0162
  415MOL0     H55992   3.514   8.978   6.187 -2.6922 -1.8480 -1.0862
  415MOL0     H55993   3.281   8.953   6.211  3.5679 -0.8013 -0.3618
  415MOL0     H55994   3.248   9.126   6.198 -2.0963 -0.0177 -2.0854
  415MOL0     H55995   3.333   9.119   5.966  4.5121 -0.8657  2.9196
  415MOL0     H55996   3.176   9.041   5.995 -1.1239  3.4245  4.1498
  415MOL0     H55997   3.456   8.915   5.934 -0.7270 -0.5966 -2.6617
  415MOL0     H55998   3.323   8.818   5.998 -1.9301  1.1754  1.9017
  415MOL0     H55999   3.338   8.983   5.745  1.2585 -0.4254  0.6286
  415MOL0     H56000   3.203   8.887   5.763 -0.0774  2.7325 -0.5371
  415MOL0     H56001   3.494   8.822   5.708 -0.2004 -0.1494 -1.6854
  415MOL0     H56002   3.403   8.685   5.777  0.9225 -1.5222 -0.8430
  415MOL0     H56003   3.370   8.841   5.511  0.6582  2.3108  1.1791
  415MOL0     H56004   3.238   8.739   5.581  0.2056  2.6643 -0.6922
  415MOL0     H56005   3.330   8.588   5.435 -0.4394 -0.9218  1.8391
  415MOL0     H56006   3.410   8.547   5.575  0.7812  1.0487  0.8680
  415MOL0     H56007   3.455   9.352   6.152 -0.6723  1.0307  0.1665
  415MOL0     H56008   3.378   9.581   6.234 -1.8206 -1.0317 -0.6922
  415MOL0     H56009   2.966   9.782   6.449  0.5507  0.3091 -0.8141
  415MOL0     H56010   2.898  10.004   6.512 -0.3275 -0.1893  0.6002
  415MOL0     H56011   2.513  10.031   7.619  1.1199 -3.5276 -0.3922
  415MOL0     H56012   2.594   9.968   7.847 -0.4821  0.4597 -0.2555
  415MOL0     H56013   3.077  10.017   8.065  1.9571 -2.8915  0.1445
  415MOL0     H56014   3.220   9.959   8.252  0.5300 -1.0896 -0.1179
  415MOL0     H56015   3.303   9.803   8.405  2.9258  2.1557 -1.9855
  415MOL0     H56016   3.323   9.953   8.486 -0.3588 -0.7774 -1.6090
  415MOL0     H56017   3.408   9.719   8.604  0.5800 -0.0389  2.3605
  415MOL0     H56018   3.252   9.718   8.673 -0.7617  0.2117  0.1624
  415MOL0     H56019   3.283   9.950   8.776 -0.1995 -0.6554  1.9405
  415MOL0     H56020   3.421   9.970   8.669  1.5614 -0.7672 -0.2285
  415MOL0     H56021   3.509   9.909   8.891  1.7534 -1.5305 -1.1632
  415MOL0     H56022   3.522   9.760   8.796  0.7232  1.8362 -3.7555
  415MOL0     H56023   3.272   9.600   9.086  0.4930  1.3000  2.0036
  415MOL0     H56024   2.871   9.904   8.496  1.7715 -2.6693  0.9049
  415MOL0     H56025   2.732   9.914   8.298  0.0974 -1.0882  1.1631
  416MOL0     O56026   3.960  10.285   7.522  0.2827 -0.7245  0.0856
  416MOL0     C56027   4.057  10.359   7.528 -0.0830 -0.4113  0.3877
  416MOL0     O56028   4.065  10.499   7.518 -0.2353  0.2032  0.8514
  416MOL0     C56029   3.956  10.585   7.473 -0.8044 -0.2867 -1.0525
  416MOL0     C56030   3.985  10.692   7.389 -1.5942 -0.2422 -0.5395
  416MOL0     C56031   3.884  10.771   7.335  0.0811  0.2189 -1.0250
  416MOL0     C56032   3.753  10.738   7.368  0.4807  0.5027  1.0274
  416MOL0     O56033   3.661  10.821   7.310 -0.4927 -0.5166 -0.1039
  416MOL0     C56034   3.522  10.784   7.323  0.3741  0.2460  0.6812
  416MOL0     C56035   3.445  10.858   7.212 -0.2288  0.2163  0.5721
  416MOL0     C56036   3.305  10.803   7.201  0.5550  0.2305 -0.2505
  416MOL0     C56037   3.247  10.846   7.071  0.3571 -0.2016 -0.2563
  416MOL0     C56038   3.096  10.799   7.036  0.0197  0.5202 -0.7120
  416MOL0     C56039   2.986  10.875   7.114  0.0933 -0.4910  0.7359
  416MOL0     C56040   2.846  10.806   7.090  0.0311  0.1644  0.1777
  416MOL0     C56041   2.743  10.854   7.186  0.1302 -0.8270 -0.1012
  416MOL0     N56042   2.712  10.991   7.164  0.3478 -0.9600  0.1928
  416MOL0     C56043   2.762  11.100   7.226 -0.0631  0.0175  0.5703
  416MOL0     C56044   2.719  11.204   7.159 -1.3310 -0.3649 -0.0532
  416MOL0     C56045   2.754  11.348   7.190 -0.0434 -0.3668  0.8681
  416MOL0     C56046   2.634  11.443   7.172 -0.1593 -0.2510 -0.6704
  416MOL0     C56047   2.682  11.588   7.214  0.9424 -0.2032  0.3242
  416MOL0     C56048   2.571  11.679   7.164  0.2614  0.3679 -0.6350
  416MOL0     O56049   2.495  11.695   7.283  0.1693 -0.4123 -0.0473
  416MOL0     C56050   2.382  11.770   7.270 -0.5423  0.5389 -0.0394
  416MOL0     C56051   2.325  11.785   7.398 -0.9781 -1.0881  0.2185
  416MOL0     C56052   2.196  11.853   7.415 -1.0449 -0.2434 -1.0114
  416MOL0     C56053   2.134  11.841   7.545  0.0020  1.1178  0.2240
  416MOL0     C56054   2.146  11.929   7.312  0.1477 -0.2661  0.0554
  416MOL0     C56055   2.024  12.026   7.322  0.3710  0.1664  0.4391
  416MOL0     O56056   1.969  12.046   7.190  0.0258  0.2506 -0.1518
  416MOL0     C56057   1.865  12.129   7.173  0.1863  0.3097  0.1536
  416MOL0     C56058   1.798  12.090   7.058 -0.0106 -0.9574  0.1624
  416MOL0     C56059   1.672  12.147   7.028 -0.4023 -0.2565 -0.2603
  416MOL0     C56060   1.616  12.245   7.119 -0.7079 -0.4253 -0.2009
  416MOL0     O56061   1.495  12.298   7.115  0.2230 -0.4780  0.3559
  416MOL0     C56062   1.426  12.300   6.986  0.4283 -0.6565 -0.4081
  416MOL0     C56063   1.308  12.390   6.998 -0.2984  0.0882 -0.2846
  416MOL0     C56064   1.235  12.410   6.856  0.4246  1.0708 -1.2311
  416MOL0     C56065   1.082  12.384   6.876 -0.1306  0.1590  0.6565
  416MOL0     C56066   1.002  12.388   6.735  0.0748 -0.3709 -0.0558
  416MOL0     C56067   1.028  12.518   6.655 -0.1544  0.3251 -0.0716
  416MOL0     C56068   0.917  12.537   6.540  0.1638 -0.1651  0.9190
  416MOL0     C56069   0.934  12.675   6.469  0.2497  0.5063 -0.8753
  416MOL0    Cl56070   0.799  12.676   6.352  0.2279  0.2806  0.5208
  416MOL0     C56071   1.683  12.282   7.233 -0.2234 -0.5037  0.6076
  416MOL0     C56072   1.808  12.220   7.265  0.4591 -0.0457  0.0944
  416MOL0     O56073   1.976  12.054   7.429  0.3750  0.5479 -0.8379
  416MOL0     C56074   2.212  11.912   7.184  0.6847 -0.2577 -0.6559
  416MOL0     C56075   2.327  11.833   7.163 -0.3891 -0.1703 -0.2399
  416MOL0     N56076   2.643  11.155   7.061  0.5418 -0.5171  0.5336
  416MOL0     N56077   2.629  11.032   7.059 -0.3964  0.0932 -0.5511
  416MOL0     C56078   3.725  10.621   7.448 -0.0084  0.7302  0.4641
  416MOL0     C56079   3.826  10.546   7.505 -0.4348 -0.9674 -0.1017
  416MOL0     C56080   4.187  10.296   7.552 -0.2933  0.6203  0.7318
  416MOL0     C56081   4.196  10.156   7.562 -0.3042 -0.1379  1.0677
  416MOL0     C56082   4.324  10.093   7.563  0.2845  0.2775  0.1251
  416MOL0     C56083   4.443  10.161   7.542 -0.0892  0.5316  0.1935
  416MOL0     O56084   4.561  10.095   7.561 -0.4932 -0.2794 -0.9737
  416MOL0     C56085   4.616  10.108   7.696 -0.0456 -0.3935 -0.7056
  416MOL0     C56086   4.718  10.234   7.712  0.1150 -0.3522  0.1444
  416MOL0     C56087   4.811  10.249   7.591  0.2731 -0.0335 -0.7748
  416MOL0     C56088   4.925  10.349   7.600  0.7399 -0.5640 -0.1217
  416MOL0     C56089   5.010  10.344   7.724  0.4955 -0.2633 -0.4433
  416MOL0     C56090   5.092  10.354   7.819  0.0368  0.2035  0.4191
  416MOL0     C56091   4.433  10.299   7.529 -0.5169 -0.4878 -0.2834
  416MOL0     C56092   4.311  10.368   7.542 -0.0260  0.8990  0.2021
  416MOL0     H56093   4.089  10.716   7.367 -1.9317  1.1210 -0.7670
  416MOL0     H56094   3.905  10.855   7.269 -1.2194  1.5324  0.1478
  416MOL0     H56095   3.514  10.676   7.311  2.5124  0.0524  0.4499
  416MOL0     H56096   3.486  10.800   7.424 -0.3808 -1.0057  0.6221
  416MOL0     H56097   3.438  10.967   7.227 -1.9738  0.6259 -2.5744
  416MOL0     H56098   3.488  10.841   7.113 -0.1243  0.1477  0.6279
  416MOL0     H56099   3.301  10.694   7.197 -1.3337 -0.2593  5.7316
  416MOL0     H56100   3.237  10.832   7.282  0.9664  0.4143  0.0362
  416MOL0     H56101   3.267  10.953   7.057  0.1479 -0.4000 -2.3132
  416MOL0     H56102   3.312  10.798   6.997 -0.8275  0.4018 -1.7411
  416MOL0     H56103   3.086  10.815   6.928  2.3119  1.5307 -0.8328
  416MOL0     H56104   3.080  10.694   7.061  3.0465 -0.0653 -0.8519
  416MOL0     H56105   3.011  10.873   7.220  0.7834 -0.6146  0.5752
  416MOL0     H56106   3.002  10.976   7.075  1.2606 -0.9989 -0.1773
  416MOL0     H56107   2.817  10.824   6.986  0.2440 -3.2024 -0.5654
  416MOL0     H56108   2.863  10.699   7.106  2.3607  0.3848 -0.4075
  416MOL0     H56109   2.770  10.833   7.290  0.8701  0.2682 -0.0610
  416MOL0     H56110   2.656  10.797   7.152 -1.2569  0.4960  1.0906
  416MOL0     H56111   2.824  11.104   7.315  2.6673  0.9488 -1.2707
  416MOL0     H56112   2.805  11.364   7.285  2.2465 -0.7178 -0.2460
  416MOL0     H56113   2.834  11.378   7.122  0.7714 -3.1859  0.4532
  416MOL0     H56114   2.555  11.415   7.242 -0.7902  2.5358 -0.1784
  416MOL0     H56115   2.592  11.433   7.071 -1.0583  0.3852 -0.3728
  416MOL0     H56116   2.780  11.606   7.168  2.4869 -1.8892  2.7176
  416MOL0     H56117   2.695  11.606   7.322  1.6011 -2.0767  0.5890
  416MOL0     H56118   2.517  11.630   7.082  0.6380  1.7475 -1.7302
  416MOL0     H56119   2.608  11.771   7.118 -1.5540  2.2136  1.3540
  416MOL0     H56120   2.375  11.732   7.478  0.4775  2.4615  1.9230
  416MOL0     H56121   2.184  11.768   7.609 -0.9402 -0.5792 -0.9216
  416MOL0     H56122   2.129  11.938   7.597 -0.7094 -0.5512  3.5628
  416MOL0     H56123   2.028  11.816   7.543  0.2792 -0.0470 -0.9560
  416MOL0     H56124   1.835  12.015   6.989  1.2918 -2.1424  2.0634
  416MOL0     H56125   1.622  12.125   6.933  0.4037  1.0388 -1.0047
  416MOL0     H56126   1.476  12.348   6.902 -2.4399  1.8519 -0.8373
  416MOL0     H56127   1.398  12.200   6.952 -1.2652 -0.6800  0.9297
  416MOL0     H56128   1.235  12.367   7.076  1.5004 -0.5272  1.2981
  416MOL0     H56129   1.347  12.485   7.036 -3.3890  0.4091  2.6186
  416MOL0     H56130   1.273  12.343   6.779  1.3258 -1.8252  1.5334
  416MOL0     H56131   1.238  12.516   6.829 -2.6709  0.6227 -3.9563
  416MOL0     H56132   1.076  12.280   6.909  2.6755 -0.0692  0.7029
  416MOL0     H56133   1.033  12.447   6.951 -4.0582  1.6089 -2.7375
  416MOL0     H56134   0.894  12.377   6.739 -0.3051  1.7142 -2.3781
  416MOL0     H56135   1.036  12.296   6.687  2.4799 -1.0371  2.6552
  416MOL0     H56136   1.025  12.603   6.723  1.5568  1.9348 -1.8662
  416MOL0     H56137   1.126  12.521   6.606  0.5089  0.3730  1.2334
  416MOL0     H56138   0.817  12.526   6.584 -1.0964  1.2041 -1.4512
  416MOL0     H56139   0.922  12.460   6.463  0.9482  0.5644  0.2245
  416MOL0     H56140   1.030  12.680   6.416 -0.0488 -0.9935 -1.6145
  416MOL0     H56141   0.924  12.761   6.536  0.1853 -0.1263 -0.0603
  416MOL0     H56142   1.627  12.327   7.315 -0.2105  0.8509 -0.1050
  416MOL0     H56143   1.851  12.237   7.363  1.2820 -0.5921 -0.1589
  416MOL0     H56144   2.181  11.979   7.104  0.1747  1.6997  1.0909
  416MOL0     H56145   2.383  11.840   7.070 -1.2110 -5.3122 -1.4572
  416MOL0     H56146   3.623  10.591   7.471  0.0234  0.6793  0.5368
  416MOL0     H56147   3.799  10.468   7.574 -1.7214 -0.2882  0.1814
  416MOL0     H56148   4.108  10.091   7.558 -0.2672 -0.1496  0.2467
  416MOL0     H56149   4.328   9.984   7.569 -0.7495  0.0489 -2.2364
  416MOL0     H56150   4.540  10.111   7.774  1.7855 -1.2248  1.2064
  416MOL0     H56151   4.671  10.014   7.707  1.4142  0.3450 -1.3954
  416MOL0     H56152   4.782  10.224   7.801 -0.5216  0.0720  0.6577
  416MOL0     H56153   4.653  10.320   7.729  2.1943  1.7937 -1.9320
  416MOL0     H56154   4.749  10.265   7.503 -1.0951 -1.4046 -0.1118
  416MOL0     H56155   4.857  10.152   7.571 -0.0946 -0.2991 -0.3536
  416MOL0     H56156   4.897  10.453   7.578  1.5347  0.6062  3.6692
  416MOL0     H56157   4.998  10.325   7.522  1.9567  2.9353 -0.2405
  416MOL0     H56158   5.150  10.325   7.904  1.7413 -1.9451 -1.3786
  416MOL0     H56159   4.523  10.359   7.530 -1.9581  1.8410 -1.3161
  416MOL0     H56160   4.311  10.477   7.532 -0.9831  0.7588 -1.9718
  417MOL0     O56161   6.105   1.025   4.191  0.0981 -0.1427 -0.1744
  417MOL0     C56162   6.072   0.912   4.171  0.2091  0.2743  0.6763
  417MOL0     O56163   5.977   0.873   4.079 -0.0183 -0.5357 -0.5435
  417MOL0     C56164   5.927   0.956   3.982 -0.7857 -0.2274  0.3485
  417MOL0     C56165   6.008   1.051   3.925 -0.2044 -1.0267 -0.2099
  417MOL0     C56166   5.946   1.129   3.820  0.3846  0.1906 -0.8661
  417MOL0     C56167   5.824   1.092   3.759  0.4792 -0.4729 -0.2924
  417MOL0     O56168   5.788   1.165   3.657  0.2827  0.0510 -0.5551
  417MOL0     C56169   5.649   1.202   3.652  0.8808  0.5851  0.8523
  417MOL0     C56170   5.637   1.279   3.524  0.3584 -0.0628  0.2611
  417MOL0     C56171   5.491   1.316   3.503  0.8218  0.5211 -0.1687
  417MOL0     C56172   5.478   1.423   3.380 -0.4098  0.5086  0.0446
  417MOL0     C56173   5.338   1.473   3.359  0.5991 -0.4646 -0.2076
  417MOL0     C56174   5.262   1.376   3.274  0.5608  0.5867  0.0191
  417MOL0     C56175   5.180   1.455   3.166  0.1234  0.8229 -0.4442
  417MOL0     C56176   5.093   1.373   3.068  0.2479  0.6589  0.0790
  417MOL0     N56177   4.980   1.311   3.136  0.6666 -0.5298  0.8311
  417MOL0     C56178   4.864   1.375   3.176  0.3140  0.7594  0.2131
  417MOL0     C56179   4.781   1.275   3.211  0.6441 -0.0368 -0.3579
  417MOL0     C56180   4.642   1.285   3.275  0.2582  0.4762  0.0186
  417MOL0     C56181   4.637   1.270   3.428 -0.4539 -0.6670  0.0684
  417MOL0     C56182   4.511   1.217   3.498  0.2076 -0.6406 -0.0115
  417MOL0     C56183   4.527   1.219   3.649  0.5535 -0.0209  0.3538
  417MOL0     O56184   4.514   1.346   3.714 -0.2467 -0.1186  0.5910
  417MOL0     C56185   4.633   1.404   3.751  0.5943  0.0279 -0.3901
  417MOL0     C56186   4.699   1.506   3.681  0.1840 -0.6134 -0.0380
  417MOL0     C56187   4.816   1.564   3.728 -0.2009  0.2773  0.1714
  417MOL0     C56188   4.872   1.672   3.630 -0.3847  0.3979 -0.3054
  417MOL0     C56189   4.878   1.523   3.851  0.2959 -0.2203  0.8007
  417MOL0     C56190   5.006   1.576   3.898 -0.3874  0.5730  0.0289
  417MOL0     O56191   5.048   1.531   4.025  0.1198  0.7827  0.2834
  417MOL0     C56192   5.141   1.606   4.092 -0.5756 -0.1849 -0.2109
  417MOL0     C56193   5.124   1.625   4.232  1.0304 -0.1015  0.3443
  417MOL0     C56194   5.223   1.676   4.314  0.0966  0.7927 -0.6743
  417MOL0     C56195   5.339   1.726   4.254  0.5842  0.1026 -0.3807
  417MOL0     O56196   5.427   1.783   4.344  0.3942 -0.2006  0.4281
  417MOL0     C56197   5.504   1.899   4.306  0.4086  0.1904 -0.2421
  417MOL0     C56198   5.649   1.863   4.321  0.0871  0.8974  0.1194
  417MOL0     C56199   5.742   1.971   4.279 -0.6410  0.4196  0.9697
  417MOL0     C56200   5.790   1.957   4.126 -0.3659 -0.3075  0.4188
  417MOL0     C56201   5.906   2.042   4.085  0.0981  0.4926  0.3768
  417MOL0     C56202   5.873   2.181   4.054 -0.0493 -0.3019 -0.3377
  417MOL0     C56203   5.872   2.284   4.167  0.4110 -0.0358 -0.8404
  417MOL0     C56204   5.786   2.408   4.164  1.1319 -0.0216 -1.2200
  417MOL0    Cl56205   5.769   2.470   4.008 -0.3681  0.2180 -0.1963
  417MOL0     C56206   5.354   1.706   4.113  0.0723  0.1301  0.5681
  417MOL0     C56207   5.264   1.637   4.039 -0.4472  0.2129 -0.4880
  417MOL0     O56208   5.051   1.681   3.849 -0.5759  0.3137  0.0437
  417MOL0     C56209   4.818   1.410   3.913 -0.5086  1.1444 -0.3559
  417MOL0     C56210   4.703   1.346   3.858 -1.4641 -1.1323 -0.9438
  417MOL0     N56211   4.853   1.150   3.214  0.1495 -1.5790  0.7602
  417MOL0     N56212   4.978   1.180   3.161  1.2809 -0.4547 -0.0439
  417MOL0     C56213   5.758   0.987   3.817 -0.8358 -0.5693  0.1337
  417MOL0     C56214   5.808   0.913   3.923 -0.2212  0.5356  0.2779
  417MOL0     C56215   6.136   0.810   4.267  0.3368  0.5335  0.6002
  417MOL0     C56216   6.105   0.667   4.252  0.3386  0.0454 -0.7292
  417MOL0     C56217   6.161   0.570   4.329 -0.1930  0.4757 -0.4077
  417MOL0     C56218   6.267   0.606   4.422 -0.7685 -0.4092  0.2771
  417MOL0     O56219   6.334   0.512   4.498 -0.0663  0.3830  0.4902
  417MOL0     C56220   6.365   0.388   4.432  0.1451 -1.1142  0.3334
  417MOL0     C56221   6.463   0.316   4.523  0.2326  0.3363  0.0560
  417MOL0     C56222   6.601   0.377   4.541  1.5165 -0.6298 -0.8405
  417MOL0     C56223   6.669   0.417   4.413 -0.3377 -0.1411  0.0485
  417MOL0     C56224   6.675   0.312   4.311  0.2060  0.1757  0.6200
  417MOL0     C56225   6.670   0.228   4.225 -0.4836  0.0862  0.4880
  417MOL0     C56226   6.309   0.741   4.437  0.2112 -0.0580  0.9613
  417MOL0     C56227   6.239   0.838   4.361  0.4731 -0.1869  1.0957
  417MOL0     H56228   6.112   1.061   3.955 -0.6896 -0.6674  1.4465
  417MOL0     H56229   5.994   1.217   3.779 -0.5764  1.4470  0.6227
  417MOL0     H56230   5.580   1.117   3.655  1.9786 -0.4360 -0.8429
  417MOL0     H56231   5.622   1.272   3.730 -1.2642 -0.2256  0.8884
  417MOL0     H56232   5.698   1.369   3.516  0.4462 -0.2681 -2.8034
  417MOL0     H56233   5.671   1.221   3.438 -0.9538  0.7969 -0.8916
  417MOL0     H56234   5.417   1.238   3.482  0.8211  0.4190  0.2116
  417MOL0     H56235   5.452   1.372   3.589  0.9901  2.5336 -1.3274
  417MOL0     H56236   5.536   1.509   3.412  0.0942  0.1845  0.0039
  417MOL0     H56237   5.520   1.388   3.285  1.2273  1.1423  0.5219
  417MOL0     H56238   5.286   1.479   3.455 -1.8092  0.6468 -1.5008
  417MOL0     H56239   5.345   1.576   3.323 -0.4680 -0.2751  0.0826
  417MOL0     H56240   5.332   1.310   3.222 -1.7921 -1.3724 -0.8669
  417MOL0     H56241   5.190   1.320   3.335  0.1038  1.3592  0.2092
  417MOL0     H56242   5.110   1.520   3.218  0.1520 -0.6024  1.4951
  417MOL0     H56243   5.250   1.514   3.106 -1.6382  0.5981 -2.8883
  417MOL0     H56244   5.151   1.291   3.025 -1.7305 -1.0151  0.4161
  417MOL0     H56245   5.069   1.440   2.986 -0.1593 -0.0482 -0.3843
  417MOL0     H56246   4.838   1.480   3.168 -2.7821  0.0752  0.2258
  417MOL0     H56247   4.593   1.381   3.256  0.0929  1.2242  3.6193
  417MOL0     H56248   4.582   1.200   3.241  1.6658 -1.4381  2.0770
  417MOL0     H56249   4.647   1.370   3.471 -1.5080 -0.2242 -0.6889
  417MOL0     H56250   4.718   1.205   3.466  0.9231  1.1227  0.3303
  417MOL0     H56251   4.492   1.114   3.467 -0.4429 -1.3474  2.5346
  417MOL0     H56252   4.426   1.276   3.460  1.4177 -1.2879 -4.2579
  417MOL0     H56253   4.622   1.175   3.680  1.7124  2.3228  0.3527
  417MOL0     H56254   4.443   1.162   3.691  0.2424  1.7199  2.2531
  417MOL0     H56255   4.657   1.530   3.584  2.5004  0.2635 -0.9079
  417MOL0     H56256   4.966   1.643   3.583 -2.0576 -1.0445 -3.0591
  417MOL0     H56257   4.811   1.688   3.541 -0.5914  0.4571 -0.1539
  417MOL0     H56258   4.885   1.768   3.679  2.6426  0.0513 -0.2224
  417MOL0     H56259   5.028   1.592   4.269  1.4372 -1.5318  0.1914
  417MOL0     H56260   5.209   1.696   4.419 -0.5626  1.6932 -0.9200
  417MOL0     H56261   5.490   1.921   4.199 -2.2546 -1.6183 -0.3688
  417MOL0     H56262   5.480   1.993   4.355 -1.3565  0.8831 -2.2674
  417MOL0     H56263   5.667   1.825   4.422 -1.2018 -1.9722 -0.6229
  417MOL0     H56264   5.660   1.778   4.253 -1.4446  1.2910 -0.6601
  417MOL0     H56265   5.824   1.954   4.350 -1.0180  0.5896  1.4533
  417MOL0     H56266   5.702   2.071   4.302  0.5377  1.2161 -0.2753
  417MOL0     H56267   5.817   1.853   4.106 -0.2261  0.1848 -2.3853
  417MOL0     H56268   5.710   1.988   4.057  3.1637  0.3743 -3.8453
  417MOL0     H56269   5.944   1.996   3.993 -0.6772  1.2362 -0.3199
  417MOL0     H56270   5.988   2.029   4.157  0.2932 -1.3820 -0.1141
  417MOL0     H56271   5.954   2.218   3.990  0.0350 -1.8604 -1.1884
  417MOL0     H56272   5.781   2.184   3.995 -0.5937 -1.6102  0.4161
  417MOL0     H56273   5.976   2.309   4.191  0.7748 -2.7910  0.8529
  417MOL0     H56274   5.836   2.230   4.255  0.2852  1.6548  0.1921
  417MOL0     H56275   5.820   2.482   4.236  0.2675 -0.8798  0.1203
  417MOL0     H56276   5.684   2.378   4.190 -0.3890  1.5117 -4.6895
  417MOL0     H56277   5.441   1.730   4.052 -0.4545 -0.1305 -0.3018
  417MOL0     H56278   5.284   1.617   3.934 -3.4847  1.0777 -1.3510
  417MOL0     H56279   4.860   1.370   4.005 -2.0033 -0.4293 -0.3199
  417MOL0     H56280   4.659   1.255   3.898 -0.9535 -0.1760  2.0249
  417MOL0     H56281   5.658   0.965   3.780 -0.8049 -0.9376  0.2650
  417MOL0     H56282   5.750   0.831   3.963 -0.3804  1.7795  2.8232
  417MOL0     H56283   6.025   0.640   4.183 -0.6304  0.3540  0.2297
  417MOL0     H56284   6.120   0.469   4.330 -0.1799  0.4224  2.1046
  417MOL0     H56285   6.278   0.324   4.415  1.5224 -2.8948 -0.3731
  417MOL0     H56286   6.398   0.410   4.330  1.7665 -0.3439  0.9864
  417MOL0     H56287   6.474   0.215   4.480  1.0427  0.9812 -1.3259
  417MOL0     H56288   6.416   0.315   4.621  2.5894 -0.0618  1.2396
  417MOL0     H56289   6.659   0.304   4.599 -0.9410 -0.4585  2.1261
  417MOL0     H56290   6.589   0.463   4.607 -2.9533 -1.2226 -0.5308
  417MOL0     H56291   6.776   0.428   4.437  0.3073 -0.2081 -2.4954
  417MOL0     H56292   6.636   0.507   4.360 -0.6536 -0.5382 -0.4454
  417MOL0     H56293   6.652   0.149   4.155 -1.9424  1.0607 -0.2881
  417MOL0     H56294   6.390   0.766   4.505  2.4874 -3.0560 -0.4210
  417MOL0     H56295   6.274   0.941   4.369  1.0464 -0.3045  0.2217
  418MOL0     O56296   3.383  11.060   0.522 -0.1051  0.7990  0.4241
  418MOL0     C56297   3.367  11.146   0.437 -0.8768 -0.0093 -0.6559
  418MOL0     O56298   3.257  11.183   0.383  0.1896 -0.1387  0.0908
  418MOL0     C56299   3.140  11.141   0.434  0.6246 -0.1085  0.2254
  418MOL0     C56300   3.039  11.098   0.347  0.2141  0.4771  0.4629
  418MOL0     C56301   2.905  11.065   0.386 -0.5177 -0.5664 -0.4971
  418MOL0     C56302   2.876  11.071   0.530  0.2091 -1.6062  1.3776
  418MOL0     O56303   2.753  11.031   0.573  0.3520  0.3950 -0.6094
  418MOL0     C56304   2.656  10.976   0.476 -1.0410 -0.0359 -0.3030
  418MOL0     C56305   2.520  10.959   0.544  1.4867  0.3177 -0.8564
  418MOL0     C56306   2.416  10.925   0.443 -0.2394 -0.4582 -0.5504
  418MOL0     C56307   2.349  11.052   0.389 -0.1698  0.4847 -0.3258
  418MOL0     C56308   2.224  11.000   0.314  0.2807 -0.0022 -0.3857
  418MOL0     C56309   2.241  10.955   0.169 -0.1027 -0.6535 -0.4334
  418MOL0     C56310   2.252  11.072   0.067  0.0813 -0.3726  0.9909
  418MOL0     C56311   2.132  11.101  -0.015  0.0666  0.1017  0.8982
  418MOL0     N56312   2.059  11.220   0.020 -0.6804 -0.2167  0.2748
  418MOL0     C56313   1.971  11.231   0.128 -0.1851  0.5240 -0.1543
  418MOL0     C56314   1.937  11.359   0.144  0.0609  0.1014  0.5041
  418MOL0     C56315   1.824  11.410   0.227 -0.9962 -0.2303  0.2691
  418MOL0     C56316   1.759  11.529   0.158  0.8258 -0.7164 -0.4094
  418MOL0     C56317   1.671  11.477   0.044  0.6198 -0.6026  0.2367
  418MOL0     C56318   1.606  11.582  -0.047 -0.8030  0.2532 -0.7557
  418MOL0     O56319   1.527  11.675   0.034  0.1003  0.6663 -0.8990
  418MOL0     C56320   1.417  11.737  -0.021  1.1397 -0.4438 -0.8689
  418MOL0     C56321   1.395  11.753  -0.155 -0.7916  0.0371  0.3257
  418MOL0     C56322   1.279  11.811  -0.204 -0.3316  0.0398  0.1025
  418MOL0     C56323   1.251  11.785  -0.351 -1.3347  0.5839 -1.0163
  418MOL0     C56324   1.186  11.863  -0.123  0.7725 -0.2128 -1.1779
  418MOL0     C56325   1.065  11.928  -0.166 -0.3245 -0.4421 -0.1459
  418MOL0     O56326   1.004  12.029  -0.103 -0.0056 -0.3259 -0.1534
  418MOL0     C56327   0.867  12.034  -0.099 -0.4876  0.4707 -0.6564
  418MOL0     C56328   0.795  12.127  -0.162  0.5260  0.0608  0.8778
  418MOL0     C56329   0.658  12.136  -0.175 -0.6272  0.2705 -0.5704
  418MOL0     C56330   0.582  12.046  -0.094 -0.5338 -0.3138 -0.2054
  418MOL0     O56331   0.442  12.036  -0.099  0.3398 -0.2086  0.5456
  418MOL0     C56332   0.388  12.037  -0.234  0.1311  0.5490  0.0301
  418MOL0     C56333   0.324  12.159  -0.278  0.6450 -0.6893 -0.2773
  418MOL0     C56334   0.196  12.193  -0.212  0.9265 -0.4693 -0.7364
  418MOL0     C56335   0.118  12.313  -0.265 -0.0430 -0.6432  0.8865
  418MOL0     C56336   0.013  12.361  -0.167  0.7003  0.1871 -0.0468
  418MOL0     C56337  -0.118  12.277  -0.160 -0.2126  1.2286 -0.3562
  418MOL0     C56338  -0.222  12.339  -0.070  0.0272 -0.4529 -0.4581
  418MOL0     C56339  -0.296  12.453  -0.139 -0.5581 -0.5158 -0.4732
  418MOL0    Cl56340  -0.413  12.497  -0.013  0.2239  0.1318  0.2574
  418MOL0     C56341   0.659  11.956  -0.012  0.1914  0.3136 -0.1743
  418MOL0     C56342   0.795  11.956  -0.017  0.0787 -0.3309  0.6688
  418MOL0     O56343   1.014  11.865  -0.262  0.4205 -0.0467  0.0670
  418MOL0     C56344   1.213  11.862   0.017 -0.0372  0.5994 -0.3366
  418MOL0     C56345   1.331  11.798   0.065  0.3263 -0.1642  0.4174
  418MOL0     N56346   2.019  11.434   0.053  0.1326 -0.3183 -0.3545
  418MOL0     N56347   2.080  11.348  -0.018 -0.3905  1.1508  0.4761
  418MOL0     C56348   2.973  11.131   0.614 -0.3433 -0.4633 -0.3935
  418MOL0     C56349   3.108  11.157   0.570 -0.5316  0.5823  0.1367
  418MOL0     C56350   3.484  11.216   0.389 -0.3680  0.3819 -0.2305
  418MOL0     C56351   3.607  11.211   0.461  0.1880  0.4220  0.0064
  418MOL0     C56352   3.719  11.271   0.413  1.0863 -0.2618 -0.9661
  418MOL0     C56353   3.719  11.352   0.299 -0.1138  0.5858  0.2771
  418MOL0     O56354   3.837  11.391   0.254 -0.5054  0.3599  0.9766
  418MOL0     C56355   3.835  11.512   0.178 -0.0870 -0.6482  0.3582
  418MOL0     C56356   3.987  11.543   0.142 -0.5246 -0.2250  0.8658
  418MOL0     C56357   4.094  11.554   0.256 -0.2284  0.0160  0.1297
  418MOL0     C56358   4.109  11.449   0.367  0.2418  0.6347 -0.4778
  418MOL0     C56359   4.237  11.463   0.443 -1.1271  0.1802 -0.0059
  418MOL0     C56360   4.347  11.481   0.494  0.1109  0.0886  0.7041
  418MOL0     C56361   3.599  11.357   0.226  0.9927 -1.5382  0.1257
  418MOL0     C56362   3.480  11.300   0.276  0.2057 -0.6728  0.1878
  418MOL0     H56363   3.068  11.091   0.243 -1.3127  1.4337 -0.0744
  418MOL0     H56364   2.841  11.028   0.307 -3.9537  0.2341  1.7092
  418MOL0     H56365   2.643  11.052   0.398  1.0782  0.0227 -0.6485
  418MOL0     H56366   2.694  10.889   0.423 -0.9499 -0.1405 -0.0692
  418MOL0     H56367   2.520  10.889   0.628 -1.7067  0.1860 -0.8366
  418MOL0     H56368   2.507  11.057   0.592 -1.0756  0.0729 -0.9446
  418MOL0     H56369   2.450  10.876   0.351 -3.0341  1.5562 -2.8111
  418MOL0     H56370   2.342  10.862   0.494  1.8820 -0.4522  2.8603
  418MOL0     H56371   2.331  11.127   0.467  0.8659 -0.4439  0.8322
  418MOL0     H56372   2.420  11.093   0.317  0.3436  1.0389  0.4789
  418MOL0     H56373   2.175  10.920   0.370 -0.1607 -1.9846 -3.3657
  418MOL0     H56374   2.160  11.089   0.319  2.1385  2.0231 -5.4115
  418MOL0     H56375   2.326  10.886   0.169  0.1904 -0.3029  0.2658
  418MOL0     H56376   2.159  10.889   0.140 -0.9787  0.3113 -0.2240
  418MOL0     H56377   2.279  11.164   0.120  2.6165  0.1612 -0.9842
  418MOL0     H56378   2.333  11.060  -0.005 -0.5061  3.6267 -0.5577
  418MOL0     H56379   2.064  11.015  -0.008  0.6407 -0.5294 -0.6515
  418MOL0     H56380   2.161  11.116  -0.120 -1.4010 -2.8798 -0.0572
  418MOL0     H56381   1.935  11.140   0.176  0.4392 -0.5051 -1.5628
  418MOL0     H56382   1.746  11.336   0.245  0.7266 -1.5767  2.8166
  418MOL0     H56383   1.858  11.445   0.325 -0.5212  0.9024 -0.2723
  418MOL0     H56384   1.843  11.591   0.123  0.5756 -0.3757 -0.4167
  418MOL0     H56385   1.704  11.597   0.223  3.1965  2.3702 -1.3522
  418MOL0     H56386   1.584  11.422   0.082  0.7344 -0.5458  0.5764
  418MOL0     H56387   1.733  11.413  -0.019  0.2671 -1.9312  1.2059
  418MOL0     H56388   1.544  11.529  -0.120 -3.4447  2.9323 -0.6298
  418MOL0     H56389   1.687  11.624  -0.107  0.4459 -3.1839 -1.7588
  418MOL0     H56390   1.465  11.716  -0.229 -2.2197  1.2971 -1.7656
  418MOL0     H56391   1.161  11.724  -0.361  0.3578 -2.5133  0.9628
  418MOL0     H56392   1.235  11.878  -0.406  1.2738 -0.0372 -3.0585
  418MOL0     H56393   1.333  11.732  -0.402 -1.7664 -2.0027  0.7913
  418MOL0     H56394   0.850  12.207  -0.209 -1.0150  2.7535  3.3295
  418MOL0     H56395   0.615  12.211  -0.240 -0.9847 -0.3695 -1.0879
  418MOL0     H56396   0.461  11.997  -0.305  0.8783  0.2113  0.9599
  418MOL0     H56397   0.314  11.957  -0.222  4.1589 -3.7546 -0.8110
  418MOL0     H56398   0.395  12.233  -0.239 -0.9355  0.2409  0.9822
  418MOL0     H56399   0.321  12.172  -0.386 -0.2347  1.0087 -0.0809
  418MOL0     H56400   0.201  12.191  -0.102 -0.2185  0.2595 -0.6517
  418MOL0     H56401   0.127  12.111  -0.236  0.9243 -0.1210 -1.9504
  418MOL0     H56402   0.197  12.388  -0.267 -0.3290 -0.3505 -0.4560
  418MOL0     H56403   0.083  12.292  -0.367  2.8849 -2.5490  0.1492
  418MOL0     H56404  -0.016  12.465  -0.186 -0.3586 -0.6003 -3.2521
  418MOL0     H56405   0.066  12.354  -0.071  2.0088 -1.5996 -0.8430
  418MOL0     H56406  -0.160  12.270  -0.261 -0.7524  1.5005 -0.1573
  418MOL0     H56407  -0.093  12.175  -0.126  1.2378  0.7124 -2.7554
  418MOL0     H56408  -0.176  12.360   0.028 -0.3135 -3.2154  0.3595
  418MOL0     H56409  -0.290  12.259  -0.040  0.9518 -1.0241  0.1782
  418MOL0     H56410  -0.357  12.430  -0.227 -1.1379 -0.8158 -0.0044
  418MOL0     H56411  -0.228  12.537  -0.156 -1.4101  0.0203 -1.3187
  418MOL0     H56412   0.604  11.888   0.053  2.1090 -1.3967 -0.2626
  418MOL0     H56413   0.856  11.889   0.043  1.0123 -1.3355 -1.2956
  418MOL0     H56414   1.147  11.912   0.087  1.0315 -1.3245  2.1968
  418MOL0     H56415   1.346  11.787   0.172 -2.9047 -2.7413  0.7678
  418MOL0     H56416   2.939  11.122   0.717  2.3370 -0.1802  0.5795
  418MOL0     H56417   3.176  11.207   0.639 -1.4819 -1.9367  3.1302
  418MOL0     H56418   3.625  11.154   0.552  0.6133 -0.6406 -0.7215
  418MOL0     H56419   3.814  11.254   0.463  0.4511 -2.0382 -0.2677
  418MOL0     H56420   3.782  11.505   0.083 -2.1717 -0.9519  1.4815
  418MOL0     H56421   3.804  11.601   0.234  1.0985 -1.2398  2.0326
  418MOL0     H56422   4.001  11.640   0.094  1.6586 -0.6891  0.4616
  418MOL0     H56423   4.017  11.457   0.081 -2.2533 -0.7120  0.6378
  418MOL0     H56424   4.079  11.651   0.304  1.1390  0.0244  0.5832
  418MOL0     H56425   4.192  11.563   0.209 -0.4785 -1.8194 -0.8313
  418MOL0     H56426   4.096  11.344   0.340 -1.7805  0.7081  0.0423
  418MOL0     H56427   4.023  11.456   0.433 -0.6740 -0.4214 -1.5252
  418MOL0     H56428   4.439  11.499   0.546  0.2652  1.6632 -0.0630
  418MOL0     H56429   3.598  11.416   0.135  0.7360 -0.5332  0.7768
  418MOL0     H56430   3.394  11.323   0.213  1.9430 -0.2335 -2.1380
  419MOL0     O56431   9.321   4.692   4.445 -0.0402  0.0316  0.2072
  419MOL0     C56432   9.379   4.726   4.550  0.6759 -0.1419  0.5440
  419MOL0     O56433   9.330   4.696   4.674 -0.1618 -0.3596 -0.5394
  419MOL0     C56434   9.226   4.611   4.688  0.1827  0.1943 -0.5596
  419MOL0     C56435   9.237   4.477   4.651 -0.2014  0.0268 -0.6480
  419MOL0     C56436   9.143   4.381   4.667 -0.0850 -0.7792 -0.6928
  419MOL0     C56437   9.023   4.419   4.727  0.2392  0.0084  0.2748
  419MOL0     O56438   8.909   4.341   4.741  0.1293  0.0986  0.5847
  419MOL0     C56439   8.869   4.277   4.620  0.9028 -1.2266  1.7169
  419MOL0     C56440   8.812   4.388   4.519  0.1143 -0.2916 -0.9929
  419MOL0     C56441   8.708   4.314   4.439 -0.1586 -0.2036 -0.4773
  419MOL0     C56442   8.656   4.405   4.332  0.6369  0.6839  0.1124
  419MOL0     C56443   8.504   4.420   4.355 -0.2735  0.1619 -0.1132
  419MOL0     C56444   8.464   4.572   4.362 -0.3382 -0.6089  0.6466
  419MOL0     C56445   8.315   4.602   4.354 -0.7690  0.2145  0.0364
  419MOL0     C56446   8.274   4.747   4.338 -0.1844 -0.3307  0.2846
  419MOL0     N56447   8.139   4.759   4.374 -0.6007 -0.5259 -0.8219
  419MOL0     C56448   8.042   4.767   4.285 -0.0544  0.3030 -0.4253
  419MOL0     C56449   7.927   4.811   4.351 -0.1971  0.4430  0.2430
  419MOL0     C56450   7.797   4.813   4.286  0.6887  0.5769 -0.6438
  419MOL0     C56451   7.679   4.858   4.374  0.2182 -0.2300  0.0320
  419MOL0     C56452   7.575   4.925   4.294  1.3152 -0.2623  0.0968
  419MOL0     C56453   7.484   5.013   4.382 -0.2580 -0.2534 -0.0788
  419MOL0     O56454   7.407   4.927   4.471  0.8855  0.3194 -0.6015
  419MOL0     C56455   7.332   4.993   4.567  0.4499 -0.0855 -0.3841
  419MOL0     C56456   7.256   5.114   4.551 -0.2514  0.0041  0.0741
  419MOL0     C56457   7.187   5.178   4.661  0.6844  0.7893  0.0312
  419MOL0     C56458   7.115   5.313   4.634 -0.2623 -0.4216 -0.2774
  419MOL0     C56459   7.193   5.120   4.790 -1.0121 -0.8435  0.6802
  419MOL0     C56460   7.119   5.173   4.908 -0.3966  0.8552 -0.8432
  419MOL0     O56461   7.029   5.279   4.897 -0.4535 -0.1304 -0.2977
  419MOL0     C56462   6.963   5.326   5.007  0.4901  0.6717  0.2346
  419MOL0     C56463   7.024   5.416   5.102  0.5117 -0.0485  0.5631
  419MOL0     C56464   6.958   5.453   5.226  0.0708  0.8648  0.1161
  419MOL0     C56465   6.833   5.400   5.248  0.6303  1.0694 -0.3159
  419MOL0     O56466   6.777   5.432   5.370 -0.0151  0.0914  0.4904
  419MOL0     C56467   6.645   5.476   5.356  0.4027 -0.4160  0.4153
  419MOL0     C56468   6.614   5.571   5.465 -0.6722 -0.2620 -0.1745
  419MOL0     C56469   6.685   5.706   5.447 -0.0602  0.3802 -0.4640
  419MOL0     C56470   6.667   5.812   5.558 -0.3382  0.5043 -0.3981
  419MOL0     C56471   6.533   5.885   5.532  0.7707 -0.7350 -0.6605
  419MOL0     C56472   6.509   5.986   5.641 -0.0841 -0.9014 -0.0180
  419MOL0     C56473   6.363   6.033   5.658 -0.9902 -0.0038 -0.2513
  419MOL0     C56474   6.352   6.150   5.763  0.6333  0.3952 -0.0768
  419MOL0    Cl56475   6.185   6.171   5.822 -0.2408  0.2730 -0.2551
  419MOL0     C56476   6.771   5.318   5.154 -0.3479 -0.0649  0.1158
  419MOL0     C56477   6.831   5.280   5.028 -0.1426  0.3646 -0.3114
  419MOL0     O56478   7.137   5.113   5.020 -0.0769 -0.5150 -0.4019
  419MOL0     C56479   7.268   4.998   4.805 -0.0610  0.4422  0.5522
  419MOL0     C56480   7.334   4.937   4.698 -0.5993 -0.1437  0.6031
  419MOL0     N56481   7.966   4.830   4.481  0.4577  0.2218  0.2354
  419MOL0     N56482   8.093   4.804   4.498 -0.0105  0.4056 -0.4193
  419MOL0     C56483   9.010   4.550   4.776 -0.0128 -0.5601  0.2950
  419MOL0     C56484   9.114   4.645   4.764  0.3468 -0.3587  0.1700
  419MOL0     C56485   9.502   4.802   4.531  0.2312  1.1605  0.3673
  419MOL0     C56486   9.569   4.814   4.410  0.0182  0.1999 -0.2775
  419MOL0     C56487   9.687   4.899   4.398  0.0952 -0.7830 -0.3789
  419MOL0     C56488   9.747   4.952   4.513 -0.5368 -0.5327  0.0883
  419MOL0     O56489   9.857   5.036   4.514  0.1962 -0.7044  0.0925
  419MOL0     C56490   9.921   5.094   4.398  0.5597 -0.5002  0.8416
  419MOL0     C56491   9.872   5.244   4.379 -0.3879  0.4506 -0.1770
  419MOL0     C56492   9.929   5.338   4.491  0.1927 -0.5385  0.7489
  419MOL0     C56493  10.085   5.356   4.506  0.3729  0.5739 -0.4743
  419MOL0     C56494  10.152   5.368   4.375 -0.1841  0.4071  0.3875
  419MOL0     C56495  10.225   5.364   4.279 -0.2171 -0.1017  0.3911
  419MOL0     C56496   9.693   4.926   4.633  0.0177  0.5978 -0.2289
  419MOL0     C56497   9.571   4.848   4.643 -0.7253  0.1559  0.5275
  419MOL0     H56498   9.327   4.433   4.611 -1.0351 -0.2440 -2.3132
  419MOL0     H56499   9.156   4.276   4.642  2.0062 -1.2220  1.7430
  419MOL0     H56500   8.936   4.211   4.564  1.5523  0.7729  0.0247
  419MOL0     H56501   8.779   4.222   4.650  0.1808 -0.5502  0.8337
  419MOL0     H56502   8.767   4.462   4.586 -0.8003 -1.4453 -0.2940
  419MOL0     H56503   8.885   4.441   4.458 -0.3693 -1.2876 -2.5072
  419MOL0     H56504   8.758   4.232   4.386  2.0072  1.1246 -0.6176
  419MOL0     H56505   8.626   4.268   4.495 -0.4136  0.2499 -0.4746
  419MOL0     H56506   8.712   4.499   4.320  1.5242  0.3910  1.7555
  419MOL0     H56507   8.666   4.350   4.238 -2.5738  0.7073 -0.3579
  419MOL0     H56508   8.442   4.377   4.276 -2.1063  4.3904 -1.2311
  419MOL0     H56509   8.473   4.386   4.455 -0.0240 -0.7994 -0.3529
  419MOL0     H56510   8.517   4.610   4.450 -1.4664  0.8644  0.7295
  419MOL0     H56511   8.511   4.617   4.274 -1.6775  1.8490  1.1080
  419MOL0     H56512   8.261   4.530   4.292 -0.6136 -2.1164  2.4288
  419MOL0     H56513   8.282   4.569   4.453 -1.7065 -0.9563 -0.6325
  419MOL0     H56514   8.293   4.789   4.239 -1.2128  1.4990  0.8292
  419MOL0     H56515   8.341   4.802   4.404  0.5379  4.8021 -4.0726
  419MOL0     H56516   8.048   4.760   4.177  0.5594  2.6166 -0.5850
  419MOL0     H56517   7.803   4.875   4.196 -0.2887  0.9840 -0.4422
  419MOL0     H56518   7.775   4.712   4.250  1.0584  1.0670 -2.3355
  419MOL0     H56519   7.708   4.923   4.457  0.7380  2.7093 -2.2818
  419MOL0     H56520   7.633   4.768   4.416  0.0069 -0.3677 -0.4869
  419MOL0     H56521   7.513   4.853   4.241  0.0325  0.5927  0.3893
  419MOL0     H56522   7.608   4.986   4.210 -1.0393 -1.3905 -1.7731
  419MOL0     H56523   7.401   5.059   4.328  0.4103  0.3170 -0.6348
  419MOL0     H56524   7.542   5.088   4.438 -4.1586  3.3274 -0.3143
  419MOL0     H56525   7.268   5.156   4.451  0.7360 -1.5947 -0.5050
  419MOL0     H56526   7.127   5.353   4.533 -0.1217  0.8790  0.2327
  419MOL0     H56527   7.008   5.297   4.650 -0.3404  2.4327  3.4281
  419MOL0     H56528   7.141   5.396   4.700  0.3330  0.9888 -2.2008
  419MOL0     H56529   7.123   5.457   5.082  0.4364  0.4625  1.1959
  419MOL0     H56530   7.010   5.503   5.307  1.7128 -1.5295  0.6586
  419MOL0     H56531   6.621   5.524   5.261 -0.3235 -0.4422  0.5818
  419MOL0     H56532   6.581   5.389   5.372  0.0569 -0.6847 -2.0878
  419MOL0     H56533   6.509   5.603   5.459  0.1658  2.6140 -1.6008
  419MOL0     H56534   6.638   5.532   5.564  3.2006  2.2721  0.0747
  419MOL0     H56535   6.654   5.748   5.351  0.5465 -0.8618 -1.2314
  419MOL0     H56536   6.789   5.674   5.437 -0.4910 -1.1169 -0.2965
  419MOL0     H56537   6.662   5.756   5.652 -0.9790 -0.1338 -0.8056
  419MOL0     H56538   6.764   5.861   5.570 -1.3945  2.7118 -0.2655
  419MOL0     H56539   6.451   5.813   5.528  0.5066 -1.3102  5.4487
  419MOL0     H56540   6.549   5.937   5.437  4.9201 -1.2733 -0.4464
  419MOL0     H56541   6.542   5.940   5.735 -0.1507 -2.4843 -0.7524
  419MOL0     H56542   6.571   6.075   5.625 -0.6455 -0.0506  2.1215
  419MOL0     H56543   6.318   5.946   5.707 -1.4828  2.1205  3.3558
  419MOL0     H56544   6.313   6.057   5.563  1.0090 -1.7166 -1.8614
  419MOL0     H56545   6.386   6.244   5.719 -2.2772  1.1458 -0.9267
  419MOL0     H56546   6.414   6.135   5.853  0.3765 -1.6964 -0.1896
  419MOL0     H56547   6.680   5.264   5.176 -0.7480 -0.6152 -2.5240
  419MOL0     H56548   6.781   5.210   4.962  0.8314 -0.8765  0.2177
  419MOL0     H56549   7.274   4.947   4.901  0.0696  0.3059  0.4703
  419MOL0     H56550   7.404   4.854   4.701  0.6033  0.7281 -1.0256
  419MOL0     H56551   8.927   4.582   4.838  2.0803  0.4312  2.7797
  419MOL0     H56552   9.105   4.741   4.813  2.3012 -0.7618  1.4276
  419MOL0     H56553   9.518   4.777   4.321 -1.3323  0.1299  0.4959
  419MOL0     H56554   9.732   4.913   4.301  1.4116 -2.6212 -0.0820
  419MOL0     H56555  10.029   5.092   4.418  0.5405  0.8358  1.2083
  419MOL0     H56556   9.887   5.047   4.306  0.1401  3.0630 -0.9742
  419MOL0     H56557   9.763   5.243   4.377 -0.6873 -3.3271  3.6565
  419MOL0     H56558   9.910   5.278   4.282 -0.7305  2.4652  0.3350
  419MOL0     H56559   9.898   5.293   4.586  2.3831  1.0883  2.3427
  419MOL0     H56560   9.881   5.436   4.481 -1.7417 -1.4787  0.1443
  419MOL0     H56561  10.133   5.273   4.559  1.2351  2.5033  1.9233
  419MOL0     H56562  10.113   5.449   4.556  3.6153  0.2569 -1.4437
  419MOL0     H56563  10.290   5.350   4.195 -1.2582  0.1631 -0.4924
  419MOL0     H56564   9.731   4.963   4.728 -2.4940 -1.3072  1.6682
  419MOL0     H56565   9.524   4.832   4.739  0.6407 -0.7530  1.0892
  420MOL0     O56566   7.309  10.313   7.947  0.3166  0.2077 -1.3412
  420MOL0     C56567   7.273  10.215   7.879  0.2836  0.3923 -0.7346
  420MOL0     O56568   7.152  10.158   7.870  0.6674  0.6078 -0.3967
  420MOL0     C56569   7.044  10.235   7.908  0.7536  0.0333 -0.9002
  420MOL0     C56570   6.938  10.229   7.816 -0.2425  0.1223 -1.1502
  420MOL0     C56571   6.811  10.292   7.839 -0.0388 -0.4925 -1.0676
  420MOL0     C56572   6.792  10.377   7.948  0.1583  0.1962 -0.5554
  420MOL0     O56573   6.670  10.431   7.960  0.7195 -0.5600  0.6946
  420MOL0     C56574   6.633  10.481   8.088  0.1345  0.7416  0.5130
  420MOL0     C56575   6.607  10.369   8.190  0.4557 -0.1922 -0.0785
  420MOL0     C56576   6.586  10.426   8.332 -0.4502  0.0506  0.5195
  420MOL0     C56577   6.450  10.492   8.358  0.0249 -0.3804 -0.2780
  420MOL0     C56578   6.465  10.588   8.490  0.0486  0.2601  0.0891
  420MOL0     C56579   6.326  10.651   8.517  0.0833 -1.2064  0.6950
  420MOL0     C56580   6.337  10.761   8.615  0.0384 -0.6496  0.3597
  420MOL0     C56581   6.346  10.708   8.764 -0.1636  0.2392  0.2723
  420MOL0     N56582   6.303  10.811   8.862  0.8467 -0.0598 -0.0468
  420MOL0     C56583   6.188  10.812   8.939 -0.0074  0.2213 -0.2057
  420MOL0     C56584   6.193  10.923   9.015 -0.1781  0.5609  0.5796
  420MOL0     C56585   6.100  10.969   9.131 -0.2703 -0.1966  0.8099
  420MOL0     C56586   6.174  10.963   9.266 -0.4041  0.2840 -0.0755
  420MOL0     C56587   6.160  10.823   9.339  0.7271  0.1855  0.3623
  420MOL0     C56588   6.255  10.797   9.456 -0.0785 -0.0088 -0.8123
  420MOL0     O56589   6.400  10.818   9.427  0.2063 -0.4550  0.2593
  420MOL0     C56590   6.463  10.743   9.333  0.1187 -0.4973  0.2689
  420MOL0     C56591   6.571  10.799   9.262  0.6605  0.0757  0.3138
  420MOL0     C56592   6.622  10.736   9.153 -0.6529  0.6452 -0.6775
  420MOL0     C56593   6.735  10.818   9.085 -0.0905  0.7757  0.0703
  420MOL0     C56594   6.557  10.609   9.103 -0.0213 -0.5193 -0.0972
  420MOL0     C56595   6.618  10.540   8.981 -0.4398 -0.3301 -0.5658
  420MOL0     O56596   6.580  10.406   8.972  0.0772  0.2782 -0.3711
  420MOL0     C56597   6.586  10.342   8.850  0.2851 -1.0486  0.6651
  420MOL0     C56598   6.709  10.316   8.784  0.1358  0.1885  0.0204
  420MOL0     C56599   6.700  10.241   8.671  0.5059  1.3001 -0.3360
  420MOL0     C56600   6.580  10.173   8.629  0.0417  0.0287 -0.4421
  420MOL0     O56601   6.588  10.101   8.514 -0.7523 -1.1059  0.8662
  420MOL0     C56602   6.542   9.974   8.528  0.1014 -0.0699 -0.0063
  420MOL0     C56603   6.567   9.897   8.397 -0.3088  0.2743  0.2480
  420MOL0     C56604   6.496   9.960   8.271 -0.2131 -0.3807 -0.2621
  420MOL0     C56605   6.555   9.916   8.138 -0.5654 -0.3504 -0.6108
  420MOL0     C56606   6.701   9.972   8.105 -0.5678  0.9056 -0.0620
  420MOL0     C56607   6.717   9.973   7.947 -0.4703  0.4012 -0.8827
  420MOL0     C56608   6.685   9.845   7.868  0.1055  0.8953  0.5426
  420MOL0     C56609   6.770   9.841   7.739 -0.6233 -0.2931  0.5467
  420MOL0    Cl56610   6.736   9.981   7.630  0.2698  0.1787  0.2677
  420MOL0     C56611   6.464  10.199   8.709  0.0194  0.0232 -0.3303
  420MOL0     C56612   6.462  10.290   8.814  0.1511  1.1266  0.1229
  420MOL0     O56613   6.659  10.607   8.884  0.4176  0.6693  0.3452
  420MOL0     C56614   6.458  10.551   9.179  0.2309 -0.3513  0.5520
  420MOL0     C56615   6.415  10.622   9.290  0.3841  0.2875  0.3239
  420MOL0     N56616   6.313  10.989   8.981 -0.2565 -0.4158 -0.4182
  420MOL0     N56617   6.382  10.913   8.898  0.4552  0.2493  0.0149
  420MOL0     C56618   6.903  10.386   8.045 -0.3462  0.1986  0.1390
  420MOL0     C56619   7.027  10.313   8.022  0.1386 -0.0585 -0.0373
  420MOL0     C56620   7.378  10.150   7.794 -0.9557 -0.0582 -0.3321
  420MOL0     C56621   7.355  10.030   7.728  0.7244 -0.5320  0.2389
  420MOL0     C56622   7.454   9.964   7.661  0.6059 -0.1179 -0.3347
  420MOL0     C56623   7.585  10.016   7.666 -0.4567  1.1175  0.6255
  420MOL0     O56624   7.695   9.949   7.616  0.1653 -0.4750  0.0412
  420MOL0     C56625   7.705   9.811   7.630  0.2140  1.2121  0.4998
  420MOL0     C56626   7.677   9.733   7.500  0.0925 -0.0745  0.2913
  420MOL0     C56627   7.761   9.783   7.378 -0.3022 -0.2014 -0.5627
  420MOL0     C56628   7.767   9.681   7.269 -0.1120 -0.4986  0.0212
  420MOL0     C56629   7.826   9.728   7.148 -0.1633 -0.6867 -0.4092
  420MOL0     C56630   7.882   9.772   7.046 -0.4867 -0.0240 -0.2592
  420MOL0     C56631   7.608  10.140   7.718  0.6779  0.3455  0.4846
  420MOL0     C56632   7.511  10.210   7.781 -0.2170 -0.0488 -1.0426
  420MOL0     H56633   6.953  10.160   7.733  1.3379 -1.8051  0.6020
  420MOL0     H56634   6.725  10.282   7.774 -0.2878  2.2483 -1.2891
  420MOL0     H56635   6.713  10.550   8.116  1.5627 -0.4918 -0.3754
  420MOL0     H56636   6.539  10.537   8.079 -1.0245 -1.2397 -0.2628
  420MOL0     H56637   6.524  10.309   8.149  0.9890 -0.4951 -0.7260
  420MOL0     H56638   6.691  10.301   8.203  0.1658 -1.3794 -3.3579
  420MOL0     H56639   6.599  10.334   8.391  0.3995  0.4610  0.9792
  420MOL0     H56640   6.664  10.498   8.353 -2.6521  2.9260 -0.5157
  420MOL0     H56641   6.426  10.551   8.269  1.6107  1.6361  0.5501
  420MOL0     H56642   6.367  10.422   8.374 -3.1225  2.3084 -3.0224
  420MOL0     H56643   6.495  10.528   8.576 -2.6636 -0.3451  0.7115
  420MOL0     H56644   6.540  10.666   8.473  0.2096  1.0194  3.5523
  420MOL0     H56645   6.297  10.703   8.426  4.0242  2.1742  1.0874
  420MOL0     H56646   6.243  10.588   8.548 -0.6282  0.0811  1.5088
  420MOL0     H56647   6.419  10.827   8.585 -3.0413  2.5177 -1.9456
  420MOL0     H56648   6.243  10.814   8.602  2.2530  4.3019  2.0845
  420MOL0     H56649   6.449  10.684   8.793  0.5238  3.2429  0.7436
  420MOL0     H56650   6.283  10.619   8.758  2.1650 -1.4242 -1.5014
  420MOL0     H56651   6.122  10.726   8.949  2.6417 -1.6928  2.3356
  420MOL0     H56652   6.077  11.074   9.112  0.5646 -0.2339 -0.5495
  420MOL0     H56653   6.008  10.910   9.122  0.5447 -1.2624 -1.2823
  420MOL0     H56654   6.150  11.046   9.332 -0.1692  1.8189 -1.8211
  420MOL0     H56655   6.281  10.975   9.249  0.0639  1.0116  2.8334
  420MOL0     H56656   6.173  10.744   9.264  3.7503  1.0654 -0.1833
  420MOL0     H56657   6.063  10.819   9.389  0.7282 -0.1155  0.3408
  420MOL0     H56658   6.243  10.691   9.482  1.2262 -0.5154 -2.1781
  420MOL0     H56659   6.224  10.856   9.543  0.0749 -1.7885  0.5266
  420MOL0     H56660   6.609  10.896   9.292 -1.2334  0.5329  1.3696
  420MOL0     H56661   6.690  10.865   8.997 -0.8311 -2.5946 -1.5047
  420MOL0     H56662   6.781  10.887   9.156 -0.0780 -0.9352  1.7936
  420MOL0     H56663   6.804  10.742   9.049  0.5015  0.1295  2.3998
  420MOL0     H56664   6.801  10.359   8.823 -0.4049  0.8516  0.5858
  420MOL0     H56665   6.792  10.224   8.617  1.3345  0.4506  1.2762
  420MOL0     H56666   6.585   9.931   8.619 -2.4716 -2.4376  0.2267
  420MOL0     H56667   6.435   9.977   8.549  0.3237 -1.0503  1.3897
  420MOL0     H56668   6.675   9.892   8.380 -0.4811 -1.1597 -0.5734
  420MOL0     H56669   6.531   9.796   8.419 -1.4731  0.7780  0.7166
  420MOL0     H56670   6.480  10.068   8.269 -0.5153 -0.4262 -0.3899
  420MOL0     H56671   6.395   9.919   8.283 -0.8660  1.1582 -0.1960
  420MOL0     H56672   6.562   9.808   8.126  1.4468 -0.1068 -2.2563
  420MOL0     H56673   6.480   9.955   8.069 -0.5410  0.6430 -0.1062
  420MOL0     H56674   6.785   9.911   8.138  0.2648  2.1838  0.2686
  420MOL0     H56675   6.711  10.073   8.146  2.4108  1.0121 -0.8273
  420MOL0     H56676   6.661  10.060   7.911 -0.8409 -0.6319 -3.0149
  420MOL0     H56677   6.825   9.990   7.941 -0.3193  1.6395  2.8154
  420MOL0     H56678   6.579   9.837   7.843  0.0649  0.4229  0.8454
  420MOL0     H56679   6.715   9.754   7.922  3.6819  0.7255 -1.4483
  420MOL0     H56680   6.754   9.748   7.683 -0.0718 -0.2118  0.2416
  420MOL0     H56681   6.873   9.843   7.777 -0.8959 -2.4491  1.5312
  420MOL0     H56682   6.375  10.158   8.661  0.9625  0.7879 -2.8819
  420MOL0     H56683   6.369  10.326   8.857 -1.7445 -0.3046 -2.5448
  420MOL0     H56684   6.419  10.453   9.153  1.2385 -0.2761 -1.3911
  420MOL0     H56685   6.334  10.570   9.341  1.0772 -1.1898 -0.0259
  420MOL0     H56686   6.906  10.450   8.133  2.9394  0.7591 -0.2522
  420MOL0     H56687   7.111  10.327   8.090  1.3514 -2.3419 -0.9534
  420MOL0     H56688   7.254   9.991   7.740 -1.2411  3.9419 -0.0327
  420MOL0     H56689   7.438   9.863   7.625  1.1616 -0.2155 -0.3147
  420MOL0     H56690   7.806   9.782   7.663  0.6489  1.2457 -0.7596
  420MOL0     H56691   7.641   9.759   7.702 -0.1258 -0.7104 -1.1007
  420MOL0     H56692   7.573   9.748   7.470 -0.0218  2.7551  1.7361
  420MOL0     H56693   7.698   9.626   7.513  0.7315  0.1778  1.5356
  420MOL0     H56694   7.861   9.802   7.418 -0.8519 -0.1513  0.8665
  420MOL0     H56695   7.711   9.874   7.343 -0.9129  0.3224  1.4976
  420MOL0     H56696   7.668   9.637   7.252 -1.0271  0.7186  1.8696
  420MOL0     H56697   7.835   9.601   7.299  0.5438  0.5056  1.3446
  420MOL0     H56698   7.916   9.803   6.949  1.5858  1.0612  0.7388
  420MOL0     H56699   7.706  10.187   7.721  1.5093 -0.9166 -2.9140
  420MOL0     H56700   7.538  10.302   7.833  5.8451 -2.0755  0.2537
  421MOL0     O56701   3.438   8.389   5.770 -0.0921  0.7190 -0.1395
  421MOL0     C56702   3.419   8.319   5.873 -0.7254 -0.6688  0.2338
  421MOL0     O56703   3.321   8.345   5.969  0.5124  0.5712  0.2147
  421MOL0     C56704   3.214   8.427   5.929 -0.9226  0.3897 -0.0233
  421MOL0     C56705   3.225   8.554   5.980 -0.3222 -0.7016  0.2725
  421MOL0     C56706   3.117   8.640   5.978  0.6549  0.3352  0.0739
  421MOL0     C56707   3.004   8.594   5.903 -0.8077  0.0631 -0.2824
  421MOL0     O56708   2.885   8.662   5.905 -0.5751  0.5327  0.0943
  421MOL0     C56709   2.882   8.806   5.918 -0.8437 -0.4276 -0.5694
  421MOL0     C56710   2.752   8.831   5.993 -0.5272 -0.1939 -0.5879
  421MOL0     C56711   2.632   8.859   5.884 -0.5919 -0.6723  0.1072
  421MOL0     C56712   2.651   9.004   5.816  0.0835 -0.1216  0.1969
  421MOL0     C56713   2.544   9.031   5.707 -0.6142  0.1629 -0.4554
  421MOL0     C56714   2.397   9.049   5.755 -0.0471 -1.1563 -0.5017
  421MOL0     C56715   2.380   9.179   5.835 -0.1909 -1.3375  1.0126
  421MOL0     C56716   2.252   9.189   5.915 -0.6849 -0.6370 -0.5776
  421MOL0     N56717   2.223   9.328   5.951  0.4685 -0.2833 -0.3501
  421MOL0     C56718   2.145   9.407   5.864 -0.1020 -0.2451 -0.5216
  421MOL0     C56719   2.160   9.531   5.909 -0.9124  0.2583 -0.3137
  421MOL0     C56720   2.081   9.644   5.852 -0.2260  0.3909  0.7278
  421MOL0     C56721   1.995   9.710   5.962 -0.0232  0.2831  0.1533
  421MOL0     C56722   1.886   9.617   6.009  0.1722 -0.0473 -1.3509
  421MOL0     C56723   1.762   9.609   5.916  0.6271  0.2107  0.1692
  421MOL0     O56724   1.665   9.711   5.934 -0.8535  0.0113  0.6074
  421MOL0     C56725   1.545   9.707   5.873  0.3256  0.9240 -0.6486
  421MOL0     C56726   1.456   9.807   5.912 -1.1249 -0.3486  0.3363
  421MOL0     C56727   1.327   9.821   5.864  0.1580  0.4942 -0.1893
  421MOL0     C56728   1.255   9.945   5.911  0.2612 -0.8065 -0.4506
  421MOL0     C56729   1.281   9.722   5.782  1.0290  0.2817  0.5729
  421MOL0     C56730   1.145   9.713   5.714  0.0106 -0.0731 -0.6754
  421MOL0     O56731   1.136   9.628   5.606  0.3997  0.5813  0.0288
  421MOL0     C56732   1.012   9.580   5.582  0.8139  0.6722 -0.1541
  421MOL0     C56733   0.939   9.633   5.484  0.0025 -0.0753 -0.5633
  421MOL0     C56734   0.807   9.594   5.474  0.6439 -1.2328 -1.2771
  421MOL0     C56735   0.751   9.486   5.544  0.4693 -0.4044  0.0858
  421MOL0     O56736   0.621   9.463   5.513  0.7009  0.3314  0.0903
  421MOL0     C56737   0.556   9.357   5.589  0.4984 -0.0987 -0.7341
  421MOL0     C56738   0.418   9.321   5.536  0.2215 -1.0069  0.1673
  421MOL0     C56739   0.318   9.442   5.554 -0.3862  0.0439 -0.2535
  421MOL0     C56740   0.198   9.425   5.464 -0.3766  0.4780  0.5906
  421MOL0     C56741   0.074   9.513   5.499 -0.0951 -0.1604 -0.4655
  421MOL0     C56742  -0.028   9.502   5.375  0.5627 -0.0577  0.2414
  421MOL0     C56743  -0.175   9.548   5.411 -0.3982  0.1255 -0.0869
  421MOL0     C56744  -0.251   9.602   5.289 -0.3089  0.5307  0.6654
  421MOL0    Cl56745  -0.419   9.661   5.325 -0.4827 -0.1992  0.2667
  421MOL0     C56746   0.829   9.427   5.641 -0.4384  0.6503 -0.5476
  421MOL0     C56747   0.960   9.475   5.659 -0.6037 -0.5252  0.0846
  421MOL0     O56748   1.050   9.761   5.780  0.1866  0.3238  0.5214
  421MOL0     C56749   1.367   9.615   5.741  0.2384 -0.8000  0.1294
  421MOL0     C56750   1.498   9.603   5.789  0.4235 -0.3978  0.1141
  421MOL0     N56751   2.257   9.533   6.007  0.9772 -0.0254  0.0151
  421MOL0     N56752   2.298   9.409   6.038  0.1219  0.0721  0.3212
  421MOL0     C56753   2.990   8.456   5.853  0.3873  0.2062 -0.5292
  421MOL0     C56754   3.103   8.380   5.862 -0.2241  0.3368 -0.0967
  421MOL0     C56755   3.522   8.213   5.905  1.1060 -0.3254 -0.1070
  421MOL0     C56756   3.561   8.196   6.039 -0.2447 -0.1414  0.3929
  421MOL0     C56757   3.676   8.121   6.080  0.7351 -0.9650  0.6219
  421MOL0     C56758   3.750   8.072   5.966  0.6713  0.5976 -0.2810
  421MOL0     O56759   3.867   8.003   5.979 -0.0870  0.2570  0.1076
  421MOL0     C56760   3.983   8.092   5.996 -0.4024 -0.1224  0.0091
  421MOL0     C56761   4.095   8.013   6.063  0.0369 -0.3745 -0.0378
  421MOL0     C56762   4.148   7.894   5.986  0.1485 -0.2880  0.9849
  421MOL0     C56763   4.292   7.857   6.025 -0.5102  0.7526  0.5407
  421MOL0     C56764   4.386   7.964   6.022  0.0767 -0.3736  0.0479
  421MOL0     C56765   4.456   8.061   6.047 -0.3875  0.8341 -0.2152
  421MOL0     C56766   3.707   8.092   5.839 -0.8579 -0.7637 -1.0671
  421MOL0     C56767   3.593   8.159   5.800 -0.1080  0.8113 -0.2047
  421MOL0     H56768   3.317   8.582   6.030  0.2960  1.1596 -1.7424
  421MOL0     H56769   3.123   8.744   6.007  0.9546  0.8570 -1.7192
  421MOL0     H56770   2.959   8.846   5.984 -1.9740  0.3540  0.3068
  421MOL0     H56771   2.891   8.852   5.819 -2.8102 -0.6663 -0.8961
  421MOL0     H56772   2.737   8.730   6.033 -0.1915 -1.2066 -2.8874
  421MOL0     H56773   2.757   8.906   6.073 -1.5822 -1.3093  0.5860
  421MOL0     H56774   2.637   8.779   5.809  0.1846 -0.3245 -0.2178
  421MOL0     H56775   2.536   8.856   5.937  1.1804  1.3958  3.7680
  421MOL0     H56776   2.654   9.088   5.886 -0.1518  0.0417  0.0113
  421MOL0     H56777   2.749   8.997   5.768 -0.2794 -0.4797 -0.4959
  421MOL0     H56778   2.577   9.106   5.636  2.5234 -0.6407 -0.0115
  421MOL0     H56779   2.548   8.945   5.640 -2.7825  0.1560 -0.6330
  421MOL0     H56780   2.332   9.053   5.668  0.0448 -3.2107 -0.7109
  421MOL0     H56781   2.358   8.969   5.818 -3.5286  0.1426 -0.7801
  421MOL0     H56782   2.451   9.194   5.916 -0.8818 -0.0009  1.3952
  421MOL0     H56783   2.393   9.257   5.759  0.4154 -1.1916  1.2604
  421MOL0     H56784   2.273   9.144   6.013  1.1038  0.4199 -0.4369
  421MOL0     H56785   2.170   9.145   5.858 -0.9311 -1.8158  0.6286
  421MOL0     H56786   2.093   9.368   5.777 -3.3390 -2.1319  2.0543
  421MOL0     H56787   2.150   9.723   5.821 -0.0789  0.6279  1.6241
  421MOL0     H56788   2.012   9.612   5.773  1.9932  1.6537 -1.8835
  421MOL0     H56789   1.959   9.807   5.926 -2.6366  0.0636  1.9143
  421MOL0     H56790   2.055   9.726   6.052 -0.7029  0.1573  0.6323
  421MOL0     H56791   1.853   9.643   6.110 -1.0562 -1.7623 -1.2722
  421MOL0     H56792   1.931   9.518   6.026  0.5314  0.6135  2.4438
  421MOL0     H56793   1.712   9.513   5.931 -1.1334  1.1910  0.9792
  421MOL0     H56794   1.787   9.612   5.810 -3.6567 -1.3252 -1.0778
  421MOL0     H56795   1.500   9.886   5.971  0.3118 -0.1370 -0.9530
  421MOL0     H56796   1.186  10.002   5.849 -2.5141  0.1514  3.1507
  421MOL0     H56797   1.198   9.914   5.999 -0.5891 -0.9337 -1.0357
  421MOL0     H56798   1.329  10.022   5.936 -0.4083 -0.5329  0.7582
  421MOL0     H56799   0.968   9.713   5.416 -1.1460  0.0856 -0.8925
  421MOL0     H56800   0.742   9.636   5.398 -0.2959 -0.8078 -0.2779
  421MOL0     H56801   0.614   9.265   5.596 -3.5261 -2.7941  0.6817
  421MOL0     H56802   0.540   9.398   5.689  3.4914 -5.0521  2.1474
  421MOL0     H56803   0.429   9.307   5.428 -1.7567 -0.4296 -0.1530
  421MOL0     H56804   0.374   9.227   5.571 -2.5488 -0.1977 -0.8849
  421MOL0     H56805   0.374   9.534   5.531  0.1848 -0.3582 -0.5122
  421MOL0     H56806   0.284   9.448   5.657  1.6340 -1.7326  0.5833
  421MOL0     H56807   0.228   9.437   5.359  0.2785  1.2880  0.8512
  421MOL0     H56808   0.172   9.319   5.462  2.5747 -0.4643  3.3172
  421MOL0     H56809   0.097   9.618   5.518  1.5013 -0.6728  0.6655
  421MOL0     H56810   0.036   9.455   5.585 -0.6389 -0.2597 -0.7652
  421MOL0     H56811   0.006   9.564   5.292  1.4029 -0.6813  0.1130
  421MOL0     H56812  -0.044   9.401   5.336 -1.6318  0.4341 -0.2871
  421MOL0     H56813  -0.182   9.629   5.484 -3.5136 -0.8975  0.9171
  421MOL0     H56814  -0.233   9.474   5.467 -0.4698  0.8111  0.7635
  421MOL0     H56815  -0.241   9.517   5.221 -0.3414  1.1667 -0.1366
  421MOL0     H56816  -0.193   9.687   5.252 -1.5133 -0.4311 -4.1183
  421MOL0     H56817   0.794   9.350   5.708 -0.8830  1.0279 -0.3422
  421MOL0     H56818   1.027   9.435   5.735  0.9984  1.0106 -0.4613
  421MOL0     H56819   1.341   9.539   5.668  3.2552 -0.0156 -1.9576
  421MOL0     H56820   1.564   9.520   5.767  1.2206  0.3819 -0.4537
  421MOL0     H56821   2.894   8.420   5.815  0.4512 -0.6130  0.0703
  421MOL0     H56822   3.082   8.283   5.819 -1.9640 -0.3560  2.1235
  421MOL0     H56823   3.511   8.237   6.127  0.1784  5.4531 -1.5878
  421MOL0     H56824   3.696   8.085   6.180  1.6870 -3.2512 -0.3171
  421MOL0     H56825   4.017   8.139   5.903 -3.3705  1.4513 -0.4171
  421MOL0     H56826   3.961   8.164   6.075  0.9116 -0.9176  1.1312
  421MOL0     H56827   4.065   7.977   6.162 -1.4216 -2.9220 -1.3028
  421MOL0     H56828   4.168   8.092   6.085 -0.6179 -0.2595  1.9077
  421MOL0     H56829   4.147   7.921   5.880  0.1067 -0.2293  0.9995
  421MOL0     H56830   4.075   7.814   6.000  1.1042 -1.0790  1.5620
  421MOL0     H56831   4.330   7.780   5.957 -0.8925  0.6771  0.4091
  421MOL0     H56832   4.281   7.817   6.126  0.9257 -1.5634 -0.1502
  421MOL0     H56833   4.532   8.127   6.083  1.0399 -0.2468 -1.1400
  421MOL0     H56834   3.763   8.040   5.761 -1.0368 -0.4954 -1.3797
  421MOL0     H56835   3.583   8.170   5.693 -0.9283 -0.8513 -0.3320
  422MOL0     O56836   2.114   8.668  10.423 -0.2929  0.6384  0.1214
  422MOL0     C56837   2.227   8.676  10.377 -0.0309 -0.9617  0.6174
  422MOL0     O56838   2.258   8.734  10.256  0.2244 -0.0299 -0.6360
  422MOL0     C56839   2.157   8.758  10.166 -0.4336 -0.0437  0.8297
  422MOL0     C56840   2.181   8.864  10.074 -0.8406  0.1545  0.4643
  422MOL0     C56841   2.093   8.887   9.973 -0.1477 -0.0107  0.3944
  422MOL0     C56842   1.978   8.820   9.960  0.1450 -0.3033  0.8881
  422MOL0     O56843   1.885   8.851   9.854  0.5952 -0.2036  0.6077
  422MOL0     C56844   1.918   8.945   9.745  0.1910  0.5669  0.0865
  422MOL0     C56845   1.812   8.952   9.638 -0.4185  0.6236 -0.2948
  422MOL0     C56846   1.688   9.008   9.698  0.4168 -0.5619  0.3153
  422MOL0     C56847   1.576   9.003   9.594  0.3915 -0.6225 -0.0043
  422MOL0     C56848   1.450   9.091   9.622 -0.2328 -0.1092  0.2334
  422MOL0     C56849   1.373   9.157   9.506  0.6082  0.1131 -0.1475
  422MOL0     C56850   1.235   9.200   9.572  0.8052  0.0959  0.5050
  422MOL0     C56851   1.125   9.229   9.467  0.4529 -0.5123  0.2501
  422MOL0     N56852   0.995   9.291   9.516 -0.4532  0.1920  1.2232
  422MOL0     C56853   0.964   9.417   9.562 -0.1132 -0.0220 -0.0105
  422MOL0     C56854   0.848   9.410   9.637 -0.9541  0.3880 -0.0281
  422MOL0     C56855   0.781   9.534   9.710 -0.9101  0.1755  0.0868
  422MOL0     C56856   0.747   9.503   9.851 -0.4344 -0.7045  0.3507
  422MOL0     C56857   0.612   9.423   9.879  0.3329 -0.6908 -0.1514
  422MOL0     C56858   0.507   9.501   9.955  0.4077  0.1592 -0.4916
  422MOL0     O56859   0.459   9.604   9.877 -0.4416  0.5580 -0.3021
  422MOL0     C56860   0.328   9.623   9.886  0.8574 -0.3166  0.2687
  422MOL0     C56861   0.245   9.606   9.771 -0.3792  0.2738 -0.5518
  422MOL0     C56862   0.107   9.643   9.776  0.4860 -0.1008 -0.9124
  422MOL0     C56863   0.021   9.624   9.653  0.1385  0.7223  0.6165
  422MOL0     C56864   0.050   9.693   9.897 -0.6836 -0.7228 -0.1226
  422MOL0     C56865  -0.099   9.717   9.917 -0.0675 -0.9619 -0.0934
  422MOL0     O56866  -0.126   9.788  10.034 -0.1518 -0.6665  0.5704
  422MOL0     C56867  -0.261   9.795  10.062 -0.3812  0.4029  0.1709
  422MOL0     C56868  -0.353   9.887  10.011  0.8179  0.1896 -0.2525
  422MOL0     C56869  -0.487   9.892  10.058  0.5350 -0.3613  0.2878
  422MOL0     C56870  -0.527   9.795  10.147 -0.3243  0.2942  0.6935
  422MOL0     O56871  -0.649   9.820  10.203  0.7639  0.0296  0.1592
  422MOL0     C56872  -0.650   9.821  10.343  0.4634 -1.1600 -1.3956
  422MOL0     C56873  -0.765   9.908  10.405 -0.2329 -1.1154  0.6122
  422MOL0     C56874  -0.903   9.886  10.339  0.1924  0.2608  0.9255
  422MOL0     C56875  -1.006   9.986  10.409 -0.8727 -0.0091  0.5488
  422MOL0     C56876  -1.150   9.985  10.353  0.3957 -0.2617  0.1401
  422MOL0     C56877  -1.220  10.104  10.414 -0.2918  0.3568 -0.4028
  422MOL0     C56878  -1.352  10.130  10.337  0.6876  0.0972  0.5438
  422MOL0     C56879  -1.385  10.282  10.326 -0.0158  0.2663  0.4584
  422MOL0    Cl56880  -1.404  10.356  10.491  0.2202  0.0233  0.3919
  422MOL0     C56881  -0.436   9.688  10.180  0.5686  0.2931 -0.5692
  422MOL0     C56882  -0.305   9.692  10.138 -0.1844  0.4475  0.2514
  422MOL0     O56883  -0.182   9.682   9.837  0.1001 -0.0181  0.6044
  422MOL0     C56884   0.135   9.724  10.002  0.3052 -0.4015 -0.3009
  422MOL0     C56885   0.268   9.691   9.993 -0.9355  0.4004  0.2066
  422MOL0     N56886   0.807   9.278   9.628 -0.1412  0.1179  0.1960
  422MOL0     N56887   0.895   9.214   9.566 -0.3088 -0.0634 -0.3101
  422MOL0     C56888   1.950   8.715  10.044 -0.3609  0.3272  0.5840
  422MOL0     C56889   2.036   8.682  10.148 -0.0763  0.0260  0.4197
  422MOL0     C56890   2.342   8.625  10.449  0.1106  0.3210 -0.0125
  422MOL0     C56891   2.323   8.582  10.585  0.7692 -0.2655  0.2025
  422MOL0     C56892   2.435   8.547  10.663  0.1806 -0.8018  0.1253
  422MOL0     C56893   2.563   8.544  10.605 -0.1796 -0.5102 -0.4872
  422MOL0     O56894   2.674   8.498  10.668 -0.0198  0.0012  0.1813
  422MOL0     C56895   2.765   8.607  10.695  0.1685  0.5722  0.3198
  422MOL0     C56896   2.748   8.659  10.836  0.5724 -0.2171  0.2332
  422MOL0     C56897   2.793   8.557  10.939  0.6360 -0.3414 -0.6950
  422MOL0     C56898   2.727   8.598  11.074  0.0916  0.5967  0.0078
  422MOL0     C56899   2.583   8.595  11.089 -0.3398  0.2283  0.2525
  422MOL0     C56900   2.465   8.598  11.101 -0.0835  0.3285 -0.2263
  422MOL0     C56901   2.578   8.574  10.468  0.1089 -0.1278  0.4412
  422MOL0     C56902   2.472   8.623  10.399 -0.5357  0.6207  0.0596
  422MOL0     H56903   2.278   8.912  10.079  0.4338 -1.9921 -1.8551
  422MOL0     H56904   2.110   8.969   9.905  1.3456  0.0509  0.7964
  422MOL0     H56905   1.936   9.048   9.777 -1.5514  1.0276 -0.2660
  422MOL0     H56906   2.009   8.913   9.695  1.4252  1.0102  1.9431
  422MOL0     H56907   1.840   9.007   9.547  0.0499  0.5434 -0.2046
  422MOL0     H56908   1.805   8.847   9.607 -0.2064  1.0980 -2.0375
  422MOL0     H56909   1.653   8.967   9.794  0.0264  0.6034  0.6888
  422MOL0     H56910   1.707   9.113   9.720  1.0098 -0.3390 -1.1603
  422MOL0     H56911   1.616   9.034   9.497 -1.6504 -4.6283 -2.4338
  422MOL0     H56912   1.548   8.898   9.580 -1.5062 -0.1854  0.2086
  422MOL0     H56913   1.382   9.022   9.673 -0.0850  1.5957  2.9578
  422MOL0     H56914   1.489   9.165   9.693  0.1287  0.3141 -0.3970
  422MOL0     H56915   1.426   9.238   9.454 -0.4726 -0.0632 -1.5991
  422MOL0     H56916   1.342   9.091   9.424 -4.9665  1.6860  0.2869
  422MOL0     H56917   1.194   9.106   9.612 -1.5573  0.4192 -0.9449
  422MOL0     H56918   1.247   9.280   9.645  1.5641  0.2777  0.1887
  422MOL0     H56919   1.102   9.135   9.417  2.2859 -0.8428 -0.0701
  422MOL0     H56920   1.172   9.285   9.385 -0.5199  0.2578  0.2083
  422MOL0     H56921   1.026   9.501   9.532 -0.3833 -0.3328 -1.4966
  422MOL0     H56922   0.827   9.632   9.696 -4.7962  2.2274  0.3505
  422MOL0     H56923   0.689   9.548   9.654 -1.3392 -1.9214  0.1950
  422MOL0     H56924   0.734   9.604   9.889 -1.1227 -0.1364 -1.3035
  422MOL0     H56925   0.826   9.458   9.912 -2.6644 -1.5455  2.8271
  422MOL0     H56926   0.643   9.334   9.934  1.5818 -0.7948 -0.9820
  422MOL0     H56927   0.564   9.385   9.789 -0.5644  0.6274 -0.2567
  422MOL0     H56928   0.553   9.537  10.047  0.5458  0.8812 -0.8366
  422MOL0     H56929   0.430   9.426   9.978  1.0964 -0.5642 -0.4712
  422MOL0     H56930   0.305   9.567   9.689 -1.4090 -0.5714 -0.9290
  422MOL0     H56931  -0.043   9.535   9.644  0.3663  0.3524  2.2871
  422MOL0     H56932  -0.039   9.715   9.649  1.3076  1.4688 -0.3091
  422MOL0     H56933   0.084   9.613   9.565  2.1026 -1.5696  2.1613
  422MOL0     H56934  -0.315   9.965   9.946 -0.9817 -0.8130 -2.7006
  422MOL0     H56935  -0.565   9.958  10.022  1.1731  0.7639  0.8967
  422MOL0     H56936  -0.651   9.721  10.386  2.4739 -1.4421 -1.8733
  422MOL0     H56937  -0.555   9.861  10.382  0.8611 -0.1640 -3.2656
  422MOL0     H56938  -0.778   9.879  10.510 -0.2340 -3.9669 -0.1025
  422MOL0     H56939  -0.734  10.012  10.394  0.7666 -1.5135 -0.5981
  422MOL0     H56940  -0.935   9.783  10.357  0.8251 -0.1619 -0.2649
  422MOL0     H56941  -0.907   9.900  10.231  1.7400  2.4030  1.0838
  422MOL0     H56942  -1.021   9.963  10.515 -1.8756 -2.8882 -0.1305
  422MOL0     H56943  -0.956  10.083  10.409 -0.7696 -0.0239 -1.5071
  422MOL0     H56944  -1.195   9.889  10.378  1.9003 -2.0397 -3.2649
  422MOL0     H56945  -1.146   9.985  10.244 -0.4650 -1.8378  0.0750
  422MOL0     H56946  -1.235  10.081  10.520  1.6762  0.1479 -0.1448
  422MOL0     H56947  -1.162  10.196  10.407 -0.0564  0.1729 -0.9399
  422MOL0     H56948  -1.440  10.082  10.381  0.5647  1.3073  1.6824
  422MOL0     H56949  -1.344  10.088  10.237  2.3154  2.4342 -0.4051
  422MOL0     H56950  -1.483  10.292  10.279  0.0944  0.8085  0.3305
  422MOL0     H56951  -1.306  10.330  10.266  0.7159 -2.6977 -1.1190
  422MOL0     H56952  -0.482   9.609  10.238 -0.0299  0.9720 -0.0964
  422MOL0     H56953  -0.240   9.614  10.175 -0.6432  0.5046  1.2101
  422MOL0     H56954   0.111   9.765  10.100  0.4262  0.8699 -0.7883
  422MOL0     H56955   0.333   9.718  10.076  2.4565 -1.9798 -1.4055
  422MOL0     H56956   1.864   8.659  10.010 -0.3060  2.2929 -3.2864
  422MOL0     H56957   2.024   8.592  10.207 -0.2337 -0.2251  0.0060
  422MOL0     H56958   2.231   8.590  10.641  0.5096  2.5063 -0.4930
  422MOL0     H56959   2.436   8.520  10.768 -1.7845  0.6949  0.5717
  422MOL0     H56960   2.872   8.585  10.689 -0.0709 -1.2664  2.0143
  422MOL0     H56961   2.747   8.686  10.622 -0.5215  0.6492  0.5714
  422MOL0     H56962   2.642   8.683  10.852  0.8306  0.7507  0.5910
  422MOL0     H56963   2.805   8.752  10.837 -1.0227  0.8783 -1.7173
  422MOL0     H56964   2.901   8.561  10.952  0.9528 -0.0443 -2.9596
  422MOL0     H56965   2.750   8.464  10.900  0.2609 -0.3083 -0.3727
  422MOL0     H56966   2.756   8.698  11.109  3.5050  0.1155 -0.9993
  422MOL0     H56967   2.756   8.530  11.155 -5.3537 -0.3071  1.6096
  422MOL0     H56968   2.364   8.593  11.139  0.6692  2.6914  2.4420
  422MOL0     H56969   2.671   8.569  10.412 -1.1095 -0.2479 -1.7018
  422MOL0     H56970   2.500   8.663  10.302 -1.0105  0.8178 -0.0006
  423MOL0     O56971   1.654   9.447   3.482 -0.0888 -0.7762  0.8357
  423MOL0     C56972   1.765   9.460   3.532 -0.1048  0.1082  0.5380
  423MOL0     O56973   1.794   9.528   3.646  0.0935 -0.4396  0.7637
  423MOL0     C56974   1.689   9.585   3.715 -0.7714 -0.9219  0.3810
  423MOL0     C56975   1.668   9.541   3.847 -1.1421  0.6492  0.7406
  423MOL0     C56976   1.562   9.599   3.924 -0.9033 -0.4246  0.1779
  423MOL0     C56977   1.479   9.696   3.883  0.3455  0.2330 -0.1997
  423MOL0     O56978   1.373   9.722   3.960  0.0860  0.3806  0.2223
  423MOL0     C56979   1.253   9.752   3.904 -0.0410  0.1872 -0.1538
  423MOL0     C56980   1.137   9.746   4.005 -0.0876 -0.4506  0.5179
  423MOL0     C56981   1.007   9.829   3.968  0.6453 -0.1873  0.0257
  423MOL0     C56982   0.898   9.807   4.076 -0.5592 -0.6536 -0.5946
  423MOL0     C56983   0.765   9.865   4.040 -0.8723  0.3671 -0.4693
  423MOL0     C56984   0.670   9.878   4.164 -1.2836  0.3055 -0.3048
  423MOL0     C56985   0.549   9.954   4.134  1.0983 -0.0669 -0.2132
  423MOL0     C56986   0.445   9.924   4.247 -0.4421  0.1787  0.3889
  423MOL0     N56987   0.481   9.985   4.371 -0.3904 -0.1134  0.0566
  423MOL0     C56988   0.487  10.125   4.394 -0.2805  0.8814  0.0389
  423MOL0     C56989   0.496  10.130   4.525 -0.2225 -0.5195 -1.1204
  423MOL0     C56990   0.497  10.262   4.601 -0.2082  1.1596 -0.2948
  423MOL0     C56991   0.348  10.322   4.600  0.6570  0.3722  1.0211
  423MOL0     C56992   0.336  10.460   4.666 -0.8424 -0.4071  0.2777
  423MOL0     C56993   0.448  10.552   4.618 -0.3034  0.5413 -0.7691
  423MOL0     O56994   0.409  10.682   4.655 -0.0974 -0.1218 -0.8066
  423MOL0     C56995   0.487  10.783   4.609 -0.1979  0.2425  0.0412
  423MOL0     C56996   0.440  10.899   4.536 -0.1076 -0.2552 -0.3342
  423MOL0     C56997   0.527  11.006   4.484 -0.4546  0.9632 -0.2970
  423MOL0     C56998   0.455  11.112   4.407 -0.2209  0.1177  0.3290
  423MOL0     C56999   0.664  10.994   4.510 -0.7366 -0.7323 -0.0573
  423MOL0     C57000   0.766  11.097   4.481  0.2696  0.2843  0.3052
  423MOL0     O57001   0.894  11.085   4.531  0.4064 -0.2596  0.5266
  423MOL0     C57002   0.991  11.170   4.488  1.1550  0.5136 -0.7728
  423MOL0     C57003   1.006  11.300   4.532 -1.2051  0.0577  0.8628
  423MOL0     C57004   1.122  11.369   4.495 -0.0705 -0.1912 -0.5347
  423MOL0     C57005   1.225  11.301   4.427  0.5227  1.6209 -0.9692
  423MOL0     O57006   1.339  11.359   4.378  0.4614 -0.2883  0.5315
  423MOL0     C57007   1.353  11.502   4.395  0.3971  1.2529 -0.3513
  423MOL0     C57008   1.460  11.554   4.306  0.3213  0.0136 -0.2725
  423MOL0     C57009   1.592  11.473   4.305 -1.1181  0.2767  0.0319
  423MOL0     C57010   1.680  11.485   4.429  0.4745 -0.0865 -0.2360
  423MOL0     C57011   1.816  11.416   4.419 -0.4129 -0.3417  0.2753
  423MOL0     C57012   1.921  11.467   4.513 -0.5890  0.1282  0.5677
  423MOL0     C57013   2.047  11.375   4.528 -0.6469  0.8182 -0.3758
  423MOL0     C57014   2.169  11.449   4.580 -1.1767  0.2327 -0.4922
  423MOL0    Cl57015   2.300  11.322   4.587  0.2824  0.2394  0.2977
  423MOL0     C57016   1.211  11.173   4.389  0.8660 -0.2908 -0.4164
  423MOL0     C57017   1.094  11.106   4.431  0.6034 -0.1938  0.2565
  423MOL0     O57018   0.724  11.193   4.416 -0.1599 -0.2908 -0.7624
  423MOL0     C57019   0.711  10.880   4.570 -0.6780 -0.5047  0.0272
  423MOL0     C57020   0.626  10.781   4.624  0.0879 -0.4162  1.4492
  423MOL0     N57021   0.500  10.002   4.581  0.6540  0.3568 -0.5840
  423MOL0     N57022   0.495   9.913   4.488 -0.4073 -0.0222  0.1022
  423MOL0     C57023   1.511   9.744   3.756 -0.6754 -0.3128  0.1387
  423MOL0     C57024   1.611   9.693   3.670 -0.2307  0.7552  0.9118
  423MOL0     C57025   1.882   9.391   3.478 -0.9816 -0.6142  0.1377
  423MOL0     C57026   2.010   9.409   3.544 -0.1993  0.2085  0.5674
  423MOL0     C57027   2.124   9.344   3.495  0.7501 -0.1233 -0.3092
  423MOL0     C57028   2.129   9.262   3.388 -0.7383 -0.0584  0.5911
  423MOL0     O57029   2.251   9.212   3.353 -0.2843 -0.7403  0.1157
  423MOL0     C57030   2.262   9.165   3.221  1.0033  0.5489 -0.7917
  423MOL0     C57031   2.417   9.155   3.184  0.2503  0.1411  0.4461
  423MOL0     C57032   2.504   9.292   3.177  0.6532  0.1729 -0.7237
  423MOL0     C57033   2.622   9.308   3.274  0.1460  0.4553  0.4624
  423MOL0     C57034   2.675   9.451   3.273 -0.7129  0.8211 -0.1160
  423MOL0     C57035   2.742   9.550   3.269  0.2886 -0.0408  0.1730
  423MOL0     C57036   2.009   9.254   3.314  0.1158 -0.4558  0.7375
  423MOL0     C57037   1.889   9.316   3.361 -1.0334 -0.1461 -0.5098
  423MOL0     H57038   1.717   9.449   3.876  0.7210  1.4303  0.2216
  423MOL0     H57039   1.536   9.562   4.023  2.6434 -2.6498  0.4394
  423MOL0     H57040   1.265   9.852   3.861 -0.3417  1.4996  2.6393
  423MOL0     H57041   1.237   9.688   3.816 -0.9662  2.1624 -1.4954
  423MOL0     H57042   1.119   9.640   4.024  0.0484 -0.4535  0.6358
  423MOL0     H57043   1.183   9.789   4.095 -0.2732  0.1613  0.3267
  423MOL0     H57044   1.019   9.937   3.954  1.2842 -0.1633  0.6951
  423MOL0     H57045   0.971   9.789   3.873 -1.3724 -0.7623  0.9666
  423MOL0     H57046   0.897   9.699   4.090  1.8337 -0.5884  0.5765
  423MOL0     H57047   0.930   9.849   4.171 -1.3643  1.8297 -1.3347
  423MOL0     H57048   0.785   9.964   3.999  1.3153  1.1366  2.1267
  423MOL0     H57049   0.712   9.802   3.968  1.1044 -1.6841 -0.2375
  423MOL0     H57050   0.649   9.775   4.193  2.2932 -0.1243  1.3298
  423MOL0     H57051   0.716   9.922   4.253  1.9668 -0.6946 -1.3572
  423MOL0     H57052   0.581  10.058   4.133  0.7111  0.2946  4.1763
  423MOL0     H57053   0.510   9.927   4.036 -2.1269 -0.1633  0.9784
  423MOL0     H57054   0.435   9.816   4.262  0.1202  0.1066  0.2964
  423MOL0     H57055   0.341   9.934   4.215 -0.2643 -1.2675 -0.7258
  423MOL0     H57056   0.480  10.212   4.330  0.7117 -0.6907 -2.3558
  423MOL0     H57057   0.522  10.242   4.706  1.4816 -1.7648 -1.1355
  423MOL0     H57058   0.560  10.341   4.558 -0.2276  1.1140 -0.4060
  423MOL0     H57059   0.270  10.259   4.645 -0.5536  2.7977  2.5393
  423MOL0     H57060   0.330  10.330   4.493  1.9868 -1.3499  0.6168
  423MOL0     H57061   0.334  10.455   4.775 -2.0939 -1.7178  0.2256
  423MOL0     H57062   0.240  10.503   4.634 -0.7656  1.8277  2.6536
  423MOL0     H57063   0.459  10.553   4.509 -1.9298  3.9573 -1.0083
  423MOL0     H57064   0.544  10.519   4.659 -0.8418 -1.2342 -0.8352
  423MOL0     H57065   0.335  10.915   4.516 -0.2049 -1.8126 -1.2083
  423MOL0     H57066   0.348  11.113   4.431  0.4265  2.0425  3.8254
  423MOL0     H57067   0.491  11.211   4.436  0.6543  0.8264 -2.8118
  423MOL0     H57068   0.483  11.100   4.302  1.3267 -3.7996  0.9910
  423MOL0     H57069   0.933  11.336   4.604 -2.1898 -3.2725  1.6771
  423MOL0     H57070   1.131  11.466   4.544  2.6037 -0.5283 -0.1868
  423MOL0     H57071   1.259  11.554   4.375  0.0899  0.0116 -2.4312
  423MOL0     H57072   1.381  11.518   4.499 -0.0537 -0.6488  0.1029
  423MOL0     H57073   1.412  11.572   4.210 -1.8922  0.2535  0.8084
  423MOL0     H57074   1.496  11.655   4.327  0.8575 -0.2929  0.3356
  423MOL0     H57075   1.653  11.508   4.221  1.1654 -0.8568  1.1325
  423MOL0     H57076   1.566  11.370   4.279 -2.1247  0.2312  1.1468
  423MOL0     H57077   1.694  11.592   4.447 -2.1936  0.0412  1.7345
  423MOL0     H57078   1.617  11.454   4.513  1.3084  2.4142  1.4355
  423MOL0     H57079   1.850  11.436   4.317  0.2702  0.3130  0.6249
  423MOL0     H57080   1.795  11.310   4.437 -2.4047 -0.1713 -0.7449
  423MOL0     H57081   1.949  11.564   4.472 -0.2255  0.2765  1.1583
  423MOL0     H57082   1.875  11.489   4.609 -1.0115 -1.3806  0.7348
  423MOL0     H57083   2.074  11.328   4.433 -1.5227  0.0740 -0.2695
  423MOL0     H57084   2.022  11.293   4.597 -1.3232 -1.1671 -2.8314
  423MOL0     H57085   2.162  11.492   4.681  0.5452 -2.4594  0.8840
  423MOL0     H57086   2.206  11.517   4.503  2.4932 -1.0085 -0.0222
  423MOL0     H57087   1.273  11.113   4.322  0.1572 -2.9513  1.1562
  423MOL0     H57088   1.091  10.998   4.421  0.5097 -0.0770 -1.1737
  423MOL0     H57089   0.818  10.864   4.582 -0.7488 -0.2062  1.1953
  423MOL0     H57090   0.668  10.699   4.682  0.3818  0.7971  3.0130
  423MOL0     H57091   1.455   9.817   3.699  0.9119 -0.4698 -1.7288
  423MOL0     H57092   1.625   9.740   3.573 -2.6993 -0.0185  0.1060
  423MOL0     H57093   2.018   9.480   3.626 -1.7366 -1.3694  2.1743
  423MOL0     H57094   2.208   9.346   3.564 -1.0071 -1.3759  2.0476
  423MOL0     H57095   2.233   9.062   3.198  0.9857  0.7253 -1.5911
  423MOL0     H57096   2.218   9.234   3.149  2.0334  1.0718 -0.9358
  423MOL0     H57097   2.421   9.100   3.090 -3.9363 -2.7965  1.7050
  423MOL0     H57098   2.453   9.088   3.263 -0.6562  0.0281  0.7739
  423MOL0     H57099   2.436   9.376   3.190  1.0945  0.6761 -1.5879
  423MOL0     H57100   2.550   9.303   3.078 -0.0922  2.7735 -0.8609
  423MOL0     H57101   2.701   9.240   3.240 -0.2724  1.1556 -2.1221
  423MOL0     H57102   2.588   9.266   3.369  1.2016  1.2515  1.2286
  423MOL0     H57103   2.808   9.635   3.269 -0.3266  0.4491  0.5679
  423MOL0     H57104   2.003   9.184   3.231 -0.4173 -0.3428  0.6765
  423MOL0     H57105   1.807   9.315   3.290  1.0210 -0.5941 -3.0523
  424MOL0     O57106   8.584  11.136   6.944  0.3688 -0.6839  0.1747
  424MOL0     C57107   8.600  11.017   6.939 -0.5861  0.0436  0.0664
  424MOL0     O57108   8.515  10.924   6.888 -0.3928  0.3837 -0.5414
  424MOL0     C57109   8.404  10.969   6.813  0.7088 -0.4028  0.7440
  424MOL0     C57110   8.395  10.928   6.678 -0.9841 -0.7919 -0.1905
  424MOL0     C57111   8.276  10.960   6.600 -1.3227 -0.4394 -0.2543
  424MOL0     C57112   8.165  11.013   6.653 -0.2136  0.1067  0.3165
  424MOL0     O57113   8.051  11.017   6.572  0.1606 -0.7760  0.1334
  424MOL0     C57114   7.950  11.119   6.594 -0.2422  0.5637 -0.4630
  424MOL0     C57115   7.823  11.091   6.511  0.1647 -0.5532  0.1116
  424MOL0     C57116   7.706  11.177   6.566  0.1483 -0.4165 -0.2610
  424MOL0     C57117   7.575  11.142   6.508  0.5582  0.9408  0.1223
  424MOL0     C57118   7.460  11.231   6.554  0.0182 -0.2014  0.1240
  424MOL0     C57119   7.320  11.176   6.498  0.5787 -0.0902  0.3047
  424MOL0     C57120   7.290  11.252   6.363 -0.5500  0.7070 -0.9721
  424MOL0     C57121   7.159  11.214   6.286 -0.8381 -0.0903  0.5609
  424MOL0     N57122   7.047  11.271   6.356  0.0507  0.1383  0.5361
  424MOL0     C57123   7.012  11.402   6.373 -0.8089 -0.0744  0.2610
  424MOL0     C57124   6.889  11.410   6.421  0.2771  0.0628 -0.9263
  424MOL0     C57125   6.809  11.534   6.452  0.1209 -0.1430  0.2199
  424MOL0     C57126   6.780  11.555   6.597 -0.0267  0.7719  0.1384
  424MOL0     C57127   6.697  11.682   6.626 -0.1605 -0.8266 -0.1159
  424MOL0     C57128   6.570  11.700   6.545 -0.1228  0.2433  0.6774
  424MOL0     O57129   6.520  11.827   6.579 -0.3840 -1.0317 -0.7801
  424MOL0     C57130   6.386  11.868   6.555 -0.2637  0.0049  0.7202
  424MOL0     C57131   6.343  11.995   6.590  0.5961  0.2323  0.5845
  424MOL0     C57132   6.226  12.052   6.546  0.8653 -0.1561 -0.8445
  424MOL0     C57133   6.179  12.183   6.614 -0.0424 -0.1543  0.5568
  424MOL0     C57134   6.145  11.979   6.455 -0.5991  0.5101 -0.2760
  424MOL0     C57135   6.018  12.024   6.403  0.7893 -0.0960  0.7812
  424MOL0     O57136   5.945  12.126   6.465 -0.8887  0.3635  0.0877
  424MOL0     C57137   5.843  12.200   6.415  0.0499  0.5102 -0.3151
  424MOL0     C57138   5.820  12.239   6.286  0.0101  0.0954 -0.5609
  424MOL0     C57139   5.719  12.328   6.250 -0.8958 -0.4682 -0.0370
  424MOL0     C57140   5.635  12.384   6.346  0.0004 -0.1130 -0.3758
  424MOL0     O57141   5.542  12.466   6.306 -0.5591  0.4533  0.2371
  424MOL0     C57142   5.484  12.454   6.182  0.9985 -0.3416  0.1998
  424MOL0     C57143   5.343  12.496   6.183  0.7060  0.7378 -0.0391
  424MOL0     C57144   5.252  12.373   6.203  0.1574  0.2015  0.3647
  424MOL0     C57145   5.108  12.411   6.215  0.2973  0.1017  0.4064
  424MOL0     C57146   5.024  12.285   6.261  0.8816 -0.2462  0.1557
  424MOL0     C57147   4.877  12.288   6.252  0.9994  1.1429 -0.6516
  424MOL0     C57148   4.821  12.190   6.362  0.0965 -0.0842 -0.2383
  424MOL0     C57149   4.678  12.215   6.385  0.4092 -0.7882  0.1436
  424MOL0    Cl57150   4.585  12.162   6.244 -0.0208  0.4268  0.2765
  424MOL0     C57151   5.653  12.346   6.481  0.5692 -0.3452 -1.0577
  424MOL0     C57152   5.758  12.250   6.511 -0.5229 -0.8484 -0.7004
  424MOL0     O57153   5.979  11.978   6.293 -0.0501  0.2027 -0.6342
  424MOL0     C57154   6.188  11.853   6.415  0.0455 -0.2340 -0.3812
  424MOL0     C57155   6.301  11.796   6.471 -0.8931  0.0991 -0.8830
  424MOL0     N57156   6.832  11.282   6.409 -0.1285 -0.1738  0.0109
  424MOL0     N57157   6.933  11.203   6.388 -0.4089 -0.6715  0.0552
  424MOL0     C57158   8.180  11.070   6.783 -0.5387  0.1629 -0.0319
  424MOL0     C57159   8.299  11.047   6.862 -0.2786  0.1931 -0.2683
  424MOL0     C57160   8.735  10.970   6.974  0.0396  0.3231  0.3534
  424MOL0     C57161   8.821  11.058   7.049 -0.4814 -0.0899 -0.3658
  424MOL0     C57162   8.952  11.015   7.068  0.3043 -0.3059 -0.0975
  424MOL0     C57163   9.000  10.907   7.018  0.1837 -0.1180 -0.6256
  424MOL0     O57164   9.134  10.881   7.057  0.4902  0.3819  0.4860
  424MOL0     C57165   9.217  10.779   7.003  0.3245 -0.6037 -0.0642
  424MOL0     C57166   9.366  10.828   6.981  0.1991  0.0989 -0.2250
  424MOL0     C57167   9.360  10.951   6.892  0.9129 -0.3841  0.0919
  424MOL0     C57168   9.499  10.986   6.833  0.6793 -0.3528  0.6403
  424MOL0     C57169   9.473  11.101   6.743 -0.2039  0.2854 -1.0387
  424MOL0     C57170   9.447  11.191   6.666  0.0552 -0.2737 -0.4899
  424MOL0     C57171   8.928  10.828   6.927  0.1992 -0.3158  0.0956
  424MOL0     C57172   8.794  10.858   6.910 -0.2940 -0.2393 -0.0708
  424MOL0     H57173   8.480  10.890   6.623 -1.1098  0.2008 -1.1203
  424MOL0     H57174   8.280  10.919   6.499  0.5069 -2.5200  0.5867
  424MOL0     H57175   7.924  11.106   6.699  1.7443 -3.7043 -0.2971
  424MOL0     H57176   7.997  11.216   6.580  2.1208 -0.6371 -1.3253
  424MOL0     H57177   7.847  11.125   6.410 -1.7309  2.6165  0.5893
  424MOL0     H57178   7.796  10.985   6.508 -0.1642 -0.4602 -0.4972
  424MOL0     H57179   7.693  11.181   6.675 -0.5609 -1.7339 -0.2730
  424MOL0     H57180   7.737  11.276   6.534  0.3401  0.2998  1.9702
  424MOL0     H57181   7.583  11.145   6.398 -2.0961  3.0301 -0.1082
  424MOL0     H57182   7.549  11.042   6.544 -1.0853  1.0350 -0.6688
  424MOL0     H57183   7.451  11.240   6.663  0.8925  1.6812  0.0854
  424MOL0     H57184   7.490  11.332   6.526  0.7071  0.2970  2.4220
  424MOL0     H57185   7.314  11.070   6.472  1.0767 -0.5157  1.8397
  424MOL0     H57186   7.251  11.189   6.581  0.4363 -2.5452  0.6529
  424MOL0     H57187   7.286  11.358   6.392  1.9227  1.0092 -1.4787
  424MOL0     H57188   7.372  11.238   6.292  0.5324  2.3814 -0.1194
  424MOL0     H57189   7.152  11.104   6.287 -0.7683 -0.1081 -0.4505
  424MOL0     H57190   7.168  11.245   6.182 -1.3022 -2.1107 -0.1415
  424MOL0     H57191   7.081  11.483   6.353 -1.7753  0.5165 -0.8013
  424MOL0     H57192   6.870  11.618   6.419 -0.4701  0.3233  0.3047
  424MOL0     H57193   6.723  11.528   6.384  1.1238 -0.4682 -1.0726
  424MOL0     H57194   6.875  11.567   6.649 -0.7607 -0.3668  1.8243
  424MOL0     H57195   6.722  11.470   6.635  1.4944  0.0298  0.8810
  424MOL0     H57196   6.770  11.761   6.608 -0.1266 -0.9011 -0.3099
  424MOL0     H57197   6.666  11.699   6.730  0.4475  2.0223 -0.3279
  424MOL0     H57198   6.495  11.624   6.566 -0.9161  1.2992  1.7805
  424MOL0     H57199   6.601  11.701   6.440 -2.8258  2.8548 -0.2364
  424MOL0     H57200   6.396  12.065   6.653 -0.9351  1.6785  0.3356
  424MOL0     H57201   6.164  12.262   6.539 -2.1110 -0.5164  0.5369
  424MOL0     H57202   6.088  12.167   6.672 -0.6243  2.6867  0.5965
  424MOL0     H57203   6.255  12.223   6.682 -0.2825  3.8372 -1.2008
  424MOL0     H57204   5.897  12.201   6.220  0.4330 -1.3293  0.6731
  424MOL0     H57205   5.710  12.359   6.146 -1.7666  0.8698  0.4078
  424MOL0     H57206   5.541  12.523   6.119  1.8744 -3.1975 -2.3574
  424MOL0     H57207   5.498  12.358   6.132 -2.2278 -0.6427 -0.3391
  424MOL0     H57208   5.326  12.564   6.268  0.8180 -0.7632  1.2410
  424MOL0     H57209   5.325  12.557   6.095 -1.0172  0.7350  0.2779
  424MOL0     H57210   5.284  12.322   6.294  0.1085 -0.1195  0.2075
  424MOL0     H57211   5.258  12.298   6.122  1.7026  0.5984  0.0736
  424MOL0     H57212   5.110  12.485   6.295 -0.2148 -1.2829  1.7574
  424MOL0     H57213   5.067  12.451   6.122 -1.0129  0.1649  0.9856
  424MOL0     H57214   5.048  12.258   6.364 -1.0785  0.0570  0.7325
  424MOL0     H57215   5.056  12.197   6.204  0.1461 -1.0077  0.8937
  424MOL0     H57216   4.834  12.385   6.276  1.7880  1.3903 -0.2143
  424MOL0     H57217   4.834  12.243   6.162 -0.6878  0.9223  0.2288
  424MOL0     H57218   4.881  12.201   6.453  0.1261  0.7428 -0.3415
  424MOL0     H57219   4.829  12.087   6.328  0.8091 -1.0506  2.5842
  424MOL0     H57220   4.656  12.322   6.393 -1.5875 -1.2427  1.5679
  424MOL0     H57221   4.650  12.159   6.475 -0.3062 -0.5919  0.0539
  424MOL0     H57222   5.580  12.381   6.554 -2.4997 -0.7231 -3.7301
  424MOL0     H57223   5.772  12.225   6.616 -0.4163 -0.6729 -0.6729
  424MOL0     H57224   6.120  11.793   6.356  0.1334 -0.7493  0.0413
  424MOL0     H57225   6.323  11.694   6.441 -0.1772 -0.1379  0.3485
  424MOL0     H57226   8.094  11.112   6.834  0.7907  0.8859  1.7307
  424MOL0     H57227   8.306  11.081   6.965  1.2710 -2.5429  0.6225
  424MOL0     H57228   8.793  11.155   7.089 -0.6964 -1.5604  3.3559
  424MOL0     H57229   9.015  11.076   7.131  0.2557  0.4128 -0.7266
  424MOL0     H57230   9.220  10.691   7.068 -2.8784  1.3007  2.9728
  424MOL0     H57231   9.166  10.759   6.908 -4.5278  0.5730  1.9987
  424MOL0     H57232   9.430  10.757   6.929  1.6383  1.3995 -0.2951
  424MOL0     H57233   9.411  10.861   7.075  2.1305  0.8779 -1.3538
  424MOL0     H57234   9.342  11.042   6.951  0.2215  0.8908 -1.9837
  424MOL0     H57235   9.277  10.940   6.822  1.7814  0.4003 -1.0901
  424MOL0     H57236   9.555  10.910   6.779  0.8128  0.5181 -0.4719
  424MOL0     H57237   9.559  11.029   6.913 -0.4635  3.0369 -0.1491
  424MOL0     H57238   9.430  11.274   6.601  1.4788 -0.2098 -0.8006
  424MOL0     H57239   8.971  10.740   6.881  0.0238  1.1348 -3.1569
  424MOL0     H57240   8.723  10.796   6.857 -3.0160  3.4431 -1.1715
  425MOL0     O57241   0.413   8.811   5.940 -0.1125  1.0434  0.5518
  425MOL0     C57242   0.403   8.780   5.819 -0.3716 -0.9362 -0.5487
  425MOL0     O57243   0.284   8.736   5.761 -0.0333 -0.3666  0.7896
  425MOL0     C57244   0.182   8.700   5.853 -0.0321 -1.0503 -0.0379
  425MOL0     C57245   0.136   8.572   5.898 -1.3927  0.2127 -0.2842
  425MOL0     C57246   0.026   8.559   5.987 -0.0566 -0.6787 -0.3377
  425MOL0     C57247  -0.039   8.673   6.039 -0.9896 -0.0435 -0.3738
  425MOL0     O57248  -0.144   8.668   6.133 -0.6511 -0.2299  0.7388
  425MOL0     C57249  -0.190   8.548   6.197  0.7725 -0.7104 -0.2682
  425MOL0     C57250  -0.325   8.606   6.259  0.6894 -0.3751  0.6579
  425MOL0     C57251  -0.405   8.485   6.310  0.6459  0.0150  0.1284
  425MOL0     C57252  -0.532   8.536   6.375  0.0890 -0.5145 -0.4800
  425MOL0     C57253  -0.598   8.421   6.447  0.7774  0.2008  0.4678
  425MOL0     C57254  -0.660   8.456   6.585 -0.6457 -0.5175 -0.4400
  425MOL0     C57255  -0.738   8.345   6.655 -0.0315 -0.4473  0.3814
  425MOL0     C57256  -0.795   8.376   6.792 -0.6804  0.6644 -1.0036
  425MOL0     N57257  -0.908   8.466   6.783  0.1163  0.2718 -1.3235
  425MOL0     C57258  -0.914   8.604   6.785  0.2086  0.7646  0.4737
  425MOL0     C57259  -1.047   8.633   6.760 -0.1855  0.6095  0.0350
  425MOL0     C57260  -1.095   8.776   6.741  0.4572 -0.1033 -0.0703
  425MOL0     C57261  -1.140   8.851   6.873 -0.8619 -0.4386  0.3758
  425MOL0     C57262  -1.173   9.002   6.845  0.7124  1.1011 -0.3829
  425MOL0     C57263  -1.277   9.050   6.959 -0.0542  0.3926  0.2999
  425MOL0     O57264  -1.401   8.995   6.911 -0.2682 -0.4780 -0.1529
  425MOL0     C57265  -1.516   9.024   6.967  0.2180 -0.2229 -0.2638
  425MOL0     C57266  -1.540   9.126   7.065 -0.0560  0.4459 -0.0795
  425MOL0     C57267  -1.662   9.139   7.125  0.2900  0.3282 -0.0915
  425MOL0     C57268  -1.679   9.244   7.242  0.1914  0.4101 -0.4075
  425MOL0     C57269  -1.768   9.054   7.092  0.0069  0.2990  0.0947
  425MOL0     C57270  -1.903   9.052   7.159  0.0560 -0.9897  0.3547
  425MOL0     O57271  -1.917   9.096   7.284 -0.0667 -0.9108  0.8413
  425MOL0     C57272  -2.037   9.094   7.341 -0.2584 -0.2110 -1.2618
  425MOL0     C57273  -2.141   9.188   7.309  0.3917 -0.8744  0.8136
  425MOL0     C57274  -2.275   9.170   7.351 -0.4915  0.0593  0.3070
  425MOL0     C57275  -2.302   9.062   7.438  0.3182  0.0265 -0.5471
  425MOL0     O57276  -2.428   9.048   7.492  0.5431 -0.0052  0.5855
  425MOL0     C57277  -2.534   9.152   7.483  0.2679 -0.1006 -0.2514
  425MOL0     C57278  -2.663   9.107   7.553 -0.9076 -0.4893 -1.0433
  425MOL0     C57279  -2.771   9.203   7.541 -0.0802 -0.1458  0.1107
  425MOL0     C57280  -2.886   9.163   7.644 -0.2862  0.0778 -0.1470
  425MOL0     C57281  -3.001   9.257   7.621  0.2498  0.0677  0.0809
  425MOL0     C57282  -3.131   9.215   7.677 -0.7128  0.3507 -1.1717
  425MOL0     C57283  -3.242   9.321   7.671 -0.1465  0.3911  0.1506
  425MOL0     C57284  -3.370   9.273   7.745  0.5311  1.0521  0.0982
  425MOL0    Cl57285  -3.466   9.142   7.659  0.0538 -0.4416 -0.2284
  425MOL0     C57286  -2.202   8.971   7.481 -0.8530 -0.6328 -0.7045
  425MOL0     C57287  -2.069   8.993   7.442 -0.4803  0.0618  1.1609
  425MOL0     O57288  -1.997   9.026   7.079 -0.0345  0.1506 -0.0961
  425MOL0     C57289  -1.743   8.956   6.993  0.2169  0.1445 -0.8215
  425MOL0     C57290  -1.622   8.946   6.936 -0.4607 -0.3345 -0.5636
  425MOL0     N57291  -1.118   8.516   6.747  0.0403  0.1286  0.5247
  425MOL0     N57292  -1.035   8.423   6.765 -0.5782  0.6475  0.0329
  425MOL0     C57293   0.003   8.803   5.988  0.4624  0.3640  0.0285
  425MOL0     C57294   0.112   8.808   5.896  0.5523  0.9604  0.0023
  425MOL0     C57295   0.527   8.790   5.743  0.5329 -0.0188 -0.4107
  425MOL0     C57296   0.660   8.791   5.806  0.0058  0.9448  0.3206
  425MOL0     C57297   0.774   8.816   5.725 -0.2112  0.1524 -0.3136
  425MOL0     C57298   0.764   8.846   5.590  0.3173  0.5559 -0.3795
  425MOL0     O57299   0.873   8.870   5.515  0.4066  0.5408 -0.0498
  425MOL0     C57300   0.872   9.007   5.461  0.8744 -0.4839  0.4734
  425MOL0     C57301   0.978   9.029   5.352  0.1931  0.3105 -0.3608
  425MOL0     C57302   1.019   9.173   5.338 -1.0083 -1.6428 -0.0301
  425MOL0     C57303   0.906   9.263   5.288  0.4003  0.5910  0.1720
  425MOL0     C57304   0.854   9.224   5.159 -0.4358  0.1781  0.3394
  425MOL0     C57305   0.808   9.199   5.052  0.2543 -0.1157 -0.6581
  425MOL0     C57306   0.632   8.841   5.528 -1.0361 -0.1143 -0.3646
  425MOL0     C57307   0.523   8.827   5.610 -1.2725 -0.8050  0.5561
  425MOL0     H57308   0.190   8.481   5.875  0.1108  0.6087  1.4946
  425MOL0     H57309   0.006   8.458   6.021  0.9833 -0.2420  1.7804
  425MOL0     H57310  -0.215   8.473   6.121 -0.5210  0.8616 -1.4621
  425MOL0     H57311  -0.120   8.515   6.274  2.6569 -1.5372 -2.2455
  425MOL0     H57312  -0.301   8.668   6.345 -0.4097 -1.7969  2.0597
  425MOL0     H57313  -0.376   8.667   6.184 -1.3467  0.4160  2.5801
  425MOL0     H57314  -0.431   8.422   6.224 -1.0814  2.1648 -1.0455
  425MOL0     H57315  -0.351   8.419   6.378  0.6028  0.2217  0.3672
  425MOL0     H57316  -0.522   8.630   6.431 -0.6506  0.2079 -1.5346
  425MOL0     H57317  -0.599   8.567   6.295  0.6038 -2.6403 -1.8032
  425MOL0     H57318  -0.667   8.377   6.374  1.8110 -1.0358  0.1973
  425MOL0     H57319  -0.522   8.344   6.461  1.5421  1.0183  0.9744
  425MOL0     H57320  -0.575   8.482   6.649  0.0780 -0.5513 -1.3645
  425MOL0     H57321  -0.730   8.540   6.574 -1.7265 -0.8340  2.9105
  425MOL0     H57322  -0.821   8.315   6.590  2.0175 -0.2882 -2.4901
  425MOL0     H57323  -0.666   8.264   6.667 -1.5577 -1.8271  0.7600
  425MOL0     H57324  -0.725   8.408   6.869  0.3732 -1.9276 -0.7625
  425MOL0     H57325  -0.833   8.281   6.832  0.8580 -1.0561 -3.3013
  425MOL0     H57326  -0.848   8.690   6.799 -0.4088  1.1444  1.1370
  425MOL0     H57327  -1.022   8.845   6.698 -2.2310  4.0254  1.4694
  425MOL0     H57328  -1.174   8.777   6.665  0.9813  0.3090 -0.6212
  425MOL0     H57329  -1.067   8.845   6.954  1.4364  1.8061 -1.3824
  425MOL0     H57330  -1.233   8.801   6.902 -0.1514  0.2719  4.3830
  425MOL0     H57331  -1.228   9.017   6.752 -2.2216 -2.2786  0.5967
  425MOL0     H57332  -1.082   9.061   6.857  1.3354 -0.0949  1.1609
  425MOL0     H57333  -1.293   9.158   6.956  0.6432  0.4782 -0.8482
  425MOL0     H57334  -1.242   9.009   7.054  1.1071 -3.3746 -1.5818
  425MOL0     H57335  -1.464   9.196   7.100  2.0363 -0.9955 -1.4666
  425MOL0     H57336  -1.677   9.189   7.337 -1.4824 -1.6998 -1.4887
  425MOL0     H57337  -1.599   9.318   7.230 -0.9598  1.4824 -1.8100
  425MOL0     H57338  -1.772   9.300   7.251 -0.5768 -0.9995  0.9423
  425MOL0     H57339  -2.117   9.272   7.245 -2.2349  0.0124  0.8779
  425MOL0     H57340  -2.348   9.245   7.324 -0.8393  0.1595  1.4938
  425MOL0     H57341  -2.502   9.247   7.527 -2.7138  1.2692 -0.7818
  425MOL0     H57342  -2.554   9.166   7.377 -0.1101 -2.2712 -0.5314
  425MOL0     H57343  -2.674   9.006   7.514 -0.4372 -2.4948  3.4035
  425MOL0     H57344  -2.636   9.100   7.659  1.8363  0.6797 -1.5901
  425MOL0     H57345  -2.811   9.204   7.439 -2.3548  1.0382  0.9387
  425MOL0     H57346  -2.732   9.299   7.575  2.4009 -1.9066  2.7045
  425MOL0     H57347  -2.916   9.058   7.636  0.2242 -0.3437  2.4590
  425MOL0     H57348  -2.842   9.178   7.744 -0.3634 -0.8691  0.0363
  425MOL0     H57349  -3.026   9.272   7.515 -1.4480  0.1029  0.4685
  425MOL0     H57350  -2.965   9.355   7.653  1.4786 -0.6046  0.8471
  425MOL0     H57351  -3.178   9.130   7.627 -1.8155  0.0619  0.2767
  425MOL0     H57352  -3.131   9.179   7.780 -1.0038  0.2029 -1.2208
  425MOL0     H57353  -3.271   9.335   7.567  1.6893 -0.3279 -0.4950
  425MOL0     H57354  -3.206   9.421   7.700 -1.2629  0.9771 -0.3887
  425MOL0     H57355  -3.441   9.353   7.766  0.2735  0.4056  1.8426
  425MOL0     H57356  -3.339   9.234   7.843 -0.3308  0.8852  0.3088
  425MOL0     H57357  -2.214   8.880   7.539  1.6743 -0.6474 -0.0836
  425MOL0     H57358  -2.006   8.914   7.481  0.6152  1.4969  2.4309
  425MOL0     H57359  -1.824   8.898   6.952  1.3476 -1.2208 -1.2268
  425MOL0     H57360  -1.592   8.876   6.858  0.6268 -1.1533  0.5608
  425MOL0     H57361  -0.041   8.898   6.017  1.2399  1.2103 -1.4193
  425MOL0     H57362   0.134   8.913   5.875  0.2325  1.3037  1.3117
  425MOL0     H57363   0.665   8.759   5.909 -0.1528 -1.9270 -0.4823
  425MOL0     H57364   0.873   8.800   5.766 -0.4207 -0.1177  0.1011
  425MOL0     H57365   0.773   9.027   5.420  0.4131  0.1959  1.8650
  425MOL0     H57366   0.885   9.079   5.542  1.6643 -0.3523  0.2383
  425MOL0     H57367   0.940   8.985   5.259  4.4074  0.6366 -2.4564
  425MOL0     H57368   1.068   8.973   5.380 -0.7309  0.4287  3.3411
  425MOL0     H57369   1.095   9.178   5.259 -1.8157 -2.2953 -0.8678
  425MOL0     H57370   1.059   9.211   5.432  3.3096 -0.4774 -2.0695
  425MOL0     H57371   0.939   9.366   5.274  1.8052 -0.0982 -2.1681
  425MOL0     H57372   0.817   9.250   5.350  0.6238 -2.5862 -0.0331
  425MOL0     H57373   0.775   9.183   4.951  1.8869  0.3285 -1.3071
  425MOL0     H57374   0.615   8.863   5.423 -3.0396  1.9821  0.3195
  425MOL0     H57375   0.423   8.825   5.567 -1.4327 -3.8298  0.8410
  426MOL0     O57376  10.896   4.282   3.770  0.2355  0.8373 -0.4706
  426MOL0     C57377  10.966   4.232   3.682  0.3978  1.1877  0.2263
  426MOL0     O57378  10.920   4.178   3.559  1.0206 -0.2641 -0.0476
  426MOL0     C57379  10.783   4.155   3.528  0.0338 -0.7695 -0.2528
  426MOL0     C57380  10.675   4.237   3.580 -0.5447 -0.1265 -0.8786
  426MOL0     C57381  10.539   4.199   3.545  1.0269 -0.3202  0.5251
  426MOL0     C57382  10.514   4.084   3.472 -0.6140  0.2805  0.8022
  426MOL0     O57383  10.383   4.060   3.456 -0.3985  0.1941  0.7206
  426MOL0     C57384  10.347   3.979   3.347  1.0917 -0.3462 -0.1790
  426MOL0     C57385  10.194   3.981   3.336 -0.3900 -0.6344  0.6162
  426MOL0     C57386  10.127   3.861   3.253  0.0766  0.0983  0.0577
  426MOL0     C57387   9.972   3.866   3.229  0.3022  0.5607 -0.3946
  426MOL0     C57388   9.923   3.743   3.152 -0.5582 -0.9557  0.4460
  426MOL0     C57389   9.769   3.714   3.136  0.3811  0.5361  0.2518
  426MOL0     C57390   9.678   3.779   3.247 -0.7950  0.4957  0.0432
  426MOL0     C57391   9.528   3.767   3.206 -0.0114 -0.2574  0.3708
  426MOL0     N57392   9.438   3.821   3.307  0.6417  0.1527  0.2418
  426MOL0     C57393   9.401   3.770   3.422  0.8414 -0.5057 -0.6240
  426MOL0     C57394   9.327   3.868   3.480 -0.3143  0.2173  0.0349
  426MOL0     C57395   9.263   3.856   3.618  0.1305 -0.7220  0.2530
  426MOL0     C57396   9.181   3.728   3.616  0.0594 -0.3969 -0.7494
  426MOL0     C57397   9.052   3.731   3.522  0.1580  0.1451  0.3967
  426MOL0     C57398   8.940   3.626   3.563  0.3275 -0.6178 -0.7331
  426MOL0     O57399   8.897   3.655   3.697 -0.4732 -0.2218 -0.3521
  426MOL0     C57400   8.765   3.655   3.711 -0.6566 -0.0835 -0.8483
  426MOL0     C57401   8.700   3.531   3.715 -0.2323 -0.3700  0.0147
  426MOL0     C57402   8.563   3.524   3.741 -0.6681  0.1502 -0.5061
  426MOL0     C57403   8.504   3.381   3.713  0.1877  0.6679  0.0393
  426MOL0     C57404   8.499   3.640   3.789  0.1162  0.0720 -0.7922
  426MOL0     C57405   8.362   3.640   3.823  0.3367 -0.6504 -0.6839
  426MOL0     O57406   8.321   3.751   3.899  0.5928  0.2419  1.1932
  426MOL0     C57407   8.188   3.762   3.924  0.2703  0.2969  0.8592
  426MOL0     C57408   8.148   3.810   4.051  0.2040 -0.1040 -0.2368
  426MOL0     C57409   8.016   3.840   4.083  0.5284  0.3721  0.5038
  426MOL0     C57410   7.911   3.833   3.989  0.3877 -0.4215  0.2358
  426MOL0     O57411   7.781   3.874   4.031  0.2365  0.0272  0.3529
  426MOL0     C57412   7.684   3.862   3.926 -0.5657 -0.0522 -1.0977
  426MOL0     C57413   7.561   3.932   3.985  0.5438 -0.1105 -0.2833
  426MOL0     C57414   7.450   3.951   3.877  0.2025  0.1216  0.8873
  426MOL0     C57415   7.343   4.052   3.916 -0.3450  0.2766 -0.0173
  426MOL0     C57416   7.261   4.093   3.799 -0.7802 -0.0923 -0.5451
  426MOL0     C57417   7.163   4.200   3.831  0.0949  0.1019 -0.7816
  426MOL0     C57418   7.098   4.244   3.700  0.4230  0.6512 -0.5568
  426MOL0     C57419   6.979   4.345   3.723 -0.1321 -0.3454  0.2316
  426MOL0    Cl57420   6.970   4.413   3.563  0.3356  0.2867  0.1520
  426MOL0     C57421   7.946   3.793   3.858  0.3968 -0.2528  0.1433
  426MOL0     C57422   8.088   3.768   3.827  0.3632 -0.1644 -0.4164
  426MOL0     O57423   8.288   3.560   3.770 -0.2473 -0.3187 -0.3034
  426MOL0     C57424   8.570   3.755   3.799 -0.2552  0.1696 -0.5446
  426MOL0     C57425   8.697   3.771   3.754 -0.6013 -0.1596 -0.0348
  426MOL0     N57426   9.310   3.968   3.394  0.0439  0.5955 -0.0546
  426MOL0     N57427   9.373   3.939   3.283 -0.5709 -0.0065 -0.2162
  426MOL0     C57428  10.624   4.009   3.420  0.1785 -0.0082 -0.1183
  426MOL0     C57429  10.757   4.049   3.440 -0.9034 -0.1336  0.1231
  426MOL0     C57430  11.112   4.240   3.690 -0.5491 -0.3082  0.0926
  426MOL0     C57431  11.176   4.283   3.806 -1.1343  0.3418 -0.3767
  426MOL0     C57432  11.320   4.276   3.819 -0.4781 -0.2459 -0.5376
  426MOL0     C57433  11.395   4.240   3.705 -0.6856 -0.2809  0.6123
  426MOL0     O57434  11.531   4.237   3.711  1.0566 -0.5706 -0.2237
  426MOL0     C57435  11.595   4.230   3.838  0.1072 -0.8966  0.5032
  426MOL0     C57436  11.737   4.186   3.800  0.4432 -0.0272  0.5650
  426MOL0     C57437  11.845   4.201   3.908 -0.0991  0.4253  0.2715
  426MOL0     C57438  11.979   4.154   3.850  0.5365  0.1001 -0.2125
  426MOL0     C57439  12.022   4.251   3.753 -0.2242  0.4022  0.1343
  426MOL0     C57440  12.059   4.339   3.684 -0.5950 -0.4623  0.6391
  426MOL0     C57441  11.333   4.215   3.581  0.2915 -0.0749  0.7702
  426MOL0     C57442  11.195   4.197   3.575 -0.2669  0.4295 -0.5368
  426MOL0     H57443  10.698   4.327   3.635 -2.1682  0.2676 -0.7932
  426MOL0     H57444  10.460   4.266   3.579 -0.0902 -2.2138  1.8463
  426MOL0     H57445  10.394   4.010   3.254 -0.3687  1.5532 -0.3426
  426MOL0     H57446  10.380   3.879   3.379 -1.3853 -0.6338  1.7970
  426MOL0     H57447  10.160   3.993   3.439  0.1745  0.5281  0.6853
  426MOL0     H57448  10.167   4.078   3.293 -1.5514 -1.0704  0.3186
  426MOL0     H57449  10.180   3.867   3.158  1.1263 -0.1765  0.6096
  426MOL0     H57450  10.161   3.767   3.297 -0.5883 -1.0795 -1.8434
  426MOL0     H57451   9.910   3.875   3.319  0.0892 -0.4673 -0.4273
  426MOL0     H57452   9.955   3.950   3.161 -0.8629  0.8692  0.2355
  426MOL0     H57453   9.956   3.746   3.048  4.0420 -1.5955  1.6569
  426MOL0     H57454   9.969   3.656   3.200 -1.1292 -1.0903  0.7661
  426MOL0     H57455   9.746   3.769   3.044  0.5540  0.1829 -0.0039
  426MOL0     H57456   9.743   3.608   3.133  1.3896  0.1602  2.5589
  426MOL0     H57457   9.686   3.731   3.345  1.9071 -0.2277 -0.4370
  426MOL0     H57458   9.708   3.883   3.261 -0.4882  0.5535 -0.9271
  426MOL0     H57459   9.502   3.664   3.182 -1.3706  0.4509 -1.4055
  426MOL0     H57460   9.524   3.815   3.108  0.6496 -0.6496  0.1446
  426MOL0     H57461   9.440   3.674   3.456  2.5792  0.2908 -0.3108
  426MOL0     H57462   9.349   3.842   3.684 -0.8526 -0.5024  1.6153
  426MOL0     H57463   9.209   3.949   3.637  1.1478  0.3317 -1.6960
  426MOL0     H57464   9.146   3.704   3.717  0.0711 -2.8018 -1.2667
  426MOL0     H57465   9.242   3.643   3.585 -1.3918 -1.4455 -0.8206
  426MOL0     H57466   9.095   3.704   3.425 -2.9965 -0.9184 -0.8587
  426MOL0     H57467   9.008   3.831   3.514  0.4181  0.1918 -0.7023
  426MOL0     H57468   8.978   3.523   3.559 -1.8184 -1.4847  0.0778
  426MOL0     H57469   8.851   3.642   3.502 -1.6619  0.4778  2.2583
  426MOL0     H57470   8.749   3.437   3.694  2.1632  0.6205  0.9095
  426MOL0     H57471   8.574   3.301   3.736  0.9887  1.0643 -0.9151
  426MOL0     H57472   8.429   3.367   3.791 -0.5525  1.4328 -0.5173
  426MOL0     H57473   8.472   3.350   3.613 -0.9219  1.2030  0.2165
  426MOL0     H57474   8.229   3.826   4.122 -0.7843 -2.6461  1.5809
  426MOL0     H57475   7.999   3.876   4.184  0.9444  1.3209  0.2423
  426MOL0     H57476   7.728   3.919   3.845  2.6997  0.3206  0.7420
  426MOL0     H57477   7.666   3.758   3.896 -0.0783 -0.9007  1.3116
  426MOL0     H57478   7.513   3.884   4.071  0.0679 -0.6267 -0.8264
  426MOL0     H57479   7.588   4.025   4.036 -0.2257  0.3833 -0.7685
  426MOL0     H57480   7.402   3.858   3.845  0.9574  0.3585 -1.0476
  426MOL0     H57481   7.502   3.972   3.783 -3.0127 -1.0648 -1.3437
  426MOL0     H57482   7.284   4.006   3.996  0.8581  2.0425  2.0172
  426MOL0     H57483   7.388   4.141   3.961  0.9257 -1.0448  1.5089
  426MOL0     H57484   7.208   4.009   3.753 -1.2361 -1.1718  1.7821
  426MOL0     H57485   7.327   4.126   3.719 -2.6313 -0.1774 -2.1870
  426MOL0     H57486   7.114   4.155   3.918  0.6885  0.5090 -0.2196
  426MOL0     H57487   7.214   4.290   3.867  1.0922 -0.2235 -1.3436
  426MOL0     H57488   7.055   4.155   3.653 -1.7458  0.8958  0.8466
  426MOL0     H57489   7.174   4.286   3.633  1.1212 -0.8062 -0.7082
  426MOL0     H57490   7.001   4.421   3.799  0.0412 -0.3581  0.1953
  426MOL0     H57491   6.890   4.290   3.752 -0.0133 -0.3322  0.6359
  426MOL0     H57492   7.875   3.803   3.776  1.5608 -1.4074 -1.0546
  426MOL0     H57493   8.124   3.759   3.725  0.5381 -1.2498 -0.2628
  426MOL0     H57494   8.515   3.844   3.829 -0.1136 -0.4941  1.9890
  426MOL0     H57495   8.751   3.865   3.752 -0.8088 -0.0365 -2.1787
  426MOL0     H57496  10.623   3.914   3.367 -1.4924 -0.0914  0.0032
  426MOL0     H57497  10.835   3.989   3.393 -1.9452  1.2140 -3.7251
  426MOL0     H57498  11.121   4.323   3.891 -0.9619  0.8320 -0.4936
  426MOL0     H57499  11.361   4.317   3.911 -3.3227  3.0966 -0.5607
  426MOL0     H57500  11.599   4.330   3.882  1.3473 -0.4717 -0.4824
  426MOL0     H57501  11.542   4.158   3.900 -1.7099 -1.0996 -1.2004
  426MOL0     H57502  11.765   4.241   3.710 -2.2808  0.0345 -0.3522
  426MOL0     H57503  11.727   4.082   3.769  0.1297 -0.2841  1.5170
  426MOL0     H57504  11.831   4.138   3.996  1.9075  2.7309  2.3670
  426MOL0     H57505  11.846   4.304   3.942 -1.7072  0.3478  0.6613
  426MOL0     H57506  11.970   4.055   3.803  0.7939  0.8353 -1.9068
  426MOL0     H57507  12.053   4.141   3.929  1.0827 -1.2629 -0.9084
  426MOL0     H57508  12.109   4.422   3.639  1.7480 -0.4319  3.0313
  426MOL0     H57509  11.397   4.209   3.494 -3.0335 -2.0324 -1.8036
  426MOL0     H57510  11.149   4.162   3.483  0.5685  0.4191 -0.9611
  427MOL0     O57511   4.827  10.008   3.110  0.1787 -0.0655  0.4992
  427MOL0     C57512   4.898  10.104   3.141  0.4625  0.5123  0.6009
  427MOL0     O57513   4.971  10.122   3.254  0.6784 -0.2998 -0.3072
  427MOL0     C57514   4.943  10.047   3.370  0.2829  0.4055  0.1729
  427MOL0     C57515   4.816  10.006   3.412  0.4790  0.5579  0.6045
  427MOL0     C57516   4.797   9.962   3.547 -0.3883 -0.7676  0.0333
  427MOL0     C57517   4.914   9.934   3.624 -0.3491  0.2157 -0.3274
  427MOL0     O57518   4.905   9.887   3.750  0.3633  0.0380 -0.1826
  427MOL0     C57519   4.782   9.882   3.816  0.1399 -0.8400 -0.1252
  427MOL0     C57520   4.738  10.012   3.889  0.5111 -0.0827 -0.3684
  427MOL0     C57521   4.603   9.995   3.975 -0.6110  0.6862  0.7803
  427MOL0     C57522   4.585  10.129   4.042  0.0729  0.2257 -0.2993
  427MOL0     C57523   4.484  10.125   4.155 -0.1609  0.6001  0.8320
  427MOL0     C57524   4.479  10.251   4.243  0.6469  0.2822  0.7552
  427MOL0     C57525   4.598  10.282   4.331  0.0611  0.1732 -0.5900
  427MOL0     C57526   4.610  10.433   4.349 -0.1461 -0.6887 -0.0595
  427MOL0     N57527   4.490  10.477   4.417  1.1954 -0.3723 -0.4731
  427MOL0     C57528   4.457  10.463   4.549  0.1436  0.7214  0.1430
  427MOL0     C57529   4.348  10.547   4.569 -0.5545  0.0878  1.1813
  427MOL0     C57530   4.272  10.576   4.692  0.4142 -0.3568  0.1374
  427MOL0     C57531   4.239  10.719   4.717  0.8739  0.2091 -0.4012
  427MOL0     C57532   4.117  10.768   4.648  0.3717  0.3622  0.7939
  427MOL0     C57533   4.111  10.916   4.654 -0.5020  0.3312  0.1561
  427MOL0     O57534   4.108  10.965   4.793 -0.4746 -0.1416  0.4583
  427MOL0     C57535   3.995  10.987   4.864 -0.6332  0.4127  0.3515
  427MOL0     C57536   3.872  10.914   4.846 -0.0466 -0.2193  0.1382
  427MOL0     C57537   3.765  10.947   4.922  1.2360 -0.5958 -0.2080
  427MOL0     C57538   3.639  10.857   4.918  0.0410  0.2926 -0.2906
  427MOL0     C57539   3.768  11.058   5.009 -0.2272 -0.2732 -0.2716
  427MOL0     C57540   3.646  11.114   5.078 -0.5085 -0.4010  0.7704
  427MOL0     O57541   3.533  11.125   5.005 -0.0575  0.3279  0.3089
  427MOL0     C57542   3.434  11.201   5.045 -0.2247  0.4101  1.0900
  427MOL0     C57543   3.435  11.341   5.044 -0.3967 -0.3698 -0.5106
  427MOL0     C57544   3.323  11.409   5.070 -0.2032  0.0046 -1.0695
  427MOL0     C57545   3.211  11.338   5.115  0.9476  0.4654  0.4616
  427MOL0     O57546   3.105  11.418   5.153  0.2744  0.2952  0.9085
  427MOL0     C57547   2.999  11.345   5.228 -0.5621 -1.4586  0.0424
  427MOL0     C57548   2.927  11.460   5.292  0.2938 -0.3040  0.1230
  427MOL0     C57549   2.802  11.427   5.377  0.5025  0.2293  0.3461
  427MOL0     C57550   2.770  11.534   5.485 -0.5034  0.5378 -0.4635
  427MOL0     C57551   2.641  11.505   5.563  0.6389  0.2265  1.5453
  427MOL0     C57552   2.608  11.603   5.676  0.8119  0.2215 -0.0578
  427MOL0     C57553   2.465  11.592   5.711  0.0556 -1.1110  0.3472
  427MOL0     C57554   2.438  11.685   5.831  0.7380  0.3277  0.4541
  427MOL0    Cl57555   2.261  11.671   5.876  0.1598 -0.0614  0.5074
  427MOL0     C57556   3.210  11.196   5.122  0.8566 -0.8822 -0.2590
  427MOL0     C57557   3.322  11.130   5.086 -0.0886 -0.6182  0.3012
  427MOL0     O57558   3.668  11.166   5.188 -0.1392 -0.4727 -0.4550
  427MOL0     C57559   3.891  11.115   5.044 -0.5044  0.1785  0.7112
  427MOL0     C57560   4.004  11.072   4.974 -0.7227 -0.0433 -0.1246
  427MOL0     N57561   4.308  10.596   4.448  0.1964 -0.5185  0.3564
  427MOL0     N57562   4.394  10.551   4.358 -0.6174 -0.3847  0.3903
  427MOL0     C57563   5.042   9.948   3.572 -0.3371 -0.9412  0.4025
  427MOL0     C57564   5.052  10.010   3.448  0.1666 -0.2008  0.4053
  427MOL0     C57565   4.894  10.211   3.048  0.6064  0.0846  0.8588
  427MOL0     C57566   4.917  10.343   3.090  0.6252  0.1599  0.3074
  427MOL0     C57567   4.902  10.450   3.000  0.9414  0.1178 -0.3694
  427MOL0     C57568   4.871  10.427   2.865 -0.8181  1.0972 -0.4137
  427MOL0     O57569   4.890  10.520   2.770 -0.1568 -0.9290  0.3706
  427MOL0     C57570   4.941  10.650   2.805  0.9911  0.0223  0.4955
  427MOL0     C57571   5.089  10.646   2.835 -0.2651 -0.6685  0.7377
  427MOL0     C57572   5.172  10.614   2.714  0.3770 -0.1805 -0.0051
  427MOL0     C57573   5.319  10.605   2.754  0.8017  0.4782  0.4840
  427MOL0     C57574   5.386  10.730   2.788 -0.2592  0.2783  0.6438
  427MOL0     C57575   5.450  10.820   2.835 -0.3006  0.3705 -0.1969
  427MOL0     C57576   4.843  10.296   2.816 -0.4199 -0.8464  0.1413
  427MOL0     C57577   4.864  10.186   2.908 -0.6308  0.1081 -0.3481
  427MOL0     H57578   4.731  10.041   3.355 -1.0613 -2.2030  1.0298
  427MOL0     H57579   4.700   9.974   3.593  0.5567 -1.1470  2.2282
  427MOL0     H57580   4.706   9.842   3.748 -2.5314  1.2801  1.4081
  427MOL0     H57581   4.798   9.806   3.893 -1.5071  0.1040  1.2114
  427MOL0     H57582   4.810  10.042   3.965  0.3227 -0.3570 -0.0776
  427MOL0     H57583   4.723  10.091   3.815  0.7273  0.7249  0.4275
  427MOL0     H57584   4.519   9.963   3.914  1.0636 -0.3807 -1.0856
  427MOL0     H57585   4.625   9.921   4.053 -2.1129 -0.5405  0.0676
  427MOL0     H57586   4.677  10.178   4.074 -1.7941  1.7894  3.2323
  427MOL0     H57587   4.551  10.200   3.965  2.4130  1.5610 -0.1836
  427MOL0     H57588   4.390  10.107   4.101  1.8122 -1.7200 -2.0956
  427MOL0     H57589   4.491  10.033   4.213 -1.1459 -0.2964 -0.4250
  427MOL0     H57590   4.466  10.336   4.175  2.1183  0.0683  0.1553
  427MOL0     H57591   4.384  10.252   4.296 -1.8586  2.7390 -3.2577
  427MOL0     H57592   4.580  10.239   4.430 -1.0409 -1.3288 -1.3919
  427MOL0     H57593   4.682  10.227   4.288 -0.2067 -2.3369  1.7809
  427MOL0     H57594   4.630  10.478   4.251  1.8169 -1.1743  0.0778
  427MOL0     H57595   4.692  10.460   4.416  0.5351 -3.6321  0.4323
  427MOL0     H57596   4.512  10.407   4.624 -3.0313 -2.1329  0.6112
  427MOL0     H57597   4.183  10.513   4.697  2.3817 -3.4497 -0.8346
  427MOL0     H57598   4.328  10.546   4.781  1.0509  2.7895  0.9123
  427MOL0     H57599   4.320  10.779   4.674 -0.8698  2.2155 -0.9969
  427MOL0     H57600   4.217  10.744   4.821 -0.8023 -0.2599 -0.6257
  427MOL0     H57601   4.029  10.720   4.692 -0.2574  2.7639  2.3333
  427MOL0     H57602   4.119  10.731   4.545  3.3433 -2.0897  1.5943
  427MOL0     H57603   4.026  10.951   4.594 -2.5598 -1.3218  1.9505
  427MOL0     H57604   4.204  10.953   4.610  0.6089 -0.2889  1.8784
  427MOL0     H57605   3.861  10.845   4.763  0.7478 -0.3833  0.1552
  427MOL0     H57606   3.646  10.791   4.832 -1.1712  1.5298 -1.3849
  427MOL0     H57607   3.632  10.801   5.012 -2.5579 -2.6668 -2.0896
  427MOL0     H57608   3.540  10.904   4.912 -2.2977 -3.9060  1.1763
  427MOL0     H57609   3.522  11.394   5.008  1.5746 -3.5940 -0.9130
  427MOL0     H57610   3.321  11.518   5.072  0.8679  0.0202  0.1764
  427MOL0     H57611   2.921  11.311   5.160 -0.8246 -0.7497 -0.0141
  427MOL0     H57612   3.034  11.278   5.307  0.2943 -1.2138 -0.1159
  427MOL0     H57613   2.997  11.509   5.360 -0.6010  0.3978  0.5539
  427MOL0     H57614   2.900  11.532   5.214  0.3716 -1.8486 -1.3905
  427MOL0     H57615   2.815  11.325   5.415 -0.3139 -0.5399 -1.3229
  427MOL0     H57616   2.721  11.428   5.304  0.5787  2.2238  0.2550
  427MOL0     H57617   2.845  11.523   5.564  1.0784  0.2817 -1.9444
  427MOL0     H57618   2.776  11.632   5.436 -0.2151  1.2028  0.8675
  427MOL0     H57619   2.637  11.398   5.583  1.7125  0.0375  0.8065
  427MOL0     H57620   2.561  11.507   5.488  1.7767 -0.8984  0.2607
  427MOL0     H57621   2.671  11.588   5.764 -2.1866  2.9010  2.8616
  427MOL0     H57622   2.638  11.706   5.652 -0.1078  0.4950 -0.0878
  427MOL0     H57623   2.445  11.488   5.738 -0.4891 -0.8434  0.9988
  427MOL0     H57624   2.400  11.627   5.630  0.2383  2.7683  1.6742
  427MOL0     H57625   2.466  11.789   5.808 -0.5762  0.9886  1.6580
  427MOL0     H57626   2.505  11.659   5.913 -1.3850  2.3310  2.9981
  427MOL0     H57627   3.123  11.143   5.159  0.4694  0.9990  1.7597
  427MOL0     H57628   3.332  11.023   5.069  1.3827 -0.1070 -2.7417
  427MOL0     H57629   3.900  11.195   5.118  0.3901 -1.7801  2.8493
  427MOL0     H57630   4.102  11.119   4.981 -0.6310 -0.1003 -0.9939
  427MOL0     H57631   5.134   9.929   3.626  0.4702 -0.4384 -0.7513
  427MOL0     H57632   5.152  10.033   3.413  0.3301 -1.0131  0.3318
  427MOL0     H57633   4.952  10.372   3.189 -1.1352 -1.5009  1.4703
  427MOL0     H57634   4.923  10.551   3.033 -3.5559  0.8545  0.7958
  427MOL0     H57635   4.910  10.708   2.718 -0.2221  0.9320  1.4931
  427MOL0     H57636   4.894  10.692   2.895  2.4744  2.6997  0.1139
  427MOL0     H57637   5.105  10.581   2.922 -0.5262 -0.6119  0.8272
  427MOL0     H57638   5.103  10.748   2.873 -2.5942  0.0171 -0.0716
  427MOL0     H57639   5.158  10.687   2.634 -0.3190  0.0898  0.3620
  427MOL0     H57640   5.139  10.518   2.672 -1.5675  0.8652 -0.9683
  427MOL0     H57641   5.376  10.555   2.675 -0.3299 -0.9924  0.5725
  427MOL0     H57642   5.315  10.532   2.834 -2.4446  1.9679  1.8562
  427MOL0     H57643   5.513  10.898   2.874 -0.8770 -0.0120  1.6226
  427MOL0     H57644   4.832  10.284   2.709  2.7174  0.2621 -0.4045
  427MOL0     H57645   4.854  10.086   2.867  0.4919 -0.0581 -0.2612
  428MOL0     O57646   6.214   8.623   6.828 -0.3461  0.2838 -0.8418
  428MOL0     C57647   6.237   8.678   6.935  0.1263 -0.0715 -0.2211
  428MOL0     O57648   6.167   8.664   7.052 -0.1833  0.0827  0.4426
  428MOL0     C57649   6.045   8.599   7.047  0.1972 -0.6636 -0.1868
  428MOL0     C57650   6.011   8.481   6.976  0.8483 -0.4069  1.4423
  428MOL0     C57651   5.884   8.416   6.991 -0.1963  0.4249 -0.2804
  428MOL0     C57652   5.792   8.478   7.078 -0.4522 -0.2646  0.0700
  428MOL0     O57653   5.662   8.435   7.088 -0.4729 -0.2798  0.5963
  428MOL0     C57654   5.610   8.308   7.053  0.1255 -0.9668  0.0250
  428MOL0     C57655   5.481   8.287   7.140 -0.3360  0.8001 -0.0825
  428MOL0     C57656   5.417   8.157   7.089  0.4298 -0.2396 -0.8527
  428MOL0     C57657   5.303   8.123   7.179  0.5832 -0.4880  0.0138
  428MOL0     C57658   5.191   8.220   7.136 -0.8868  0.3803 -0.0573
  428MOL0     C57659   5.055   8.190   7.204 -0.0542 -0.4091  0.5578
  428MOL0     C57660   4.950   8.296   7.148 -0.6767 -0.2059  0.2555
  428MOL0     C57661   4.823   8.279   7.230  0.1062  0.0577  0.1374
  428MOL0     N57662   4.729   8.383   7.181 -0.1523  0.6115  0.2446
  428MOL0     C57663   4.719   8.509   7.236 -0.2235  0.1944  0.6209
  428MOL0     C57664   4.621   8.582   7.174 -0.0608  0.0985  0.5450
  428MOL0     C57665   4.571   8.719   7.208  1.1786  0.3727  0.1513
  428MOL0     C57666   4.416   8.751   7.192 -0.3100  0.5337  0.3133
  428MOL0     C57667   4.358   8.811   7.320 -1.0282  0.3326 -0.3480
  428MOL0     C57668   4.204   8.796   7.334 -0.8425  0.0635 -0.5803
  428MOL0     O57669   4.142   8.829   7.208 -0.5728  0.4597  0.1120
  428MOL0     C57670   4.031   8.749   7.177 -0.0869 -1.0924 -0.7352
  428MOL0     C57671   3.937   8.705   7.270 -0.4877 -0.5863  0.0959
  428MOL0     C57672   3.815   8.652   7.220 -0.2750 -0.9079  0.3331
  428MOL0     C57673   3.708   8.622   7.326 -0.0283 -0.8663  0.0305
  428MOL0     C57674   3.788   8.642   7.079  0.6978 -0.5523  0.9562
  428MOL0     C57675   3.660   8.597   7.028  0.5095 -0.1858 -0.2377
  428MOL0     O57676   3.549   8.621   7.103 -1.0406  0.1123 -0.7782
  428MOL0     C57677   3.421   8.576   7.057 -0.5153  0.6293 -0.2934
  428MOL0     C57678   3.369   8.597   6.929  0.4006  1.6559  0.4628
  428MOL0     C57679   3.235   8.564   6.902  0.6253  0.8721  0.1799
  428MOL0     C57680   3.150   8.520   6.996 -0.5067 -0.0005 -0.0131
  428MOL0     O57681   3.022   8.478   6.960 -0.0064 -0.1557  0.3591
  428MOL0     C57682   3.005   8.333   6.981  1.0082 -0.3239 -0.2443
  428MOL0     C57683   2.909   8.305   7.095  0.5201  0.8605 -0.6176
  428MOL0     C57684   2.774   8.382   7.084 -0.5613 -0.0753 -0.4095
  428MOL0     C57685   2.689   8.349   6.964  0.3054  0.8746 -0.1397
  428MOL0     C57686   2.536   8.394   6.971 -0.6385 -0.2874 -1.7291
  428MOL0     C57687   2.506   8.513   6.881  0.0960 -0.6227  0.1943
  428MOL0     C57688   2.350   8.525   6.850  0.3571  0.3227 -0.5845
  428MOL0     C57689   2.335   8.602   6.708 -0.3001  0.2722  0.0174
  428MOL0    Cl57690   2.167   8.625   6.658 -0.0999  0.2606 -0.0548
  428MOL0     C57691   3.196   8.499   7.126 -0.7621  0.0310 -0.3133
  428MOL0     C57692   3.333   8.526   7.154  0.8044  0.4619  0.1878
  428MOL0     O57693   3.664   8.526   6.928 -0.1729 -0.5809  0.1146
  428MOL0     C57694   3.885   8.687   6.989 -1.1871  0.5341 -0.5011
  428MOL0     C57695   4.003   8.732   7.039  0.2783 -0.9806  0.7800
  428MOL0     N57696   4.564   8.488   7.086  0.2670  0.2402 -0.1756
  428MOL0     N57697   4.634   8.373   7.086 -0.4773  0.8020  0.1451
  428MOL0     C57698   5.825   8.602   7.143  0.3370 -0.1595 -0.0280
  428MOL0     C57699   5.946   8.654   7.126 -0.6799  0.2759  0.5136
  428MOL0     C57700   6.350   8.771   6.934  0.1582 -0.2650  0.2069
  428MOL0     C57701   6.375   8.848   7.058 -0.0347  0.6401  0.4384
  428MOL0     C57702   6.475   8.952   7.064 -0.9093 -0.2906  0.0153
  428MOL0     C57703   6.543   8.984   6.947  0.1807  0.9709 -0.7358
  428MOL0     O57704   6.648   9.079   6.943  0.0582  1.0886 -0.2344
  428MOL0     C57705   6.672   9.173   7.053 -0.1447  0.3983  0.0776
  428MOL0     C57706   6.744   9.298   7.009  0.1469  0.4459  1.1342
  428MOL0     C57707   6.893   9.261   6.982 -0.0544 -0.4713  0.0387
  428MOL0     C57708   6.981   9.381   6.955  0.5802  0.5768  0.3663
  428MOL0     C57709   7.121   9.348   6.942 -0.5365 -0.1465  0.0025
  428MOL0     C57710   7.238   9.321   6.926  0.3311  0.8543  0.1618
  428MOL0     C57711   6.504   8.919   6.829  0.3738 -0.1665  0.0751
  428MOL0     C57712   6.416   8.818   6.823  0.5475 -0.4259  0.3816
  428MOL0     H57713   6.084   8.439   6.907 -0.3875  0.1040 -0.2416
  428MOL0     H57714   5.847   8.333   6.932 -0.1414 -0.5015  0.9398
  428MOL0     H57715   5.571   8.310   6.951 -3.1264  3.3082  1.0066
  428MOL0     H57716   5.686   8.235   7.083 -0.1506 -0.2805  2.6329
  428MOL0     H57717   5.501   8.274   7.247  0.3646 -0.6114 -0.3576
  428MOL0     H57718   5.415   8.371   7.118 -3.3861 -0.8089  2.2340
  428MOL0     H57719   5.380   8.166   6.987 -1.3378 -1.3506 -0.3678
  428MOL0     H57720   5.483   8.069   7.087 -2.4266 -2.5150 -1.5251
  428MOL0     H57721   5.275   8.021   7.152  0.5135  0.0721 -2.2826
  428MOL0     H57722   5.318   8.148   7.284  0.3068  2.7098 -0.5900
  428MOL0     H57723   5.220   8.323   7.161  2.9057 -0.5474 -0.0304
  428MOL0     H57724   5.177   8.210   7.029  0.5238 -2.7761 -0.0410
  428MOL0     H57725   5.028   8.090   7.171 -1.7174 -0.1044  0.8922
  428MOL0     H57726   5.046   8.195   7.313 -1.6914  2.5302  0.4013
  428MOL0     H57727   4.989   8.398   7.143 -1.6931  0.1917  0.1215
  428MOL0     H57728   4.937   8.261   7.045  0.2655  1.7523 -0.5867
  428MOL0     H57729   4.838   8.298   7.337 -0.2042 -3.3793  0.8893
  428MOL0     H57730   4.782   8.178   7.221 -1.0223  0.3851  1.3578
  428MOL0     H57731   4.779   8.555   7.314  0.6002  1.1943 -0.5716
  428MOL0     H57732   4.607   8.748   7.307  2.2871 -2.4857  0.6714
  428MOL0     H57733   4.607   8.789   7.133 -5.6559  2.0714 -2.3122
  428MOL0     H57734   4.368   8.653   7.179 -0.8790  0.9338 -0.7177
  428MOL0     H57735   4.388   8.824   7.115 -4.4280  1.4255  2.3941
  428MOL0     H57736   4.383   8.915   7.300 -0.0904  0.2805  0.4721
  428MOL0     H57737   4.394   8.769   7.414 -0.8357  0.3378 -0.4197
  428MOL0     H57738   4.178   8.861   7.418 -1.1638 -1.7741  0.8141
  428MOL0     H57739   4.179   8.693   7.363 -0.6712  0.6399  1.8483
  428MOL0     H57740   3.964   8.716   7.374 -0.7470 -3.0646  0.4954
  428MOL0     H57741   3.666   8.522   7.316 -2.9797  0.1526  1.0662
  428MOL0     H57742   3.750   8.631   7.426  3.9842 -2.6403 -1.3165
  428MOL0     H57743   3.631   8.700   7.328 -0.1493 -0.9890  1.2251
  428MOL0     H57744   3.430   8.630   6.845 -0.6184 -1.6872 -1.7852
  428MOL0     H57745   3.207   8.578   6.798  1.0892 -0.9258 -0.2245
  428MOL0     H57746   2.970   8.283   6.891  1.1890 -4.9843  1.9956
  428MOL0     H57747   3.090   8.273   7.015 -2.3556 -4.0162  2.6021
  428MOL0     H57748   2.894   8.197   7.092  2.3324  0.2854  3.6673
  428MOL0     H57749   2.963   8.317   7.189  0.5694  1.2124 -0.6907
  428MOL0     H57750   2.784   8.491   7.096 -2.5214  0.1515 -0.4701
  428MOL0     H57751   2.710   8.353   7.168 -2.2984  3.6950 -0.1812
  428MOL0     H57752   2.738   8.383   6.872 -1.2835  0.7187 -1.0692
  428MOL0     H57753   2.686   8.241   6.946 -0.7662  0.8626  0.0654
  428MOL0     H57754   2.505   8.423   7.072 -0.5547 -0.7338 -1.5767
  428MOL0     H57755   2.476   8.310   6.936 -1.2664 -0.1783 -0.9397
  428MOL0     H57756   2.543   8.605   6.928  0.0878 -0.7247  0.4029
  428MOL0     H57757   2.571   8.496   6.795  1.0009 -2.6361  1.2138
  428MOL0     H57758   2.299   8.584   6.927 -1.9467 -0.1813 -1.6591
  428MOL0     H57759   2.303   8.428   6.834  4.9790 -2.4504  0.6507
  428MOL0     H57760   2.400   8.558   6.632  0.2555  1.6628 -0.3558
  428MOL0     H57761   2.366   8.707   6.711  0.6622  0.0307 -1.0068
  428MOL0     H57762   3.125   8.479   7.206 -2.2079  0.6637 -1.3957
  428MOL0     H57763   3.369   8.502   7.253  0.3893 -3.8185 -0.5090
  428MOL0     H57764   3.876   8.678   6.881  2.6567 -3.2753 -0.7860
  428MOL0     H57765   4.083   8.763   6.973 -0.3331 -0.8964  0.0559
  428MOL0     H57766   5.751   8.657   7.201  0.5664 -0.1369  0.2483
  428MOL0     H57767   5.972   8.749   7.173  0.4988  0.4361 -0.4182
  428MOL0     H57768   6.321   8.838   7.151  0.5840  0.7616  0.8125
  428MOL0     H57769   6.470   9.021   7.147  0.4505  1.3020 -1.1669
  428MOL0     H57770   6.572   9.211   7.079 -0.6433  0.5585 -1.9211
  428MOL0     H57771   6.718   9.118   7.135 -0.2646  0.5650  0.2581
  428MOL0     H57772   6.755   9.383   7.077  3.4711  1.0179  0.1141
  428MOL0     H57773   6.704   9.319   6.909 -0.4195 -3.5371  0.3580
  428MOL0     H57774   6.903   9.191   6.898  0.6360 -0.0828 -0.2122
  428MOL0     H57775   6.939   9.215   7.070  1.1171  0.8540  0.1415
  428MOL0     H57776   6.976   9.442   7.046  1.5165  0.3879  0.5528
  428MOL0     H57777   6.937   9.443   6.877 -1.8229 -0.1041  1.0835
  428MOL0     H57778   7.338   9.291   6.902  0.4195  2.4531 -1.6692
  428MOL0     H57779   6.560   8.950   6.742 -0.7156  0.4323 -0.4338
  428MOL0     H57780   6.391   8.761   6.734 -0.4006 -0.5142  0.6906
  429MOL0     O57781   8.956   7.067   7.136 -0.3848  0.6149 -0.0592
  429MOL0     C57782   8.918   7.182   7.158 -0.3570 -0.4993 -0.4564
  429MOL0     O57783   8.987   7.295   7.120 -0.1711 -0.2663  0.3057
  429MOL0     C57784   9.086   7.266   7.018 -0.6103 -0.6896 -0.3315
  429MOL0     C57785   9.218   7.309   7.040 -0.6413 -0.2203  0.0308
  429MOL0     C57786   9.314   7.314   6.935 -0.2813 -0.3845 -0.0943
  429MOL0     C57787   9.285   7.261   6.810  0.5827  0.8216 -0.4533
  429MOL0     O57788   9.379   7.231   6.710  0.6543  0.8296  0.2330
  429MOL0     C57789   9.520   7.247   6.738  0.7136 -0.3398 -0.0623
  429MOL0     C57790   9.594   7.123   6.807 -0.4569 -0.0846 -0.2055
  429MOL0     C57791   9.741   7.163   6.838 -0.1043  0.1687 -0.2807
  429MOL0     C57792   9.824   7.060   6.921 -0.5019 -0.2985 -0.2103
  429MOL0     C57793   9.975   7.077   6.924  0.1602 -0.0373 -0.4957
  429MOL0     C57794  10.041   6.962   7.002  0.7944 -0.2212 -0.2271
  429MOL0     C57795  10.185   6.977   7.037  0.3337  0.5910  0.6594
  429MOL0     C57796  10.262   7.059   6.928  0.7255 -0.5421  0.0617
  429MOL0     N57797  10.404   7.030   6.918  0.3433 -0.0453  0.4544
  429MOL0     C57798  10.456   6.912   6.867 -1.4959 -1.1886  0.1807
  429MOL0     C57799  10.587   6.938   6.858  0.3190  1.2878 -0.6163
  429MOL0     C57800  10.681   6.837   6.792  0.8690  0.3727 -0.6117
  429MOL0     C57801  10.729   6.723   6.889 -0.2847 -1.3473  0.5796
  429MOL0     C57802  10.849   6.644   6.825  0.2648 -0.1241  0.1414
  429MOL0     C57803  10.944   6.569   6.929 -0.1208  0.4970 -0.1477
  429MOL0     O57804  10.868   6.470   7.010 -0.4347 -0.2546 -0.1863
  429MOL0     C57805  10.957   6.390   7.078 -0.4288  0.6124  0.1082
  429MOL0     C57806  11.063   6.435   7.158 -0.2723  0.0381  0.2282
  429MOL0     C57807  11.150   6.342   7.218 -0.6852 -0.5056  0.0739
  429MOL0     C57808  11.256   6.383   7.313 -0.6056  0.0637 -0.7505
  429MOL0     C57809  11.125   6.202   7.204  0.5825 -0.2683 -0.7660
  429MOL0     C57810  11.204   6.082   7.258  0.3868 -0.7072  0.2866
  429MOL0     O57811  11.171   5.949   7.225  0.0989  0.6840 -0.9103
  429MOL0     C57812  11.261   5.857   7.272  0.4200 -0.4893 -0.2102
  429MOL0     C57813  11.389   5.844   7.215  0.5883 -0.0512 -0.6022
  429MOL0     C57814  11.473   5.745   7.271  0.8398 -0.5859  0.5508
  429MOL0     C57815  11.432   5.664   7.376 -0.0130 -0.6589  1.1578
  429MOL0     O57816  11.514   5.564   7.423  0.7779  0.9513 -0.3321
  429MOL0     C57817  11.567   5.472   7.321 -0.1345 -0.2638  0.3457
  429MOL0     C57818  11.578   5.343   7.388 -0.0561 -0.3637 -0.2654
  429MOL0     C57819  11.605   5.233   7.296  1.1250 -0.5705 -0.2540
  429MOL0     C57820  11.733   5.229   7.229 -0.2966  0.4867 -0.3117
  429MOL0     C57821  11.734   5.103   7.136  0.0293  0.3434 -0.7227
  429MOL0     C57822  11.877   5.092   7.082  0.2609 -0.1335  0.9951
  429MOL0     C57823  11.993   5.057   7.175  0.6958 -0.2482  0.7034
  429MOL0     C57824  12.113   5.028   7.083  0.0875  0.7616 -0.8197
  429MOL0    Cl57825  12.274   5.035   7.167 -0.0292 -0.0050 -0.0623
  429MOL0     C57826  11.313   5.692   7.436  0.7596  0.0605  1.1329
  429MOL0     C57827  11.221   5.786   7.388  0.8404  0.6635 -0.1947
  429MOL0     O57828  11.296   6.107   7.331  0.2909 -0.2321 -0.1857
  429MOL0     C57829  11.016   6.172   7.119 -0.3282  0.4131  0.6029
  429MOL0     C57830  10.926   6.266   7.068 -0.2420  0.1996 -0.1435
  429MOL0     N57831  10.607   7.068   6.894  0.2675 -0.0354  0.9942
  429MOL0     N57832  10.502   7.125   6.929  0.0458  1.0746 -0.5109
  429MOL0     C57833   9.154   7.212   6.781  0.1697 -0.0271  0.1434
  429MOL0     C57834   9.058   7.217   6.886 -0.0079 -0.1141 -0.3168
  429MOL0     C57835   8.798   7.196   7.246 -0.0372  0.6481 -0.4350
  429MOL0     C57836   8.712   7.084   7.262 -0.1310  0.8092  0.6473
  429MOL0     C57837   8.596   7.107   7.333  0.7578  0.1756  0.4841
  429MOL0     C57838   8.558   7.227   7.395 -0.8757 -0.1252  0.2328
  429MOL0     O57839   8.446   7.251   7.460  0.8958  0.0763 -0.7974
  429MOL0     C57840   8.382   7.138   7.530  0.4589  0.1282 -0.3546
  429MOL0     C57841   8.474   7.106   7.648  0.0779  0.0439  0.1470
  429MOL0     C57842   8.498   7.224   7.741  0.3046  0.5226  0.4246
  429MOL0     C57843   8.385   7.262   7.843  0.0838  0.9252 -0.4781
  429MOL0     C57844   8.253   7.310   7.786 -0.1008  0.6860  0.5270
  429MOL0     C57845   8.150   7.366   7.754 -0.5239  0.6248  0.9206
  429MOL0     C57846   8.643   7.337   7.384  0.0433  1.5627 -0.2043
  429MOL0     C57847   8.763   7.325   7.305  0.2219 -0.2493  0.1481
  429MOL0     H57848   9.258   7.333   7.138  0.5092 -3.8803  0.6223
  429MOL0     H57849   9.409   7.360   6.958  0.8760 -2.8474  0.3915
  429MOL0     H57850   9.558   7.247   6.636  2.2475 -4.0859  0.3238
  429MOL0     H57851   9.535   7.343   6.788  1.4364 -0.7410  0.5257
  429MOL0     H57852   9.548   7.098   6.903 -1.8877  1.6682 -0.3948
  429MOL0     H57853   9.587   7.029   6.752  0.8791  1.0921 -2.5273
  429MOL0     H57854   9.785   7.187   6.741 -0.4626 -1.5032 -0.8842
  429MOL0     H57855   9.729   7.250   6.904 -0.6561 -0.6481  0.7354
  429MOL0     H57856   9.790   7.054   7.024 -0.6574  0.2657 -0.2271
  429MOL0     H57857   9.813   6.963   6.871 -2.5402  0.2906 -0.9913
  429MOL0     H57858  10.018   7.069   6.824  2.0324  0.4680  0.2252
  429MOL0     H57859   9.999   7.175   6.965  0.2681 -0.9471  1.7381
  429MOL0     H57860   9.988   6.948   7.097  0.4458 -2.5510 -0.7015
  429MOL0     H57861  10.024   6.868   6.949 -0.8755  0.4589 -0.9712
  429MOL0     H57862  10.185   7.026   7.135 -1.5425 -3.2516  2.8185
  429MOL0     H57863  10.226   6.876   7.041 -1.9323 -0.3430  1.8812
  429MOL0     H57864  10.250   7.167   6.942 -2.5329 -0.6712 -0.9366
  429MOL0     H57865  10.223   7.044   6.827  1.5482  0.8428 -0.4923
  429MOL0     H57866  10.393   6.828   6.838  0.3113 -1.2843 -4.3443
  429MOL0     H57867  10.619   6.780   6.723  1.1164 -0.6405 -0.0235
  429MOL0     H57868  10.767   6.891   6.752  0.9573 -0.1364 -1.1288
  429MOL0     H57869  10.643   6.661   6.915 -2.8392  2.2754  1.6034
  429MOL0     H57870  10.750   6.775   6.983 -2.8356 -0.7688  0.8966
  429MOL0     H57871  10.907   6.720   6.772 -1.9724  2.9537  1.7878
  429MOL0     H57872  10.817   6.566   6.756  0.9756 -0.5206  0.2430
  429MOL0     H57873  10.985   6.642   7.000  2.2343 -0.3072 -0.5950
  429MOL0     H57874  11.035   6.531   6.883 -0.1153  0.2468  0.0690
  429MOL0     H57875  11.083   6.537   7.188 -0.3929  0.2624 -0.4293
  429MOL0     H57876  11.361   6.385   7.284 -0.3366 -1.7505 -0.0188
  429MOL0     H57877  11.228   6.485   7.344  0.9932  0.2435  0.1736
  429MOL0     H57878  11.260   6.325   7.406  1.5235  1.0104 -0.1944
  429MOL0     H57879  11.412   5.884   7.117  0.6440 -1.2024 -1.0702
  429MOL0     H57880  11.573   5.736   7.230  1.4294 -1.5505  2.1069
  429MOL0     H57881  11.508   5.470   7.229  0.1704 -0.4652  0.1546
  429MOL0     H57882  11.667   5.500   7.289 -0.7211  0.7823 -0.6395
  429MOL0     H57883  11.668   5.361   7.447  0.3099 -0.2266 -0.8556
  429MOL0     H57884  11.481   5.333   7.439  0.4085  0.9278  0.9259
  429MOL0     H57885  11.522   5.243   7.225  1.6893  0.5929 -0.7618
  429MOL0     H57886  11.597   5.139   7.353  1.8282 -0.6387 -0.2671
  429MOL0     H57887  11.742   5.317   7.164 -2.5979  0.3563 -0.8956
  429MOL0     H57888  11.814   5.234   7.303  0.1961 -1.3272 -0.6843
  429MOL0     H57889  11.650   5.105   7.066 -0.2588  0.2040 -0.3805
  429MOL0     H57890  11.727   5.018   7.204 -2.0974  0.7262 -0.3971
  429MOL0     H57891  11.859   5.015   7.005 -1.7323  0.4373  0.8328
  429MOL0     H57892  11.896   5.188   7.035 -2.4150  1.4640  2.9011
  429MOL0     H57893  11.977   4.963   7.230  0.4659 -0.6998 -0.1153
  429MOL0     H57894  12.015   5.138   7.245 -0.1802 -0.2239  0.9549
  429MOL0     H57895  12.114   5.096   6.998 -0.2059 -0.8518 -2.1791
  429MOL0     H57896  12.094   4.926   7.048  1.4944  0.3607 -0.4549
  429MOL0     H57897  11.296   5.645   7.533 -1.0791  2.8318  2.3002
  429MOL0     H57898  11.127   5.796   7.442 -0.0901 -0.5905 -1.5191
  429MOL0     H57899  11.010   6.069   7.086  0.1441  0.2539  1.0107
  429MOL0     H57900  10.828   6.250   7.023 -1.6523  1.7333  2.1915
  429MOL0     H57901   9.132   7.154   6.692 -1.8995  0.2076  0.4514
  429MOL0     H57902   8.959   7.180   6.863  0.4525 -0.1280 -2.4598
  429MOL0     H57903   8.736   6.987   7.220 -0.2018  1.6797 -1.5724
  429MOL0     H57904   8.524   7.027   7.353  0.0066  1.1546  1.9090
  429MOL0     H57905   8.290   7.178   7.574  1.3714  1.0031  0.8051
  429MOL0     H57906   8.353   7.054   7.466 -2.3092 -0.1225  1.0293
  429MOL0     H57907   8.567   7.067   7.607 -0.6847 -0.5005 -1.1566
  429MOL0     H57908   8.439   7.022   7.708 -0.0714 -0.1532 -0.2125
  429MOL0     H57909   8.519   7.311   7.678  0.1998 -0.6742 -1.3568
  429MOL0     H57910   8.592   7.206   7.794  3.1686  0.7018 -3.9926
  429MOL0     H57911   8.427   7.344   7.902  1.3206  0.6833 -0.9911
  429MOL0     H57912   8.383   7.181   7.916  0.0188  1.6005  0.2893
  429MOL0     H57913   8.052   7.401   7.728 -0.6659  0.9406  1.8431
  429MOL0     H57914   8.621   7.430   7.437 -1.1646 -0.8118  3.9496
  429MOL0     H57915   8.839   7.401   7.290 -1.4623  1.9175  1.9274
  430MOL0     O57916   3.694  11.020  11.328 -0.6977 -0.7030 -0.2697
  430MOL0     C57917   3.648  11.136  11.298 -0.2753  0.3115 -0.3631
  430MOL0     O57918   3.725  11.239  11.242  0.1858  0.5105 -0.6142
  430MOL0     C57919   3.862  11.220  11.222  0.2074 -0.2248  0.5088
  430MOL0     C57920   3.954  11.220  11.327  0.6880  0.2975 -0.2153
  430MOL0     C57921   4.093  11.205  11.310  0.7694  0.3600  0.3658
  430MOL0     C57922   4.145  11.172  11.181  0.4241  1.5784 -0.1179
  430MOL0     O57923   4.274  11.140  11.164 -0.6660  0.1766 -0.3295
  430MOL0     C57924   4.347  11.260  11.128 -0.2074  0.6408 -0.6798
  430MOL0     C57925   4.493  11.228  11.104 -0.4675 -0.9969  1.2177
  430MOL0     C57926   4.561  11.206  11.234 -0.2874 -0.4417  0.0574
  430MOL0     C57927   4.706  11.160  11.226  0.4343 -0.3719  0.2415
  430MOL0     C57928   4.799  11.246  11.309  0.3118  0.0744  0.8102
  430MOL0     C57929   4.948  11.228  11.284  0.0328  0.8296  0.2540
  430MOL0     C57930   5.036  11.308  11.380 -0.6473 -0.3447 -0.3981
  430MOL0     C57931   5.191  11.282  11.371 -0.2400 -0.7937 -0.3154
  430MOL0     N57932   5.222  11.138  11.389  0.5798 -0.4398 -0.1101
  430MOL0     C57933   5.293  11.063  11.298  0.1020 -0.5021  0.1476
  430MOL0     C57934   5.290  10.936  11.348  0.0248  0.5029  0.2223
  430MOL0     C57935   5.347  10.807  11.289  0.3469 -0.8348 -0.1676
  430MOL0     C57936   5.301  10.766  11.143  0.4306 -0.3646  0.1518
  430MOL0     C57937   5.152  10.748  11.138  0.3818  0.5247  0.1961
  430MOL0     C57938   5.114  10.720  10.988  0.8779 -0.0523 -0.6426
  430MOL0     O57939   4.982  10.674  10.993 -0.5736  0.0534  0.0476
  430MOL0     C57940   4.946  10.603  10.875  0.1736 -0.3024  0.2536
  430MOL0     C57941   4.916  10.464  10.891 -0.1830 -0.9662  0.8394
  430MOL0     C57942   4.841  10.406  10.788  0.6122 -0.2667 -0.8734
  430MOL0     C57943   4.796  10.257  10.823  0.1333  0.1896 -0.4936
  430MOL0     C57944   4.794  10.478  10.671 -0.5260  0.5570  0.1424
  430MOL0     C57945   4.704  10.437  10.567 -0.2948  0.3520  0.3368
  430MOL0     O57946   4.646  10.530  10.482  0.0226  0.2955 -0.0996
  430MOL0     C57947   4.566  10.484  10.377 -0.1544 -0.4691  0.4709
  430MOL0     C57948   4.620  10.401  10.277  0.2749 -0.7219 -0.2382
  430MOL0     C57949   4.542  10.335  10.175  0.0705  0.5717 -0.4001
  430MOL0     C57950   4.402  10.361  10.185 -0.7977 -0.3153  0.2876
  430MOL0     O57951   4.318  10.322  10.088  0.1142  0.7271 -0.1127
  430MOL0     C57952   4.358  10.227   9.994  0.2284  0.2811  0.3420
  430MOL0     C57953   4.236  10.142   9.943 -0.8678  0.2212 -0.4497
  430MOL0     C57954   4.144  10.222   9.855  0.9370  0.0839  0.1869
  430MOL0     C57955   4.016  10.149   9.813 -0.7133  0.1092 -0.4603
  430MOL0     C57956   3.953  10.227   9.699  0.6181  0.7695  0.6232
  430MOL0     C57957   3.806  10.205   9.675 -0.3927  0.1604 -0.3188
  430MOL0     C57958   3.756  10.294   9.572  0.1690 -0.6704  0.2438
  430MOL0     C57959   3.615  10.282   9.516 -0.2295 -0.0231 -0.2670
  430MOL0    Cl57960   3.477  10.311   9.640 -0.2130 -0.0779 -0.0184
  430MOL0     C57961   4.349  10.450  10.279  0.1966 -0.9104 -0.4087
  430MOL0     C57962   4.430  10.510  10.371 -0.0394 -0.0513  0.6910
  430MOL0     O57963   4.673  10.319  10.565 -0.1247  0.3808 -0.2610
  430MOL0     C57964   4.840  10.610  10.655 -0.6554 -0.7902  0.2824
  430MOL0     C57965   4.917  10.670  10.755 -0.0167 -0.2858 -1.0284
  430MOL0     N57966   5.224  10.940  11.468 -0.2017 -0.9642 -0.5238
  430MOL0     N57967   5.195  11.060  11.500  0.2032  0.0035  0.1850
  430MOL0     C57968   4.054  11.159  11.076 -0.2069  0.2819 -1.2878
  430MOL0     C57969   3.916  11.184  11.101  0.4286 -0.7720  0.6987
  430MOL0     C57970   3.506  11.161  11.326 -0.6495 -0.3120 -1.3358
  430MOL0     C57971   3.436  11.065  11.394  0.5866  0.3651 -0.2242
  430MOL0     C57972   3.302  11.093  11.424  0.4547 -0.2560 -0.3303
  430MOL0     C57973   3.237  11.219  11.395  0.2569  0.1721  0.0340
  430MOL0     O57974   3.109  11.236  11.430 -0.1040  0.8527 -0.1461
  430MOL0     C57975   3.042  11.362  11.424 -0.4740 -0.0199 -0.5190
  430MOL0     C57976   2.895  11.333  11.453 -0.2738 -0.5147  0.0802
  430MOL0     C57977   2.827  11.276  11.329  0.1192 -0.3379  0.5806
  430MOL0     C57978   2.678  11.248  11.360 -0.4636  0.4492  1.1682
  430MOL0     C57979   2.670  11.135  11.451  1.3326  0.3816  0.6308
  430MOL0     C57980   2.647  11.044  11.532  0.1735  0.2950  0.2614
  430MOL0     C57981   3.315  11.318  11.326  0.7358 -0.6754 -0.4820
  430MOL0     C57982   3.441  11.284  11.287 -0.0612 -0.5134 -0.3244
  430MOL0     H57983   3.931  11.264  11.423 -0.7003 -0.7235 -0.0370
  430MOL0     H57984   4.151  11.216  11.400  4.1834 -0.9740 -1.4947
  430MOL0     H57985   4.302  11.308  11.041 -4.9888  0.1751  1.2279
  430MOL0     H57986   4.340  11.335  11.208 -1.6880 -0.5531  0.3803
  430MOL0     H57987   4.513  11.135  11.050 -1.8288 -0.9235  0.5459
  430MOL0     H57988   4.528  11.313  11.046 -1.6994 -2.0592 -1.2353
  430MOL0     H57989   4.551  11.301  11.288  3.0193  1.0476 -1.6594
  430MOL0     H57990   4.504  11.128  11.285 -1.3445 -0.0325 -0.4674
  430MOL0     H57991   4.718  11.053  11.246 -0.9479 -0.6498 -0.3381
  430MOL0     H57992   4.746  11.177  11.125  0.9009 -0.7890  0.3535
  430MOL0     H57993   4.774  11.349  11.283  1.9066 -0.1707 -2.0844
  430MOL0     H57994   4.778  11.218  11.413  0.3659  0.3578  0.8963
  430MOL0     H57995   4.973  11.122  11.294 -0.3908  0.7413  0.3660
  430MOL0     H57996   4.969  11.249  11.179 -3.9006  0.9477 -0.6395
  430MOL0     H57997   5.022  11.415  11.364  0.1935 -0.4770 -2.2087
  430MOL0     H57998   4.993  11.279  11.477 -1.4291 -0.5008 -0.7866
  430MOL0     H57999   5.244  11.344  11.444 -0.1856 -0.3938 -0.6938
  430MOL0     H58000   5.234  11.324  11.280 -1.1595  2.0605  0.4456
  430MOL0     H58001   5.341  11.098  11.207 -3.1052  2.1297 -0.7276
  430MOL0     H58002   5.456  10.819  11.283  0.0060  3.0595 -1.4019
  430MOL0     H58003   5.316  10.726  11.355  2.6880 -0.7858  1.0959
  430MOL0     H58004   5.345  10.674  11.105  2.4789 -0.2303  2.0125
  430MOL0     H58005   5.330  10.849  11.077  1.8072 -2.7894 -2.5213
  430MOL0     H58006   5.103  10.837  11.177 -2.3253 -0.9160  0.3456
  430MOL0     H58007   5.126  10.662  11.201  0.7412  1.7153  2.0396
  430MOL0     H58008   5.186  10.647  10.950  2.1542  2.4118 -3.3641
  430MOL0     H58009   5.123  10.810  10.926  0.8004  1.1303  1.0082
  430MOL0     H58010   4.968  10.418  10.974  2.3958  1.2188  0.5865
  430MOL0     H58011   4.840  10.223  10.916  2.4880  1.4821 -1.0412
  430MOL0     H58012   4.687  10.260  10.822 -0.0290  1.3585  3.4356
  430MOL0     H58013   4.827  10.195  10.738  0.5529 -0.6989  0.2958
  430MOL0     H58014   4.727  10.385  10.288  0.9036  2.0721 -1.3327
  430MOL0     H58015   4.580  10.263  10.103 -2.6420 -3.0093  1.4201
  430MOL0     H58016   4.403  10.269   9.904 -0.8590 -3.2213 -2.0522
  430MOL0     H58017   4.435  10.154  10.021  0.3485 -0.8655 -2.7556
  430MOL0     H58018   4.273  10.056   9.885 -0.6485  1.3796 -2.0836
  430MOL0     H58019   4.195  10.093  10.032  2.1527  0.5867  1.2848
  430MOL0     H58020   4.206  10.258   9.772  1.7045 -1.1751  0.1811
  430MOL0     H58021   4.113  10.311   9.910  0.2535 -0.1689  0.2070
  430MOL0     H58022   4.033  10.046   9.780 -0.8120 -0.1702  0.3297
  430MOL0     H58023   3.942  10.135   9.892  0.9758 -2.3492  0.8464
  430MOL0     H58024   4.003  10.206   9.603  0.4208 -2.4936  1.1216
  430MOL0     H58025   3.960  10.331   9.731  0.9401  0.1444  2.7250
  430MOL0     H58026   3.812  10.099   9.650  1.9689  0.3700 -0.9090
  430MOL0     H58027   3.753  10.214   9.770  0.9740  1.3372  0.3755
  430MOL0     H58028   3.834  10.287   9.496  2.1119  1.7784  1.8241
  430MOL0     H58029   3.767  10.401   9.594 -0.7105 -0.1741 -1.5144
  430MOL0     H58030   3.624  10.176   9.488  2.5611  0.1058 -0.1888
  430MOL0     H58031   3.599  10.346   9.429 -0.4685  2.0405  1.2277
  430MOL0     H58032   4.245  10.478  10.275  0.8325  1.5957 -1.1227
  430MOL0     H58033   4.393  10.571  10.453  1.2733  2.2822 -0.3562
  430MOL0     H58034   4.821  10.669  10.566  3.0965 -2.4289 -1.8226
  430MOL0     H58035   4.957  10.770  10.744  4.0570 -1.8455 -2.2269
  430MOL0     H58036   4.093  11.110  10.987 -0.8952 -0.3988 -1.2225
  430MOL0     H58037   3.838  11.166  11.028 -0.0311 -1.5501  1.3633
  430MOL0     H58038   3.480  10.969  11.421 -0.0627 -1.1884 -4.0047
  430MOL0     H58039   3.244  11.013  11.469 -1.2804 -1.5184 -4.3967
  430MOL0     H58040   3.089  11.441  11.483  2.9135 -0.9925 -1.7195
  430MOL0     H58041   3.041  11.399  11.321 -0.2148  2.2857  0.2587
  430MOL0     H58042   2.846  11.429  11.474  1.5123  0.2215  1.2207
  430MOL0     H58043   2.885  11.260  11.534 -2.8615  0.9178  1.1553
  430MOL0     H58044   2.879  11.187  11.295 -0.4489  0.8089 -3.9003
  430MOL0     H58045   2.825  11.340  11.240  0.9492 -1.0741  0.0284
  430MOL0     H58046   2.637  11.224  11.261  2.1502 -3.5024  0.8164
  430MOL0     H58047   2.631  11.335  11.407  0.2542  2.4062 -1.4565
  430MOL0     H58048   2.634  10.958  11.594  0.9233  0.1990  0.2969
  430MOL0     H58049   3.266  11.410  11.295 -0.3876 -1.8371 -2.3627
  430MOL0     H58050   3.504  11.343  11.221  1.0856 -3.0684 -1.6582
  431MOL0     O58051  10.034   0.946   2.336  0.3883 -0.0843 -0.0392
  431MOL0     C58052  10.069   0.864   2.419 -0.6064  0.0173  0.0821
  431MOL0     O58053   9.995   0.811   2.527  0.0112 -0.6821 -0.1605
  431MOL0     C58054   9.869   0.871   2.545  0.5812  0.5833 -0.5264
  431MOL0     C58055   9.838   1.009   2.534  0.4072 -0.0747  0.3068
  431MOL0     C58056   9.704   1.060   2.542  0.9839  0.6095  0.7355
  431MOL0     C58057   9.603   0.966   2.577 -1.1276  0.5261 -0.5185
  431MOL0     O58058   9.472   1.006   2.602  0.7656 -0.0168  0.6517
  431MOL0     C58059   9.409   1.087   2.500  0.0555  0.2175  0.6765
  431MOL0     C58060   9.390   1.231   2.548  0.2827  1.3335  1.1046
  431MOL0     C58061   9.251   1.252   2.601  0.0913  0.0143  0.3841
  431MOL0     C58062   9.225   1.184   2.740  0.0791 -0.6968  0.0337
  431MOL0     C58063   9.113   1.237   2.817 -0.6078  0.3713 -0.4434
  431MOL0     C58064   8.971   1.231   2.749 -0.7274 -0.4212 -0.6223
  431MOL0     C58065   8.865   1.285   2.842 -0.7026 -0.3283 -1.3546
  431MOL0     C58066   8.732   1.231   2.788  0.0835 -0.4070  1.0509
  431MOL0     N58067   8.634   1.242   2.888  0.5622  0.1128  0.5104
  431MOL0     C58068   8.519   1.318   2.881  0.1335 -0.0502  1.3720
  431MOL0     C58069   8.449   1.273   2.987 -0.1437  0.5927  0.5630
  431MOL0     C58070   8.303   1.316   3.015 -0.5730 -1.0259 -0.0314
  431MOL0     C58071   8.294   1.372   3.161  0.1884 -0.4998  0.3219
  431MOL0     C58072   8.145   1.420   3.185 -1.3843 -0.3021 -0.1986
  431MOL0     C58073   8.145   1.508   3.309  0.8605 -0.3837 -0.7321
  431MOL0     O58074   8.020   1.579   3.301 -0.0637  0.7922  0.3585
  431MOL0     C58075   7.998   1.658   3.410 -0.5320  0.7049  0.2084
  431MOL0     C58076   8.084   1.713   3.502 -0.0303 -0.4092 -0.3909
  431MOL0     C58077   8.039   1.791   3.605 -0.8998 -0.2217 -0.1579
  431MOL0     C58078   8.144   1.848   3.697 -0.5853  0.5332  0.5346
  431MOL0     C58079   7.902   1.815   3.626  0.5145 -0.0901  0.0095
  431MOL0     C58080   7.834   1.891   3.741 -1.0201 -1.1535 -1.5465
  431MOL0     O58081   7.718   1.961   3.717  0.4028  0.6790 -0.2615
  431MOL0     C58082   7.646   2.030   3.810 -0.3015  0.1227 -0.2410
  431MOL0     C58083   7.598   1.966   3.923  0.2845 -0.1615  0.8344
  431MOL0     C58084   7.527   2.041   4.021 -0.3353 -0.7984  0.2488
  431MOL0     C58085   7.500   2.175   3.996  0.5305 -0.5624  0.2363
  431MOL0     O58086   7.408   2.232   4.083  0.1630 -0.2850 -0.1283
  431MOL0     C58087   7.403   2.378   4.106  0.3759  0.1939 -0.4803
  431MOL0     C58088   7.365   2.408   4.249 -0.4235 -0.5666 -0.0547
  431MOL0     C58089   7.225   2.370   4.288 -0.0196 -0.0827  0.3544
  431MOL0     C58090   7.164   2.439   4.412 -0.0207 -0.2139 -0.5813
  431MOL0     C58091   7.027   2.378   4.458 -0.3605  0.7500 -0.6484
  431MOL0     C58092   6.914   2.371   4.352 -0.6436  0.0209  1.1584
  431MOL0     C58093   6.788   2.305   4.383 -0.2547 -0.5177 -0.7331
  431MOL0     C58094   6.711   2.405   4.467  0.5538  0.2275 -0.2912
  431MOL0    Cl58095   6.549   2.342   4.503  0.1316 -0.9465  0.4514
  431MOL0     C58096   7.550   2.240   3.880 -0.1057 -0.3613  0.2897
  431MOL0     C58097   7.623   2.171   3.799  0.4809  0.4181  0.6782
  431MOL0     O58098   7.891   1.893   3.853  0.0168  0.2990  0.3233
  431MOL0     C58099   7.810   1.752   3.535 -0.0413  0.6012 -0.1067
  431MOL0     C58100   7.853   1.673   3.439  0.3493  0.7619 -0.2443
  431MOL0     N58101   8.524   1.176   3.062  0.0999  0.0775 -0.3331
  431MOL0     N58102   8.636   1.183   3.011 -0.0730 -0.3659 -0.1263
  431MOL0     C58103   9.632   0.830   2.600 -0.0168 -0.2280  0.3213
  431MOL0     C58104   9.760   0.784   2.581  0.1318  0.3559 -0.1567
  431MOL0     C58105  10.202   0.794   2.396  0.2121  0.1112 -0.4578
  431MOL0     C58106  10.221   0.664   2.447  0.9064  0.7083 -0.3397
  431MOL0     C58107  10.341   0.602   2.423  0.2286 -0.2467 -0.0148
  431MOL0     C58108  10.446   0.658   2.349  0.3051  0.6584 -0.4416
  431MOL0     O58109  10.552   0.590   2.297 -0.2671 -0.5530 -0.2410
  431MOL0     C58110  10.579   0.452   2.328  0.9092  0.5254  0.7779
  431MOL0     C58111  10.480   0.352   2.246 -2.0002  0.0128 -0.4530
  431MOL0     C58112  10.505   0.203   2.277 -0.2697 -0.2777 -0.5771
  431MOL0     C58113  10.628   0.152   2.194 -1.2121 -0.4210 -0.0743
  431MOL0     C58114  10.753   0.186   2.262 -0.2613  0.7052 -0.3464
  431MOL0     C58115  10.845   0.218   2.329 -0.1998  0.9550 -0.1102
  431MOL0     C58116  10.433   0.789   2.320 -0.9940  0.5561  0.4277
  431MOL0     C58117  10.317   0.861   2.337  0.2290 -0.5293  0.0806
  431MOL0     H58118   9.915   1.085   2.526  0.2927  0.0389  0.2851
  431MOL0     H58119   9.691   1.167   2.532  1.8292  0.8742  2.1924
  431MOL0     H58120   9.466   1.082   2.406  1.5728  0.3899  1.5612
  431MOL0     H58121   9.313   1.040   2.475  0.5993 -2.0962  2.6191
  431MOL0     H58122   9.470   1.248   2.621  1.0069  2.7991  0.0316
  431MOL0     H58123   9.415   1.295   2.463  1.1300  1.3756  1.3763
  431MOL0     H58124   9.234   1.360   2.598  0.1472 -0.0013 -0.9918
  431MOL0     H58125   9.182   1.209   2.529 -1.5492  0.3405  1.7001
  431MOL0     H58126   9.206   1.080   2.715 -0.2509 -0.2628 -1.6696
  431MOL0     H58127   9.314   1.201   2.801  0.2772  4.4659 -1.2167
  431MOL0     H58128   9.111   1.187   2.914  0.0704  2.8760  0.9712
  431MOL0     H58129   9.136   1.343   2.835 -1.0664  0.4855 -0.5304
  431MOL0     H58130   8.978   1.289   2.656  3.1441  0.2505 -0.1051
  431MOL0     H58131   8.948   1.127   2.725  1.3088 -1.4027  1.3610
  431MOL0     H58132   8.892   1.248   2.942 -0.7384 -1.4431 -1.7448
  431MOL0     H58133   8.858   1.394   2.850 -0.4808 -0.3439 -0.9023
  431MOL0     H58134   8.742   1.131   2.746 -0.8069 -0.6084  1.2952
  431MOL0     H58135   8.702   1.300   2.710 -0.0262 -1.2116  0.3698
  431MOL0     H58136   8.483   1.397   2.815 -0.6587 -0.2277  1.5828
  431MOL0     H58137   8.282   1.402   2.951 -0.6367  0.1952  1.5718
  431MOL0     H58138   8.242   1.228   2.990 -1.5273 -0.3623 -0.0573
  431MOL0     H58139   8.370   1.450   3.172 -0.7964  0.6454 -0.6811
  431MOL0     H58140   8.325   1.290   3.226  0.4247 -2.2489 -1.8673
  431MOL0     H58141   8.070   1.340   3.186  2.5080 -4.3201 -0.0645
  431MOL0     H58142   8.116   1.489   3.105 -1.1234 -0.0756 -0.1006
  431MOL0     H58143   8.232   1.573   3.314 -1.5239  3.1038  4.3632
  431MOL0     H58144   8.160   1.443   3.397 -1.0753  0.5436  0.3617
  431MOL0     H58145   8.191   1.695   3.503 -0.3272 -2.3911 -1.0735
  431MOL0     H58146   8.244   1.825   3.659 -1.9052 -0.1639 -2.8489
  431MOL0     H58147   8.127   1.956   3.702 -0.1150  0.5916  0.8592
  431MOL0     H58148   8.133   1.804   3.797 -2.0947  0.3793  0.3291
  431MOL0     H58149   7.611   1.859   3.940 -2.0116 -0.2015  2.9586
  431MOL0     H58150   7.486   1.993   4.110 -0.2949 -0.1787  0.6133
  431MOL0     H58151   7.502   2.419   4.083  1.7094 -2.3464  0.3099
  431MOL0     H58152   7.335   2.433   4.041  1.5786 -1.0111 -2.8841
  431MOL0     H58153   7.426   2.346   4.316 -3.1871 -1.9525  1.3595
  431MOL0     H58154   7.379   2.514   4.270 -1.2741 -0.7765  1.7731
  431MOL0     H58155   7.219   2.265   4.318 -0.3201  0.6413  3.1051
  431MOL0     H58156   7.153   2.393   4.209 -0.0265  0.3566  0.4836
  431MOL0     H58157   7.232   2.449   4.497 -1.0204 -0.7160  0.3079
  431MOL0     H58158   7.140   2.537   4.370  0.7461  0.7725  1.1653
  431MOL0     H58159   6.990   2.440   4.540 -2.3286 -1.3683  0.1909
  431MOL0     H58160   7.044   2.276   4.493  0.0055  1.5070  1.5586
  431MOL0     H58161   6.897   2.471   4.310 -1.8260  0.4362  2.5488
  431MOL0     H58162   6.960   2.313   4.271 -1.0019  2.2556 -0.7553
  431MOL0     H58163   6.805   2.213   4.439 -2.7238 -1.6458 -1.6821
  431MOL0     H58164   6.737   2.272   4.293 -1.3488 -3.0709  0.7101
  431MOL0     H58165   6.700   2.498   4.410 -2.3557  0.4046  0.3766
  431MOL0     H58166   6.769   2.421   4.558  0.8282 -1.1303 -0.2100
  431MOL0     H58167   7.529   2.344   3.857  2.9991 -0.1896 -2.4287
  431MOL0     H58168   7.673   2.225   3.719  2.5669 -0.8807  1.0212
  431MOL0     H58169   7.704   1.773   3.541 -0.1639  1.4931 -3.7148
  431MOL0     H58170   7.775   1.633   3.375 -1.1039  0.2036  1.7845
  431MOL0     H58171   9.564   0.749   2.626  2.7536 -3.2310 -1.0681
  431MOL0     H58172   9.787   0.680   2.595  1.1775  0.4086 -1.5445
  431MOL0     H58173  10.146   0.601   2.494  3.4542 -3.2898 -1.1239
  431MOL0     H58174  10.360   0.499   2.453  0.4137 -0.9768 -2.4219
  431MOL0     H58175  10.684   0.441   2.299  1.8248 -2.5984  4.4217
  431MOL0     H58176  10.573   0.439   2.436  2.9132  0.7196  0.9483
  431MOL0     H58177  10.483   0.373   2.138  2.4481 -3.0907 -1.2217
  431MOL0     H58178  10.384   0.378   2.291 -2.1627 -0.0230 -0.7717
  431MOL0     H58179  10.431   0.130   2.242 -0.3478 -0.3919 -0.1763
  431MOL0     H58180  10.505   0.178   2.383  2.5293  2.4688  0.2328
  431MOL0     H58181  10.631   0.206   2.099 -0.3357  0.9437  0.6940
  431MOL0     H58182  10.618   0.046   2.172 -0.3998 -0.5116 -0.0481
  431MOL0     H58183  10.931   0.220   2.394  0.6678 -1.8903 -1.0187
  431MOL0     H58184  10.497   0.843   2.250 -2.5413  1.1059 -0.6122
  431MOL0     H58185  10.304   0.953   2.281  1.6734  1.3834  2.6864
  432MOL0     O58186  10.658   8.586   2.173 -0.5385 -0.3927 -0.9140
  432MOL0     C58187  10.598   8.544   2.275 -0.1626 -0.3591 -0.2214
  432MOL0     O58188  10.641   8.550   2.408  0.0798 -0.9818 -0.1091
  432MOL0     C58189  10.763   8.619   2.434 -0.4137  0.0639 -0.1987
  432MOL0     C58190  10.760   8.734   2.509 -0.2306 -0.9715 -0.3152
  432MOL0     C58191  10.877   8.791   2.561  0.3156  0.1114  0.0035
  432MOL0     C58192  11.000   8.740   2.531  0.4342 -0.3924 -0.1192
  432MOL0     O58193  11.102   8.813   2.587  0.6003  0.7736 -0.1660
  432MOL0     C58194  11.223   8.823   2.514  0.2921 -0.7651 -0.0320
  432MOL0     C58195  11.276   8.946   2.592 -0.2750  0.2843 -0.3521
  432MOL0     C58196  11.417   8.988   2.538  0.4524  0.1170  1.2190
  432MOL0     C58197  11.413   9.033   2.391 -0.8346  0.0613  0.0517
  432MOL0     C58198  11.546   9.083   2.355  0.0252 -0.0356 -0.0619
  432MOL0     C58199  11.561   9.155   2.214 -0.1637 -0.6903  0.0430
  432MOL0     C58200  11.699   9.210   2.166  1.0336 -0.4994 -0.4439
  432MOL0     C58201  11.760   9.296   2.279  0.9760  1.1116  0.0328
  432MOL0     N58202  11.861   9.388   2.228  0.0094  0.1085 -0.6503
  432MOL0     C58203  11.995   9.360   2.229 -0.5169 -0.3671  0.0017
  432MOL0     C58204  12.054   9.469   2.193  0.5834 -1.2018  0.8363
  432MOL0     C58205  12.204   9.500   2.179 -0.6024 -0.4960  0.0928
  432MOL0     C58206  12.265   9.376   2.104  0.0565 -0.1984 -0.7820
  432MOL0     C58207  12.399   9.427   2.043 -0.0047 -0.0009  0.2198
  432MOL0     C58208  12.503   9.444   2.149  0.3411 -0.2227 -0.2014
  432MOL0     O58209  12.622   9.511   2.098  0.9466  0.7191 -0.6268
  432MOL0     C58210  12.725   9.430   2.066 -0.3908 -0.8204  0.0984
  432MOL0     C58211  12.717   9.350   1.941 -0.3625 -0.5632  1.0232
  432MOL0     C58212  12.822   9.269   1.899  0.2806  0.3444  0.0600
  432MOL0     C58213  12.782   9.180   1.779  0.3801  0.5206 -0.3484
  432MOL0     C58214  12.940   9.259   1.983 -0.5106 -0.1374  0.5320
  432MOL0     C58215  13.062   9.174   1.944 -0.1187 -1.0004  0.5065
  432MOL0     O58216  13.070   9.137   1.817  0.0494 -0.8488  0.3569
  432MOL0     C58217  13.174   9.062   1.760  0.4427  0.4586  0.4583
  432MOL0     C58218  13.132   8.973   1.661 -0.4882  0.5951  0.6988
  432MOL0     C58219  13.230   8.902   1.589 -0.0458 -0.3272  0.2591
  432MOL0     C58220  13.364   8.919   1.624  0.6902  0.7922  0.3808
  432MOL0     O58221  13.449   8.850   1.546 -0.5922  0.1103 -0.7771
  432MOL0     C58222  13.594   8.843   1.561  0.0696  0.1723 -0.2293
  432MOL0     C58223  13.642   8.771   1.426 -0.0671 -0.7251  0.9471
  432MOL0     C58224  13.604   8.853   1.307 -0.4608 -0.4822 -0.3621
  432MOL0     C58225  13.672   8.788   1.184  0.3090 -0.7857  0.3570
  432MOL0     C58226  13.613   8.847   1.056 -0.7353  0.1455 -0.6028
  432MOL0     C58227  13.621   8.765   0.930  0.3947  0.4648 -0.0468
  432MOL0     C58228  13.754   8.790   0.871 -0.6775 -1.2888  0.2361
  432MOL0     C58229  13.773   8.754   0.720  0.0908  0.0114 -0.5891
  432MOL0    Cl58230  13.676   8.612   0.683  0.2116  0.6000  0.1897
  432MOL0     C58231  13.410   9.008   1.719 -0.0438  0.2669  1.0701
  432MOL0     C58232  13.319   9.075   1.793 -0.2166 -0.7794 -0.3541
  432MOL0     O58233  13.135   9.131   2.035 -0.8265 -0.1153  0.8867
  432MOL0     C58234  12.938   9.332   2.104 -1.6192  0.2985  0.5719
  432MOL0     C58235  12.844   9.426   2.138 -0.6719  0.2876 -0.1779
  432MOL0     N58236  11.961   9.570   2.167 -0.1889 -0.0055  0.5277
  432MOL0     N58237  11.845   9.530   2.202 -0.3297  0.1865  0.0263
  432MOL0     C58238  11.009   8.628   2.457 -0.1698  0.1586  0.4082
  432MOL0     C58239  10.895   8.559   2.414  0.7518  0.0051  0.1251
  432MOL0     C58240  10.470   8.482   2.252 -0.4771 -0.4056  0.0370
  432MOL0     C58241  10.407   8.391   2.337 -0.4465  0.1935  0.1782
  432MOL0     C58242  10.285   8.332   2.296 -0.9866  0.6174  0.6488
  432MOL0     C58243  10.222   8.370   2.175 -0.7579 -0.6234  0.0352
  432MOL0     O58244  10.113   8.312   2.114  0.3624 -0.4283  0.2816
  432MOL0     C58245  10.052   8.206   2.182 -0.4693 -0.2902  0.3063
  432MOL0     C58246   9.911   8.207   2.123  0.4072 -0.5689 -0.4838
  432MOL0     C58247   9.906   8.209   1.971  0.5768  0.5952  1.1858
  432MOL0     C58248   9.769   8.232   1.900  1.0696  0.1862 -0.2260
  432MOL0     C58249   9.688   8.339   1.944  0.0497 -0.8602  0.2703
  432MOL0     C58250   9.642   8.441   1.988  0.4974 -0.0660  0.1703
  432MOL0     C58251  10.269   8.477   2.106 -0.7706 -1.1067 -0.5832
  432MOL0     C58252  10.399   8.525   2.139 -0.4488 -0.1128 -0.3968
  432MOL0     H58253  10.661   8.772   2.534 -0.3089 -2.0051  1.0512
  432MOL0     H58254  10.873   8.884   2.616  0.1458 -0.4907  1.0192
  432MOL0     H58255  11.288   8.736   2.524  2.1725  0.4229 -1.1710
  432MOL0     H58256  11.197   8.862   2.415 -2.6334  1.7543  1.5265
  432MOL0     H58257  11.208   9.032   2.591 -2.7379 -1.4931  1.6645
  432MOL0     H58258  11.283   8.923   2.698 -1.8489 -0.0562 -0.3003
  432MOL0     H58259  11.463   9.071   2.593 -0.8200  1.1953  0.7143
  432MOL0     H58260  11.490   8.907   2.550 -0.1431 -1.6240 -3.9866
  432MOL0     H58261  11.393   8.945   2.329 -1.0324  0.1023  0.0580
  432MOL0     H58262  11.334   9.109   2.396 -2.2604 -1.3697  0.4139
  432MOL0     H58263  11.586   9.145   2.435  1.2727  0.5003 -1.0779
  432MOL0     H58264  11.616   8.999   2.349  1.2243  1.0363 -1.6329
  432MOL0     H58265  11.531   9.095   2.128  0.6500 -0.1863 -0.6038
  432MOL0     H58266  11.489   9.238   2.209  1.5197  0.7605 -2.9087
  432MOL0     H58267  11.776   9.136   2.141  1.7831 -0.5613  1.7685
  432MOL0     H58268  11.677   9.286   2.091 -2.7186  1.6908  2.5025
  432MOL0     H58269  11.798   9.218   2.345  0.6410 -0.4306 -1.5100
  432MOL0     H58270  11.679   9.351   2.328 -0.0418  0.8176 -1.2516
  432MOL0     H58271  12.036   9.266   2.265 -1.6090 -1.4964 -1.6052
  432MOL0     H58272  12.218   9.588   2.115 -1.2898 -0.3667  0.1168
  432MOL0     H58273  12.245   9.536   2.274 -1.3420  1.5725 -0.3210
  432MOL0     H58274  12.188   9.343   2.034 -1.1379 -2.3479  1.3813
  432MOL0     H58275  12.275   9.299   2.181  1.9788 -0.3959 -1.1857
  432MOL0     H58276  12.375   9.510   1.976 -0.8237 -0.5930 -0.2456
  432MOL0     H58277  12.444   9.355   1.974 -1.4803  2.1124 -3.2364
  432MOL0     H58278  12.519   9.344   2.190 -0.7931 -0.3118  0.0444
  432MOL0     H58279  12.468   9.511   2.227 -0.2409 -0.4326 -0.2784
  432MOL0     H58280  12.627   9.363   1.882 -0.1491 -1.1295  0.5744
  432MOL0     H58281  12.830   9.084   1.801  1.9764  1.2813 -0.3471
  432MOL0     H58282  12.674   9.163   1.772  0.2618  0.2607  1.4716
  432MOL0     H58283  12.836   9.211   1.689  1.7667 -1.7169 -0.3645
  432MOL0     H58284  13.025   8.965   1.644 -0.1223  0.6886 -2.1510
  432MOL0     H58285  13.206   8.835   1.507 -2.5302  2.0709 -1.1537
  432MOL0     H58286  13.649   8.937   1.574  2.0120 -0.8217 -0.8835
  432MOL0     H58287  13.611   8.782   1.650 -1.5105  0.0160 -0.0125
  432MOL0     H58288  13.750   8.759   1.435  0.5187  3.5241  1.7292
  432MOL0     H58289  13.591   8.675   1.422  1.3049 -1.4251 -2.0144
  432MOL0     H58290  13.624   8.960   1.317  1.0641 -0.2366 -4.4488
  432MOL0     H58291  13.495   8.860   1.297 -0.5410  1.2671  1.2267
  432MOL0     H58292  13.781   8.795   1.181  0.3078  2.8698  2.5856
  432MOL0     H58293  13.656   8.681   1.173  0.8133 -0.8024 -0.2888
  432MOL0     H58294  13.660   8.942   1.028 -1.6301  1.3865  1.7878
  432MOL0     H58295  13.515   8.892   1.074 -0.7290  0.4039 -1.1802
  432MOL0     H58296  13.595   8.659   0.937 -0.5049  0.5914 -1.0921
  432MOL0     H58297  13.552   8.815   0.861  0.9041  2.8462  1.0894
  432MOL0     H58298  13.829   8.734   0.927  2.8334  1.6355 -1.0569
  432MOL0     H58299  13.775   8.897   0.879 -1.1977 -1.0824 -0.8985
  432MOL0     H58300  13.876   8.732   0.694 -1.1245 -2.6361 -3.8697
  432MOL0     H58301  13.739   8.838   0.658 -0.1299  1.7333  1.7246
  432MOL0     H58302  13.517   9.025   1.734  0.3190 -0.4856 -0.4301
  432MOL0     H58303  13.350   9.146   1.869 -1.8795 -0.6377  0.2201
  432MOL0     H58304  13.027   9.321   2.164 -2.3430 -1.5464  1.3802
  432MOL0     H58305  12.856   9.487   2.226 -0.2098  0.9354 -0.6789
  432MOL0     H58306  11.106   8.583   2.436  0.2280 -0.1029  2.5715
  432MOL0     H58307  10.910   8.465   2.362  3.4919  0.0917  0.6224
  432MOL0     H58308  10.464   8.356   2.422 -0.1969  0.4800  0.1289
  432MOL0     H58309  10.246   8.255   2.361  4.8308 -2.4564  1.1616
  432MOL0     H58310  10.098   8.115   2.142  1.3262  1.8245 -2.9242
  432MOL0     H58311  10.055   8.205   2.291 -0.3602 -0.8563  0.3037
  432MOL0     H58312   9.856   8.294   2.161  0.3135  0.7324 -3.3285
  432MOL0     H58313   9.860   8.118   2.161 -1.9765  0.1425 -1.8077
  432MOL0     H58314   9.953   8.113   1.947  0.6777  0.1750  2.9527
  432MOL0     H58315   9.955   8.294   1.925 -0.2218 -0.2711 -1.4802
  432MOL0     H58316   9.712   8.142   1.925  0.4135  1.0288  1.4848
  432MOL0     H58317   9.781   8.232   1.791 -0.5110 -2.9830 -0.5080
  432MOL0     H58318   9.612   8.536   2.027 -1.4314 -0.1391 -0.9912
  432MOL0     H58319  10.238   8.510   2.007 -1.2001 -3.3407 -1.2534
  432MOL0     H58320  10.442   8.595   2.068 -1.1193  1.9057  1.0726
  433MOL0     O58321   8.679  10.567   1.194 -0.3198  0.3824  0.4465
  433MOL0     C58322   8.738  10.621   1.096 -0.5699  0.5380  0.4899
  433MOL0     O58323   8.676  10.672   0.985  0.3845 -1.1679  0.3227
  433MOL0     C58324   8.540  10.684   0.996 -0.2801 -0.6640  1.8309
  433MOL0     C58325   8.499  10.811   1.039 -0.5293 -0.0913  0.3075
  433MOL0     C58326   8.360  10.844   1.038 -0.5196  0.4671 -0.2728
  433MOL0     C58327   8.274  10.752   0.988  0.0285  0.0190  0.6387
  433MOL0     O58328   8.143  10.798   0.997  0.0702 -0.2356 -0.1977
  433MOL0     C58329   8.043  10.750   0.915 -0.5701  0.3804  1.4871
  433MOL0     C58330   7.908  10.810   0.946  0.2402 -0.5280 -0.0216
  433MOL0     C58331   7.929  10.961   0.957  0.2429  0.1263  0.4371
  433MOL0     C58332   7.805  11.036   0.984  0.8249 -0.0493  0.8191
  433MOL0     C58333   7.842  11.174   1.031  0.4567 -0.7372 -0.0225
  433MOL0     C58334   7.705  11.265   1.071  0.6040  0.2241  0.4512
  433MOL0     C58335   7.734  11.374   1.172 -0.7142  0.1807 -0.0208
  433MOL0     C58336   7.629  11.414   1.271  0.9390 -0.4764  0.2594
  433MOL0     N58337   7.493  11.435   1.229  0.5543  0.1674  0.0891
  433MOL0     C58338   7.441  11.513   1.129 -0.5813 -0.7260  0.5004
  433MOL0     C58339   7.312  11.492   1.127 -0.0965 -1.3170  0.5185
  433MOL0     C58340   7.224  11.573   1.031 -0.2164 -0.2671  0.0877
  433MOL0     C58341   7.088  11.524   1.034  0.2548 -0.5035 -0.2841
  433MOL0     C58342   7.014  11.581   0.914  0.0180 -0.8155  0.4317
  433MOL0     C58343   6.872  11.556   0.911  0.6442 -0.7075 -0.3430
  433MOL0     O58344   6.808  11.648   0.818 -0.6955  0.0726  0.5992
  433MOL0     C58345   6.675  11.638   0.794  0.2573 -0.7477  0.3509
  433MOL0     C58346   6.613  11.513   0.790  0.5047  0.3967  0.0964
  433MOL0     C58347   6.475  11.510   0.774  0.4179  0.8993  0.3896
  433MOL0     C58348   6.413  11.373   0.741  0.0778  0.1556  0.6894
  433MOL0     C58349   6.404  11.636   0.768  0.2807 -0.5983 -0.6503
  433MOL0     C58350   6.250  11.637   0.761  0.1681  0.2078 -0.5484
  433MOL0     O58351   6.192  11.751   0.756 -0.0146 -0.8917 -0.3180
  433MOL0     C58352   6.065  11.774   0.713 -0.1489 -0.7963 -0.6040
  433MOL0     C58353   5.963  11.690   0.745  0.8291 -0.8425 -0.4526
  433MOL0     C58354   5.831  11.722   0.702 -0.4389  0.6968  0.3873
  433MOL0     C58355   5.804  11.836   0.641  0.4953 -0.8763  0.3903
  433MOL0     O58356   5.662  11.852   0.623  0.2832 -0.3195 -0.1716
  433MOL0     C58357   5.603  11.939   0.525 -0.4533 -0.2261 -0.1835
  433MOL0     C58358   5.469  11.982   0.579  0.5101 -0.7118 -0.3515
  433MOL0     C58359   5.354  11.895   0.542  0.2462 -0.1443  0.4416
  433MOL0     C58360   5.222  11.923   0.615  0.2349 -0.3404 -0.3649
  433MOL0     C58361   5.096  11.831   0.586  0.3572 -0.8125  0.4343
  433MOL0     C58362   5.025  11.881   0.464  0.1986  0.2095 -0.9166
  433MOL0     C58363   4.939  12.012   0.467  0.7432 -0.4438  0.1944
  433MOL0     C58364   4.804  11.985   0.527  0.7316  0.0662  0.5713
  433MOL0    Cl58365   4.712  11.885   0.405  0.2162  0.3215  0.1910
  433MOL0     C58366   5.906  11.935   0.626 -0.3955 -0.8648  0.1768
  433MOL0     C58367   6.040  11.903   0.662  0.0575  0.0728  0.0017
  433MOL0     O58368   6.192  11.529   0.750 -0.1576  0.6376  0.1175
  433MOL0     C58369   6.472  11.760   0.779  0.0157 -0.5915  0.4324
  433MOL0     C58370   6.605  11.761   0.804  0.0412  0.8647 -0.2798
  433MOL0     N58371   7.281  11.384   1.217  0.1494 -0.7368 -0.1930
  433MOL0     N58372   7.395  11.354   1.277  0.1540 -0.1914 -0.0549
  433MOL0     C58373   8.316  10.620   0.948  0.9218  0.0841  0.1428
  433MOL0     C58374   8.451  10.592   0.941  0.0515  0.5580 -0.6895
  433MOL0     C58375   8.888  10.620   1.087 -0.9656 -0.1699 -0.2171
  433MOL0     C58376   8.966  10.524   1.153 -0.3991  0.3678  0.2114
  433MOL0     C58377   9.105  10.522   1.126 -0.0305  1.3312  0.2238
  433MOL0     C58378   9.170  10.625   1.056  0.5521 -0.1039 -0.1083
  433MOL0     O58379   9.305  10.632   1.033 -0.3120  0.3629 -0.8425
  433MOL0     C58380   9.389  10.669   1.134 -0.9438  0.1425 -0.3265
  433MOL0     C58381   9.530  10.688   1.076 -0.0550 -0.5180  0.6971
  433MOL0     C58382   9.643  10.728   1.171  0.9512  0.1508  0.1780
  433MOL0     C58383   9.611  10.865   1.239 -0.2421 -0.1269  0.2477
  433MOL0     C58384   9.711  10.887   1.343  0.3399  0.0741 -0.4871
  433MOL0     C58385   9.783  10.883   1.435 -0.1423 -0.7032  0.0724
  433MOL0     C58386   9.094  10.730   1.004  0.1764  1.2927 -0.9035
  433MOL0     C58387   8.957  10.722   1.011 -0.1162 -0.1805 -0.8514
  433MOL0     H58388   8.575  10.881   1.073  0.7147 -2.8231  3.7924
  433MOL0     H58389   8.335  10.946   1.068  2.5406  1.0776  0.5711
  433MOL0     H58390   8.059  10.784   0.812 -1.8378 -1.2858  0.6906
  433MOL0     H58391   8.046  10.641   0.913  1.5630  0.2871  3.8633
  433MOL0     H58392   7.835  10.777   0.872  0.9105 -0.1374 -0.8777
  433MOL0     H58393   7.867  10.771   1.039  1.5448  0.8677  1.2079
  433MOL0     H58394   7.998  10.996   1.035  0.6085  1.6003 -0.4895
  433MOL0     H58395   7.955  10.996   0.857 -1.4059  0.3147  0.0489
  433MOL0     H58396   7.747  11.046   0.892 -0.8310 -0.3019  1.7922
  433MOL0     H58397   7.741  10.983   1.055  0.3567 -2.7416 -1.4043
  433MOL0     H58398   7.912  11.170   1.114  1.0518  0.3764 -0.4510
  433MOL0     H58399   7.894  11.233   0.955  1.2658  0.4072  1.3662
  433MOL0     H58400   7.665  11.306   0.977  1.4203 -1.2117 -0.5632
  433MOL0     H58401   7.632  11.192   1.109  1.3196 -1.7688 -1.8014
  433MOL0     H58402   7.826  11.349   1.226 -2.1007  0.9204  2.8391
  433MOL0     H58403   7.760  11.462   1.112  3.1775 -2.0612 -2.0188
  433MOL0     H58404   7.665  11.501   1.327 -1.2022 -0.0953  1.1353
  433MOL0     H58405   7.634  11.340   1.351  4.3416  0.0503  0.7058
  433MOL0     H58406   7.497  11.581   1.065  0.5672 -1.0181  1.1787
  433MOL0     H58407   7.220  11.679   1.057 -1.7066  0.8456 -3.8562
  433MOL0     H58408   7.267  11.578   0.930  0.1501  3.4237  0.3048
  433MOL0     H58409   7.044  11.555   1.129 -0.8399 -0.4323 -0.7938
  433MOL0     H58410   7.085  11.414   1.027  0.6516 -0.5996  0.9667
  433MOL0     H58411   7.052  11.538   0.821 -0.2700  0.3477 -0.2334
  433MOL0     H58412   7.020  11.690   0.917 -3.1401 -0.4042 -2.2823
  433MOL0     H58413   6.826  11.566   1.009  0.0119 -1.6878 -0.5255
  433MOL0     H58414   6.864  11.453   0.874  2.6475 -0.4750 -1.5685
  433MOL0     H58415   6.674  11.423   0.790  1.1555  0.8407  0.0522
  433MOL0     H58416   6.363  11.368   0.644  1.2354  2.2403 -0.0716
  433MOL0     H58417   6.496  11.301   0.738 -1.0607 -1.1844 -2.5237
  433MOL0     H58418   6.332  11.348   0.811 -0.5782  0.0548 -0.0938
  433MOL0     H58419   5.979  11.600   0.804 -2.2455 -1.2197 -0.0012
  433MOL0     H58420   5.756  11.643   0.709 -0.5915  0.7609 -0.4223
  433MOL0     H58421   5.670  12.025   0.515  0.5413 -1.1962 -2.6807
  433MOL0     H58422   5.589  11.889   0.429 -0.5949  3.0228 -1.9751
  433MOL0     H58423   5.468  11.986   0.688 -0.9087 -1.8338 -0.2957
  433MOL0     H58424   5.448  12.083   0.542  2.7290 -0.8575 -2.2526
  433MOL0     H58425   5.380  11.789   0.554 -0.8471 -0.5636 -0.6473
  433MOL0     H58426   5.322  11.909   0.439 -1.6685  0.5210  1.0927
  433MOL0     H58427   5.252  11.922   0.720  1.2767 -0.7679 -0.6603
  433MOL0     H58428   5.190  12.027   0.596  1.2079  1.0415  4.3907
  433MOL0     H58429   5.035  11.847   0.676 -1.1886  2.6537 -1.0427
  433MOL0     H58430   5.124  11.728   0.560  1.7658 -1.1697  3.0469
  433MOL0     H58431   5.092  11.871   0.378  0.1223 -1.2514 -0.8390
  433MOL0     H58432   4.948  11.803   0.460 -0.5266  0.5826  2.4331
  433MOL0     H58433   4.919  12.055   0.369 -2.4927 -0.3678  0.7839
  433MOL0     H58434   4.986  12.087   0.532  1.7793 -0.9010  0.0073
  433MOL0     H58435   4.759  12.080   0.556 -0.0734 -1.0185  3.1026
  433MOL0     H58436   4.809  11.933   0.623 -0.1111 -1.3295 -0.1109
  433MOL0     H58437   5.888  12.034   0.585  1.8343 -0.4925 -0.0570
  433MOL0     H58438   6.116  11.980   0.653  1.9398 -1.7577 -0.3233
  433MOL0     H58439   6.424  11.857   0.784  1.6404  0.3232 -0.6483
  433MOL0     H58440   6.667  11.849   0.821  1.1121  0.1697 -0.4447
  433MOL0     H58441   8.241  10.544   0.927  1.5816 -1.1825  2.0574
  433MOL0     H58442   8.490  10.496   0.907  0.7325  0.3939  0.4944
  433MOL0     H58443   8.921  10.453   1.220  1.1714  0.6115  1.6044
  433MOL0     H58444   9.171  10.444   1.163  1.2833  2.4174  0.2467
  433MOL0     H58445   9.343  10.756   1.181  0.9081 -0.7569  3.4708
  433MOL0     H58446   9.386  10.601   1.219 -0.0922 -0.0765 -0.4628
  433MOL0     H58447   9.522  10.758   0.993  2.0761  0.6383  1.3946
  433MOL0     H58448   9.559  10.593   1.031  0.2130  0.9880 -2.5999
  433MOL0     H58449   9.735  10.729   1.111  0.4338  1.0797 -0.6315
  433MOL0     H58450   9.658  10.653   1.249 -1.9712  0.1781  0.8616
  433MOL0     H58451   9.506  10.875   1.268 -0.6972 -0.7277 -1.1369
  433MOL0     H58452   9.625  10.949   1.170  0.5203 -2.9045 -3.2584
  433MOL0     H58453   9.858  10.871   1.511  1.6901 -0.1164 -1.5564
  433MOL0     H58454   9.137  10.814   0.951 -1.0400  1.6865 -1.2938
  433MOL0     H58455   8.913  10.799   0.949  5.3477  0.9492 -3.9031
  434MOL0     O58456   4.832   7.762   1.704  0.9981 -0.3648 -0.0625
  434MOL0     C58457   4.835   7.839   1.617 -0.3611 -0.5686  0.0587
  434MOL0     O58458   4.770   7.958   1.612  0.2273  0.1124  0.2804
  434MOL0     C58459   4.690   8.009   1.714  0.2637 -0.5092  0.3639
  434MOL0     C58460   4.646   8.138   1.693 -0.3730 -0.0533  0.3464
  434MOL0     C58461   4.570   8.208   1.787 -0.7408  0.4658 -1.0616
  434MOL0     C58462   4.532   8.150   1.904  0.0806  0.0536  0.9352
  434MOL0     O58463   4.468   8.219   2.001  0.0286  0.5428 -0.1288
  434MOL0     C58464   4.538   8.238   2.129  0.7437  0.7302 -0.1472
  434MOL0     C58465   4.615   8.376   2.114  0.3780 -1.4711 -0.4572
  434MOL0     C58466   4.737   8.401   2.204  0.4058  0.4899  0.0244
  434MOL0     C58467   4.808   8.534   2.156 -0.6271  0.3654  0.3465
  434MOL0     C58468   4.948   8.545   2.209 -0.8447  0.1468  0.5668
  434MOL0     C58469   5.003   8.679   2.157  0.6469  0.1445  0.3950
  434MOL0     C58470   5.144   8.710   2.202  0.7158 -0.0080 -0.5562
  434MOL0     C58471   5.185   8.844   2.156 -0.6217  0.5986  0.4418
  434MOL0     N58472   5.310   8.871   2.236 -0.2608  0.2976  0.3237
  434MOL0     C58473   5.443   8.828   2.222 -0.5936  0.2245 -0.2811
  434MOL0     C58474   5.506   8.890   2.332 -1.0044 -0.8452  0.5575
  434MOL0     C58475   5.657   8.897   2.345  0.4103  0.3132  0.1484
  434MOL0     C58476   5.718   8.984   2.235 -0.6900  0.0294  0.6646
  434MOL0     C58477   5.678   9.133   2.261 -0.0751 -0.3741 -0.2345
  434MOL0     C58478   5.699   9.182   2.413  0.9935 -0.0476  0.4265
  434MOL0     O58479   5.715   9.328   2.418  0.3379  0.1117  0.6229
  434MOL0     C58480   5.608   9.410   2.418  0.2576 -0.1551 -0.1454
  434MOL0     C58481   5.644   9.543   2.378 -0.2419  0.2587 -0.1708
  434MOL0     C58482   5.554   9.646   2.385 -0.1565  0.0452  0.4054
  434MOL0     C58483   5.599   9.790   2.347 -0.2345  0.5619 -0.5518
  434MOL0     C58484   5.419   9.614   2.425 -0.5578 -0.7829 -0.3659
  434MOL0     C58485   5.309   9.719   2.447  0.0352 -0.4908  1.3633
  434MOL0     O58486   5.196   9.678   2.505 -0.2168  0.2892 -0.3108
  434MOL0     C58487   5.091   9.766   2.513  0.7536  0.1676 -0.7348
  434MOL0     C58488   4.976   9.756   2.431 -0.6365 -0.0493  0.5459
  434MOL0     C58489   4.870   9.834   2.442  0.0137  0.8686  0.1512
  434MOL0     C58490   4.868   9.935   2.538  0.4695  0.2071 -0.3051
  434MOL0     O58491   4.771  10.033   2.543  0.0945  0.7609  0.4731
  434MOL0     C58492   4.676  10.054   2.436  0.1188 -0.8502  0.6414
  434MOL0     C58493   4.612  10.194   2.426 -0.6195  0.5692 -0.2552
  434MOL0     C58494   4.523  10.211   2.306 -0.2592 -0.3075 -0.0292
  434MOL0     C58495   4.456  10.347   2.288  0.2635 -0.3226  0.7394
  434MOL0     C58496   4.353  10.351   2.163 -0.7922  0.5582 -1.2635
  434MOL0     C58497   4.302  10.504   2.174  0.6665  0.1970 -0.7932
  434MOL0     C58498   4.182  10.525   2.073  0.6747 -0.7371 -0.2740
  434MOL0     C58499   4.095  10.655   2.100  0.6604 -0.4239  0.3190
  434MOL0    Cl58500   4.209  10.794   2.124 -0.0405  0.0313  0.5945
  434MOL0     C58501   4.985   9.959   2.617 -0.4694  0.0582  0.9301
  434MOL0     C58502   5.099   9.881   2.603 -0.2385 -0.6162 -0.0159
  434MOL0     O58503   5.324   9.827   2.396  0.3917  0.6482  0.4491
  434MOL0     C58504   5.384   9.481   2.459  0.9185 -0.7749 -0.0939
  434MOL0     C58505   5.477   9.378   2.465  0.1572  0.5243 -0.5604
  434MOL0     N58506   5.423   8.993   2.377  0.2268 -0.1792  0.2613
  434MOL0     N58507   5.304   8.979   2.324 -0.1672 -0.7807  0.0544
  434MOL0     C58508   4.567   8.018   1.919 -0.6060  0.1612 -0.4252
  434MOL0     C58509   4.641   7.944   1.825 -0.0597 -0.4181 -0.6151
  434MOL0     C58510   4.926   7.811   1.514  0.1665 -0.7365  0.4843
  434MOL0     C58511   4.999   7.694   1.501 -0.1231  1.1952  0.9571
  434MOL0     C58512   5.094   7.683   1.400 -0.5193 -0.6802 -0.8857
  434MOL0     C58513   5.132   7.778   1.312 -0.2888 -0.6230 -0.0847
  434MOL0     O58514   5.221   7.760   1.213 -0.5825  0.1731  0.3128
  434MOL0     C58515   5.338   7.670   1.241 -0.6410 -0.1989 -0.3106
  434MOL0     C58516   5.417   7.649   1.108 -0.3823  0.4152 -0.1933
  434MOL0     C58517   5.383   7.518   1.038 -0.4297 -0.2587 -0.1929
  434MOL0     C58518   5.447   7.486   0.903  0.0634  0.0396 -0.5077
  434MOL0     C58519   5.557   7.386   0.914 -0.4005  0.0420 -0.0138
  434MOL0     C58520   5.639   7.304   0.932 -0.0210  0.8645 -0.5072
  434MOL0     C58521   5.060   7.897   1.312 -0.0826 -0.0469  0.1509
  434MOL0     C58522   4.958   7.914   1.416 -0.8740  0.7390 -0.2440
  434MOL0     H58523   4.685   8.183   1.602 -1.0895 -0.2306 -0.0527
  434MOL0     H58524   4.561   8.315   1.769  1.0927  0.6911 -0.7935
  434MOL0     H58525   4.467   8.238   2.212  0.8972  1.7827 -0.0078
  434MOL0     H58526   4.608   8.155   2.144 -2.3216 -1.9949  0.2124
  434MOL0     H58527   4.644   8.383   2.009  1.2275  1.0840 -0.1229
  434MOL0     H58528   4.552   8.463   2.134  0.5265 -1.6733  0.9900
  434MOL0     H58529   4.711   8.397   2.310 -1.8566 -2.2253 -0.5278
  434MOL0     H58530   4.791   8.311   2.175 -1.7208  0.2555 -3.8418
  434MOL0     H58531   4.802   8.531   2.047 -0.1185 -0.6570  0.3396
  434MOL0     H58532   4.741   8.612   2.193 -1.1454  0.4596 -0.7624
  434MOL0     H58533   4.937   8.549   2.317 -2.0161 -1.0964  0.5181
  434MOL0     H58534   5.006   8.456   2.183  0.4212  1.3475 -0.9071
  434MOL0     H58535   5.010   8.684   2.048  1.8659  0.2891  0.4656
  434MOL0     H58536   4.934   8.760   2.182 -2.2798 -1.4601 -1.8479
  434MOL0     H58537   5.150   8.698   2.311  0.4505  4.1775  0.1005
  434MOL0     H58538   5.207   8.632   2.160 -1.0703 -2.4216  0.9661
  434MOL0     H58539   5.106   8.916   2.179 -0.6563  0.9830 -0.7788
  434MOL0     H58540   5.201   8.850   2.048 -1.2602 -1.6767  0.1826
  434MOL0     H58541   5.490   8.758   2.154  0.2243 -0.6104  1.0794
  434MOL0     H58542   5.690   8.923   2.446 -1.2411 -2.0571  1.3941
  434MOL0     H58543   5.684   8.796   2.312 -2.9580  0.0239 -2.2458
  434MOL0     H58544   5.688   8.942   2.138 -0.2547 -1.7013  1.2375
  434MOL0     H58545   5.827   8.979   2.244 -0.6597 -1.4687 -0.2285
  434MOL0     H58546   5.571   9.152   2.248 -0.3617 -2.7264 -2.1611
  434MOL0     H58547   5.734   9.195   2.191 -0.5108 -0.6686 -0.8538
  434MOL0     H58548   5.792   9.131   2.438  0.3784 -1.5680 -0.2353
  434MOL0     H58549   5.619   9.145   2.478 -1.9158  0.5593 -2.5632
  434MOL0     H58550   5.749   9.551   2.352 -0.3405  0.4008 -0.5282
  434MOL0     H58551   5.573   9.862   2.425  1.3628  0.0657  0.5003
  434MOL0     H58552   5.707   9.806   2.338 -0.1068 -0.0023 -0.0899
  434MOL0     H58553   5.547   9.819   2.256 -1.7286 -0.1194  0.0419
  434MOL0     H58554   4.960   9.691   2.345 -4.7639  2.5034 -0.9263
  434MOL0     H58555   4.773   9.826   2.394 -0.3609 -0.5557  1.0735
  434MOL0     H58556   4.723  10.032   2.340 -0.6019  1.0930 -0.1977
  434MOL0     H58557   4.599   9.979   2.461  1.1871 -2.6729 -1.2208
  434MOL0     H58558   4.556  10.225   2.515 -2.2295  1.5811 -1.5688
  434MOL0     H58559   4.701  10.256   2.409 -1.3695  0.9993 -2.9584
  434MOL0     H58560   4.441  10.139   2.317  0.4929 -1.7803 -3.0947
  434MOL0     H58561   4.582  10.178   2.220  2.0045  1.7643  0.6216
  434MOL0     H58562   4.394  10.365   2.377  1.0991 -0.3933  1.3395
  434MOL0     H58563   4.526  10.431   2.284  1.5651 -1.4500 -1.2304
  434MOL0     H58564   4.282  10.268   2.160  0.9945 -1.0872 -0.6282
  434MOL0     H58565   4.410  10.337   2.070  1.3593  1.1494 -0.1061
  434MOL0     H58566   4.260  10.508   2.275  0.1960  1.3212 -1.0155
  434MOL0     H58567   4.376  10.583   2.161 -0.4583  1.1994 -1.2794
  434MOL0     H58568   4.114  10.440   2.077 -0.0811 -0.1759 -0.8518
  434MOL0     H58569   4.229  10.527   1.974  5.6289 -0.4112  1.7560
  434MOL0     H58570   4.030  10.655   2.187 -1.5188 -1.5215 -1.2087
  434MOL0     H58571   4.036  10.663   2.008  2.1973 -0.1490 -0.7042
  434MOL0     H58572   4.969  10.046   2.680 -0.0262  1.2736 -0.5793
  434MOL0     H58573   5.188   9.893   2.663  0.0691 -2.0576 -0.1407
  434MOL0     H58574   5.285   9.457   2.499  0.5734  1.2803  0.3922
  434MOL0     H58575   5.444   9.280   2.496 -0.5988  1.9483  3.9330
  434MOL0     H58576   4.546   7.970   2.013 -0.4509 -1.9876 -1.4382
  434MOL0     H58577   4.664   7.842   1.852  1.8003 -0.7010 -2.9060
  434MOL0     H58578   4.982   7.599   1.552 -0.8361 -1.3334 -3.5250
  434MOL0     H58579   5.141   7.587   1.385 -0.4793 -0.4417 -2.4657
  434MOL0     H58580   5.400   7.720   1.315  0.6586  0.0702 -1.5469
  434MOL0     H58581   5.319   7.575   1.292  3.2361  0.2470  2.4167
  434MOL0     H58582   5.525   7.659   1.124 -0.7998  1.5997  2.3185
  434MOL0     H58583   5.395   7.730   1.038  2.5210  0.6369 -0.9639
  434MOL0     H58584   5.274   7.520   1.024 -0.3418  0.0152 -0.8508
  434MOL0     H58585   5.406   7.433   1.104  2.2953  0.4260 -0.1473
  434MOL0     H58586   5.464   7.575   0.842  1.4488  0.9219  1.0584
  434MOL0     H58587   5.371   7.431   0.848  0.9130 -1.9064  0.1813
  434MOL0     H58588   5.717   7.242   0.971  0.1842 -0.4222 -2.8224
  434MOL0     H58589   5.082   7.974   1.239 -0.1215 -0.9251 -0.8157
  434MOL0     H58590   4.922   8.015   1.435  1.3145  1.5547 -0.1852
  435MOL0     O58591   4.464   4.600   6.499 -0.3596  0.0861 -0.0890
  435MOL0     C58592   4.571   4.613   6.553 -0.1311  0.4028  0.0440
  435MOL0     O58593   4.690   4.642   6.490 -0.0157  0.8453  0.3869
  435MOL0     C58594   4.699   4.658   6.352 -0.0494 -0.5970 -0.9011
  435MOL0     C58595   4.599   4.672   6.249  0.4157 -0.0627  0.2248
  435MOL0     C58596   4.638   4.698   6.116 -0.2632  0.1630 -0.5999
  435MOL0     C58597   4.764   4.704   6.074 -0.2302 -0.1368 -0.6731
  435MOL0     O58598   4.789   4.740   5.945  0.4153 -0.1815  0.6418
  435MOL0     C58599   4.881   4.661   5.866 -0.7077  0.2879 -0.0944
  435MOL0     C58600   4.859   4.689   5.716 -0.2789  0.4388  0.1557
  435MOL0     C58601   4.868   4.844   5.695 -0.1029  0.2045 -0.4549
  435MOL0     C58602   4.728   4.901   5.690 -0.1658  0.6320 -0.5507
  435MOL0     C58603   4.732   5.050   5.710 -0.1484  0.3511  0.2688
  435MOL0     C58604   4.601   5.098   5.750  0.1385  0.1013  0.7287
  435MOL0     C58605   4.589   5.246   5.787 -0.6472  0.1043 -0.2836
  435MOL0     C58606   4.641   5.354   5.688  0.6115 -0.4248  0.4502
  435MOL0     N58607   4.602   5.323   5.553 -0.0038 -0.5155  0.6681
  435MOL0     C58608   4.689   5.295   5.451 -0.2097 -0.1813 -0.2056
  435MOL0     C58609   4.609   5.251   5.343 -0.1082 -0.1788 -0.5247
  435MOL0     C58610   4.648   5.192   5.213  0.2608 -0.1555 -0.2823
  435MOL0     C58611   4.658   5.040   5.219 -0.3708  0.2252 -0.1074
  435MOL0     C58612   4.654   4.977   5.077  0.5363 -0.4930  0.1983
  435MOL0     C58613   4.650   4.828   5.095 -0.0593 -0.0987 -0.3749
  435MOL0     O58614   4.595   4.757   4.984  0.4093  0.1572  0.1610
  435MOL0     C58615   4.459   4.747   4.958  0.4056 -0.0036 -0.6564
  435MOL0     C58616   4.431   4.649   4.872  0.2651 -0.4998  0.1363
  435MOL0     C58617   4.306   4.634   4.819 -0.2482  0.1512 -0.1656
  435MOL0     C58618   4.282   4.514   4.729  0.5631 -0.0031  0.7247
  435MOL0     C58619   4.200   4.712   4.862  1.0057  0.5676  0.3039
  435MOL0     C58620   4.058   4.699   4.820 -0.2822 -0.3146 -0.1397
  435MOL0     O58621   3.961   4.721   4.917  0.4512  0.4807  0.6527
  435MOL0     C58622   3.838   4.740   4.875 -0.2254  0.0409  0.0969
  435MOL0     C58623   3.752   4.635   4.847 -0.1204  0.5665  0.2716
  435MOL0     C58624   3.607   4.650   4.822  0.2991 -0.5065  1.0838
  435MOL0     C58625   3.550   4.776   4.819 -1.3770 -0.4825  1.0238
  435MOL0     O58626   3.418   4.812   4.805 -0.0981 -0.2799  0.1771
  435MOL0     C58627   3.330   4.714   4.746 -0.2851 -0.7383 -0.0216
  435MOL0     C58628   3.227   4.790   4.657  0.3321 -0.5013  1.0340
  435MOL0     C58629   3.149   4.908   4.725 -0.3385  0.7521 -0.8983
  435MOL0     C58630   3.067   5.003   4.627 -0.2545 -0.2144  0.4331
  435MOL0     C58631   3.019   5.116   4.707  0.3906  0.8192  0.4215
  435MOL0     C58632   2.876   5.087   4.756  1.1758  0.6058  1.3133
  435MOL0     C58633   2.828   5.176   4.869  1.0714 -0.6509 -0.6859
  435MOL0     C58634   2.683   5.138   4.911 -0.7706 -0.0677  0.9512
  435MOL0    Cl58635   2.581   5.177   4.770  0.5618  0.1042  0.3677
  435MOL0     C58636   3.639   4.884   4.841  0.4055  1.1930 -0.5318
  435MOL0     C58637   3.775   4.866   4.864 -0.2291  0.3652  0.9221
  435MOL0     O58638   4.040   4.689   4.701  0.1387  0.3749  0.0830
  435MOL0     C58639   4.224   4.808   4.966  0.4975 -0.1864 -0.2004
  435MOL0     C58640   4.355   4.818   5.016 -0.4565  0.4477  0.1316
  435MOL0     N58641   4.480   5.263   5.384 -0.2854 -0.2431 -0.1268
  435MOL0     N58642   4.477   5.299   5.507  0.2106 -0.3306 -0.2221
  435MOL0     C58643   4.869   4.679   6.171  0.3637  0.5937  0.8706
  435MOL0     C58644   4.836   4.663   6.308 -0.1228  0.2276  1.2312
  435MOL0     C58645   4.565   4.584   6.700  0.4188  0.3311  0.5973
  435MOL0     C58646   4.440   4.558   6.772  0.5072 -0.4684 -0.1768
  435MOL0     C58647   4.448   4.545   6.915 -0.6252  0.3938  0.0229
  435MOL0     C58648   4.565   4.566   6.980 -0.4987  0.1138 -0.0506
  435MOL0     O58649   4.600   4.555   7.117  1.3521  0.7382 -0.1641
  435MOL0     C58650   4.488   4.522   7.205 -0.8621 -0.3377 -0.1675
  435MOL0     C58651   4.416   4.652   7.246  0.6088 -0.2918  0.9455
  435MOL0     C58652   4.474   4.708   7.373  0.0206 -0.6505 -0.7364
  435MOL0     C58653   4.409   4.844   7.412  0.0828  0.5071  0.3085
  435MOL0     C58654   4.456   4.900   7.541 -0.2029  0.3269 -0.3289
  435MOL0     C58655   4.475   4.968   7.641 -0.8488  0.3530  0.5332
  435MOL0     C58656   4.677   4.608   6.911  0.1567  0.4110  0.6677
  435MOL0     C58657   4.681   4.606   6.773 -0.4934 -0.6044  0.2824
  435MOL0     H58658   4.493   4.674   6.271  0.3912  0.6868  0.0546
  435MOL0     H58659   4.554   4.706   6.047 -1.3529 -0.3098  0.6252
  435MOL0     H58660   4.985   4.671   5.899 -0.8072 -0.1920  0.3671
  435MOL0     H58661   4.857   4.555   5.877 -1.7359  0.4364 -0.7833
  435MOL0     H58662   4.945   4.644   5.666 -1.0612 -3.2692  1.8572
  435MOL0     H58663   4.763   4.648   5.684 -0.0575 -0.8374  1.0773
  435MOL0     H58664   4.934   4.890   5.769  1.3544  2.2588 -2.8341
  435MOL0     H58665   4.922   4.857   5.600  0.9357 -1.0067 -0.0565
  435MOL0     H58666   4.692   4.881   5.589  0.6741 -0.9269 -0.5689
  435MOL0     H58667   4.664   4.852   5.765  0.0509 -3.2590 -2.6440
  435MOL0     H58668   4.811   5.070   5.783  0.1739 -1.5837  0.4955
  435MOL0     H58669   4.770   5.101   5.621 -2.7641  0.9926 -0.5769
  435MOL0     H58670   4.531   5.077   5.669  1.0675  0.3814 -0.1676
  435MOL0     H58671   4.566   5.036   5.834 -0.8300 -0.5394 -0.1223
  435MOL0     H58672   4.480   5.259   5.783 -0.3969  2.8077 -3.5678
  435MOL0     H58673   4.630   5.257   5.888  0.3947 -2.0712 -0.4338
  435MOL0     H58674   4.750   5.363   5.698  0.7747  3.5944 -2.5373
  435MOL0     H58675   4.601   5.455   5.702  1.0102  0.0196 -1.3892
  435MOL0     H58676   4.797   5.306   5.445  0.1048 -0.9933  2.4354
  435MOL0     H58677   4.582   5.232   5.135 -2.1313  0.3112  1.8592
  435MOL0     H58678   4.748   5.230   5.192  0.5055 -0.2108  0.7527
  435MOL0     H58679   4.571   5.013   5.279  0.1231 -0.3098  0.3833
  435MOL0     H58680   4.750   5.012   5.270  0.1954 -0.5147 -1.4844
  435MOL0     H58681   4.745   4.984   5.016  0.3155 -3.1768 -0.5698
  435MOL0     H58682   4.560   5.004   5.028 -0.5074 -1.4138  1.6085
  435MOL0     H58683   4.590   4.810   5.185 -1.0313 -0.2895 -1.0434
  435MOL0     H58684   4.749   4.784   5.102 -0.5741 -1.5218 -1.4924
  435MOL0     H58685   4.495   4.567   4.840  1.4488  0.3528  0.2937
  435MOL0     H58686   4.307   4.421   4.779 -0.1182 -0.9312 -0.6071
  435MOL0     H58687   4.175   4.513   4.707  0.7038 -1.4469  0.0469
  435MOL0     H58688   4.334   4.526   4.633 -1.1057 -0.5152 -0.2972
  435MOL0     H58689   3.792   4.534   4.854  1.5904  1.1568 -0.5133
  435MOL0     H58690   3.544   4.564   4.805 -0.9400  0.2069  1.9479
  435MOL0     H58691   3.379   4.643   4.678 -2.5443 -2.8729  0.4575
  435MOL0     H58692   3.278   4.655   4.822 -2.2231  2.3932  1.2799
  435MOL0     H58693   3.286   4.821   4.570 -1.1394  3.3280  1.2030
  435MOL0     H58694   3.149   4.721   4.624  2.2857 -2.5677  0.4866
  435MOL0     H58695   3.222   4.967   4.780  1.0395  2.0463 -3.8611
  435MOL0     H58696   3.076   4.856   4.788  1.5687  2.4069  2.9408
  435MOL0     H58697   3.134   5.029   4.544  1.1865  2.9304  2.3948
  435MOL0     H58698   2.988   4.947   4.577 -1.0202  2.9561 -2.2741
  435MOL0     H58699   3.006   5.209   4.650  1.7432  0.3107 -0.7858
  435MOL0     H58700   3.082   5.134   4.795  1.1760 -0.3459  0.1258
  435MOL0     H58701   2.816   5.114   4.669  0.9566  4.2625  2.4272
  435MOL0     H58702   2.869   4.984   4.791 -2.6045  1.3128  3.1192
  435MOL0     H58703   2.829   5.283   4.846 -0.6229 -0.4816 -0.0961
  435MOL0     H58704   2.897   5.159   4.953  1.9038  1.7210 -0.8081
  435MOL0     H58705   2.658   5.199   4.998 -0.5144 -0.8385  1.5667
  435MOL0     H58706   2.680   5.033   4.941  1.3697 -1.1038 -1.9988
  435MOL0     H58707   3.576   4.972   4.842 -0.2769  0.7714  2.4795
  435MOL0     H58708   3.825   4.959   4.888 -2.1380  1.7933 -0.3907
  435MOL0     H58709   4.130   4.846   5.006  0.4629 -0.9691  0.4947
  435MOL0     H58710   4.367   4.906   5.078 -2.6646  1.3491 -0.6096
  435MOL0     H58711   4.973   4.692   6.140 -0.0840  1.0101 -0.5184
  435MOL0     H58712   4.910   4.641   6.384 -1.3593 -0.6139  2.2128
  435MOL0     H58713   4.348   4.556   6.714  0.2658 -0.6566  0.2109
  435MOL0     H58714   4.359   4.519   6.971 -0.8125  1.4570  0.2448
  435MOL0     H58715   4.430   4.442   7.158 -0.7896 -0.1907 -0.5080
  435MOL0     H58716   4.533   4.471   7.291 -1.2435 -1.5406 -0.6567
  435MOL0     H58717   4.313   4.617   7.257  0.2911  0.2342 -0.1974
  435MOL0     H58718   4.404   4.727   7.167 -2.3809 -1.8796 -0.3173
  435MOL0     H58719   4.580   4.720   7.348  0.4804  2.6373  2.0753
  435MOL0     H58720   4.472   4.635   7.455  1.9644 -0.4068 -0.4106
  435MOL0     H58721   4.301   4.827   7.415  0.2478 -0.6296  3.7559
  435MOL0     H58722   4.439   4.917   7.335  3.7433  1.9630  2.8196
  435MOL0     H58723   4.490   5.030   7.727 -0.2972 -0.2447  0.8802
  435MOL0     H58724   4.777   4.621   6.951  0.6308  0.4349 -0.4974
  435MOL0     H58725   4.781   4.622   6.733  0.2248  1.4735  2.6095
  436MOL0     O58726   9.566   9.250   3.754 -0.3639  0.6495  0.7515
  436MOL0     C58727   9.580   9.231   3.631  0.2838 -1.4977 -0.0172
  436MOL0     O58728   9.479   9.200   3.552 -0.0740 -0.1053 -0.1117
  436MOL0     C58729   9.361   9.232   3.613  0.9801 -0.4955 -0.0381
  436MOL0     C58730   9.313   9.359   3.627  0.1992  0.2419 -0.5814
  436MOL0     C58731   9.190   9.374   3.683  1.2847  0.1425 -0.7286
  436MOL0     C58732   9.103   9.263   3.704  0.5129 -0.0961  0.6071
  436MOL0     O58733   8.978   9.264   3.753  0.4354  0.1067  0.1515
  436MOL0     C58734   8.915   9.397   3.765 -0.1649  0.5129  0.9590
  436MOL0     C58735   8.779   9.362   3.813  0.4601 -0.0797 -0.7697
  436MOL0     C58736   8.691   9.482   3.851 -0.4837  0.2989  0.3162
  436MOL0     C58737   8.669   9.587   3.737  0.1338  1.2377  0.6406
  436MOL0     C58738   8.581   9.703   3.782  0.2866  0.0965 -0.3012
  436MOL0     C58739   8.650   9.793   3.885  0.5795  0.2205 -0.0570
  436MOL0     C58740   8.565   9.916   3.904 -0.4504  0.4938 -0.5316
  436MOL0     C58741   8.430   9.891   3.981  1.1671  0.9363 -0.2042
  436MOL0     N58742   8.363  10.008   4.034  0.6881  0.2300 -0.6008
  436MOL0     C58743   8.253  10.065   3.978  0.3116 -0.2596 -0.4752
  436MOL0     C58744   8.233  10.165   4.063  0.0646  0.9769 -0.3136
  436MOL0     C58745   8.135  10.278   4.044 -0.6437 -1.1524  0.9411
  436MOL0     C58746   7.994  10.253   4.103 -0.0744  0.6414  0.2018
  436MOL0     C58747   7.879  10.340   4.062  0.5293  0.2564 -0.0996
  436MOL0     C58748   7.807  10.308   3.931 -0.1942  0.4797  0.0855
  436MOL0     O58749   7.755  10.171   3.932 -0.0535 -1.1762  0.3428
  436MOL0     C58750   7.643  10.148   3.855  0.0797  0.1458 -1.0473
  436MOL0     C58751   7.570  10.034   3.889  0.8630  0.1607 -0.6571
  436MOL0     C58752   7.445   9.999   3.826  0.0367 -1.0674  0.2681
  436MOL0     C58753   7.388   9.867   3.870  0.2244  0.1246 -0.1690
  436MOL0     C58754   7.400  10.081   3.721 -0.3169  0.2232 -0.0322
  436MOL0     C58755   7.277  10.063   3.653  0.8704  0.8311  0.3267
  436MOL0     O58756   7.211   9.944   3.687 -0.9710 -0.0267 -0.4436
  436MOL0     C58757   7.079   9.922   3.655 -1.7203  0.0317 -0.2584
  436MOL0     C58758   7.011   9.971   3.546  0.9178 -0.3886  0.5028
  436MOL0     C58759   6.886   9.909   3.509 -0.8271  0.2345 -0.4998
  436MOL0     C58760   6.830   9.810   3.590  0.3286 -0.6357 -0.6684
  436MOL0     O58761   6.701   9.768   3.555 -0.7566 -0.7092 -0.0286
  436MOL0     C58762   6.612   9.741   3.669  0.7798  0.2231  0.1479
  436MOL0     C58763   6.466   9.697   3.631 -0.1453  0.2370 -0.3230
  436MOL0     C58764   6.476   9.584   3.518 -0.0723  0.1742  0.0571
  436MOL0     C58765   6.344   9.508   3.499 -0.5233  0.7008 -0.2964
  436MOL0     C58766   6.361   9.376   3.428  0.1305  0.1462 -0.0624
  436MOL0     C58767   6.419   9.403   3.282 -0.6343 -0.9113 -0.2619
  436MOL0     C58768   6.421   9.265   3.225  0.3906  0.0503 -0.5104
  436MOL0     C58769   6.469   9.273   3.082 -1.1445 -0.8790 -0.6391
  436MOL0    Cl58770   6.449   9.120   2.993 -0.1416  0.0109  0.2597
  436MOL0     C58771   6.895   9.761   3.704 -0.1056  0.0687 -0.1496
  436MOL0     C58772   7.021   9.811   3.733  0.0601  0.5452 -0.4607
  436MOL0     O58773   7.238  10.152   3.584 -0.4921 -0.1704 -0.1432
  436MOL0     C58774   7.477  10.195   3.693  0.4745 -0.1163 -0.3449
  436MOL0     C58775   7.602  10.230   3.757 -0.3673  0.4297 -0.1589
  436MOL0     N58776   8.317  10.156   4.177 -0.4286  0.0860 -0.3934
  436MOL0     N58777   8.401  10.065   4.149 -0.5022  0.3859 -0.3308
  436MOL0     C58778   9.152   9.137   3.690 -0.5405  0.4236  0.6876
  436MOL0     C58779   9.282   9.122   3.636  0.3569  1.2696  0.1220
  436MOL0     C58780   9.721   9.232   3.566  0.1931  0.1496 -0.4305
  436MOL0     C58781   9.831   9.212   3.644 -0.4103  0.0569 -0.7231
  436MOL0     C58782   9.962   9.192   3.605  0.4174  0.0596  0.1109
  436MOL0     C58783   9.986   9.193   3.462  0.3917 -0.0995  0.2088
  436MOL0     O58784  10.123   9.194   3.422  0.4068  0.6008 -0.5164
  436MOL0     C58785  10.157   9.201   3.290 -0.6608 -0.6802  0.3054
  436MOL0     C58786  10.131   9.064   3.225 -0.2999  0.1433  0.2791
  436MOL0     C58787  10.164   9.058   3.076  0.7852  0.0128 -0.3517
  436MOL0     C58788  10.138   8.911   3.021 -0.0736  0.0150  0.1871
  436MOL0     C58789  10.096   8.915   2.881 -0.2923  0.8410 -0.2259
  436MOL0     C58790  10.046   8.904   2.773 -0.6674 -0.5798  0.1315
  436MOL0     C58791   9.878   9.222   3.376  0.1433 -0.0745 -0.5367
  436MOL0     C58792   9.752   9.246   3.429 -0.4029  0.1389  0.4152
  436MOL0     H58793   9.380   9.445   3.627  1.1399 -0.4806 -0.7462
  436MOL0     H58794   9.155   9.474   3.708 -1.1697 -1.4768  3.1637
  436MOL0     H58795   8.973   9.457   3.836  2.0723  1.7926 -1.7106
  436MOL0     H58796   8.905   9.456   3.673  1.2082 -2.1003 -1.0054
  436MOL0     H58797   8.727   9.302   3.738 -0.9397 -1.1738  1.0124
  436MOL0     H58798   8.795   9.304   3.904  0.4766 -1.2406 -1.4834
  436MOL0     H58799   8.593   9.446   3.885 -0.6871  1.5141  1.0794
  436MOL0     H58800   8.743   9.531   3.933 -0.4774 -0.0604  0.5292
  436MOL0     H58801   8.763   9.637   3.713 -1.3259  3.2985 -1.2791
  436MOL0     H58802   8.620   9.543   3.649 -3.6696 -0.0218  3.1276
  436MOL0     H58803   8.558   9.753   3.688  0.3841  1.0670  0.1781
  436MOL0     H58804   8.491   9.658   3.824 -0.4440  2.2103  0.5296
  436MOL0     H58805   8.662   9.737   3.978  3.1975  0.9826  0.1637
  436MOL0     H58806   8.751   9.826   3.858  1.1676 -2.6195 -1.7290
  436MOL0     H58807   8.615   9.989   3.968 -0.5079  0.3706 -0.3422
  436MOL0     H58808   8.541   9.963   3.808  0.6963  0.3813 -0.8810
  436MOL0     H58809   8.456   9.831   4.069 -1.2943  0.4516  0.2802
  436MOL0     H58810   8.354   9.841   3.919  0.9007  0.8319  0.1986
  436MOL0     H58811   8.203  10.048   3.884  0.1405  3.0257 -1.0822
  436MOL0     H58812   8.176  10.373   4.079  0.4978 -1.1518 -0.3103
  436MOL0     H58813   8.106  10.285   3.938  0.9474  0.6322  0.5672
  436MOL0     H58814   8.000  10.261   4.212 -1.6708 -1.7349  0.5348
  436MOL0     H58815   7.967  10.154   4.065 -1.9815  2.2717 -3.1314
  436MOL0     H58816   7.903  10.446   4.060  2.3888 -0.1384 -0.2627
  436MOL0     H58817   7.807  10.325   4.144  0.5718 -2.4984 -0.4577
  436MOL0     H58818   7.885  10.315   3.854  1.3898 -2.7101  1.2167
  436MOL0     H58819   7.728  10.383   3.924 -0.5377 -0.0067 -1.9045
  436MOL0     H58820   7.614   9.972   3.966  2.1527  2.1179  0.2386
  436MOL0     H58821   7.295   9.885   3.925  0.0983  1.8146 -0.8726
  436MOL0     H58822   7.379   9.790   3.793 -3.3050  0.4152 -0.1927
  436MOL0     H58823   7.460   9.821   3.939 -0.9263 -3.3417 -1.0495
  436MOL0     H58824   7.050  10.044   3.475 -1.1033 -0.6814 -0.9943
  436MOL0     H58825   6.845   9.941   3.414 -0.6234 -1.4527 -1.1920
  436MOL0     H58826   6.649   9.652   3.721 -0.6005 -0.6891 -0.3692
  436MOL0     H58827   6.612   9.823   3.742  1.0767 -0.8077  1.3260
  436MOL0     H58828   6.413   9.657   3.718 -1.5763 -1.4004 -1.8625
  436MOL0     H58829   6.412   9.786   3.596  0.8423  1.5304  1.3160
  436MOL0     H58830   6.554   9.510   3.535  0.3846 -0.2698 -3.2810
  436MOL0     H58831   6.497   9.641   3.427  1.3737  2.0184  1.4552
  436MOL0     H58832   6.296   9.505   3.597  0.8579  3.3146  0.5633
  436MOL0     H58833   6.279   9.562   3.430  0.3228  1.3156 -0.6246
  436MOL0     H58834   6.262   9.330   3.425  0.7667 -1.2354 -0.9097
  436MOL0     H58835   6.429   9.306   3.479  3.7577  1.3540 -2.8183
  436MOL0     H58836   6.360   9.475   3.225  2.4646  4.5065  2.5709
  436MOL0     H58837   6.517   9.452   3.282 -1.4948  0.9392 -1.8210
  436MOL0     H58838   6.319   9.229   3.211  1.0025 -1.6096 -0.9426
  436MOL0     H58839   6.479   9.199   3.289  0.6022 -0.8192 -1.5584
  436MOL0     H58840   6.577   9.290   3.086 -1.5044  2.5112 -2.1450
  436MOL0     H58841   6.416   9.353   3.031  0.6849 -0.1232 -1.4400
  436MOL0     H58842   6.854   9.671   3.749  1.3046 -0.8240 -0.5682
  436MOL0     H58843   7.081   9.787   3.820  0.2934 -0.5981 -0.9124
  436MOL0     H58844   7.438  10.272   3.628 -2.3098  0.5787  1.9010
  436MOL0     H58845   7.652  10.324   3.739 -1.6857  1.3246  0.6393
  436MOL0     H58846   9.095   9.045   3.701 -2.5370  1.5848  0.4835
  436MOL0     H58847   9.306   9.021   3.603 -1.1251  0.2021  2.0579
  436MOL0     H58848   9.799   9.196   3.746 -1.4475  3.4439 -0.4097
  436MOL0     H58849  10.043   9.173   3.675  0.6665 -0.8689 -0.4219
  436MOL0     H58850  10.105   9.284   3.243 -4.7092 -2.5885  0.9346
  436MOL0     H58851  10.263   9.222   3.276 -0.7173  0.6795  1.6942
  436MOL0     H58852  10.029   9.031   3.244 -0.2274  0.8794  2.1255
  436MOL0     H58853  10.197   8.995   3.278 -1.1073 -1.0356 -0.2272
  436MOL0     H58854  10.265   9.093   3.052 -0.6076  3.5097 -1.6864
  436MOL0     H58855  10.102   9.134   3.028  1.4885  2.1543  1.9203
  436MOL0     H58856  10.062   8.852   3.073 -0.4813 -0.0715 -0.4913
  436MOL0     H58857  10.231   8.856   3.026 -0.9264 -1.5244 -0.2937
  436MOL0     H58858  10.008   8.904   2.673  2.4639  1.8493 -1.2254
  436MOL0     H58859   9.899   9.231   3.270  1.4606  1.1078 -0.1946
  436MOL0     H58860   9.669   9.264   3.361 -2.5866  1.0353  3.1206
  437MOL0     O58861   0.600   2.224   7.856 -0.7723  0.1515 -0.0076
  437MOL0     C58862   0.602   2.118   7.787 -0.5815 -0.0982 -0.8847
  437MOL0     O58863   0.699   2.019   7.801  0.2638 -0.4945  0.8989
  437MOL0     C58864   0.804   2.049   7.882  0.6491  0.1424  0.6846
  437MOL0     C58865   0.895   2.148   7.848 -0.1523  0.6144  0.0021
  437MOL0     C58866   1.003   2.161   7.931 -0.5306  0.1788 -0.0508
  437MOL0     C58867   1.011   2.093   8.061  0.0137  0.2039 -0.6519
  437MOL0     O58868   1.111   2.099   8.149  0.0889 -0.1516 -0.4678
  437MOL0     C58869   1.239   2.138   8.094  0.9576  0.4869  0.1001
  437MOL0     C58870   1.342   2.103   8.199 -0.3613  0.0857  0.0349
  437MOL0     C58871   1.320   2.186   8.324 -0.1608  0.9829 -0.1048
  437MOL0     C58872   1.439   2.207   8.413  1.1732  0.2780 -0.0788
  437MOL0     C58873   1.493   2.078   8.462  0.2408 -0.7875  0.2788
  437MOL0     C58874   1.595   2.078   8.572  0.1907  0.6191 -0.3692
  437MOL0     C58875   1.713   2.176   8.542 -0.0592  0.3821 -0.2704
  437MOL0     C58876   1.806   2.193   8.656 -0.0408 -0.1748 -0.3231
  437MOL0     N58877   1.737   2.278   8.753 -0.1485  0.6481 -0.1389
  437MOL0     C58878   1.709   2.407   8.744  0.3768 -0.3900  0.3193
  437MOL0     C58879   1.623   2.446   8.846 -0.0772 -0.3751  0.6571
  437MOL0     C58880   1.555   2.574   8.841  0.1619 -0.8024  0.1460
  437MOL0     C58881   1.403   2.585   8.842  0.2486 -0.3648  0.8558
  437MOL0     C58882   1.355   2.509   8.717 -0.0021 -0.2381 -0.5189
  437MOL0     C58883   1.193   2.526   8.712  0.3228  0.7884  0.0911
  437MOL0     O58884   1.150   2.426   8.624 -0.3640  0.3913 -0.4644
  437MOL0     C58885   1.013   2.398   8.618  0.4526  0.9020 -0.2880
  437MOL0     C58886   0.991   2.276   8.562 -0.0713  0.6193 -0.3269
  437MOL0     C58887   0.862   2.217   8.565 -0.5094 -1.3556 -0.7201
  437MOL0     C58888   0.846   2.077   8.515  0.1680  0.2558  0.5254
  437MOL0     C58889   0.754   2.292   8.622  0.4819 -0.1824  0.2509
  437MOL0     C58890   0.611   2.231   8.639 -0.5552  0.3525 -0.0170
  437MOL0     O58891   0.507   2.326   8.606 -0.2493 -0.7374  0.8961
  437MOL0     C58892   0.382   2.321   8.663  0.0037  0.4018 -0.0780
  437MOL0     C58893   0.320   2.448   8.691 -0.0897 -0.5165  0.1026
  437MOL0     C58894   0.189   2.458   8.731 -0.7459  0.5289 -0.2766
  437MOL0     C58895   0.114   2.341   8.764 -0.5923  0.1902  0.4285
  437MOL0     O58896  -0.011   2.344   8.817  0.2110 -0.2198  0.5944
  437MOL0     C58897  -0.115   2.410   8.735  0.2827  0.5242  0.6080
  437MOL0     C58898  -0.258   2.415   8.803  0.6010 -0.3761  0.2632
  437MOL0     C58899  -0.323   2.277   8.815 -0.2348  0.8414 -0.6550
  437MOL0     C58900  -0.457   2.280   8.882  0.5984  0.0408 -0.6302
  437MOL0     C58901  -0.541   2.167   8.823 -0.2199 -0.2646  0.7948
  437MOL0     C58902  -0.676   2.168   8.896 -0.5700  0.2333  0.2605
  437MOL0     C58903  -0.779   2.076   8.824  1.2184 -0.1680  0.8739
  437MOL0     C58904  -0.907   2.063   8.909  1.0423  0.8573 -0.3788
  437MOL0    Cl58905  -1.018   2.200   8.889  0.2813 -0.1510  0.1291
  437MOL0     C58906   0.181   2.217   8.750  0.6080  0.1967 -1.0203
  437MOL0     C58907   0.306   2.201   8.698 -0.4693  0.7543 -0.2720
  437MOL0     O58908   0.593   2.114   8.681  0.2100  0.0465 -0.3907
  437MOL0     C58909   0.777   2.429   8.653 -0.7353  0.5793  0.1027
  437MOL0     C58910   0.905   2.482   8.656  0.5666  0.0781  0.7162
  437MOL0     N58911   1.599   2.337   8.918 -0.0858 -0.3445  0.1118
  437MOL0     N58912   1.683   2.244   8.866  0.1851 -0.6153  0.3186
  437MOL0     C58913   0.919   1.993   8.092  0.8514  0.1087 -0.4213
  437MOL0     C58914   0.815   1.972   8.000 -0.2311  0.7820 -0.4609
  437MOL0     C58915   0.499   2.101   7.695 -0.0703 -0.1499 -0.4278
  437MOL0     C58916   0.384   2.179   7.695  0.3767  0.2361  0.4886
  437MOL0     C58917   0.280   2.150   7.607 -0.6485 -0.7470  0.0556
  437MOL0     C58918   0.286   2.051   7.516  0.8273 -0.0761  0.9478
  437MOL0     O58919   0.192   2.008   7.427  0.2153  0.2449 -1.0641
  437MOL0     C58920   0.051   2.029   7.468 -0.0122 -0.2211 -0.7299
  437MOL0     C58921  -0.040   1.945   7.378  0.2821  0.0302  0.7077
  437MOL0     C58922  -0.025   1.990   7.227 -0.3509 -0.6565 -0.4494
  437MOL0     C58923  -0.065   2.136   7.183 -0.1460 -0.4162  0.1544
  437MOL0     C58924  -0.201   2.129   7.123 -0.3682 -1.1213 -0.0672
  437MOL0     C58925  -0.304   2.117   7.069 -0.6346  0.4219  0.1640
  437MOL0     C58926   0.403   1.976   7.507 -0.1328 -0.0539 -0.2384
  437MOL0     C58927   0.507   1.998   7.594  0.8536  0.0497 -1.0213
  437MOL0     H58928   0.902   2.222   7.768  1.5212 -1.0359 -1.4771
  437MOL0     H58929   1.083   2.227   7.900 -1.2223  0.7143 -0.7140
  437MOL0     H58930   1.266   2.091   7.999 -0.2070  3.4289 -1.8335
  437MOL0     H58931   1.255   2.246   8.088 -1.9211  1.5843  5.3918
  437MOL0     H58932   1.348   1.999   8.232  0.5638  0.1314  0.0618
  437MOL0     H58933   1.437   2.126   8.150 -0.1879  2.0678  1.1887
  437MOL0     H58934   1.298   2.289   8.293  0.3401  0.4910 -2.2221
  437MOL0     H58935   1.233   2.143   8.375 -0.8579  1.4607 -0.8709
  437MOL0     H58936   1.522   2.254   8.361  0.9139 -1.0376 -1.7573
  437MOL0     H58937   1.412   2.252   8.509  1.0911 -0.6517  0.3441
  437MOL0     H58938   1.413   2.015   8.502 -2.1504  1.4457 -0.6341
  437MOL0     H58939   1.535   2.031   8.372  2.2186  1.6341 -0.1696
  437MOL0     H58940   1.550   2.105   8.668  2.6917 -0.6230  1.2438
  437MOL0     H58941   1.641   1.979   8.567  0.6275  0.8510 -1.0735
  437MOL0     H58942   1.790   2.145   8.470  0.9687 -0.0239  0.9691
  437MOL0     H58943   1.668   2.274   8.522 -0.2430  0.1099 -1.2743
  437MOL0     H58944   1.886   2.249   8.608 -1.5998  1.4623 -1.1030
  437MOL0     H58945   1.846   2.100   8.699  1.1864  1.5869  2.6560
  437MOL0     H58946   1.731   2.478   8.664 -0.3178 -0.1014  0.3741
  437MOL0     H58947   1.596   2.636   8.922 -2.6003  2.6842 -0.8782
  437MOL0     H58948   1.585   2.623   8.748  1.3066  0.4945  1.1436
  437MOL0     H58949   1.382   2.692   8.846  2.1480  0.0233  3.4368
  437MOL0     H58950   1.350   2.537   8.926  1.7565 -1.2922  1.3069
  437MOL0     H58951   1.381   2.403   8.718  0.9784 -0.0959 -3.1366
  437MOL0     H58952   1.390   2.550   8.622 -0.7312  0.2933 -0.5701
  437MOL0     H58953   1.150   2.621   8.679 -0.3490  1.1334  1.8602
  437MOL0     H58954   1.148   2.502   8.809 -2.3874 -1.1702 -1.5366
  437MOL0     H58955   1.071   2.220   8.514 -0.0311  2.3245 -2.3836
  437MOL0     H58956   0.867   2.072   8.408 -0.9977 -0.0613  0.2977
  437MOL0     H58957   0.906   2.014   8.581 -3.3627 -0.0966  3.7711
  437MOL0     H58958   0.742   2.043   8.520  0.6976 -1.6150 -0.1545
  437MOL0     H58959   0.364   2.545   8.669  1.1501 -1.0944 -0.0458
  437MOL0     H58960   0.143   2.555   8.746  0.9713  1.3686 -0.2394
  437MOL0     H58961  -0.077   2.508   8.704  2.6571 -0.5931 -0.1948
  437MOL0     H58962  -0.131   2.344   8.649 -3.0748 -2.6344  3.2990
  437MOL0     H58963  -0.245   2.478   8.892  1.9584 -0.4676  0.1574
  437MOL0     H58964  -0.316   2.465   8.726  0.8445 -1.0536 -0.3651
  437MOL0     H58965  -0.258   2.211   8.873  1.2025  2.0940 -0.7807
  437MOL0     H58966  -0.336   2.239   8.713 -0.7916  0.8695 -0.5994
  437MOL0     H58967  -0.442   2.258   8.988  0.7971 -2.0558 -1.0418
  437MOL0     H58968  -0.513   2.373   8.866  1.2636  1.4252  3.7119
  437MOL0     H58969  -0.499   2.066   8.831 -0.8019 -0.6301 -0.5688
  437MOL0     H58970  -0.550   2.178   8.715  0.0114  0.2994  0.8304
  437MOL0     H58971  -0.645   2.129   8.993 -1.6970  2.7786  1.7576
  437MOL0     H58972  -0.711   2.271   8.904  0.4468  0.7661 -1.4901
  437MOL0     H58973  -0.726   1.981   8.808  0.1578 -0.6639  0.2141
  437MOL0     H58974  -0.804   2.119   8.727  2.7589 -1.7024 -0.2603
  437MOL0     H58975  -0.891   2.047   9.016 -1.9153 -1.7738 -0.1979
  437MOL0     H58976  -0.956   1.972   8.874  0.0858  1.3329 -0.3000
  437MOL0     H58977   0.115   2.142   8.793 -0.4477  1.7706  0.2452
  437MOL0     H58978   0.355   2.108   8.672  1.6204  1.4374  1.0029
  437MOL0     H58979   0.703   2.488   8.706 -2.6582 -3.8170  2.7963
  437MOL0     H58980   0.916   2.581   8.699  1.1724  0.0389  0.6590
  437MOL0     H58981   0.941   1.940   8.184  2.9816  1.6617  0.0363
  437MOL0     H58982   0.739   1.898   8.022  0.1588  0.6907  0.6024
  437MOL0     H58983   0.367   2.258   7.768 -0.2466 -0.8300  1.5344
  437MOL0     H58984   0.185   2.202   7.618 -1.6467 -2.4396 -0.1718
  437MOL0     H58985   0.039   1.999   7.572  1.6016 -0.2894 -0.5483
  437MOL0     H58986   0.017   2.133   7.462 -2.0076 -0.6862  1.2415
  437MOL0     H58987  -0.143   1.957   7.412  0.8416  0.1964  2.3930
  437MOL0     H58988  -0.002   1.844   7.397  2.2263  0.0302 -2.4015
  437MOL0     H58989  -0.086   1.916   7.174 -2.3566  0.6391 -0.0406
  437MOL0     H58990   0.077   1.981   7.190 -0.6903 -0.6555 -1.3950
  437MOL0     H58991   0.003   2.175   7.107 -0.7386  0.1371 -0.0892
  437MOL0     H58992  -0.082   2.197   7.272 -1.8950 -2.0718  1.0295
  437MOL0     H58993  -0.400   2.107   7.023 -1.2834  0.4275  1.4881
  437MOL0     H58994   0.403   1.894   7.435  4.0343  1.0983 -1.8498
  437MOL0     H58995   0.597   1.941   7.574  1.4778 -0.2392  2.0762
  438MOL0     O58996   4.016  11.248   8.603 -0.3938  0.6110  0.0377
  438MOL0     C58997   4.046  11.370   8.588 -0.4940  0.2394 -0.8599
  438MOL0     O58998   3.956  11.464   8.562 -0.4180 -0.1366  0.7776
  438MOL0     C58999   3.828  11.426   8.546 -0.0259 -0.1223 -0.6231
  438MOL0     C59000   3.751  11.366   8.644  1.0571 -0.5935 -0.7220
  438MOL0     C59001   3.621  11.327   8.624  0.6619  0.7743 -0.0729
  438MOL0     C59002   3.559  11.345   8.494  0.2923 -0.2421  0.5891
  438MOL0     O59003   3.433  11.290   8.452  0.1931  0.0701 -0.3784
  438MOL0     C59004   3.348  11.233   8.551 -0.3247  0.2635  0.8925
  438MOL0     C59005   3.214  11.176   8.507 -0.4319  0.1410 -0.2156
  438MOL0     C59006   3.122  11.275   8.437  0.4904  0.0931 -0.1082
  438MOL0     C59007   2.999  11.198   8.379  0.7730  0.9843 -0.2965
  438MOL0     C59008   2.882  11.287   8.330 -0.0824  0.0892  0.3381
  438MOL0     C59009   2.849  11.408   8.419 -0.0260 -0.0746 -0.1599
  438MOL0     C59010   2.738  11.510   8.372  0.3643  0.8726  0.0649
  438MOL0     C59011   2.601  11.441   8.339  0.5748  0.0891  0.4239
  438MOL0     N59012   2.490  11.533   8.309 -0.4289 -0.5721 -0.4352
  438MOL0     C59013   2.449  11.638   8.395 -0.4873 -0.7088 -0.9048
  438MOL0     C59014   2.351  11.701   8.329 -0.2146 -0.0219 -0.9219
  438MOL0     C59015   2.287  11.833   8.363  0.2613 -0.0407  0.3312
  438MOL0     C59016   2.390  11.948   8.343  0.4295 -0.0214  0.4512
  438MOL0     C59017   2.345  12.089   8.387 -0.2744 -0.3203 -0.3417
  438MOL0     C59018   2.318  12.077   8.544 -0.4315 -0.2832  0.1324
  438MOL0     O59019   2.326  12.211   8.594 -0.1089  0.2518 -0.2351
  438MOL0     C59020   2.240  12.240   8.696  0.4394 -0.2658 -1.1531
  438MOL0     C59021   2.302  12.241   8.823 -0.6132 -0.1621 -0.4197
  438MOL0     C59022   2.221  12.260   8.936  0.0902  0.3997 -1.0925
  438MOL0     C59023   2.283  12.224   9.074  0.1590 -0.6750 -0.2673
  438MOL0     C59024   2.084  12.295   8.919  0.0934 -0.3154 -0.2582
  438MOL0     C59025   1.999  12.328   9.033  0.4988  0.0997 -0.4471
  438MOL0     O59026   1.863  12.344   9.001 -0.3584 -0.6447  0.5205
  438MOL0     C59027   1.790  12.431   9.082  0.1254 -0.4739  0.4014
  438MOL0     C59028   1.654  12.405   9.119 -0.0480 -0.3070 -0.4168
  438MOL0     C59029   1.586  12.494   9.198  0.1964  0.1364 -0.1033
  438MOL0     C59030   1.639  12.615   9.247  0.6313 -0.6999 -0.9976
  438MOL0     O59031   1.555  12.701   9.317  0.1063 -0.0089  0.8887
  438MOL0     C59032   1.612  12.822   9.379 -0.0617 -0.7925  0.0315
  438MOL0     C59033   1.607  12.935   9.278 -0.0911 -0.5591 -0.1560
  438MOL0     C59034   1.694  13.051   9.317 -0.0727  0.6994 -0.4367
  438MOL0     C59035   1.842  13.036   9.282 -0.7939  0.3327 -1.1760
  438MOL0     C59036   1.923  13.163   9.323  0.9868 -0.2029  0.2273
  438MOL0     C59037   2.076  13.152   9.338  0.2198  0.5410  0.5080
  438MOL0     C59038   2.138  13.096   9.203  0.4542 -0.7978  0.0327
  438MOL0     C59039   2.273  13.141   9.200 -0.6238  0.0923 -0.4371
  438MOL0    Cl59040   2.366  13.052   9.077  0.1361  0.0792  0.0722
  438MOL0     C59041   1.773  12.639   9.219  0.2033  0.3852 -0.0469
  438MOL0     C59042   1.839  12.558   9.128 -0.2183 -0.7169  0.0410
  438MOL0     O59043   2.037  12.336   9.146 -0.4796  0.8403 -0.1574
  438MOL0     C59044   2.027  12.298   8.787 -0.1008  0.4843 -0.0438
  438MOL0     C59045   2.101  12.271   8.677 -0.5469  1.0499  0.9066
  438MOL0     N59046   2.314  11.624   8.216  0.4504 -0.2922  0.3236
  438MOL0     N59047   2.409  11.534   8.199  0.3316  0.1676 -0.1610
  438MOL0     C59048   3.637  11.411   8.397  1.0041  0.5692 -0.0758
  438MOL0     C59049   3.773  11.448   8.423 -0.7079  0.1957  0.2767
  438MOL0     C59050   4.184  11.409   8.637 -1.1831  0.3800  0.7202
  438MOL0     C59051   4.257  11.338   8.728 -0.4591 -1.4040  0.7652
  438MOL0     C59052   4.385  11.374   8.768 -0.1500  0.2104 -0.4577
  438MOL0     C59053   4.444  11.495   8.726 -0.1063  0.8668 -1.2405
  438MOL0     O59054   4.563  11.516   8.791 -0.1709  0.0258  0.0664
  438MOL0     C59055   4.615  11.649   8.801  0.3872  1.1305  0.1740
  438MOL0     C59056   4.715  11.653   8.918  0.3730 -0.7151 -0.4872
  438MOL0     C59057   4.849  11.613   8.858 -0.2400  0.4014 -0.2095
  438MOL0     C59058   4.960  11.628   8.972  0.2789  0.6699 -0.1367
  438MOL0     C59059   5.092  11.633   8.910 -0.7145 -0.0584 -0.8735
  438MOL0     C59060   5.195  11.658   8.848  0.0401 -0.5500  0.4624
  438MOL0     C59061   4.377  11.567   8.631  0.1196  0.5825 -0.7827
  438MOL0     C59062   4.247  11.531   8.590 -0.0718 -0.6321  0.0500
  438MOL0     H59063   3.811  11.356   8.735  0.1482  0.7265  0.0592
  438MOL0     H59064   3.569  11.274   8.703 -0.8906  1.8690 -0.3268
  438MOL0     H59065   3.400  11.149   8.597  0.2920 -0.3175 -0.7803
  438MOL0     H59066   3.331  11.308   8.629  1.7326  2.3311 -0.4897
  438MOL0     H59067   3.229  11.089   8.443  1.2798  0.1624  0.1052
  438MOL0     H59068   3.166  11.125   8.591 -1.5139 -1.9401 -1.9871
  438MOL0     H59069   3.096  11.348   8.514  0.0720  3.3598 -3.1184
  438MOL0     H59070   3.174  11.330   8.359 -0.0106  0.8155  0.0651
  438MOL0     H59071   3.023  11.122   8.304  0.9557  0.2715  0.4704
  438MOL0     H59072   2.941  11.150   8.459  0.0632 -0.6811 -1.7558
  438MOL0     H59073   2.891  11.332   8.231 -2.5553  2.1902  0.9748
  438MOL0     H59074   2.794  11.223   8.327  1.1695 -1.8474 -3.9789
  438MOL0     H59075   2.828  11.371   8.520 -1.2929 -2.2154 -1.1491
  438MOL0     H59076   2.944  11.461   8.434  0.3479 -1.4371  3.1758
  438MOL0     H59077   2.731  11.586   8.450  3.0751  0.9590  0.3391
  438MOL0     H59078   2.770  11.568   8.285 -0.7825  0.9537 -0.3231
  438MOL0     H59079   2.570  11.376   8.422  0.6112 -1.9998 -1.1006
  438MOL0     H59080   2.611  11.384   8.246  0.2086  1.8499 -0.7334
  438MOL0     H59081   2.490  11.674   8.488 -2.3870  2.6857 -1.2180
  438MOL0     H59082   2.203  11.853   8.297 -0.9965 -1.1146  1.5497
  438MOL0     H59083   2.252  11.836   8.466  0.9043 -0.3762  0.5679
  438MOL0     H59084   2.411  11.946   8.236  1.3625  0.5401  0.6140
  438MOL0     H59085   2.487  11.926   8.389  1.2292 -0.3301 -1.2790
  438MOL0     H59086   2.249  12.120   8.343 -1.2011  1.0023  2.4174
  438MOL0     H59087   2.417  12.168   8.367  1.0263 -1.6887 -1.2972
  438MOL0     H59088   2.396  12.015   8.588 -0.4816 -1.0905 -0.8861
  438MOL0     H59089   2.223  12.025   8.558  0.3033 -1.8761 -0.6103
  438MOL0     H59090   2.405  12.207   8.823  0.4189  2.4409  2.4765
  438MOL0     H59091   2.224  12.145   9.122 -0.1186 -0.1184  0.3217
  438MOL0     H59092   2.386  12.188   9.066  0.3691  0.0189 -0.8371
  438MOL0     H59093   2.285  12.310   9.142  0.2622  1.9126 -3.2877
  438MOL0     H59094   1.610  12.314   9.078  1.5129 -1.7719  0.9852
  438MOL0     H59095   1.482  12.473   9.221  0.8089 -1.2385  1.6858
  438MOL0     H59096   1.552  12.851   9.466 -0.5030 -0.2096 -0.4589
  438MOL0     H59097   1.712  12.794   9.415 -0.2956 -2.4225 -0.5349
  438MOL0     H59098   1.634  12.892   9.181  0.4640 -1.2391  0.2876
  438MOL0     H59099   1.505  12.973   9.261  0.2661  0.1546 -0.7524
  438MOL0     H59100   1.688  13.086   9.420  2.8014 -0.3490  0.1862
  438MOL0     H59101   1.660  13.132   9.252  0.9524  0.6860 -1.0156
  438MOL0     H59102   1.882  12.949   9.334  0.5951  1.6684  0.0647
  438MOL0     H59103   1.860  13.017   9.176  0.9003 -2.7444 -0.4402
  438MOL0     H59104   1.899  13.199   9.424  1.1000 -0.0871  0.2136
  438MOL0     H59105   1.907  13.240   9.247  2.4517 -1.5168 -1.5023
  438MOL0     H59106   2.129  13.242   9.372  2.5306 -0.4771 -0.2070
  438MOL0     H59107   2.102  13.080   9.416 -2.3829  0.7388  1.6663
  438MOL0     H59108   2.093  13.162   9.127  2.4150  2.7978  1.7531
  438MOL0     H59109   2.126  12.988   9.188  0.8598 -0.9192  0.5551
  438MOL0     H59110   2.322  13.117   9.295  0.9658  2.0048 -0.7218
  438MOL0     H59111   2.267  13.247   9.175 -0.0660 -0.0981 -1.4359
  438MOL0     H59112   1.832  12.728   9.241  2.4332 -0.6263 -1.5656
  438MOL0     H59113   1.942  12.589   9.112 -0.1920  0.6533  2.3698
  438MOL0     H59114   1.924  12.333   8.774 -0.5473  1.4614  4.4795
  438MOL0     H59115   2.068  12.280   8.574  2.9459  0.4680 -0.4073
  438MOL0     H59116   3.598  11.410   8.295  3.1226  1.3284 -0.9519
  438MOL0     H59117   3.837  11.490   8.347  0.5871 -0.8118  0.7602
  438MOL0     H59118   4.218  11.245   8.768 -2.3707 -1.2817 -0.6487
  438MOL0     H59119   4.433  11.308   8.840 -1.0705  2.6480  2.6218
  438MOL0     H59120   4.669  11.665   8.707  0.2783  0.4323 -0.0100
  438MOL0     H59121   4.530  11.719   8.795 -1.6718 -1.3069 -1.3745
  438MOL0     H59122   4.680  11.584   8.994  0.6703 -2.5664 -1.9551
  438MOL0     H59123   4.720  11.758   8.948 -0.2580 -0.0976 -2.3722
  438MOL0     H59124   4.871  11.679   8.773  1.0873 -0.2328 -0.3919
  438MOL0     H59125   4.845  11.511   8.818 -2.5048  0.0822  0.6963
  438MOL0     H59126   4.969  11.538   9.034  2.4631 -1.7507 -3.6178
  438MOL0     H59127   4.935  11.710   9.039 -2.0125  0.3922 -0.5761
  438MOL0     H59128   5.278  11.671   8.781 -1.1038  0.5930 -0.8032
  438MOL0     H59129   4.423  11.652   8.581  4.4767 -0.7788  0.4422
  438MOL0     H59130   4.197  11.598   8.521  2.9992  0.1230 -1.6257
  439MOL0     O59131   4.554   4.480   3.941  0.5325 -0.9012  0.1706
  439MOL0     C59132   4.636   4.504   3.851  0.1266 -0.2518 -0.2644
  439MOL0     O59133   4.606   4.531   3.726 -1.0845  0.1005  0.0167
  439MOL0     C59134   4.481   4.536   3.677  0.0544 -0.6907 -0.3660
  439MOL0     C59135   4.469   4.506   3.538 -0.3657 -0.0360 -0.0046
  439MOL0     C59136   4.346   4.494   3.475 -0.7979  0.0326 -0.3973
  439MOL0     C59137   4.231   4.538   3.543  0.7809  0.2435 -0.4144
  439MOL0     O59138   4.111   4.525   3.473  0.0099 -0.8288  0.2872
  439MOL0     C59139   3.994   4.487   3.548 -0.4220  0.1645  0.4999
  439MOL0     C59140   3.876   4.482   3.461 -1.4487 -0.0126 -0.1654
  439MOL0     C59141   3.735   4.495   3.531  1.3917 -0.1403 -0.3931
  439MOL0     C59142   3.633   4.467   3.415 -0.1016  0.0605  0.2052
  439MOL0     C59143   3.482   4.461   3.460  0.3522 -0.2562  0.3683
  439MOL0     C59144   3.422   4.598   3.490  0.1750  0.5807 -0.7082
  439MOL0     C59145   3.267   4.598   3.506 -0.1220 -0.0804  0.4283
  439MOL0     C59146   3.223   4.732   3.569  0.5233 -0.6753  0.8850
  439MOL0     N59147   3.073   4.723   3.602 -0.1823  0.4056  0.8255
  439MOL0     C59148   2.978   4.715   3.508 -0.2690 -0.1158  0.4446
  439MOL0     C59149   2.862   4.763   3.570 -0.6736  0.4785 -0.2149
  439MOL0     C59150   2.737   4.788   3.504  0.0083  0.4018 -0.9403
  439MOL0     C59151   2.690   4.664   3.428  0.0553 -0.9798  0.1580
  439MOL0     C59152   2.556   4.692   3.371  0.4232  0.6458  0.5459
  439MOL0     C59153   2.503   4.578   3.287  0.4195  0.1362 -0.3718
  439MOL0     O59154   2.593   4.511   3.199 -0.0872 -0.4575 -0.6127
  439MOL0     C59155   2.558   4.393   3.133  0.3781 -0.5621  0.1121
  439MOL0     C59156   2.654   4.319   3.074 -0.4168  0.2898  0.2899
  439MOL0     C59157   2.633   4.208   2.997  0.0409  0.2210  0.4670
  439MOL0     C59158   2.754   4.156   2.924 -0.1928 -0.1760  0.7997
  439MOL0     C59159   2.498   4.169   2.966 -0.0981  0.3421  0.1922
  439MOL0     C59160   2.459   4.072   2.855 -0.0988 -0.4493 -0.7281
  439MOL0     O59161   2.326   4.019   2.857  0.3900 -0.3802 -0.9686
  439MOL0     C59162   2.274   3.955   2.746 -0.5623  0.9588 -0.2612
  439MOL0     C59163   2.255   4.012   2.621 -0.9309  0.3444 -0.1924
  439MOL0     C59164   2.212   3.930   2.518  0.6485 -0.7793 -0.3031
  439MOL0     C59165   2.161   3.797   2.530  0.0131  0.5354 -0.1953
  439MOL0     O59166   2.099   3.728   2.422  0.6832 -0.4869 -0.2473
  439MOL0     C59167   2.054   3.592   2.450 -0.3669 -0.2201  0.1272
  439MOL0     C59168   2.025   3.518   2.319 -0.3564  0.4642 -0.5494
  439MOL0     C59169   2.137   3.499   2.211  0.6476  0.1784  0.3391
  439MOL0     C59170   2.077   3.458   2.072  0.1290  0.1233  0.3472
  439MOL0     C59171   2.176   3.371   1.994 -0.5378 -0.5288 -0.0386
  439MOL0     C59172   2.294   3.467   1.948 -0.2830 -0.0633  0.1612
  439MOL0     C59173   2.416   3.453   2.038  0.1016  0.3292  0.5720
  439MOL0     C59174   2.539   3.514   1.971 -0.2424  0.7461  0.2939
  439MOL0    Cl59175   2.621   3.388   1.894  0.1815  0.0356 -0.5576
  439MOL0     C59176   2.172   3.743   2.657  0.3494  0.0646 -0.1759
  439MOL0     C59177   2.230   3.817   2.763  0.0595  0.0981  0.1543
  439MOL0     O59178   2.533   4.057   2.761 -0.3878 -0.4538 -0.6441
  439MOL0     C59179   2.389   4.240   3.030  0.5301  0.6205 -1.1112
  439MOL0     C59180   2.423   4.351   3.116 -0.0531  1.2893 -1.1269
  439MOL0     N59181   2.890   4.774   3.699 -0.1945  0.0829 -0.2443
  439MOL0     N59182   3.013   4.743   3.720  0.1638  0.2629  0.1579
  439MOL0     C59183   4.240   4.574   3.679  0.2015  0.2053 -0.4358
  439MOL0     C59184   4.361   4.557   3.743 -0.5567  0.5055  0.1515
  439MOL0     C59185   4.783   4.491   3.872 -0.4969 -0.1251 -0.1903
  439MOL0     C59186   4.874   4.559   3.801 -0.5066 -0.1918 -0.0628
  439MOL0     C59187   5.015   4.553   3.837  0.0225  0.0226 -0.8550
  439MOL0     C59188   5.058   4.470   3.941 -0.0988  0.2587  0.8648
  439MOL0     O59189   5.190   4.468   3.987  0.0874  0.4924 -0.2124
  439MOL0     C59190   5.220   4.569   4.081  0.6130 -0.2789 -0.3801
  439MOL0     C59191   5.375   4.606   4.077  0.2930 -1.2779 -0.2884
  439MOL0     C59192   5.406   4.687   3.943  0.3304  0.5751 -0.3165
  439MOL0     C59193   5.494   4.807   3.959  0.7108  0.9909 -0.3535
  439MOL0     C59194   5.634   4.757   3.956  0.3030 -0.1150 -1.0568
  439MOL0     C59195   5.751   4.723   3.951 -1.3505  0.2552 -1.1987
  439MOL0     C59196   4.962   4.388   4.006 -0.0217 -0.3739 -0.0794
  439MOL0     C59197   4.825   4.407   3.975 -0.2699 -0.3692  0.2435
  439MOL0     H59198   4.556   4.470   3.485 -0.9196 -0.6014 -0.5297
  439MOL0     H59199   4.344   4.454   3.374 -1.6566 -0.0972 -0.3327
  439MOL0     H59200   4.011   4.387   3.588 -1.3551 -0.2922 -0.1938
  439MOL0     H59201   3.972   4.559   3.627  1.1887 -0.2255  1.3300
  439MOL0     H59202   3.898   4.565   3.393  2.5501  0.0437  0.9714
  439MOL0     H59203   3.878   4.380   3.420  0.5271 -0.4480  0.8809
  439MOL0     H59204   3.726   4.413   3.602 -1.1207 -0.4869 -1.0253
  439MOL0     H59205   3.720   4.598   3.564  1.1144  0.6776 -2.8528
  439MOL0     H59206   3.649   4.546   3.341 -0.0986 -0.1410 -0.0120
  439MOL0     H59207   3.657   4.372   3.365 -0.4184  0.4875 -0.7713
  439MOL0     H59208   3.418   4.433   3.376 -0.6865  3.1846 -0.1839
  439MOL0     H59209   3.462   4.385   3.536 -2.8379 -0.8820 -0.9435
  439MOL0     H59210   3.469   4.628   3.584 -0.2615 -0.1512 -0.2377
  439MOL0     H59211   3.458   4.662   3.409 -1.9774 -2.9671 -4.9152
  439MOL0     H59212   3.222   4.581   3.408  0.4705 -2.6301  0.5292
  439MOL0     H59213   3.233   4.519   3.573 -1.7518  0.2044 -0.0261
  439MOL0     H59214   3.237   4.820   3.505 -0.4821 -0.6223  0.7269
  439MOL0     H59215   3.274   4.744   3.665 -0.2640 -0.2159  1.2495
  439MOL0     H59216   2.998   4.696   3.403 -1.6060 -0.3744  0.2229
  439MOL0     H59217   2.671   4.828   3.581  1.0949  0.8034 -0.1939
  439MOL0     H59218   2.758   4.868   3.432  3.0997  0.9837  0.4323
  439MOL0     H59219   2.689   4.582   3.501  0.1215 -0.5102  0.6924
  439MOL0     H59220   2.758   4.632   3.349 -0.9435  0.1569 -1.2013
  439MOL0     H59221   2.569   4.772   3.297  1.2485  0.8461  0.8933
  439MOL0     H59222   2.486   4.714   3.452 -1.3107 -0.1775 -0.6743
  439MOL0     H59223   2.435   4.630   3.219  1.4775 -1.1267 -2.5137
  439MOL0     H59224   2.450   4.500   3.343  0.7529 -0.5610 -0.9933
  439MOL0     H59225   2.753   4.349   3.105  0.5658 -0.7502 -1.6478
  439MOL0     H59226   2.763   4.047   2.931  0.4480 -0.1863  0.0294
  439MOL0     H59227   2.756   4.171   2.816  2.9805  0.1565  0.8136
  439MOL0     H59228   2.844   4.204   2.962  1.1398 -1.2234 -0.8711
  439MOL0     H59229   2.271   4.118   2.603 -0.3259  0.2396 -0.3161
  439MOL0     H59230   2.215   3.966   2.416  1.1086  0.3287  0.0744
  439MOL0     H59231   2.132   3.531   2.498 -0.0800  1.1070  1.4362
  439MOL0     H59232   1.959   3.602   2.503 -0.7609  0.1875 -0.6469
  439MOL0     H59233   2.006   3.417   2.355 -0.9896  0.0350 -2.0016
  439MOL0     H59234   1.935   3.565   2.279 -0.1366  1.8579  0.5201
  439MOL0     H59235   2.202   3.422   2.253  1.9892  1.1097  0.0415
  439MOL0     H59236   2.193   3.591   2.193 -0.4819  0.4340 -2.5024
  439MOL0     H59237   1.985   3.403   2.094 -0.5680  0.6099 -1.1847
  439MOL0     H59238   2.065   3.556   2.024  2.0512  0.6541  0.8621
  439MOL0     H59239   2.130   3.326   1.905  1.2061 -0.4725 -1.0146
  439MOL0     H59240   2.200   3.289   2.063 -1.8114 -0.2295  0.7851
  439MOL0     H59241   2.324   3.430   1.850 -0.4939 -1.8282  0.7215
  439MOL0     H59242   2.253   3.568   1.944 -2.4196 -0.8424  0.8436
  439MOL0     H59243   2.427   3.347   2.063  3.3629 -0.4975 -3.2740
  439MOL0     H59244   2.398   3.503   2.134 -0.6809  1.5720 -0.1903
  439MOL0     H59245   2.613   3.557   2.039  1.5169 -1.6517  0.0188
  439MOL0     H59246   2.509   3.592   1.900 -2.2058 -0.6405 -0.5020
  439MOL0     H59247   2.133   3.643   2.670  1.3492 -0.4264 -0.9014
  439MOL0     H59248   2.236   3.779   2.865 -1.6661 -1.4997 -0.2938
  439MOL0     H59249   2.285   4.215   3.013  0.2716  1.3513 -0.6210
  439MOL0     H59250   2.343   4.404   3.168 -1.5797 -2.0742  0.2639
  439MOL0     H59251   4.158   4.599   3.745  1.8105 -4.4318  3.9734
  439MOL0     H59252   4.352   4.568   3.851  0.8664 -1.8746  0.5841
  439MOL0     H59253   4.847   4.628   3.722  1.0464  1.5852  0.9117
  439MOL0     H59254   5.089   4.611   3.782  2.0750 -1.3905  0.2676
  439MOL0     H59255   5.154   4.656   4.071 -0.3191 -0.8360  0.6908
  439MOL0     H59256   5.191   4.527   4.177 -2.9127  1.4941 -0.5028
  439MOL0     H59257   5.440   4.518   4.083  0.6815 -1.1080 -1.7141
  439MOL0     H59258   5.398   4.665   4.166  0.0909 -0.0572 -1.0222
  439MOL0     H59259   5.306   4.717   3.910 -1.4460 -2.2696  1.9470
  439MOL0     H59260   5.438   4.617   3.865 -3.0334 -2.5074  0.8133
  439MOL0     H59261   5.463   4.854   4.052 -0.1859  3.3168 -1.7335
  439MOL0     H59262   5.471   4.878   3.879 -2.8912 -0.5658 -0.9201
  439MOL0     H59263   5.850   4.683   3.948 -2.5077 -3.1351  0.5877
  439MOL0     H59264   4.996   4.320   4.083  0.1380  0.0520  0.2256
  439MOL0     H59265   4.754   4.344   4.029 -2.0551  0.0086 -1.5505
  440MOL0     O59266   7.789   8.448   5.661 -0.4333 -0.2361 -0.0250
  440MOL0     C59267   7.771   8.559   5.623 -0.4408 -0.1123 -0.0084
  440MOL0     O59268   7.657   8.634   5.628 -0.2028 -0.2493 -0.0733
  440MOL0     C59269   7.531   8.585   5.659 -0.2195  0.2019 -0.1563
  440MOL0     C59270   7.443   8.574   5.559  0.6427  0.0344  0.1342
  440MOL0     C59271   7.320   8.515   5.571 -0.3814  0.4256  0.5856
  440MOL0     C59272   7.274   8.457   5.689  0.6068 -0.6638 -0.0277
  440MOL0     O59273   7.155   8.392   5.715  0.1279  0.3517  0.6233
  440MOL0     C59274   7.044   8.442   5.636 -0.3018  0.0367 -0.1452
  440MOL0     C59275   6.930   8.441   5.739  0.8552  0.7153 -0.2629
  440MOL0     C59276   6.957   8.541   5.842 -0.4935  0.5811 -1.2242
  440MOL0     C59277   6.830   8.594   5.918  0.5386  0.3560  0.3478
  440MOL0     C59278   6.870   8.665   6.046 -0.4173  0.9782 -0.7003
  440MOL0     C59279   6.760   8.694   6.148 -0.2322 -0.4889 -0.4027
  440MOL0     C59280   6.819   8.723   6.288 -0.3114 -0.0755  0.0154
  440MOL0     C59281   6.726   8.787   6.394 -0.0352  0.0889  0.3772
  440MOL0     N59282   6.629   8.696   6.443  0.0254  0.3766  0.9357
  440MOL0     C59283   6.508   8.675   6.390 -0.6397 -0.8219  0.0524
  440MOL0     C59284   6.445   8.597   6.483  0.8115 -0.0767  0.6283
  440MOL0     C59285   6.302   8.535   6.485 -0.6783 -0.6200  0.7711
  440MOL0     C59286   6.196   8.638   6.438 -0.6219  1.2256 -0.7310
  440MOL0     C59287   6.058   8.595   6.493  0.0748 -0.0761 -0.5802
  440MOL0     C59288   5.995   8.499   6.395 -0.4536  0.2670  0.0320
  440MOL0     O59289   5.865   8.450   6.442  0.7154  0.6359  0.0636
  440MOL0     C59290   5.745   8.483   6.382  0.1574  0.4911  0.4866
  440MOL0     C59291   5.640   8.394   6.387  0.0307 -0.0012 -0.1697
  440MOL0     C59292   5.506   8.428   6.338  0.0987  0.3128  0.6562
  440MOL0     C59293   5.407   8.313   6.320  0.1408 -1.0354  0.3970
  440MOL0     C59294   5.480   8.559   6.294  0.4240  0.1471 -0.2386
  440MOL0     C59295   5.344   8.592   6.242  0.2609  0.2368 -0.8457
  440MOL0     O59296   5.239   8.578   6.343  0.0103 -0.4166  0.2081
  440MOL0     C59297   5.104   8.606   6.326 -0.5473  0.3209  0.4930
  440MOL0     C59298   5.049   8.679   6.228 -0.2579  0.6778 -0.6243
  440MOL0     C59299   4.905   8.707   6.237 -0.1101 -0.2751  0.2374
  440MOL0     C59300   4.831   8.654   6.342 -0.0255  0.4174  0.4686
  440MOL0     O59301   4.699   8.670   6.335  0.0705 -0.9113  0.5167
  440MOL0     C59302   4.636   8.736   6.444  0.2028 -0.1621  0.2861
  440MOL0     C59303   4.689   8.880   6.464  0.6963  0.7010 -0.1956
  440MOL0     C59304   4.589   8.950   6.560  0.4694  0.0412  0.8531
  440MOL0     C59305   4.633   8.939   6.702 -0.4916 -0.4614  0.0465
  440MOL0     C59306   4.510   8.903   6.786  0.2529  1.1475  0.6030
  440MOL0     C59307   4.418   9.022   6.808 -0.4118  0.2376  1.5700
  440MOL0     C59308   4.291   8.984   6.882 -0.9747  0.5497  0.0854
  440MOL0     C59309   4.156   9.051   6.846 -0.1506 -0.0550 -0.7077
  440MOL0    Cl59310   4.104   9.029   6.671  0.3222  0.0646  0.1368
  440MOL0     C59311   4.893   8.572   6.433  0.6484  1.0687  0.1644
  440MOL0     C59312   5.026   8.547   6.425 -0.0815  0.2071 -0.0566
  440MOL0     O59313   5.328   8.616   6.123 -0.3729 -0.2733 -0.5966
  440MOL0     C59314   5.578   8.658   6.313  0.2746 -0.2460 -0.0531
  440MOL0     C59315   5.712   8.617   6.345  0.0446 -0.0120  0.5490
  440MOL0     N59316   6.534   8.580   6.587  0.4035  0.1687  0.3334
  440MOL0     N59317   6.648   8.642   6.565 -0.7726  0.5409  0.3010
  440MOL0     C59318   7.368   8.461   5.795 -0.1582  0.3110 -0.0963
  440MOL0     C59319   7.494   8.531   5.777  0.6182  0.0773 -0.1417
  440MOL0     C59320   7.890   8.639   5.585  0.5593  0.0624 -0.0497
  440MOL0     C59321   7.888   8.785   5.590 -0.1699 -0.3827  0.4328
  440MOL0     C59322   7.998   8.864   5.552  1.2132  0.0527  0.1111
  440MOL0     C59323   8.111   8.794   5.499  0.0308 -0.1266  0.3423
  440MOL0     O59324   8.220   8.858   5.437  0.1191 -0.4812 -0.4651
  440MOL0     C59325   8.233   8.994   5.472 -0.6840  0.5153 -0.0008
  440MOL0     C59326   8.366   9.039   5.418  0.3881  0.0287  0.7361
  440MOL0     C59327   8.484   8.986   5.502 -0.3095 -0.1322  0.1793
  440MOL0     C59328   8.521   8.838   5.476 -0.0195 -0.1791  0.6157
  440MOL0     C59329   8.651   8.798   5.521  0.3882  0.0373  0.0154
  440MOL0     C59330   8.763   8.768   5.543 -0.7440  0.5769 -0.3438
  440MOL0     C59331   8.111   8.653   5.493  0.5178 -0.6577  1.1583
  440MOL0     C59332   8.005   8.576   5.537  0.2611 -0.4628  0.6625
  440MOL0     H59333   7.462   8.611   5.459 -1.9087  3.4984  0.7503
  440MOL0     H59334   7.253   8.499   5.487 -0.1576 -2.0313  0.8024
  440MOL0     H59335   7.042   8.539   5.584 -0.6718 -1.8289 -4.0128
  440MOL0     H59336   7.033   8.372   5.552 -1.2138  0.7709 -0.6675
  440MOL0     H59337   6.835   8.468   5.693 -0.5580  3.4736  3.7612
  440MOL0     H59338   6.916   8.343   5.784  0.4783  1.8568  2.2757
  440MOL0     H59339   7.031   8.504   5.914  0.5827  2.8300 -1.1049
  440MOL0     H59340   6.996   8.625   5.784 -1.7959 -0.1466 -3.2698
  440MOL0     H59341   6.772   8.659   5.852  0.0313  0.9761  1.3826
  440MOL0     H59342   6.764   8.511   5.948  0.6205  1.0067  2.4975
  440MOL0     H59343   6.935   8.595   6.100 -0.0191  1.5165 -0.4759
  440MOL0     H59344   6.929   8.754   6.023 -1.8468  1.5930 -2.1995
  440MOL0     H59345   6.685   8.770   6.123  0.8275  0.8835  0.4077
  440MOL0     H59346   6.698   8.605   6.142  0.7472 -1.1376 -1.0902
  440MOL0     H59347   6.858   8.635   6.342  0.8250  1.4128  1.7597
  440MOL0     H59348   6.916   8.770   6.269  0.2300 -0.6867  1.0914
  440MOL0     H59349   6.671   8.873   6.356 -0.2042  1.1370  2.7878
  440MOL0     H59350   6.770   8.846   6.476 -2.4849  0.2956  1.6212
  440MOL0     H59351   6.460   8.716   6.302 -2.8002 -2.3367  0.4574
  440MOL0     H59352   6.285   8.451   6.417 -1.2043  0.9760 -1.1860
  440MOL0     H59353   6.277   8.495   6.583  3.4848 -2.4867  1.2601
  440MOL0     H59354   6.188   8.636   6.329  0.9906 -3.5606 -0.9839
  440MOL0     H59355   6.212   8.744   6.463 -1.3392  1.2335 -0.2645
  440MOL0     H59356   5.992   8.682   6.500 -0.2380  0.0971 -4.1133
  440MOL0     H59357   6.065   8.547   6.591  0.7785 -0.4579 -0.8080
  440MOL0     H59358   6.067   8.417   6.384 -0.7859 -0.1901  1.1449
  440MOL0     H59359   5.972   8.535   6.294 -3.5262 -0.6546  0.2990
  440MOL0     H59360   5.673   8.297   6.424  1.9259  0.8519  0.5073
  440MOL0     H59361   5.314   8.337   6.372 -0.7791 -3.0456 -0.2216
  440MOL0     H59362   5.390   8.306   6.212 -0.9051  2.2269  0.2444
  440MOL0     H59363   5.438   8.212   6.349 -1.6125 -1.5075  0.7712
  440MOL0     H59364   5.106   8.730   6.152 -0.9601  2.7655  0.1854
  440MOL0     H59365   4.857   8.774   6.165 -0.3755  0.5340  1.1452
  440MOL0     H59366   4.527   8.740   6.432 -0.1988 -2.7615  2.2087
  440MOL0     H59367   4.651   8.667   6.528  0.2869  0.4786  0.8079
  440MOL0     H59368   4.787   8.890   6.512 -0.3078 -0.7137  2.3547
  440MOL0     H59369   4.701   8.934   6.370 -0.7631  0.7378 -0.3881
  440MOL0     H59370   4.489   8.907   6.547  1.0884 -0.9615 -0.9549
  440MOL0     H59371   4.586   9.053   6.522  1.3058 -0.2670 -0.0859
  440MOL0     H59372   4.702   8.855   6.712 -1.0530 -1.0829 -1.1930
  440MOL0     H59373   4.670   9.035   6.740 -2.0437 -0.9820  3.2608
  440MOL0     H59374   4.540   8.869   6.886  1.6316  0.1137 -0.1318
  440MOL0     H59375   4.449   8.820   6.748  0.5385 -0.3333  3.1350
  440MOL0     H59376   4.460   9.102   6.869  3.2076  0.7147 -1.2539
  440MOL0     H59377   4.388   9.064   6.712  0.3178 -1.4301  0.5668
  440MOL0     H59378   4.307   9.002   6.989  1.6902 -2.8863  0.4285
  440MOL0     H59379   4.278   8.876   6.872 -1.1705  0.3409  2.0724
  440MOL0     H59380   4.149   9.153   6.886 -0.2281 -0.1707 -0.4221
  440MOL0     H59381   4.077   9.001   6.902 -1.1563  0.8742 -1.2608
  440MOL0     H59382   4.840   8.514   6.508  0.2465  0.5209 -0.5359
  440MOL0     H59383   5.068   8.472   6.492 -0.9582 -1.9517 -1.8219
  440MOL0     H59384   5.561   8.762   6.288  1.3834  0.7377  2.8469
  440MOL0     H59385   5.798   8.683   6.352  1.7982 -2.0339 -0.6360
  440MOL0     H59386   7.341   8.416   5.889 -0.3490 -0.5576 -0.5571
  440MOL0     H59387   7.563   8.514   5.859  2.3630 -2.1865 -1.9505
  440MOL0     H59388   7.797   8.835   5.621  1.3492  3.2148 -0.4333
  440MOL0     H59389   7.982   8.971   5.544 -0.7009 -0.1829  0.3855
  440MOL0     H59390   8.158   9.054   5.419  1.2230  2.6019 -0.4908
  440MOL0     H59391   8.226   9.016   5.579  0.5273  3.5569 -0.4576
  440MOL0     H59392   8.366   9.148   5.418 -1.9095  0.1322 -1.7577
  440MOL0     H59393   8.367   9.000   5.316 -1.2799  0.8767  0.3450
  440MOL0     H59394   8.466   9.003   5.608 -2.6661 -0.5498 -0.1149
  440MOL0     H59395   8.572   9.040   5.465 -1.2534  0.4135 -1.3476
  440MOL0     H59396   8.514   8.825   5.368  1.4232  0.3640  0.4328
  440MOL0     H59397   8.448   8.769   5.520 -0.9841  0.8501  0.6705
  440MOL0     H59398   8.859   8.730   5.572 -0.7373  1.9197  1.6007
  440MOL0     H59399   8.201   8.615   5.445 -0.0586  2.2975 -2.7307
  440MOL0     H59400   8.017   8.470   5.516  1.6482 -0.2102  0.0965
  441MOL0     O59401   5.291   4.262   8.763 -0.1579 -0.1434 -0.0594
  441MOL0     C59402   5.347   4.182   8.838  0.3466 -0.4151 -0.6131
  441MOL0     O59403   5.485   4.183   8.853  0.0768 -0.7265  0.1333
  441MOL0     C59404   5.574   4.284   8.806 -0.2347 -0.1258 -0.4175
  441MOL0     C59405   5.547   4.414   8.776  0.0320 -0.6053  0.2571
  441MOL0     C59406   5.655   4.494   8.730 -1.4939  0.0307  0.5310
  441MOL0     C59407   5.789   4.450   8.707  0.3398 -0.2784 -0.4354
  441MOL0     O59408   5.874   4.543   8.645  0.2105  0.8197 -0.0413
  441MOL0     C59409   5.999   4.513   8.598 -0.4819  0.5442  0.1978
  441MOL0     C59410   6.069   4.647   8.575  0.4114 -0.8990 -0.0551
  441MOL0     C59411   6.200   4.630   8.492 -0.5134  0.9707  0.2816
  441MOL0     C59412   6.329   4.591   8.563  0.1777  0.6081 -0.1689
  441MOL0     C59413   6.450   4.560   8.467  1.7581 -0.1131  0.1141
  441MOL0     C59414   6.542   4.443   8.524 -0.0202  0.5517  0.2683
  441MOL0     C59415   6.598   4.481   8.660  0.4268  0.5635  0.1289
  441MOL0     C59416   6.670   4.359   8.723 -0.1501 -0.7920 -0.0893
  441MOL0     N59417   6.796   4.342   8.662  0.4161 -0.9848 -0.1467
  441MOL0     C59418   6.850   4.220   8.635  0.2611 -0.7671 -0.1977
  441MOL0     C59419   6.972   4.239   8.590 -0.1372  0.9272 -0.5593
  441MOL0     C59420   7.065   4.128   8.539 -0.0940  0.8885  0.9672
  441MOL0     C59421   7.101   4.147   8.384 -0.1935 -0.0750  0.0187
  441MOL0     C59422   6.982   4.154   8.287 -0.3764  1.1226 -0.0560
  441MOL0     C59423   6.900   4.022   8.291 -0.0124 -0.0141 -0.2466
  441MOL0     O59424   6.775   4.041   8.233 -0.0029 -0.6551  0.2257
  441MOL0     C59425   6.674   3.955   8.275 -0.0306  0.5329 -0.7199
  441MOL0     C59426   6.707   3.836   8.346 -0.2318  1.1589 -0.0440
  441MOL0     C59427   6.606   3.751   8.389  1.2967  0.2980 -0.2673
  441MOL0     C59428   6.647   3.637   8.481  0.1937 -0.1824 -0.9322
  441MOL0     C59429   6.470   3.781   8.359 -0.4972  0.1906  0.2184
  441MOL0     C59430   6.359   3.706   8.420  1.0783 -0.1716 -1.0060
  441MOL0     O59431   6.243   3.779   8.441 -0.0063  0.3993 -0.3998
  441MOL0     C59432   6.147   3.733   8.526  0.6492  0.5644  0.1042
  441MOL0     C59433   6.145   3.643   8.637  0.0148  0.2906  1.0153
  441MOL0     C59434   6.034   3.619   8.719 -0.0877  0.3794  0.6664
  441MOL0     C59435   5.915   3.689   8.695 -0.1079  0.2161 -0.3669
  441MOL0     O59436   5.808   3.669   8.776 -0.1555  0.2628  0.2830
  441MOL0     C59437   5.675   3.665   8.709  0.1683 -0.8461  0.3063
  441MOL0     C59438   5.582   3.561   8.764 -0.5172  0.8519  1.0321
  441MOL0     C59439   5.441   3.590   8.739 -0.0560  0.2678 -0.3620
  441MOL0     C59440   5.346   3.517   8.830  0.7042  0.0012  0.2308
  441MOL0     C59441   5.209   3.564   8.831 -0.0418  0.2611 -0.6145
  441MOL0     C59442   5.146   3.563   8.692 -0.1410 -0.1964 -0.1916
  441MOL0     C59443   4.999   3.596   8.694 -0.0917  0.1993 -0.9462
  441MOL0     C59444   4.945   3.634   8.554 -0.1226  0.2874  0.8861
  441MOL0    Cl59445   4.793   3.721   8.557 -0.1660 -0.2172  0.0508
  441MOL0     C59446   5.911   3.786   8.594  0.6933 -0.2306 -0.4326
  441MOL0     C59447   6.024   3.807   8.509  0.2526  0.0008 -0.3261
  441MOL0     O59448   6.373   3.593   8.464 -0.5725 -0.2719  0.2185
  441MOL0     C59449   6.441   3.893   8.283  0.5462 -1.0975 -0.0315
  441MOL0     C59450   6.542   3.981   8.251 -1.0085  0.0339 -0.5190
  441MOL0     N59451   7.003   4.376   8.589  0.4148 -0.0088 -0.1402
  441MOL0     N59452   6.897   4.431   8.648 -0.1910  0.9421 -0.5861
  441MOL0     C59453   5.805   4.313   8.733  0.0388  0.1624  1.0661
  441MOL0     C59454   5.707   4.237   8.792  0.2024  0.4158 -0.2403
  441MOL0     C59455   5.260   4.081   8.915 -0.0673 -0.5940 -0.1194
  441MOL0     C59456   5.144   4.042   8.864 -0.4201 -0.0388  0.0977
  441MOL0     C59457   5.064   3.940   8.914 -0.8260  0.3036 -0.5054
  441MOL0     C59458   5.110   3.872   9.028 -1.0028  0.4214  0.2511
  441MOL0     O59459   5.036   3.763   9.069  0.5186  0.3914  0.1572
  441MOL0     C59460   5.064   3.678   9.183  0.4432 -0.9787 -0.5813
  441MOL0     C59461   5.023   3.737   9.315  0.4967 -0.3389 -0.5363
  441MOL0     C59462   4.864   3.741   9.330  0.6063 -0.8794 -0.6394
  441MOL0     C59463   4.822   3.877   9.392 -0.6024  0.3161 -0.3991
  441MOL0     C59464   4.881   3.902   9.528 -0.3992 -0.2901  0.2615
  441MOL0     C59465   4.948   3.906   9.631  1.1182  0.1480  0.0671
  441MOL0     C59466   5.224   3.919   9.095  0.2257 -0.0838 -0.4640
  441MOL0     C59467   5.301   4.021   9.038  0.1807 -0.4601  0.0637
  441MOL0     H59468   5.457   4.470   8.796  0.5772  0.5087 -0.2770
  441MOL0     H59469   5.641   4.600   8.715 -0.2786  0.2569  0.8437
  441MOL0     H59470   6.063   4.450   8.661  0.8955  0.8506 -0.8556
  441MOL0     H59471   5.986   4.466   8.500  1.5105  0.2567  0.0316
  441MOL0     H59472   6.000   4.713   8.521 -0.9959  0.0416  2.7178
  441MOL0     H59473   6.068   4.694   8.673  1.6460  1.0348 -0.9029
  441MOL0     H59474   6.178   4.555   8.415  0.6654 -1.5873  2.2780
  441MOL0     H59475   6.227   4.725   8.446  1.6594  0.0618 -0.4476
  441MOL0     H59476   6.355   4.680   8.622  0.4752 -0.3560  1.2206
  441MOL0     H59477   6.306   4.507   8.630 -3.7397  1.0194 -0.7843
  441MOL0     H59478   6.403   4.521   8.377  1.8204 -3.1990  1.2878
  441MOL0     H59479   6.511   4.651   8.460  1.0068  0.8113  3.5207
  441MOL0     H59480   6.486   4.349   8.523  1.7396 -0.5470  0.8065
  441MOL0     H59481   6.630   4.428   8.461  1.2816 -0.6437  2.2581
  441MOL0     H59482   6.663   4.568   8.649  1.9295 -0.5980 -0.4993
  441MOL0     H59483   6.507   4.496   8.719 -1.0255 -3.2561 -0.8712
  441MOL0     H59484   6.607   4.271   8.704 -2.9498  0.6288  1.9449
  441MOL0     H59485   6.680   4.382   8.829 -1.0471 -0.0907 -0.1465
  441MOL0     H59486   6.801   4.125   8.620  2.8375 -2.2874  0.4277
  441MOL0     H59487   7.161   4.132   8.591 -0.1061  0.9020  0.9883
  441MOL0     H59488   7.021   4.029   8.551  0.6552  0.1966 -1.4374
  441MOL0     H59489   7.176   4.079   8.343  1.0011  0.8030  0.6947
  441MOL0     H59490   7.152   4.243   8.393 -1.5532  0.8293 -1.3901
  441MOL0     H59491   7.005   4.169   8.181 -1.8145 -2.5070 -1.0305
  441MOL0     H59492   6.924   4.240   8.321 -0.7265  0.8600  0.0195
  441MOL0     H59493   6.886   3.992   8.395  1.0731 -0.9628 -0.3521
  441MOL0     H59494   6.951   3.938   8.244 -0.1715 -2.1130  3.0360
  441MOL0     H59495   6.813   3.817   8.364 -0.4625  0.6577  0.7970
  441MOL0     H59496   6.752   3.632   8.512 -0.2325 -1.8021  0.3616
  441MOL0     H59497   6.594   3.643   8.577 -1.5810 -2.0066 -1.7281
  441MOL0     H59498   6.614   3.540   8.443  2.1645 -1.7564  1.1443
  441MOL0     H59499   6.234   3.587   8.663 -0.2874 -0.8994 -0.4105
  441MOL0     H59500   6.042   3.562   8.811  1.5328  2.1694  1.7248
  441MOL0     H59501   5.628   3.762   8.720  1.5545  0.3327 -2.9767
  441MOL0     H59502   5.677   3.648   8.601  1.4510  2.0049 -0.2097
  441MOL0     H59503   5.596   3.460   8.726 -0.8534  1.8347 -1.9676
  441MOL0     H59504   5.595   3.557   8.873  1.1823  0.5674  0.8483
  441MOL0     H59505   5.408   3.574   8.636 -2.0164 -0.4233  0.3252
  441MOL0     H59506   5.414   3.696   8.737 -3.8715 -0.5362 -0.0158
  441MOL0     H59507   5.351   3.412   8.797  0.9447 -0.0466  0.4145
  441MOL0     H59508   5.380   3.521   8.934 -0.9202 -2.9441  0.9918
  441MOL0     H59509   5.210   3.665   8.873 -0.6976  0.2836 -0.6476
  441MOL0     H59510   5.151   3.497   8.896 -1.3761  1.9384 -0.0262
  441MOL0     H59511   5.197   3.637   8.630  2.2060 -1.5371  0.0255
  441MOL0     H59512   5.156   3.466   8.643 -1.4092  1.4223 -4.1301
  441MOL0     H59513   4.990   3.681   8.762 -0.6794  0.3099 -1.1538
  441MOL0     H59514   4.941   3.512   8.733 -0.4018  1.8405  2.4777
  441MOL0     H59515   4.926   3.546   8.492 -0.4944  1.5322 -0.8317
  441MOL0     H59516   5.018   3.701   8.507  1.3034  0.4062  3.1335
  441MOL0     H59517   5.820   3.844   8.583 -1.3835 -2.9745  1.1419
  441MOL0     H59518   6.014   3.882   8.432 -0.4031  2.0985  1.6769
  441MOL0     H59519   6.337   3.914   8.260 -0.3704 -0.8870  3.6395
  441MOL0     H59520   6.525   4.082   8.215 -1.5749  0.0457 -0.2321
  441MOL0     H59521   5.903   4.276   8.706 -0.2723  1.0592 -1.5144
  441MOL0     H59522   5.737   4.134   8.804 -0.1828  0.0609 -2.0138
  441MOL0     H59523   5.105   4.086   8.773 -2.8397  0.9983  1.5370
  441MOL0     H59524   4.972   3.911   8.864 -0.3287  2.1615 -2.6934
  441MOL0     H59525   5.004   3.587   9.169 -1.4641  0.1554 -0.0463
  441MOL0     H59526   5.168   3.644   9.188  1.0962  1.1294  2.6050
  441MOL0     H59527   5.067   3.837   9.309  2.1278 -1.1108 -3.1981
  441MOL0     H59528   5.069   3.674   9.391  2.3281 -1.5851 -2.5366
  441MOL0     H59529   4.825   3.655   9.385  1.5759 -2.4453 -2.2693
  441MOL0     H59530   4.815   3.734   9.233 -1.7111  3.2133  0.0027
  441MOL0     H59531   4.713   3.891   9.398 -0.5110  0.5474  1.0977
  441MOL0     H59532   4.847   3.957   9.321 -0.1085 -1.6658 -2.5488
  441MOL0     H59533   5.007   3.899   9.721  0.6519  0.2252  0.3831
  441MOL0     H59534   5.257   3.874   9.189  1.4223 -0.2819 -0.9620
  441MOL0     H59535   5.390   4.058   9.088 -0.6653  1.2690  0.3663
  442MOL0     O59536   9.410   8.864   6.128 -0.1370 -0.1191  0.5425
  442MOL0     C59537   9.406   8.775   6.042 -0.1738 -0.9203  0.3742
  442MOL0     O59538   9.306   8.748   5.953  0.5798 -0.3199 -0.2465
  442MOL0     C59539   9.179   8.806   5.971 -0.1272  1.0704 -0.4848
  442MOL0     C59540   9.102   8.823   5.852  0.8578  0.1996 -0.5053
  442MOL0     C59541   8.970   8.871   5.866 -0.0069  0.7374  0.1375
  442MOL0     C59542   8.908   8.882   5.991 -0.0307 -0.6783  0.9046
  442MOL0     O59543   8.788   8.944   6.002  0.0023  0.6356 -0.5786
  442MOL0     C59544   8.679   8.867   5.946  0.8325 -0.3629  0.0000
  442MOL0     C59545   8.625   8.746   6.030  0.6156 -0.6974  0.5091
  442MOL0     C59546   8.600   8.809   6.167  0.2252 -0.7432  0.1070
  442MOL0     C59547   8.529   8.718   6.258  0.7261 -0.4624 -0.0436
  442MOL0     C59548   8.384   8.761   6.291 -0.6408 -0.2803  0.4293
  442MOL0     C59549   8.308   8.658   6.380 -0.0997 -0.8331 -0.3556
  442MOL0     C59550   8.161   8.692   6.386 -0.2092  0.2511  0.2465
  442MOL0     C59551   8.101   8.592   6.473  0.4991 -0.0784 -0.2819
  442MOL0     N59552   7.952   8.610   6.487  0.5192 -0.5184  0.2391
  442MOL0     C59553   7.882   8.711   6.548 -0.5601  0.4691 -1.8515
  442MOL0     C59554   7.756   8.658   6.557 -0.9215 -0.5391  0.2583
  442MOL0     C59555   7.641   8.727   6.626  0.1248  0.3020  0.1584
  442MOL0     C59556   7.642   8.698   6.772 -0.0390  0.1532 -0.3872
  442MOL0     C59557   7.525   8.754   6.847  0.1692 -0.1186 -0.9229
  442MOL0     C59558   7.490   8.662   6.958  0.8568  0.6491  0.1842
  442MOL0     O59559   7.392   8.571   6.910 -0.5071  0.2396 -0.5538
  442MOL0     C59560   7.346   8.481   6.999 -0.2956 -0.0654  0.3206
  442MOL0     C59561   7.387   8.457   7.132  0.3708  0.1523 -0.4268
  442MOL0     C59562   7.317   8.377   7.216  0.6992  0.3571 -0.3280
  442MOL0     C59563   7.363   8.369   7.356 -0.9059 -0.4793 -0.7755
  442MOL0     C59564   7.204   8.301   7.175  0.3359 -0.5531 -1.5280
  442MOL0     C59565   7.124   8.202   7.262 -0.1626 -0.3704  0.5244
  442MOL0     O59566   7.007   8.163   7.203 -0.4531 -0.5415 -0.6218
  442MOL0     C59567   6.918   8.093   7.286  1.1747  0.1125 -0.2027
  442MOL0     C59568   6.786   8.128   7.274  0.2162 -0.8087 -0.1271
  442MOL0     C59569   6.682   8.054   7.323  0.4948 -0.1807  0.1537
  442MOL0     C59570   6.709   7.928   7.391  0.2368  0.5005 -0.1368
  442MOL0     O59571   6.601   7.864   7.446 -1.0732  0.0077 -0.4335
  442MOL0     C59572   6.620   7.750   7.538 -0.6026 -0.6991  0.1664
  442MOL0     C59573   6.502   7.661   7.559  0.0228  0.3463 -0.6631
  442MOL0     C59574   6.399   7.732   7.656 -0.3354 -0.7567 -0.5929
  442MOL0     C59575   6.273   7.639   7.669  0.0869  0.5440  1.2657
  442MOL0     C59576   6.161   7.711   7.743 -1.1348 -0.1054 -0.0774
  442MOL0     C59577   6.027   7.630   7.726 -0.1115 -0.0078  0.1999
  442MOL0     C59578   5.925   7.668   7.837 -0.6067 -0.6029  0.1983
  442MOL0     C59579   5.800   7.584   7.822 -0.8854  0.1832 -0.3147
  442MOL0    Cl59580   5.707   7.581   7.970  0.2247 -0.3513  0.0060
  442MOL0     C59581   6.841   7.890   7.399 -0.9440  0.4256 -0.2020
  442MOL0     C59582   6.944   7.973   7.354  1.2318  1.5763  0.5399
  442MOL0     O59583   7.158   8.168   7.373 -0.0929  0.8363  0.6954
  442MOL0     C59584   7.164   8.331   7.046 -0.3576  0.0275  0.3454
  442MOL0     C59585   7.232   8.416   6.963  1.0245  0.2636 -0.6250
  442MOL0     N59586   7.755   8.537   6.495 -1.0227 -0.5935  0.4012
  442MOL0     N59587   7.864   8.503   6.451 -0.3862  0.3027 -0.2825
  442MOL0     C59588   8.987   8.863   6.110  0.4256  0.4246  1.4888
  442MOL0     C59589   9.116   8.815   6.097 -0.1949  0.7134  0.4523
  442MOL0     C59590   9.513   8.680   6.034 -0.5537 -0.5767  0.1983
  442MOL0     C59591   9.522   8.570   5.949  0.3952 -0.2753  0.4692
  442MOL0     C59592   9.633   8.483   5.952 -0.4314 -0.1139 -0.0001
  442MOL0     C59593   9.745   8.500   6.042  0.5212 -0.0055  0.2849
  442MOL0     O59594   9.864   8.422   6.054 -0.1552 -0.4693 -0.5660
  442MOL0     C59595   9.871   8.298   5.989  0.0949  0.5156  0.1410
  442MOL0     C59596   9.981   8.210   6.034 -0.5304 -0.3641 -0.4085
  442MOL0     C59597   9.952   8.148   6.163 -0.5516 -0.0239 -0.8810
  442MOL0     C59598  10.068   8.056   6.216 -0.0431 -0.8430  0.2552
  442MOL0     C59599  10.187   8.135   6.250 -0.0380 -0.6557  0.0142
  442MOL0     C59600  10.297   8.184   6.281  0.0877 -0.9316 -0.1920
  442MOL0     C59601   9.740   8.609   6.117 -0.1681  0.2084 -0.6056
  442MOL0     C59602   9.627   8.697   6.124  0.7578  0.3390 -0.1836
  442MOL0     H59603   9.149   8.797   5.759  1.5113 -0.7129  0.0648
  442MOL0     H59604   8.913   8.884   5.775 -0.6464 -0.7095  0.2947
  442MOL0     H59605   8.591   8.932   5.935  1.7151  0.6637 -1.3737
  442MOL0     H59606   8.694   8.834   5.843 -2.7702 -0.6383 -0.5579
  442MOL0     H59607   8.535   8.700   5.990  0.3106  0.5093 -0.2585
  442MOL0     H59608   8.703   8.669   6.026  1.6692  0.3798 -1.7065
  442MOL0     H59609   8.699   8.838   6.204 -0.1336  0.1287  0.4076
  442MOL0     H59610   8.539   8.900   6.170 -1.1732 -1.6528  0.8023
  442MOL0     H59611   8.525   8.618   6.216  1.1902  0.3606 -2.1552
  442MOL0     H59612   8.593   8.716   6.347  1.6295 -1.1191 -0.6932
  442MOL0     H59613   8.394   8.863   6.327  2.0973  0.2279 -1.4295
  442MOL0     H59614   8.336   8.756   6.193 -4.9890 -3.9307  2.3576
  442MOL0     H59615   8.322   8.554   6.348 -1.9559 -1.4827  0.8159
  442MOL0     H59616   8.348   8.660   6.482 -3.2480 -1.6144  1.0106
  442MOL0     H59617   8.151   8.796   6.419  3.7583  0.8653 -0.0815
  442MOL0     H59618   8.108   8.685   6.291 -1.0659 -0.6220  0.7672
  442MOL0     H59619   8.142   8.587   6.575  1.1283 -2.4856 -0.5749
  442MOL0     H59620   8.116   8.487   6.444  1.1193 -0.4543  1.2903
  442MOL0     H59621   7.918   8.804   6.590  1.2744 -0.7716 -0.5460
  442MOL0     H59622   7.649   8.836   6.619 -1.8006  0.5566  1.3680
  442MOL0     H59623   7.549   8.680   6.589  1.9166 -3.4288  0.0047
  442MOL0     H59624   7.729   8.752   6.812  0.6632 -1.3426  0.1665
  442MOL0     H59625   7.654   8.590   6.784  1.0761  0.4636  2.0365
  442MOL0     H59626   7.433   8.766   6.789 -1.3483 -0.8288  1.2166
  442MOL0     H59627   7.540   8.849   6.898 -0.3521 -0.4400 -0.1493
  442MOL0     H59628   7.448   8.724   7.038 -2.1937 -1.7087  0.6336
  442MOL0     H59629   7.579   8.610   6.993  1.8367  2.0539 -0.1606
  442MOL0     H59630   7.479   8.506   7.163  1.1587 -1.5144 -0.0440
  442MOL0     H59631   7.461   8.418   7.365  0.9890 -3.6884 -2.3979
  442MOL0     H59632   7.298   8.426   7.423 -0.4396  0.2431 -0.9239
  442MOL0     H59633   7.381   8.268   7.391 -1.7828 -0.5610 -0.5461
  442MOL0     H59634   6.761   8.213   7.211  1.3368 -1.0364 -0.9011
  442MOL0     H59635   6.582   8.093   7.309  0.8851  1.9448  2.4667
  442MOL0     H59636   6.701   7.686   7.504  1.6168  0.3603  3.0378
  442MOL0     H59637   6.655   7.791   7.633  2.6574 -1.1769 -0.7192
  442MOL0     H59638   6.459   7.658   7.459  2.9829  1.7061 -2.1061
  442MOL0     H59639   6.521   7.563   7.603 -1.7957  0.3778  0.2938
  442MOL0     H59640   6.375   7.826   7.606  1.1337 -1.8582 -3.5774
  442MOL0     H59641   6.446   7.754   7.753 -0.6372  4.8305 -1.3831
  442MOL0     H59642   6.256   7.625   7.562  0.3813 -4.1868  1.6477
  442MOL0     H59643   6.298   7.541   7.709  0.7867 -0.9147 -2.3525
  442MOL0     H59644   6.151   7.813   7.705 -0.3020 -0.3698 -1.0587
  442MOL0     H59645   6.203   7.706   7.844  1.4995 -1.7998 -1.1508
  442MOL0     H59646   5.982   7.648   7.629 -0.9244 -2.7549 -0.0013
  442MOL0     H59647   6.051   7.524   7.730  0.5219 -0.2491 -4.6866
  442MOL0     H59648   5.885   7.770   7.839 -0.4953 -0.5044 -1.2964
  442MOL0     H59649   5.968   7.657   7.937  0.5303  0.2369 -0.1837
  442MOL0     H59650   5.808   7.480   7.790 -2.5441 -0.2024  0.4560
  442MOL0     H59651   5.748   7.631   7.738  0.4446 -1.4616 -2.1491
  442MOL0     H59652   6.867   7.792   7.440 -0.1959  1.4165  1.8427
  442MOL0     H59653   7.046   7.936   7.366 -0.2115 -2.2716  2.7801
  442MOL0     H59654   7.074   8.285   7.005 -0.6898  1.1073 -0.1780
  442MOL0     H59655   7.204   8.418   6.858 -1.1457 -3.7345 -0.3525
  442MOL0     H59656   8.948   8.896   6.206  0.7086  2.8234  0.8568
  442MOL0     H59657   9.159   8.782   6.190 -3.4725 -0.3880  1.7187
  442MOL0     H59658   9.461   8.543   5.864  1.1614  0.8551 -0.4688
  442MOL0     H59659   9.623   8.394   5.890  2.0555 -0.6293  0.2353
  442MOL0     H59660   9.774   8.248   5.994  1.0988 -1.5965 -0.3674
  442MOL0     H59661   9.890   8.316   5.882  0.0136 -2.0574 -0.3744
  442MOL0     H59662  10.079   8.259   6.025 -0.1873 -0.6924  1.2227
  442MOL0     H59663   9.979   8.127   5.963  0.5784 -1.2868  0.6029
  442MOL0     H59664   9.858   8.092   6.154  0.2758 -1.7861  0.6843
  442MOL0     H59665   9.925   8.227   6.234  0.0953  0.2887 -0.9697
  442MOL0     H59666  10.089   7.984   6.137 -1.7722  0.3792 -1.4109
  442MOL0     H59667  10.036   8.002   6.306 -1.2442  1.7398  1.4778
  442MOL0     H59668  10.385   8.238   6.310  1.0176 -1.9073 -1.0945
  442MOL0     H59669   9.835   8.626   6.167  0.1352 -1.0094 -0.7504
  442MOL0     H59670   9.620   8.757   6.213  1.4227  2.6469 -1.5993
  443MOL0     O59671   8.774   9.217   2.529 -0.0261  0.3402  0.1369
  443MOL0     C59672   8.890   9.214   2.488 -0.2858  0.4635 -0.4034
  443MOL0     O59673   8.936   9.148   2.372  0.9229 -0.4788 -0.2237
  443MOL0     C59674   8.857   9.036   2.336 -0.1731 -0.7536  1.4579
  443MOL0     C59675   8.925   8.903   2.348  0.1523  0.1327  1.2735
  443MOL0     C59676   8.861   8.792   2.296  0.2448 -0.1644 -1.3595
  443MOL0     C59677   8.731   8.808   2.249  0.8663  0.3242 -0.2197
  443MOL0     O59678   8.670   8.693   2.227 -0.2848 -0.4257 -0.2293
  443MOL0     C59679   8.532   8.700   2.167  0.1120 -1.0959 -0.6480
  443MOL0     C59680   8.485   8.560   2.129  0.5117 -0.5800 -0.3126
  443MOL0     C59681   8.348   8.542   2.068  0.5170 -0.1371  0.3628
  443MOL0     C59682   8.328   8.392   2.020  0.2588  0.3999  0.3253
  443MOL0     C59683   8.182   8.368   1.968 -0.1155  0.7051  0.3889
  443MOL0     C59684   8.150   8.219   1.951 -0.6844  0.5395  0.2481
  443MOL0     C59685   8.007   8.182   1.916  0.3249  0.1420  0.0843
  443MOL0     C59686   7.909   8.212   2.027  0.2608  0.2117 -0.8035
  443MOL0     N59687   7.776   8.161   1.985 -0.1937 -0.9699 -0.1695
  443MOL0     C59688   7.670   8.232   1.929 -0.4050  0.2095  0.3038
  443MOL0     C59689   7.565   8.150   1.908 -0.1253 -0.0979 -0.4797
  443MOL0     C59690   7.430   8.184   1.860  0.7449  0.9321  0.2950
  443MOL0     C59691   7.406   8.323   1.814  0.7867 -0.3806 -0.2115
  443MOL0     C59692   7.453   8.350   1.676 -0.5695  0.4415 -0.4293
  443MOL0     C59693   7.407   8.477   1.606  0.3526  0.1212 -0.4727
  443MOL0     O59694   7.265   8.478   1.588  0.1243 -0.1043  0.2841
  443MOL0     C59695   7.210   8.585   1.522  0.4234 -0.3164  0.2793
  443MOL0     C59696   7.070   8.575   1.505 -0.7040  0.2034 -0.0147
  443MOL0     C59697   6.998   8.680   1.433 -1.0916  1.0893  0.4257
  443MOL0     C59698   6.854   8.653   1.408 -0.3875  0.3563  0.1419
  443MOL0     C59699   7.068   8.795   1.388  0.2746  0.1888 -0.2328
  443MOL0     C59700   7.000   8.913   1.328 -0.4816 -0.7899  1.1949
  443MOL0     O59701   7.080   9.017   1.296  0.1589 -0.0777 -0.4622
  443MOL0     C59702   7.047   9.125   1.216 -0.1537  0.2216 -0.2043
  443MOL0     C59703   6.935   9.138   1.131 -0.5080 -0.2518  0.6463
  443MOL0     C59704   6.914   9.250   1.048  1.0391  0.2147  0.1211
  443MOL0     C59705   7.011   9.347   1.048  0.2639 -0.6830 -0.5783
  443MOL0     O59706   7.004   9.459   0.964  0.6938 -0.4077 -0.0430
  443MOL0     C59707   6.923   9.559   1.039 -0.4564  0.5628  0.5561
  443MOL0     C59708   6.970   9.687   0.960  0.1981 -0.0028  0.2424
  443MOL0     C59709   6.877   9.814   0.972  0.3146 -0.1001 -0.0403
  443MOL0     C59710   6.868   9.861   1.118  0.3166  0.0957  0.3077
  443MOL0     C59711   6.807  10.005   1.132  1.9044  0.1287  0.4693
  443MOL0     C59712   6.662  10.023   1.067 -0.3940 -0.2281 -0.0198
  443MOL0     C59713   6.591  10.149   1.124  0.5443  0.2796  0.5001
  443MOL0     C59714   6.447  10.172   1.087 -0.1765 -0.1143  0.0778
  443MOL0    Cl59715   6.403  10.339   1.127  0.4272  0.2891  0.0471
  443MOL0     C59716   7.116   9.332   1.135 -0.2297  0.4444  0.0960
  443MOL0     C59717   7.132   9.230   1.221 -0.8551 -0.2332  0.5431
  443MOL0     O59718   6.882   8.912   1.299  1.1482 -0.0557  0.0558
  443MOL0     C59719   7.211   8.787   1.401 -0.1976 -0.2304  1.2539
  443MOL0     C59720   7.283   8.687   1.456  0.0883  0.3910 -0.7621
  443MOL0     N59721   7.612   8.024   1.947  0.1172  0.7104  0.3943
  443MOL0     N59722   7.731   8.037   1.995 -0.3619 -1.0900  0.1129
  443MOL0     C59723   8.669   8.930   2.235 -0.0453 -0.3116  0.3038
  443MOL0     C59724   8.721   9.051   2.285  0.6106  0.3069  0.3509
  443MOL0     C59725   8.994   9.286   2.566  0.1615 -0.0568  0.0770
  443MOL0     C59726   8.955   9.388   2.654 -0.9214 -1.1654  0.3525
  443MOL0     C59727   9.062   9.454   2.722 -0.2315 -0.0758 -0.5226
  443MOL0     C59728   9.195   9.428   2.701  0.0935 -0.3243  0.1423
  443MOL0     O59729   9.272   9.492   2.796  0.2189  0.6294 -0.3885
  443MOL0     C59730   9.410   9.452   2.804  0.1868  0.7691 -0.4711
  443MOL0     C59731   9.505   9.521   2.703  0.4264 -0.1456  0.1601
  443MOL0     C59732   9.529   9.666   2.745 -0.9452  0.2818  0.1414
  443MOL0     C59733   9.591   9.754   2.635 -0.9816  0.2692  0.2320
  443MOL0     C59734   9.724   9.717   2.588  0.1057 -0.2041  0.2867
  443MOL0     C59735   9.845   9.706   2.552  0.1555 -0.2497  0.0948
  443MOL0     C59736   9.235   9.342   2.604  0.2277 -0.0073 -0.6528
  443MOL0     C59737   9.131   9.266   2.535  0.2291  0.6654 -0.1210
  443MOL0     H59738   9.027   8.886   2.382  1.0998  1.0242 -0.9050
  443MOL0     H59739   8.909   8.695   2.291  1.1142  0.2170 -0.8418
  443MOL0     H59740   8.466   8.758   2.231 -1.4718 -1.6963 -1.6634
  443MOL0     H59741   8.536   8.767   2.080 -0.4499  0.8196  0.7391
  443MOL0     H59742   8.566   8.525   2.064  1.2656  0.4118  0.0667
  443MOL0     H59743   8.483   8.496   2.218  3.2500  0.1903  0.4046
  443MOL0     H59744   8.269   8.584   2.131  0.6297 -0.9974  1.0912
  443MOL0     H59745   8.344   8.593   1.972 -1.7816 -1.6848 -0.4538
  443MOL0     H59746   8.406   8.369   1.947 -0.8140  2.3816 -1.5498
  443MOL0     H59747   8.358   8.327   2.103 -0.7802  0.6192  0.8890
  443MOL0     H59748   8.103   8.411   2.031 -0.6834 -1.3061  1.1550
  443MOL0     H59749   8.174   8.404   1.865 -0.2327 -4.0605 -1.5119
  443MOL0     H59750   8.217   8.179   1.875  1.3650  2.3760  0.9708
  443MOL0     H59751   8.181   8.170   2.044 -0.0113 -0.2506 -0.3731
  443MOL0     H59752   7.977   8.238   1.827 -0.7385  1.0599  0.9807
  443MOL0     H59753   7.995   8.078   1.884  0.6668  0.7948 -2.3910
  443MOL0     H59754   7.913   8.320   2.043  2.7213 -0.1524  1.6935
  443MOL0     H59755   7.941   8.159   2.117 -0.6614 -0.0526 -0.6179
  443MOL0     H59756   7.672   8.339   1.908  1.2682  0.6667  2.4284
  443MOL0     H59757   7.410   8.112   1.780 -1.3115 -0.1044  1.6496
  443MOL0     H59758   7.357   8.161   1.938 -0.4941 -1.4201 -1.4193
  443MOL0     H59759   7.459   8.400   1.872 -0.4175  1.1015 -1.0059
  443MOL0     H59760   7.301   8.346   1.832  1.0134  0.9534 -0.4250
  443MOL0     H59761   7.416   8.266   1.616  1.5819 -0.3261 -0.7477
  443MOL0     H59762   7.562   8.341   1.675 -0.5570 -2.7962 -5.6898
  443MOL0     H59763   7.471   8.480   1.517 -0.4293  0.0268 -1.0532
  443MOL0     H59764   7.428   8.566   1.666 -0.7464 -1.0868  1.8015
  443MOL0     H59765   7.025   8.491   1.555  2.2367 -0.0014  2.5663
  443MOL0     H59766   6.836   8.674   1.302 -0.2449  1.5202  0.3341
  443MOL0     H59767   6.833   8.548   1.432  1.9917  0.2780  2.2844
  443MOL0     H59768   6.796   8.724   1.468 -2.2112 -0.3219 -0.7204
  443MOL0     H59769   6.852   9.069   1.120 -0.8257  0.4149 -1.5607
  443MOL0     H59770   6.827   9.261   0.983  0.8100 -1.8132  0.0236
  443MOL0     H59771   6.816   9.544   1.017  0.0006  0.1622 -1.6651
  443MOL0     H59772   6.940   9.555   1.147 -1.9279  1.0546  0.8285
  443MOL0     H59773   7.073   9.709   0.989 -0.2523  1.6369  0.7383
  443MOL0     H59774   6.978   9.673   0.852  0.5372  1.3349  0.0698
  443MOL0     H59775   6.773   9.792   0.945 -0.0885  1.3865  0.2101
  443MOL0     H59776   6.919   9.891   0.908 -0.2566  0.5054  0.2977
  443MOL0     H59777   6.802   9.798   1.178 -2.3980 -0.0232 -2.5608
  443MOL0     H59778   6.973   9.868   1.148  0.8201  0.8529 -1.4805
  443MOL0     H59779   6.872  10.071   1.073  2.0318 -0.7257 -0.3684
  443MOL0     H59780   6.793  10.038   1.236  2.2688 -1.2515  0.9746
  443MOL0     H59781   6.672  10.033   0.959  1.0360 -2.2842 -0.1493
  443MOL0     H59782   6.603   9.936   1.097 -1.1120  0.4825  0.6825
  443MOL0     H59783   6.649  10.233   1.087  1.6817 -0.4479  0.5673
  443MOL0     H59784   6.601  10.148   1.233  0.2793  0.4353  0.5260
  443MOL0     H59785   6.373  10.106   1.133  0.9111 -0.8594  0.8234
  443MOL0     H59786   6.444  10.152   0.979  0.4010 -1.9009  0.3596
  443MOL0     H59787   7.182   9.416   1.152 -1.6955  1.9232 -1.0898
  443MOL0     H59788   7.213   9.228   1.293 -1.4142 -1.3252  1.1697
  443MOL0     H59789   7.272   8.866   1.358  0.0823 -1.7841 -1.4546
  443MOL0     H59790   7.391   8.689   1.458  0.2876 -3.7617  0.6246
  443MOL0     H59791   8.564   8.947   2.212  0.2429  1.3375  0.0767
  443MOL0     H59792   8.665   9.144   2.289  0.4697  0.2747 -0.5977
  443MOL0     H59793   8.849   9.405   2.671 -0.8768 -0.4844 -0.0188
  443MOL0     H59794   9.041   9.527   2.800  2.0984 -0.8395  0.9162
  443MOL0     H59795   9.456   9.474   2.901  0.4524 -1.3254 -0.0792
  443MOL0     H59796   9.407   9.343   2.800  3.3640  0.6234 -1.6733
  443MOL0     H59797   9.466   9.523   2.601  0.8163  1.7967  0.0081
  443MOL0     H59798   9.605   9.477   2.695  1.0336  1.2173 -0.0130
  443MOL0     H59799   9.602   9.670   2.826  0.4477 -1.0124 -0.9703
  443MOL0     H59800   9.440   9.720   2.776 -0.6321  0.2491  1.1172
  443MOL0     H59801   9.598   9.860   2.658  1.8963  0.8965 -2.7942
  443MOL0     H59802   9.519   9.744   2.553 -4.8462 -1.0723  3.4649
  443MOL0     H59803   9.945   9.683   2.521  0.3240 -0.1048  0.5225
  443MOL0     H59804   9.339   9.314   2.594  0.2691  0.9224 -3.3948
  443MOL0     H59805   9.172   9.198   2.461  2.4058  1.4431  0.2864
  444MOL0     O59806   7.243   7.405   3.415 -0.1882  0.7956 -0.0965
  444MOL0     C59807   7.189   7.452   3.309 -0.5587 -0.1523 -0.0531
  444MOL0     O59808   7.253   7.503   3.197  0.1724  0.7861 -0.1005
  444MOL0     C59809   7.392   7.515   3.206  0.1236 -0.0816  0.3729
  444MOL0     C59810   7.450   7.628   3.152 -0.1382  0.2035  0.6664
  444MOL0     C59811   7.585   7.650   3.149 -0.2236 -0.0344 -0.2156
  444MOL0     C59812   7.673   7.551   3.191  0.5136 -0.8442  0.1823
  444MOL0     O59813   7.808   7.575   3.173 -0.4786 -0.2715 -0.2487
  444MOL0     C59814   7.869   7.696   3.113  0.3499  1.0725 -0.0179
  444MOL0     C59815   7.997   7.648   3.036 -0.6894 -0.4203 -0.0501
  444MOL0     C59816   7.976   7.604   2.892 -0.4594  0.2806  0.6128
  444MOL0     C59817   8.108   7.558   2.836 -0.2037  0.0732  0.3155
  444MOL0     C59818   8.110   7.534   2.684 -0.1879 -0.0827 -0.2172
  444MOL0     C59819   8.252   7.573   2.638 -0.3970 -0.0726  0.2305
  444MOL0     C59820   8.268   7.549   2.485 -0.3774  0.0574  0.4101
  444MOL0     C59821   8.409   7.584   2.436 -0.1294 -0.3379 -0.0181
  444MOL0     N59822   8.509   7.490   2.489  0.1370  0.3425  0.1623
  444MOL0     C59823   8.530   7.368   2.435 -0.1471 -0.1419  0.0222
  444MOL0     C59824   8.637   7.321   2.499  0.2256 -0.3120  0.4348
  444MOL0     C59825   8.704   7.193   2.459  0.3266 -0.9195 -0.3263
  444MOL0     C59826   8.816   7.199   2.356  0.0795  0.1586 -1.2279
  444MOL0     C59827   8.877   7.061   2.331 -1.1851  0.7776 -0.6398
  444MOL0     C59828   9.036   7.047   2.358  1.3449 -0.3128  0.1609
  444MOL0     O59829   9.062   6.910   2.337  0.0519 -0.0521 -0.3277
  444MOL0     C59830   9.176   6.842   2.383  0.4088  0.5940  0.6493
  444MOL0     C59831   9.271   6.909   2.452 -0.1934 -0.7487 -1.0974
  444MOL0     C59832   9.380   6.844   2.518  0.9595 -0.1101  0.1368
  444MOL0     C59833   9.478   6.920   2.595 -0.3373 -0.6423 -0.5329
  444MOL0     C59834   9.385   6.703   2.502  0.7573 -0.4837  1.3381
  444MOL0     C59835   9.490   6.628   2.564 -0.3086 -0.3514  0.0605
  444MOL0     O59836   9.513   6.504   2.504 -0.2459 -0.0253 -0.4672
  444MOL0     C59837   9.618   6.419   2.500  0.3295 -0.8786  0.2131
  444MOL0     C59838   9.606   6.310   2.415 -0.0918 -0.7242 -0.0986
  444MOL0     C59839   9.704   6.218   2.400  1.4644 -0.0872  0.0633
  444MOL0     C59840   9.829   6.236   2.452  0.0288  0.4574  1.1376
  444MOL0     O59841   9.923   6.140   2.431 -0.3392  0.1029  0.0925
  444MOL0     C59842  10.044   6.156   2.505  0.5259 -0.6142  0.1453
  444MOL0     C59843  10.149   6.047   2.475 -0.9885 -0.6986 -0.7829
  444MOL0     C59844  10.297   6.100   2.464  0.3382  0.1670 -0.0304
  444MOL0     C59845  10.389   5.985   2.453 -0.6463  0.3894  0.0373
  444MOL0     C59846  10.541   6.028   2.423 -0.1042 -0.1980  0.0746
  444MOL0     C59847  10.619   5.917   2.349  0.0372 -0.3165 -0.7530
  444MOL0     C59848  10.563   5.897   2.208  0.6097 -0.4315  0.7594
  444MOL0     C59849  10.644   5.790   2.139 -0.1630  0.1752  1.1380
  444MOL0    Cl59850  10.601   5.637   2.208  0.0972  0.0864 -0.1237
  444MOL0     C59851   9.846   6.353   2.529 -0.6544 -0.3583  0.2733
  444MOL0     C59852   9.737   6.432   2.564 -0.2508 -1.4879  0.7649
  444MOL0     O59853   9.558   6.670   2.661  0.0771 -0.0019  0.3346
  444MOL0     C59854   9.285   6.634   2.433 -1.0566  0.6959  0.7646
  444MOL0     C59855   9.187   6.703   2.377  0.4341  0.1309  0.8612
  444MOL0     N59856   8.677   7.418   2.590 -0.1917 -0.7363  0.5100
  444MOL0     N59857   8.585   7.511   2.598  0.0676 -0.0386  0.3859
  444MOL0     C59858   7.622   7.432   3.240  0.1152  0.1862  0.3618
  444MOL0     C59859   7.483   7.411   3.243  0.4151 -0.4936 -0.3591
  444MOL0     C59860   7.044   7.468   3.306 -0.2636 -0.3657 -0.1714
  444MOL0     C59861   6.958   7.407   3.394  0.0135  0.3764 -0.1699
  444MOL0     C59862   6.817   7.432   3.399  0.4880 -0.5479 -0.2771
  444MOL0     C59863   6.757   7.520   3.296  0.6191 -0.3451 -0.6885
  444MOL0     O59864   6.619   7.538   3.277 -0.1779 -0.0469  0.3936
  444MOL0     C59865   6.527   7.546   3.389 -0.3764 -0.1531  0.2214
  444MOL0     C59866   6.382   7.490   3.361  0.1627  0.5787  0.6108
  444MOL0     C59867   6.397   7.330   3.356  0.2276  0.6459  0.3283
  444MOL0     C59868   6.287   7.278   3.266  0.4478  0.8897  0.1796
  444MOL0     C59869   6.276   7.338   3.132  0.9133  0.5379  0.4030
  444MOL0     C59870   6.261   7.381   3.022  0.5159  0.8757 -0.6622
  444MOL0     C59871   6.848   7.587   3.213 -0.0508  0.5612  0.4008
  444MOL0     C59872   6.987   7.561   3.220 -0.3955 -0.0123  0.7359
  444MOL0     H59873   7.388   7.713   3.128  0.0918  0.7769  2.0007
  444MOL0     H59874   7.623   7.745   3.112  4.2327 -1.2499  0.5643
  444MOL0     H59875   7.795   7.751   3.052 -1.6963 -0.9612  0.4884
  444MOL0     H59876   7.900   7.741   3.207  2.1335  0.4402 -0.2802
  444MOL0     H59877   8.072   7.727   3.046 -1.9376  1.3256 -3.2700
  444MOL0     H59878   8.035   7.561   3.092  2.6777  0.3453 -0.9266
  444MOL0     H59879   7.902   7.523   2.888 -1.9046  1.5265  1.0434
  444MOL0     H59880   7.936   7.686   2.830 -1.5936 -1.5904 -1.2564
  444MOL0     H59881   8.169   7.645   2.860  0.9706 -0.3404 -1.0423
  444MOL0     H59882   8.159   7.470   2.876 -0.2228 -0.6731 -1.2213
  444MOL0     H59883   8.088   7.431   2.655  0.2893 -1.2087  2.9930
  444MOL0     H59884   8.038   7.603   2.641  0.0588  1.1708  1.2685
  444MOL0     H59885   8.270   7.680   2.655 -2.2035  0.5106 -1.1722
  444MOL0     H59886   8.332   7.517   2.686  0.1499  1.4835  1.2056
  444MOL0     H59887   8.230   7.451   2.456 -1.4746  1.2523 -2.6568
  444MOL0     H59888   8.195   7.611   2.431 -2.7252  0.7293  3.9823
  444MOL0     H59889   8.429   7.691   2.451 -0.0925 -0.5487  1.4946
  444MOL0     H59890   8.413   7.578   2.326  0.1094  3.1641 -0.3273
  444MOL0     H59891   8.463   7.324   2.362 -0.2695  2.4841 -1.5794
  444MOL0     H59892   8.729   7.137   2.550 -0.4963 -2.8829 -1.2570
  444MOL0     H59893   8.637   7.119   2.414  0.8033 -1.9203  0.5738
  444MOL0     H59894   8.898   7.255   2.402 -0.2936 -0.7384  0.6322
  444MOL0     H59895   8.789   7.246   2.261 -3.5835 -0.4016 -0.6085
  444MOL0     H59896   8.873   7.054   2.222  0.7675  1.2958 -0.7769
  444MOL0     H59897   8.830   6.980   2.388  0.1393 -0.1907 -0.8971
  444MOL0     H59898   9.062   7.079   2.459 -1.5724 -1.1312  1.2847
  444MOL0     H59899   9.093   7.104   2.284 -0.4890  2.5540  0.7889
  444MOL0     H59900   9.268   7.017   2.449  4.0515 -0.3907  0.6295
  444MOL0     H59901   9.578   6.895   2.559 -0.4935 -1.3166 -0.5252
  444MOL0     H59902   9.462   7.028   2.585  1.5014 -0.3422 -0.5836
  444MOL0     H59903   9.475   6.903   2.703  0.7090  0.2606 -0.3440
  444MOL0     H59904   9.514   6.298   2.359  0.4406  1.2315 -1.5166
  444MOL0     H59905   9.675   6.136   2.335  2.8778  0.4856 -1.3507
  444MOL0     H59906  10.089   6.248   2.464 -1.5744 -0.9431 -3.3090
  444MOL0     H59907  10.022   6.168   2.611 -0.5528 -3.1091  0.2595
  444MOL0     H59908  10.129   5.970   2.549  2.0417 -0.0904  0.8322
  444MOL0     H59909  10.141   6.016   2.371  1.1653 -1.5042 -0.7510
  444MOL0     H59910  10.323   6.160   2.552 -0.1606  0.9029 -0.3761
  444MOL0     H59911  10.307   6.162   2.375  0.2853 -1.4444 -1.2172
  444MOL0     H59912  10.397   5.931   2.547 -0.3610  0.4143  0.0288
  444MOL0     H59913  10.354   5.907   2.384 -1.9754 -0.3001  1.4365
  444MOL0     H59914  10.585   6.063   2.516  0.1158 -1.4154  0.4481
  444MOL0     H59915  10.532   6.119   2.363  0.8078  1.8198  2.8199
  444MOL0     H59916  10.723   5.948   2.335 -0.1324  0.4349 -0.3734
  444MOL0     H59917  10.611   5.834   2.420 -0.8806  1.6852  1.6541
  444MOL0     H59918  10.578   5.993   2.157 -1.1928 -0.4235  0.1888
  444MOL0     H59919  10.455   5.882   2.201  0.7471 -0.9810 -0.3841
  444MOL0     H59920  10.752   5.806   2.147  0.4001 -1.5952 -1.5037
  444MOL0     H59921  10.632   5.794   2.030 -0.8597  0.6923  1.2232
  444MOL0     H59922   9.948   6.367   2.564  0.5192 -1.8989 -2.2416
  444MOL0     H59923   9.756   6.516   2.630  0.2123 -1.5640  0.7306
  444MOL0     H59924   9.269   6.527   2.417  2.8543 -0.7436  4.4007
  444MOL0     H59925   9.100   6.651   2.337  0.5898  0.6334 -0.1593
  444MOL0     H59926   7.690   7.350   3.258 -0.6395 -0.4558  0.3306
  444MOL0     H59927   7.458   7.323   3.301 -1.8805  0.7749  0.7239
  444MOL0     H59928   7.007   7.332   3.455  0.9267  1.3955  0.3860
  444MOL0     H59929   6.750   7.366   3.453  0.6045 -0.5723 -0.1638
  444MOL0     H59930   6.569   7.492   3.473  1.2127  1.6129  0.6320
  444MOL0     H59931   6.515   7.652   3.416 -5.3057 -0.3833 -0.1282
  444MOL0     H59932   6.342   7.539   3.272  1.2713  1.0603  0.3745
  444MOL0     H59933   6.304   7.511   3.435  0.6022  1.6512  0.7848
  444MOL0     H59934   6.380   7.276   3.450 -3.7174 -1.0469 -1.1317
  444MOL0     H59935   6.487   7.299   3.302 -0.2114  0.3949 -0.2746
  444MOL0     H59936   6.191   7.274   3.319  0.9507  1.9023  1.2362
  444MOL0     H59937   6.319   7.174   3.252  3.3663  1.7794 -0.4580
  444MOL0     H59938   6.239   7.410   2.921  2.3494  2.5312 -0.6453
  444MOL0     H59939   6.810   7.664   3.147  1.4741 -1.5790 -3.3188
  444MOL0     H59940   7.049   7.630   3.165 -1.5831  2.7384  2.6397
  445MOL0     O59941   5.122   5.140   9.146  0.6725  0.1776  0.1448
  445MOL0     C59942   5.189   5.080   9.060  0.0078  0.6044 -0.7032
  445MOL0     O59943   5.151   4.952   9.002 -0.2622 -0.0701 -0.1206
  445MOL0     C59944   5.026   4.899   9.038 -0.2980 -0.6991 -0.4347
  445MOL0     C59945   4.910   4.974   9.007  0.4916  0.8973 -0.1835
  445MOL0     C59946   4.781   4.918   9.021  0.7754 -0.1869 -0.1215
  445MOL0     C59947   4.773   4.796   9.080  0.4466 -0.3763  0.3304
  445MOL0     O59948   4.658   4.735   9.095  0.0786  0.1895  0.3650
  445MOL0     C59949   4.544   4.808   9.120  0.0436 -0.6133 -0.4044
  445MOL0     C59950   4.559   4.867   9.265  0.2526 -0.0192  0.0631
  445MOL0     C59951   4.425   4.880   9.343  0.4300 -0.7015 -0.0234
  445MOL0     C59952   4.395   4.742   9.411 -0.2561 -0.1096 -0.3733
  445MOL0     C59953   4.431   4.720   9.557  0.8197 -0.2772  0.1989
  445MOL0     C59954   4.325   4.793   9.649  0.2286  0.7088 -0.0530
  445MOL0     C59955   4.176   4.760   9.642  0.2766  0.0594 -0.1885
  445MOL0     C59956   4.136   4.616   9.689 -0.5111  0.0770  0.7083
  445MOL0     N59957   3.995   4.586   9.685  0.5709 -0.1592  0.2068
  445MOL0     C59958   3.909   4.587   9.578  0.4819 -0.8119 -0.4561
  445MOL0     C59959   3.787   4.611   9.628  0.2273  0.1724  0.0824
  445MOL0     C59960   3.657   4.625   9.549 -1.0130  0.1316 -0.3507
  445MOL0     C59961   3.542   4.562   9.624  0.4025 -0.1743 -0.1703
  445MOL0     C59962   3.523   4.423   9.583 -0.4254  0.6424 -0.0764
  445MOL0     C59963   3.409   4.351   9.652  0.0579  0.0392  0.3319
  445MOL0     O59964   3.400   4.218   9.596 -0.9482  0.8616 -0.3797
  445MOL0     C59965   3.297   4.138   9.630 -0.2959 -0.2763  0.5144
  445MOL0     C59966   3.322   4.011   9.585 -0.4129 -0.4876 -0.6947
  445MOL0     C59967   3.240   3.900   9.620 -0.7098  0.1874 -0.2488
  445MOL0     C59968   3.294   3.746   9.607  1.0597 -0.7287 -0.0307
  445MOL0     C59969   3.126   3.932   9.694 -0.2661  0.3151 -0.3075
  445MOL0     C59970   3.030   3.833   9.757 -0.1129  1.0215  0.2092
  445MOL0     O59971   2.908   3.822   9.714 -0.5617 -0.1395  1.5047
  445MOL0     C59972   2.814   3.745   9.786 -0.2943 -0.4663  0.4291
  445MOL0     C59973   2.826   3.606   9.819 -0.3598  0.4475 -0.4085
  445MOL0     C59974   2.719   3.540   9.877 -0.8237  0.2929 -0.2519
  445MOL0     C59975   2.603   3.599   9.907  1.1268 -0.3720 -0.3368
  445MOL0     O59976   2.522   3.504   9.970  0.5182 -0.0495  0.2845
  445MOL0     C59977   2.392   3.543  10.020  0.4180 -0.2108 -0.1276
  445MOL0     C59978   2.321   3.418  10.066  0.2612 -0.4256 -0.0124
  445MOL0     C59979   2.169   3.439  10.105  0.4997 -0.0361  0.1013
  445MOL0     C59980   2.102   3.309  10.091 -0.1548 -0.9784 -0.6801
  445MOL0     C59981   1.959   3.327  10.144  0.0323 -0.5352  0.8102
  445MOL0     C59982   1.872   3.408  10.044  0.0919 -0.2000  0.1190
  445MOL0     C59983   1.728   3.417  10.099  1.0571  0.0524  0.7241
  445MOL0     C59984   1.628   3.488  10.001 -0.2570  0.4344  0.2152
  445MOL0    Cl59985   1.631   3.392   9.840  0.0382 -0.0696 -0.1600
  445MOL0     C59986   2.582   3.730   9.857  1.1190 -0.4919 -0.1344
  445MOL0     C59987   2.684   3.801   9.796  0.3205 -0.2403  0.6408
  445MOL0     O59988   3.076   3.766   9.853  1.0724  0.5837  0.2407
  445MOL0     C59989   3.101   4.062   9.730  0.8600 -0.2969 -1.0372
  445MOL0     C59990   3.192   4.166   9.713 -0.7391  0.4023 -1.3285
  445MOL0     N59991   3.806   4.629   9.766 -0.5867 -0.4448 -0.4256
  445MOL0     N59992   3.925   4.617   9.794 -0.1413 -0.1565  0.1872
  445MOL0     C59993   4.887   4.721   9.111  0.5662  0.1796  0.8215
  445MOL0     C59994   5.009   4.772   9.090 -0.6333 -0.5605  0.4033
  445MOL0     C59995   5.327   5.127   9.039 -0.0583 -0.5628  0.0483
  445MOL0     C59996   5.419   5.052   8.969 -0.5698  0.0557  0.7666
  445MOL0     C59997   5.548   5.097   8.952  0.0505 -0.0299  0.3592
  445MOL0     C59998   5.596   5.217   9.009 -0.7988 -0.1257 -0.7216
  445MOL0     O59999   5.735   5.243   8.983 -0.0780 -0.2308 -0.4506
  445MOL0     C60000   5.808   5.345   9.053  0.4846  0.2257  0.6882
  445MOL0     C60001   5.957   5.304   9.058  0.4725 -0.9072 -0.5169
  445MOL0     C60002   6.023   5.276   8.916 -0.2929  0.1869  0.0086
  445MOL0     C60003   6.173   5.309   8.916  0.1937 -0.2728 -0.0724
  445MOL0     C60004   6.196   5.451   8.924  0.1199 -0.0693 -1.0814
  445MOL0     C60005   6.231   5.565   8.916 -0.4215  0.6676 -0.1960
  445MOL0     C60006   5.508   5.294   9.083 -0.4614  0.0503 -0.7886
  445MOL0     C60007   5.370   5.258   9.089 -0.6028  1.0278 -0.6911
  445MOL0     H60008   4.922   5.075   8.970  3.4301  1.6970  2.5505
  445MOL0     H60009   4.693   4.977   8.998 -0.0271 -0.7832  1.3056
  445MOL0     H60010   4.521   4.883   9.043 -0.3442  0.5644  0.8066
  445MOL0     H60011   4.460   4.739   9.106  0.5872 -1.2096 -0.7691
  445MOL0     H60012   4.632   4.809   9.321  0.0244  1.0328  1.5063
  445MOL0     H60013   4.602   4.966   9.246 -1.1062  1.0776  2.3068
  445MOL0     H60014   4.416   4.962   9.415 -0.8306 -2.2399  1.6648
  445MOL0     H60015   4.352   4.905   9.266 -0.3523  0.0083  0.9227
  445MOL0     H60016   4.287   4.728   9.401 -0.2333 -0.9334  0.4181
  445MOL0     H60017   4.434   4.655   9.358 -1.6264  0.0712 -1.7445
  445MOL0     H60018   4.418   4.615   9.584 -0.3088 -0.1868  0.0631
  445MOL0     H60019   4.525   4.773   9.576  1.0039 -1.3992  2.9008
  445MOL0     H60020   4.358   4.770   9.751 -1.6302 -2.0764  0.0370
  445MOL0     H60021   4.327   4.902   9.637 -1.6869  0.7032 -0.8334
  445MOL0     H60022   4.131   4.830   9.712  1.0942  1.1016 -0.6589
  445MOL0     H60023   4.131   4.785   9.545 -0.0919  0.9224  0.1969
  445MOL0     H60024   4.177   4.589   9.787 -0.4426  0.5033  0.8035
  445MOL0     H60025   4.175   4.561   9.604  3.3077  0.6886  1.8866
  445MOL0     H60026   3.931   4.558   9.476 -2.8489 -3.1242 -0.6710
  445MOL0     H60027   3.629   4.731   9.554 -3.0773 -0.2354 -2.6023
  445MOL0     H60028   3.673   4.596   9.445  5.1722  3.0643 -0.7014
  445MOL0     H60029   3.462   4.630   9.594  2.1398  1.5075 -1.1617
  445MOL0     H60030   3.560   4.571   9.732  1.0689  0.9502 -0.3564
  445MOL0     H60031   3.611   4.361   9.605 -2.6676 -3.1331 -0.8296
  445MOL0     H60032   3.507   4.424   9.475 -2.7434  1.2397  0.2241
  445MOL0     H60033   3.330   4.417   9.615  0.2602  0.9042  1.3888
  445MOL0     H60034   3.429   4.354   9.759  2.4953  1.2809 -0.0793
  445MOL0     H60035   3.401   3.986   9.515 -1.9660 -3.5640 -1.5380
  445MOL0     H60036   3.372   3.727   9.533  1.9549 -1.7344  1.1324
  445MOL0     H60037   3.322   3.701   9.702  1.3786  0.2846  0.3625
  445MOL0     H60038   3.206   3.686   9.580  1.2291 -0.8939 -0.2159
  445MOL0     H60039   2.918   3.552   9.799 -1.0317 -0.9222  0.0550
  445MOL0     H60040   2.744   3.439   9.908  0.7999 -0.5249 -3.7351
  445MOL0     H60041   2.411   3.607  10.107 -1.2628  1.4062 -0.8849
  445MOL0     H60042   2.343   3.595   9.937  0.0955 -1.8431 -1.0057
  445MOL0     H60043   2.335   3.337   9.994  1.9862 -0.6998  0.5746
  445MOL0     H60044   2.379   3.375  10.148 -0.5351  2.4988  2.2773
  445MOL0     H60045   2.131   3.520  10.042  1.6281  0.5065  0.0980
  445MOL0     H60046   2.157   3.465  10.211  0.5752 -1.6202  0.5282
  445MOL0     H60047   2.095   3.275   9.987  1.7037  2.2406 -2.0207
  445MOL0     H60048   2.156   3.244  10.160 -1.8205 -1.1149  0.5740
  445MOL0     H60049   1.952   3.376  10.241 -2.6359  2.7231 -0.8100
  445MOL0     H60050   1.908   3.232  10.161  1.8200 -1.9232 -1.0365
  445MOL0     H60051   1.904   3.512  10.036 -3.3726  1.0441  0.6982
  445MOL0     H60052   1.882   3.362   9.945  2.0328  1.3814 -0.4915
  445MOL0     H60053   1.723   3.484  10.185 -1.1469 -1.8245  2.1889
  445MOL0     H60054   1.688   3.317  10.121  1.6351 -0.2423  0.4685
  445MOL0     H60055   1.662   3.592   9.992  0.1038  0.3297  0.3282
  445MOL0     H60056   1.532   3.483  10.052 -0.0164 -0.1788  0.6137
  445MOL0     H60057   2.488   3.783   9.871  0.5851 -1.6171  0.8289
  445MOL0     H60058   2.683   3.901   9.754 -2.4738  1.8869  5.0788
  445MOL0     H60059   3.010   4.086   9.784  1.3851  0.8383 -0.6302
  445MOL0     H60060   3.179   4.267   9.752 -0.5434  0.2770 -0.9373
  445MOL0     H60061   4.870   4.620   9.146  2.4015 -0.2155  0.6502
  445MOL0     H60062   5.095   4.711   9.118 -0.8690 -1.8457 -1.5124
  445MOL0     H60063   5.399   4.962   8.912  0.1777  1.1787 -1.3913
  445MOL0     H60064   5.614   5.030   8.897 -1.1251 -1.6316  0.8301
  445MOL0     H60065   5.795   5.438   8.996  0.6794 -0.8104 -1.1067
  445MOL0     H60066   5.767   5.358   9.154  0.3637  3.5195  0.3231
  445MOL0     H60067   5.963   5.212   9.116  0.3717 -2.5539 -2.9860
  445MOL0     H60068   6.028   5.365   9.116  2.4659 -2.2935 -1.4211
  445MOL0     H60069   5.984   5.337   8.834  4.2249 -1.2519 -3.6452
  445MOL0     H60070   6.015   5.172   8.881  2.1560  0.5052 -1.7657
  445MOL0     H60071   6.216   5.279   8.820 -3.6059 -2.2983 -1.3189
  445MOL0     H60072   6.215   5.247   8.997  0.1800 -2.1490 -1.4455
  445MOL0     H60073   6.264   5.665   8.897 -1.5910  0.9945 -0.5913
  445MOL0     H60074   5.538   5.389   9.126 -1.1533 -0.0622 -0.0240
  445MOL0     H60075   5.302   5.325   9.139 -1.9620 -2.1546  2.1407
  446MOL0     O60076   7.942   0.229   1.367  0.7701 -0.6647  1.1902
  446MOL0     C60077   7.963   0.198   1.478  0.7706  0.0881 -0.4125
  446MOL0     O60078   7.869   0.179   1.576 -0.1346 -0.1898  0.3108
  446MOL0     C60079   7.745   0.216   1.554 -1.3076  0.5766 -0.8161
  446MOL0     C60080   7.713   0.341   1.514  0.2162 -0.8177 -0.1900
  446MOL0     C60081   7.571   0.375   1.488  0.2276 -0.0898 -0.2454
  446MOL0     C60082   7.468   0.286   1.539 -0.9503 -1.0551 -0.8551
  446MOL0     O60083   7.340   0.329   1.539  0.2141 -0.5933  0.1294
  446MOL0     C60084   7.236   0.228   1.558 -0.9748 -0.8041  0.7533
  446MOL0     C60085   7.103   0.283   1.514 -0.6556 -0.4707  0.5720
  446MOL0     C60086   7.055   0.373   1.620 -0.4596 -0.4060  1.0939
  446MOL0     C60087   6.909   0.414   1.599 -0.5192  0.0128 -0.3034
  446MOL0     C60088   6.842   0.480   1.724  0.5307 -0.1374 -0.6162
  446MOL0     C60089   6.727   0.553   1.664  0.2296  0.3818 -0.7645
  446MOL0     C60090   6.677   0.653   1.763  0.3078  0.4124 -0.3971
  446MOL0     C60091   6.574   0.750   1.692  0.4612  0.6317  0.0208
  446MOL0     N60092   6.440   0.691   1.676 -1.0600 -0.1447  0.5444
  446MOL0     C60093   6.360   0.642   1.771 -0.0025 -0.5766 -0.3519
  446MOL0     C60094   6.262   0.577   1.709 -0.5575  0.2339 -0.2081
  446MOL0     C60095   6.133   0.521   1.763 -0.1014 -0.7071  0.4807
  446MOL0     C60096   6.118   0.543   1.911  0.1758  0.9270 -0.5957
  446MOL0     C60097   6.154   0.413   1.991  0.0286 -0.2081 -0.3774
  446MOL0     C60098   6.309   0.406   2.012 -0.9358  0.5040 -0.9290
  446MOL0     O60099   6.385   0.392   1.885  0.1140 -0.2205 -0.0597
  446MOL0     C60100   6.395   0.259   1.840  0.3263  0.6370 -0.1120
  446MOL0     C60101   6.360   0.139   1.907 -0.2116 -0.5621 -0.1181
  446MOL0     C60102   6.362   0.012   1.853 -0.6788  0.0986 -0.3558
  446MOL0     C60103   6.293  -0.100   1.929 -0.4184 -0.8121  0.0836
  446MOL0     C60104   6.425  -0.006   1.729 -0.1234  0.0199  0.4558
  446MOL0     C60105   6.441  -0.138   1.665 -1.0606  0.3158  0.5338
  446MOL0     O60106   6.501  -0.135   1.539 -0.2201  0.3573 -0.1950
  446MOL0     C60107   6.547  -0.252   1.488  0.0014 -0.5833 -0.6778
  446MOL0     C60108   6.534  -0.278   1.346  0.0591  0.4166 -0.4132
  446MOL0     C60109   6.573  -0.403   1.286  0.6262  1.0959 -0.1097
  446MOL0     C60110   6.639  -0.499   1.363  0.0729 -0.4093 -0.1162
  446MOL0     O60111   6.708  -0.604   1.299 -0.4727 -0.1192  0.3343
  446MOL0     C60112   6.637  -0.728   1.304  0.0668  1.0287 -0.0027
  446MOL0     C60113   6.708  -0.840   1.220 -0.0716  0.2888 -0.6080
  446MOL0     C60114   6.835  -0.885   1.296 -0.0330 -0.3071 -0.6812
  446MOL0     C60115   6.790  -0.981   1.418  0.9528  0.2812  0.8393
  446MOL0     C60116   6.913  -1.031   1.501  0.7907 -0.8836  0.6158
  446MOL0     C60117   6.865  -1.120   1.618  0.4446  0.5822 -0.2195
  446MOL0     C60118   6.778  -1.241   1.577 -0.1146  0.5032 -0.6861
  446MOL0     C60119   6.756  -1.344   1.687 -0.9851 -0.2272  0.0547
  446MOL0    Cl60120   6.913  -1.435   1.691  0.5057  0.0210 -0.1399
  446MOL0     C60121   6.655  -0.476   1.495 -0.1935 -0.1143 -0.6803
  446MOL0     C60122   6.602  -0.357   1.561  0.5151  0.4841 -0.3592
  446MOL0     O60123   6.418  -0.233   1.736 -0.0600  0.0905  1.0024
  446MOL0     C60124   6.473   0.106   1.660  0.3056 -0.0645 -0.7781
  446MOL0     C60125   6.460   0.235   1.718 -0.2401  0.1997 -0.5849
  446MOL0     N60126   6.282   0.595   1.566  0.2222  0.5918 -0.2339
  446MOL0     N60127   6.392   0.658   1.553  0.3794  0.8121 -0.0933
  446MOL0     C60128   7.514   0.165   1.591 -0.2275 -0.2086 -0.1775
  446MOL0     C60129   7.648   0.131   1.592  0.9096  0.1314 -0.0685
  446MOL0     C60130   8.102   0.159   1.511 -0.0791  0.2117  0.9453
  446MOL0     C60131   8.151   0.172   1.642  0.4543  0.2852 -0.0844
  446MOL0     C60132   8.275   0.121   1.684  0.6458 -0.5827 -0.2435
  446MOL0     C60133   8.353   0.051   1.595  0.1733  0.1188 -0.1536
  446MOL0     O60134   8.471  -0.009   1.639  0.0323  0.3992  0.5914
  446MOL0     C60135   8.519  -0.126   1.581  0.3551  0.0033 -0.1657
  446MOL0     C60136   8.664  -0.165   1.629  0.3536 -0.9709  0.3185
  446MOL0     C60137   8.774  -0.072   1.569  0.3681 -0.0761 -1.0511
  446MOL0     C60138   8.914  -0.121   1.603  0.2942  0.5936  0.4336
  446MOL0     C60139   9.023  -0.040   1.558 -0.5865 -0.5398 -0.1639
  446MOL0     C60140   9.119   0.026   1.518 -0.4796  0.4029  0.5644
  446MOL0     C60141   8.303   0.036   1.462 -0.1859 -0.1812 -0.0473
  446MOL0     C60142   8.189   0.099   1.416 -0.0399  0.0391  0.6389
  446MOL0     H60143   7.795   0.412   1.501 -0.2772  0.0670  1.3798
  446MOL0     H60144   7.549   0.471   1.441  0.0851  0.5038  0.9758
  446MOL0     H60145   7.248   0.141   1.492 -0.1360 -0.0277 -0.1491
  446MOL0     H60146   7.246   0.197   1.662 -1.7582  2.1371  1.7880
  446MOL0     H60147   7.097   0.330   1.415 -4.5430  1.5128  1.5360
  446MOL0     H60148   7.039   0.195   1.504  0.8590 -1.4411 -1.1092
  446MOL0     H60149   7.064   0.327   1.719 -0.0351 -1.4331  0.5909
  446MOL0     H60150   7.112   0.466   1.627 -0.6634 -0.2104  0.2661
  446MOL0     H60151   6.899   0.475   1.509 -3.4023 -1.5109 -1.1558
  446MOL0     H60152   6.850   0.323   1.586 -0.3082  0.0359 -1.6236
  446MOL0     H60153   6.810   0.415   1.806 -1.1094  2.9193  1.3430
  446MOL0     H60154   6.913   0.556   1.756  2.4728 -1.7472 -0.9081
  446MOL0     H60155   6.755   0.613   1.577 -2.3811  2.4587 -0.2907
  446MOL0     H60156   6.649   0.482   1.634 -1.1309  2.0081 -1.2102
  446MOL0     H60157   6.650   0.599   1.855  2.6940  0.7070  0.5481
  446MOL0     H60158   6.762   0.716   1.789  0.6787  0.0874 -0.8153
  446MOL0     H60159   6.605   0.791   1.596 -0.4518  1.4557  0.0685
  446MOL0     H60160   6.568   0.836   1.759  0.2188 -1.7802  3.3453
  446MOL0     H60161   6.364   0.652   1.879  0.5300 -2.1018 -0.2091
  446MOL0     H60162   6.049   0.571   1.715 -1.2839 -0.7805  2.3566
  446MOL0     H60163   6.132   0.418   1.728  2.0771 -0.0304 -1.8600
  446MOL0     H60164   6.010   0.548   1.929  0.1864 -3.6721  2.5269
  446MOL0     H60165   6.157   0.630   1.965 -0.7574 -0.8734  3.3082
  446MOL0     H60166   6.118   0.319   1.948 -0.6335  0.4862 -1.4006
  446MOL0     H60167   6.117   0.434   2.092  1.0990 -0.1077  0.0095
  446MOL0     H60168   6.332   0.329   2.087 -2.3861  1.8798  1.0161
  446MOL0     H60169   6.352   0.500   2.046  1.4921 -1.2263  1.1579
  446MOL0     H60170   6.311   0.152   2.003  0.0215  3.0250 -0.3595
  446MOL0     H60171   6.363  -0.172   1.972 -0.8154 -2.2502 -1.5396
  446MOL0     H60172   6.234  -0.060   2.012  2.3357  1.4741  1.0818
  446MOL0     H60173   6.227  -0.156   1.861  0.3097 -1.5795 -0.0046
  446MOL0     H60174   6.484  -0.206   1.283  1.4147 -0.4264 -2.5641
  446MOL0     H60175   6.555  -0.409   1.179  0.7879  1.8267 -0.1844
  446MOL0     H60176   6.635  -0.751   1.411  1.0671 -1.0820 -0.3991
  446MOL0     H60177   6.537  -0.698   1.272  0.2251  3.6009  1.5890
  446MOL0     H60178   6.650  -0.933   1.213  1.9562 -1.0335 -0.6051
  446MOL0     H60179   6.736  -0.794   1.125  1.9646 -1.3913 -0.9033
  446MOL0     H60180   6.891  -0.795   1.326 -1.2244  0.3159 -0.2623
  446MOL0     H60181   6.908  -0.933   1.230  1.8400  0.7683  0.5048
  446MOL0     H60182   6.714  -0.930   1.479 -1.9682 -0.5483 -1.8481
  446MOL0     H60183   6.742  -1.063   1.364 -0.6504  2.8817 -2.0098
  446MOL0     H60184   6.973  -0.951   1.546  2.3938 -1.5118 -0.3313
  446MOL0     H60185   6.990  -1.074   1.437 -0.8907 -1.1149 -1.3381
  446MOL0     H60186   6.955  -1.160   1.666 -1.6715 -1.6835  2.1117
  446MOL0     H60187   6.802  -1.049   1.672  1.3144  1.0079  0.2686
  446MOL0     H60188   6.834  -1.282   1.492  2.4119  2.8517 -0.2653
  446MOL0     H60189   6.683  -1.214   1.530 -0.1516  0.0612 -0.8714
  446MOL0     H60190   6.680  -1.418   1.660 -0.0424 -0.5901 -1.7445
  446MOL0     H60191   6.734  -1.307   1.788  0.2429 -2.7687  1.3452
  446MOL0     H60192   6.702  -0.559   1.546  0.8439  0.4773 -0.6252
  446MOL0     H60193   6.615  -0.359   1.669  0.1272 -1.2426 -0.3055
  446MOL0     H60194   6.524   0.090   1.565 -0.8733 -0.6777 -1.3344
  446MOL0     H60195   6.505   0.324   1.674 -0.1534  0.5850  0.2545
  446MOL0     H60196   7.449   0.084   1.622 -1.1019 -0.7238 -3.0108
  446MOL0     H60197   7.673   0.038   1.640 -3.7740 -0.4223  1.8385
  446MOL0     H60198   8.088   0.199   1.727  0.3900  1.0227 -0.3536
  446MOL0     H60199   8.308   0.126   1.787 -3.8522  1.5025  1.3561
  446MOL0     H60200   8.450  -0.209   1.598  1.5116 -0.6624  1.5201
  446MOL0     H60201   8.532  -0.125   1.473  0.9118 -3.9195 -0.2620
  446MOL0     H60202   8.672  -0.269   1.595 -0.7946 -0.3346 -2.1027
  446MOL0     H60203   8.670  -0.158   1.738  1.3970  0.3547  0.1977
  446MOL0     H60204   8.749   0.025   1.614 -2.4465 -0.9578 -0.4922
  446MOL0     H60205   8.778  -0.057   1.461  0.8305 -2.2712 -1.3924
  446MOL0     H60206   8.929  -0.221   1.561 -1.6590  0.2958  0.3244
  446MOL0     H60207   8.931  -0.143   1.709  1.3123  1.5291  0.4812
  446MOL0     H60208   9.209   0.074   1.484 -0.7457 -0.0317 -0.7999
  446MOL0     H60209   8.360  -0.006   1.380 -0.5857 -0.4524 -0.1907
  446MOL0     H60210   8.141   0.078   1.321 -1.6523 -0.1734  1.4522
  447MOL0     O60211   4.355   7.767   8.796  0.2145  0.1853  0.1368
  447MOL0     C60212   4.364   7.710   8.903  0.4251 -0.3137 -0.3344
  447MOL0     O60213   4.264   7.689   8.993  0.1599  0.3569 -0.4871
  447MOL0     C60214   4.148   7.767   8.987 -0.0864 -0.3471  0.4020
  447MOL0     C60215   4.039   7.717   9.037  0.9489 -0.4056 -0.0927
  447MOL0     C60216   3.918   7.794   9.050  0.1649 -0.5127 -0.0085
  447MOL0     C60217   3.905   7.922   8.995 -0.0210 -0.6351  0.3246
  447MOL0     O60218   3.793   7.993   8.997  0.2854  0.1220 -0.2398
  447MOL0     C60219   3.665   7.922   9.007  0.7171  0.1637  0.6735
  447MOL0     C60220   3.555   8.030   9.000 -0.2399 -0.8014  0.3854
  447MOL0     C60221   3.421   7.960   9.034  0.4865 -0.8867 -0.5779
  447MOL0     C60222   3.290   8.051   9.051 -0.7177  1.1005 -1.1047
  447MOL0     C60223   3.173   7.953   9.087 -0.4697 -0.9317  0.5873
  447MOL0     C60224   3.038   8.030   9.064 -0.5909  0.1330 -0.2235
  447MOL0     C60225   2.914   7.955   9.116  0.0870  0.4533  0.1323
  447MOL0     C60226   2.866   7.844   9.021 -0.5885  0.3875  0.1553
  447MOL0     N60227   2.742   7.772   9.063 -0.1641  0.2430 -0.4587
  447MOL0     C60228   2.649   7.818   9.155  0.4349 -0.7474 -0.3911
  447MOL0     C60229   2.537   7.745   9.149  0.5904  0.1359 -0.4015
  447MOL0     C60230   2.410   7.765   9.226  0.1684  0.2494 -0.1223
  447MOL0     C60231   2.296   7.671   9.206 -0.0796  0.3559  0.6247
  447MOL0     C60232   2.190   7.702   9.314  0.8896 -0.1747 -0.1936
  447MOL0     C60233   2.077   7.601   9.282  0.1970  0.0216 -0.0999
  447MOL0     O60234   1.976   7.604   9.387  0.1952  0.1564  0.1406
  447MOL0     C60235   1.851   7.546   9.367 -0.0094 -0.6359  0.0812
  447MOL0     C60236   1.766   7.593   9.459  0.4722  0.0870 -0.0608
  447MOL0     C60237   1.633   7.539   9.466  0.1482 -0.7459  0.3641
  447MOL0     C60238   1.538   7.606   9.568  0.2791  0.5739 -0.4912
  447MOL0     C60239   1.590   7.446   9.370  0.4431 -0.3280 -0.3445
  447MOL0     C60240   1.447   7.400   9.356  0.8557  0.7947  0.5316
  447MOL0     O60241   1.364   7.409   9.464 -0.1641 -0.6155 -0.6351
  447MOL0     C60242   1.260   7.324   9.488  0.4832  0.0014 -0.3136
  447MOL0     C60243   1.254   7.283   9.617  0.2301  0.4068 -0.4981
  447MOL0     C60244   1.141   7.216   9.658  0.1963  0.2800  0.6164
  447MOL0     C60245   1.046   7.175   9.562 -0.0027 -0.0408 -0.1991
  447MOL0     O60246   0.934   7.105   9.606  0.8489 -0.0344 -0.1640
  447MOL0     C60247   0.857   7.141   9.732 -0.6009 -0.0319 -0.3189
  447MOL0     C60248   0.732   7.052   9.736 -0.6258 -0.6291  0.5156
  447MOL0     C60249   0.629   7.114   9.641 -0.3529 -0.6008 -0.2428
  447MOL0     C60250   0.499   7.040   9.645 -0.5496  0.4628 -0.9488
  447MOL0     C60251   0.395   7.082   9.541  0.1842  0.2669  1.4728
  447MOL0     C60252   0.272   7.001   9.564 -0.4712 -0.6677  0.4147
  447MOL0     C60253   0.256   6.878   9.462 -0.0838 -0.5818 -0.7594
  447MOL0     C60254   0.372   6.779   9.471 -0.0292 -0.3583  0.6267
  447MOL0    Cl60255   0.373   6.652   9.332 -0.2900  0.3997 -0.4682
  447MOL0     C60256   1.059   7.213   9.431  0.1721  0.2170 -0.3140
  447MOL0     C60257   1.167   7.284   9.396  0.0606  0.8680  0.7343
  447MOL0     O60258   1.423   7.349   9.244  0.8896  0.5432 -0.3228
  447MOL0     C60259   1.689   7.406   9.279 -0.9935  0.3945  1.1349
  447MOL0     C60260   1.824   7.455   9.269  0.5589  0.4813 -0.5206
  447MOL0     N60261   2.580   7.642   9.059  0.6868  0.2621 -0.5135
  447MOL0     N60262   2.684   7.671   9.000 -0.1524  0.1788 -0.2550
  447MOL0     C60263   4.025   7.984   8.948  0.9211  0.4177 -0.4617
  447MOL0     C60264   4.143   7.904   8.936 -0.5000  0.1587  0.3251
  447MOL0     C60265   4.499   7.646   8.930  0.2678 -0.7092 -0.1830
  447MOL0     C60266   4.536   7.612   9.061 -0.1583  0.1593  0.0349
  447MOL0     C60267   4.660   7.562   9.089 -0.7170 -0.0513 -0.0232
  447MOL0     C60268   4.758   7.541   8.990  0.3237 -0.3845 -0.9791
  447MOL0     O60269   4.879   7.471   9.018  0.0159 -0.3438  0.0669
  447MOL0     C60270   4.981   7.436   8.928  0.4894 -0.5403  0.4137
  447MOL0     C60271   5.074   7.555   8.924  0.3377 -0.5049  0.4623
  447MOL0     C60272   5.206   7.526   8.847 -0.1027  0.2601 -0.5940
  447MOL0     C60273   5.191   7.427   8.726 -0.1349  0.5040  0.0443
  447MOL0     C60274   5.320   7.405   8.656 -0.6561 -0.5575 -0.2625
  447MOL0     C60275   5.425   7.385   8.592  0.3528  0.1325  0.1311
  447MOL0     C60276   4.720   7.582   8.860  0.8247  0.5328  0.3973
  447MOL0     C60277   4.595   7.635   8.830  0.4638  0.3712 -0.9206
  447MOL0     H60278   4.049   7.618   9.080 -3.0404 -0.0355  2.2533
  447MOL0     H60279   3.830   7.735   9.075  1.2699 -3.0011 -1.5888
  447MOL0     H60280   3.646   7.845   8.931 -0.8282  1.3589 -0.1955
  447MOL0     H60281   3.654   7.871   9.103  0.6407 -1.6629 -0.2568
  447MOL0     H60282   3.576   8.112   9.069 -1.3257 -1.0480  1.0327
  447MOL0     H60283   3.542   8.071   8.899  1.4786 -4.4067 -1.5044
  447MOL0     H60284   3.408   7.882   8.958 -1.3891 -0.4422 -0.7562
  447MOL0     H60285   3.441   7.911   9.130  1.8414 -0.5290 -0.6604
  447MOL0     H60286   3.302   8.118   9.137  1.0324  0.6944 -1.0039
  447MOL0     H60287   3.262   8.114   8.966 -1.1455  3.2062  0.5081
  447MOL0     H60288   3.168   7.866   9.021 -1.5732 -1.3835  1.2480
  447MOL0     H60289   3.185   7.910   9.187 -4.5033 -1.6113  0.9410
  447MOL0     H60290   3.045   8.105   9.143 -1.6867 -1.4213  1.4604
  447MOL0     H60291   3.018   8.072   8.965 -1.3547 -0.3005 -0.2670
  447MOL0     H60292   2.943   7.896   9.204  2.1203 -0.6992 -1.2213
  447MOL0     H60293   2.832   8.023   9.138  1.1958  1.2518  2.1351
  447MOL0     H60294   2.936   7.761   9.009 -1.0114 -0.2219  1.6937
  447MOL0     H60295   2.861   7.891   8.922  1.2269  2.4750  0.9618
  447MOL0     H60296   2.665   7.898   9.226 -1.7148 -0.5444 -0.0634
  447MOL0     H60297   2.442   7.758   9.330  1.0851  0.1225 -0.3969
  447MOL0     H60298   2.375   7.869   9.219 -1.9624 -0.1340  2.9804
  447MOL0     H60299   2.337   7.572   9.227  2.0843  0.8684 -0.8127
  447MOL0     H60300   2.260   7.687   9.104  0.4795 -0.1092  0.3501
  447MOL0     H60301   2.147   7.801   9.298  0.3599 -0.5341 -1.0539
  447MOL0     H60302   2.237   7.686   9.412 -1.3460 -2.3695  0.6315
  447MOL0     H60303   2.113   7.498   9.277 -0.8570 -0.3879  0.5077
  447MOL0     H60304   2.039   7.613   9.180  0.5721  1.2808 -0.1121
  447MOL0     H60305   1.793   7.672   9.528 -1.9926  2.7658 -1.9368
  447MOL0     H60306   1.515   7.526   9.639  1.8052  1.5163  1.1266
  447MOL0     H60307   1.568   7.695   9.622 -1.0511 -0.6159  2.3864
  447MOL0     H60308   1.452   7.646   9.513  0.7710  1.7820 -0.4081
  447MOL0     H60309   1.333   7.299   9.690 -0.9801 -0.7008  1.1232
  447MOL0     H60310   1.124   7.177   9.758 -1.8755  1.4804  0.8096
  447MOL0     H60311   0.912   7.113   9.823  0.2361 -0.2794 -0.8882
  447MOL0     H60312   0.841   7.248   9.744  1.9669  0.4433 -0.6806
  447MOL0     H60313   0.749   6.946   9.717  1.4449  0.0993 -2.3496
  447MOL0     H60314   0.687   7.048   9.836  2.2573 -1.2148  1.9042
  447MOL0     H60315   0.669   7.120   9.540  1.7822  0.1542  0.5916
  447MOL0     H60316   0.618   7.220   9.667 -2.9073 -0.8217 -0.1162
  447MOL0     H60317   0.534   6.937   9.636  2.5632  1.3734 -0.4977
  447MOL0     H60318   0.458   7.054   9.745  1.3218  1.4538 -0.2854
  447MOL0     H60319   0.438   7.078   9.440 -0.1690  2.2967  1.1958
  447MOL0     H60320   0.374   7.189   9.556 -0.3038  0.5253 -0.6979
  447MOL0     H60321   0.270   6.960   9.665  1.7799 -0.5626  0.5443
  447MOL0     H60322   0.180   7.059   9.549  0.2260  0.4469  0.3846
  447MOL0     H60323   0.251   6.913   9.359  1.3618  2.2042  0.0055
  447MOL0     H60324   0.165   6.819   9.480  0.2414 -0.2600  2.7510
  447MOL0     H60325   0.375   6.729   9.568 -2.1015 -1.2943  0.2713
  447MOL0     H60326   0.470   6.829   9.466  0.0214 -0.5425 -0.4163
  447MOL0     H60327   0.981   7.186   9.360  0.3103  0.0050 -0.3860
  447MOL0     H60328   1.194   7.299   9.292  1.4466 -0.5278  0.8533
  447MOL0     H60329   1.669   7.346   9.191 -2.0229  2.4887 -0.1406
  447MOL0     H60330   1.904   7.425   9.202  0.8704 -1.6856  0.7437
  447MOL0     H60331   4.017   8.090   8.927 -0.1867  0.3597 -0.3917
  447MOL0     H60332   4.228   7.956   8.893 -0.9836 -0.6256 -1.6892
  447MOL0     H60333   4.469   7.624   9.146  3.2391  2.5768  2.6092
  447MOL0     H60334   4.705   7.545   9.186  5.2203  0.4160 -2.2805
  447MOL0     H60335   5.039   7.359   8.980 -1.1759 -1.1300  1.4669
  447MOL0     H60336   4.936   7.401   8.835 -1.6507 -0.3929  1.3301
  447MOL0     H60337   5.094   7.583   9.028 -1.2373  0.0563  0.6542
  447MOL0     H60338   5.027   7.649   8.891 -2.1592 -1.6239  0.5848
  447MOL0     H60339   5.268   7.474   8.922 -1.8361  0.3901  0.9959
  447MOL0     H60340   5.255   7.620   8.820  0.0373 -0.5820 -3.6342
  447MOL0     H60341   5.121   7.470   8.653  1.1349  0.2827 -1.3619
  447MOL0     H60342   5.146   7.332   8.757  0.6108  1.1340  3.3617
  447MOL0     H60343   5.522   7.367   8.550 -0.0716  0.8014 -1.1833
  447MOL0     H60344   4.791   7.568   8.779  2.3756  0.3249  1.7423
  447MOL0     H60345   4.555   7.662   8.733 -1.0570 -1.2385 -0.7710
  448MOL0     O60346   9.382   2.514   3.025 -0.8514 -0.6073  0.1296
  448MOL0     C60347   9.443   2.508   2.918 -0.0412  0.3949 -0.0589
  448MOL0     O60348   9.396   2.552   2.794 -0.8068 -0.1407  0.8562
  448MOL0     C60349   9.268   2.598   2.802 -0.2327  0.8051  0.2788
  448MOL0     C60350   9.248   2.732   2.815  0.2591  0.7893 -0.2556
  448MOL0     C60351   9.116   2.789   2.833  0.7412  0.0303 -0.5716
  448MOL0     C60352   9.005   2.706   2.833  0.0725  0.6052  0.0632
  448MOL0     O60353   8.874   2.742   2.832 -0.3347 -0.5572 -0.4675
  448MOL0     C60354   8.859   2.886   2.851 -0.2982  0.4129  0.7670
  448MOL0     C60355   8.715   2.930   2.853  0.6937 -0.6632  0.2528
  448MOL0     C60356   8.657   2.940   2.707 -0.7065 -0.0646  0.0791
  448MOL0     C60357   8.511   2.967   2.697  0.5088  0.1051  0.8318
  448MOL0     C60358   8.466   2.990   2.550  0.6748 -0.4858 -0.1711
  448MOL0     C60359   8.313   3.000   2.543  0.2375 -0.3443 -0.2751
  448MOL0     C60360   8.263   3.058   2.406  0.4418  0.7536 -0.6915
  448MOL0     C60361   8.255   2.967   2.289 -0.8818  0.4856  0.2001
  448MOL0     N60362   8.133   2.877   2.277 -0.1099 -0.0292  0.1864
  448MOL0     C60363   8.049   2.840   2.172 -0.0567 -0.3777  0.5491
  448MOL0     C60364   7.963   2.745   2.215 -0.8867 -0.3103  0.0150
  448MOL0     C60365   7.850   2.687   2.143  0.6129 -0.0165 -0.6548
  448MOL0     C60366   7.864   2.536   2.148  0.3644 -0.3892  0.2189
  448MOL0     C60367   7.741   2.463   2.096  0.5567  0.3070  0.1842
  448MOL0     C60368   7.761   2.316   2.070 -0.5573  0.4563  0.8235
  448MOL0     O60369   7.635   2.254   2.054  0.2110  0.1498  0.1378
  448MOL0     C60370   7.623   2.119   2.032  0.2412  0.8293 -0.0514
  448MOL0     C60371   7.733   2.037   1.990  0.1064  0.3271  0.0062
  448MOL0     C60372   7.720   1.904   1.994 -0.4680  0.8214  0.0953
  448MOL0     C60373   7.843   1.832   1.946 -0.4536  0.8311  0.1909
  448MOL0     C60374   7.601   1.840   2.039 -0.0221 -0.6022  0.5367
  448MOL0     C60375   7.579   1.693   2.041  0.0853 -0.1653  0.3838
  448MOL0     O60376   7.468   1.657   2.102  0.5983 -0.0285  0.5337
  448MOL0     C60377   7.427   1.521   2.087 -0.0480 -0.2392 -0.2830
  448MOL0     C60378   7.296   1.490   2.048 -0.3850  0.0275  0.4434
  448MOL0     C60379   7.257   1.354   2.039  0.4328  0.6835 -1.1922
  448MOL0     C60380   7.338   1.244   2.084 -0.0212 -0.0726  0.1009
  448MOL0     O60381   7.298   1.110   2.086 -0.5145  0.2218  0.4050
  448MOL0     C60382   7.360   1.023   2.185 -0.4856 -0.0629  0.3677
  448MOL0     C60383   7.250   0.913   2.221  0.0912  0.8057  0.5505
  448MOL0     C60384   7.136   0.975   2.318 -0.3010 -0.3231  0.2108
  448MOL0     C60385   7.027   1.053   2.247  0.0101  0.8658 -0.0552
  448MOL0     C60386   6.908   1.100   2.332 -0.6866 -0.4998  0.4201
  448MOL0     C60387   6.824   0.986   2.381  0.4699  0.8829  0.1894
  448MOL0     C60388   6.694   1.011   2.445 -0.3995  0.4385 -0.0893
  448MOL0     C60389   6.622   0.884   2.487  0.0015 -0.2522 -0.2535
  448MOL0    Cl60390   6.448   0.910   2.526  0.5517 -0.1412 -0.4597
  448MOL0     C60391   7.475   1.279   2.118  0.2574 -0.0697 -0.0104
  448MOL0     C60392   7.510   1.412   2.123 -0.3671 -0.2905 -0.1264
  448MOL0     O60393   7.647   1.622   1.961  0.3201 -0.1008 -0.4561
  448MOL0     C60394   7.495   1.922   2.073  0.6466 -0.7135  0.4490
  448MOL0     C60395   7.507   2.062   2.066  0.1540  1.1278  0.0274
  448MOL0     N60396   7.991   2.718   2.347  0.1766 -0.1093  0.1400
  448MOL0     N60397   8.087   2.799   2.382  1.0522  0.3049  0.5557
  448MOL0     C60398   9.033   2.571   2.813 -0.0236 -0.5363 -0.0644
  448MOL0     C60399   9.159   2.515   2.791 -0.2963 -0.0346  0.5025
  448MOL0     C60400   9.583   2.449   2.920  0.3530 -0.6034 -1.9326
  448MOL0     C60401   9.625   2.382   3.042 -0.8553  0.3644 -0.6808
  448MOL0     C60402   9.759   2.334   3.061  0.5802 -0.5557  0.1868
  448MOL0     C60403   9.844   2.350   2.952 -0.0601  0.0920  0.1688
  448MOL0     O60404   9.969   2.307   2.965  0.0251 -0.3240  0.0871
  448MOL0     C60405  10.082   2.350   2.883  0.0310  0.3530 -0.2495
  448MOL0     C60406  10.103   2.504   2.887 -0.3270 -0.4506 -0.1260
  448MOL0     C60407  10.189   2.550   2.763 -0.7847  0.4269  0.2179
  448MOL0     C60408  10.339   2.501   2.767  0.2574 -0.1696  0.3807
  448MOL0     C60409  10.437   2.575   2.676 -0.4793  0.5976 -0.5804
  448MOL0     C60410  10.532   2.631   2.621  0.0868 -0.0100 -0.1220
  448MOL0     C60411   9.789   2.391   2.823 -0.5494  0.4652  0.7586
  448MOL0     C60412   9.665   2.449   2.818  0.0184 -0.0333 -0.0242
  448MOL0     H60413   9.327   2.804   2.798  2.2222 -1.2689 -0.3452
  448MOL0     H60414   9.105   2.897   2.839  2.8408  0.2368  0.6168
  448MOL0     H60415   8.908   2.916   2.944 -1.1402 -1.0487  1.7200
  448MOL0     H60416   8.907   2.939   2.768  0.7811 -1.5944  0.0543
  448MOL0     H60417   8.649   2.862   2.908 -0.4286 -3.1732 -3.7803
  448MOL0     H60418   8.709   3.031   2.894  2.3161 -1.3889  2.4350
  448MOL0     H60419   8.719   3.016   2.659 -0.9048  0.8692  1.2702
  448MOL0     H60420   8.674   2.846   2.653 -1.0944 -0.3020  0.3592
  448MOL0     H60421   8.456   2.880   2.737  0.8811 -0.6577 -0.2657
  448MOL0     H60422   8.490   3.051   2.764  3.2725 -0.6924  2.9005
  448MOL0     H60423   8.522   3.076   2.510 -0.3486  0.8495  1.1325
  448MOL0     H60424   8.496   2.900   2.496  2.8275 -0.0015  0.1232
  448MOL0     H60425   8.250   2.914   2.567 -1.5126  0.5567 -1.4205
  448MOL0     H60426   8.281   3.071   2.620  0.5145 -0.6850  0.1624
  448MOL0     H60427   8.159   3.082   2.432 -0.0080 -0.1084 -1.6050
  448MOL0     H60428   8.326   3.145   2.384  1.0635  1.1089  2.1615
  448MOL0     H60429   8.348   2.912   2.303  0.6293  2.4659 -1.3346
  448MOL0     H60430   8.261   3.034   2.202  1.2341  0.9361  0.6443
  448MOL0     H60431   8.039   2.896   2.080 -2.2996 -0.0623  0.9376
  448MOL0     H60432   7.762   2.715   2.202  1.9349 -1.4065  2.1470
  448MOL0     H60433   7.854   2.728   2.041  0.2324  1.6603 -0.0145
  448MOL0     H60434   7.882   2.499   2.249  1.1699  0.4710  0.3968
  448MOL0     H60435   7.949   2.511   2.083  0.5433 -1.4917  0.8374
  448MOL0     H60436   7.709   2.504   2.000  0.3768 -0.2066  0.0231
  448MOL0     H60437   7.656   2.485   2.161 -0.0986 -0.2924 -0.4415
  448MOL0     H60438   7.821   2.261   2.143 -0.7505  0.7280  1.1879
  448MOL0     H60439   7.816   2.312   1.976 -1.0691 -0.3722  0.5485
  448MOL0     H60440   7.826   2.080   1.953  2.2420 -2.0832  2.1575
  448MOL0     H60441   7.917   1.905   1.911 -2.1330  1.7750 -1.6173
  448MOL0     H60442   7.870   1.769   2.031  1.3442 -1.0001 -1.6425
  448MOL0     H60443   7.810   1.763   1.868  0.6773  0.1267  0.3179
  448MOL0     H60444   7.226   1.565   2.012 -1.1851  0.0439  1.9515
  448MOL0     H60445   7.159   1.341   1.994 -1.2236  0.5279  2.1991
  448MOL0     H60446   7.448   0.975   2.140 -0.1161  2.2750 -1.6535
  448MOL0     H60447   7.398   1.065   2.278  1.7471 -0.3244 -0.3571
  448MOL0     H60448   7.201   0.895   2.125  2.4444 -2.3415 -0.1888
  448MOL0     H60449   7.290   0.818   2.257 -0.3559 -0.3426 -1.7807
  448MOL0     H60450   7.195   1.039   2.385  1.9227 -2.7070  0.7279
  448MOL0     H60451   7.088   0.897   2.379  1.8922 -0.3396  2.0338
  448MOL0     H60452   7.073   1.135   2.192 -0.9327 -1.4303 -4.7803
  448MOL0     H60453   6.975   0.987   2.177  0.2879 -0.4095  0.9105
  448MOL0     H60454   6.842   1.173   2.284  1.8713 -0.6932 -3.9245
  448MOL0     H60455   6.952   1.154   2.417 -1.6034  2.6261 -0.9611
  448MOL0     H60456   6.803   0.933   2.288  2.5787 -0.4833  0.4331
  448MOL0     H60457   6.884   0.919   2.443  2.8198  1.9606 -0.8111
  448MOL0     H60458   6.634   1.075   2.379  0.1484  1.3058  0.2236
  448MOL0     H60459   6.713   1.068   2.537 -0.5092  0.2969  0.0201
  448MOL0     H60460   6.666   0.848   2.580 -2.9052  2.3638  2.3774
  448MOL0     H60461   6.629   0.811   2.406 -2.6283  2.3410 -3.0399
  448MOL0     H60462   7.549   1.210   2.158  1.2369 -0.1238 -1.8041
  448MOL0     H60463   7.607   1.437   2.166  0.5525  1.0782 -2.7211
  448MOL0     H60464   7.407   1.875   2.115  0.1294 -1.4318 -1.3488
  448MOL0     H60465   7.419   2.113   2.104 -0.8997  1.0170 -2.1103
  448MOL0     H60466   8.940   2.514   2.811 -1.0928  0.9607  2.3114
  448MOL0     H60467   9.173   2.409   2.775 -2.1219 -1.1279  4.5390
  448MOL0     H60468   9.561   2.368   3.129 -1.1019  0.0827 -0.9027
  448MOL0     H60469   9.775   2.279   3.153  0.0419  0.1848  0.7418
  448MOL0     H60470  10.175   2.298   2.909  0.7627  2.3526  1.4172
  448MOL0     H60471  10.053   2.324   2.781 -0.1958  2.1961 -0.6855
  448MOL0     H60472  10.164   2.536   2.972  1.1565  1.8437 -1.9405
  448MOL0     H60473  10.012   2.565   2.891  0.5087  0.8665 -0.7699
  448MOL0     H60474  10.192   2.659   2.759 -0.6176  0.3983 -0.6095
  448MOL0     H60475  10.139   2.513   2.673  0.5220  1.4800 -0.9688
  448MOL0     H60476  10.350   2.397   2.736 -0.1048  0.0393 -0.4734
  448MOL0     H60477  10.379   2.512   2.868  2.2012 -1.1653 -0.2300
  448MOL0     H60478  10.619   2.676   2.578  0.5436  1.2077  1.9642
  448MOL0     H60479   9.858   2.386   2.739  1.4915  1.5187  2.2784
  448MOL0     H60480   9.626   2.480   2.721  0.2637  1.5171  0.3522
  449MOL0     O60481   3.479   7.983   3.265 -0.0135 -0.1801 -0.2978
  449MOL0     C60482   3.470   8.076   3.341  0.3184  0.2870 -0.3288
  449MOL0     O60483   3.567   8.170   3.364 -0.3011 -0.4801  0.3490
  449MOL0     C60484   3.696   8.157   3.341 -0.6325 -0.3707  0.8020
  449MOL0     C60485   3.772   8.055   3.392  1.2999  0.3691  0.0603
  449MOL0     C60486   3.904   8.045   3.382 -0.1178 -0.2480  0.7299
  449MOL0     C60487   3.978   8.143   3.311  0.2650  0.4524 -0.0449
  449MOL0     O60488   4.116   8.150   3.312  0.0418  0.0980 -0.0942
  449MOL0     C60489   4.192   8.081   3.421 -0.5183  0.3087 -0.4182
  449MOL0     C60490   4.338   8.108   3.395 -0.3811  0.1140  0.7706
  449MOL0     C60491   4.365   8.268   3.389  0.2042 -0.1189  0.0798
  449MOL0     C60492   4.513   8.282   3.368  0.2233  0.3583  0.0225
  449MOL0     C60493   4.561   8.436   3.365  0.3543  0.3066 -0.2105
  449MOL0     C60494   4.494   8.538   3.263 -0.3885 -0.0047 -0.9737
  449MOL0     C60495   4.529   8.503   3.116 -0.3116 -0.2809 -0.6378
  449MOL0     C60496   4.462   8.595   3.004  0.3306 -0.1189 -0.1638
  449MOL0     N60497   4.520   8.732   3.014 -0.0635  0.4015  0.4178
  449MOL0     C60498   4.656   8.759   3.014 -0.1178 -0.7311 -0.1575
  449MOL0     C60499   4.658   8.887   3.036  0.8560  0.3598  0.0392
  449MOL0     C60500   4.790   8.964   3.008 -0.1243  0.4565 -0.8132
  449MOL0     C60501   4.791   9.059   2.887  0.9477 -0.3507  1.0173
  449MOL0     C60502   4.738   9.202   2.919  0.0327  0.0109 -0.6726
  449MOL0     C60503   4.587   9.202   2.950 -1.0808  0.1011 -0.0285
  449MOL0     O60504   4.541   9.335   2.934 -0.2180 -0.4020  0.0319
  449MOL0     C60505   4.411   9.367   2.924  0.4053 -0.0277 -0.5686
  449MOL0     C60506   4.380   9.493   2.887  0.2367 -0.0538 -0.1538
  449MOL0     C60507   4.245   9.531   2.863 -0.2581 -1.0576 -0.7198
  449MOL0     C60508   4.214   9.672   2.823 -1.0063  0.3967  0.4298
  449MOL0     C60509   4.138   9.438   2.889 -0.1077  0.2465  1.0792
  449MOL0     C60510   3.991   9.471   2.856 -0.8538  0.5221  0.9590
  449MOL0     O60511   3.906   9.421   2.946 -0.1092 -0.2650 -0.5562
  449MOL0     C60512   3.779   9.394   2.926 -0.1012 -0.6763  0.1427
  449MOL0     C60513   3.710   9.400   2.806  0.2492 -0.1119  0.3731
  449MOL0     C60514   3.569   9.372   2.803 -0.3323  0.2231 -0.2421
  449MOL0     C60515   3.499   9.350   2.916  0.3469 -0.2817  0.1066
  449MOL0     O60516   3.364   9.316   2.905 -0.1913 -0.0277  0.6514
  449MOL0     C60517   3.273   9.355   3.006 -0.6346  0.0039  0.6004
  449MOL0     C60518   3.135   9.353   2.945  0.3382 -0.3651  0.5965
  449MOL0     C60519   3.063   9.215   2.959  0.2986  0.0115 -0.0900
  449MOL0     C60520   2.931   9.230   2.911  0.0459  0.4491 -0.1693
  449MOL0     C60521   2.861   9.090   2.906 -0.1513 -0.2051  0.0973
  449MOL0     C60522   2.860   9.040   3.045  0.4872 -0.3088 -1.0274
  449MOL0     C60523   2.721   8.983   3.083 -0.2730  0.7448 -0.2270
  449MOL0     C60524   2.687   8.853   3.014 -0.3198 -0.3118 -0.2582
  449MOL0    Cl60525   2.528   8.814   3.070  0.6050 -0.0699 -0.0584
  449MOL0     C60526   3.566   9.340   3.039  1.2886  0.0184 -0.3306
  449MOL0     C60527   3.705   9.362   3.042 -0.9346 -0.1652 -0.6100
  449MOL0     O60528   3.963   9.536   2.747 -0.2115  0.1439  0.2497
  449MOL0     C60529   4.176   9.304   2.918  0.2182 -0.1679  0.3998
  449MOL0     C60530   4.312   9.277   2.947  0.3089  0.1629  0.3625
  449MOL0     N60531   4.536   8.931   3.082  0.1773  1.1244 -0.2765
  449MOL0     N60532   4.454   8.845   3.047  0.3020 -0.3403 -0.2368
  449MOL0     C60533   3.907   8.248   3.253 -0.5918  0.6948  0.1667
  449MOL0     C60534   3.763   8.262   3.269 -0.0498  0.2675  0.1721
  449MOL0     C60535   3.340   8.081   3.419 -1.4926 -0.2926  1.1882
  449MOL0     C60536   3.338   8.165   3.530  0.0388 -0.0381 -0.5099
  449MOL0     C60537   3.227   8.184   3.603 -0.4949 -0.3408 -0.8781
  449MOL0     C60538   3.107   8.119   3.564 -0.0435 -0.4430 -0.3011
  449MOL0     O60539   2.982   8.134   3.624 -0.2282 -0.0688  0.2678
  449MOL0     C60540   2.967   8.184   3.754 -0.0475 -1.0071  0.1788
  449MOL0     C60541   2.944   8.336   3.746  0.1219  0.2111  0.3812
  449MOL0     C60542   2.877   8.391   3.871  0.6662  0.3603  0.3666
  449MOL0     C60543   2.826   8.535   3.850 -0.3459  0.0618 -0.1925
  449MOL0     C60544   2.929   8.626   3.812  0.1018 -0.4308  0.1332
  449MOL0     C60545   3.021   8.686   3.766 -0.1989  0.5921 -0.1932
  449MOL0     C60546   3.114   8.031   3.460 -0.5261 -0.1929  0.9237
  449MOL0     C60547   3.218   8.015   3.382  0.5728  0.5232  0.0367
  449MOL0     H60548   3.721   7.986   3.458 -0.1803 -0.1945 -1.6170
  449MOL0     H60549   3.963   7.972   3.439 -0.3553 -1.1140 -0.1098
  449MOL0     H60550   4.168   8.111   3.524  0.7361  0.2402 -0.0917
  449MOL0     H60551   4.162   7.976   3.412  1.6716 -0.8231  3.3111
  449MOL0     H60552   4.383   8.063   3.483  1.2033  0.2977  0.0867
  449MOL0     H60553   4.376   8.059   3.305  1.2875 -0.6270  1.8331
  449MOL0     H60554   4.313   8.332   3.317  1.0310 -1.1200 -1.4606
  449MOL0     H60555   4.344   8.307   3.489  2.0042 -1.4448  1.0382
  449MOL0     H60556   4.557   8.247   3.462 -0.4466  2.4778  1.1910
  449MOL0     H60557   4.559   8.227   3.286 -0.9747  1.5684 -1.5237
  449MOL0     H60558   4.530   8.482   3.459  1.0037  1.5552 -0.5893
  449MOL0     H60559   4.669   8.432   3.348  0.3639  2.2311 -0.8826
  449MOL0     H60560   4.385   8.549   3.276 -0.4713 -2.6326  1.5974
  449MOL0     H60561   4.531   8.638   3.288 -1.7672  0.2011  0.3826
  449MOL0     H60562   4.638   8.513   3.107 -0.4683  0.1671 -2.3337
  449MOL0     H60563   4.494   8.401   3.096 -0.6113 -1.0260  3.0514
  449MOL0     H60564   4.353   8.593   3.001  0.3393  0.0124 -0.5325
  449MOL0     H60565   4.489   8.557   2.905 -1.0699 -1.9523  0.1069
  449MOL0     H60566   4.722   8.692   2.960 -1.5458 -0.3655 -2.4979
  449MOL0     H60567   4.811   9.024   3.097 -0.5484 -2.1426  1.1788
  449MOL0     H60568   4.875   8.897   2.994  2.0810  3.1843 -1.1651
  449MOL0     H60569   4.728   9.025   2.804  0.6516  0.5230  0.8673
  449MOL0     H60570   4.891   9.085   2.851  0.0238  1.5986 -0.3477
  449MOL0     H60571   4.742   9.258   2.825  2.4891  1.4106  0.1632
  449MOL0     H60572   4.789   9.245   3.006 -1.1915 -0.7882  0.4699
  449MOL0     H60573   4.559   9.169   3.050 -3.0302 -0.2333 -0.6381
  449MOL0     H60574   4.546   9.139   2.870  0.8344 -0.4920 -0.5900
  449MOL0     H60575   4.473   9.548   2.877  1.0997 -1.3543  0.4537
  449MOL0     H60576   4.293   9.742   2.851 -0.8221  0.1576  0.5117
  449MOL0     H60577   4.209   9.682   2.714 -1.3243  0.0617  0.4118
  449MOL0     H60578   4.118   9.707   2.863 -2.0913 -0.0717 -1.6002
  449MOL0     H60579   3.747   9.412   2.705  0.1795 -0.4993  0.2969
  449MOL0     H60580   3.515   9.364   2.709  0.2017  1.7657 -0.7066
  449MOL0     H60581   3.281   9.279   3.085 -2.5445  0.7467  1.5926
  449MOL0     H60582   3.289   9.453   3.052  0.8385 -1.0866  2.5533
  449MOL0     H60583   3.082   9.426   3.007  2.1867  2.2226 -0.7213
  449MOL0     H60584   3.130   9.396   2.844  0.7924 -1.1527  0.2288
  449MOL0     H60585   3.057   9.182   3.063 -5.3409  1.8829  0.5073
  449MOL0     H60586   3.109   9.143   2.890 -1.2716  0.2773 -1.4641
  449MOL0     H60587   2.867   9.293   2.972  1.1965  1.2383  0.2557
  449MOL0     H60588   2.948   9.273   2.812 -2.0936  1.9061  0.0515
  449MOL0     H60589   2.922   9.029   2.838  0.9443  0.4975  0.4356
  449MOL0     H60590   2.761   9.097   2.862  1.1663 -2.8881 -3.8940
  449MOL0     H60591   2.936   8.961   3.053  0.5176 -0.3339 -1.5356
  449MOL0     H60592   2.886   9.115   3.120  0.0139 -0.7492 -0.4038
  449MOL0     H60593   2.649   9.060   3.053  0.5916  0.5770 -3.0231
  449MOL0     H60594   2.725   8.963   3.191  1.6247  0.2981 -0.3366
  449MOL0     H60595   2.770   8.787   3.042  1.7977  1.6932 -1.4644
  449MOL0     H60596   2.701   8.868   2.907  0.5771  2.0929  0.1300
  449MOL0     H60597   3.518   9.320   3.135  0.0803 -0.2636 -0.9772
  449MOL0     H60598   3.767   9.356   3.132  0.2896  2.3678 -1.1844
  449MOL0     H60599   4.101   9.230   2.941  1.2320 -0.8042  1.8009
  449MOL0     H60600   4.331   9.179   2.991  1.4971  0.1911 -0.0491
  449MOL0     H60601   3.969   8.319   3.200  0.6183 -0.3342  0.1414
  449MOL0     H60602   3.723   8.350   3.218  2.3590  0.2843 -1.8850
  449MOL0     H60603   3.434   8.210   3.553  1.1326 -0.9917 -2.9225
  449MOL0     H60604   3.223   8.241   3.696  3.1598 -2.8699  1.0545
  449MOL0     H60605   2.878   8.145   3.804 -0.0639  0.2728  1.1840
  449MOL0     H60606   3.053   8.166   3.820  0.5667 -0.0893 -0.3425
  449MOL0     H60607   2.879   8.350   3.659  0.6298 -1.9067 -0.4044
  449MOL0     H60608   3.037   8.393   3.744  0.2100  0.2403  2.9014
  449MOL0     H60609   2.933   8.385   3.965 -0.3449  3.6485  1.3228
  449MOL0     H60610   2.787   8.335   3.896  1.0527  0.1967  1.4655
  449MOL0     H60611   2.788   8.580   3.942  1.5776 -1.2721  1.3533
  449MOL0     H60612   2.748   8.530   3.774  0.3435 -1.6109 -0.8526
  449MOL0     H60613   3.115   8.732   3.743  1.7335 -3.1091 -0.4572
  449MOL0     H60614   3.017   7.986   3.438 -0.4647  0.3612 -0.6490
  449MOL0     H60615   3.216   7.942   3.302 -0.1905 -0.6707  1.0888
  450MOL0     O60616   4.526   6.847   2.117 -0.3915  0.4425  0.6543
  450MOL0     C60617   4.491   6.753   2.188 -0.1607 -0.3904 -0.6024
  450MOL0     O60618   4.432   6.764   2.313  0.3210 -0.0902  0.3218
  450MOL0     C60619   4.428   6.884   2.373 -0.7492  0.5106  0.0674
  450MOL0     C60620   4.497   6.898   2.492  0.0232 -0.8683 -0.6755
  450MOL0     C60621   4.492   7.018   2.569  0.0314 -0.1358 -0.1585
  450MOL0     C60622   4.420   7.134   2.523  0.4991 -0.3504  0.1173
  450MOL0     O60623   4.398   7.239   2.612  0.4683 -0.0135 -0.1088
  450MOL0     C60624   4.348   7.355   2.549 -0.4776  0.1187  0.4019
  450MOL0     C60625   4.313   7.469   2.640 -0.7766  0.6237  0.2146
  450MOL0     C60626   4.417   7.526   2.734  0.4324 -0.3636  0.0185
  450MOL0     C60627   4.351   7.597   2.855 -0.2039  0.0371  0.1441
  450MOL0     C60628   4.439   7.675   2.938  0.2912  0.0120  0.0011
  450MOL0     C60629   4.505   7.791   2.862  0.2189 -0.2619 -0.3611
  450MOL0     C60630   4.582   7.879   2.967 -0.9286  0.4548  0.6948
  450MOL0     C60631   4.501   7.986   3.034  0.3096 -0.2262  0.2763
  450MOL0     N60632   4.435   8.077   2.944  0.3650 -1.0842  0.8392
  450MOL0     C60633   4.305   8.120   2.953 -0.4181  0.0890 -0.3608
  450MOL0     C60634   4.288   8.205   2.850 -0.0530  0.6034 -0.5457
  450MOL0     C60635   4.162   8.282   2.827  0.5299  0.3169 -0.0649
  450MOL0     C60636   4.192   8.423   2.861  0.0039  0.2360 -0.4251
  450MOL0     C60637   4.087   8.506   2.793  0.3296  1.1836 -0.2446
  450MOL0     C60638   4.092   8.650   2.824 -0.4733 -0.6318 -1.0617
  450MOL0     O60639   4.121   8.660   2.966 -0.0850  0.1676 -0.7187
  450MOL0     C60640   4.015   8.662   3.055 -0.5747  1.0449  0.1477
  450MOL0     C60641   4.060   8.656   3.187  0.8270  0.6120  0.0375
  450MOL0     C60642   3.962   8.641   3.290 -0.7395 -0.3606 -0.2895
  450MOL0     C60643   4.019   8.643   3.432 -0.2215  0.5589  0.2360
  450MOL0     C60644   3.827   8.636   3.262 -1.0305  0.0547 -0.2744
  450MOL0     C60645   3.720   8.632   3.363 -0.4615  0.4545  0.0741
  450MOL0     O60646   3.613   8.567   3.332 -0.0757 -0.1464  0.4083
  450MOL0     C60647   3.486   8.593   3.380  0.3369  1.1426  0.3112
  450MOL0     C60648   3.397   8.495   3.339 -0.8016  0.8579 -0.1438
  450MOL0     C60649   3.268   8.491   3.387  0.4576 -0.0982  0.0183
  450MOL0     C60650   3.209   8.594   3.462 -1.1586 -0.2449 -0.3627
  450MOL0     O60651   3.082   8.598   3.508 -0.1659  0.2152  0.7409
  450MOL0     C60652   2.978   8.552   3.409  0.5744 -0.8293  0.5399
  450MOL0     C60653   2.911   8.682   3.334  1.5998 -0.1564  0.2476
  450MOL0     C60654   2.856   8.789   3.436  0.3099  0.5179 -0.0008
  450MOL0     C60655   2.723   8.743   3.511  0.1573 -0.6240 -0.1877
  450MOL0     C60656   2.675   8.854   3.613 -0.5563  0.7395  0.2340
  450MOL0     C60657   2.527   8.832   3.659  0.0772 -0.2549  0.4201
  450MOL0     C60658   2.481   8.950   3.755  0.1444 -0.5065  0.0119
  450MOL0     C60659   2.467   9.079   3.681  0.2909 -1.1983 -0.3912
  450MOL0    Cl60660   2.371   9.194   3.780 -0.3493 -0.1424 -0.5262
  450MOL0     C60661   3.304   8.689   3.511 -0.4834  0.0153  0.7566
  450MOL0     C60662   3.442   8.689   3.471  0.8786  0.1891  0.2776
  450MOL0     O60663   3.737   8.693   3.471  0.6264 -0.1997  0.1038
  450MOL0     C60664   3.782   8.639   3.132 -0.2859  0.0044 -0.1170
  450MOL0     C60665   3.877   8.644   3.034  0.0078  0.0692 -0.3113
  450MOL0     N60666   4.408   8.217   2.779  0.0581  0.1977 -0.0186
  450MOL0     N60667   4.493   8.143   2.836  0.2992  0.3240 -0.0195
  450MOL0     C60668   4.369   7.127   2.389  0.6358  0.8145  0.0443
  450MOL0     C60669   4.358   6.997   2.328  0.4681 -0.2161  0.1411
  450MOL0     C60670   4.533   6.618   2.149 -1.4916 -0.2654 -0.6295
  450MOL0     C60671   4.532   6.520   2.251  0.5559 -0.4223 -0.8496
  450MOL0     C60672   4.587   6.391   2.236  0.2950  0.6873  0.0128
  450MOL0     C60673   4.636   6.355   2.116 -0.5649 -0.3096  0.6801
  450MOL0     O60674   4.694   6.233   2.111 -0.0492 -0.0708 -0.0925
  450MOL0     C60675   4.721   6.174   1.977 -0.5021  0.7761 -1.1551
  450MOL0     C60676   4.608   6.096   1.915  0.2268  0.2251  0.3518
  450MOL0     C60677   4.591   5.961   1.979  0.0086  0.0426 -0.5787
  450MOL0     C60678   4.484   5.870   1.900 -1.1158 -0.3340 -0.1361
  450MOL0     C60679   4.540   5.824   1.776  0.5992 -0.1113  0.0402
  450MOL0     C60680   4.573   5.776   1.670  0.9856 -0.0575  0.0686
  450MOL0     C60681   4.624   6.447   2.008 -0.7964 -0.2360  0.3937
  450MOL0     C60682   4.584   6.579   2.025 -0.9068 -0.5703  0.2315
  450MOL0     H60683   4.567   6.826   2.533  0.2258  0.3439  1.2477
  450MOL0     H60684   4.531   7.023   2.670 -4.1400 -1.1561  1.7090
  450MOL0     H60685   4.428   7.388   2.482 -0.8811  1.7953  0.7031
  450MOL0     H60686   4.261   7.328   2.488 -0.7647  1.1561  0.3352
  450MOL0     H60687   4.277   7.557   2.586  1.5456  1.8432  0.4784
  450MOL0     H60688   4.234   7.435   2.708  1.2447  2.6090  3.9445
  450MOL0     H60689   4.484   7.448   2.772  3.8791  1.7561 -1.2045
  450MOL0     H60690   4.484   7.592   2.678 -0.7508  0.5114 -0.3965
  450MOL0     H60691   4.260   7.650   2.826 -1.6144  0.8983  5.1624
  450MOL0     H60692   4.307   7.525   2.925 -0.1997 -2.3785 -2.1978
  450MOL0     H60693   4.376   7.720   3.015 -0.5672 -1.5052  0.2052
  450MOL0     H60694   4.525   7.612   2.965  2.1411  3.2187  2.3202
  450MOL0     H60695   4.584   7.744   2.803  1.8592  2.5036 -0.5361
  450MOL0     H60696   4.445   7.850   2.792 -1.4547 -2.0014 -0.4689
  450MOL0     H60697   4.625   7.805   3.035  4.8361  1.6281 -1.1885
  450MOL0     H60698   4.678   7.916   2.930 -0.1501 -2.0179  0.1092
  450MOL0     H60699   4.569   8.042   3.099 -2.9254  1.3235  2.5698
  450MOL0     H60700   4.429   7.937   3.099 -0.2375 -4.1597 -2.8272
  450MOL0     H60701   4.224   8.090   3.019 -0.7473 -0.3437 -0.9512
  450MOL0     H60702   4.127   8.269   2.724 -0.0285 -0.8274  0.2616
  450MOL0     H60703   4.081   8.258   2.896 -1.4562  0.1389 -2.3287
  450MOL0     H60704   4.287   8.462   2.825 -0.1911  1.9042  0.6922
  450MOL0     H60705   4.196   8.430   2.971  5.0834 -2.1927 -0.1753
  450MOL0     H60706   3.995   8.462   2.833  1.2318 -0.5951 -0.0286
  450MOL0     H60707   4.106   8.496   2.686  0.4190  2.1951 -0.3383
  450MOL0     H60708   4.000   8.706   2.810  0.4481  2.0883  2.2627
  450MOL0     H60709   4.169   8.693   2.760 -0.4484 -0.7196 -1.0917
  450MOL0     H60710   4.164   8.673   3.215  0.7611  0.0124  0.6563
  450MOL0     H60711   3.968   8.569   3.495  0.4239 -1.4973 -1.5372
  450MOL0     H60712   4.127   8.625   3.437 -0.3997 -0.5634  4.3215
  450MOL0     H60713   4.010   8.737   3.486  2.5253  1.8526 -1.3398
  450MOL0     H60714   3.432   8.410   3.283  2.3440 -0.3819  3.2569
  450MOL0     H60715   3.198   8.415   3.352 -2.6362  3.1683 -1.5568
  450MOL0     H60716   3.018   8.493   3.326 -0.1799 -0.5598 -0.0185
  450MOL0     H60717   2.898   8.503   3.464 -0.9647  0.6733 -0.2848
  450MOL0     H60718   2.994   8.734   3.285 -0.6129  5.3381  1.5995
  450MOL0     H60719   2.823   8.669   3.270  0.8090  2.6342  0.6235
  450MOL0     H60720   2.832   8.884   3.388  1.8572  0.5702 -0.7274
  450MOL0     H60721   2.942   8.808   3.501  0.3769 -0.7049  0.2916
  450MOL0     H60722   2.648   8.720   3.435  0.9528 -2.5832 -0.4613
  450MOL0     H60723   2.733   8.651   3.571 -1.8029  1.4247  3.6682
  450MOL0     H60724   2.690   8.952   3.566  2.5215 -0.2144 -1.0676
  450MOL0     H60725   2.745   8.834   3.695 -0.8564 -0.2965  0.2515
  450MOL0     H60726   2.457   8.833   3.576 -1.4829  1.7041  1.6764
  450MOL0     H60727   2.512   8.734   3.705  0.9317 -0.6017 -0.0034
  450MOL0     H60728   2.553   8.954   3.838 -0.1610 -1.1858  0.3227
  450MOL0     H60729   2.382   8.933   3.798  0.6489 -3.9529  0.0909
  450MOL0     H60730   2.414   9.076   3.586  0.4881 -0.0113 -0.5613
  450MOL0     H60731   2.569   9.113   3.660 -0.0902  1.4296  1.4332
  450MOL0     H60732   3.273   8.766   3.581 -1.4333  2.2220 -1.9137
  450MOL0     H60733   3.503   8.765   3.518  2.7324 -1.6290  0.9524
  450MOL0     H60734   3.676   8.635   3.107  0.0806  1.5755 -2.1905
  450MOL0     H60735   3.843   8.630   2.932  2.1137  0.7527 -1.1653
  450MOL0     H60736   4.322   7.206   2.332  0.4375  0.0427 -0.8874
  450MOL0     H60737   4.291   6.992   2.242  1.5302  1.3867 -0.8335
  450MOL0     H60738   4.495   6.552   2.348  1.0460 -0.0121 -0.7986
  450MOL0     H60739   4.606   6.327   2.321 -0.2655 -2.3890 -2.0330
  450MOL0     H60740   4.767   6.250   1.913  2.4918 -1.6915 -2.1879
  450MOL0     H60741   4.800   6.100   1.994 -2.0278 -0.1676  3.2978
  450MOL0     H60742   4.624   6.088   1.807 -2.3004  1.4342 -0.1681
  450MOL0     H60743   4.517   6.156   1.915  0.5048  0.6479  0.6194
  450MOL0     H60744   4.543   5.962   2.077 -0.4811 -0.1497 -0.8074
  450MOL0     H60745   4.692   5.923   1.991  0.2633  1.2236  1.4623
  450MOL0     H60746   4.399   5.936   1.879  0.2858  2.2819  1.8477
  450MOL0     H60747   4.447   5.794   1.968 -4.2697  3.1602  2.4859
  450MOL0     H60748   4.594   5.724   1.579  0.3766 -0.9406  0.4179
  450MOL0     H60749   4.656   6.425   1.907  1.1674  0.7076  0.7555
  450MOL0     H60750   4.583   6.644   1.938  0.8406 -2.2350 -1.1366
  451MOL0     O60751   0.408   2.606   6.411  0.2782  0.1919 -0.0816
  451MOL0     C60752   0.463   2.545   6.315  0.2322 -0.3748  0.3624
  451MOL0     O60753   0.412   2.526   6.191 -0.0795 -0.3202 -0.1724
  451MOL0     C60754   0.282   2.572   6.170 -0.7907  0.2708  1.0427
  451MOL0     C60755   0.246   2.532   6.043 -0.6483 -0.6621 -0.8359
  451MOL0     C60756   0.117   2.575   5.994 -0.3882 -0.0622  0.0752
  451MOL0     C60757   0.039   2.661   6.068  0.8360  0.9833  0.5212
  451MOL0     O60758  -0.069   2.718   6.011  0.4348  0.2652 -0.7066
  451MOL0     C60759  -0.190   2.646   6.004 -0.7308 -0.0936  0.3200
  451MOL0     C60760  -0.231   2.595   5.863 -0.2681 -0.0571  0.1308
  451MOL0     C60761  -0.276   2.687   5.761  1.0649  0.0707  0.0975
  451MOL0     C60762  -0.301   2.605   5.630 -0.9769  0.1476  0.1984
  451MOL0     C60763  -0.348   2.700   5.515 -0.0435  0.3461  0.0419
  451MOL0     C60764  -0.242   2.813   5.481  0.4078  0.3585  1.2090
  451MOL0     C60765  -0.229   2.826   5.333  0.0542 -0.5760 -0.1944
  451MOL0     C60766  -0.352   2.873   5.256 -0.9414 -0.1923 -0.1316
  451MOL0     N60767  -0.409   2.996   5.312 -0.2293 -0.2418  0.0096
  451MOL0     C60768  -0.519   2.987   5.385  0.9224 -0.2357 -0.3749
  451MOL0     C60769  -0.540   3.114   5.427  0.1015  0.8582  0.6552
  451MOL0     C60770  -0.644   3.179   5.494 -0.1760  1.2769  0.3817
  451MOL0     C60771  -0.781   3.102   5.491  0.0678  0.7360 -0.0727
  451MOL0     C60772  -0.863   3.104   5.362  0.9095  0.0079 -0.3251
  451MOL0     C60773  -0.977   3.002   5.347 -0.5195 -0.1909 -0.9252
  451MOL0     O60774  -1.006   2.984   5.205  0.0892  0.0450  0.0333
  451MOL0     C60775  -1.105   2.893   5.158 -0.5955  0.7660 -0.1929
  451MOL0     C60776  -1.136   2.904   5.025  0.8110 -1.2423  0.1146
  451MOL0     C60777  -1.242   2.836   4.959 -0.7587  0.3192 -0.1168
  451MOL0     C60778  -1.273   2.865   4.816 -0.8655  0.6464  0.6004
  451MOL0     C60779  -1.313   2.740   5.030 -0.0191 -0.6204  0.6997
  451MOL0     C60780  -1.440   2.680   4.984  0.5601 -0.4952 -0.0754
  451MOL0     O60781  -1.524   2.746   4.893 -0.0069  0.0048 -0.5645
  451MOL0     C60782  -1.657   2.704   4.878  0.1125 -0.5686  0.0486
  451MOL0     C60783  -1.767   2.793   4.857 -0.6592  0.3372 -0.1572
  451MOL0     C60784  -1.894   2.750   4.831  0.1487 -0.2664 -0.1563
  451MOL0     C60785  -1.924   2.611   4.831  0.8727  0.0876  0.7443
  451MOL0     O60786  -2.054   2.560   4.820 -1.0766 -0.9200 -0.5687
  451MOL0     C60787  -2.163   2.653   4.815 -0.0461 -0.1879 -0.5263
  451MOL0     C60788  -2.203   2.721   4.951 -0.5148 -0.4542 -0.2934
  451MOL0     C60789  -2.332   2.791   4.922 -1.4443 -0.4676  0.1026
  451MOL0     C60790  -2.397   2.826   5.045  0.9245 -0.5350 -0.1431
  451MOL0     C60791  -2.527   2.910   5.010 -0.4941  0.3991 -0.1476
  451MOL0     C60792  -2.600   2.960   5.136 -0.1283 -0.6042 -0.3054
  451MOL0     C60793  -2.716   3.050   5.082 -0.0728 -0.1665  0.0499
  451MOL0     C60794  -2.779   3.139   5.192  0.0994 -0.3092  0.1715
  451MOL0    Cl60795  -2.915   3.220   5.132  0.5434  0.1432  0.1907
  451MOL0     C60796  -1.816   2.518   4.838 -0.4595 -0.8284  0.2018
  451MOL0     C60797  -1.693   2.566   4.869  0.2171  0.4138  0.0780
  451MOL0     O60798  -1.468   2.569   5.033 -0.2882 -0.0067  0.7261
  451MOL0     C60799  -1.274   2.724   5.169  0.7291  0.0840 -0.1822
  451MOL0     C60800  -1.174   2.796   5.228 -0.3089 -0.0123 -1.0971
  451MOL0     N60801  -0.442   3.195   5.367  0.6138 -0.8597  0.4225
  451MOL0     N60802  -0.370   3.129   5.290  0.0943  0.4216 -0.0920
  451MOL0     C60803   0.062   2.685   6.202  0.7690  0.0772 -0.3365
  451MOL0     C60804   0.185   2.641   6.246  0.5147  0.9564  0.1605
  451MOL0     C60805   0.598   2.483   6.336  0.0043 -0.2869  0.1782
  451MOL0     C60806   0.676   2.537   6.437 -0.5627  0.5942  0.1406
  451MOL0     C60807   0.810   2.495   6.444  0.2330  1.3123  0.0174
  451MOL0     C60808   0.856   2.390   6.371  0.0356 -0.5238  0.6500
  451MOL0     O60809   0.980   2.342   6.399 -0.2505 -0.1525  0.5003
  451MOL0     C60810   1.070   2.394   6.302 -1.1006 -0.5063  0.3482
  451MOL0     C60811   1.118   2.538   6.338  0.0388  0.0939  0.9322
  451MOL0     C60812   1.250   2.563   6.263 -0.2100  0.2150  1.0107
  451MOL0     C60813   1.386   2.505   6.320  0.1882 -0.0979  0.0896
  451MOL0     C60814   1.452   2.600   6.405 -0.7194  1.2054 -0.4140
  451MOL0     C60815   1.510   2.671   6.485 -0.5286 -0.0273 -0.8202
  451MOL0     C60816   0.775   2.337   6.277  0.6295  0.1468 -0.4524
  451MOL0     C60817   0.647   2.380   6.261 -0.3866  0.7588  0.2221
  451MOL0     H60818   0.303   2.475   5.971 -0.5234 -1.9785  0.2580
  451MOL0     H60819   0.112   2.554   5.888  1.4708  1.0799 -0.3016
  451MOL0     H60820  -0.189   2.561   6.074  2.0053 -0.5230 -0.0935
  451MOL0     H60821  -0.269   2.710   6.044 -1.7313 -1.2055  0.1769
  451MOL0     H60822  -0.141   2.547   5.823 -0.0800  1.3764 -1.2965
  451MOL0     H60823  -0.307   2.520   5.882 -0.4057 -0.0786 -0.4660
  451MOL0     H60824  -0.368   2.734   5.798 -0.2506 -0.3423 -2.4323
  451MOL0     H60825  -0.201   2.764   5.742  0.4934 -0.0251 -3.0504
  451MOL0     H60826  -0.208   2.558   5.598 -2.2000 -0.6062 -2.4375
  451MOL0     H60827  -0.369   2.522   5.653  1.4709 -2.5391 -1.6058
  451MOL0     H60828  -0.356   2.645   5.421 -1.7786  2.2075 -0.9680
  451MOL0     H60829  -0.442   2.741   5.554  0.1274  0.6838  0.0989
  451MOL0     H60830  -0.271   2.909   5.525  5.0327  1.7289  1.8537
  451MOL0     H60831  -0.146   2.786   5.525  1.9061  0.1289 -1.8898
  451MOL0     H60832  -0.146   2.894   5.312  0.2490 -0.5672  0.5821
  451MOL0     H60833  -0.188   2.731   5.298  0.1883  0.2003 -2.3293
  451MOL0     H60834  -0.432   2.799   5.247 -1.2187 -0.0162  0.7567
  451MOL0     H60835  -0.320   2.908   5.158 -3.0980  0.7294 -0.5782
  451MOL0     H60836  -0.585   2.903   5.405 -1.3727  1.2592 -1.3061
  451MOL0     H60837  -0.620   3.202   5.598  1.9389 -0.1978  0.2935
  451MOL0     H60838  -0.646   3.276   5.444 -1.1491  1.3440  0.5367
  451MOL0     H60839  -0.848   3.152   5.562 -2.7536  0.7434 -2.5146
  451MOL0     H60840  -0.757   3.001   5.524  1.2389  0.8824 -0.4173
  451MOL0     H60841  -0.799   3.097   5.274  1.7315 -1.0251  0.3299
  451MOL0     H60842  -0.915   3.200   5.351  0.8936 -0.0640 -0.9144
  451MOL0     H60843  -1.064   3.046   5.398 -1.8087 -1.1269 -2.2437
  451MOL0     H60844  -0.955   2.906   5.395 -1.5073 -1.7582 -3.4392
  451MOL0     H60845  -1.081   2.976   4.967  0.1501 -0.3597  0.5537
  451MOL0     H60846  -1.301   2.772   4.767  2.6891 -0.2328 -0.0171
  451MOL0     H60847  -1.347   2.945   4.802 -0.9900  0.7585  1.8350
  451MOL0     H60848  -1.181   2.895   4.765 -0.1002 -2.9198 -0.3558
  451MOL0     H60849  -1.741   2.898   4.851  0.4935 -0.0155 -2.6572
  451MOL0     H60850  -1.974   2.822   4.827  0.4933  0.2772  1.7290
  451MOL0     H60851  -2.149   2.734   4.742  0.9121 -1.2386 -1.5554
  451MOL0     H60852  -2.253   2.604   4.776  1.2132 -0.1163 -3.8508
  451MOL0     H60853  -2.217   2.660   5.042  1.6222  1.8098  1.7105
  451MOL0     H60854  -2.140   2.800   4.993 -2.2954 -0.7869  3.4758
  451MOL0     H60855  -2.393   2.725   4.861  1.4652 -2.1896 -1.1475
  451MOL0     H60856  -2.313   2.882   4.864  0.8629 -0.5425  0.6457
  451MOL0     H60857  -2.421   2.736   5.102  0.8658 -0.2803  0.2427
  451MOL0     H60858  -2.335   2.895   5.104  1.6491  1.9986 -3.5118
  451MOL0     H60859  -2.590   2.847   4.947 -2.3484  1.4128  0.6007
  451MOL0     H60860  -2.494   2.996   4.950  0.5056 -0.3660 -0.7229
  451MOL0     H60861  -2.630   2.870   5.192  1.3542 -1.5637 -0.9791
  451MOL0     H60862  -2.542   3.030   5.197 -1.2697  1.2855 -1.2952
  451MOL0     H60863  -2.801   2.989   5.049  0.1828  0.9977 -3.1257
  451MOL0     H60864  -2.685   3.116   5.000  1.6100 -0.1180  0.6771
  451MOL0     H60865  -2.711   3.219   5.223  1.2151 -0.3169 -2.0866
  451MOL0     H60866  -2.797   3.085   5.285  1.6614 -0.0943  0.6290
  451MOL0     H60867  -1.846   2.413   4.841 -0.4714 -0.8111  0.6908
  451MOL0     H60868  -1.614   2.492   4.872 -1.3820 -1.3874 -0.3308
  451MOL0     H60869  -1.335   2.663   5.235  2.7329 -0.3704  1.3496
  451MOL0     H60870  -1.140   2.764   5.326  2.2372 -1.5481 -2.3810
  451MOL0     H60871  -0.006   2.741   6.265 -0.2286 -0.3485 -1.0005
  451MOL0     H60872   0.202   2.658   6.352  2.8309 -1.8508  0.3943
  451MOL0     H60873   0.640   2.622   6.495 -0.7704  0.5531  0.0709
  451MOL0     H60874   0.877   2.542   6.515  1.8538 -0.9088  0.0552
  451MOL0     H60875   1.156   2.327   6.308 -1.2320 -0.8203 -0.9562
  451MOL0     H60876   1.028   2.396   6.200  2.2017  3.5883 -1.2232
  451MOL0     H60877   1.123   2.574   6.441  1.3260  3.0942 -0.0639
  451MOL0     H60878   1.045   2.605   6.292  2.7372  1.7268 -1.2970
  451MOL0     H60879   1.260   2.670   6.242 -0.6397 -0.5463 -4.5755
  451MOL0     H60880   1.241   2.525   6.160  1.0832 -2.2806  1.7293
  451MOL0     H60881   1.454   2.498   6.235 -2.2846  4.8534 -2.7464
  451MOL0     H60882   1.385   2.406   6.367  1.0200 -0.5448 -0.8046
  451MOL0     H60883   1.565   2.749   6.533 -3.0551  1.0261  0.5287
  451MOL0     H60884   0.811   2.245   6.231 -0.3161  0.3137 -1.5899
  451MOL0     H60885   0.587   2.322   6.191 -0.7024  0.7580  0.4954
  452MOL0     O60886  11.306   4.140   4.501 -0.1408 -0.0858  0.5339
  452MOL0     C60887  11.274   4.020   4.532  0.6153 -0.8080  0.3177
  452MOL0     O60888  11.149   3.980   4.533 -0.3903  0.5105 -0.0198
  452MOL0     C60889  11.052   4.044   4.458  0.4390 -0.6894  1.0018
  452MOL0     C60890  11.073   4.079   4.319 -0.7190 -0.5743  0.2325
  452MOL0     C60891  10.975   4.132   4.238  0.0792  0.7019 -0.7461
  452MOL0     C60892  10.851   4.154   4.297  1.0939  0.5643  0.1059
  452MOL0     O60893  10.738   4.188   4.226 -0.0280 -0.5828 -0.5253
  452MOL0     C60894  10.753   4.270   4.107  0.5740 -0.4158 -0.2834
  452MOL0     C60895  10.619   4.320   4.046  0.9982 -0.6043  0.1116
  452MOL0     C60896  10.546   4.412   4.140  0.5088  1.1654 -0.0613
  452MOL0     C60897  10.402   4.366   4.173 -0.5828  0.2931 -0.2310
  452MOL0     C60898  10.306   4.372   4.052 -0.2858 -0.5621  0.4244
  452MOL0     C60899  10.310   4.519   3.995 -0.1330  0.1973 -0.2297
  452MOL0     C60900  10.238   4.527   3.859  0.2455 -0.1529 -0.1155
  452MOL0     C60901  10.308   4.476   3.738  0.1501 -0.3018  0.1732
  452MOL0     N60902  10.238   4.495   3.607  0.1152  0.3518 -0.0890
  452MOL0     C60903  10.200   4.619   3.553 -0.4834  0.8521  0.4374
  452MOL0     C60904  10.122   4.586   3.456  0.1186 -0.2848  0.3801
  452MOL0     C60905  10.039   4.654   3.353 -0.5611 -0.1724  0.6228
  452MOL0     C60906   9.889   4.639   3.372  0.2123  0.2860  0.2496
  452MOL0     C60907   9.838   4.670   3.516 -0.4659 -0.3173 -0.0782
  452MOL0     C60908   9.701   4.596   3.527  0.1572 -0.7295 -0.3255
  452MOL0     O60909   9.618   4.644   3.424 -0.3822 -0.2360 -0.0893
  452MOL0     C60910   9.483   4.595   3.433 -0.4056 -0.2946 -0.2005
  452MOL0     C60911   9.439   4.488   3.509 -0.4218  0.2192 -0.1927
  452MOL0     C60912   9.313   4.431   3.490  0.6898  0.4310 -0.5542
  452MOL0     C60913   9.298   4.284   3.541 -0.2558  0.4533  0.5302
  452MOL0     C60914   9.214   4.506   3.422  0.6018 -0.3334 -0.0229
  452MOL0     C60915   9.073   4.466   3.426 -0.2295 -0.3072 -0.2521
  452MOL0     O60916   9.040   4.403   3.541  0.1220 -0.1528  0.2174
  452MOL0     C60917   8.920   4.344   3.553 -0.4853  0.2743 -0.8725
  452MOL0     C60918   8.825   4.409   3.630  0.2020  0.0096  0.5327
  452MOL0     C60919   8.702   4.343   3.643 -0.6308 -0.5132  0.7201
  452MOL0     C60920   8.663   4.228   3.573 -0.3241 -0.5993  0.4691
  452MOL0     O60921   8.533   4.187   3.600 -0.6806  0.1362 -0.0011
  452MOL0     C60922   8.488   4.064   3.538 -0.4644 -0.0754  0.2379
  452MOL0     C60923   8.353   4.039   3.590 -0.2349  0.0787 -0.4994
  452MOL0     C60924   8.260   4.160   3.573  0.8048 -1.0832 -0.5004
  452MOL0     C60925   8.125   4.117   3.637  0.2549 -0.0088 -0.7960
  452MOL0     C60926   8.011   4.220   3.599  0.4622 -0.0123  0.1950
  452MOL0     C60927   7.883   4.182   3.668 -0.2918 -0.5676  0.1879
  452MOL0     C60928   7.768   4.264   3.612  0.5287  0.2051 -0.3112
  452MOL0     C60929   7.633   4.239   3.685  0.5862 -0.1909  0.2154
  452MOL0    Cl60930   7.525   4.394   3.668  0.1369 -0.1479  0.0725
  452MOL0     C60931   8.759   4.159   3.498  0.1093  0.2102 -0.4716
  452MOL0     C60932   8.885   4.218   3.491 -0.5432 -0.4572  0.5668
  452MOL0     O60933   8.987   4.502   3.342 -0.1025 -0.1711 -0.8502
  452MOL0     C60934   9.254   4.619   3.362  0.5238 -0.3527  0.8332
  452MOL0     C60935   9.383   4.669   3.360  0.4117 -0.4213 -1.0389
  452MOL0     N60936  10.095   4.446   3.466 -0.0817 -0.6891 -0.0794
  452MOL0     N60937  10.168   4.394   3.555 -0.0077 -0.0571  0.1318
  452MOL0     C60938  10.826   4.125   4.432  0.3537 -1.0144 -0.2652
  452MOL0     C60939  10.925   4.069   4.510  1.0432 -1.0228 -0.4223
  452MOL0     C60940  11.378   3.946   4.599  0.4237 -0.1838  0.7894
  452MOL0     C60941  11.505   3.941   4.541 -0.2455  0.3045 -1.0872
  452MOL0     C60942  11.601   3.863   4.599 -0.2844 -0.1867  0.1228
  452MOL0     C60943  11.584   3.802   4.722  1.5153 -0.0528  0.3867
  452MOL0     O60944  11.686   3.721   4.770  0.0528  0.2275  0.0241
  452MOL0     C60945  11.673   3.653   4.897 -1.0774  0.2598 -0.6895
  452MOL0     C60946  11.782   3.548   4.927  0.1185 -0.3028  0.4304
  452MOL0     C60947  11.843   3.465   4.803 -0.6976  0.1676  0.4812
  452MOL0     C60948  11.760   3.338   4.785  0.2871 -0.2615  0.8670
  452MOL0     C60949  11.824   3.244   4.689  0.3294  0.3322 -0.7370
  452MOL0     C60950  11.895   3.177   4.611 -0.4245  0.1927  0.0009
  452MOL0     C60951  11.455   3.798   4.777 -0.2505 -0.1010 -0.2523
  452MOL0     C60952  11.350   3.871   4.715  0.6892  0.7397  0.0397
  452MOL0     H60953  11.166   4.042   4.278 -0.9588 -0.7576 -0.1481
  452MOL0     H60954  11.010   4.167   4.142  0.4081  0.8614 -0.5693
  452MOL0     H60955  10.814   4.357   4.135 -0.4457 -0.6870  3.1927
  452MOL0     H60956  10.817   4.212   4.040  2.5681 -1.1694  2.1348
  452MOL0     H60957  10.638   4.364   3.948 -0.2247 -2.2757 -0.9422
  452MOL0     H60958  10.554   4.233   4.032 -1.9511  1.5564 -0.5256
  452MOL0     H60959  10.598   4.413   4.236 -2.2032 -0.4028  1.5241
  452MOL0     H60960  10.567   4.514   4.105  1.0220  0.4740 -1.8920
  452MOL0     H60961  10.394   4.262   4.205  0.6918 -0.6772 -2.7317
  452MOL0     H60962  10.358   4.428   4.251 -0.1750  0.2032  0.0741
  452MOL0     H60963  10.354   4.307   3.979  0.8487 -0.8748  1.4144
  452MOL0     H60964  10.206   4.338   4.081  0.5222 -1.0954  2.7796
  452MOL0     H60965  10.264   4.589   4.065 -0.1635 -2.0967  2.1740
  452MOL0     H60966  10.410   4.559   3.974 -0.0827  1.2976  1.8732
  452MOL0     H60967  10.146   4.469   3.868  2.4736 -4.3228 -1.3843
  452MOL0     H60968  10.224   4.633   3.837  1.1603 -0.0825 -0.4310
  452MOL0     H60969  10.315   4.368   3.753 -3.5049 -0.4661  1.8672
  452MOL0     H60970  10.409   4.518   3.751 -0.0917 -0.4494  3.3630
  452MOL0     H60971  10.204   4.722   3.589 -1.8028  1.3705 -0.8336
  452MOL0     H60972  10.074   4.757   3.342 -1.9555  0.5836  2.6507
  452MOL0     H60973  10.067   4.606   3.259 -2.1251 -0.7121  0.4034
  452MOL0     H60974   9.864   4.535   3.348 -0.7876  0.8875 -1.5086
  452MOL0     H60975   9.827   4.701   3.306  0.4019  0.5495  0.3172
  452MOL0     H60976   9.835   4.779   3.515 -1.3438 -0.3105 -2.3267
  452MOL0     H60977   9.905   4.640   3.597 -2.0972 -0.1038  1.4143
  452MOL0     H60978   9.651   4.611   3.624 -1.1918 -2.4411 -0.7070
  452MOL0     H60979   9.732   4.492   3.529  1.4148 -0.3618  0.3038
  452MOL0     H60980   9.515   4.436   3.566 -1.5716  0.6602  1.8747
  452MOL0     H60981   9.227   4.215   3.494  2.9098 -2.1393 -0.8727
  452MOL0     H60982   9.393   4.231   3.540  0.2818  1.3564  1.7079
  452MOL0     H60983   9.271   4.285   3.647 -1.7908 -2.1635  0.2570
  452MOL0     H60984   8.843   4.509   3.667 -0.2206  0.3329 -0.1161
  452MOL0     H60985   8.623   4.395   3.695 -0.7454 -1.0072  1.0453
  452MOL0     H60986   8.484   4.087   3.431  0.9194 -1.6698 -0.1944
  452MOL0     H60987   8.555   3.981   3.563  0.1888  0.7300  1.2295
  452MOL0     H60988   8.320   3.951   3.535 -0.9649  1.0879 -1.7465
  452MOL0     H60989   8.356   4.007   3.694  0.2468 -1.2058 -0.8893
  452MOL0     H60990   8.257   4.213   3.477  0.4245 -0.3627 -0.0936
  452MOL0     H60991   8.303   4.240   3.634 -0.4731 -0.2106 -0.7197
  452MOL0     H60992   8.102   4.014   3.607 -0.1132  0.9721 -4.3245
  452MOL0     H60993   8.138   4.119   3.746  0.1841 -3.2717 -0.6216
  452MOL0     H60994   7.985   4.211   3.493  1.7739 -3.4676  0.0333
  452MOL0     H60995   8.032   4.325   3.624 -0.5867  0.5766 -1.2750
  452MOL0     H60996   7.863   4.081   3.630 -0.7298 -0.3432 -0.2018
  452MOL0     H60997   7.890   4.186   3.777 -1.1041  0.9352  0.2182
  452MOL0     H60998   7.760   4.247   3.504  0.8456 -2.9949  0.0744
  452MOL0     H60999   7.809   4.365   3.618  4.0502 -1.1813  2.5894
  452MOL0     H61000   7.660   4.226   3.790 -1.2832 -0.1508  0.7239
  452MOL0     H61001   7.575   4.151   3.655  0.3268 -0.0303  0.2467
  452MOL0     H61002   8.747   4.068   3.440 -0.6078  0.1665 -0.2754
  452MOL0     H61003   8.963   4.167   3.435  1.7647 -0.4725  3.5213
  452MOL0     H61004   9.187   4.685   3.308  2.5862  0.5899 -0.7325
  452MOL0     H61005   9.402   4.761   3.306  2.1607  0.8229  1.4999
  452MOL0     H61006  10.723   4.135   4.464 -0.2282 -2.4373 -1.5549
  452MOL0     H61007  10.908   4.042   4.614  1.2627  1.1953  0.2409
  452MOL0     H61008  11.520   3.990   4.445  2.4002  1.0571 -0.3577
  452MOL0     H61009  11.695   3.852   4.546 -0.4096  2.7379 -0.9132
  452MOL0     H61010  11.674   3.726   4.978  0.5914 -0.5864  0.1075
  452MOL0     H61011  11.580   3.597   4.913  0.5472 -2.3487  0.1987
  452MOL0     H61012  11.751   3.487   5.013 -4.2413  0.9451 -0.0475
  452MOL0     H61013  11.860   3.619   4.958  0.4586  0.3836 -1.8630
  452MOL0     H61014  11.942   3.432   4.834 -1.0067 -0.1748  1.1047
  452MOL0     H61015  11.852   3.519   4.708  1.3705 -0.4742  0.2728
  452MOL0     H61016  11.658   3.360   4.750  0.4621 -0.8086 -0.0224
  452MOL0     H61017  11.751   3.283   4.879 -2.6700 -0.9046  0.3348
  452MOL0     H61018  11.944   3.130   4.529 -2.5072 -3.3305  0.5771
  452MOL0     H61019  11.445   3.748   4.873  1.4580 -0.6983 -0.3458
  452MOL0     H61020  11.253   3.864   4.763  0.5912  1.9849  0.0489
  453MOL0     O61021   0.571   5.361   1.190 -0.1527 -1.0100 -0.0600
  453MOL0     C61022   0.544   5.434   1.096  0.4140  0.1974  0.4975
  453MOL0     O61023   0.413   5.459   1.044 -0.9790  0.5188 -0.7555
  453MOL0     C61024   0.310   5.393   1.099 -1.0446 -0.0160 -0.1183
  453MOL0     C61025   0.318   5.255   1.129 -0.1931  0.1203  0.9122
  453MOL0     C61026   0.214   5.196   1.194 -0.0280  0.8157  0.3739
  453MOL0     C61027   0.098   5.269   1.222  0.0496 -0.1014  0.3223
  453MOL0     O61028  -0.004   5.205   1.291 -0.5009 -0.5130 -0.5570
  453MOL0     C61029   0.001   5.247   1.426  0.5084  0.3579  0.5051
  453MOL0     C61030  -0.086   5.154   1.516  0.0815 -0.4743  1.2237
  453MOL0     C61031  -0.228   5.123   1.475  0.5381  0.4259  0.2956
  453MOL0     C61032  -0.297   5.045   1.589  1.0844 -0.0283 -0.0324
  453MOL0     C61033  -0.434   5.099   1.624  0.1320  0.2668 -0.9075
  453MOL0     C61034  -0.542   5.048   1.530 -0.0319  0.6389 -0.8192
  453MOL0     C61035  -0.647   5.150   1.488  0.5254  0.3638  0.5720
  453MOL0     C61036  -0.741   5.198   1.604 -0.9867 -0.2805 -0.5180
  453MOL0     N61037  -0.856   5.117   1.632 -0.6204 -0.5734  0.2479
  453MOL0     C61038  -0.883   5.039   1.736 -0.4140  0.2478 -0.2077
  453MOL0     C61039  -1.012   4.989   1.712  0.0688 -0.2414  0.5323
  453MOL0     C61040  -1.093   4.898   1.795  0.2303  0.3815  0.1303
  453MOL0     C61041  -1.214   4.967   1.865 -0.7381  0.8356  0.9097
  453MOL0     C61042  -1.265   4.873   1.967 -0.2393 -1.5655 -0.7430
  453MOL0     C61043  -1.409   4.893   2.009  0.9321 -0.8493 -0.7645
  453MOL0     O61044  -1.496   4.851   1.907 -0.0926  0.0084 -0.1716
  453MOL0     C61045  -1.627   4.822   1.939 -0.1768  0.0697 -0.1279
  453MOL0     C61046  -1.699   4.766   1.840 -0.2980  0.2454  1.0715
  453MOL0     C61047  -1.836   4.727   1.860 -0.0261 -1.2052  0.0961
  453MOL0     C61048  -1.891   4.652   1.743  0.7146 -0.0589  0.3699
  453MOL0     C61049  -1.912   4.769   1.981 -0.0763  0.0098 -0.2101
  453MOL0     C61050  -2.053   4.740   2.015 -0.0372 -0.0295  1.0977
  453MOL0     O61051  -2.104   4.797   2.123 -0.2600  0.3923 -0.2905
  453MOL0     C61052  -2.236   4.821   2.131 -0.7748 -0.4660  0.7102
  453MOL0     C61053  -2.326   4.711   2.114  0.1072  0.4941 -0.4100
  453MOL0     C61054  -2.462   4.730   2.108  1.0379  0.0317 -0.1314
  453MOL0     C61055  -2.519   4.856   2.129 -0.8970 -1.0000 -0.9415
  453MOL0     O61056  -2.649   4.870   2.099 -0.7984 -0.1743 -0.7034
  453MOL0     C61057  -2.710   5.001   2.117 -0.0688  0.4847 -0.7079
  453MOL0     C61058  -2.866   4.992   2.090 -0.2312 -0.1246 -0.0771
  453MOL0     C61059  -2.933   5.122   2.112 -0.0525  1.0534 -0.8225
  453MOL0     C61060  -3.073   5.115   2.042  1.0887 -0.4727  0.0131
  453MOL0     C61061  -3.108   5.251   1.977  0.3727  1.0130  0.5090
  453MOL0     C61062  -3.136   5.364   2.076  0.2359 -0.9257  0.3091
  453MOL0     C61063  -3.165   5.486   2.001 -0.2013 -0.4915  0.0450
  453MOL0     C61064  -3.295   5.476   1.925  0.4252  0.3378 -0.1754
  453MOL0    Cl61065  -3.362   5.642   1.890  0.0892 -0.2999  0.3483
  453MOL0     C61066  -2.425   4.960   2.153 -0.6570 -0.2927 -0.6930
  453MOL0     C61067  -2.288   4.947   2.159 -1.0787  1.0205  0.2430
  453MOL0     O61068  -2.115   4.689   1.925 -0.3831  0.4045 -0.2725
  453MOL0     C61069  -1.834   4.840   2.076  0.4317  0.6974  0.0148
  453MOL0     C61070  -1.696   4.865   2.056  0.1899 -0.2805 -0.6679
  453MOL0     N61071  -1.066   5.049   1.602  0.7963 -0.3630 -0.5107
  453MOL0     N61072  -0.972   5.124   1.552 -0.4096  1.2743  0.3322
  453MOL0     C61073   0.089   5.397   1.184 -0.0246 -0.0590  0.8233
  453MOL0     C61074   0.193   5.460   1.122  1.2151 -0.3829 -0.9317
  453MOL0     C61075   0.661   5.502   1.028  0.0995  0.1807 -0.3838
  453MOL0     C61076   0.784   5.447   1.042 -0.4324  0.4685 -0.3020
  453MOL0     C61077   0.890   5.491   0.963 -0.2046  1.0322 -0.3184
  453MOL0     C61078   0.876   5.585   0.868 -0.0354  0.2741  0.1924
  453MOL0     O61079   0.981   5.608   0.782  0.8607 -0.3412  0.5158
  453MOL0     C61080   0.946   5.694   0.670 -0.9585  0.4979 -0.2626
  453MOL0     C61081   1.066   5.720   0.579 -1.0832  0.4367  0.8364
  453MOL0     C61082   1.184   5.791   0.652 -0.4576  0.0728  0.0176
  453MOL0     C61083   1.289   5.853   0.557 -0.2726  0.1410  0.0331
  453MOL0     C61084   1.372   5.946   0.633 -0.1809  0.1988 -0.0972
  453MOL0     C61085   1.434   6.038   0.686  0.0765 -1.3131  0.1948
  453MOL0     C61086   0.748   5.643   0.850 -0.2827 -0.4256 -0.9153
  453MOL0     C61087   0.639   5.596   0.929  0.1905 -0.6376  0.0707
  453MOL0     H61088   0.407   5.196   1.109 -1.6503 -1.1517 -2.6183
  453MOL0     H61089   0.207   5.098   1.240 -0.4650  0.8267  0.3389
  453MOL0     H61090   0.103   5.249   1.466  0.4746  2.5047  0.6279
  453MOL0     H61091  -0.035   5.351   1.427  0.5073  0.3715  2.5670
  453MOL0     H61092  -0.025   5.063   1.526  2.4596  1.0167  1.0810
  453MOL0     H61093  -0.079   5.199   1.616  1.3988 -0.0738  0.9741
  453MOL0     H61094  -0.281   5.213   1.442  3.2632  1.1998 -2.3362
  453MOL0     H61095  -0.235   5.053   1.392 -0.7422 -0.0946  0.8140
  453MOL0     H61096  -0.303   4.939   1.562  1.6830  0.0577 -0.5246
  453MOL0     H61097  -0.238   5.048   1.682 -0.9808  2.2586  1.3281
  453MOL0     H61098  -0.444   5.074   1.730  0.6509 -1.5256 -1.2446
  453MOL0     H61099  -0.430   5.208   1.618  0.1419  0.3447  0.2540
  453MOL0     H61100  -0.492   5.013   1.440 -2.8269 -2.0803 -1.5008
  453MOL0     H61101  -0.606   4.967   1.567  0.2557  1.3393  1.3833
  453MOL0     H61102  -0.592   5.238   1.452  2.5643 -0.8715  0.5377
  453MOL0     H61103  -0.705   5.119   1.400 -2.4959 -1.3016  2.9838
  453MOL0     H61104  -0.770   5.300   1.577  1.5042  0.9274  1.0147
  453MOL0     H61105  -0.677   5.208   1.693  3.3913  0.2285 -3.4211
  453MOL0     H61106  -0.824   5.002   1.819  0.2176 -2.9901 -1.9546
  453MOL0     H61107  -1.123   4.814   1.731 -0.6534 -0.7326  1.9018
  453MOL0     H61108  -1.033   4.855   1.877 -1.0973  1.1073  1.5226
  453MOL0     H61109  -1.296   4.992   1.796 -0.9903  0.8208  1.1997
  453MOL0     H61110  -1.182   5.061   1.909  1.7932  0.4884 -0.0361
  453MOL0     H61111  -1.203   4.902   2.052 -0.9839  1.7245 -1.1565
  453MOL0     H61112  -1.269   4.766   1.946 -1.1298 -3.0597  5.3012
  453MOL0     H61113  -1.440   4.996   2.033  1.5571 -0.7583 -0.2999
  453MOL0     H61114  -1.431   4.827   2.094 -0.6461  0.1997 -0.3052
  453MOL0     H61115  -1.652   4.747   1.743 -0.6661  2.0947  0.4958
  453MOL0     H61116  -1.818   4.646   1.663  0.1491 -2.5174 -0.0466
  453MOL0     H61117  -1.924   4.550   1.764  0.5816 -0.1006 -0.0514
  453MOL0     H61118  -1.980   4.708   1.713  0.7279  0.3841  1.1218
  453MOL0     H61119  -2.290   4.609   2.113  0.9742  0.7936 -0.1936
  453MOL0     H61120  -2.517   4.636   2.097  2.6943 -0.9597 -0.3466
  453MOL0     H61121  -2.708   5.033   2.221 -1.7157 -1.3025 -0.0659
  453MOL0     H61122  -2.673   5.077   2.047 -1.2600 -0.1739 -2.1298
  453MOL0     H61123  -2.896   4.948   1.995 -1.6395 -1.3010  0.8651
  453MOL0     H61124  -2.911   4.911   2.149 -2.2028  1.0013  0.0629
  453MOL0     H61125  -2.867   5.205   2.084  0.7059  0.9676  0.6009
  453MOL0     H61126  -2.951   5.137   2.219 -2.0231 -0.1129 -0.9347
  453MOL0     H61127  -3.078   5.050   1.954 -2.3873  1.2910 -1.2840
  453MOL0     H61128  -3.154   5.080   2.106  0.9268 -0.6544 -0.2871
  453MOL0     H61129  -3.200   5.225   1.925  0.6078 -0.5963  0.8348
  453MOL0     H61130  -3.033   5.283   1.904  0.9310 -1.5639 -0.1359
  453MOL0     H61131  -3.222   5.350   2.142  0.3575  2.3100  1.3216
  453MOL0     H61132  -3.051   5.370   2.145  0.1728 -4.2851  0.8528
  453MOL0     H61133  -3.084   5.516   1.933  0.4878  1.3397  1.5814
  453MOL0     H61134  -3.181   5.563   2.077  1.4161 -0.6956  0.6372
  453MOL0     H61135  -3.371   5.421   1.982 -0.3896  2.2895  0.7080
  453MOL0     H61136  -3.276   5.430   1.827 -1.4567  2.9116 -1.8555
  453MOL0     H61137  -2.472   5.055   2.175  1.6430  0.1105  3.4330
  453MOL0     H61138  -2.220   5.028   2.182  0.7386 -0.3615 -0.0087
  453MOL0     H61139  -1.890   4.890   2.155 -2.9620 -1.3320 -0.8986
  453MOL0     H61140  -1.653   4.929   2.133 -2.5154  0.0711  0.6682
  453MOL0     H61141  -0.009   5.441   1.194 -1.3774 -2.3110 -1.3258
  453MOL0     H61142   0.187   5.567   1.112 -2.2393 -0.3140  0.5426
  453MOL0     H61143   0.808   5.371   1.116  1.8151 -0.6761 -2.0614
  453MOL0     H61144   0.983   5.436   0.965 -1.7751 -1.8765 -1.3785
  453MOL0     H61145   0.880   5.623   0.619 -1.1635 -1.7456  2.8343
  453MOL0     H61146   0.898   5.787   0.703 -0.1638  1.1102 -0.7887
  453MOL0     H61147   1.025   5.779   0.496 -0.9037  0.8040  1.0030
  453MOL0     H61148   1.098   5.630   0.525 -1.7693  1.6185 -1.7359
  453MOL0     H61149   1.225   5.718   0.722 -0.4959  1.0582  1.0868
  453MOL0     H61150   1.139   5.873   0.709  2.5654  0.0647  2.6665
  453MOL0     H61151   1.234   5.904   0.478 -0.4089 -1.1343 -0.7262
  453MOL0     H61152   1.354   5.772   0.523 -0.8126  0.1104 -0.9665
  453MOL0     H61153   1.491   6.117   0.731 -0.2786 -1.2823  0.5993
  453MOL0     H61154   0.732   5.718   0.773  1.7667 -1.3833 -2.3728
  453MOL0     H61155   0.542   5.640   0.910  0.8755  1.2865  0.7425
  454MOL0     O61156   6.590   6.400   3.743  0.2652 -0.5771 -0.0472
  454MOL0     C61157   6.503   6.396   3.659  0.8457  0.2852  0.0156
  454MOL0     O61158   6.375   6.452   3.671 -1.1400  0.7054  1.0349
  454MOL0     C61159   6.351   6.545   3.765  0.1081 -0.1060  0.5163
  454MOL0     C61160   6.438   6.644   3.803 -0.2162 -0.0867 -0.5170
  454MOL0     C61161   6.399   6.729   3.913  0.2136 -0.9250 -0.3042
  454MOL0     C61162   6.272   6.728   3.973 -0.8773  0.3456 -0.1171
  454MOL0     O61163   6.231   6.815   4.067 -0.1661 -0.3422 -0.3749
  454MOL0     C61164   6.129   6.903   4.016 -0.2840  0.0162 -0.7299
  454MOL0     C61165   6.193   7.021   3.929  0.0398 -0.0240 -0.2157
  454MOL0     C61166   6.272   7.099   4.027  1.0010 -0.4799 -0.5266
  454MOL0     C61167   6.308   7.233   3.960 -0.2408 -0.5296 -0.8688
  454MOL0     C61168   6.436   7.291   4.014 -0.3698 -0.3913  0.2313
  454MOL0     C61169   6.396   7.358   4.147 -0.6645  0.4280  0.4850
  454MOL0     C61170   6.510   7.380   4.242 -0.6745  1.1211 -0.9835
  454MOL0     C61171   6.565   7.244   4.300  0.1512 -0.1910 -0.8168
  454MOL0     N61172   6.644   7.262   4.425  0.7110 -0.1048 -0.2974
  454MOL0     C61173   6.777   7.250   4.421  0.5394  0.1894  0.2592
  454MOL0     C61174   6.815   7.251   4.557 -0.0486 -0.2205 -0.5351
  454MOL0     C61175   6.960   7.218   4.592  0.9697  0.0614  0.1225
  454MOL0     C61176   7.063   7.304   4.519  0.2811  0.4769 -0.2610
  454MOL0     C61177   7.210   7.271   4.554  0.2904 -0.6256 -0.0835
  454MOL0     C61178   7.322   7.355   4.484  0.2926  0.3429 -0.2862
  454MOL0     O61179   7.326   7.304   4.346  0.4789 -0.0229  0.5799
  454MOL0     C61180   7.445   7.313   4.279  0.9275  0.4729 -0.3227
  454MOL0     C61181   7.534   7.420   4.292  0.3402 -0.3162  0.3053
  454MOL0     C61182   7.662   7.400   4.233 -0.6568 -0.4491  0.0599
  454MOL0     C61183   7.765   7.505   4.250 -0.2512  0.6652 -0.2437
  454MOL0     C61184   7.689   7.278   4.158 -0.6363 -0.2319  0.3267
  454MOL0     C61185   7.824   7.238   4.104  0.8092  0.6520 -0.9814
  454MOL0     O61186   7.839   7.129   4.020  1.0490  0.2099  0.1828
  454MOL0     C61187   7.967   7.090   3.994  0.0088  1.0607 -0.8108
  454MOL0     C61188   8.050   7.162   3.902  0.1640  0.6949 -0.8012
  454MOL0     C61189   8.177   7.109   3.877  0.2102 -0.0339  0.7526
  454MOL0     C61190   8.228   6.981   3.927  0.0873  0.3212 -0.1733
  454MOL0     O61191   8.355   6.952   3.892 -0.4825 -0.0378 -0.3193
  454MOL0     C61192   8.432   6.857   3.966  0.7382  0.1220  0.5093
  454MOL0     C61193   8.577   6.844   3.921 -0.6937 -0.1290 -0.1523
  454MOL0     C61194   8.664   6.968   3.908  0.2953 -0.4288  0.0385
  454MOL0     C61195   8.697   7.029   4.046  0.1475  0.1641  0.2871
  454MOL0     C61196   8.798   6.942   4.120  0.3042 -0.4201  0.1663
  454MOL0     C61197   8.939   6.941   4.058  0.4706  0.2180  0.0005
  454MOL0     C61198   9.040   6.917   4.170  0.3747  0.1118 -0.0927
  454MOL0     C61199   9.172   6.965   4.108  0.1378 -0.2896 -0.8397
  454MOL0    Cl61200   9.299   6.974   4.227  0.0447 -0.6707 -0.4382
  454MOL0     C61201   8.148   6.922   4.026 -0.0746 -0.1389  0.2120
  454MOL0     C61202   8.015   6.967   4.052  0.8341  0.1054 -0.1982
  454MOL0     O61203   7.920   7.296   4.149 -0.1066 -0.0941  0.4975
  454MOL0     C61204   7.587   7.183   4.143 -0.3798 -0.0832  0.0242
  454MOL0     C61205   7.467   7.203   4.197  0.3133  0.2504 -1.4210
  454MOL0     N61206   6.708   7.269   4.636 -0.4115  0.2637 -0.0858
  454MOL0     N61207   6.606   7.282   4.552  0.7145 -0.1784 -0.0427
  454MOL0     C61208   6.183   6.626   3.933 -0.1052 -0.2646  1.7076
  454MOL0     C61209   6.226   6.538   3.830 -0.4368 -0.1465  0.4134
  454MOL0     C61210   6.525   6.322   3.529  0.0959  0.0576 -1.3745
  454MOL0     C61211   6.660   6.298   3.497  0.2324  0.2014 -0.0952
  454MOL0     C61212   6.683   6.239   3.372  0.4299  0.2115 -0.0691
  454MOL0     C61213   6.585   6.212   3.276 -0.4470  0.4626 -0.2863
  454MOL0     O61214   6.608   6.166   3.146  0.7469 -0.3186 -0.2230
  454MOL0     C61215   6.739   6.120   3.101 -0.2296 -0.0849  0.2819
  454MOL0     C61216   6.768   5.972   3.122 -0.0801 -0.7265  0.2812
  454MOL0     C61217   6.659   5.874   3.060  0.1412  0.2489  0.7412
  454MOL0     C61218   6.607   5.913   2.922 -0.0779  0.3754 -0.1027
  454MOL0     C61219   6.555   5.802   2.846 -0.3126 -0.2135  0.8476
  454MOL0     C61220   6.526   5.704   2.778  0.8729 -1.2045 -0.3076
  454MOL0     C61221   6.455   6.241   3.316 -1.4364 -0.4510  1.7471
  454MOL0     C61222   6.420   6.296   3.441 -0.2035  0.1928 -0.2006
  454MOL0     H61223   6.536   6.668   3.764 -0.0657  3.0175  1.4060
  454MOL0     H61224   6.464   6.811   3.944 -0.0338 -1.4291  1.6750
  454MOL0     H61225   6.057   6.854   3.951  0.7366  1.0299 -2.7507
  454MOL0     H61226   6.075   6.946   4.101 -0.3973  1.0446 -1.3090
  454MOL0     H61227   6.253   6.986   3.844  0.4675 -3.2471  1.2302
  454MOL0     H61228   6.114   7.085   3.890  0.8698  0.6945 -0.7524
  454MOL0     H61229   6.216   7.119   4.118  0.0837 -0.8021 -1.0105
  454MOL0     H61230   6.360   7.040   4.054 -0.0325 -1.8562 -0.0563
  454MOL0     H61231   6.314   7.202   3.855 -1.3997  0.7033 -1.3430
  454MOL0     H61232   6.224   7.302   3.973 -0.0626 -0.6056  0.8586
  454MOL0     H61233   6.515   7.216   4.016 -1.4319 -1.7040 -2.1610
  454MOL0     H61234   6.464   7.369   3.942 -1.7129 -0.6922 -0.6710
  454MOL0     H61235   6.347   7.451   4.117  1.1141  1.5947  1.0461
  454MOL0     H61236   6.315   7.306   4.198  0.3955 -1.4291  0.3743
  454MOL0     H61237   6.588   7.426   4.181 -2.3681  1.0219 -3.3820
  454MOL0     H61238   6.474   7.436   4.329  4.1881  0.1184  2.0329
  454MOL0     H61239   6.624   7.196   4.222 -0.3861  0.6514 -1.7532
  454MOL0     H61240   6.489   7.167   4.319 -1.1724  0.4351 -3.2723
  454MOL0     H61241   6.835   7.222   4.334 -1.2144  1.2868 -1.3477
  454MOL0     H61242   6.980   7.214   4.700  0.4471 -3.5423  0.1956
  454MOL0     H61243   6.983   7.115   4.565  3.5542  0.2270  1.3850
  454MOL0     H61244   7.053   7.407   4.555  2.3603 -0.1484  2.5679
  454MOL0     H61245   7.036   7.294   4.414  2.5983  0.7233 -0.9485
  454MOL0     H61246   7.230   7.172   4.512 -0.9510 -1.2588  0.7546
  454MOL0     H61247   7.216   7.271   4.664 -1.7487 -2.0201  0.0749
  454MOL0     H61248   7.419   7.351   4.534 -1.0772 -0.6222  2.4872
  454MOL0     H61249   7.297   7.461   4.488 -1.2997  0.1125 -2.2297
  454MOL0     H61250   7.501   7.506   4.350 -1.0682 -1.4359  1.2428
  454MOL0     H61251   7.850   7.470   4.309  0.0123 -0.0299 -1.0180
  454MOL0     H61252   7.810   7.543   4.157  2.2125  0.6895  0.8850
  454MOL0     H61253   7.722   7.598   4.290  1.4997  0.9445  1.1176
  454MOL0     H61254   8.033   7.258   3.854  2.1607  0.2610 -2.5379
  454MOL0     H61255   8.236   7.159   3.801  0.8034  1.0608  1.8970
  454MOL0     H61256   8.442   6.897   4.067 -2.6990  2.1539  0.1870
  454MOL0     H61257   8.393   6.754   3.962 -0.4794  0.5899 -0.3145
  454MOL0     H61258   8.628   6.775   3.990 -1.1721  0.8158  1.1923
  454MOL0     H61259   8.568   6.790   3.826  1.2673  1.4285 -1.2803
  454MOL0     H61260   8.605   7.038   3.848 -1.7842 -2.1011  0.0232
  454MOL0     H61261   8.758   6.945   3.857  1.9796 -0.7018  3.0502
  454MOL0     H61262   8.731   7.130   4.023 -1.2257  0.2581 -1.5596
  454MOL0     H61263   8.606   7.033   4.106 -1.8078 -1.6554 -2.3016
  454MOL0     H61264   8.772   6.838   4.142 -2.1023 -0.8411 -3.7240
  454MOL0     H61265   8.808   7.001   4.211 -1.2831  1.3851 -0.7722
  454MOL0     H61266   8.945   6.867   3.978  1.7141  1.5717 -1.2366
  454MOL0     H61267   8.953   7.035   4.003 -2.3133  0.7645  0.0578
  454MOL0     H61268   9.054   6.810   4.186  2.9585  0.4654  0.4511
  454MOL0     H61269   9.017   6.962   4.267 -1.4779  0.9137 -0.8438
  454MOL0     H61270   9.165   7.062   4.059  0.9549  1.3316  2.0687
  454MOL0     H61271   9.198   6.889   4.034 -0.7806 -0.6548 -0.7961
  454MOL0     H61272   8.193   6.844   4.086  0.9393 -1.9280 -2.6824
  454MOL0     H61273   7.948   6.916   4.120  3.4420 -2.9016  0.3640
  454MOL0     H61274   7.599   7.091   4.086 -1.0454  0.2584 -0.6888
  454MOL0     H61275   7.384   7.134   4.185  1.0881 -0.7637 -1.1089
  454MOL0     H61276   6.089   6.614   3.986  0.3924 -1.8748  2.3003
  454MOL0     H61277   6.163   6.453   3.807 -2.3013  1.1936  0.2660
  454MOL0     H61278   6.739   6.337   3.560 -2.1000  4.0717  0.7832
  454MOL0     H61279   6.790   6.231   3.354  1.1548  3.0037  2.3332
  454MOL0     H61280   6.751   6.144   2.995  1.5595 -2.0222 -0.0164
  454MOL0     H61281   6.825   6.175   3.140 -0.8294  0.0040  1.5469
  454MOL0     H61282   6.769   5.944   3.228 -2.4121 -0.6856  0.3555
  454MOL0     H61283   6.861   5.956   3.066 -0.3908 -0.3404 -0.3477
  454MOL0     H61284   6.570   5.842   3.115 -1.4849 -1.9358 -2.7783
  454MOL0     H61285   6.705   5.776   3.051  0.6643  0.6166 -0.9488
  454MOL0     H61286   6.690   5.961   2.871  1.9666 -0.5649  2.1455
  454MOL0     H61287   6.528   5.987   2.936  0.2205  0.8759 -1.0142
  454MOL0     H61288   6.514   5.623   2.709 -0.5066 -0.3258 -1.1476
  454MOL0     H61289   6.375   6.217   3.247 -1.5230 -0.0473  1.7050
  454MOL0     H61290   6.317   6.315   3.471 -0.9868 -1.0753 -1.9473
  455MOL0     O61291  10.876   4.775   3.312 -0.2461 -0.5590  0.1759
  455MOL0     C61292  10.887   4.691   3.403 -0.0886  0.2360 -0.4380
  455MOL0     O61293  10.804   4.587   3.430  0.1922 -0.4582 -0.0791
  455MOL0     C61294  10.703   4.552   3.344  0.3812 -1.2645  0.6867
  455MOL0     C61295  10.712   4.558   3.206 -0.3989 -0.1555 -0.2631
  455MOL0     C61296  10.618   4.508   3.128  0.4059  0.3690 -0.7585
  455MOL0     C61297  10.490   4.467   3.179  0.2637 -1.0319  1.1137
  455MOL0     O61298  10.395   4.434   3.084  0.0414 -0.4672 -0.2126
  455MOL0     C61299  10.291   4.347   3.135  0.4697  0.3003 -0.2074
  455MOL0     C61300  10.193   4.322   3.024 -0.1287 -0.5538  0.7016
  455MOL0     C61301  10.069   4.235   3.059  0.1122 -0.4903  0.4640
  455MOL0     C61302   9.970   4.302   3.160 -0.4695  0.2606 -0.4018
  455MOL0     C61303   9.839   4.235   3.140  0.5534 -0.3263 -0.4341
  455MOL0     C61304   9.735   4.316   3.056 -0.0419 -0.5232  0.2686
  455MOL0     C61305   9.603   4.241   3.026 -0.5045 -0.3304 -0.0023
  455MOL0     C61306   9.487   4.333   2.998 -0.2556 -0.0844  0.7772
  455MOL0     N61307   9.365   4.257   2.987 -0.2277 -0.7627 -0.1240
  455MOL0     C61308   9.275   4.221   3.089 -0.4228 -0.4094 -0.2941
  455MOL0     C61309   9.167   4.166   3.028 -0.2578  0.3753  0.5237
  455MOL0     C61310   9.047   4.121   3.087  0.9996 -0.0338  0.3677
  455MOL0     C61311   8.948   4.230   3.132  0.4268 -0.5911  0.2138
  455MOL0     C61312   8.917   4.316   3.007  0.5859 -0.3901  1.1293
  455MOL0     C61313   8.781   4.386   3.040  0.3335 -0.3438  1.2772
  455MOL0     O61314   8.670   4.296   3.005 -0.3236  0.2360 -0.7565
  455MOL0     C61315   8.549   4.319   3.066 -0.2432 -1.0163  0.2560
  455MOL0     C61316   8.532   4.378   3.191 -0.2481 -0.8183 -0.3149
  455MOL0     C61317   8.411   4.402   3.250 -0.7886 -0.3939  0.0357
  455MOL0     C61318   8.408   4.449   3.398  0.3287  0.1047 -0.0517
  455MOL0     C61319   8.291   4.366   3.184 -0.6147  0.2886 -0.6566
  455MOL0     C61320   8.159   4.382   3.250 -0.4381  0.7794  0.5081
  455MOL0     O61321   8.128   4.496   3.311  0.0902 -0.8544 -0.3708
  455MOL0     C61322   8.000   4.552   3.339 -0.7488  0.1536 -0.2169
  455MOL0     C61323   7.886   4.473   3.343  0.7710  0.1692  0.9538
  455MOL0     C61324   7.763   4.534   3.345  0.5328 -0.4709 -0.8169
  455MOL0     C61325   7.746   4.677   3.346 -1.0374  0.2597 -0.2355
  455MOL0     O61326   7.622   4.729   3.353 -0.0187  0.5263 -0.6538
  455MOL0     C61327   7.596   4.813   3.240 -0.6027  0.9758 -0.8035
  455MOL0     C61328   7.451   4.839   3.223 -1.1282 -0.1670  0.4824
  455MOL0     C61329   7.368   4.725   3.178 -0.7331  0.5157  0.4076
  455MOL0     C61330   7.294   4.657   3.292  0.3138  0.5731  0.8134
  455MOL0     C61331   7.214   4.533   3.258 -0.9779  0.1824  0.2549
  455MOL0     C61332   7.293   4.406   3.208  0.2159  0.2190 -0.2987
  455MOL0     C61333   7.213   4.319   3.115  0.4886 -0.1300  0.6867
  455MOL0     C61334   7.291   4.220   3.023 -0.2130 -0.4686 -0.1829
  455MOL0    Cl61335   7.403   4.310   2.917 -0.0714  0.3235  0.1383
  455MOL0     C61336   7.861   4.754   3.344  0.1396  1.0731 -0.1258
  455MOL0     C61337   7.985   4.691   3.341  0.6248  0.2382 -0.4440
  455MOL0     O61338   8.083   4.293   3.215 -0.1681 -0.0240  0.1789
  455MOL0     C61339   8.304   4.309   3.059 -0.6318 -0.4752 -0.2965
  455MOL0     C61340   8.426   4.281   2.998  0.5531  0.3224 -0.3231
  455MOL0     N61341   9.190   4.176   2.886 -0.5236 -0.2350 -0.2100
  455MOL0     N61342   9.306   4.228   2.867  0.5337  0.0965  0.8696
  455MOL0     C61343  10.481   4.454   3.314 -0.1806 -0.5614  0.0373
  455MOL0     C61344  10.586   4.503   3.395 -0.2603  0.0434  0.9239
  455MOL0     C61345  11.015   4.699   3.484  0.4149 -0.2004  0.6911
  455MOL0     C61346  11.086   4.588   3.531  0.4226  0.7764  0.2230
  455MOL0     C61347  11.217   4.599   3.584 -0.2144  0.8123  0.1738
  455MOL0     C61348  11.288   4.720   3.575 -0.3475  0.0460  0.2615
  455MOL0     O61349  11.423   4.725   3.608 -0.3440  0.1768 -0.1558
  455MOL0     C61350  11.499   4.598   3.605 -0.2047  0.1096  0.0116
  455MOL0     C61351  11.640   4.619   3.670  1.0199  0.3702 -0.8263
  455MOL0     C61352  11.729   4.718   3.600  0.3845  0.7355  0.6551
  455MOL0     C61353  11.881   4.725   3.654  0.8662 -0.0806 -0.0593
  455MOL0     C61354  11.948   4.820   3.571  0.3423  0.9426  0.0789
  455MOL0     C61355  12.018   4.891   3.497  0.0813 -0.6541  0.3953
  455MOL0     C61356  11.221   4.834   3.524 -0.4664 -0.2230 -0.5330
  455MOL0     C61357  11.090   4.823   3.480 -0.1897  0.1152  0.3571
  455MOL0     H61358  10.802   4.595   3.159  0.2661 -0.7789  0.4869
  455MOL0     H61359  10.634   4.516   3.021 -1.3130  0.1893 -1.0468
  455MOL0     H61360  10.323   4.249   3.173 -2.1505  0.5812  3.2947
  455MOL0     H61361  10.229   4.385   3.217  0.0783 -2.0284  0.6504
  455MOL0     H61362  10.169   4.419   2.980  2.1236 -0.6184 -0.8319
  455MOL0     H61363  10.245   4.271   2.942  0.5126  2.1560 -0.6856
  455MOL0     H61364  10.028   4.226   2.957  2.9452  1.0343 -0.9247
  455MOL0     H61365  10.081   4.127   3.073 -3.0489 -1.1023 -0.5660
  455MOL0     H61366  10.011   4.279   3.259 -1.0184 -0.4465 -0.3380
  455MOL0     H61367   9.966   4.412   3.155  1.0134  0.4462  1.4363
  455MOL0     H61368   9.856   4.132   3.108  0.8695 -0.1561 -0.8189
  455MOL0     H61369   9.792   4.229   3.239  2.9818 -1.4794  0.7334
  455MOL0     H61370   9.713   4.416   3.094 -1.2732  0.5125 -2.8687
  455MOL0     H61371   9.777   4.331   2.956 -2.5477 -0.7447 -0.8981
  455MOL0     H61372   9.621   4.176   2.940 -1.2982  0.4764 -0.7918
  455MOL0     H61373   9.590   4.178   3.115  0.8573 -2.7339 -1.3804
  455MOL0     H61374   9.515   4.399   2.915 -1.8965  1.1547  1.1608
  455MOL0     H61375   9.473   4.383   3.095 -1.0812 -1.0313  1.1625
  455MOL0     H61376   9.281   4.246   3.194  0.0123  1.6129 -0.7629
  455MOL0     H61377   8.990   4.064   3.013 -0.0677  1.0098  0.3570
  455MOL0     H61378   9.073   4.046   3.163  0.7404 -1.8302 -1.2461
  455MOL0     H61379   8.982   4.287   3.219 -0.7833  1.6895 -0.7219
  455MOL0     H61380   8.854   4.183   3.160 -0.6784  1.7381  0.6555
  455MOL0     H61381   8.912   4.257   2.915  1.4709  2.4899 -0.9035
  455MOL0     H61382   9.000   4.385   2.990  2.0620 -1.6410  2.9256
  455MOL0     H61383   8.771   4.469   2.970  0.2088 -1.3071  0.1283
  455MOL0     H61384   8.780   4.412   3.146 -3.0024 -2.2396  1.8601
  455MOL0     H61385   8.623   4.387   3.250  0.0090 -0.7492 -0.7133
  455MOL0     H61386   8.496   4.511   3.416 -0.3053  1.7757 -2.3705
  455MOL0     H61387   8.318   4.507   3.418 -0.2675 -0.4379 -1.0865
  455MOL0     H61388   8.398   4.362   3.464  0.6268  0.0779 -0.0391
  455MOL0     H61389   7.884   4.364   3.339  0.1008  0.1662  1.2275
  455MOL0     H61390   7.673   4.475   3.352 -0.5133  1.1935  0.4096
  455MOL0     H61391   7.656   4.904   3.248  2.8355 -1.0893 -0.6058
  455MOL0     H61392   7.633   4.782   3.141  0.2159  1.3189 -0.6187
  455MOL0     H61393   7.400   4.894   3.303 -1.2836  1.5647 -0.7398
  455MOL0     H61394   7.445   4.901   3.133  0.4184  1.2003  1.2773
  455MOL0     H61395   7.437   4.657   3.126  1.4583  2.1676  1.0289
  455MOL0     H61396   7.293   4.757   3.105 -1.2667 -2.0067 -0.2637
  455MOL0     H61397   7.365   4.628   3.370  2.2515  0.1679 -1.0282
  455MOL0     H61398   7.226   4.730   3.337 -0.4210  0.2619  0.2306
  455MOL0     H61399   7.133   4.560   3.189 -0.5457  0.9085  0.0217
  455MOL0     H61400   7.162   4.507   3.351  1.9705 -0.5483  1.8089
  455MOL0     H61401   7.381   4.441   3.153  1.0223 -0.7838  0.3301
  455MOL0     H61402   7.337   4.355   3.294 -0.0926  0.2128 -0.1416
  455MOL0     H61403   7.169   4.395   3.049  1.0635  3.2400  3.8870
  455MOL0     H61404   7.141   4.258   3.169  1.0543 -0.5793  0.9481
  455MOL0     H61405   7.218   4.167   2.960  3.3236 -2.9059 -2.6379
  455MOL0     H61406   7.350   4.144   3.074  1.2412  0.7751  0.0475
  455MOL0     H61407   7.861   4.862   3.341  1.6283  1.0872 -2.9914
  455MOL0     H61408   8.067   4.761   3.333  0.9211 -0.2852 -2.4883
  455MOL0     H61409   8.216   4.287   2.999 -0.2808  0.5172 -1.2116
  455MOL0     H61410   8.424   4.225   2.905  1.4328 -0.5175  0.1462
  455MOL0     H61411  10.390   4.414   3.359  1.0931 -1.2631  2.1023
  455MOL0     H61412  10.571   4.493   3.502 -2.2120 -0.0264  0.6847
  455MOL0     H61413  11.034   4.493   3.540 -0.2391  1.0309 -0.6525
  455MOL0     H61414  11.253   4.506   3.627 -2.5625 -0.4694 -0.4114
  455MOL0     H61415  11.449   4.526   3.671 -0.2776 -1.3472 -1.5784
  455MOL0     H61416  11.511   4.551   3.507 -0.0610  3.6651 -1.8538
  455MOL0     H61417  11.693   4.523   3.665  0.8923  0.2924 -0.7090
  455MOL0     H61418  11.631   4.645   3.775  0.0098 -3.7830  0.3060
  455MOL0     H61419  11.677   4.813   3.615 -2.1348  0.3134 -3.6739
  455MOL0     H61420  11.734   4.689   3.494  3.7572 -2.2051  1.4247
  455MOL0     H61421  11.920   4.623   3.654 -0.7165 -0.7237  0.8506
  455MOL0     H61422  11.880   4.753   3.759 -1.2941 -0.7246  0.1434
  455MOL0     H61423  12.089   4.938   3.433 -1.7729  0.4712 -0.9599
  455MOL0     H61424  11.276   4.927   3.516 -1.5184  0.5950  1.2152
  455MOL0     H61425  11.053   4.910   3.426 -1.0472 -0.3349  0.2000
  456MOL0     O61426   8.816   2.489   6.085 -0.3127  0.1558  0.3716
  456MOL0     C61427   8.927   2.507   6.043 -0.4741  0.1918  0.3168
  456MOL0     O61428   8.960   2.563   5.912 -0.2829 -0.2206  0.0969
  456MOL0     C61429   8.860   2.628   5.843  1.0012  0.3972 -0.3031
  456MOL0     C61430   8.796   2.736   5.893 -0.6655 -0.3765  0.2311
  456MOL0     C61431   8.680   2.790   5.830 -0.3706  0.6070 -1.3805
  456MOL0     C61432   8.628   2.729   5.716 -0.7764  0.5900  0.4291
  456MOL0     O61433   8.521   2.781   5.653 -0.1079  0.5784  0.3512
  456MOL0     C61434   8.415   2.818   5.742  0.8755  0.2622  0.2920
  456MOL0     C61435   8.281   2.792   5.684 -0.1216  0.4679  0.5925
  456MOL0     C61436   8.180   2.826   5.791  0.9408  0.7072  0.1504
  456MOL0     C61437   8.041   2.767   5.753 -0.6627 -0.4953  0.2303
  456MOL0     C61438   7.972   2.880   5.666 -0.5873  0.0276 -0.3199
  456MOL0     C61439   7.833   2.837   5.607 -0.0626 -0.3361 -0.8948
  456MOL0     C61440   7.758   2.939   5.540 -0.3339 -0.1926  0.3510
  456MOL0     C61441   7.608   2.901   5.508 -0.2842  0.1738 -0.8552
  456MOL0     N61442   7.595   2.776   5.431 -0.2227 -0.8143  0.0399
  456MOL0     C61443   7.592   2.758   5.296 -0.5616  0.0874  0.0469
  456MOL0     C61444   7.531   2.636   5.282 -0.4818  0.0470 -0.5997
  456MOL0     C61445   7.517   2.580   5.142 -0.5564 -0.3492  0.3675
  456MOL0     C61446   7.658   2.527   5.104 -0.2444  0.4608 -0.4890
  456MOL0     C61447   7.660   2.463   4.968 -0.0198 -0.5872  0.0425
  456MOL0     C61448   7.800   2.502   4.914  0.2053 -0.3432 -0.7961
  456MOL0     O61449   7.819   2.428   4.795 -0.2656 -0.3945 -0.8836
  456MOL0     C61450   7.949   2.382   4.772  0.1355  0.5681  1.4543
  456MOL0     C61451   8.067   2.406   4.839  0.3205 -0.5882 -0.1432
  456MOL0     C61452   8.190   2.356   4.812 -1.0290 -0.4219  0.6066
  456MOL0     C61453   8.317   2.402   4.884 -0.1452  0.4149  0.4814
  456MOL0     C61454   8.203   2.262   4.697 -0.2144 -0.6496 -0.9477
  456MOL0     C61455   8.319   2.185   4.658 -0.6793  0.7820  0.0863
  456MOL0     O61456   8.369   2.190   4.529  0.0611  1.0003  0.6503
  456MOL0     C61457   8.493   2.132   4.497  0.3257  1.2952  0.1702
  456MOL0     C61458   8.609   2.126   4.583 -0.6825 -0.1421  0.2231
  456MOL0     C61459   8.728   2.078   4.524 -0.1539 -0.0652 -0.1880
  456MOL0     C61460   8.745   2.041   4.389 -0.5470 -0.0545  0.6563
  456MOL0     O61461   8.871   2.024   4.333 -0.4335  0.0621  0.1872
  456MOL0     C61462   8.894   1.939   4.217 -1.3522 -0.0091 -0.1240
  456MOL0     C61463   9.031   1.979   4.174  0.5838 -0.0596 -0.4499
  456MOL0     C61464   9.090   1.889   4.056  0.5262 -0.4089 -1.0755
  456MOL0     C61465   9.237   1.913   4.035  0.6676  0.3019 -0.6352
  456MOL0     C61466   9.278   1.830   3.912 -0.5576 -0.2856 -0.3713
  456MOL0     C61467   9.428   1.841   3.890 -0.2496  0.7677  0.4443
  456MOL0     C61468   9.473   1.734   3.787 -0.2609 -0.3898 -0.0843
  456MOL0     C61469   9.620   1.741   3.742 -0.9725  0.0343 -1.0013
  456MOL0    Cl61470   9.729   1.728   3.875 -0.3773  0.0954 -0.1465
  456MOL0     C61471   8.629   2.037   4.314  0.4224 -0.9735  0.4372
  456MOL0     C61472   8.507   2.078   4.366 -0.1162 -0.0666 -0.4042
  456MOL0     O61473   8.375   2.120   4.745 -0.2325 -1.1931 -0.7360
  456MOL0     C61474   8.089   2.243   4.622  0.0719 -0.2639  0.6035
  456MOL0     C61475   7.968   2.311   4.655  0.1880 -0.2922 -0.3381
  456MOL0     N61476   7.509   2.586   5.410 -0.6683 -0.4315  0.5076
  456MOL0     N61477   7.557   2.665   5.497 -0.0513  0.3615 -0.2163
  456MOL0     C61478   8.699   2.622   5.659  0.2059 -0.8155 -0.1290
  456MOL0     C61479   8.802   2.572   5.732  0.9560  0.3068 -0.1603
  456MOL0     C61480   9.041   2.476   6.137 -0.2438  0.5623 -0.1591
  456MOL0     C61481   9.009   2.438   6.271  0.8690 -0.4244 -0.1877
  456MOL0     C61482   9.108   2.409   6.367  0.7190 -0.2860  1.0843
  456MOL0     C61483   9.245   2.420   6.332 -0.7639  0.1857 -0.0825
  456MOL0     O61484   9.338   2.391   6.430  0.1199  0.6147  0.2161
  456MOL0     C61485   9.468   2.360   6.384 -0.2496  0.2281  0.1412
  456MOL0     C61486   9.546   2.296   6.500  0.1704 -0.0512  0.1220
  456MOL0     C61487   9.674   2.227   6.460  0.5590  0.4211  0.1502
  456MOL0     C61488   9.663   2.084   6.400 -1.1641  0.2685  0.4495
  456MOL0     C61489   9.761   1.991   6.463  0.1385 -0.2648  0.4315
  456MOL0     C61490   9.841   1.918   6.503  0.2449  0.8168  0.4669
  456MOL0     C61491   9.277   2.451   6.189 -0.3617  0.2016 -0.3882
  456MOL0     C61492   9.172   2.489   6.096  0.1286 -0.0267 -0.0399
  456MOL0     H61493   8.842   2.786   5.978  0.0373  1.5834 -1.2217
  456MOL0     H61494   8.621   2.874   5.864 -0.3841  0.5390 -1.2340
  456MOL0     H61495   8.429   2.757   5.832  1.2884 -0.3274 -0.1688
  456MOL0     H61496   8.427   2.925   5.761 -0.4692  1.3943 -4.1257
  456MOL0     H61497   8.260   2.836   5.586  1.9872  0.9193  0.2990
  456MOL0     H61498   8.284   2.683   5.677 -0.0064  0.5015  0.1102
  456MOL0     H61499   8.215   2.787   5.887  0.1669 -1.6844 -0.4826
  456MOL0     H61500   8.163   2.934   5.796  0.3722  0.5881  2.7949
  456MOL0     H61501   8.050   2.673   5.697 -2.6119  0.5004 -1.9348
  456MOL0     H61502   7.970   2.760   5.836 -1.9649  1.7406 -0.6030
  456MOL0     H61503   7.968   2.974   5.722  4.3388  0.4883 -0.3012
  456MOL0     H61504   8.028   2.891   5.572 -1.2147 -0.3907 -0.7531
  456MOL0     H61505   7.829   2.748   5.544 -0.1369  1.0436 -2.9342
  456MOL0     H61506   7.766   2.809   5.689 -0.7260  1.5247 -0.7427
  456MOL0     H61507   7.756   3.017   5.617  3.0922  0.0825  0.3247
  456MOL0     H61508   7.822   2.983   5.463  3.7522 -0.4084  3.2989
  456MOL0     H61509   7.556   2.985   5.460 -1.5583 -0.6883 -1.0505
  456MOL0     H61510   7.561   2.889   5.606  1.9690  1.1523  0.4057
  456MOL0     H61511   7.626   2.832   5.224 -0.5249 -1.9647 -2.1969
  456MOL0     H61512   7.443   2.500   5.145  0.5432 -1.3821  0.8220
  456MOL0     H61513   7.474   2.653   5.073 -0.3405 -0.4081  0.1654
  456MOL0     H61514   7.678   2.458   5.186 -2.7581  0.3953  0.1669
  456MOL0     H61515   7.727   2.611   5.112 -2.0752  1.9237  0.8442
  456MOL0     H61516   7.592   2.514   4.899  0.6773 -1.4407 -1.3409
  456MOL0     H61517   7.632   2.358   4.982  1.9477 -1.2195 -0.4449
  456MOL0     H61518   7.873   2.471   4.990 -1.3356 -1.6973  0.1946
  456MOL0     H61519   7.804   2.611   4.908  2.0164 -0.1764  1.8469
  456MOL0     H61520   8.072   2.486   4.912  1.3986  1.2494 -2.1182
  456MOL0     H61521   8.401   2.416   4.816 -0.1365 -0.4612  0.3115
  456MOL0     H61522   8.303   2.496   4.939 -3.9797  0.1720  0.1759
  456MOL0     H61523   8.339   2.323   4.955 -0.1617  1.0972  1.2651
  456MOL0     H61524   8.606   2.177   4.679  0.8617  2.0183 -0.7952
  456MOL0     H61525   8.813   2.077   4.592  1.1558  2.9897 -1.5675
  456MOL0     H61526   8.876   1.833   4.232 -1.7902  0.4383  3.1475
  456MOL0     H61527   8.829   1.973   4.136  1.1282  0.6512 -1.9805
  456MOL0     H61528   9.029   2.083   4.142  0.2407 -0.3179 -1.3027
  456MOL0     H61529   9.095   1.969   4.262  1.2689  0.4815 -0.8815
  456MOL0     H61530   9.032   1.919   3.968  3.7127  0.4460 -3.0689
  456MOL0     H61531   9.074   1.784   4.083 -0.3583 -0.5321 -2.0175
  456MOL0     H61532   9.264   2.017   4.018  1.5094 -0.1818 -2.4658
  456MOL0     H61533   9.300   1.879   4.117 -0.0291  0.6725  0.0608
  456MOL0     H61534   9.227   1.866   3.823 -0.2801 -0.7743 -0.7306
  456MOL0     H61535   9.252   1.726   3.934 -2.9646  0.6450  1.7157
  456MOL0     H61536   9.445   1.944   3.858 -1.4098  0.6638 -0.6009
  456MOL0     H61537   9.491   1.814   3.974 -2.2446 -1.9679  1.2062
  456MOL0     H61538   9.402   1.725   3.704 -2.4640 -1.7774  1.8192
  456MOL0     H61539   9.453   1.637   3.834 -1.1155  0.1309  0.6676
  456MOL0     H61540   9.634   1.838   3.692 -0.5295  1.0428  0.9673
  456MOL0     H61541   9.644   1.665   3.668 -1.7790  0.6749 -1.9502
  456MOL0     H61542   8.640   1.985   4.220  2.7498  0.1813  0.0076
  456MOL0     H61543   8.416   2.070   4.307 -0.9944 -0.3169  0.9359
  456MOL0     H61544   8.097   2.185   4.531  1.1599  0.2030  0.3957
  456MOL0     H61545   7.883   2.290   4.591 -1.9328 -0.4524  2.3060
  456MOL0     H61546   8.666   2.579   5.565  0.9589 -0.2400 -0.6704
  456MOL0     H61547   8.844   2.486   5.682  2.3491  0.2557  1.0322
  456MOL0     H61548   8.910   2.419   6.312  2.3600 -2.2510  2.9232
  456MOL0     H61549   9.073   2.391   6.468 -0.2105  2.3120  1.2945
  456MOL0     H61550   9.464   2.278   6.312  0.5947 -0.9802  1.4401
  456MOL0     H61551   9.514   2.448   6.337 -2.4443  1.8320  0.8389
  456MOL0     H61552   9.478   2.228   6.552  0.7556  0.3287  1.4274
  456MOL0     H61553   9.569   2.381   6.565  1.5150  0.4571 -0.9668
  456MOL0     H61554   9.734   2.218   6.551 -0.0713 -2.1299  0.3911
  456MOL0     H61555   9.745   2.284   6.399  2.1918 -0.0664  1.5046
  456MOL0     H61556   9.683   2.093   6.293 -0.3589  1.1218  0.6615
  456MOL0     H61557   9.563   2.044   6.418 -0.3039 -1.4805  1.6468
  456MOL0     H61558   9.906   1.843   6.543  3.0465  3.3203  0.9835
  456MOL0     H61559   9.375   2.434   6.147 -0.1521 -1.1428  0.5908
  456MOL0     H61560   9.185   2.514   5.991 -2.3494  0.3719 -0.3079
  457MOL0     O61561   1.051   3.345   1.153 -0.1298 -0.0623  0.8379
  457MOL0     C61562   1.094   3.289   1.252  0.5813 -0.3902  0.1861
  457MOL0     O61563   1.013   3.229   1.345 -1.0446 -0.1383 -0.4581
  457MOL0     C61564   0.877   3.238   1.339  0.7239 -0.1682  0.5257
  457MOL0     C61565   0.805   3.144   1.273  0.4493  0.3137 -0.4561
  457MOL0     C61566   0.665   3.155   1.267  0.3628  0.3444  1.0487
  457MOL0     C61567   0.594   3.259   1.319  0.3642  0.5897  0.0745
  457MOL0     O61568   0.458   3.271   1.286  0.3826  0.3713  0.5285
  457MOL0     C61569   0.436   3.284   1.147  0.4119  0.1989 -0.2757
  457MOL0     C61570   0.290   3.263   1.102 -0.2990  0.9253  1.2551
  457MOL0     C61571   0.284   3.138   1.005 -0.5195  0.0367 -0.0617
  457MOL0     C61572   0.135   3.099   1.003 -0.6229 -0.3657  0.5689
  457MOL0     C61573   0.130   2.964   0.932 -0.5827  0.5186  0.4517
  457MOL0     C61574  -0.004   2.946   0.872  0.8021  0.0555 -0.3229
  457MOL0     C61575  -0.023   2.812   0.785 -0.0071  0.1605 -0.8475
  457MOL0     C61576   0.084   2.795   0.677  0.1215 -0.3621  0.0340
  457MOL0     N61577   0.075   2.669   0.609  0.4574 -0.1671 -0.0041
  457MOL0     C61578   0.042   2.548   0.664 -0.2301 -1.5058  0.8504
  457MOL0     C61579   0.071   2.465   0.566 -0.6856 -0.0964 -0.7145
  457MOL0     C61580   0.050   2.321   0.580 -1.0976 -0.3701  0.5952
  457MOL0     C61581  -0.095   2.284   0.566  0.2292 -0.5570 -0.4211
  457MOL0     C61582  -0.150   2.249   0.699 -0.1280  0.4327 -0.7157
  457MOL0     C61583  -0.286   2.189   0.693 -0.2733 -0.0589 -0.1876
  457MOL0     O61584  -0.382   2.289   0.667 -1.3188  0.2604 -0.5264
  457MOL0     C61585  -0.513   2.272   0.715 -0.4620 -0.8040  0.3723
  457MOL0     C61586  -0.576   2.147   0.732 -0.2108  0.1020 -0.2557
  457MOL0     C61587  -0.710   2.121   0.762  0.4262 -0.1043 -0.0958
  457MOL0     C61588  -0.756   1.978   0.749 -0.1116 -0.0524 -0.2983
  457MOL0     C61589  -0.793   2.237   0.781 -0.3973 -0.0282 -0.3513
  457MOL0     C61590  -0.945   2.225   0.790  0.2738  0.0314 -0.5299
  457MOL0     O61591  -1.005   2.347   0.797 -0.3191  0.5352  0.1759
  457MOL0     C61592  -1.133   2.367   0.834 -0.6741 -1.2264  0.4086
  457MOL0     C61593  -1.185   2.484   0.768  0.5772  0.2785  0.8470
  457MOL0     C61594  -1.317   2.509   0.794  0.5479  0.7530 -0.5154
  457MOL0     C61595  -1.399   2.434   0.885  0.1547  0.0988  0.5705
  457MOL0     O61596  -1.527   2.460   0.922  0.5642 -0.5757  0.8860
  457MOL0     C61597  -1.598   2.552   0.837 -0.8137  0.0122 -0.0041
  457MOL0     C61598  -1.740   2.567   0.887  0.6889 -0.5798 -0.7064
  457MOL0     C61599  -1.737   2.589   1.037 -0.3283  0.4584 -0.4086
  457MOL0     C61600  -1.879   2.621   1.089 -0.4640 -0.4174  1.0084
  457MOL0     C61601  -1.882   2.631   1.240 -0.4026  0.5461 -0.5309
  457MOL0     C61602  -2.023   2.609   1.285 -0.0214 -0.1727 -0.2327
  457MOL0     C61603  -2.046   2.692   1.414  0.0351 -0.3841  0.0593
  457MOL0     C61604  -2.175   2.643   1.484 -0.7903  0.3001  0.0957
  457MOL0    Cl61605  -2.308   2.648   1.364 -0.0890 -0.7291 -0.1918
  457MOL0     C61606  -1.341   2.329   0.948  0.1417  0.7446  0.6088
  457MOL0     C61607  -1.211   2.288   0.920 -0.7209 -0.5007  0.2053
  457MOL0     O61608  -1.008   2.117   0.793  0.3942  0.3198 -0.5425
  457MOL0     C61609  -0.732   2.361   0.777 -0.0792 -0.2068 -0.3712
  457MOL0     C61610  -0.593   2.378   0.743  0.1844  0.2251  0.4902
  457MOL0     N61611   0.127   2.534   0.451  0.4963 -0.6536 -0.5518
  457MOL0     N61612   0.117   2.667   0.484  1.2124  0.6455  0.3332
  457MOL0     C61613   0.662   3.359   1.393 -0.1814  0.3842 -0.8336
  457MOL0     C61614   0.805   3.349   1.402  0.3574 -0.1155  0.4070
  457MOL0     C61615   1.236   3.295   1.284  0.6941  0.1637 -0.3225
  457MOL0     C61616   1.288   3.264   1.411 -0.0180 -0.0584  0.0018
  457MOL0     C61617   1.422   3.270   1.438  0.8048  0.5246  0.5219
  457MOL0     C61618   1.516   3.319   1.345 -0.7960 -0.3099 -0.6405
  457MOL0     O61619   1.647   3.314   1.387  0.3327 -1.0229  0.3100
  457MOL0     C61620   1.741   3.371   1.300 -0.3928 -0.2059  0.9831
  457MOL0     C61621   1.747   3.519   1.302  0.5213 -0.2294  0.3393
  457MOL0     C61622   1.858   3.565   1.383  0.3427 -0.2433  0.1092
  457MOL0     C61623   1.822   3.560   1.530 -0.9022 -0.0925  0.5404
  457MOL0     C61624   1.949   3.573   1.603  0.1285 -0.6927  0.5441
  457MOL0     C61625   2.043   3.586   1.678  0.2488 -0.7525  0.3921
  457MOL0     C61626   1.466   3.372   1.224  0.2819 -0.7218 -0.5945
  457MOL0     C61627   1.327   3.359   1.191  0.4558 -0.1202 -0.3201
  457MOL0     H61628   0.849   3.054   1.233 -1.3550 -0.5964 -0.5085
  457MOL0     H61629   0.611   3.074   1.218  2.1216  0.9439 -2.1891
  457MOL0     H61630   0.475   3.385   1.137 -0.0263  0.8974  3.6445
  457MOL0     H61631   0.504   3.218   1.092  2.0589  1.0769  0.6416
  457MOL0     H61632   0.230   3.249   1.192 -3.3023 -4.2770 -1.1436
  457MOL0     H61633   0.254   3.358   1.061 -1.6067  0.9423  2.3999
  457MOL0     H61634   0.320   3.164   0.904 -0.3372  2.4252  0.5675
  457MOL0     H61635   0.352   3.062   1.046  0.3868 -1.6581 -4.1717
  457MOL0     H61636   0.111   3.083   1.109  0.7587 -0.2598  0.9133
  457MOL0     H61637   0.073   3.178   0.959 -0.5387 -0.0929  0.9316
  457MOL0     H61638   0.199   2.955   0.848 -1.3134  0.8069 -0.1999
  457MOL0     H61639   0.154   2.885   1.004 -2.0881 -0.8935 -0.5098
  457MOL0     H61640  -0.075   2.946   0.955  0.4350  2.9181 -0.5308
  457MOL0     H61641  -0.024   3.036   0.812  0.8080  1.3908  1.5924
  457MOL0     H61642  -0.029   2.729   0.856 -1.4386 -0.0299 -1.1575
  457MOL0     H61643  -0.122   2.809   0.738 -0.0336  0.1433 -0.7908
  457MOL0     H61644   0.184   2.802   0.719 -0.6228  0.0654  1.8257
  457MOL0     H61645   0.069   2.875   0.604 -1.6648  0.3697  1.1370
  457MOL0     H61646  -0.003   2.533   0.761 -2.8094  3.8484  0.8664
  457MOL0     H61647   0.093   2.270   0.493 -2.7164 -1.4175  0.3750
  457MOL0     H61648   0.107   2.290   0.668  2.9901 -0.2482 -1.7499
  457MOL0     H61649  -0.097   2.192   0.506 -0.2643 -1.4583  0.9223
  457MOL0     H61650  -0.150   2.370   0.528  1.3117  1.2692  1.8793
  457MOL0     H61651  -0.146   2.338   0.761 -1.3646  0.1799 -0.2361
  457MOL0     H61652  -0.080   2.174   0.735 -0.5073 -0.8126 -2.4223
  457MOL0     H61653  -0.309   2.131   0.783 -0.0013 -2.9299 -1.8360
  457MOL0     H61654  -0.289   2.115   0.613  0.9055 -1.6618  1.1546
  457MOL0     H61655  -0.508   2.063   0.719  1.0328  0.9878  0.3549
  457MOL0     H61656  -0.840   1.971   0.680  1.1223  0.7823 -1.9534
  457MOL0     H61657  -0.674   1.911   0.723  0.9279  0.6862  0.9155
  457MOL0     H61658  -0.789   1.974   0.853 -1.4917  3.4796 -0.4429
  457MOL0     H61659  -1.135   2.546   0.695 -2.2333 -0.1825 -1.6570
  457MOL0     H61660  -1.362   2.597   0.748 -0.0812  0.2177 -0.9408
  457MOL0     H61661  -1.551   2.649   0.856  0.3867  0.0111 -2.5053
  457MOL0     H61662  -1.596   2.515   0.734  0.4421 -1.4296  0.5019
  457MOL0     H61663  -1.781   2.655   0.837  2.1753 -0.2520 -1.4345
  457MOL0     H61664  -1.793   2.475   0.862  1.2792 -1.0314 -0.3332
  457MOL0     H61665  -1.666   2.667   1.067  1.1514 -1.6511  2.0229
  457MOL0     H61666  -1.693   2.497   1.076  0.1401  0.3665 -1.1430
  457MOL0     H61667  -1.904   2.715   1.038  2.2221 -0.3702 -0.4075
  457MOL0     H61668  -1.957   2.552   1.054  0.3179 -0.2154 -1.3112
  457MOL0     H61669  -1.851   2.731   1.271  0.7789 -0.3102  1.2612
  457MOL0     H61670  -1.814   2.557   1.285  1.6363  1.0918 -2.5101
  457MOL0     H61671  -2.100   2.646   1.217 -1.1749  0.4027  1.3098
  457MOL0     H61672  -2.043   2.504   1.307 -1.7022  0.3952  1.2541
  457MOL0     H61673  -2.053   2.796   1.383  1.0198 -0.1745  0.5020
  457MOL0     H61674  -1.960   2.671   1.478  1.9902 -2.6321 -2.9914
  457MOL0     H61675  -2.194   2.706   1.572 -0.0900 -1.6119  1.6801
  457MOL0     H61676  -2.159   2.545   1.529  1.1423  0.7995  0.6157
  457MOL0     H61677  -1.395   2.270   1.021 -0.1407 -1.4041 -1.2418
  457MOL0     H61678  -1.154   2.203   0.956  1.4561  1.2543  1.0983
  457MOL0     H61679  -0.780   2.458   0.786 -0.5404 -0.5042  0.5441
  457MOL0     H61680  -0.547   2.475   0.728  1.3224 -0.1287  1.5469
  457MOL0     H61681   0.605   3.445   1.425  0.7340  0.5563  0.4344
  457MOL0     H61682   0.873   3.427   1.435  0.0687  0.1731  0.3228
  457MOL0     H61683   1.216   3.243   1.489 -0.7820  0.2417 -0.6068
  457MOL0     H61684   1.449   3.241   1.539  1.0858 -0.5200  0.1548
  457MOL0     H61685   1.840   3.330   1.326  0.1235  2.0586  2.9616
  457MOL0     H61686   1.715   3.344   1.197 -0.9126 -0.1202  1.0899
  457MOL0     H61687   1.656   3.567   1.339  1.9756  0.6845  2.9656
  457MOL0     H61688   1.757   3.564   1.202  1.9682 -2.0084 -0.3770
  457MOL0     H61689   1.866   3.670   1.351 -2.1064 -0.6726 -2.2218
  457MOL0     H61690   1.948   3.505   1.365 -0.5355 -1.7514  0.6208
  457MOL0     H61691   1.783   3.467   1.572  3.4177 -2.3233  0.1942
  457MOL0     H61692   1.766   3.648   1.562 -0.5732 -0.8051  3.3832
  457MOL0     H61693   2.135   3.564   1.728  1.5274  0.3253 -1.3544
  457MOL0     H61694   1.534   3.409   1.149  1.1088  3.6785  1.9770
  457MOL0     H61695   1.299   3.394   1.092 -0.9436 -0.7310 -0.1614
  458MOL0     O61696   6.769   4.392   9.211  0.3072 -0.3249  0.4182
  458MOL0     C61697   6.840   4.366   9.111  0.7007 -1.2322  0.0023
  458MOL0     O61698   6.813   4.262   9.022  0.0205  0.0032 -0.2450
  458MOL0     C61699   6.736   4.155   9.051  0.1366  0.0131 -1.1389
  458MOL0     C61700   6.600   4.141   9.019 -0.3145  0.3721 -0.1380
  458MOL0     C61701   6.530   4.037   9.072  0.7121 -0.4036 -0.7410
  458MOL0     C61702   6.581   3.939   9.156 -1.5645  0.0186  0.2349
  458MOL0     O61703   6.516   3.827   9.199 -0.0381  0.1307 -0.3716
  458MOL0     C61704   6.381   3.804   9.157 -0.0149 -0.9215 -0.0602
  458MOL0     C61705   6.337   3.672   9.210 -0.0904  0.2129 -0.0946
  458MOL0     C61706   6.184   3.653   9.188  0.6223 -0.4037 -0.2835
  458MOL0     C61707   6.152   3.506   9.150  0.7320  0.3717  0.5658
  458MOL0     C61708   6.009   3.450   9.175  0.7197  0.6279 -0.7374
  458MOL0     C61709   5.898   3.516   9.089  0.1274 -0.7058  0.7530
  458MOL0     C61710   5.754   3.497   9.122 -0.5713 -0.8195  1.1465
  458MOL0     C61711   5.695   3.351   9.081 -0.2606  0.7065 -0.3175
  458MOL0     N61712   5.549   3.340   9.084  0.4418  0.5601  0.8864
  458MOL0     C61713   5.475   3.240   9.016  0.1001  0.3314 -0.2198
  458MOL0     C61714   5.353   3.240   9.075  0.6024 -0.2478 -0.9102
  458MOL0     C61715   5.237   3.144   9.047  0.2029 -0.7058 -0.5342
  458MOL0     C61716   5.127   3.226   8.983 -0.2137  0.8368  0.0036
  458MOL0     C61717   4.989   3.153   9.002 -0.4096  0.9159  0.0147
  458MOL0     C61718   4.880   3.223   8.935  0.1868 -0.9732  0.2950
  458MOL0     O61719   4.921   3.258   8.800  0.0388  0.6748  0.3433
  458MOL0     C61720   4.819   3.272   8.702 -0.3638 -0.2083  0.0263
  458MOL0     C61721   4.846   3.275   8.566  0.8622  0.0515 -0.1440
  458MOL0     C61722   4.749   3.295   8.461 -1.1340 -0.6116 -0.2153
  458MOL0     C61723   4.804   3.264   8.320 -0.5246 -0.4483  0.6813
  458MOL0     C61724   4.615   3.300   8.504 -0.1792 -0.6644 -0.2778
  458MOL0     C61725   4.495   3.288   8.407 -0.8191 -1.0511  0.6213
  458MOL0     O61726   4.379   3.299   8.467  0.0783  0.2468  0.1166
  458MOL0     C61727   4.254   3.286   8.404  0.2709  0.3737  0.0530
  458MOL0     C61728   4.224   3.201   8.303  0.0466  0.3578  0.3084
  458MOL0     C61729   4.089   3.188   8.252 -0.5893 -0.2926  0.9037
  458MOL0     C61730   3.989   3.279   8.298 -0.8573  0.2362 -0.4902
  458MOL0     O61731   3.869   3.295   8.236 -0.2843  0.2942  0.0712
  458MOL0     C61732   3.776   3.182   8.248  0.2811  0.3209  0.4685
  458MOL0     C61733   3.669   3.211   8.358 -0.0592  0.1741  0.1416
  458MOL0     C61734   3.562   3.107   8.375 -0.1694  1.4330 -0.9832
  458MOL0     C61735   3.490   3.125   8.511 -0.3641  0.4949  0.4625
  458MOL0     C61736   3.341   3.078   8.501  1.0348  0.3935 -0.2055
  458MOL0     C61737   3.263   3.120   8.624 -0.1585 -0.1558  0.2976
  458MOL0     C61738   3.122   3.059   8.619  0.2970 -0.6630 -0.1404
  458MOL0     C61739   3.017   3.103   8.724  0.2277  0.8395 -0.1645
  458MOL0    Cl61740   2.854   3.040   8.706  0.1331  0.6308 -0.5717
  458MOL0     C61741   4.027   3.378   8.387 -0.1957 -0.2774  0.5704
  458MOL0     C61742   4.156   3.375   8.443 -0.0012  0.8617  0.5300
  458MOL0     O61743   4.513   3.273   8.291  0.2049  0.1789  0.0225
  458MOL0     C61744   4.586   3.335   8.640  0.2064  0.0479 -0.0339
  458MOL0     C61745   4.688   3.310   8.737 -0.4418  0.6754 -0.4222
  458MOL0     N61746   5.351   3.338   9.173 -0.7815 -0.7512 -0.1052
  458MOL0     N61747   5.469   3.396   9.178  0.3879 -0.0705  0.0571
  458MOL0     C61748   6.721   3.942   9.169 -0.7364  0.2314 -0.2947
  458MOL0     C61749   6.790   4.051   9.120 -0.0763  0.6112 -0.7055
  458MOL0     C61750   6.971   4.429   9.088 -0.4963 -0.3649  0.4685
  458MOL0     C61751   7.068   4.378   8.999  0.0461  0.1466 -0.3162
  458MOL0     C61752   7.198   4.437   8.993 -0.3834 -0.9303  0.0931
  458MOL0     C61753   7.226   4.553   9.072 -0.0960 -0.3848 -0.0768
  458MOL0     O61754   7.357   4.610   9.075 -0.3522  0.1283  0.4487
  458MOL0     C61755   7.370   4.750   9.077  0.0048  0.3054 -0.3332
  458MOL0     C61756   7.520   4.791   9.092  0.3962  0.1686  0.1593
  458MOL0     C61757   7.586   4.743   9.215 -0.7306  0.6551 -0.9900
  458MOL0     C61758   7.531   4.803   9.345  0.3218  0.1949 -0.3711
  458MOL0     C61759   7.526   4.950   9.342  0.2906 -0.1134 -0.7651
  458MOL0     C61760   7.531   5.071   9.342 -0.8976 -0.0159  0.3447
  458MOL0     C61761   7.122   4.605   9.152  0.5768  0.3307 -0.2138
  458MOL0     C61762   7.002   4.538   9.168  0.5115 -0.3580 -0.9501
  458MOL0     H61763   6.548   4.217   8.961 -0.1797 -0.2673 -1.1307
  458MOL0     H61764   6.427   4.040   9.037  0.8594 -3.0179 -1.6561
  458MOL0     H61765   6.313   3.884   9.187 -0.8722 -1.1187 -1.3526
  458MOL0     H61766   6.380   3.801   9.047  0.2768  0.1484 -0.1043
  458MOL0     H61767   6.390   3.592   9.156  0.8868 -1.4463  3.0581
  458MOL0     H61768   6.368   3.661   9.314  0.2396 -0.2965 -0.2434
  458MOL0     H61769   6.128   3.685   9.276  0.1207  1.8425 -1.3386
  458MOL0     H61770   6.137   3.702   9.102  0.1405 -2.3260 -1.1577
  458MOL0     H61771   6.181   3.483   9.047 -2.4838 -0.0051 -0.3887
  458MOL0     H61772   6.214   3.438   9.209  1.6233  0.1927 -0.5508
  458MOL0     H61773   6.007   3.341   9.167  1.3222  0.3736  1.7949
  458MOL0     H61774   5.996   3.467   9.282  3.2140 -2.9873  0.3075
  458MOL0     H61775   5.919   3.623   9.078 -0.2035 -0.7544 -0.5102
  458MOL0     H61776   5.911   3.470   8.991 -1.9210 -2.0994  1.0671
  458MOL0     H61777   5.733   3.518   9.227 -2.0287  2.5131  0.3208
  458MOL0     H61778   5.699   3.572   9.064 -1.6819 -0.2627  2.8283
  458MOL0     H61779   5.741   3.273   9.142  1.7753  2.9897  1.2495
  458MOL0     H61780   5.728   3.342   8.977 -1.9561  1.9097 -1.0053
  458MOL0     H61781   5.508   3.161   8.949  2.0437 -0.2392  1.3520
  458MOL0     H61782   5.273   3.062   8.984  0.1268 -1.2877  0.1682
  458MOL0     H61783   5.195   3.099   9.137 -0.1210 -0.5732 -0.6187
  458MOL0     H61784   5.149   3.242   8.877  1.1169 -3.1320 -0.5160
  458MOL0     H61785   5.122   3.326   9.025 -0.5241  1.9320 -2.4789
  458MOL0     H61786   4.949   3.149   9.104 -3.2456 -0.9883 -1.0575
  458MOL0     H61787   4.999   3.048   8.972 -0.7963  0.4870  1.2952
  458MOL0     H61788   4.849   3.304   9.001 -0.7090 -1.8851  1.0215
  458MOL0     H61789   4.788   3.164   8.933 -1.4223  0.9826  4.4077
  458MOL0     H61790   4.949   3.248   8.549  0.2328 -3.3080  0.6252
  458MOL0     H61791   4.787   3.352   8.257  2.5045  0.0081  0.3538
  458MOL0     H61792   4.913   3.252   8.314 -0.1146  3.0188 -2.8166
  458MOL0     H61793   4.757   3.171   8.288 -1.2336  0.1187  0.0495
  458MOL0     H61794   4.296   3.133   8.260  0.6550  0.0270  1.7651
  458MOL0     H61795   4.062   3.119   8.173 -0.0577  1.1308 -0.5893
  458MOL0     H61796   3.731   3.153   8.153  1.6954 -1.0636  0.1835
  458MOL0     H61797   3.833   3.096   8.283  0.4266  0.9121  1.7738
  458MOL0     H61798   3.723   3.220   8.453 -1.9846  2.2730  1.1175
  458MOL0     H61799   3.631   3.307   8.323  1.5381  0.1753 -1.7885
  458MOL0     H61800   3.605   3.006   8.379 -1.6474  0.5755 -3.8501
  458MOL0     H61801   3.488   3.127   8.296 -1.0790  2.7493  0.1571
  458MOL0     H61802   3.535   3.072   8.595 -1.9733 -0.2658  0.8787
  458MOL0     H61803   3.494   3.232   8.530 -3.2778  0.3385  2.5766
  458MOL0     H61804   3.337   2.969   8.496 -3.7658  0.3294  0.4899
  458MOL0     H61805   3.290   3.129   8.419  1.1769  1.4903  0.3715
  458MOL0     H61806   3.311   3.082   8.715  0.2180  0.5979  0.4274
  458MOL0     H61807   3.265   3.229   8.629 -0.5764 -0.2091  3.4026
  458MOL0     H61808   3.134   2.950   8.621 -1.0182 -0.8221 -0.0404
  458MOL0     H61809   3.078   3.079   8.521  0.2680  0.4248  0.0900
  458MOL0     H61810   3.001   3.211   8.719  0.5745  0.8563 -1.6558
  458MOL0     H61811   3.055   3.068   8.820 -0.1438 -0.4716 -0.4851
  458MOL0     H61812   3.951   3.454   8.403  0.5035  0.1189  2.2606
  458MOL0     H61813   4.178   3.459   8.508 -0.1899 -0.6679  2.6949
  458MOL0     H61814   4.492   3.382   8.666 -0.9072 -1.8114 -0.4744
  458MOL0     H61815   4.662   3.330   8.840  2.0175  0.4252  0.3292
  458MOL0     H61816   6.784   3.867   9.215 -0.1551 -0.3162 -1.9229
  458MOL0     H61817   6.897   4.063   9.138 -0.5311  2.3546  1.2903
  458MOL0     H61818   7.054   4.290   8.936 -0.0116  1.4209 -2.1595
  458MOL0     H61819   7.259   4.386   8.919 -1.7976 -2.3390 -0.1865
  458MOL0     H61820   7.335   4.801   8.986  1.6168  6.0290  1.8035
  458MOL0     H61821   7.316   4.793   9.161 -1.2651  1.0145 -1.4617
  458MOL0     H61822   7.527   4.899   9.075 -1.3873  0.3309  0.2285
  458MOL0     H61823   7.577   4.757   9.005  2.0755  0.6938  1.0232
  458MOL0     H61824   7.691   4.771   9.204 -0.1562 -2.2160 -4.1569
  458MOL0     H61825   7.576   4.634   9.212 -1.7684  0.7719 -2.2934
  458MOL0     H61826   7.595   4.762   9.424  2.2217  0.8299 -1.4981
  458MOL0     H61827   7.430   4.775   9.376  1.9832 -3.5098  2.4843
  458MOL0     H61828   7.547   5.177   9.335  0.1857 -0.1579  0.5318
  458MOL0     H61829   7.140   4.676   9.233 -0.0956 -1.2302  1.3815
  458MOL0     H61830   6.921   4.581   9.226  2.1511 -0.4142  1.5293
  459MOL0     O61831   3.821   5.275   0.401  0.2080  0.0253  0.2534
  459MOL0     C61832   3.852   5.244   0.285  0.3060  0.2691  0.0053
  459MOL0     O61833   3.773   5.251   0.167 -0.5828  0.0943  0.4800
  459MOL0     C61834   3.642   5.289   0.191 -0.3921  0.5199 -0.4603
  459MOL0     C61835   3.559   5.200   0.263 -0.7649  0.1598  0.0231
  459MOL0     C61836   3.434   5.238   0.292 -0.2967 -0.4110 -0.7210
  459MOL0     C61837   3.383   5.359   0.237 -0.0709  0.3673 -0.9650
  459MOL0     O61838   3.249   5.389   0.248  0.1477  0.1905 -0.0459
  459MOL0     C61839   3.151   5.298   0.298  0.0346 -0.1529 -0.8950
  459MOL0     C61840   3.021   5.370   0.292 -0.4322 -0.5410  0.5751
  459MOL0     C61841   2.913   5.293   0.364 -0.5661 -0.0999  0.7666
  459MOL0     C61842   2.797   5.389   0.403 -0.4494 -0.0026 -0.3513
  459MOL0     C61843   2.683   5.299   0.474  0.6810  0.1427  0.3348
  459MOL0     C61844   2.551   5.387   0.492 -0.0054  0.7806  0.0853
  459MOL0     C61845   2.443   5.309   0.573  0.9836 -0.0618 -0.2141
  459MOL0     C61846   2.315   5.390   0.589  0.6899  0.3491 -0.5902
  459MOL0     N61847   2.223   5.322   0.685 -0.4061  0.2503  0.1201
  459MOL0     C61848   2.219   5.313   0.820 -0.5818  0.1327  0.6958
  459MOL0     C61849   2.099   5.265   0.857 -0.6409  1.4066 -0.3274
  459MOL0     C61850   2.046   5.245   0.995 -0.1922  0.2660 -0.3155
  459MOL0     C61851   2.089   5.107   1.055 -0.1471  0.1575  0.2540
  459MOL0     C61852   1.992   5.001   1.026 -0.3880 -0.9692  0.1032
  459MOL0     C61853   2.035   4.867   1.089 -0.1509 -0.2262 -0.2627
  459MOL0     O61854   1.976   4.758   1.014  0.5496 -0.3544 -0.1305
  459MOL0     C61855   1.843   4.736   1.027  0.2239  0.0057  0.7338
  459MOL0     C61856   1.754   4.806   1.111  0.4379 -0.0673 -0.3977
  459MOL0     C61857   1.612   4.791   1.120 -0.1440  0.0965  0.8706
  459MOL0     C61858   1.544   4.869   1.222 -0.0855 -0.6703  0.3755
  459MOL0     C61859   1.551   4.700   1.029  0.2921  0.0032  0.0590
  459MOL0     C61860   1.409   4.688   1.006  0.1303 -0.1778  0.1949
  459MOL0     O61861   1.373   4.601   0.896  0.3123 -0.4372 -0.1034
  459MOL0     C61862   1.245   4.611   0.851  0.6624 -0.3029 -0.8087
  459MOL0     C61863   1.211   4.712   0.756  0.0846 -0.5640  0.0377
  459MOL0     C61864   1.084   4.723   0.704  0.2136 -0.6207 -0.6011
  459MOL0     C61865   0.991   4.632   0.747 -1.2092 -1.1751  1.1590
  459MOL0     O61866   0.867   4.614   0.702 -0.2108 -0.5254 -0.0382
  459MOL0     C61867   0.832   4.675   0.575  0.0022  0.1233 -0.4596
  459MOL0     C61868   0.707   4.611   0.524  1.0176  0.0713  0.5811
  459MOL0     C61869   0.580   4.623   0.603  0.8049  0.2215 -0.3420
  459MOL0     C61870   0.490   4.494   0.566 -0.6736 -1.0912  0.9020
  459MOL0     C61871   0.374   4.473   0.657 -0.4929  0.1532  0.5073
  459MOL0     C61872   0.262   4.585   0.650 -0.0672  0.2350 -0.3862
  459MOL0     C61873   0.139   4.536   0.740 -0.2343 -0.3031  0.1969
  459MOL0     C61874   0.152   4.564   0.886  0.7908  0.5709  0.6344
  459MOL0    Cl61875   0.007   4.488   0.956  0.3694  0.0459  0.2268
  459MOL0     C61876   1.020   4.543   0.851  0.5206 -0.6654  0.1195
  459MOL0     C61877   1.147   4.526   0.901  0.2449  0.4748  0.4793
  459MOL0     O61878   1.331   4.766   1.065 -0.0265  0.4728  0.6283
  459MOL0     C61879   1.637   4.630   0.937  1.1699 -0.0137 -0.1721
  459MOL0     C61880   1.775   4.649   0.934  0.2212 -0.0876 -0.6323
  459MOL0     N61881   2.025   5.227   0.741  0.6543  0.7235  0.0746
  459MOL0     N61882   2.103   5.266   0.634 -0.4737  0.2228 -0.5842
  459MOL0     C61883   3.472   5.445   0.174 -0.0982 -0.0882  0.2426
  459MOL0     C61884   3.598   5.411   0.141  0.2485  0.1775  0.1320
  459MOL0     C61885   3.987   5.214   0.250 -0.5686 -0.7893  0.7256
  459MOL0     C61886   4.092   5.259   0.331  0.1152  1.2131  0.7799
  459MOL0     C61887   4.224   5.224   0.288  0.1327  0.2570 -1.2062
  459MOL0     C61888   4.256   5.151   0.174 -0.2179  0.1753 -0.4902
  459MOL0     O61889   4.387   5.105   0.139 -0.1969  0.2601 -0.4213
  459MOL0     C61890   4.500   5.152   0.221  0.3551  0.9168 -0.9068
  459MOL0     C61891   4.628   5.113   0.156 -0.3591  0.4824 -0.2636
  459MOL0     C61892   4.682   4.969   0.196 -1.1586 -0.6463  0.9822
  459MOL0     C61893   4.831   4.959   0.151  0.4831  0.4792  0.1439
  459MOL0     C61894   4.926   5.066   0.188  0.0404  1.4415 -0.0473
  459MOL0     C61895   5.014   5.146   0.216 -0.4678 -0.0170 -0.7011
  459MOL0     C61896   4.148   5.132   0.089 -0.7530 -0.6310 -0.0339
  459MOL0     C61897   4.016   5.160   0.122 -0.9005  0.2730  0.0824
  459MOL0     H61898   3.604   5.109   0.300  0.9368  1.6504  1.8281
  459MOL0     H61899   3.381   5.164   0.352  1.0324  0.4292  1.6137
  459MOL0     H61900   3.144   5.204   0.242  0.4240 -0.9744  0.3843
  459MOL0     H61901   3.183   5.272   0.399  0.0290  0.5105 -0.7147
  459MOL0     H61902   3.027   5.464   0.347  3.3104 -1.7066  2.4378
  459MOL0     H61903   2.989   5.384   0.188  1.3408  0.1832  0.0964
  459MOL0     H61904   2.878   5.211   0.301  1.9676 -0.4609 -0.3177
  459MOL0     H61905   2.944   5.229   0.447  0.2319 -0.7840 -0.0386
  459MOL0     H61906   2.816   5.471   0.473 -3.2989  0.1389  0.3451
  459MOL0     H61907   2.755   5.431   0.311  0.9043  2.9258  0.2464
  459MOL0     H61908   2.665   5.214   0.408 -0.9796 -1.1316  2.3038
  459MOL0     H61909   2.710   5.264   0.574  1.9236 -1.5924 -0.5578
  459MOL0     H61910   2.583   5.476   0.547  2.2672 -0.6184  1.1841
  459MOL0     H61911   2.507   5.406   0.394  0.8231 -0.7327 -0.6113
  459MOL0     H61912   2.407   5.225   0.513  5.8783 -2.2030 -0.5591
  459MOL0     H61913   2.473   5.260   0.666 -4.3933 -1.6251  1.0478
  459MOL0     H61914   2.270   5.407   0.491 -0.5589  0.5685  0.0064
  459MOL0     H61915   2.335   5.484   0.642 -1.0767 -0.1697  1.1036
  459MOL0     H61916   2.308   5.332   0.880 -1.0789 -1.8873  2.1976
  459MOL0     H61917   2.087   5.328   1.054  2.5723 -0.9755 -0.3517
  459MOL0     H61918   1.937   5.252   0.996 -0.1948  0.1893 -0.1324
  459MOL0     H61919   2.090   5.119   1.164  0.7878  1.9946  0.0901
  459MOL0     H61920   2.191   5.082   1.022  0.3674  0.0188  1.8474
  459MOL0     H61921   1.989   5.008   0.917 -0.6337 -0.4516  0.1426
  459MOL0     H61922   1.899   5.034   1.074 -1.2611 -2.3468 -0.5659
  459MOL0     H61923   2.008   4.854   1.195  1.2998 -1.9265 -0.0502
  459MOL0     H61924   2.142   4.847   1.089 -0.5212 -2.4582  0.0623
  459MOL0     H61925   1.793   4.877   1.183  1.7614 -1.5968  0.4655
  459MOL0     H61926   1.613   4.930   1.282  1.3358  0.6558 -2.4233
  459MOL0     H61927   1.469   4.936   1.180  1.2318  0.8590  0.3447
  459MOL0     H61928   1.494   4.799   1.289 -3.4657 -0.5035 -1.7416
  459MOL0     H61929   1.290   4.780   0.723  0.0054 -1.7294 -2.9010
  459MOL0     H61930   1.055   4.806   0.641  2.5961 -0.4532 -1.6032
  459MOL0     H61931   0.823   4.783   0.589 -0.7347 -0.0142  0.1675
  459MOL0     H61932   0.909   4.655   0.499 -2.3674 -2.1074 -2.4458
  459MOL0     H61933   0.685   4.660   0.429 -3.3965  0.2705  1.4925
  459MOL0     H61934   0.719   4.505   0.501 -1.9325 -0.0881 -0.7332
  459MOL0     H61935   0.527   4.714   0.573 -2.4585 -0.8844  1.6063
  459MOL0     H61936   0.614   4.628   0.707  2.8798  0.2720 -0.9744
  459MOL0     H61937   0.451   4.514   0.466 -1.2432 -1.6157  1.0138
  459MOL0     H61938   0.545   4.401   0.549  1.5376  0.6985 -2.8403
  459MOL0     H61939   0.407   4.464   0.761  0.5299  1.7328  0.3421
  459MOL0     H61940   0.325   4.382   0.620  0.7333 -0.2850 -0.1034
  459MOL0     H61941   0.294   4.684   0.684 -0.9642  0.8322 -1.2087
  459MOL0     H61942   0.219   4.594   0.550 -2.1059 -2.1107  0.1950
  459MOL0     H61943   0.132   4.428   0.722  1.6171 -0.1629 -1.7787
  459MOL0     H61944   0.054   4.583   0.689  0.1361 -0.3546 -0.4773
  459MOL0     H61945   0.155   4.673   0.900  2.1520  0.5282  0.7117
  459MOL0     H61946   0.237   4.509   0.927 -1.1744 -4.1000 -0.8687
  459MOL0     H61947   0.941   4.474   0.879  0.7674 -0.5188  1.2009
  459MOL0     H61948   1.172   4.450   0.975  0.9563 -0.2690 -0.4964
  459MOL0     H61949   1.588   4.569   0.862 -2.8603 -1.3621  3.1570
  459MOL0     H61950   1.826   4.596   0.854  1.2089 -0.7567  0.4105
  459MOL0     H61951   3.429   5.537   0.134  2.6493  1.0950 -0.2197
  459MOL0     H61952   3.659   5.468   0.072  2.3342 -0.2486  1.5184
  459MOL0     H61953   4.082   5.329   0.413 -1.2543  0.1255  1.5919
  459MOL0     H61954   4.294   5.250   0.368 -2.1932 -0.5094  1.2408
  459MOL0     H61955   4.509   5.261   0.232  2.2854  0.6472  0.8030
  459MOL0     H61956   4.505   5.113   0.323 -0.2783  0.1289 -1.1677
  459MOL0     H61957   4.704   5.190   0.174  0.3863 -0.6497  1.8689
  459MOL0     H61958   4.613   5.113   0.048  0.6054 -3.4834 -0.5467
  459MOL0     H61959   4.614   4.900   0.145 -0.2742  0.6954 -2.2719
  459MOL0     H61960   4.686   4.955   0.304  1.5110  1.4563  1.2713
  459MOL0     H61961   4.831   4.935   0.044  0.6193  1.7798 -0.1669
  459MOL0     H61962   4.874   4.872   0.201  2.5790  0.0251 -2.2207
  459MOL0     H61963   5.078   5.230   0.235 -3.3928  1.8916  1.7979
  459MOL0     H61964   4.174   5.086  -0.006  1.6439 -0.1440  0.3110
  459MOL0     H61965   3.928   5.131   0.065 -1.7735  1.1102  0.9610
  460MOL0     O61966   2.656   9.655  10.827 -0.6555 -0.3985  0.6791
  460MOL0     C61967   2.602   9.546  10.848 -0.8025 -0.7397 -0.5116
  460MOL0     O61968   2.656   9.429  10.799  1.0910 -0.3342 -0.8463
  460MOL0     C61969   2.770   9.416  10.720 -0.1257  0.1397  0.5264
  460MOL0     C61970   2.774   9.325  10.617  0.8714  0.0145  0.7407
  460MOL0     C61971   2.862   9.338  10.514  0.0816 -0.1532 -0.1780
  460MOL0     C61972   2.980   9.419  10.526  0.9514 -0.5640 -0.8277
  460MOL0     O61973   3.084   9.435  10.435 -0.1517 -0.4470  0.1502
  460MOL0     C61974   3.102   9.341  10.326  0.1334  0.5600 -0.6303
  460MOL0     C61975   3.226   9.380  10.249 -0.1283  0.2168 -0.2106
  460MOL0     C61976   3.222   9.536  10.205  0.4123  0.3714 -0.5282
  460MOL0     C61977   3.329   9.595  10.111  0.9543  0.1832  0.3729
  460MOL0     C61978   3.457   9.648  10.174  0.0477 -0.1362 -0.6445
  460MOL0     C61979   3.555   9.546  10.233 -0.2915  0.4713  0.0394
  460MOL0     C61980   3.612   9.450  10.125  0.0080  0.1335  0.1253
  460MOL0     C61981   3.763   9.435  10.136  0.6236 -0.9811  0.5002
  460MOL0     N61982   3.805   9.340  10.244 -0.2998  0.5303  0.7311
  460MOL0     C61983   3.814   9.347  10.378  0.2674 -0.0418 -0.3237
  460MOL0     C61984   3.870   9.230  10.421  0.1464 -0.4236  0.2897
  460MOL0     C61985   3.900   9.179  10.561  0.1337 -0.0220 -0.4362
  460MOL0     C61986   3.990   9.286  10.631  0.0694  0.0686 -0.2998
  460MOL0     C61987   4.124   9.302  10.565 -0.0044  0.9558  0.6279
  460MOL0     C61988   4.232   9.357  10.654 -0.6713  0.5974  0.4716
  460MOL0     O61989   4.183   9.480  10.709  0.0291 -0.4115 -0.3538
  460MOL0     C61990   4.277   9.563  10.765  0.3332  0.0799  0.5205
  460MOL0     C61991   4.221   9.683  10.811  0.4770  0.5169 -0.1709
  460MOL0     C61992   4.298   9.774  10.880  0.1108  0.0345 -0.2407
  460MOL0     C61993   4.245   9.908  10.901  0.0862 -0.4808 -0.8233
  460MOL0     C61994   4.430   9.739  10.918 -1.1908 -0.1524  1.4802
  460MOL0     C61995   4.528   9.820  10.987  0.5346 -0.4432 -0.8507
  460MOL0     O61996   4.583   9.931  10.924 -0.5447 -0.5719  0.0397
  460MOL0     C61997   4.669   9.995  11.011  0.1840 -0.3592  1.2127
  460MOL0     C61998   4.631  10.096  11.095  0.2354 -0.0656  0.9385
  460MOL0     C61999   4.720  10.156  11.178  0.4690  0.2752 -0.1651
  460MOL0     C62000   4.852  10.124  11.187  0.0692  0.2193  0.2536
  460MOL0     O62001   4.948  10.186  11.265  0.0671  0.2823 -0.4027
  460MOL0     C62002   4.904  10.307  11.330 -0.9231 -0.3782 -0.5564
  460MOL0     C62003   5.008  10.340  11.435 -0.0001 -0.5307 -0.0914
  460MOL0     C62004   4.993  10.482  11.502  0.7883  0.3798 -0.1610
  460MOL0     C62005   5.111  10.516  11.584  0.0813  0.3163  0.4341
  460MOL0     C62006   5.081  10.635  11.671  0.7205  0.1483  0.2287
  460MOL0     C62007   5.163  10.641  11.807 -0.0586  1.0600 -1.4242
  460MOL0     C62008   5.159  10.776  11.883 -0.2613 -0.2883  0.5814
  460MOL0     C62009   5.028  10.848  11.876  0.0076 -0.0438 -0.0274
  460MOL0    Cl62010   5.011  10.996  11.975 -0.5362 -0.3017 -0.6159
  460MOL0     C62011   4.895  10.013  11.107  0.1953 -0.3347 -0.0590
  460MOL0     C62012   4.808   9.958  11.016  0.0540 -0.2022 -0.2855
  460MOL0     O62013   4.561   9.776  11.098  0.4797  0.8323  0.5323
  460MOL0     C62014   4.487   9.614  10.874  0.4068 -1.1641  0.6923
  460MOL0     C62015   4.407   9.527  10.790  0.2048 -0.7674 -1.1240
  460MOL0     N62016   3.914   9.164  10.313  0.1156  0.4498  0.0550
  460MOL0     N62017   3.873   9.231  10.212  0.1927 -0.2444 -0.3059
  460MOL0     C62018   2.984   9.496  10.640  0.3781  0.7048  0.1305
  460MOL0     C62019   2.883   9.493  10.737  0.4235  0.2093  0.4172
  460MOL0     C62020   2.481   9.537  10.928  1.6663 -0.6421  0.0588
  460MOL0     C62021   2.429   9.653  10.990  1.4740  0.0322 -0.0333
  460MOL0     C62022   2.309   9.648  11.055  1.0648 -0.3904  0.1823
  460MOL0     C62023   2.235   9.528  11.070 -0.0605  0.3215  0.4081
  460MOL0     O62024   2.125   9.523  11.155 -0.4674  1.0219 -1.0365
  460MOL0     C62025   2.073   9.389  11.194 -0.2910 -0.3927 -0.5035
  460MOL0     C62026   1.994   9.396  11.327 -0.0798  0.0261 -0.1806
  460MOL0     C62027   1.889   9.519  11.338  0.5520  0.6134  0.5206
  460MOL0     C62028   1.774   9.472  11.245  0.7516  0.0791 -0.2980
  460MOL0     C62029   1.659   9.560  11.264 -0.3640  0.8801 -0.0064
  460MOL0     C62030   1.548   9.607  11.285 -0.0508 -0.1080  0.1958
  460MOL0     C62031   2.289   9.417  11.004  0.6887  0.7853 -0.6308
  460MOL0     C62032   2.410   9.420  10.945 -0.1146  0.3393 -0.0836
  460MOL0     H62033   2.691   9.255  10.616  0.5325  0.1648  4.3369
  460MOL0     H62034   2.845   9.267  10.433  0.3425  0.1747 -0.5275
  460MOL0     H62035   3.111   9.235  10.349  3.0187  0.4200 -1.9587
  460MOL0     H62036   3.020   9.342  10.253  1.8575  0.1758 -2.6657
  460MOL0     H62037   3.316   9.367  10.311 -1.9522 -2.1581  2.1800
  460MOL0     H62038   3.239   9.304  10.171 -1.2163 -1.4341  1.1338
  460MOL0     H62039   3.122   9.558  10.168 -0.3151 -1.4938  0.1998
  460MOL0     H62040   3.229   9.582  10.304 -0.8998  0.0405 -0.2628
  460MOL0     H62041   3.351   9.515  10.039 -1.4803 -0.9877  0.8501
  460MOL0     H62042   3.275   9.674  10.060 -0.7490 -1.5211 -0.5685
  460MOL0     H62043   3.505   9.702  10.092 -3.4934  0.2303 -2.6558
  460MOL0     H62044   3.427   9.726  10.244 -1.1579  0.5387 -1.8596
  460MOL0     H62045   3.635   9.596  10.289 -1.0321 -0.3403  1.9266
  460MOL0     H62046   3.509   9.479  10.306  0.9403  0.1677  0.5674
  460MOL0     H62047   3.569   9.350  10.133 -1.5118  0.7307 -0.1180
  460MOL0     H62048   3.579   9.487  10.027 -0.8988  2.5632  1.2700
  460MOL0     H62049   3.805   9.535  10.145 -2.5750  0.6252 -0.6147
  460MOL0     H62050   3.800   9.384  10.047  0.2484 -3.6266  1.7484
  460MOL0     H62051   3.781   9.427  10.444  2.7025 -2.6069  4.5546
  460MOL0     H62052   3.806   9.165  10.615  0.1146 -1.9296 -0.8936
  460MOL0     H62053   3.946   9.080  10.550 -0.0453  0.0877 -2.6862
  460MOL0     H62054   4.002   9.255  10.735  0.0777  2.1134  0.3462
  460MOL0     H62055   3.937   9.381  10.635  1.0987  0.6507 -0.1562
  460MOL0     H62056   4.115   9.375  10.484 -0.1563  1.6613  1.2725
  460MOL0     H62057   4.160   9.203  10.534  1.2420  1.0499  1.7144
  460MOL0     H62058   4.308   9.384  10.581 -1.9779  1.0327 -0.7670
  460MOL0     H62059   4.255   9.282  10.730 -3.8736 -1.5622 -0.4949
  460MOL0     H62060   4.117   9.704  10.790  0.1450 -2.1443 -1.5114
  460MOL0     H62061   4.309   9.948  10.980  0.6816 -2.1043 -0.4530
  460MOL0     H62062   4.254   9.969  10.810 -0.8016 -1.1734 -1.3990
  460MOL0     H62063   4.145   9.918  10.946  0.6624 -0.1374  0.4184
  460MOL0     H62064   4.525  10.115  11.110 -0.0495 -0.8650  0.0071
  460MOL0     H62065   4.674  10.228  11.245 -0.1401 -1.3157  1.1841
  460MOL0     H62066   4.901  10.387  11.255 -1.4521 -3.0246 -3.6019
  460MOL0     H62067   4.811  10.294  11.386 -0.8729  3.0301  0.5263
  460MOL0     H62068   5.005  10.268  11.518 -2.2579 -0.1563  0.2284
  460MOL0     H62069   5.102  10.339  11.381  0.1381  2.5644 -0.0464
  460MOL0     H62070   4.902  10.476  11.562  0.2538  1.2707 -0.8617
  460MOL0     H62071   4.983  10.551  11.418  1.9619 -1.0872 -1.5774
  460MOL0     H62072   5.144  10.439  11.655  1.3847  1.0501  0.6498
  460MOL0     H62073   5.199  10.534  11.522  1.7001  1.1026  2.8346
  460MOL0     H62074   4.974  10.630  11.697 -0.1020 -2.7434 -3.0008
  460MOL0     H62075   5.109  10.723  11.613  0.4329  0.8495  1.1390
  460MOL0     H62076   5.123  10.563  11.872  3.6186 -0.8305 -1.2040
  460MOL0     H62077   5.263  10.601  11.789  0.1445  0.0637  1.4001
  460MOL0     H62078   5.239  10.837  11.839 -0.7987  0.9923  1.3048
  460MOL0     H62079   5.175  10.765  11.990 -1.3266 -1.7637  0.6101
  460MOL0     H62080   4.955  10.782  11.925 -0.4883  1.4630  1.3695
  460MOL0     H62081   4.991  10.867  11.775  0.2556 -0.4105 -0.1861
  460MOL0     H62082   4.989   9.962  11.121  3.2511  4.7600  0.5287
  460MOL0     H62083   4.830   9.876  10.948 -0.7520 -1.4438  0.8861
  460MOL0     H62084   4.592   9.592  10.886  0.5459  0.1866  2.3230
  460MOL0     H62085   4.439   9.425  10.771  1.0462 -0.6946 -0.2096
  460MOL0     H62086   3.071   9.560  10.653  0.6840  1.5163 -4.2905
  460MOL0     H62087   2.899   9.557  10.824 -4.9027  1.3466  0.9183
  460MOL0     H62088   2.480   9.749  10.984  0.3858  0.6276 -0.0598
  460MOL0     H62089   2.274   9.745  11.088  2.2659  0.6785 -1.5358
  460MOL0     H62090   2.007   9.364  11.110 -1.7615  2.6470 -0.4144
  460MOL0     H62091   2.154   9.318  11.208  0.6123  0.7922  0.5539
  460MOL0     H62092   2.065   9.392  11.411 -0.0409 -1.0243 -0.2461
  460MOL0     H62093   1.938   9.302  11.339 -0.7456  0.5061  0.5383
  460MOL0     H62094   1.944   9.612  11.324  3.0237 -0.6725  1.0671
  460MOL0     H62095   1.854   9.530  11.441 -3.8557 -1.1526 -0.5524
  460MOL0     H62096   1.735   9.373  11.269 -1.0926  0.2280 -2.3996
  460MOL0     H62097   1.807   9.473  11.141 -2.0521  1.7004 -1.2656
  460MOL0     H62098   1.451   9.649  11.303  0.2923  1.6523 -1.6500
  460MOL0     H62099   2.239   9.321  11.013  0.0755  1.2883  2.0922
  460MOL0     H62100   2.461   9.339  10.895 -0.2020  1.3415 -1.8937
  461MOL0     O62101   5.530   8.845   1.505  0.4038  0.5765 -0.6057
  461MOL0     C62102   5.523   8.786   1.617 -0.2133 -1.3934 -0.1553
  461MOL0     O62103   5.417   8.778   1.699  0.7498  0.4377  0.0124
  461MOL0     C62104   5.289   8.799   1.636 -0.4605  0.4245 -0.1603
  461MOL0     C62105   5.257   8.810   1.498  0.5681 -0.5574 -0.6032
  461MOL0     C62106   5.125   8.821   1.459  0.0390  0.5939  0.1565
  461MOL0     C62107   5.022   8.832   1.548  1.0880 -0.4901  0.3924
  461MOL0     O62108   4.900   8.852   1.488 -0.7244 -0.0192  0.8148
  461MOL0     C62109   4.791   8.889   1.570  0.2710 -0.0788 -0.3023
  461MOL0     C62110   4.655   8.899   1.490 -0.5156  0.2441  0.0228
  461MOL0     C62111   4.560   8.983   1.582  0.1083 -0.2381 -0.2329
  461MOL0     C62112   4.421   8.958   1.521  0.8940 -0.9971  0.6026
  461MOL0     C62113   4.307   9.026   1.600 -1.4074  0.1912  2.3465
  461MOL0     C62114   4.318   9.177   1.608  0.1760  0.9477 -0.1982
  461MOL0     C62115   4.195   9.239   1.678 -0.3244  0.4838 -0.2939
  461MOL0     C62116   4.059   9.178   1.646 -0.4573  0.9622 -0.3126
  461MOL0     N62117   3.931   9.256   1.673 -0.4170 -0.8306  0.9748
  461MOL0     C62118   3.811   9.200   1.642  0.8509  0.0903  0.1319
  461MOL0     C62119   3.720   9.309   1.654 -0.4123  0.5829 -0.2529
  461MOL0     C62120   3.567   9.281   1.641 -0.4629 -0.4846 -2.2144
  461MOL0     C62121   3.488   9.339   1.762  0.1439  0.3711 -0.4267
  461MOL0     C62122   3.453   9.485   1.727 -0.7842  0.2264 -0.1082
  461MOL0     C62123   3.353   9.555   1.826  0.2446  0.0718 -0.3113
  461MOL0     O62124   3.227   9.483   1.838 -0.6255 -0.1060  0.2346
  461MOL0     C62125   3.130   9.550   1.908 -0.0004  0.8038 -0.5445
  461MOL0     C62126   3.152   9.614   2.035 -0.2152  0.5592 -0.4041
  461MOL0     C62127   3.055   9.676   2.103  0.6067 -0.3548  0.5649
  461MOL0     C62128   3.095   9.741   2.230 -0.0128  0.6019  0.3135
  461MOL0     C62129   2.934   9.690   2.040 -0.2186 -0.3093 -0.1774
  461MOL0     C62130   2.814   9.760   2.098  0.9415  1.0945 -0.0680
  461MOL0     O62131   2.724   9.811   2.013  0.5181  0.7353  0.6826
  461MOL0     C62132   2.609   9.856   2.067  0.8890 -0.2014 -0.4233
  461MOL0     C62133   2.504   9.764   2.061  0.3255 -1.3567 -0.1605
  461MOL0     C62134   2.378   9.810   2.112 -0.2743  0.9106 -0.4504
  461MOL0     C62135   2.361   9.936   2.168  0.4493 -0.4019  0.8230
  461MOL0     O62136   2.232   9.963   2.211 -0.3862  0.1634 -0.6185
  461MOL0     C62137   2.212  10.085   2.291 -0.1312  0.6303  0.3843
  461MOL0     C62138   2.062  10.110   2.322  0.2135 -0.0224  0.3806
  461MOL0     C62139   1.972  10.102   2.206  0.7141  0.0908 -0.3195
  461MOL0     C62140   1.838  10.050   2.241  0.1882  0.2106  0.1561
  461MOL0     C62141   1.757  10.147   2.327  0.4451  0.7384 -0.6141
  461MOL0     C62142   1.629  10.067   2.382  0.1885  0.1221 -0.4954
  461MOL0     C62143   1.532  10.166   2.441 -0.4753  0.1950  0.4062
  461MOL0     C62144   1.407  10.098   2.495  0.4340 -0.0638  0.6049
  461MOL0    Cl62145   1.302  10.223   2.574  0.2082  0.0668  0.4127
  461MOL0     C62146   2.476  10.012   2.192 -0.0168  0.7418  0.1781
  461MOL0     C62147   2.593   9.983   2.127  0.0530 -0.5820  0.1134
  461MOL0     O62148   2.797   9.753   2.220  0.4248 -0.3116  0.2381
  461MOL0     C62149   2.909   9.615   1.926  0.5492 -0.4983  0.2452
  461MOL0     C62150   3.003   9.531   1.871  0.1656  0.4439  0.0061
  461MOL0     N62151   3.793   9.424   1.679  0.2135  0.5007  0.3400
  461MOL0     N62152   3.920   9.392   1.691 -0.1479 -0.0680  0.1180
  461MOL0     C62153   5.048   8.816   1.687  0.6995 -0.7125  0.4571
  461MOL0     C62154   5.180   8.807   1.725 -0.6128  0.3760 -0.6497
  461MOL0     C62155   5.648   8.754   1.684  0.2479  0.3054  0.0984
  461MOL0     C62156   5.768   8.792   1.616  0.3885 -0.4729 -0.4943
  461MOL0     C62157   5.896   8.768   1.682 -0.9075  0.3592 -0.1982
  461MOL0     C62158   5.907   8.728   1.817  0.5014 -0.4969  0.2341
  461MOL0     O62159   6.036   8.727   1.864 -0.3341  0.4275 -0.6261
  461MOL0     C62160   6.049   8.703   2.007 -0.9395  0.4420  0.6605
  461MOL0     C62161   6.204   8.676   2.042 -0.3432  0.1738  0.3182
  461MOL0     C62162   6.219   8.636   2.184  0.0942 -0.1637 -0.2703
  461MOL0     C62163   6.363   8.620   2.228  0.7672 -0.6272 -0.0432
  461MOL0     C62164   6.376   8.605   2.368 -0.5863 -0.3266 -1.2781
  461MOL0     C62165   6.385   8.597   2.488 -0.3523 -0.2567  0.1220
  461MOL0     C62166   5.788   8.697   1.886  0.2931 -0.8826 -0.5151
  461MOL0     C62167   5.665   8.714   1.818  0.2585 -0.0341 -0.0345
  461MOL0     H62168   5.323   8.808   1.411 -1.2492 -1.1672 -2.0315
  461MOL0     H62169   5.105   8.816   1.353  0.3224 -1.6187  0.1655
  461MOL0     H62170   4.778   8.818   1.652  2.3798 -0.5993 -0.3685
  461MOL0     H62171   4.800   8.991   1.608 -3.8897  0.6217 -0.6195
  461MOL0     H62172   4.654   8.939   1.389  4.5085 -3.2148 -1.7745
  461MOL0     H62173   4.617   8.796   1.486 -0.6092  0.3026 -0.5749
  461MOL0     H62174   4.571   8.963   1.689  0.8696 -1.8268 -0.5717
  461MOL0     H62175   4.581   9.088   1.559 -1.4405 -0.1367 -1.3757
  461MOL0     H62176   4.415   8.998   1.420 -0.4570 -1.3654  0.5210
  461MOL0     H62177   4.393   8.852   1.514 -2.5754 -0.1625  0.4073
  461MOL0     H62178   4.216   8.996   1.548 -0.7631 -2.0069  2.3883
  461MOL0     H62179   4.298   8.992   1.703  2.7526 -0.8296  2.5571
  461MOL0     H62180   4.412   9.206   1.655  0.2409 -1.0133  0.9657
  461MOL0     H62181   4.322   9.217   1.506  2.4978  0.2002 -0.4543
  461MOL0     H62182   4.213   9.240   1.786  1.8892 -0.5996 -0.5991
  461MOL0     H62183   4.193   9.346   1.655 -1.8722  0.1776 -1.7741
  461MOL0     H62184   4.043   9.080   1.693  2.2152  1.9996  3.2252
  461MOL0     H62185   4.055   9.154   1.539  1.7530 -0.8244 -0.0763
  461MOL0     H62186   3.799   9.097   1.610  0.4631 -0.1290  0.9505
  461MOL0     H62187   3.526   9.317   1.545 -3.2700 -0.8934 -1.2770
  461MOL0     H62188   3.558   9.172   1.634 -0.4645 -0.8813  1.8701
  461MOL0     H62189   3.551   9.328   1.851 -0.6058 -2.1607 -0.1255
  461MOL0     H62190   3.397   9.279   1.772 -0.4980  1.2951 -0.7100
  461MOL0     H62191   3.407   9.489   1.628 -0.9842 -0.3496 -0.0457
  461MOL0     H62192   3.540   9.545   1.700 -1.7279  1.2382 -1.0227
  461MOL0     H62193   3.348   9.664   1.821  1.4695  0.1606 -0.0408
  461MOL0     H62194   3.404   9.529   1.919 -0.4442  1.9940  0.6432
  461MOL0     H62195   3.253   9.623   2.073 -0.7566  0.4669  1.1280
  461MOL0     H62196   3.197   9.723   2.265  0.5696  1.8079 -0.6636
  461MOL0     H62197   3.076   9.848   2.221  2.5636  0.9476 -2.9851
  461MOL0     H62198   3.028   9.707   2.309 -0.1634  0.9927  0.3558
  461MOL0     H62199   2.502   9.664   2.019  3.0415 -1.8700  0.7590
  461MOL0     H62200   2.294   9.742   2.112  1.2314 -1.1925  2.3574
  461MOL0     H62201   2.269  10.089   2.384 -0.1577 -0.3628  0.4473
  461MOL0     H62202   2.243  10.164   2.222  2.4042 -0.4797  0.1102
  461MOL0     H62203   2.031  10.049   2.407  1.6229  0.3815  1.2081
  461MOL0     H62204   2.059  10.215   2.350 -3.5912  1.2305 -3.5751
  461MOL0     H62205   2.007  10.019   2.143 -2.7772 -3.5537  2.0308
  461MOL0     H62206   1.955  10.188   2.141 -1.3900 -1.3041 -1.7527
  461MOL0     H62207   1.781  10.047   2.147 -2.3249 -3.3270  1.5573
  461MOL0     H62208   1.844   9.953   2.291 -1.9909  0.6748  1.4345
  461MOL0     H62209   1.732  10.241   2.277 -0.3254  1.2469  0.6840
  461MOL0     H62210   1.809  10.183   2.416 -0.3534  1.2242 -0.3330
  461MOL0     H62211   1.588  10.021   2.292  0.1633  2.1025 -1.5458
  461MOL0     H62212   1.673   9.998   2.454  2.0083  3.1136  1.4879
  461MOL0     H62213   1.503  10.237   2.363  0.4611 -0.8718 -0.9512
  461MOL0     H62214   1.576  10.211   2.531 -1.7868  3.7768 -0.5635
  461MOL0     H62215   1.442  10.037   2.578  2.0527  1.3829  1.0457
  461MOL0     H62216   1.352  10.037   2.423 -1.5544 -0.8500  2.6466
  461MOL0     H62217   2.473  10.101   2.255 -1.5771  1.6829 -1.1456
  461MOL0     H62218   2.676  10.052   2.132  0.9097 -1.5346 -0.4216
  461MOL0     H62219   2.817   9.623   1.870  0.9381  1.6773 -0.1549
  461MOL0     H62220   2.974   9.469   1.786  0.1999 -0.1783  0.4407
  461MOL0     H62221   4.968   8.807   1.760 -0.1738 -0.8449 -0.4868
  461MOL0     H62222   5.198   8.808   1.833 -1.9565  1.5134 -0.4030
  461MOL0     H62223   5.773   8.842   1.520  0.5431 -1.2695 -0.9061
  461MOL0     H62224   5.980   8.820   1.638  0.3013  0.0589  1.6693
  461MOL0     H62225   6.016   8.781   2.076 -0.0237  0.1212  1.4832
  461MOL0     H62226   5.996   8.610   2.030 -1.8793  1.4886  2.9145
  461MOL0     H62227   6.255   8.771   2.023 -2.5166  1.1753 -0.9620
  461MOL0     H62228   6.241   8.593   1.982 -1.0934 -0.1022  0.2212
  461MOL0     H62229   6.166   8.541   2.198  1.8277 -1.0272  0.7603
  461MOL0     H62230   6.160   8.698   2.251  1.9502 -0.5847  1.8730
  461MOL0     H62231   6.424   8.698   2.180 -0.0719 -1.6641 -3.0457
  461MOL0     H62232   6.411   8.532   2.183  3.3803  1.5317 -1.8702
  461MOL0     H62233   6.432   8.610   2.583 -1.5382  1.6322  0.5034
  461MOL0     H62234   5.804   8.672   1.990 -1.2773  2.6028  0.7388
  461MOL0     H62235   5.572   8.691   1.869  0.1358  2.4859  0.9967
  462MOL0     O62236   6.408   9.115   8.989 -0.0567 -0.3014 -0.6760
  462MOL0     C62237   6.470   9.215   9.031 -0.8275 -0.5356  0.3926
  462MOL0     O62238   6.595   9.225   9.090  0.5141 -0.2555 -0.7806
  462MOL0     C62239   6.658   9.121   9.152  0.0108  0.0328  0.0305
  462MOL0     C62240   6.784   9.146   9.211 -0.0117 -0.0847  0.4311
  462MOL0     C62241   6.851   9.064   9.294 -0.4766 -0.0661  0.1468
  462MOL0     C62242   6.802   8.940   9.323 -0.2516  0.1798 -0.0187
  462MOL0     O62243   6.877   8.846   9.394  0.5607 -0.1841  0.2733
  462MOL0     C62244   7.016   8.836   9.355  0.3460 -0.6038  0.6983
  462MOL0     C62245   7.081   8.762   9.477 -0.2799  0.0524 -0.6392
  462MOL0     C62246   7.202   8.830   9.534 -0.3129 -0.5737 -0.7061
  462MOL0     C62247   7.303   8.736   9.604  0.4181  0.2394 -0.5753
  462MOL0     C62248   7.423   8.813   9.657  0.1940 -0.5754 -0.7905
  462MOL0     C62249   7.395   8.926   9.753 -0.1473  0.2663  0.1667
  462MOL0     C62250   7.319   8.874   9.880 -0.3095 -0.4254  0.8554
  462MOL0     C62251   7.299   8.990   9.969 -0.0248 -0.5037 -0.0045
  462MOL0     N62252   7.211   9.093   9.905  0.4861 -0.4542  0.0096
  462MOL0     C62253   7.068   9.091   9.897  0.0100  0.1122 -0.4143
  462MOL0     C62254   7.037   9.209   9.837 -0.0614 -0.3180 -0.8484
  462MOL0     C62255   6.906   9.269   9.815  0.1530  1.0185  0.8775
  462MOL0     C62256   6.846   9.187   9.704 -0.0675  0.2840 -0.2743
  462MOL0     C62257   6.706   9.217   9.666 -0.3499  0.3059 -0.4189
  462MOL0     C62258   6.609   9.145   9.756  0.0660  0.5394  1.0220
  462MOL0     O62259   6.476   9.174   9.711 -0.5002  0.2478  0.1404
  462MOL0     C62260   6.410   9.104   9.613  0.5397  0.0655  0.7992
  462MOL0     C62261   6.317   9.168   9.536  0.4721  0.0548  0.0718
  462MOL0     C62262   6.249   9.099   9.432 -0.2110  0.1452 -0.0245
  462MOL0     C62263   6.159   9.178   9.342  0.0629  0.8020 -0.3904
  462MOL0     C62264   6.275   8.955   9.411 -0.2828 -0.4227 -0.4132
  462MOL0     C62265   6.204   8.868   9.309  0.1744  0.7491 -1.1367
  462MOL0     O62266   6.269   8.756   9.268  0.4497 -1.3411 -0.0471
  462MOL0     C62267   6.214   8.656   9.198  0.5111  0.5404 -0.4968
  462MOL0     C62268   6.276   8.601   9.087 -0.1604  0.0438  1.2616
  462MOL0     C62269   6.207   8.501   9.005 -0.3756  0.0487 -0.7158
  462MOL0     C62270   6.079   8.456   9.029  0.0917  0.2278  0.3321
  462MOL0     O62271   6.023   8.372   8.939  0.2292 -0.2682  0.5534
  462MOL0     C62272   5.879   8.355   8.935  0.3930  0.7225  0.9562
  462MOL0     C62273   5.815   8.279   8.816 -0.0363  1.3744 -0.2310
  462MOL0     C62274   5.859   8.131   8.795  0.7133  0.4957 -0.7870
  462MOL0     C62275   5.986   8.118   8.715  0.0573 -0.2266 -0.2016
  462MOL0     C62276   6.023   7.970   8.679  0.1607 -0.9570  0.1104
  462MOL0     C62277   6.153   7.961   8.595 -0.0620  0.3620  0.4529
  462MOL0     C62278   6.211   7.818   8.600 -0.1747 -0.8709 -0.2060
  462MOL0     C62279   6.319   7.799   8.493 -0.0461  1.4277  0.2731
  462MOL0    Cl62280   6.243   7.779   8.330 -0.0634 -0.2105  0.0195
  462MOL0     C62281   6.018   8.511   9.137  0.1424 -0.5541  0.0746
  462MOL0     C62282   6.087   8.606   9.222 -0.3834  0.8577  0.0490
  462MOL0     O62283   6.084   8.891   9.286  0.4193 -0.0858  0.2614
  462MOL0     C62284   6.359   8.896   9.493  0.0416 -0.0437  0.5127
  462MOL0     C62285   6.420   8.965   9.596 -0.1198  0.6116 -0.7132
  462MOL0     N62286   7.145   9.279   9.813 -0.4325  0.0045 -0.2597
  462MOL0     N62287   7.249   9.219   9.864  0.2523 -0.4606 -0.0893
  462MOL0     C62288   6.672   8.908   9.272 -0.7534 -0.8531  0.2472
  462MOL0     C62289   6.599   9.002   9.190  0.2365  0.4638  0.8259
  462MOL0     C62290   6.402   9.337   8.998  0.0207  0.2542 -0.4786
  462MOL0     C62291   6.260   9.353   8.980  0.1285 -0.3697  0.7871
  462MOL0     C62292   6.189   9.472   8.963  0.2754  0.2771 -0.0413
  462MOL0     C62293   6.256   9.591   8.937  0.4792 -0.6926 -0.6480
  462MOL0     O62294   6.200   9.714   8.916 -0.3310 -0.1243 -0.7118
  462MOL0     C62295   6.075   9.706   8.846 -0.1529 -0.1856 -0.4420
  462MOL0     C62296   6.029   9.851   8.807  0.5278 -0.0526 -0.8226
  462MOL0     C62297   6.121   9.943   8.717 -0.3928  0.6123  0.0676
  462MOL0     C62298   6.101   9.904   8.571  0.4188 -0.7507 -0.3019
  462MOL0     C62299   6.154  10.007   8.487  0.6051 -0.8220  0.0404
  462MOL0     C62300   6.199  10.096   8.420  0.1756  0.3228 -0.4946
  462MOL0     C62301   6.403   9.584   8.958  0.8435  0.0601 -0.6550
  462MOL0     C62302   6.466   9.464   8.991 -0.9583 -0.1701 -0.4063
  462MOL0     H62303   6.824   9.245   9.193  2.4985 -1.0899  0.0312
  462MOL0     H62304   6.943   9.103   9.335 -0.8973 -0.5965  1.6485
  462MOL0     H62305   7.038   8.776   9.267  3.0479  0.4461  0.5586
  462MOL0     H62306   7.061   8.935   9.341 -0.8496 -0.1342 -0.0373
  462MOL0     H62307   7.010   8.764   9.560  1.5623  0.5905  1.0094
  462MOL0     H62308   7.101   8.660   9.445 -0.8307 -0.0333 -0.7128
  462MOL0     H62309   7.260   8.858   9.446  1.9226 -0.4369  0.7447
  462MOL0     H62310   7.172   8.914   9.599 -0.9437 -1.7384  0.5603
  462MOL0     H62311   7.246   8.695   9.688  0.9671 -0.7983 -0.7023
  462MOL0     H62312   7.335   8.654   9.539  0.6871  0.5636 -0.8510
  462MOL0     H62313   7.490   8.747   9.713 -0.1994  0.5744  1.1337
  462MOL0     H62314   7.487   8.855   9.579 -0.4781 -1.1820 -1.6919
  462MOL0     H62315   7.490   8.966   9.789 -0.7677  0.3031  1.8738
  462MOL0     H62316   7.338   9.008   9.709 -1.7644  1.4394  3.9762
  462MOL0     H62317   7.222   8.827   9.864  1.3432 -3.6754 -0.4443
  462MOL0     H62318   7.375   8.811   9.949  1.0922  1.5693  1.6167
  462MOL0     H62319   7.389   9.047   9.995 -1.7923  1.1380  2.9511
  462MOL0     H62320   7.267   8.964  10.069  0.3746  1.3537  0.6571
  462MOL0     H62321   6.997   9.014   9.927 -0.5706  1.2535  1.3097
  462MOL0     H62322   6.847   9.268   9.907  1.1288 -1.1363  1.5436
  462MOL0     H62323   6.912   9.373   9.781 -2.9716  0.7885 -0.6913
  462MOL0     H62324   6.859   9.081   9.726  2.9808  0.3227 -1.3771
  462MOL0     H62325   6.916   9.195   9.620  0.4888  1.1138  0.2451
  462MOL0     H62326   6.677   9.196   9.562 -2.1071 -2.0629  0.4492
  462MOL0     H62327   6.688   9.323   9.685  0.1509  0.0227  1.9119
  462MOL0     H62328   6.619   9.180   9.859  2.4828  0.5458  0.8435
  462MOL0     H62329   6.634   9.038   9.746  0.2813  0.5685  1.2265
  462MOL0     H62330   6.313   9.277   9.535 -0.4923  0.1207  2.6981
  462MOL0     H62331   6.052   9.168   9.363  0.3640 -0.3350  0.6791
  462MOL0     H62332   6.179   9.285   9.354  0.9461  0.5159  0.8929
  462MOL0     H62333   6.175   9.160   9.235  0.3333  0.9032 -0.3668
  462MOL0     H62334   6.373   8.637   9.054 -1.7867  1.7844 -2.2584
  462MOL0     H62335   6.267   8.471   8.920 -0.7486 -2.5501 -0.1331
  462MOL0     H62336   5.845   8.310   9.028 -0.7079 -1.9217 -0.6276
  462MOL0     H62337   5.834   8.455   8.929  1.8192  1.3177 -0.9219
  462MOL0     H62338   5.709   8.291   8.839  0.6647  1.5900  3.6729
  462MOL0     H62339   5.831   8.332   8.722  0.1495 -0.4294 -1.2455
  462MOL0     H62340   5.784   8.081   8.733 -0.9222  1.2433  0.5208
  462MOL0     H62341   5.869   8.085   8.894  1.4466  2.9652  0.3576
  462MOL0     H62342   5.978   8.177   8.623 -0.9522  1.9930  1.2391
  462MOL0     H62343   6.073   8.156   8.769 -1.8831  0.9253  2.3396
  462MOL0     H62344   5.941   7.929   8.619 -0.7500  0.2289  0.5077
  462MOL0     H62345   6.040   7.912   8.770 -1.0447  1.1036  1.7362
  462MOL0     H62346   6.128   7.985   8.491 -1.7654  2.6263  1.3042
  462MOL0     H62347   6.227   8.038   8.622 -1.7196  1.2447  2.7620
  462MOL0     H62348   6.130   7.748   8.577  1.2018 -2.1310 -1.3968
  462MOL0     H62349   6.255   7.800   8.699  1.0403  1.7510 -0.1789
  462MOL0     H62350   6.370   7.705   8.514 -2.7153 -0.4482 -1.0509
  462MOL0     H62351   6.394   7.878   8.495 -1.1774  2.5417  0.8533
  462MOL0     H62352   5.919   8.496   9.177 -0.4342  0.4743 -0.8974
  462MOL0     H62353   6.036   8.653   9.305 -1.8455 -1.2799  0.4311
  462MOL0     H62354   6.388   8.792   9.480 -2.2009 -0.9358  1.9851
  462MOL0     H62355   6.463   8.896   9.668 -1.6649 -0.1646 -0.5014
  462MOL0     H62356   6.629   8.813   9.303 -1.0017 -0.2010  1.9712
  462MOL0     H62357   6.507   8.974   9.139  0.1794  1.7086  0.1981
  462MOL0     H62358   6.201   9.262   8.975  0.6890 -0.6604 -3.4268
  462MOL0     H62359   6.084   9.444   8.958  1.3035 -4.0344 -2.3842
  462MOL0     H62360   6.070   9.644   8.756 -4.5447  0.4335 -0.8614
  462MOL0     H62361   5.993   9.659   8.901 -1.4134  0.3531 -1.7973
  462MOL0     H62362   6.011   9.902   8.902  1.1245 -1.9204  0.3434
  462MOL0     H62363   5.930   9.836   8.763  0.9077  1.1492 -2.1636
  462MOL0     H62364   6.224   9.938   8.753 -0.0623  0.8772 -0.8194
  462MOL0     H62365   6.078  10.043   8.729 -0.3754  0.5551  0.6450
  462MOL0     H62366   5.993   9.903   8.558  0.2915  0.1194  0.5825
  462MOL0     H62367   6.137   9.807   8.535 -2.5564 -1.0071 -2.9568
  462MOL0     H62368   6.250  10.172   8.365  0.8969 -2.7735 -4.5957
  462MOL0     H62369   6.449   9.682   8.955  0.1917  0.4182  0.3799
  462MOL0     H62370   6.571   9.464   9.018 -1.5693  0.4901  2.1544
  463MOL0     O62371  10.663   5.819  11.267 -0.3090  0.0404 -0.2444
  463MOL0     C62372  10.638   5.940  11.279 -0.6250  0.5351 -1.2414
  463MOL0     O62373  10.536   5.995  11.347 -0.0282  0.1585 -0.3562
  463MOL0     C62374  10.444   5.925  11.421 -0.1611  0.0467  0.8270
  463MOL0     C62375  10.457   5.793  11.475  0.5017 -0.2326  0.7741
  463MOL0     C62376  10.350   5.747  11.549  0.2532 -0.3666 -0.3421
  463MOL0     C62377  10.225   5.814  11.574 -0.1110 -0.4963  0.9323
  463MOL0     O62378  10.125   5.754  11.647  0.0547  0.4415 -0.2692
  463MOL0     C62379  10.149   5.637  11.726 -0.1862  0.1862 -0.3598
  463MOL0     C62380  10.040   5.567  11.808 -0.2438  0.7913 -0.1457
  463MOL0     C62381   9.955   5.664  11.875 -0.0277  0.0873 -0.9268
  463MOL0     C62382  10.017   5.741  11.990 -0.0819 -0.1361 -0.5835
  463MOL0     C62383   9.914   5.809  12.086  0.5795  0.0159 -0.9972
  463MOL0     C62384   9.797   5.859  12.009 -0.8056 -0.0359  0.2893
  463MOL0     C62385   9.724   5.970  12.092  1.4750 -1.2593  0.6265
  463MOL0     C62386   9.593   6.018  12.023  0.1832 -0.1765  0.0385
  463MOL0     N62387   9.489   6.064  12.117 -0.6341 -0.7029 -0.6464
  463MOL0     C62388   9.441   6.191  12.129  0.0988 -0.7338 -0.0130
  463MOL0     C62389   9.354   6.201  12.226 -0.4968  0.5886 -0.7058
  463MOL0     C62390   9.269   6.323  12.258 -0.0765 -0.3619  0.0591
  463MOL0     C62391   9.126   6.305  12.240 -0.0087 -0.0694 -0.4480
  463MOL0     C62392   9.046   6.207  12.332  0.3413  0.5840 -0.4024
  463MOL0     C62393   8.906   6.200  12.273 -0.0035 -1.0492  0.3036
  463MOL0     O62394   8.833   6.326  12.262 -0.3259  0.3675 -0.1812
  463MOL0     C62395   8.700   6.313  12.218  0.3056 -0.2143  1.4909
  463MOL0     C62396   8.617   6.418  12.225 -0.4673 -0.7259 -0.2395
  463MOL0     C62397   8.484   6.424  12.183  1.2074 -0.9149 -0.3979
  463MOL0     C62398   8.412   6.553  12.216 -0.5389 -0.3769 -0.4009
  463MOL0     C62399   8.427   6.315  12.117 -0.4991 -0.5599 -0.3362
  463MOL0     C62400   8.281   6.314  12.084 -0.5483  1.0800  1.3468
  463MOL0     O62401   8.220   6.195  12.108 -0.0639  0.2187  0.9842
  463MOL0     C62402   8.082   6.186  12.107 -0.5329 -0.8330 -0.9508
  463MOL0     C62403   8.024   6.104  12.017 -0.3481  0.0134 -0.6909
  463MOL0     C62404   7.882   6.080  12.012  0.9045 -1.5358 -0.2032
  463MOL0     C62405   7.802   6.151  12.102 -0.2172  0.0741 -0.2140
  463MOL0     O62406   7.666   6.139  12.082 -0.3683  0.5023 -0.3942
  463MOL0     C62407   7.590   6.199  12.191  0.4609 -0.5274 -0.1081
  463MOL0     C62408   7.450   6.126  12.191  0.4143  0.9848 -0.1710
  463MOL0     C62409   7.360   6.168  12.304 -0.2998  1.1996  0.0436
  463MOL0     C62410   7.215   6.113  12.293 -0.6729 -1.1778 -0.5146
  463MOL0     C62411   7.126   6.160  12.412 -0.1778 -0.0420 -0.3769
  463MOL0     C62412   6.991   6.101  12.406  1.7267  0.0645 -0.6006
  463MOL0     C62413   6.901   6.153  12.514 -0.0542  0.0524  0.1550
  463MOL0     C62414   6.754   6.154  12.476  0.3690  0.0982  1.6164
  463MOL0    Cl62415   6.703   5.994  12.433 -0.0224 -0.2438 -0.5666
  463MOL0     C62416   7.860   6.243  12.189  0.1652  0.3466 -0.7396
  463MOL0     C62417   8.002   6.257  12.197  0.2118  0.6347 -0.1405
  463MOL0     O62418   8.231   6.410  12.025 -0.1016  0.2270 -0.1988
  463MOL0     C62419   8.512   6.200  12.103 -0.0621  0.1736  0.8074
  463MOL0     C62420   8.645   6.196  12.155  0.6644 -0.2559  0.0713
  463MOL0     N62421   9.365   6.079  12.296  0.0433 -0.0740 -0.4596
  463MOL0     N62422   9.446   5.997  12.226  0.6564 -0.6437 -0.0832
  463MOL0     C62423  10.216   5.944  11.526 -0.1636 -0.1816  0.0142
  463MOL0     C62424  10.329   5.999  11.459  0.2931 -0.0331  0.3600
  463MOL0     C62425  10.724   6.038  11.215 -1.2194 -0.4798 -0.2040
  463MOL0     C62426  10.718   6.173  11.237 -0.0980  0.1359 -0.2916
  463MOL0     C62427  10.793   6.268  11.165 -0.1092 -0.5553  0.6695
  463MOL0     C62428  10.884   6.232  11.066 -0.1193 -0.7697  0.4974
  463MOL0     O62429  10.932   6.331  10.982 -0.3566  0.4787  0.6775
  463MOL0     C62430  11.042   6.311  10.884  0.0805  0.1341 -0.2645
  463MOL0     C62431  11.173   6.279  10.963 -0.2597  0.8056 -0.4716
  463MOL0     C62432  11.220   6.369  11.086  0.7508 -0.6446  0.1155
  463MOL0     C62433  11.250   6.514  11.028 -0.9941 -0.1119 -0.1870
  463MOL0     C62434  11.354   6.519  10.927  0.2847 -0.2264 -0.8181
  463MOL0     C62435  11.414   6.532  10.825 -0.0410  0.6898  0.7277
  463MOL0     C62436  10.906   6.090  11.057 -0.5721 -0.0735  0.0406
  463MOL0     C62437  10.825   6.001  11.123 -0.2393  0.2957 -0.0603
  463MOL0     H62438  10.550   5.739  11.454 -0.0223 -0.4173 -1.3172
  463MOL0     H62439  10.373   5.653  11.598  0.3008  1.0756  2.6837
  463MOL0     H62440  10.164   5.565  11.646 -0.6420 -1.3304  0.8774
  463MOL0     H62441  10.242   5.644  11.784  0.8575 -0.7805 -1.8372
  463MOL0     H62442   9.976   5.495  11.755  0.1560 -0.9553  1.6142
  463MOL0     H62443  10.081   5.494  11.879  1.3700 -0.2052 -1.9885
  463MOL0     H62444   9.912   5.737  11.807 -0.2999  0.5147 -0.3051
  463MOL0     H62445   9.875   5.598  11.912 -0.3741  0.8140 -0.3395
  463MOL0     H62446  10.088   5.678  12.044  0.9391  2.5010  1.3548
  463MOL0     H62447  10.075   5.823  11.947 -0.4502  1.4752  1.8096
  463MOL0     H62448   9.880   5.743  12.166  1.4201  0.7586  0.0011
  463MOL0     H62449   9.972   5.891  12.130  3.7929 -2.3434 -0.4082
  463MOL0     H62450   9.825   5.896  11.911  1.0557  0.3074  0.9178
  463MOL0     H62451   9.730   5.773  11.998  1.8682 -2.2515  0.0987
  463MOL0     H62452   9.703   5.936  12.194  2.8163  0.2624  1.4621
  463MOL0     H62453   9.788   6.058  12.110  0.7487 -0.7331  0.7083
  463MOL0     H62454   9.556   5.931  11.968 -3.2711  1.4517 -0.5097
  463MOL0     H62455   9.621   6.093  11.948  1.2474 -1.3073 -0.7321
  463MOL0     H62456   9.444   6.273  12.057 -1.9876 -0.5141  0.0658
  463MOL0     H62457   9.298   6.352  12.359  1.8262  2.0553 -1.0647
  463MOL0     H62458   9.307   6.407  12.200  0.2334 -0.0526  0.6962
  463MOL0     H62459   9.112   6.266  12.139 -0.6433  1.8526 -1.1434
  463MOL0     H62460   9.069   6.398  12.246 -2.2582 -1.4458  1.4006
  463MOL0     H62461   9.039   6.243  12.435  0.3624 -1.7096  0.4545
  463MOL0     H62462   9.088   6.107  12.330 -1.1754 -0.0690 -1.4584
  463MOL0     H62463   8.853   6.124  12.331  0.0900 -0.9578  0.5098
  463MOL0     H62464   8.920   6.152  12.176  0.9974 -3.5804  1.5827
  463MOL0     H62465   8.661   6.493  12.289 -0.5772  0.5896 -1.6344
  463MOL0     H62466   8.484   6.626  12.256  0.1175 -2.6909  3.0800
  463MOL0     H62467   8.355   6.588  12.129 -1.3218 -0.0957  0.2038
  463MOL0     H62468   8.348   6.524  12.300  0.3140  0.0819  0.4291
  463MOL0     H62469   8.083   6.047  11.946 -1.4579 -0.1949 -1.4733
  463MOL0     H62470   7.855   6.018  11.927  3.4632 -1.4770 -1.1587
  463MOL0     H62471   7.637   6.182  12.288 -0.5963  2.1981  0.9784
  463MOL0     H62472   7.574   6.307  12.188  0.2522 -0.4972  1.4630
  463MOL0     H62473   7.394   6.114  12.097 -3.0144 -0.4105  1.8637
  463MOL0     H62474   7.469   6.022  12.221  1.2553  1.8620  2.6395
  463MOL0     H62475   7.350   6.277  12.305 -1.8805  1.0769  0.7400
  463MOL0     H62476   7.403   6.129  12.397 -1.4861  1.4670  0.7248
  463MOL0     H62477   7.172   6.158  12.204 -3.4887  1.0341  1.7773
  463MOL0     H62478   7.207   6.004  12.294  2.1358 -1.4968 -1.9736
  463MOL0     H62479   7.106   6.268  12.410  1.1777  0.2829  1.5149
  463MOL0     H62480   7.158   6.115  12.506 -0.4915 -4.4762 -2.1522
  463MOL0     H62481   6.946   6.137  12.313  2.1734  0.3396 -0.7126
  463MOL0     H62482   6.988   5.993  12.421 -1.0383  0.1799  0.2593
  463MOL0     H62483   6.926   6.256  12.540 -1.6603  1.0939 -2.0278
  463MOL0     H62484   6.912   6.091  12.603  2.1360 -2.5567 -1.7496
  463MOL0     H62485   6.736   6.221  12.392  0.1618  2.4217  3.4375
  463MOL0     H62486   6.702   6.182  12.568  1.6168 -1.4766  2.8509
  463MOL0     H62487   7.798   6.302  12.256 -2.2895 -2.7198 -0.0983
  463MOL0     H62488   8.047   6.301  12.285 -1.9513  0.1222  1.3046
  463MOL0     H62489   8.477   6.109  12.056 -0.1599 -0.5220  2.1858
  463MOL0     H62490   8.707   6.109  12.136  1.7401  0.5190 -0.0681
  463MOL0     H62491  10.124   5.998  11.544 -0.4114 -0.9118  1.0816
  463MOL0     H62492  10.326   6.099  11.415 -1.2940 -0.3226 -0.2441
  463MOL0     H62493  10.640   6.202  11.307 -0.4927 -1.9535  0.2067
  463MOL0     H62494  10.771   6.372  11.187  0.7774 -0.6020  1.9268
  463MOL0     H62495  11.002   6.229  10.823 -1.8426 -1.0925  2.3862
  463MOL0     H62496  11.048   6.405  10.829 -1.1120  1.1646  1.2698
  463MOL0     H62497  11.242   6.262  10.880  1.9284 -2.1384  1.7277
  463MOL0     H62498  11.158   6.176  10.996 -0.1424  1.5469  2.1405
  463MOL0     H62499  11.307   6.333  11.142  2.2647 -0.5458 -2.0288
  463MOL0     H62500  11.132   6.382  11.150  0.0141  0.1340 -1.0262
  463MOL0     H62501  11.264   6.578  11.115 -0.2169 -3.9336  2.7439
  463MOL0     H62502  11.161   6.551  10.976  0.1359  2.3167 -0.5393
  463MOL0     H62503  11.460   6.555  10.731 -0.9674  1.1705  0.3805
  463MOL0     H62504  10.971   6.035  10.989 -1.3290  0.5031 -1.1853
  463MOL0     H62505  10.837   5.893  11.116 -1.2335  0.2272 -0.9507
  464MOL0     O62506   0.134   5.809   1.572  0.8070  0.1614 -0.6345
  464MOL0     C62507   0.121   5.891   1.662  0.0119 -0.0642 -0.6088
  464MOL0     O62508   0.001   5.936   1.717  0.2813 -0.4276 -0.4834
  464MOL0     C62509  -0.111   5.862   1.709 -0.7638 -0.7482 -0.5281
  464MOL0     C62510  -0.129   5.732   1.673 -0.0720 -0.4542 -0.4522
  464MOL0     C62511  -0.256   5.670   1.690 -0.1341 -0.4698  0.0438
  464MOL0     C62512  -0.368   5.742   1.750 -0.8353  0.4611 -0.0518
  464MOL0     O62513  -0.494   5.713   1.779  1.2788  0.1199  0.1406
  464MOL0     C62514  -0.529   5.575   1.789  0.1371 -0.1281  0.5094
  464MOL0     C62515  -0.635   5.559   1.888  0.1699  0.5872 -0.1877
  464MOL0     C62516  -0.730   5.428   1.873  0.0065 -0.2143  0.3542
  464MOL0     C62517  -0.864   5.443   1.945  0.6478 -0.3573  0.0119
  464MOL0     C62518  -0.980   5.335   1.923  0.7142 -0.0157  0.4720
  464MOL0     C62519  -1.059   5.367   1.797  0.2777 -0.4411 -0.5665
  464MOL0     C62520  -1.129   5.496   1.782  0.3378 -0.6120 -0.4123
  464MOL0     C62521  -1.244   5.521   1.885 -0.1712  0.2057  0.2051
  464MOL0     N62522  -1.326   5.404   1.904  0.4105  0.2135  0.5182
  464MOL0     C62523  -1.452   5.396   1.849  0.3583 -0.1225  0.7686
  464MOL0     C62524  -1.518   5.310   1.934  0.4141  1.2378 -0.3739
  464MOL0     C62525  -1.668   5.286   1.908 -0.2007 -0.6297 -0.5835
  464MOL0     C62526  -1.755   5.356   2.012 -0.1487 -0.3850 -0.2821
  464MOL0     C62527  -1.907   5.338   1.988  0.8311 -1.0460 -0.7565
  464MOL0     C62528  -1.974   5.402   2.106  0.3769 -0.2898 -0.3737
  464MOL0     O62529  -2.118   5.376   2.091 -0.4823  0.1313 -0.0415
  464MOL0     C62530  -2.202   5.405   2.194 -0.6775  0.0434  1.0007
  464MOL0     C62531  -2.333   5.367   2.176  0.0229 -0.1595  0.9841
  464MOL0     C62532  -2.426   5.378   2.280  0.2223 -0.7083  0.4557
  464MOL0     C62533  -2.566   5.322   2.252  0.2953 -0.4942  0.4088
  464MOL0     C62534  -2.386   5.450   2.397 -0.0242  0.4955  0.1161
  464MOL0     C62535  -2.484   5.477   2.507  0.7053  0.4910 -0.1828
  464MOL0     O62536  -2.599   5.394   2.520  0.8980 -0.3992 -0.4071
  464MOL0     C62537  -2.697   5.443   2.606  0.3444  0.4706  0.8090
  464MOL0     C62538  -2.815   5.498   2.560  0.1854  0.5737  0.1871
  464MOL0     C62539  -2.927   5.536   2.638 -1.0495 -0.5123 -0.7423
  464MOL0     C62540  -2.923   5.516   2.777 -0.3338  0.6265 -0.3707
  464MOL0     O62541  -3.022   5.557   2.866 -0.0674 -0.3200 -0.7226
  464MOL0     C62542  -3.137   5.625   2.817  0.4932 -0.1193  0.0302
  464MOL0     C62543  -3.249   5.586   2.915 -0.3345  0.6095  0.0609
  464MOL0     C62544  -3.383   5.650   2.869 -0.0207 -0.1807 -0.1196
  464MOL0     C62545  -3.451   5.591   2.751 -0.7739  0.2401  0.0291
  464MOL0     C62546  -3.591   5.664   2.738 -0.7174  0.0220 -0.7812
  464MOL0     C62547  -3.662   5.592   2.626 -0.3668  0.3845  0.4950
  464MOL0     C62548  -3.811   5.636   2.633 -0.3560 -0.4164  0.6779
  464MOL0     C62549  -3.881   5.597   2.504 -0.3514 -1.2999  0.5448
  464MOL0    Cl62550  -3.878   5.426   2.482  0.0778 -0.0878  0.2722
  464MOL0     C62551  -2.808   5.457   2.824  0.8796 -0.3248  0.4954
  464MOL0     C62552  -2.694   5.429   2.745 -0.2284  0.2708  0.0116
  464MOL0     O62553  -2.453   5.561   2.595  0.4028  0.5410  1.4175
  464MOL0     C62554  -2.250   5.482   2.412  1.1986 -0.3400  0.1277
  464MOL0     C62555  -2.158   5.442   2.323 -0.3771  0.4007 -0.1757
  464MOL0     N62556  -1.426   5.268   2.037 -0.3351 -0.2731  0.4473
  464MOL0     N62557  -1.314   5.320   2.008 -0.1947  0.0747 -0.4491
  464MOL0     C62558  -0.347   5.875   1.787  0.2224 -0.5188 -0.4166
  464MOL0     C62559  -0.223   5.927   1.766  0.0882 -0.8065 -0.5511
  464MOL0     C62560   0.250   5.929   1.728  0.0457  0.0330 -0.0838
  464MOL0     C62561   0.377   5.904   1.667 -0.1924  0.1539 -0.8611
  464MOL0     C62562   0.495   5.927   1.740  0.2906 -0.3970 -1.3872
  464MOL0     C62563   0.492   5.966   1.879  0.0377  0.2601 -0.1428
  464MOL0     O62564   0.607   5.983   1.949  0.2335 -0.0191 -0.0709
  464MOL0     C62565   0.672   6.115   1.942  0.7397 -0.5790 -0.7725
  464MOL0     C62566   0.735   6.143   1.804 -0.5399  0.2681  0.5443
  464MOL0     C62567   0.828   6.256   1.811 -0.1929  0.5015  1.1776
  464MOL0     C62568   0.982   6.224   1.840 -0.2234  0.6600 -0.9080
  464MOL0     C62569   0.990   6.207   1.982  0.3659 -0.6010  0.2482
  464MOL0     C62570   0.981   6.192   2.100  0.4412  0.1198 -0.1995
  464MOL0     C62571   0.366   5.987   1.937  0.6332  0.5176 -0.4534
  464MOL0     C62572   0.248   5.968   1.860 -0.3776  0.4178  0.5390
  464MOL0     H62573  -0.042   5.681   1.632 -0.5678  0.2252 -2.4914
  464MOL0     H62574  -0.265   5.568   1.655  2.7259 -1.5440  2.0770
  464MOL0     H62575  -0.548   5.530   1.691  2.3793  0.5778 -0.3025
  464MOL0     H62576  -0.443   5.530   1.839  0.2517 -0.1809  0.2660
  464MOL0     H62577  -0.597   5.549   1.990 -2.0542  0.3459  0.6749
  464MOL0     H62578  -0.705   5.640   1.865 -1.0541 -0.3508  0.0832
  464MOL0     H62579  -0.770   5.422   1.772 -1.5693 -4.1084  1.0152
  464MOL0     H62580  -0.679   5.337   1.905  0.5535  0.9321  3.1014
  464MOL0     H62581  -0.835   5.438   2.050  1.6717  0.4449 -0.2245
  464MOL0     H62582  -0.909   5.541   1.932  3.6552  0.7762 -3.8217
  464MOL0     H62583  -0.946   5.231   1.921 -2.8364 -1.3256  1.1605
  464MOL0     H62584  -1.060   5.331   1.998  0.8076  1.0784  0.6532
  464MOL0     H62585  -0.986   5.356   1.716  2.9112  2.5636  1.2115
  464MOL0     H62586  -1.135   5.289   1.779 -0.3997  0.5334 -2.1715
  464MOL0     H62587  -1.057   5.577   1.801 -0.7266 -0.3910  3.5025
  464MOL0     H62588  -1.170   5.508   1.682 -1.9298 -0.9818  0.4246
  464MOL0     H62589  -1.306   5.610   1.868 -1.9287 -1.0752 -0.2998
  464MOL0     H62590  -1.200   5.536   1.984 -1.1390 -0.5006  0.7591
  464MOL0     H62591  -1.481   5.435   1.752  1.3016 -0.0847  0.4906
  464MOL0     H62592  -1.690   5.323   1.808 -0.7537  0.3098 -0.1251
  464MOL0     H62593  -1.692   5.179   1.908  1.3615 -1.0660 -2.7649
  464MOL0     H62594  -1.734   5.463   2.003  0.3628 -0.6059 -1.9804
  464MOL0     H62595  -1.727   5.319   2.111  1.4086  0.6289 -0.3100
  464MOL0     H62596  -1.930   5.232   1.979 -2.2049 -0.4679 -0.9530
  464MOL0     H62597  -1.931   5.382   1.890  3.6704 -1.9822 -1.9902
  464MOL0     H62598  -1.966   5.510   2.114  0.9383 -0.3712  0.2850
  464MOL0     H62599  -1.941   5.356   2.200 -5.4544 -2.7376  0.9477
  464MOL0     H62600  -2.354   5.317   2.082  0.6822  1.0232  0.1751
  464MOL0     H62601  -2.574   5.309   2.144 -2.2217  1.1490  0.3000
  464MOL0     H62602  -2.589   5.230   2.306 -0.3439 -0.1922  0.6524
  464MOL0     H62603  -2.642   5.399   2.271 -0.3086 -0.5840 -1.4309
  464MOL0     H62604  -2.812   5.519   2.454 -0.9157 -2.9320 -0.6906
  464MOL0     H62605  -3.017   5.569   2.588 -2.5138 -4.1166 -0.7527
  464MOL0     H62606  -3.105   5.730   2.815 -1.2385  0.4524 -2.6539
  464MOL0     H62607  -3.174   5.599   2.718 -2.8097  0.2998  1.0419
  464MOL0     H62608  -3.264   5.478   2.916 -2.5635  0.8603 -0.2918
  464MOL0     H62609  -3.216   5.620   3.013  2.6306 -0.7417 -0.3434
  464MOL0     H62610  -3.375   5.758   2.855 -1.3852  0.0743  0.8971
  464MOL0     H62611  -3.446   5.653   2.959 -1.3052  5.2899 -0.8714
  464MOL0     H62612  -3.397   5.587   2.656 -0.3709  1.5775  0.1922
  464MOL0     H62613  -3.462   5.485   2.777  1.5502 -0.1940 -0.5808
  464MOL0     H62614  -3.586   5.771   2.716  0.9026 -0.4213 -2.9811
  464MOL0     H62615  -3.651   5.657   2.829  0.2679  1.1601 -0.0288
  464MOL0     H62616  -3.607   5.631   2.540 -0.1444  3.4950  1.9063
  464MOL0     H62617  -3.651   5.483   2.624 -2.3461  0.1474  0.4056
  464MOL0     H62618  -3.823   5.744   2.646  1.4894 -0.0570 -0.2317
  464MOL0     H62619  -3.844   5.580   2.721  2.6783 -0.6447  1.7688
  464MOL0     H62620  -3.833   5.654   2.424  1.4636  0.7433  2.9228
  464MOL0     H62621  -3.984   5.633   2.515  0.8579  2.8380  0.0713
  464MOL0     H62622  -2.812   5.436   2.931  1.3408 -1.6922  0.2669
  464MOL0     H62623  -2.608   5.390   2.800  0.2875 -1.6323 -1.9722
  464MOL0     H62624  -2.221   5.547   2.495 -0.5462  2.9191 -1.6438
  464MOL0     H62625  -2.058   5.475   2.347 -1.5033  1.2254  4.5064
  464MOL0     H62626  -0.427   5.929   1.836  1.8951  0.7449  1.0693
  464MOL0     H62627  -0.210   6.031   1.795  4.0143 -0.8431 -1.6176
  464MOL0     H62628   0.384   5.870   1.564 -2.6118  2.0908 -1.7363
  464MOL0     H62629   0.593   5.917   1.695  0.6945 -1.3475 -0.3271
  464MOL0     H62630   0.606   6.199   1.965  2.1762  0.0286  1.4217
  464MOL0     H62631   0.744   6.123   2.024  0.9988  0.9239 -1.1182
  464MOL0     H62632   0.667   6.148   1.718  0.3548 -0.7550 -0.2516
  464MOL0     H62633   0.793   6.054   1.776  0.5687  1.4517 -1.0967
  464MOL0     H62634   0.790   6.338   1.873  2.6959  1.1989  2.2327
  464MOL0     H62635   0.836   6.305   1.713  2.6499 -0.6968  0.6997
  464MOL0     H62636   1.045   6.308   1.809  2.5079 -1.3859 -1.2919
  464MOL0     H62637   1.018   6.135   1.788 -1.9900  0.9899 -2.8429
  464MOL0     H62638   0.969   6.190   2.206  0.4707  0.1086 -0.1962
  464MOL0     H62639   0.357   6.016   2.041 -2.3832 -0.7944 -0.2428
  464MOL0     H62640   0.155   5.963   1.916  0.5024  0.1375  2.0557
  465MOL0     O62641   6.785   0.494   7.267  0.2766 -0.9057  0.2314
  465MOL0     C62642   6.834   0.601   7.232 -0.1061  0.4672 -0.5987
  465MOL0     O62643   6.770   0.703   7.158  0.3910  0.3762 -0.6736
  465MOL0     C62644   6.646   0.674   7.119 -0.4188 -0.0733  0.2854
  465MOL0     C62645   6.547   0.690   7.214  0.4164  0.4776  0.3463
  465MOL0     C62646   6.407   0.666   7.184  0.3570 -0.1929  0.7681
  465MOL0     C62647   6.376   0.634   7.045  0.6740  0.1512  0.9084
  465MOL0     O62648   6.248   0.625   6.983  0.0104 -0.1927  0.4137
  465MOL0     C62649   6.130   0.617   7.071  0.1358  0.1724  0.5549
  465MOL0     C62650   6.081   0.747   7.135 -0.3755  1.2171  0.0174
  465MOL0     C62651   6.034   0.845   7.023  0.2409 -0.8101  0.4286
  465MOL0     C62652   5.889   0.825   6.995  0.3156 -0.2698 -0.2214
  465MOL0     C62653   5.814   0.941   6.919 -0.2449 -0.0344 -0.0647
  465MOL0     C62654   5.662   0.931   6.916  0.3510  0.1510  1.1130
  465MOL0     C62655   5.610   0.976   7.051 -0.3718  1.0828 -0.4895
  465MOL0     C62656   5.458   0.960   7.062  0.2873  0.7009 -0.7449
  465MOL0     N62657   5.423   1.039   7.179  0.4056  0.2187  0.2801
  465MOL0     C62658   5.406   0.994   7.314 -0.3797 -0.1999  0.8486
  465MOL0     C62659   5.367   1.097   7.388  0.2222 -0.1185  1.0912
  465MOL0     C62660   5.351   1.106   7.533  0.5715  0.2415 -0.1228
  465MOL0     C62661   5.216   1.055   7.590  0.0500 -0.0023 -0.2355
  465MOL0     C62662   5.094   1.140   7.556 -0.4205 -0.2579 -0.0430
  465MOL0     C62663   5.092   1.283   7.621 -0.3407 -0.1360 -1.2023
  465MOL0     O62664   4.986   1.357   7.559  0.4218 -0.3070  0.1050
  465MOL0     C62665   4.925   1.457   7.634  0.3240  0.2846  0.3999
  465MOL0     C62666   4.789   1.486   7.602 -0.0576  0.3242  1.1721
  465MOL0     C62667   4.721   1.592   7.671 -0.7860  0.4591  0.4110
  465MOL0     C62668   4.580   1.617   7.626  0.0011  0.3335  0.3163
  465MOL0     C62669   4.779   1.662   7.782 -0.2276 -0.3789 -0.5223
  465MOL0     C62670   4.708   1.775   7.854 -0.4935  0.7875 -0.0315
  465MOL0     O62671   4.581   1.808   7.844  0.9784  0.3968 -0.0954
  465MOL0     C62672   4.511   1.902   7.921  0.2576 -0.4101  0.0906
  465MOL0     C62673   4.386   1.862   7.962 -0.2434 -0.8204 -0.5958
  465MOL0     C62674   4.298   1.955   8.029  0.0458  0.3816  0.1608
  465MOL0     C62675   4.350   2.088   8.054  0.2238 -0.0475  1.3261
  465MOL0     O62676   4.284   2.189   8.115  0.0251  0.1118  0.4016
  465MOL0     C62677   4.145   2.160   8.150  0.2818 -1.2070 -0.4223
  465MOL0     C62678   4.073   2.282   8.228  0.5441  0.0871  0.1281
  465MOL0     C62679   4.049   2.415   8.152  0.1802 -0.0480  0.4781
  465MOL0     C62680   3.917   2.413   8.060 -0.4894  0.6363 -0.4161
  465MOL0     C62681   3.783   2.419   8.139 -0.2034 -0.5804 -0.7272
  465MOL0     C62682   3.656   2.399   8.064 -0.2809 -0.3471 -1.0064
  465MOL0     C62683   3.650   2.260   7.987 -1.1474  0.3410  0.2813
  465MOL0     C62684   3.508   2.244   7.924  0.3051 -0.8821  0.6014
  465MOL0    Cl62685   3.465   2.404   7.844  0.0554  0.4143 -0.3029
  465MOL0     C62686   4.482   2.125   8.022  0.3070  0.1710 -0.3325
  465MOL0     C62687   4.554   2.039   7.950 -0.1484 -0.2036 -0.7494
  465MOL0     O62688   4.777   1.828   7.940  0.0945  0.5295 -0.4575
  465MOL0     C62689   4.920   1.636   7.812  0.3206  1.2041  0.3545
  465MOL0     C62690   4.985   1.530   7.736  0.4360 -0.1380  0.6269
  465MOL0     N62691   5.345   1.207   7.298  0.1500  0.1935 -0.0556
  465MOL0     N62692   5.383   1.168   7.175 -0.2459  0.0380  0.0781
  465MOL0     C62693   6.477   0.630   6.948  0.4834  0.2967 -0.1484
  465MOL0     C62694   6.613   0.650   6.992  0.6913  0.6348  0.0126
  465MOL0     C62695   6.966   0.636   7.282 -0.4436 -1.9573 -1.1022
  465MOL0     C62696   7.016   0.768   7.260  0.0605 -1.3039  0.1999
  465MOL0     C62697   7.144   0.810   7.309 -0.0664 -0.2366  0.4437
  465MOL0     C62698   7.225   0.718   7.370 -0.0180 -0.5007 -0.6991
  465MOL0     O62699   7.351   0.752   7.408 -0.4658  0.5646  0.1644
  465MOL0     C62700   7.379   0.887   7.446 -0.3567 -0.7000  0.1081
  465MOL0     C62701   7.530   0.916   7.458  1.3092  0.3242  0.5342
  465MOL0     C62702   7.613   0.806   7.525  0.0317 -0.3978  0.0937
  465MOL0     C62703   7.757   0.846   7.550  0.7056 -1.7298  0.9377
  465MOL0     C62704   7.826   0.735   7.611  0.3673 -0.3638  0.3282
  465MOL0     C62705   7.897   0.642   7.659 -0.1390 -0.2864 -0.1047
  465MOL0     C62706   7.178   0.593   7.407 -0.2676 -0.1204  0.5906
  465MOL0     C62707   7.049   0.548   7.364  0.6873 -1.0391  0.3689
  465MOL0     H62708   6.570   0.710   7.318 -1.2691  1.4127  0.5654
  465MOL0     H62709   6.325   0.681   7.252  1.2285 -0.5003  1.9154
  465MOL0     H62710   6.044   0.576   7.016  0.5721  1.4112 -1.1576
  465MOL0     H62711   6.151   0.543   7.148  0.2262  2.0479  2.4188
  465MOL0     H62712   5.999   0.738   7.207 -1.4982  0.6785 -1.2844
  465MOL0     H62713   6.165   0.795   7.187 -0.2129  1.5430 -0.5373
  465MOL0     H62714   6.048   0.946   7.061  2.5695 -1.2110  0.7869
  465MOL0     H62715   6.082   0.837   6.924  1.3622  1.2832  0.7382
  465MOL0     H62716   5.873   0.726   6.950 -0.4037 -0.6176  0.7477
  465MOL0     H62717   5.850   0.817   7.096  1.0376 -0.8734  0.0198
  465MOL0     H62718   5.850   1.037   6.957  2.3861 -0.7523 -0.5882
  465MOL0     H62719   5.848   0.939   6.815  3.6479  3.0428  0.8978
  465MOL0     H62720   5.619   1.002   6.845 -0.8357  0.1742  1.8367
  465MOL0     H62721   5.628   0.831   6.887 -1.5313  1.2922 -0.9302
  465MOL0     H62722   5.657   0.934   7.141 -0.3060  0.6703 -0.7174
  465MOL0     H62723   5.642   1.079   7.072  2.0871  0.5027 -1.0953
  465MOL0     H62724   5.424   0.858   7.078  0.6468  0.8996  1.7063
  465MOL0     H62725   5.396   0.996   6.979 -2.4181 -0.4733  0.6567
  465MOL0     H62726   5.422   0.889   7.340  0.2285 -0.9021 -1.9864
  465MOL0     H62727   5.439   1.052   7.568 -0.4579 -1.5441 -0.1747
  465MOL0     H62728   5.370   1.207   7.571  3.5768 -1.5308  3.7712
  465MOL0     H62729   5.218   1.055   7.699 -2.4093 -1.4521 -0.1061
  465MOL0     H62730   5.201   0.958   7.541  1.4368  0.5153 -1.7769
  465MOL0     H62731   4.999   1.090   7.579 -1.2410  1.7968  1.3542
  465MOL0     H62732   5.108   1.150   7.448  1.7408  2.3321  0.3896
  465MOL0     H62733   5.188   1.336   7.621 -0.2805  0.0315  2.4055
  465MOL0     H62734   5.075   1.275   7.729 -0.2579  2.1589 -0.9548
  465MOL0     H62735   4.743   1.431   7.520  1.7263  1.3719 -0.6379
  465MOL0     H62736   4.505   1.608   7.705 -2.3449  1.9327 -1.5980
  465MOL0     H62737   4.568   1.718   7.585 -0.4859 -0.5474 -1.8086
  465MOL0     H62738   4.562   1.555   7.538  3.1567  0.3779 -0.5027
  465MOL0     H62739   4.343   1.763   7.949  0.8309 -1.2988 -0.5480
  465MOL0     H62740   4.201   1.918   8.059 -0.0339  1.5844  1.5170
  465MOL0     H62741   4.097   2.150   8.052 -2.4112 -0.9982  0.7917
  465MOL0     H62742   4.125   2.064   8.200  2.3270 -1.0930  0.7167
  465MOL0     H62743   3.971   2.247   8.250 -0.7121  1.3177 -3.0564
  465MOL0     H62744   4.109   2.303   8.329 -2.1085 -0.2953  1.2293
  465MOL0     H62745   4.134   2.426   8.084  2.7039 -1.4284  3.1711
  465MOL0     H62746   4.045   2.500   8.221  1.6055  0.6571 -0.2580
  465MOL0     H62747   3.932   2.495   7.990 -1.2917  0.8832 -0.3115
  465MOL0     H62748   3.923   2.325   7.996 -0.6252 -0.0583  0.4956
  465MOL0     H62749   3.787   2.514   8.193  0.9101  0.8034 -3.0330
  465MOL0     H62750   3.789   2.338   8.212 -0.3430  0.3077  0.2891
  465MOL0     H62751   3.568   2.412   8.127 -0.5784 -3.3392 -0.6828
  465MOL0     H62752   3.645   2.481   7.993 -3.2425  0.0546 -0.2056
  465MOL0     H62753   3.667   2.177   8.057  0.7958 -1.1459 -1.8283
  465MOL0     H62754   3.727   2.247   7.911  0.5754 -0.1990  2.0448
  465MOL0     H62755   3.432   2.230   8.002 -1.3765  1.1543 -0.5525
  465MOL0     H62756   3.514   2.156   7.859  1.7411  1.9869 -3.6009
  465MOL0     H62757   4.522   2.221   8.054  1.1997 -1.1409  2.9643
  465MOL0     H62758   4.653   2.071   7.919 -0.3670 -1.1926 -2.6594
  465MOL0     H62759   4.980   1.675   7.893 -0.0731  0.1641  1.1811
  465MOL0     H62760   5.088   1.528   7.770  0.5160  1.6842  0.6042
  465MOL0     H62761   6.451   0.622   6.843  2.0027  0.5298 -0.5704
  465MOL0     H62762   6.697   0.661   6.923  0.7153  1.5638  0.1672
  465MOL0     H62763   6.953   0.838   7.206  0.3593 -1.8829 -0.9349
  465MOL0     H62764   7.181   0.901   7.264 -0.2082 -0.3388  0.1100
  465MOL0     H62765   7.343   0.961   7.373 -2.1585 -0.0191  1.6137
  465MOL0     H62766   7.332   0.913   7.541 -0.5785 -2.4961  0.5088
  465MOL0     H62767   7.568   1.005   7.510  2.6394 -1.0178  1.9611
  465MOL0     H62768   7.570   0.920   7.356 -1.3080 -0.1651 -0.5876
  465MOL0     H62769   7.603   0.708   7.477  1.8648 -2.0163  2.7405
  465MOL0     H62770   7.563   0.795   7.622  2.8343  0.1736  1.6935
  465MOL0     H62771   7.770   0.930   7.619  2.9837 -2.0642  0.9733
  465MOL0     H62772   7.791   0.882   7.453 -3.7235  0.2774 -0.1390
  465MOL0     H62773   7.958   0.575   7.715  2.1434  0.9190 -1.0230
  465MOL0     H62774   7.239   0.518   7.456  0.8054 -0.5346 -1.2774
  465MOL0     H62775   7.035   0.442   7.383 -1.4765 -1.0233 -0.7677
  466MOL0     O62776   5.507   2.352   5.798 -0.0128 -0.6233  0.1426
  466MOL0     C62777   5.584   2.388   5.708  0.1001 -0.1109  0.6403
  466MOL0     O62778   5.535   2.422   5.580  0.2615  0.6491  0.4962
  466MOL0     C62779   5.399   2.420   5.561  0.0404  0.0351  0.1182
  466MOL0     C62780   5.345   2.539   5.504  0.6003  0.4247  0.4598
  466MOL0     C62781   5.210   2.537   5.457 -0.4726 -0.0379  0.0135
  466MOL0     C62782   5.127   2.431   5.481 -0.0333 -0.3706 -1.1496
  466MOL0     O62783   4.998   2.450   5.451  0.2831 -0.4304  0.1910
  466MOL0     C62784   4.907   2.344   5.407  1.2285 -0.3937  0.1796
  466MOL0     C62785   4.825   2.261   5.511 -0.0017 -0.5302  0.1889
  466MOL0     C62786   4.756   2.360   5.617 -0.4536 -1.2561  0.3226
  466MOL0     C62787   4.633   2.431   5.567  0.0949  0.0364 -0.1728
  466MOL0     C62788   4.550   2.503   5.676 -0.1524  1.0213  0.0075
  466MOL0     C62789   4.418   2.554   5.614 -0.2107  0.0870  0.1591
  466MOL0     C62790   4.330   2.648   5.702 -0.0083  0.5810 -0.1699
  466MOL0     C62791   4.347   2.629   5.850  0.0163  0.4693  0.4257
  466MOL0     N62792   4.259   2.714   5.931 -0.0614 -0.0599 -0.5770
  466MOL0     C62793   4.305   2.761   6.051 -0.3017  0.3941 -0.3238
  466MOL0     C62794   4.197   2.820   6.101  0.7730 -0.0269 -0.4995
  466MOL0     C62795   4.174   2.889   6.231  0.6289 -0.8934  0.0854
  466MOL0     C62796   4.224   3.035   6.230 -0.6544  0.5672 -0.0849
  466MOL0     C62797   4.145   3.109   6.119 -0.4001 -0.6177 -0.4681
  466MOL0     C62798   4.173   3.261   6.138 -0.1076 -0.2772  0.1192
  466MOL0     O62799   4.116   3.324   6.020  0.3135  0.9610 -1.0685
  466MOL0     C62800   3.996   3.378   6.015 -0.9315 -0.6003  0.2326
  466MOL0     C62801   3.893   3.363   6.101  0.5053  1.1388  0.1013
  466MOL0     C62802   3.774   3.439   6.093 -0.0749 -0.5856 -0.7630
  466MOL0     C62803   3.668   3.428   6.200 -0.0736  0.8532  0.0313
  466MOL0     C62804   3.764   3.542   5.990 -0.8040  0.3796  0.4622
  466MOL0     C62805   3.655   3.630   5.963 -0.3068  0.4856  0.2842
  466MOL0     O62806   3.681   3.746   5.905 -0.8072  1.1095  0.1357
  466MOL0     C62807   3.577   3.840   5.894 -0.5693 -0.4455 -0.2000
  466MOL0     C62808   3.462   3.802   5.819 -0.0471 -0.5928 -0.4778
  466MOL0     C62809   3.353   3.892   5.806  0.1494  0.2223 -0.2675
  466MOL0     C62810   3.356   4.019   5.874 -0.2515 -0.6972 -0.5332
  466MOL0     O62811   3.252   4.111   5.865  0.4252  0.5924  0.0434
  466MOL0     C62812   3.124   4.049   5.847 -0.0938 -1.1428 -0.2325
  466MOL0     C62813   3.022   4.147   5.906  0.4854 -0.3775  0.0807
  466MOL0     C62814   3.011   4.143   6.056 -0.5538  0.7031 -1.4051
  466MOL0     C62815   2.962   4.268   6.129 -0.8329  0.8594  0.0914
  466MOL0     C62816   2.816   4.300   6.095 -0.6689  0.4761  0.3301
  466MOL0     C62817   2.778   4.441   6.128 -0.5829  0.5175  0.5586
  466MOL0     C62818   2.842   4.539   6.027  0.1494 -0.0626  0.2140
  466MOL0     C62819   2.746   4.666   6.039  0.6074 -0.9296  0.3827
  466MOL0    Cl62820   2.836   4.819   5.972 -0.1997  0.4297  0.3595
  466MOL0     C62821   3.479   4.048   5.947 -0.5735 -0.0019  1.2460
  466MOL0     C62822   3.586   3.956   5.958  0.8896  0.3888 -0.0861
  466MOL0     O62823   3.541   3.589   6.002 -0.6066 -0.4497 -0.1260
  466MOL0     C62824   3.873   3.550   5.901 -0.0034  0.5290  0.1617
  466MOL0     C62825   3.987   3.465   5.910 -0.2178 -0.3739 -0.3284
  466MOL0     N62826   4.088   2.784   6.026 -0.0765  0.0818  0.1886
  466MOL0     N62827   4.127   2.709   5.928  0.3792 -0.2874 -0.9215
  466MOL0     C62828   5.178   2.316   5.546 -0.2088 -0.5468 -0.3450
  466MOL0     C62829   5.319   2.314   5.570 -0.5066  0.6321  0.8817
  466MOL0     C62830   5.729   2.408   5.737 -0.5226 -0.6368 -0.7119
  466MOL0     C62831   5.775   2.404   5.872  0.2207  1.0635  0.5359
  466MOL0     C62832   5.904   2.423   5.896 -0.3112  0.4326  0.1959
  466MOL0     C62833   5.994   2.449   5.793 -0.4984  0.3060 -0.3989
  466MOL0     O62834   6.126   2.468   5.835  0.0765  0.2807  0.1360
  466MOL0     C62835   6.226   2.511   5.736  0.5746  0.3228  0.4443
  466MOL0     C62836   6.220   2.654   5.728  0.4979 -0.1107 -0.1680
  466MOL0     C62837   6.336   2.701   5.643 -0.5288 -0.8726  1.4235
  466MOL0     C62838   6.332   2.677   5.491  0.6224 -0.3133  0.2066
  466MOL0     C62839   6.216   2.739   5.424  0.5643 -0.0626 -0.7990
  466MOL0     C62840   6.118   2.779   5.357  0.0222 -0.0497 -0.0385
  466MOL0     C62841   5.946   2.452   5.661 -0.1725  0.1683  0.1655
  466MOL0     C62842   5.815   2.432   5.629  0.9662 -0.3570  0.5131
  466MOL0     H62843   5.407   2.621   5.471  0.9951 -1.0366 -2.7606
  466MOL0     H62844   5.164   2.616   5.399  1.5522  0.4542 -1.0344
  466MOL0     H62845   4.841   2.394   5.336  4.4331  0.9699 -2.0355
  466MOL0     H62846   4.954   2.267   5.346  0.0373 -1.1550  0.1897
  466MOL0     H62847   4.744   2.206   5.462  0.3675 -2.2226  1.3746
  466MOL0     H62848   4.891   2.196   5.571  0.9597  2.2698  2.4256
  466MOL0     H62849   4.731   2.301   5.706 -0.9683  1.2607  1.9707
  466MOL0     H62850   4.832   2.431   5.652 -1.6641 -0.1302  0.7248
  466MOL0     H62851   4.667   2.492   5.483  1.6724 -1.2697 -0.5377
  466MOL0     H62852   4.567   2.357   5.519 -2.8315  1.8906  0.7236
  466MOL0     H62853   4.541   2.434   5.760  0.5449 -0.2657 -0.9410
  466MOL0     H62854   4.615   2.584   5.711 -0.9302  1.4313  0.5530
  466MOL0     H62855   4.430   2.606   5.519  1.7121  2.4214  1.5594
  466MOL0     H62856   4.352   2.468   5.600 -1.5333  0.6208  2.5201
  466MOL0     H62857   4.354   2.754   5.689 -1.7497  0.7520 -2.7139
  466MOL0     H62858   4.225   2.644   5.670 -0.2153 -1.8201  0.5749
  466MOL0     H62859   4.453   2.642   5.870  0.3040  0.5862 -1.0792
  466MOL0     H62860   4.332   2.527   5.887  1.3817 -0.0448 -0.3769
  466MOL0     H62861   4.405   2.762   6.094 -0.8404  1.6749  0.9540
  466MOL0     H62862   4.068   2.880   6.258  0.6274  1.1385  1.0427
  466MOL0     H62863   4.226   2.834   6.310 -2.1998 -1.3344  1.7820
  466MOL0     H62864   4.327   3.030   6.195 -1.6264 -3.1239 -3.0588
  466MOL0     H62865   4.216   3.085   6.328  3.0789  0.7114  0.2904
  466MOL0     H62866   4.040   3.092   6.142 -0.4226 -0.5028 -0.4837
  466MOL0     H62867   4.162   3.074   6.017 -0.0970  1.2970 -1.1237
  466MOL0     H62868   4.282   3.275   6.131 -0.0717 -0.7320 -0.2884
  466MOL0     H62869   4.122   3.288   6.231 -1.0684 -0.6813 -0.2805
  466MOL0     H62870   3.886   3.301   6.190  1.5525  0.4064 -0.3006
  466MOL0     H62871   3.599   3.356   6.154  2.3400 -1.7552  0.2439
  466MOL0     H62872   3.696   3.378   6.293 -1.2674  0.5561  0.2492
  466MOL0     H62873   3.626   3.528   6.215  0.6911  1.2859 -0.6338
  466MOL0     H62874   3.466   3.702   5.776  0.3329 -1.7770  2.1153
  466MOL0     H62875   3.261   3.861   5.759  0.6554  0.9506 -1.8180
  466MOL0     H62876   3.104   4.033   5.741  3.6937 -0.7820 -1.1718
  466MOL0     H62877   3.108   3.959   5.907  1.2217 -1.1327  0.1779
  466MOL0     H62878   3.039   4.248   5.869  0.7934 -0.8935 -1.2625
  466MOL0     H62879   2.920   4.121   5.878 -1.0587  5.7624 -1.4682
  466MOL0     H62880   3.112   4.126   6.093 -1.4295 -0.7373  0.5239
  466MOL0     H62881   2.952   4.057   6.091  2.8810 -0.8075  1.2176
  466MOL0     H62882   2.982   4.257   6.235 -1.2425 -1.0029  0.0027
  466MOL0     H62883   3.026   4.351   6.097 -0.8013  1.1295  0.8461
  466MOL0     H62884   2.754   4.227   6.148 -1.2230  0.5379 -0.2304
  466MOL0     H62885   2.796   4.289   5.988 -0.9102  2.5568  0.1169
  466MOL0     H62886   2.670   4.459   6.128 -0.8237 -0.8752  0.4304
  466MOL0     H62887   2.819   4.460   6.228 -0.8478  1.6684  0.4688
  466MOL0     H62888   2.838   4.497   5.926 -2.4070  0.2037  0.1337
  466MOL0     H62889   2.938   4.580   6.059 -0.1503  1.0611 -0.2702
  466MOL0     H62890   2.705   4.676   6.140  1.3641 -0.9915  0.6967
  466MOL0     H62891   2.653   4.669   5.981 -0.3858  1.9931  1.9088
  466MOL0     H62892   3.469   4.144   5.996  0.1468 -0.7219  2.8716
  466MOL0     H62893   3.675   3.981   6.016  2.0624 -2.1371 -0.6576
  466MOL0     H62894   3.877   3.622   5.820 -2.2142 -0.8380 -1.2845
  466MOL0     H62895   4.062   3.480   5.833  0.6685 -0.1791  0.5583
  466MOL0     H62896   5.121   2.225   5.561  1.3892 -1.4995  0.1491
  466MOL0     H62897   5.354   2.217   5.604 -1.5714  0.2093  0.8124
  466MOL0     H62898   5.704   2.381   5.951 -1.0410  0.0551 -0.8326
  466MOL0     H62899   5.934   2.408   5.999 -2.1529 -2.0382  0.4456
  466MOL0     H62900   6.327   2.487   5.772 -0.9245 -0.9570  4.2398
  466MOL0     H62901   6.211   2.456   5.642 -0.8604  2.1427 -0.4530
  466MOL0     H62902   6.235   2.691   5.830  1.7578  0.7995 -0.6596
  466MOL0     H62903   6.125   2.692   5.691 -1.1491  0.5202  4.1134
  466MOL0     H62904   6.422   2.651   5.688 -0.7541 -2.0449  0.5940
  466MOL0     H62905   6.338   2.807   5.668 -0.4238 -0.8507  1.3181
  466MOL0     H62906   6.324   2.570   5.471 -1.5889  0.1178 -1.7293
  466MOL0     H62907   6.421   2.700   5.432 -0.5652 -0.8604 -1.9143
  466MOL0     H62908   6.034   2.816   5.300  1.2119  3.1718  0.0849
  466MOL0     H62909   6.004   2.474   5.572  0.7762  3.9343  1.5334
  466MOL0     H62910   5.793   2.444   5.524 -2.2986  0.3257  1.1595
  467MOL0     O62911   7.555   8.180   5.440  0.2327  0.3687  0.3111
  467MOL0     C62912   7.588   8.239   5.338 -0.2919 -0.4299 -0.4614
  467MOL0     O62913   7.502   8.317   5.258 -0.5514  0.0173  0.7576
  467MOL0     C62914   7.371   8.325   5.269 -0.2828 -1.5130 -0.7635
  467MOL0     C62915   7.298   8.223   5.331  0.3259  0.1597 -0.0334
  467MOL0     C62916   7.163   8.249   5.350 -0.5798  0.1781 -0.2123
  467MOL0     C62917   7.096   8.348   5.278 -0.7633  0.1216  1.0360
  467MOL0     O62918   6.959   8.331   5.283  0.1063  0.1856  0.0101
  467MOL0     C62919   6.873   8.413   5.204  0.0322  0.5214  0.2642
  467MOL0     C62920   6.872   8.552   5.257  0.3493  0.6882  0.5098
  467MOL0     C62921   6.751   8.640   5.202 -0.2472  0.3455  0.9863
  467MOL0     C62922   6.654   8.681   5.317  0.2075  0.0569 -0.0413
  467MOL0     C62923   6.582   8.552   5.369 -0.3146  0.2754  0.1583
  467MOL0     C62924   6.479   8.568   5.480  0.0175 -0.3267 -0.1378
  467MOL0     C62925   6.550   8.538   5.620 -0.7689 -0.7994  0.1685
  467MOL0     C62926   6.454   8.505   5.733  0.3261 -0.1979 -0.7540
  467MOL0     N62927   6.346   8.604   5.743 -0.2295 -0.4861  0.9051
  467MOL0     C62928   6.209   8.572   5.701 -1.1495  0.1859 -0.9392
  467MOL0     C62929   6.147   8.688   5.735 -1.3636 -0.3104  0.0470
  467MOL0     C62930   6.002   8.715   5.700  0.4564  0.1713  0.4366
  467MOL0     C62931   5.912   8.591   5.709  1.3307  0.1191  0.4580
  467MOL0     C62932   5.774   8.643   5.650  0.0997 -1.1546 -0.6494
  467MOL0     C62933   5.655   8.552   5.682  0.3458 -0.7196  0.0378
  467MOL0     O62934   5.535   8.599   5.615  0.0566  1.2102 -0.0361
  467MOL0     C62935   5.422   8.520   5.638 -0.5366 -0.3123 -0.3143
  467MOL0     C62936   5.382   8.422   5.544  0.4696  0.2387  0.1455
  467MOL0     C62937   5.261   8.350   5.562 -0.5402  0.2618  0.2856
  467MOL0     C62938   5.235   8.246   5.452  0.3012  0.0717 -0.0064
  467MOL0     C62939   5.184   8.370   5.683  0.4641  0.9223 -0.1962
  467MOL0     C62940   5.056   8.306   5.716 -0.3159 -0.9721 -0.2382
  467MOL0     O62941   5.007   8.352   5.840 -0.4582  0.7864  0.3770
  467MOL0     C62942   4.876   8.369   5.863 -0.6323  0.7504 -0.3945
  467MOL0     C62943   4.832   8.480   5.933  0.7162  0.4425 -0.5557
  467MOL0     C62944   4.700   8.494   5.960 -0.3451 -0.7456  0.0944
  467MOL0     C62945   4.604   8.392   5.924  0.1861 -0.7297  0.7835
  467MOL0     O62946   4.475   8.418   5.927  0.9428 -0.0533 -0.3207
  467MOL0     C62947   4.428   8.530   5.853 -0.0318 -0.5239 -0.8406
  467MOL0     C62948   4.283   8.510   5.806  0.4849 -0.3562 -0.6505
  467MOL0     C62949   4.179   8.519   5.922 -0.1852 -0.1401 -0.0559
  467MOL0     C62950   4.045   8.549   5.851  0.5207 -0.1552  0.8694
  467MOL0     C62951   3.924   8.526   5.942  0.0637  0.1692 -0.2384
  467MOL0     C62952   3.801   8.582   5.877  1.0375 -0.6378  0.4600
  467MOL0     C62953   3.666   8.562   5.961 -1.0342  0.7654 -0.5463
  467MOL0     C62954   3.679   8.597   6.104  0.4696  0.3641  0.0269
  467MOL0    Cl62955   3.525   8.581   6.195 -0.0010  0.7106 -0.1461
  467MOL0     C62956   4.655   8.274   5.872 -0.0197  0.6056 -0.2174
  467MOL0     C62957   4.788   8.261   5.844  0.4045  0.0751  0.9458
  467MOL0     O62958   4.999   8.230   5.636 -0.1756 -0.3320 -0.7658
  467MOL0     C62959   5.217   8.482   5.767 -0.2935 -0.5336  0.3820
  467MOL0     C62960   5.342   8.549   5.741  0.9385 -0.0610 -0.0399
  467MOL0     N62961   6.229   8.783   5.778 -0.5902 -0.0202 -0.8676
  467MOL0     N62962   6.350   8.736   5.785 -0.9079  0.1846  0.7685
  467MOL0     C62963   7.166   8.433   5.193  0.4660  0.1180  0.1482
  467MOL0     C62964   7.308   8.424   5.195  0.5993  0.9275  0.2416
  467MOL0     C62965   7.740   8.254   5.314  1.0497  0.8131 -0.9211
  467MOL0     C62966   7.785   8.362   5.232 -0.1562  0.1418 -0.0386
  467MOL0     C62967   7.923   8.380   5.227  0.5121 -0.0492  0.9693
  467MOL0     C62968   8.008   8.301   5.298  0.1970 -0.2321  0.2822
  467MOL0     O62969   8.144   8.301   5.285 -0.3016  0.4896 -0.6980
  467MOL0     C62970   8.202   8.397   5.201  0.1013  0.2558  0.0262
  467MOL0     C62971   8.355   8.373   5.185 -0.1511 -0.2270  0.0224
  467MOL0     C62972   8.439   8.414   5.312 -1.1190 -0.2917  0.4686
  467MOL0     C62973   8.461   8.295   5.404 -0.3612 -0.7923  0.3465
  467MOL0     C62974   8.531   8.173   5.355 -0.7501 -0.6349  0.4014
  467MOL0     C62975   8.585   8.057   5.336  0.3660 -1.0188  0.0495
  467MOL0     C62976   7.961   8.200   5.374 -0.2853  0.1725 -0.4099
  467MOL0     C62977   7.831   8.174   5.379  0.4725 -0.1032 -0.7861
  467MOL0     H62978   7.334   8.130   5.372 -0.4090  0.9386  2.5446
  467MOL0     H62979   7.107   8.191   5.421 -0.5928  1.8859  1.2499
  467MOL0     H62980   6.897   8.405   5.098  0.1462 -0.0148  0.3269
  467MOL0     H62981   6.770   8.383   5.222  0.5993 -1.7124  0.1008
  467MOL0     H62982   6.872   8.568   5.365 -1.5546  3.4520  0.1932
  467MOL0     H62983   6.970   8.593   5.232  1.3771 -0.4669  2.4053
  467MOL0     H62984   6.786   8.728   5.148 -2.3207 -1.4390 -3.7516
  467MOL0     H62985   6.688   8.594   5.126  2.4775  1.7845 -2.4607
  467MOL0     H62986   6.702   8.736   5.398  0.2943  1.2496 -0.8661
  467MOL0     H62987   6.579   8.754   5.284 -0.1909  0.2696  1.2885
  467MOL0     H62988   6.542   8.506   5.278  2.1304  0.4375 -1.1084
  467MOL0     H62989   6.652   8.473   5.400  0.0923 -0.2595 -1.9190
  467MOL0     H62990   6.448   8.672   5.470  4.4329  1.1601 -0.4854
  467MOL0     H62991   6.400   8.496   5.456 -0.7487  0.4649 -0.0480
  467MOL0     H62992   6.605   8.444   5.614 -0.0588 -0.3421 -0.7269
  467MOL0     H62993   6.617   8.621   5.645 -0.0976 -1.6417  1.2123
  467MOL0     H62994   6.507   8.493   5.828  0.1645  1.6289 -0.4016
  467MOL0     H62995   6.411   8.405   5.721 -1.7775  0.4058  0.8963
  467MOL0     H62996   6.164   8.481   5.664 -1.2020 -0.0718 -0.2569
  467MOL0     H62997   5.963   8.799   5.757  0.1019 -0.2617  0.8383
  467MOL0     H62998   6.005   8.763   5.602  5.2851  1.7235  1.0671
  467MOL0     H62999   5.890   8.579   5.815  1.7985 -0.1514  0.5263
  467MOL0     H63000   5.952   8.500   5.663 -1.8492 -1.1117 -0.1213
  467MOL0     H63001   5.796   8.663   5.544 -0.6874 -0.1952 -0.6452
  467MOL0     H63002   5.749   8.742   5.689  3.2110 -0.9336  1.1795
  467MOL0     H63003   5.647   8.549   5.791  0.7490  1.4434  0.1645
  467MOL0     H63004   5.672   8.449   5.647 -0.5127 -1.0069  0.4425
  467MOL0     H63005   5.446   8.411   5.457 -0.4039 -1.8017 -0.3126
  467MOL0     H63006   5.134   8.253   5.413  0.7797  0.7156 -1.1613
  467MOL0     H63007   5.300   8.260   5.365  0.4066 -2.2971 -0.3708
  467MOL0     H63008   5.266   8.146   5.482  0.8288 -0.0243 -0.8427
  467MOL0     H63009   4.908   8.551   5.963 -0.0518  1.3771 -0.7445
  467MOL0     H63010   4.662   8.587   6.001  2.8612  0.5265  0.5055
  467MOL0     H63011   4.438   8.620   5.915  1.0456 -0.1123 -1.5731
  467MOL0     H63012   4.498   8.554   5.772  1.2638 -0.5076  0.2328
  467MOL0     H63013   4.269   8.595   5.738  0.6708 -0.8062 -1.2651
  467MOL0     H63014   4.275   8.407   5.768  2.8058 -1.5847  1.8644
  467MOL0     H63015   4.210   8.592   5.997 -1.3062 -0.1595  0.4466
  467MOL0     H63016   4.178   8.421   5.970 -0.9277  0.4379  1.1443
  467MOL0     H63017   4.035   8.654   5.821  1.3433 -0.8236 -2.0027
  467MOL0     H63018   4.039   8.487   5.762 -0.4909  0.1531  0.7072
  467MOL0     H63019   3.942   8.570   6.041 -0.2209  0.9003 -0.5045
  467MOL0     H63020   3.913   8.417   5.945 -0.8149  0.1610 -2.1127
  467MOL0     H63021   3.809   8.688   5.847  2.3569 -1.0199 -0.6953
  467MOL0     H63022   3.786   8.529   5.782 -1.0360 -2.8258  1.9059
  467MOL0     H63023   3.640   8.456   5.950 -3.4756  1.1788  0.5671
  467MOL0     H63024   3.581   8.620   5.926 -1.8445  0.3679  0.6995
  467MOL0     H63025   3.717   8.699   6.117 -1.1000  0.6167  4.5562
  467MOL0     H63026   3.752   8.533   6.154 -0.3533 -0.2455  0.4648
  467MOL0     H63027   4.587   8.197   5.835  0.1542  2.0173 -3.8505
  467MOL0     H63028   4.817   8.166   5.801 -1.6077 -2.2138  4.1432
  467MOL0     H63029   5.161   8.520   5.852  0.3093 -0.6497  0.8416
  467MOL0     H63030   5.363   8.638   5.799  2.0942 -0.1900 -0.2464
  467MOL0     H63031   7.121   8.487   5.111  3.0247 -0.8768 -2.0539
  467MOL0     H63032   7.374   8.488   5.137  1.2025 -0.3094 -0.4668
  467MOL0     H63033   7.719   8.437   5.188  1.1864  0.3323 -1.8863
  467MOL0     H63034   7.956   8.460   5.162 -0.7624  0.2525  0.6647
  467MOL0     H63035   8.159   8.395   5.101  0.3006  1.5682 -0.1031
  467MOL0     H63036   8.178   8.491   5.252 -3.1154  0.0940 -0.9885
  467MOL0     H63037   8.402   8.432   5.106  2.2394 -1.1218  0.6790
  467MOL0     H63038   8.369   8.265   5.171  1.0192 -0.0908  0.0335
  467MOL0     H63039   8.398   8.505   5.358  0.7645  1.9769 -1.9914
  467MOL0     H63040   8.536   8.456   5.283 -1.6518  1.6328  1.3097
  467MOL0     H63041   8.366   8.259   5.444 -1.6061  0.5894 -1.2679
  467MOL0     H63042   8.520   8.334   5.488  0.0428  0.5248 -0.5068
  467MOL0     H63043   8.623   7.963   5.303 -0.4539 -0.7670 -1.7814
  467MOL0     H63044   8.031   8.137   5.427 -2.0060 -1.1618  0.4118
  467MOL0     H63045   7.819   8.086   5.441 -0.9063  0.1554 -0.6372
  468MOL0     O63046   9.657   2.385   0.186 -0.0680 -0.5867  0.6757
  468MOL0     C63047   9.615   2.498   0.196  0.3880 -0.3464  0.0787
  468MOL0     O63048   9.485   2.531   0.222 -0.0679  0.4146  0.0611
  468MOL0     C63049   9.413   2.448   0.302 -0.6070  0.4408 -0.6602
  468MOL0     C63050   9.270   2.442   0.290 -0.1814  0.2299  0.1596
  468MOL0     C63051   9.191   2.359   0.370  0.6149  0.0131 -0.4692
  468MOL0     C63052   9.248   2.283   0.470  0.9922  0.4020 -0.0088
  468MOL0     O63053   9.161   2.194   0.539 -0.1196  0.8076  0.1596
  468MOL0     C63054   9.027   2.161   0.492  0.2563  0.2727  0.1939
  468MOL0     C63055   8.977   2.033   0.535 -0.7038  1.0135  0.1687
  468MOL0     C63056   8.854   1.982   0.452 -0.3390  0.3313  0.2281
  468MOL0     C63057   8.897   1.911   0.327 -0.2982 -0.0251  0.1452
  468MOL0     C63058   8.781   1.887   0.237  0.1914 -0.6950 -0.2220
  468MOL0     C63059   8.743   2.007   0.153 -0.0486 -0.4963  0.6392
  468MOL0     C63060   8.661   1.978   0.028 -0.6299  0.5966  0.4794
  468MOL0     C63061   8.512   1.935   0.070  0.3952  0.3707  0.3080
  468MOL0     N63062   8.427   1.941  -0.053  0.6294  0.1292 -0.2907
  468MOL0     C63063   8.377   2.054  -0.120 -0.2120  0.6216 -1.1180
  468MOL0     C63064   8.304   1.998  -0.223 -0.2757 -0.5962  0.6635
  468MOL0     C63065   8.234   2.065  -0.335 -0.3434 -0.5649 -0.1406
  468MOL0     C63066   8.306   2.032  -0.471  0.6663  0.5241  0.5161
  468MOL0     C63067   8.212   2.068  -0.582  0.7952  0.8311 -0.3039
  468MOL0     C63068   8.202   2.213  -0.618 -0.8055 -0.8905 -0.0459
  468MOL0     O63069   8.084   2.273  -0.561 -0.2933  0.9678 -0.0145
  468MOL0     C63070   8.066   2.404  -0.582 -1.0012  0.1166 -1.0296
  468MOL0     C63071   7.952   2.454  -0.532  0.6111  0.0271  0.4964
  468MOL0     C63072   7.901   2.580  -0.565  0.3783  0.2455  0.0212
  468MOL0     C63073   7.757   2.610  -0.513  0.2356  0.5573  0.2847
  468MOL0     C63074   7.985   2.669  -0.638 -0.5576  0.1028 -0.1624
  468MOL0     C63075   7.946   2.807  -0.677 -0.2464  0.4774 -0.2850
  468MOL0     O63076   7.844   2.859  -0.592  1.1260  0.1249  0.7060
  468MOL0     C63077   7.771   2.965  -0.639 -0.4277  0.0294 -0.2492
  468MOL0     C63078   7.779   3.096  -0.601 -0.9118  0.7172  0.0380
  468MOL0     C63079   7.697   3.196  -0.650 -0.1537 -0.6275 -0.1734
  468MOL0     C63080   7.602   3.167  -0.760  0.0381 -0.1672 -0.3066
  468MOL0     O63081   7.524   3.260  -0.826 -0.0590 -0.5723 -0.0810
  468MOL0     C63082   7.491   3.381  -0.765  0.0455  0.0890  0.2543
  468MOL0     C63083   7.359   3.443  -0.808  0.4407 -0.5511 -0.3068
  468MOL0     C63084   7.244   3.342  -0.773 -0.5501  0.4783  0.8469
  468MOL0     C63085   7.134   3.416  -0.691 -0.1757  0.7332  0.1492
  468MOL0     C63086   6.994   3.359  -0.710 -1.1541  0.5840  1.4006
  468MOL0     C63087   6.933   3.392  -0.844 -0.1193  0.4158  0.5664
  468MOL0     C63088   6.784   3.367  -0.861  0.6509  0.0271 -0.1947
  468MOL0     C63089   6.705   3.430  -0.748  0.2621 -0.0328 -0.1082
  468MOL0    Cl63090   6.719   3.610  -0.739 -0.0042  0.0978  0.0508
  468MOL0     C63091   7.598   3.033  -0.806  0.5223  0.1530 -0.0205
  468MOL0     C63092   7.679   2.942  -0.744  0.1276  0.3274 -0.1521
  468MOL0     O63093   8.004   2.861  -0.773  0.1986 -0.2613 -0.0048
  468MOL0     C63094   8.109   2.615  -0.691 -1.2417 -1.1527 -0.3187
  468MOL0     C63095   8.141   2.486  -0.665  0.0014  0.8300  0.3332
  468MOL0     N63096   8.290   1.862  -0.211  0.1965  0.4475 -0.5249
  468MOL0     N63097   8.367   1.831  -0.102  0.1211  0.2429  0.8203
  468MOL0     C63098   9.382   2.284   0.486  0.2557 -0.8197 -0.4962
  468MOL0     C63099   9.464   2.364   0.407  0.7323 -0.4022  0.1541
  468MOL0     C63100   9.711   2.600   0.152 -0.4094  2.1048 -0.0285
  468MOL0     C63101   9.664   2.719   0.105 -0.5940 -0.1119 -0.6956
  468MOL0     C63102   9.749   2.813   0.052  0.2757 -0.2605  0.1415
  468MOL0     C63103   9.890   2.788   0.062 -0.8758 -0.3752 -0.6727
  468MOL0     O63104   9.981   2.886   0.035  0.5611  0.3754  0.3638
  468MOL0     C63105   9.954   2.977  -0.076  0.0433  0.0129 -0.9467
  468MOL0     C63106  10.078   2.979  -0.159  0.2377 -0.5521  0.5350
  468MOL0     C63107  10.203   3.018  -0.078  0.7789 -0.5876 -0.7657
  468MOL0     C63108  10.313   3.026  -0.175 -1.1618 -0.0201  0.7326
  468MOL0     C63109  10.436   3.061  -0.106 -0.0947  0.1080 -0.3485
  468MOL0     C63110  10.535   3.111  -0.051  0.1703  0.4553 -0.1057
  468MOL0     C63111   9.941   2.667   0.090  0.5890  0.4047 -0.3483
  468MOL0     C63112   9.851   2.570   0.138  0.1336 -0.0163 -0.2864
  468MOL0     H63113   9.223   2.505   0.215  0.0850  2.0978  1.4907
  468MOL0     H63114   9.084   2.371   0.351  0.4407 -0.1850  0.3554
  468MOL0     H63115   8.967   2.243   0.532 -1.8035 -0.5820 -1.0095
  468MOL0     H63116   9.021   2.167   0.383 -0.0927 -2.2403  0.0175
  468MOL0     H63117   9.064   1.967   0.524 -1.1869  0.2937  0.5929
  468MOL0     H63118   8.964   2.026   0.643  2.5032 -1.3500  0.5286
  468MOL0     H63119   8.801   1.915   0.520  0.4521  0.7036  1.2496
  468MOL0     H63120   8.789   2.065   0.423 -0.0817 -0.1403 -1.8400
  468MOL0     H63121   8.978   1.959   0.271  0.8534 -0.4057  1.4056
  468MOL0     H63122   8.925   1.811   0.361 -0.9067  0.5525  2.5112
  468MOL0     H63123   8.811   1.807   0.168  0.9329  0.5123 -1.3471
  468MOL0     H63124   8.693   1.850   0.289 -1.3758  3.2745  0.3127
  468MOL0     H63125   8.683   2.070   0.219  2.3597  0.8407  1.6676
  468MOL0     H63126   8.834   2.058   0.120 -0.2183 -0.9395 -0.5725
  468MOL0     H63127   8.654   2.073  -0.026  0.7613  0.3000 -0.2822
  468MOL0     H63128   8.713   1.915  -0.046  2.0695  2.6276  0.4951
  468MOL0     H63129   8.465   2.008   0.138  1.7421  1.7062 -0.1285
  468MOL0     H63130   8.498   1.837   0.116  1.1880  1.1315  2.2932
  468MOL0     H63131   8.400   2.159  -0.102  0.2182 -0.1278  4.8362
  468MOL0     H63132   8.130   2.035  -0.353 -0.7259  0.9590 -0.5577
  468MOL0     H63133   8.237   2.172  -0.312 -2.4195 -0.3972 -0.4474
  468MOL0     H63134   8.326   1.925  -0.464  0.8762  0.6314  1.8770
  468MOL0     H63135   8.394   2.097  -0.474  0.6184  0.7366  2.3968
  468MOL0     H63136   8.109   2.038  -0.556  0.5392  0.1153 -2.0134
  468MOL0     H63137   8.231   2.008  -0.671 -2.0148  0.5787 -0.8493
  468MOL0     H63138   8.199   2.231  -0.726  2.4468 -0.8392 -0.2080
  468MOL0     H63139   8.287   2.273  -0.586 -2.5623  2.3185 -0.9779
  468MOL0     H63140   7.887   2.384  -0.480 -1.0705  1.8409  0.9731
  468MOL0     H63141   7.696   2.653  -0.593 -0.6914 -3.8735 -1.6830
  468MOL0     H63142   7.711   2.515  -0.486 -2.5374  2.1985  1.8801
  468MOL0     H63143   7.769   2.669  -0.421  2.4429  0.5676  0.0437
  468MOL0     H63144   7.850   3.120  -0.522  0.7501  1.3549 -1.5796
  468MOL0     H63145   7.697   3.295  -0.607  0.9635 -0.8609  0.4017
  468MOL0     H63146   7.472   3.356  -0.660  2.2791 -3.4358 -0.0169
  468MOL0     H63147   7.571   3.456  -0.774 -0.8834  0.8597 -2.7785
  468MOL0     H63148   7.340   3.541  -0.764  0.6904 -0.7699  0.3018
  468MOL0     H63149   7.360   3.464  -0.915  0.2615  0.2757 -0.1512
  468MOL0     H63150   7.268   3.249  -0.721 -0.5669 -0.1321 -0.2108
  468MOL0     H63151   7.193   3.314  -0.866  1.1582 -1.8955  0.5371
  468MOL0     H63152   7.163   3.413  -0.585  0.0193  0.8092  0.0969
  468MOL0     H63153   7.122   3.523  -0.711 -0.3564  0.4177 -1.5954
  468MOL0     H63154   6.930   3.391  -0.627 -1.6418  0.2500  1.1655
  468MOL0     H63155   7.002   3.252  -0.686 -2.0990  0.7165  2.3882
  468MOL0     H63156   6.940   3.500  -0.861 -0.6976  0.5413  1.0980
  468MOL0     H63157   6.995   3.339  -0.917 -1.8502 -2.9131  1.3176
  468MOL0     H63158   6.773   3.259  -0.859  2.2571 -0.1575 -0.1663
  468MOL0     H63159   6.741   3.405  -0.955 -0.4854  0.4228  0.4612
  468MOL0     H63160   6.722   3.375  -0.655 -3.4258  0.9752  1.3456
  468MOL0     H63161   6.599   3.410  -0.772  0.0705 -2.3792  2.1852
  468MOL0     H63162   7.521   2.995  -0.872 -0.8643 -3.9547  3.5044
  468MOL0     H63163   7.663   2.845  -0.790  1.3988  0.1361 -0.2365
  468MOL0     H63164   8.182   2.672  -0.748 -0.5915  1.4891  2.9019
  468MOL0     H63165   8.226   2.444  -0.718 -0.9766  1.9487 -2.2363
  468MOL0     H63166   9.425   2.221   0.564  0.6982 -1.5630 -1.3251
  468MOL0     H63167   9.569   2.355   0.430  0.2957  0.4602  2.8223
  468MOL0     H63168   9.558   2.738   0.117 -0.4506 -0.2229  0.9568
  468MOL0     H63169   9.713   2.907   0.014  3.0128  1.1035  0.6597
  468MOL0     H63170   9.860   2.955  -0.128 -1.0279  0.4713  0.7077
  468MOL0     H63171   9.924   3.079  -0.048 -1.5483 -0.7516  0.2932
  468MOL0     H63172  10.057   3.050  -0.239  0.3933 -0.9384  0.1471
  468MOL0     H63173  10.090   2.879  -0.201 -1.5502 -0.6665  0.2105
  468MOL0     H63174  10.222   2.944   0.001  1.5590  0.3151 -0.0935
  468MOL0     H63175  10.188   3.115  -0.030 -0.7251 -2.2493  2.4512
  468MOL0     H63176  10.299   3.105  -0.249 -0.0212 -0.3288  0.1619
  468MOL0     H63177  10.328   2.927  -0.220  3.3503  0.3664  0.8662
  468MOL0     H63178  10.617   3.160  -0.004  0.4060 -1.2893  1.4750
  468MOL0     H63179  10.046   2.642   0.076  0.6116  0.3873 -0.1511
  468MOL0     H63180   9.873   2.464   0.142  0.9087  0.1702  0.6476
  469MOL0     O63181  10.199   1.859   5.870  0.0473 -0.0125  0.5690
  469MOL0     C63182  10.280   1.773   5.918  0.4431 -0.1609  0.5980
  469MOL0     O63183  10.252   1.682   6.016  0.0373  0.1935  0.3222
  469MOL0     C63184  10.137   1.693   6.093 -0.8135 -0.0302 -0.5667
  469MOL0     C63185  10.010   1.693   6.036  0.0306  0.2528  0.1207
  469MOL0     C63186   9.898   1.684   6.109 -0.3766  0.6110  0.3369
  469MOL0     C63187   9.918   1.661   6.256 -0.0827 -0.1562  0.0915
  469MOL0     O63188   9.819   1.608   6.331  0.3126  0.3472 -0.3546
  469MOL0     C63189   9.682   1.639   6.304  0.0505 -0.4169 -0.2556
  469MOL0     C63190   9.599   1.615   6.430  0.1249 -0.4115  0.6764
  469MOL0     C63191   9.452   1.630   6.388  0.0489  0.5532  0.0164
  469MOL0     C63192   9.359   1.592   6.511 -0.5738 -0.3726  0.1061
  469MOL0     C63193   9.216   1.568   6.463  0.2708 -0.1865 -0.8587
  469MOL0     C63194   9.116   1.536   6.580 -0.5172 -0.1015 -0.0328
  469MOL0     C63195   8.978   1.580   6.546 -0.2258 -0.6910 -1.3433
  469MOL0     C63196   8.880   1.514   6.647 -0.2329  0.1812 -0.2605
  469MOL0     N63197   8.743   1.540   6.593  1.0722 -0.6170  0.1061
  469MOL0     C63198   8.658   1.638   6.646  0.0873  0.3374  0.3403
  469MOL0     C63199   8.536   1.608   6.597  0.4863 -0.0366  0.0041
  469MOL0     C63200   8.409   1.686   6.629  1.0329 -1.2026 -0.3026
  469MOL0     C63201   8.300   1.663   6.529  0.3263  0.1940 -0.2406
  469MOL0     C63202   8.178   1.767   6.561 -0.0313 -0.7715 -0.7106
  469MOL0     C63203   8.074   1.709   6.658  0.1856  0.3393 -0.8078
  469MOL0     O63204   8.020   1.596   6.589  0.3991 -0.5823  0.4033
  469MOL0     C63205   7.887   1.576   6.610  0.0891  0.4862 -0.2266
  469MOL0     C63206   7.818   1.509   6.507  0.2914  0.8905  0.1815
  469MOL0     C63207   7.674   1.481   6.513  0.0462  0.4386  0.2351
  469MOL0     C63208   7.616   1.398   6.406  0.5317  0.2600 -0.0948
  469MOL0     C63209   7.606   1.537   6.619 -0.6022  0.1931  0.7456
  469MOL0     C63210   7.450   1.529   6.624  0.5038  0.3556  0.7332
  469MOL0     O63211   7.391   1.422   6.574  0.0088 -0.2221 -0.0412
  469MOL0     C63212   7.260   1.399   6.605  0.7086 -0.4655  0.0177
  469MOL0     C63213   7.172   1.364   6.500 -0.1300  0.5900 -0.2753
  469MOL0     C63214   7.031   1.363   6.526 -0.5734 -0.0813  0.7936
  469MOL0     C63215   6.977   1.373   6.646 -0.9101 -0.2028 -0.8386
  469MOL0     O63216   6.840   1.366   6.656  0.1736 -0.0319 -0.2659
  469MOL0     C63217   6.772   1.389   6.781 -0.0843  0.8740 -0.2809
  469MOL0     C63218   6.625   1.359   6.772  0.3555  0.5512 -0.2513
  469MOL0     C63219   6.540   1.409   6.894  0.7670  0.0841  0.0812
  469MOL0     C63220   6.426   1.510   6.862  0.0197 -0.0280  0.0932
  469MOL0     C63221   6.342   1.537   6.986 -0.3807  0.4790  0.1367
  469MOL0     C63222   6.418   1.590   7.113 -0.3280  0.3352 -0.1799
  469MOL0     C63223   6.346   1.598   7.249  0.0216 -0.4293 -0.1448
  469MOL0     C63224   6.232   1.701   7.246 -1.0634  0.2693 -0.1103
  469MOL0    Cl63225   6.089   1.623   7.170 -0.0481 -0.6817  0.2416
  469MOL0     C63226   7.059   1.418   6.753  0.1720  0.6014 -0.4697
  469MOL0     C63227   7.197   1.426   6.730  0.0106  0.3801  0.3878
  469MOL0     O63228   7.398   1.633   6.667  0.1571  0.3025 -0.1385
  469MOL0     C63229   7.673   1.590   6.730  0.0523  0.4708  0.0721
  469MOL0     C63230   7.813   1.607   6.726  0.4612 -0.3239  0.0866
  469MOL0     N63231   8.539   1.486   6.523 -1.0483  0.1083 -0.6093
  469MOL0     N63232   8.661   1.447   6.534  0.1124  0.5834 -0.6155
  469MOL0     C63233  10.044   1.667   6.311  0.3815 -0.3258 -0.7665
  469MOL0     C63234  10.157   1.688   6.228  0.2437  0.1391 -0.3707
  469MOL0     C63235  10.406   1.753   5.841 -0.5826 -0.1231 -0.4345
  469MOL0     C63236  10.433   1.823   5.723 -0.4083  0.3077  0.3591
  469MOL0     C63237  10.557   1.801   5.651 -0.2531 -0.0552  0.1446
  469MOL0     C63238  10.640   1.695   5.698  0.3349 -0.3148  0.1805
  469MOL0     O63239  10.755   1.682   5.628  0.6314 -0.8739  0.4567
  469MOL0     C63240  10.850   1.590   5.666  0.1889  0.8275  0.7749
  469MOL0     C63241  10.954   1.578   5.548  0.2186  0.5507 -0.4334
  469MOL0     C63242  11.015   1.709   5.502 -0.6280 -0.5206 -0.1859
  469MOL0     C63243  11.074   1.803   5.598 -0.6677  0.1419 -0.2040
  469MOL0     C63244  11.181   1.744   5.686 -0.3884 -0.4059  0.3594
  469MOL0     C63245  11.278   1.694   5.752  0.1627  0.3074  0.0422
  469MOL0     C63246  10.610   1.629   5.820  0.3470 -0.1268 -0.0108
  469MOL0     C63247  10.493   1.649   5.888  0.8673 -1.9589 -0.4900
  469MOL0     H63248   9.999   1.696   5.928  1.6748 -2.1700 -0.2040
  469MOL0     H63249   9.802   1.672   6.060 -2.6539  1.5258  4.1458
  469MOL0     H63250   9.674   1.746   6.283  1.2539  1.2194  5.6243
  469MOL0     H63251   9.648   1.584   6.216  2.7956 -0.7460 -1.2033
  469MOL0     H63252   9.615   1.517   6.477 -1.4146 -1.6874 -1.3120
  469MOL0     H63253   9.619   1.699   6.496  0.8006  1.7426 -2.0736
  469MOL0     H63254   9.433   1.727   6.342  2.0473  0.6824 -0.6249
  469MOL0     H63255   9.438   1.552   6.312  2.3868 -0.0547  0.1556
  469MOL0     H63256   9.411   1.511   6.563  0.7610 -0.9933 -2.0893
  469MOL0     H63257   9.367   1.678   6.579 -0.0154 -0.0072 -0.4068
  469MOL0     H63258   9.189   1.662   6.413  2.0292  1.3915  1.0047
  469MOL0     H63259   9.224   1.488   6.389 -3.3331  1.0440 -2.8593
  469MOL0     H63260   9.128   1.433   6.617  4.8993  1.9005  5.6781
  469MOL0     H63261   9.155   1.587   6.669  1.4128 -0.1254 -0.8215
  469MOL0     H63262   8.977   1.689   6.557 -1.1876 -0.6295 -1.9961
  469MOL0     H63263   8.944   1.546   6.448  1.2695 -1.5960 -1.5898
  469MOL0     H63264   8.899   1.567   6.740  2.5586  0.4804 -0.9294
  469MOL0     H63265   8.897   1.407   6.659  2.5537  0.2361 -2.6637
  469MOL0     H63266   8.683   1.718   6.715 -1.4436  0.2878  1.0016
  469MOL0     H63267   8.360   1.657   6.723 -0.6790  1.2017 -0.3437
  469MOL0     H63268   8.425   1.794   6.634  0.1708 -1.0379 -1.0534
  469MOL0     H63269   8.256   1.566   6.553  0.5159  0.3297  0.6965
  469MOL0     H63270   8.340   1.671   6.427  3.2680  1.8053  0.9030
  469MOL0     H63271   8.128   1.789   6.466 -1.9592  1.9124  0.7742
  469MOL0     H63272   8.208   1.865   6.600 -1.0284 -0.2589 -1.1876
  469MOL0     H63273   7.998   1.780   6.692 -0.7430 -2.1701  2.9456
  469MOL0     H63274   8.119   1.668   6.748 -0.4884  0.6365 -0.3250
  469MOL0     H63275   7.880   1.475   6.424 -0.6507 -2.9973  0.8428
  469MOL0     H63276   7.595   1.302   6.453 -0.0218  0.9999  1.2103
  469MOL0     H63277   7.518   1.437   6.376 -0.0204 -0.7966  0.2806
  469MOL0     H63278   7.683   1.397   6.319  1.6111  3.0342  0.6037
  469MOL0     H63279   7.225   1.356   6.405  1.7537  3.8471  0.3443
  469MOL0     H63280   6.960   1.326   6.452 -0.6283 -1.2404  1.3965
  469MOL0     H63281   6.812   1.324   6.859  0.4011  4.7787  3.0445
  469MOL0     H63282   6.782   1.490   6.821  0.5503  0.4235  0.7408
  469MOL0     H63283   6.589   1.413   6.684 -0.2959 -0.2176 -0.4712
  469MOL0     H63284   6.620   1.250   6.760  2.9971  0.4442 -0.8735
  469MOL0     H63285   6.615   1.457   6.958  1.7722 -2.3225  0.8299
  469MOL0     H63286   6.498   1.328   6.954 -2.1186  2.2470  1.2143
  469MOL0     H63287   6.468   1.601   6.818  3.5347 -3.4018 -4.5834
  469MOL0     H63288   6.355   1.474   6.787 -3.7622  1.9946  2.3681
  469MOL0     H63289   6.298   1.438   7.007  1.7355 -0.1926  1.7790
  469MOL0     H63290   6.261   1.607   6.962 -0.3338  0.2146 -0.8433
  469MOL0     H63291   6.509   1.530   7.121 -2.0873 -2.2885  1.8627
  469MOL0     H63292   6.447   1.692   7.087  1.3893 -0.1517 -0.2708
  469MOL0     H63293   6.419   1.637   7.320  1.6390  0.0561 -1.9924
  469MOL0     H63294   6.297   1.506   7.282 -1.2836 -0.5129 -2.1653
  469MOL0     H63295   6.268   1.787   7.189  3.9115 -1.8245 -0.7445
  469MOL0     H63296   6.193   1.727   7.345 -1.2626 -0.5818  0.0416
  469MOL0     H63297   7.028   1.436   6.855  3.0695  1.0537  0.4299
  469MOL0     H63298   7.263   1.437   6.816  1.0956 -3.8145  0.3521
  469MOL0     H63299   7.620   1.612   6.822  1.5086  0.4268  0.9633
  469MOL0     H63300   7.864   1.655   6.809 -1.2330  0.2642  0.8343
  469MOL0     H63301  10.053   1.657   6.419  0.6968  1.1419 -0.6262
  469MOL0     H63302  10.250   1.691   6.283  0.4996  2.1994 -0.8502
  469MOL0     H63303  10.367   1.902   5.686 -0.7508 -0.7459 -1.4301
  469MOL0     H63304  10.574   1.864   5.564  1.5402  1.5863  1.5851
  469MOL0     H63305  10.889   1.624   5.763 -2.9872  1.1969  2.0542
  469MOL0     H63306  10.811   1.488   5.673  4.3472 -1.0785 -0.8092
  469MOL0     H63307  10.905   1.532   5.462  1.2235 -1.2373 -0.0862
  469MOL0     H63308  11.029   1.510   5.588 -0.9224  1.0827  2.9882
  469MOL0     H63309  10.941   1.768   5.446  0.0468  0.2102 -0.3244
  469MOL0     H63310  11.092   1.683   5.429  0.3173 -0.5232  0.8035
  469MOL0     H63311  10.983   1.825   5.655 -1.1347  0.9400 -1.2097
  469MOL0     H63312  11.103   1.899   5.552  3.2341  0.1644  1.8910
  469MOL0     H63313  11.354   1.647   5.810 -1.4655  0.7195  2.6903
  469MOL0     H63314  10.668   1.552   5.868  0.8289  0.5547  0.5231
  469MOL0     H63315  10.467   1.592   5.977  0.6802  0.8810  1.4105
  470MOL0     O63316   8.999   3.704   1.916  0.6269 -0.6877  0.7046
  470MOL0     C63317   8.894   3.644   1.944  0.3651 -0.0432  0.3269
  470MOL0     O63318   8.777   3.702   1.988 -0.2860  0.0068 -0.3338
  470MOL0     C63319   8.783   3.840   2.021  0.1228  0.6278 -0.1278
  470MOL0     C63320   8.763   3.877   2.157 -0.6744  1.1331  0.2111
  470MOL0     C63321   8.747   4.008   2.198  0.4576  0.7305  0.4677
  470MOL0     C63322   8.756   4.110   2.110  1.4166 -0.0860 -0.4253
  470MOL0     O63323   8.751   4.239   2.154 -0.9518  0.5308  0.0957
  470MOL0     C63324   8.640   4.293   2.227  0.3920 -0.3416  1.1037
  470MOL0     C63325   8.590   4.405   2.137  0.1594 -0.9493  0.0577
  470MOL0     C63326   8.470   4.474   2.205  0.2208 -0.1543  0.3669
  470MOL0     C63327   8.408   4.587   2.124 -0.3250  0.3295 -0.4913
  470MOL0     C63328   8.325   4.527   2.012 -0.3237  0.2143  0.6360
  470MOL0     C63329   8.225   4.627   1.947  0.7479 -0.1160 -0.5108
  470MOL0     C63330   8.130   4.567   1.843 -0.4348 -0.0317 -0.2314
  470MOL0     C63331   8.033   4.471   1.902 -0.7805 -0.5608 -0.3104
  470MOL0     N63332   7.942   4.427   1.793  0.1334 -0.3979  0.3704
  470MOL0     C63333   7.947   4.306   1.716 -0.2920 -0.5530  0.0748
  470MOL0     C63334   7.843   4.315   1.632 -0.6958  0.1374 -0.2141
  470MOL0     C63335   7.803   4.218   1.529 -0.4386  0.7657 -0.6579
  470MOL0     C63336   7.705   4.266   1.417  0.2930  0.2351 -1.2081
  470MOL0     C63337   7.562   4.229   1.451  0.2593 -0.8609 -0.8397
  470MOL0     C63338   7.507   4.309   1.566  0.1594  0.5594 -0.0828
  470MOL0     O63339   7.366   4.282   1.575  0.1849  0.8139 -0.3253
  470MOL0     C63340   7.291   4.318   1.674 -0.5204  0.2041  0.7467
  470MOL0     C63341   7.157   4.283   1.670  0.3112  0.1973 -0.3445
  470MOL0     C63342   7.063   4.309   1.772 -0.2297 -0.6480 -0.3329
  470MOL0     C63343   6.922   4.277   1.743 -0.7542 -0.4185  0.4381
  470MOL0     C63344   7.119   4.384   1.881  0.3709  0.2324  0.1399
  470MOL0     C63345   7.036   4.413   2.003 -0.4178  0.6370 -0.9964
  470MOL0     O63346   7.077   4.522   2.075  0.3541 -0.1590 -0.4286
  470MOL0     C63347   7.064   4.541   2.216  0.4244  0.0543  0.5578
  470MOL0     C63348   7.080   4.677   2.265  0.0657  0.2721  0.6619
  470MOL0     C63349   7.071   4.691   2.401 -0.5726  0.1139  0.0778
  470MOL0     C63350   7.058   4.584   2.485  0.3629  0.3871  0.0847
  470MOL0     O63351   7.045   4.599   2.625 -0.4784 -0.2736  0.1536
  470MOL0     C63352   7.165   4.574   2.697  0.9062  0.0136  0.3187
  470MOL0     C63353   7.283   4.664   2.655  0.2469  0.4742  0.7664
  470MOL0     C63354   7.401   4.646   2.749  0.6757 -0.3505 -0.4610
  470MOL0     C63355   7.503   4.760   2.729  0.2135 -0.4132 -0.1928
  470MOL0     C63356   7.615   4.762   2.833 -0.7130 -0.8753  0.4620
  470MOL0     C63357   7.703   4.888   2.831 -0.2395  0.2439 -0.0077
  470MOL0     C63358   7.765   4.922   2.695  0.2018 -0.1303  0.4203
  470MOL0     C63359   7.679   5.014   2.602  0.4095  0.0171 -0.3023
  470MOL0    Cl63360   7.604   5.151   2.701 -0.0565  0.2372 -0.1109
  470MOL0     C63361   7.059   4.451   2.439  1.2455  0.0416  0.2850
  470MOL0     C63362   7.059   4.428   2.302 -0.0209  0.1999  0.0247
  470MOL0     O63363   6.938   4.337   2.038  0.3241 -0.2521 -0.2776
  470MOL0     C63364   7.252   4.426   1.889 -0.7857 -0.6063  0.5874
  470MOL0     C63365   7.336   4.385   1.785 -0.5113  0.6201 -0.6108
  470MOL0     N63366   7.793   4.441   1.651 -0.5670  0.0239  0.1325
  470MOL0     N63367   7.842   4.506   1.748  0.1313  0.0258 -0.8198
  470MOL0     C63368   8.776   4.077   1.971  0.7768 -0.1719 -0.6998
  470MOL0     C63369   8.795   3.944   1.933 -0.1434  0.1250 -0.1142
  470MOL0     C63370   8.890   3.501   1.910  0.2611  0.7079  0.3574
  470MOL0     C63371   8.785   3.415   1.951  0.8242  0.1020  0.4511
  470MOL0     C63372   8.793   3.280   1.921 -0.3677  0.2917  0.3480
  470MOL0     C63373   8.902   3.223   1.857 -0.2655  0.9975 -0.4027
  470MOL0     O63374   8.927   3.088   1.846 -0.1973 -0.0037 -0.7623
  470MOL0     C63375   8.838   2.999   1.911  0.2730  0.4193 -0.0123
  470MOL0     C63376   8.861   2.863   1.853  0.0035  0.6358 -0.7124
  470MOL0     C63377   8.852   2.854   1.699 -0.9930  0.2707  0.1581
  470MOL0     C63378   8.792   2.720   1.657 -0.0105 -0.3056  0.6060
  470MOL0     C63379   8.649   2.729   1.687 -0.5363  0.9127 -1.0258
  470MOL0     C63380   8.539   2.738   1.743 -0.0320 -1.0680  0.7775
  470MOL0     C63381   8.994   3.312   1.804  0.2536 -1.0138  0.4093
  470MOL0     C63382   8.996   3.442   1.836 -0.1709  0.6945  0.4815
  470MOL0     H63383   8.749   3.808   2.239  0.3168  1.1291  0.3927
  470MOL0     H63384   8.734   4.035   2.303  0.4030  3.1490 -0.0937
  470MOL0     H63385   8.567   4.215   2.250  1.9310 -1.6363  1.8283
  470MOL0     H63386   8.664   4.335   2.325 -0.7870 -0.2279  1.3602
  470MOL0     H63387   8.664   4.484   2.122  1.4230 -2.1926 -0.4751
  470MOL0     H63388   8.562   4.357   2.043  0.9170 -1.8917  0.2976
  470MOL0     H63389   8.390   4.403   2.226  0.4177 -0.0795  1.4218
  470MOL0     H63390   8.505   4.507   2.304  0.9299 -2.5753  0.9897
  470MOL0     H63391   8.351   4.645   2.198 -0.5955 -0.9566  0.3419
  470MOL0     H63392   8.484   4.654   2.083  1.8124  0.0114  2.6378
  470MOL0     H63393   8.397   4.480   1.943 -1.0752 -0.2677  0.1684
  470MOL0     H63394   8.272   4.443   2.057 -0.3138 -2.2656 -3.4240
  470MOL0     H63395   8.173   4.673   2.032  1.3700 -0.0567 -0.1600
  470MOL0     H63396   8.282   4.692   1.881 -2.7298 -0.3477 -4.1206
  470MOL0     H63397   8.077   4.652   1.799 -2.2362 -1.1717 -0.3889
  470MOL0     H63398   8.187   4.511   1.768 -0.0033  1.8043 -1.3600
  470MOL0     H63399   7.981   4.527   1.980  1.1220  2.4609 -1.0361
  470MOL0     H63400   8.086   4.382   1.936 -1.1623  0.0414  2.0494
  470MOL0     H63401   8.016   4.223   1.715  0.0589 -0.2754 -2.0458
  470MOL0     H63402   7.901   4.202   1.483  0.4131  0.7645  1.0900
  470MOL0     H63403   7.771   4.123   1.573  0.2296  1.4428  1.3838
  470MOL0     H63404   7.739   4.215   1.327 -1.7660 -0.0110 -1.9184
  470MOL0     H63405   7.705   4.374   1.396 -2.1551  0.0608 -2.4984
  470MOL0     H63406   7.561   4.120   1.465  4.7259 -0.9970 -0.1003
  470MOL0     H63407   7.501   4.260   1.366  2.7364  0.0370 -2.3965
  470MOL0     H63408   7.528   4.416   1.555  2.9780 -0.1011 -2.6773
  470MOL0     H63409   7.553   4.257   1.650  0.1116 -3.0736 -2.0895
  470MOL0     H63410   7.120   4.241   1.577 -0.2304 -0.0148 -0.0375
  470MOL0     H63411   6.892   4.189   1.800 -1.6659 -0.0702  0.5102
  470MOL0     H63412   6.867   4.369   1.766 -1.4168  0.7575 -4.5547
  470MOL0     H63413   6.907   4.253   1.637 -1.3107  3.4075 -0.5090
  470MOL0     H63414   7.091   4.760   2.196  1.7740 -0.8460 -0.4582
  470MOL0     H63415   7.068   4.794   2.438  2.2184  0.7936 -1.3127
  470MOL0     H63416   7.147   4.590   2.804 -0.2388 -1.1993  0.3334
  470MOL0     H63417   7.191   4.468   2.686  2.4511 -0.0458  3.3181
  470MOL0     H63418   7.311   4.638   2.552 -1.9188  0.8507  0.0407
  470MOL0     H63419   7.253   4.768   2.644  0.5110  0.4197 -0.6322
  470MOL0     H63420   7.460   4.557   2.724  2.4287  0.8342 -0.7943
  470MOL0     H63421   7.370   4.640   2.853 -0.2573 -0.4425 -0.7402
  470MOL0     H63422   7.548   4.743   2.630 -3.8442 -0.7342 -2.1927
  470MOL0     H63423   7.442   4.851   2.729  0.3327 -0.0717 -4.7398
  470MOL0     H63424   7.674   4.671   2.817 -0.3751 -0.6712  0.5309
  470MOL0     H63425   7.569   4.754   2.932  0.3450  0.2253  1.0712
  470MOL0     H63426   7.636   4.965   2.872 -1.6675 -0.7830 -0.3500
  470MOL0     H63427   7.787   4.882   2.901 -0.3348 -2.7229 -0.0355
  470MOL0     H63428   7.796   4.830   2.644 -3.5705 -1.2911 -0.0736
  470MOL0     H63429   7.857   4.981   2.703  0.1414  0.4393 -2.0276
  470MOL0     H63430   7.606   4.954   2.547  0.7713  0.7858 -1.6710
  470MOL0     H63431   7.748   5.059   2.531 -1.8401  3.5611 -0.4794
  470MOL0     H63432   7.045   4.372   2.511 -0.6863 -0.9546 -1.0786
  470MOL0     H63433   7.045   4.325   2.270  1.7949 -0.8443  2.2964
  470MOL0     H63434   7.293   4.483   1.972  0.5850  0.0716 -0.5209
  470MOL0     H63435   7.440   4.414   1.789  0.1664 -1.6582  0.0632
  470MOL0     H63436   8.792   4.163   1.906  1.1816 -0.1412 -0.5591
  470MOL0     H63437   8.821   3.928   1.829  1.7804  0.1162  0.3416
  470MOL0     H63438   8.701   3.451   2.010  0.2052 -1.7564  0.7503
  470MOL0     H63439   8.706   3.225   1.955 -0.6351 -0.4218 -1.4335
  470MOL0     H63440   8.853   2.982   2.018  3.3941  0.4305 -0.3571
  470MOL0     H63441   8.731   3.018   1.903  0.1424 -0.2344  0.0581
  470MOL0     H63442   8.784   2.803   1.901  1.3312 -1.2513 -0.8350
  470MOL0     H63443   8.961   2.823   1.874 -0.5131 -1.7586 -2.3708
  470MOL0     H63444   8.955   2.841   1.662  0.0124  2.3615  1.9881
  470MOL0     H63445   8.805   2.941   1.653  0.6885  1.7236  1.0790
  470MOL0     H63446   8.833   2.639   1.717 -1.7169 -0.8030  1.1548
  470MOL0     H63447   8.802   2.711   1.548 -0.6551 -3.7425  0.7192
  470MOL0     H63448   8.453   2.741   1.807 -0.1403  2.0698  0.6538
  470MOL0     H63449   9.075   3.272   1.744 -1.0923 -0.9228 -1.5929
  470MOL0     H63450   9.073   3.505   1.792 -0.8992  0.6390 -0.9120
  471MOL0     O63451   6.460   7.109   9.708 -0.7140  0.4997  0.2947
  471MOL0     C63452   6.485   7.218   9.755 -0.1023  0.2345  0.0027
  471MOL0     O63453   6.391   7.310   9.789  0.0976  0.2210  0.0231
  471MOL0     C63454   6.258   7.288   9.808 -0.0078  0.6800 -0.2306
  471MOL0     C63455   6.191   7.167   9.782 -0.7045  0.2830 -0.1264
  471MOL0     C63456   6.061   7.160   9.801  0.8251  0.5925  1.2722
  471MOL0     C63457   5.983   7.272   9.841 -0.4055  0.3589 -0.0842
  471MOL0     O63458   5.848   7.253   9.858 -0.3536 -0.1226 -0.3115
  471MOL0     C63459   5.818   7.158   9.962 -0.3254 -0.7582  0.4201
  471MOL0     C63460   5.760   7.252  10.069 -0.6967 -0.2477  0.0535
  471MOL0     C63461   5.691   7.168  10.178  0.7261  0.2540 -0.2753
  471MOL0     C63462   5.562   7.096  10.126 -1.1151  0.1739 -1.0389
  471MOL0     C63463   5.486   7.028  10.234  0.9358  0.7253 -0.1345
  471MOL0     C63464   5.380   6.940  10.176  0.2815  0.1706  0.3674
  471MOL0     C63465   5.329   6.823  10.266  0.4705  0.3366  0.4001
  471MOL0     C63466   5.253   6.860  10.400 -0.0384 -0.6570  0.1164
  471MOL0     N63467   5.186   6.987  10.394  0.2012  0.3523 -0.1920
  471MOL0     C63468   5.203   7.097  10.472 -0.3208  0.0613 -0.0589
  471MOL0     C63469   5.107   7.187  10.435 -0.4074  0.7680  0.3146
  471MOL0     C63470   5.081   7.323  10.501  0.4171  0.0568 -0.1511
  471MOL0     C63471   4.993   7.414  10.429 -0.2362  0.1337 -0.0235
  471MOL0     C63472   4.851   7.377  10.445  0.4703 -0.1458 -0.2804
  471MOL0     C63473   4.753   7.484  10.397 -0.0806 -0.5137 -0.8776
  471MOL0     O63474   4.624   7.427  10.408  0.3382 -0.4929  0.4927
  471MOL0     C63475   4.522   7.510  10.422  0.9486  0.3752 -0.2095
  471MOL0     C63476   4.394   7.453  10.436 -0.2358 -0.5536  0.8712
  471MOL0     C63477   4.278   7.532  10.435 -0.6362  0.5107 -0.0983
  471MOL0     C63478   4.150   7.453  10.437 -0.4681 -0.7028 -0.3928
  471MOL0     C63479   4.285   7.673  10.414  0.5661 -0.6819 -0.3625
  471MOL0     C63480   4.157   7.759  10.393 -0.1246 -0.4545 -0.1169
  471MOL0     O63481   4.040   7.697  10.433  0.6039  0.1706 -0.8030
  471MOL0     C63482   3.918   7.754  10.402 -0.1258 -0.3566 -0.1685
  471MOL0     C63483   3.841   7.788  10.512  1.0097 -0.6594 -0.4624
  471MOL0     C63484   3.714   7.840  10.497 -0.1260 -0.4254 -0.0641
  471MOL0     C63485   3.654   7.846  10.367 -0.0022  0.5573  0.0121
  471MOL0     O63486   3.537   7.910  10.349  0.4685 -0.0521  0.3398
  471MOL0     C63487   3.463   7.939  10.465  0.6512 -0.0753  0.1849
  471MOL0     C63488   3.396   7.812  10.527  0.0562  0.4253 -0.0794
  471MOL0     C63489   3.307   7.847  10.643  0.0810  0.2745  0.2706
  471MOL0     C63490   3.223   7.732  10.691  0.6486  0.5445 -1.3119
  471MOL0     C63491   3.126   7.774  10.808 -0.0673 -0.2908  0.5242
  471MOL0     C63492   3.188   7.757  10.948  0.4632 -0.1003 -0.7228
  471MOL0     C63493   3.084   7.791  11.056  1.4060  0.3729 -0.0894
  471MOL0     C63494   2.982   7.670  11.070 -0.7034 -0.3024 -0.0876
  471MOL0    Cl63495   2.861   7.713  11.204 -0.5698  0.0960  0.2903
  471MOL0     C63496   3.733   7.804  10.257  1.0569  0.1037  0.3192
  471MOL0     C63497   3.866   7.757  10.273  0.8403 -0.4260  0.4141
  471MOL0     O63498   4.169   7.871  10.343  0.3554 -0.9723 -0.5440
  471MOL0     C63499   4.406   7.729  10.387  0.0685 -0.8798 -0.9243
  471MOL0     C63500   4.517   7.652  10.391 -0.3736  0.2318 -0.4015
  471MOL0     N63501   5.041   7.134  10.326 -0.0499  0.0713  0.4612
  471MOL0     N63502   5.081   7.013  10.308 -0.3237 -0.0290 -0.6785
  471MOL0     C63503   6.049   7.387   9.882  0.0513 -0.4438 -0.0159
  471MOL0     C63504   6.188   7.399   9.870  0.3336  0.5269  0.0847
  471MOL0     C63505   6.627   7.261   9.748  0.4830 -0.1805 -0.3115
  471MOL0     C63506   6.721   7.179   9.685 -0.0372  0.1985 -0.4930
  471MOL0     C63507   6.859   7.218   9.669  0.3241  0.8095 -0.4499
  471MOL0     C63508   6.903   7.331   9.728  0.1590 -0.4747 -1.3584
  471MOL0     O63509   7.033   7.382   9.729 -0.0268  0.0179  0.2263
  471MOL0     C63510   7.137   7.281   9.713 -0.3065  0.2024 -0.5455
  471MOL0     C63511   7.258   7.336   9.796  0.3986  0.2610  0.4719
  471MOL0     C63512   7.384   7.260   9.762 -0.8944 -0.5471 -1.1509
  471MOL0     C63513   7.504   7.315   9.835 -0.0185 -0.2168 -0.4845
  471MOL0     C63514   7.606   7.210   9.862  0.0241 -1.1238  0.0354
  471MOL0     C63515   7.691   7.133   9.902 -0.0813 -1.1977 -0.1035
  471MOL0     C63516   6.810   7.415   9.793 -0.5304  0.1445 -0.2193
  471MOL0     C63517   6.675   7.383   9.800  0.6451  0.0918 -0.8802
  471MOL0     H63518   6.238   7.075   9.749  4.0950  2.4828 -0.4065
  471MOL0     H63519   6.012   7.067   9.773  3.1033  0.3330 -2.6995
  471MOL0     H63520   5.738   7.095   9.922 -0.4027 -0.2818 -0.1918
  471MOL0     H63521   5.906   7.100   9.993  0.2243  0.6939  1.7199
  471MOL0     H63522   5.835   7.317  10.114 -0.0065  1.4645 -3.2715
  471MOL0     H63523   5.680   7.318  10.032 -1.1947 -1.3383 -0.8963
  471MOL0     H63524   5.758   7.097  10.227  0.4482  1.3218  1.7336
  471MOL0     H63525   5.655   7.242  10.249 -0.1009 -1.0415  0.6894
  471MOL0     H63526   5.513   7.174  10.067 -0.2631 -0.0567 -2.1122
  471MOL0     H63527   5.610   7.021  10.063  0.3027 -0.4892  0.7450
  471MOL0     H63528   5.558   6.967  10.289  1.7623  2.5847  0.9303
  471MOL0     H63529   5.455   7.097  10.312 -0.1880 -0.6202  0.6600
  471MOL0     H63530   5.303   7.002  10.128  1.5523 -0.2778 -2.4261
  471MOL0     H63531   5.432   6.883  10.099 -0.9020 -1.2139  0.5402
  471MOL0     H63532   5.266   6.773  10.191 -0.3652  0.6067  0.9045
  471MOL0     H63533   5.412   6.757  10.291 -0.1097 -0.5404  0.0469
  471MOL0     H63534   5.322   6.857  10.485 -0.5859 -2.0534  0.5317
  471MOL0     H63535   5.177   6.787  10.427 -3.0772  2.4025  0.4193
  471MOL0     H63536   5.277   7.110  10.549  1.7249  0.9599 -2.0658
  471MOL0     H63537   5.034   7.312  10.599 -2.2515 -0.1015 -1.3576
  471MOL0     H63538   5.177   7.376  10.511 -1.0873  3.7208 -2.7401
  471MOL0     H63539   5.022   7.419  10.324 -0.1727 -2.8742 -0.2337
  471MOL0     H63540   5.014   7.510  10.476  3.1992 -0.7993  0.6494
  471MOL0     H63541   4.834   7.348  10.549 -1.4586  1.4326 -0.1004
  471MOL0     H63542   4.827   7.286  10.388  1.2252  0.1265 -1.0543
  471MOL0     H63543   4.766   7.504  10.291  0.9397  1.7970 -0.3805
  471MOL0     H63544   4.767   7.574  10.457  4.6661  0.1332 -2.5771
  471MOL0     H63545   4.398   7.345  10.438  0.6282 -0.6207 -1.3225
  471MOL0     H63546   4.166   7.345  10.448  0.4263 -0.4008  1.7063
  471MOL0     H63547   4.095   7.482  10.527  0.7265  2.4596 -0.5443
  471MOL0     H63548   4.094   7.455  10.343  1.0061 -2.6521 -1.3870
  471MOL0     H63549   3.885   7.770  10.609  1.4017 -0.2357 -0.5573
  471MOL0     H63550   3.656   7.865  10.585 -1.3858  0.4753 -1.1102
  471MOL0     H63551   3.525   7.995  10.536 -1.4296 -0.3401  2.2964
  471MOL0     H63552   3.381   8.007  10.444 -1.8374 -2.5888  1.1244
  471MOL0     H63553   3.337   7.770  10.445  0.2714  0.1609 -0.1007
  471MOL0     H63554   3.469   7.740  10.564 -1.0719 -0.2515  0.8804
  471MOL0     H63555   3.241   7.927  10.608  0.4716 -0.0570 -1.3037
  471MOL0     H63556   3.351   7.901  10.728 -2.8590  1.8327  0.9417
  471MOL0     H63557   3.164   7.687  10.611 -1.1906 -1.4710  1.0479
  471MOL0     H63558   3.292   7.656  10.729 -0.1803  0.8580  1.0062
  471MOL0     H63559   3.032   7.719  10.797  0.7114 -1.5952  0.0896
  471MOL0     H63560   3.094   7.878  10.792  1.7677  0.1097 -0.8290
  471MOL0     H63561   3.212   7.650  10.956 -0.8659 -0.3771 -0.2126
  471MOL0     H63562   3.276   7.812  10.982 -0.0728 -0.5636  1.5386
  471MOL0     H63563   3.029   7.877  11.017  5.0766  2.0353 -2.1555
  471MOL0     H63564   3.116   7.817  11.157  0.5550  1.1531 -0.0101
  471MOL0     H63565   3.028   7.572  11.086 -1.5668 -1.0495 -1.8783
  471MOL0     H63566   2.927   7.657  10.976  3.1245  0.7261 -2.6901
  471MOL0     H63567   3.690   7.812  10.158 -3.9177  0.3101  2.2120
  471MOL0     H63568   3.922   7.730  10.185  0.6132 -3.0493  0.9961
  471MOL0     H63569   4.411   7.835  10.363  0.4522 -0.9886 -1.3315
  471MOL0     H63570   4.606   7.709  10.368 -0.1400 -0.2052 -0.5734
  471MOL0     H63571   5.986   7.454   9.940  1.3655  0.2830  0.5923
  471MOL0     H63572   6.237   7.489   9.908  1.5026  0.7923 -1.8929
  471MOL0     H63573   6.689   7.092   9.628  1.0388 -0.1069 -0.6551
  471MOL0     H63574   6.929   7.156   9.613  1.0666  1.7598 -0.6029
  471MOL0     H63575   7.108   7.186   9.758  0.6621  0.8552  1.5560
  471MOL0     H63576   7.154   7.259   9.607  2.8879 -0.4956  0.0072
  471MOL0     H63577   7.241   7.348   9.903  1.9761 -1.9534  1.0436
  471MOL0     H63578   7.270   7.435   9.752 -2.3992  0.8772  0.8754
  471MOL0     H63579   7.391   7.265   9.653 -0.9675 -1.3830 -1.1975
  471MOL0     H63580   7.367   7.158   9.797 -3.2171  0.1730  0.0604
  471MOL0     H63581   7.476   7.339   9.938 -0.7430 -1.0734 -0.4762
  471MOL0     H63582   7.539   7.411   9.793  0.7042 -0.8489 -1.3715
  471MOL0     H63583   7.766   7.063   9.934  0.6157  0.7100  2.8828
  471MOL0     H63584   6.850   7.507   9.835 -0.1547 -0.3781  0.5766
  471MOL0     H63585   6.602   7.454   9.838  2.5637  2.6380 -1.6928
  472MOL0     O63586   2.311   0.469   2.806 -0.4283  0.2966  0.4337
  472MOL0     C63587   2.377   0.496   2.701  0.3696  0.3468  0.0287
  472MOL0     O63588   2.382   0.424   2.583  0.1261 -0.3101 -0.8051
  472MOL0     C63589   2.288   0.324   2.570  0.2619  0.7205  0.1764
  472MOL0     C63590   2.166   0.358   2.509  0.5484  0.4696 -0.5054
  472MOL0     C63591   2.072   0.251   2.480 -0.4614  0.6654 -0.4552
  472MOL0     C63592   2.097   0.118   2.521 -0.6522 -0.8539  0.2889
  472MOL0     O63593   2.007   0.020   2.508  0.2095 -0.1078  0.6837
  472MOL0     C63594   1.871   0.052   2.479  0.1469 -0.1931  0.2199
  472MOL0     C63595   1.769  -0.058   2.487 -0.0397  0.7296  1.0534
  472MOL0     C63596   1.626  -0.013   2.436  0.2079 -0.1757 -0.6431
  472MOL0     C63597   1.547  -0.138   2.412 -1.0724 -0.6713  0.3508
  472MOL0     C63598   1.403  -0.102   2.356 -0.0332  0.9091  0.0156
  472MOL0     C63599   1.307  -0.031   2.453  0.5883 -0.6489 -0.6462
  472MOL0     C63600   1.168  -0.027   2.384  0.1382  0.6558 -0.0319
  472MOL0     C63601   1.157   0.078   2.272  0.0929 -0.3533  0.3763
  472MOL0     N63602   1.031   0.055   2.200  0.2054  0.0321 -0.1523
  472MOL0     C63603   1.010  -0.045   2.107  0.4567  0.2224 -0.7986
  472MOL0     C63604   0.879  -0.049   2.094  0.5436 -0.8871  0.3493
  472MOL0     C63605   0.801  -0.154   2.023  0.0868 -0.3679 -0.1676
  472MOL0     C63606   0.747  -0.267   2.106 -0.4328 -0.0751 -0.3287
  472MOL0     C63607   0.643  -0.235   2.208  0.0502  0.0342 -0.2557
  472MOL0     C63608   0.534  -0.143   2.166  0.2336  0.0150 -0.7226
  472MOL0     O63609   0.427  -0.132   2.269  0.1984 -0.4306  0.7428
  472MOL0     C63610   0.443  -0.059   2.382  0.0436  0.3608 -0.6338
  472MOL0     C63611   0.555   0.008   2.426  0.2404  0.0302 -0.8989
  472MOL0     C63612   0.545   0.097   2.538  0.0554 -0.4597 -0.4914
  472MOL0     C63613   0.674   0.176   2.568 -0.0656  1.4969 -0.0735
  472MOL0     C63614   0.429   0.102   2.621 -0.5689  0.6143  0.6360
  472MOL0     C63615   0.420   0.178   2.747 -0.0770  0.5372  1.0081
  472MOL0     O63616   0.527   0.175   2.828 -0.3386 -0.3434 -0.1959
  472MOL0     C63617   0.521   0.242   2.945  0.5563 -0.2854 -1.1181
  472MOL0     C63618   0.421   0.229   3.045  0.1167 -0.4053 -0.6402
  472MOL0     C63619   0.430   0.302   3.169  0.2742 -1.1537  0.2696
  472MOL0     C63620   0.538   0.395   3.182 -0.1137  0.0646 -0.3701
  472MOL0     O63621   0.541   0.476   3.290 -0.6079  0.2200 -0.1074
  472MOL0     C63622   0.531   0.620   3.277  0.5033 -0.2722 -0.3658
  472MOL0     C63623   0.421   0.655   3.385  0.4823  0.5285 -0.4094
  472MOL0     C63624   0.360   0.789   3.352  0.2119 -0.2325 -0.1463
  472MOL0     C63625   0.229   0.790   3.429  0.1361 -0.0373 -0.2546
  472MOL0     C63626   0.164   0.925   3.402  0.1851  0.8755  0.0491
  472MOL0     C63627   0.017   0.910   3.414  0.3258  0.3022  0.2315
  472MOL0     C63628  -0.066   1.048   3.396  0.2583 -0.1799  0.5489
  472MOL0     C63629  -0.222   1.032   3.389  0.0753  0.8723  0.7327
  472MOL0    Cl63630  -0.280   0.901   3.285  0.3200 -0.5115 -0.0558
  472MOL0     C63631   0.632   0.405   3.077 -0.3557  0.4530 -0.4587
  472MOL0     C63632   0.623   0.327   2.960 -0.2813  0.1302  0.6161
  472MOL0     O63633   0.307   0.209   2.776 -0.0146  0.4534 -0.2903
  472MOL0     C63634   0.319   0.027   2.575 -0.7988  0.4142 -0.3243
  472MOL0     C63635   0.324  -0.036   2.451 -0.7013 -0.2298 -0.2959
  472MOL0     N63636   0.823   0.050   2.175 -0.1376 -0.1775 -0.2557
  472MOL0     N63637   0.913   0.110   2.240  0.2725 -0.9078  0.5137
  472MOL0     C63638   2.229   0.089   2.565 -0.3419 -0.0288 -1.0075
  472MOL0     C63639   2.319   0.187   2.592 -0.4259  1.1449  0.0386
  472MOL0     C63640   2.465   0.609   2.694 -0.6062 -0.3509 -0.5034
  472MOL0     C63641   2.454   0.691   2.582 -0.4308  0.6390  0.8924
  472MOL0     C63642   2.529   0.808   2.569  0.3363 -0.5790  0.7079
  472MOL0     C63643   2.612   0.851   2.670 -0.3713  0.7055 -0.0891
  472MOL0     O63644   2.688   0.961   2.676  0.3690 -0.2308 -0.3596
  472MOL0     C63645   2.705   1.038   2.557  0.2266  0.5318  0.7878
  472MOL0     C63646   2.799   1.157   2.588 -0.1288 -0.3949 -0.4825
  472MOL0     C63647   2.936   1.114   2.649 -0.3945  0.5473 -0.3455
  472MOL0     C63648   3.019   1.248   2.689 -0.7138  0.0840 -0.5203
  472MOL0     C63649   3.066   1.327   2.577 -0.4567 -0.1255  0.0136
  472MOL0     C63650   3.100   1.395   2.479 -0.2140 -0.0018 -0.1448
  472MOL0     C63651   2.634   0.762   2.783  1.1444  0.1113  0.4488
  472MOL0     C63652   2.554   0.643   2.794  1.0129  0.0491  0.9340
  472MOL0     H63653   2.147   0.462   2.485  1.7193  1.4028  2.2145
  472MOL0     H63654   1.982   0.290   2.431  0.3699  0.4550 -2.2347
  472MOL0     H63655   1.834   0.131   2.544 -0.7433  0.3786 -0.9409
  472MOL0     H63656   1.868   0.089   2.376 -1.4637 -0.4680  0.1454
  472MOL0     H63657   1.794  -0.154   2.439 -1.1564  1.7014 -1.6611
  472MOL0     H63658   1.764  -0.087   2.593 -1.0805  1.8827  1.3389
  472MOL0     H63659   1.576   0.064   2.496  1.0205  0.2835 -0.5334
  472MOL0     H63660   1.647   0.034   2.340 -0.0855  0.3797 -0.4381
  472MOL0     H63661   1.607  -0.202   2.346  0.9600  0.7936  0.6835
  472MOL0     H63662   1.530  -0.200   2.500  1.5282 -2.1968 -0.1371
  472MOL0     H63663   1.417  -0.053   2.259 -3.3008 -0.9967 -1.5679
  472MOL0     H63664   1.354  -0.198   2.340 -4.2106  2.3752  2.3627
  472MOL0     H63665   1.303  -0.077   2.552 -4.3748 -0.9718 -0.7406
  472MOL0     H63666   1.345   0.070   2.467 -0.4954 -0.2259 -0.6415
  472MOL0     H63667   1.156  -0.128   2.342  2.6594 -0.5315  1.8564
  472MOL0     H63668   1.084  -0.008   2.451  0.8751  1.3796  0.6932
  472MOL0     H63669   1.237   0.074   2.198  1.5871 -2.5676  1.9849
  472MOL0     H63670   1.162   0.176   2.319  1.8339 -1.4526  2.6717
  472MOL0     H63671   1.089  -0.105   2.063  1.2126  1.3536 -1.0219
  472MOL0     H63672   0.717  -0.117   1.964  0.7238  0.3843 -0.6250
  472MOL0     H63673   0.858  -0.198   1.941 -0.1887 -0.9881 -0.0286
  472MOL0     H63674   0.834  -0.312   2.153  0.1560  0.9015 -0.4658
  472MOL0     H63675   0.699  -0.334   2.034 -1.5541 -0.0004  0.3227
  472MOL0     H63676   0.686  -0.185   2.295 -0.7514  1.2979 -0.5553
  472MOL0     H63677   0.600  -0.330   2.243  1.0613  0.7319  3.2509
  472MOL0     H63678   0.490  -0.182   2.074 -0.3976  1.5039 -1.0704
  472MOL0     H63679   0.562  -0.039   2.147 -1.3903  0.5009 -0.5884
  472MOL0     H63680   0.652   0.002   2.379  0.2407 -0.1385 -0.8743
  472MOL0     H63681   0.662   0.282   2.588 -2.1083  1.6079 -1.4992
  472MOL0     H63682   0.723   0.124   2.651  1.9254 -1.3621 -2.7602
  472MOL0     H63683   0.750   0.171   2.489  3.2247 -0.9730  2.9175
  472MOL0     H63684   0.342   0.162   3.014  1.2017 -0.5272 -3.3825
  472MOL0     H63685   0.360   0.298   3.252  1.3435 -2.0695  1.1575
  472MOL0     H63686   0.624   0.675   3.296 -0.5106  0.9389  1.4070
  472MOL0     H63687   0.498   0.639   3.174 -2.1607  0.0370  0.4472
  472MOL0     H63688   0.339   0.584   3.370 -0.2373  1.4783 -1.0374
  472MOL0     H63689   0.455   0.652   3.489 -2.1906 -1.5208  0.5503
  472MOL0     H63690   0.340   0.800   3.245  0.0890  2.7297  0.1043
  472MOL0     H63691   0.431   0.870   3.374 -0.9040  0.3631  1.4458
  472MOL0     H63692   0.167   0.722   3.370 -0.7061  0.4792  0.0025
  472MOL0     H63693   0.236   0.760   3.533  0.5993 -1.2924 -0.6362
  472MOL0     H63694   0.184   0.959   3.299  1.7931  0.5171  0.2077
  472MOL0     H63695   0.209   1.002   3.466  0.2150  1.9660 -1.2259
  472MOL0     H63696  -0.009   0.847   3.328 -0.0871 -1.0743  1.3244
  472MOL0     H63697  -0.016   0.857   3.504 -0.2417  3.3089  1.9025
  472MOL0     H63698  -0.032   1.093   3.302  1.9541 -0.3907  1.0188
  472MOL0     H63699  -0.037   1.114   3.478 -0.3142  0.1286  0.5055
  472MOL0     H63700  -0.270   1.117   3.340 -0.9687 -1.4812 -2.6307
  472MOL0     H63701  -0.267   1.016   3.488 -1.4701 -2.1186 -0.3178
  472MOL0     H63702   0.711   0.479   3.083 -3.4263  3.9147  2.6178
  472MOL0     H63703   0.686   0.339   2.872 -3.4128 -1.3748 -1.9999
  472MOL0     H63704   0.240   0.009   2.647 -0.3490  0.4274  0.1711
  472MOL0     H63705   0.236  -0.090   2.416 -2.6725  1.6928  1.3850
  472MOL0     H63706   2.263  -0.014   2.568  0.2900  0.1884 -0.4924
  472MOL0     H63707   2.417   0.160   2.629  0.6632  1.8417 -2.1638
  472MOL0     H63708   2.391   0.669   2.497 -1.3295  3.2315  0.8160
  472MOL0     H63709   2.513   0.865   2.478 -0.1834  0.1892  1.2685
  472MOL0     H63710   2.751   0.985   2.473  1.0612  0.9910  0.9461
  472MOL0     H63711   2.613   1.081   2.515  1.8003  0.9088 -2.6142
  472MOL0     H63712   2.749   1.220   2.661 -1.7534 -0.6258 -1.3438
  472MOL0     H63713   2.818   1.225   2.504  0.0088  0.1251 -0.0325
  472MOL0     H63714   3.007   1.055   2.590 -1.8713  0.1962 -1.8605
  472MOL0     H63715   2.916   1.056   2.740  0.5471  0.3023 -0.2819
  472MOL0     H63716   3.101   1.217   2.755  1.1090  0.5066 -2.4706
  472MOL0     H63717   2.949   1.310   2.745 -0.0385 -0.0821  0.5292
  472MOL0     H63718   3.132   1.456   2.398  1.0267  1.0678  1.0875
  472MOL0     H63719   2.700   0.795   2.862  0.9625  0.4399  0.4648
  472MOL0     H63720   2.557   0.577   2.880  2.2257 -2.3328 -0.8311
  473MOL0     O63721   7.175   4.291   7.448  0.5683 -0.2337 -0.1302
  473MOL0     C63722   7.171   4.421   7.452 -0.4750  0.5430 -0.6939
  473MOL0     O63723   7.281   4.501   7.430  0.4716 -0.3802  0.2882
  473MOL0     C63724   7.372   4.466   7.339  0.4602 -0.0029  0.0156
  473MOL0     C63725   7.506   4.467   7.367  0.2561 -0.2871 -0.3608
  473MOL0     C63726   7.598   4.434   7.262  0.5310 -0.0550 -0.0842
  473MOL0     C63727   7.556   4.386   7.139 -0.4523 -0.1938 -0.2411
  473MOL0     O63728   7.647   4.350   7.043  0.4305  0.8042 -0.2340
  473MOL0     C63729   7.701   4.220   7.077 -0.3031  0.2451  0.0799
  473MOL0     C63730   7.776   4.151   6.958  0.1691 -0.0782 -0.7642
  473MOL0     C63731   7.896   4.233   6.906 -0.3226 -0.2487 -0.2782
  473MOL0     C63732   8.003   4.238   7.022  0.3886 -0.3780  0.0572
  473MOL0     C63733   8.135   4.303   6.973 -1.1160 -0.2658 -0.3180
  473MOL0     C63734   8.204   4.221   6.862 -0.5475  0.3855 -0.5514
  473MOL0     C63735   8.325   4.310   6.817 -0.0931  0.5597 -0.0848
  473MOL0     C63736   8.294   4.439   6.734  0.0732 -0.3445  0.2517
  473MOL0     N63737   8.219   4.406   6.621  0.1986  0.5052  0.3867
  473MOL0     C63738   8.156   4.502   6.550 -0.0934 -0.0874  0.2606
  473MOL0     C63739   8.123   4.442   6.434  0.3420  0.4928  0.0070
  473MOL0     C63740   8.036   4.494   6.325  0.2460 -0.5116 -0.5495
  473MOL0     C63741   7.890   4.503   6.361 -0.8307 -0.2704 -1.0952
  473MOL0     C63742   7.809   4.520   6.232  0.1326  0.2540  0.1245
  473MOL0     C63743   7.665   4.548   6.274  0.5822 -0.2660  0.6658
  473MOL0     O63744   7.603   4.425   6.326 -0.3178 -0.7066 -0.5121
  473MOL0     C63745   7.462   4.420   6.335 -0.8202 -0.5610 -0.2731
  473MOL0     C63746   7.375   4.526   6.300 -0.7304  0.0728  1.4447
  473MOL0     C63747   7.236   4.511   6.303 -0.1339 -0.0689  0.1865
  473MOL0     C63748   7.149   4.645   6.288 -0.3327  0.0600 -0.3016
  473MOL0     C63749   7.180   4.386   6.344 -0.0752  0.3309 -0.5156
  473MOL0     C63750   7.036   4.354   6.359  0.0177  0.0260  0.2393
  473MOL0     O63751   7.016   4.228   6.418 -0.0835  0.1501  0.2628
  473MOL0     C63752   6.891   4.182   6.453 -0.5206 -1.0616  1.2293
  473MOL0     C63753   6.852   4.052   6.419  0.4935 -0.1298 -0.6484
  473MOL0     C63754   6.729   4.011   6.462 -0.0033  0.4391  0.7135
  473MOL0     C63755   6.648   4.082   6.553  0.1633 -0.2575 -0.2146
  473MOL0     O63756   6.531   4.027   6.586 -0.7208 -0.0912  0.5751
  473MOL0     C63757   6.420   4.102   6.640  0.0252 -0.1551 -0.4541
  473MOL0     C63758   6.336   3.997   6.700 -0.1326  0.6907  0.5097
  473MOL0     C63759   6.248   4.075   6.803 -0.5149  0.1181  1.5756
  473MOL0     C63760   6.165   3.975   6.878  0.3073  0.0592 -0.1807
  473MOL0     C63761   6.063   4.043   6.976 -0.2075  0.8429  0.3838
  473MOL0     C63762   6.129   4.080   7.111  0.3828 -0.7072 -0.1010
  473MOL0     C63763   6.025   4.138   7.208  0.6054 -0.4388 -0.4560
  473MOL0     C63764   5.891   4.061   7.233  0.5139  0.4646  0.2237
  473MOL0    Cl63765   5.752   4.143   7.149 -0.1851  0.1817  0.4154
  473MOL0     C63766   6.686   4.217   6.583  0.2454  0.5613  0.0251
  473MOL0     C63767   6.809   4.261   6.535 -0.6619  0.2178  0.1066
  473MOL0     O63768   6.954   4.419   6.296 -0.1279  0.8862  0.2851
  473MOL0     C63769   7.276   4.282   6.373 -0.3817 -0.7904 -0.3165
  473MOL0     C63770   7.407   4.299   6.374 -0.3139  0.5235 -0.1323
  473MOL0     N63771   8.188   4.324   6.425  0.6509 -0.1718 -0.0059
  473MOL0     N63772   8.251   4.303   6.534 -0.4137  0.3025  0.1984
  473MOL0     C63773   7.427   4.373   7.109  0.7587 -0.9797  0.4645
  473MOL0     C63774   7.332   4.412   7.208 -0.0638  0.2576 -0.6740
  473MOL0     C63775   7.042   4.489   7.489  0.2274 -0.0932 -0.2498
  473MOL0     C63776   6.918   4.427   7.482 -0.3337 -0.0674 -0.5473
  473MOL0     C63777   6.802   4.489   7.522  0.3591 -0.1210 -0.3474
  473MOL0     C63778   6.802   4.620   7.556 -1.2197  0.0580 -0.3613
  473MOL0     O63779   6.682   4.692   7.567 -0.6700 -0.3558 -0.2573
  473MOL0     C63780   6.562   4.625   7.606 -0.6300 -0.0076  0.9582
  473MOL0     C63781   6.573   4.587   7.756  0.3740  0.4099  0.0572
  473MOL0     C63782   6.444   4.531   7.807 -0.1003 -0.2030 -0.5777
  473MOL0     C63783   6.336   4.638   7.826  0.3021  0.0164  0.4005
  473MOL0     C63784   6.226   4.596   7.908  0.2918  0.4318  0.8614
  473MOL0     C63785   6.144   4.564   7.995  0.7034  0.5087 -0.9216
  473MOL0     C63786   6.930   4.692   7.566 -0.7277  0.0990 -0.4119
  473MOL0     C63787   7.050   4.617   7.544  0.3485  0.1923 -0.4983
  473MOL0     H63788   7.548   4.501   7.461 -0.0122  1.2989 -0.7807
  473MOL0     H63789   7.703   4.451   7.287  0.6734 -1.2467  0.2313
  473MOL0     H63790   7.766   4.237   7.163 -0.7198  2.2125  0.0565
  473MOL0     H63791   7.617   4.154   7.104  0.3709 -1.5071 -1.8332
  473MOL0     H63792   7.820   4.057   6.993  0.2887  0.2717  0.0373
  473MOL0     H63793   7.710   4.121   6.875  0.6838 -2.0709 -0.5066
  473MOL0     H63794   7.937   4.174   6.823  0.6744 -0.1615  0.1381
  473MOL0     H63795   7.862   4.333   6.878  2.2331  1.9335  3.5632
  473MOL0     H63796   7.967   4.291   7.110  1.6711  0.5048  0.0747
  473MOL0     H63797   8.033   4.142   7.065 -0.1339  0.5614  2.7034
  473MOL0     H63798   8.111   4.401   6.930 -3.6263 -0.9098 -0.5554
  473MOL0     H63799   8.206   4.315   7.055 -0.5553 -0.2293 -0.8074
  473MOL0     H63800   8.251   4.129   6.898 -1.0661  0.4897  0.4218
  473MOL0     H63801   8.134   4.202   6.780  0.3412  1.3892 -1.5762
  473MOL0     H63802   8.377   4.344   6.907 -2.7203  1.9866  1.0058
  473MOL0     H63803   8.377   4.239   6.752 -1.5561  0.9714 -1.7758
  473MOL0     H63804   8.391   4.481   6.704 -0.6641  2.4104  1.4285
  473MOL0     H63805   8.241   4.506   6.802  2.7934  0.0395  2.1383
  473MOL0     H63806   8.114   4.599   6.576 -1.8923 -1.1893  1.7286
  473MOL0     H63807   8.073   4.587   6.280  1.2364 -1.0112 -0.8042
  473MOL0     H63808   8.044   4.416   6.249  1.0701 -1.1381  0.1627
  473MOL0     H63809   7.868   4.594   6.417 -0.6398 -0.0293 -1.4134
  473MOL0     H63810   7.852   4.415   6.414  0.3300 -0.5564 -0.7249
  473MOL0     H63811   7.811   4.428   6.173 -2.0147 -0.0870  0.5000
  473MOL0     H63812   7.843   4.605   6.173  0.0353 -1.0839 -1.9535
  473MOL0     H63813   7.608   4.587   6.190  2.4710 -0.0840 -0.5903
  473MOL0     H63814   7.654   4.630   6.345 -1.0162  3.1461 -3.1563
  473MOL0     H63815   7.409   4.625   6.271 -0.9415 -0.5495 -1.2973
  473MOL0     H63816   7.211   4.724   6.245  0.5188  1.0274  2.4690
  473MOL0     H63817   7.058   4.629   6.229  0.7377 -2.4965 -1.3794
  473MOL0     H63818   7.131   4.670   6.393  0.9604 -1.8917  0.4345
  473MOL0     H63819   6.919   3.998   6.353  4.3258  1.7433  1.3704
  473MOL0     H63820   6.700   3.911   6.433  0.8086  1.0924 -2.8061
  473MOL0     H63821   6.459   4.158   6.725 -1.2418 -1.0121  0.7306
  473MOL0     H63822   6.362   4.162   6.570 -0.0705  0.3152  0.0272
  473MOL0     H63823   6.280   3.952   6.617 -2.5684 -3.1074  3.8097
  473MOL0     H63824   6.400   3.921   6.746  1.3402  0.9769 -0.9749
  473MOL0     H63825   6.188   4.143   6.741  0.8529  0.4784  0.6198
  473MOL0     H63826   6.293   4.150   6.868 -1.8708  0.9085  1.6536
  473MOL0     H63827   6.111   3.918   6.802 -1.6455 -0.3212  1.4085
  473MOL0     H63828   6.229   3.899   6.923  1.6282  0.2525 -1.6591
  473MOL0     H63829   5.981   3.976   7.001 -0.8866  2.3826  2.6815
  473MOL0     H63830   6.017   4.134   6.934 -2.6922  0.4306  1.9979
  473MOL0     H63831   6.155   3.985   7.157 -2.2377 -0.3750  2.3212
  473MOL0     H63832   6.217   4.142   7.090 -1.3033  1.7234 -0.3906
  473MOL0     H63833   6.003   4.238   7.168  1.9999  0.3381  0.6066
  473MOL0     H63834   6.076   4.145   7.304  0.0252  3.7615 -0.2667
  473MOL0     H63835   5.870   4.031   7.336  1.8494 -1.5245 -0.0198
  473MOL0     H63836   5.903   3.958   7.196  0.0271  0.6533 -0.4873
  473MOL0     H63837   6.633   4.290   6.644  0.4557  1.5884 -0.9937
  473MOL0     H63838   6.851   4.358   6.558 -1.2888  0.2054  1.4417
  473MOL0     H63839   7.246   4.180   6.396  0.3416 -1.6860 -3.0387
  473MOL0     H63840   7.480   4.229   6.414  0.1141  1.9549  1.7551
  473MOL0     H63841   7.396   4.330   7.014 -2.0313  0.7178  0.4733
  473MOL0     H63842   7.227   4.422   7.182  0.5084  2.5430 -2.4590
  473MOL0     H63843   6.919   4.321   7.460 -1.3389 -0.1201 -0.3872
  473MOL0     H63844   6.704   4.442   7.518 -0.4730  1.4517  0.6992
  473MOL0     H63845   6.481   4.696   7.589 -2.9681 -2.3079  1.9085
  473MOL0     H63846   6.538   4.535   7.548 -0.0267 -0.2782  1.1208
  473MOL0     H63847   6.613   4.667   7.820  1.3895 -1.6630  2.1332
  473MOL0     H63848   6.651   4.512   7.769 -1.4877 -1.7413 -0.5493
  473MOL0     H63849   6.465   4.484   7.903  2.6384 -3.2206 -2.4330
  473MOL0     H63850   6.409   4.449   7.744 -1.8975  0.2784 -0.2811
  473MOL0     H63851   6.296   4.661   7.727 -0.0684 -0.0013  0.5469
  473MOL0     H63852   6.386   4.723   7.873  0.4745 -1.6349  3.4351
  473MOL0     H63853   6.086   4.530   8.079  0.4095  1.0500 -0.8992
  473MOL0     H63854   6.920   4.798   7.587 -3.0754 -0.3980  1.4898
  473MOL0     H63855   7.143   4.671   7.561  0.6365 -0.7895  1.3146
  474MOL0     O63856  11.116   8.823   0.209 -0.4188  0.3651 -0.2332
  474MOL0     C63857  11.156   8.895   0.294 -0.2843 -0.7276 -0.3709
  474MOL0     O63858  11.075   8.953   0.384  0.0765  0.0010 -0.3224
  474MOL0     C63859  10.932   8.946   0.370 -0.5682 -0.0579 -0.1868
  474MOL0     C63860  10.860   9.070   0.378 -0.3315  0.0224  0.2868
  474MOL0     C63861  10.721   9.061   0.362 -0.4270 -0.8892  0.8272
  474MOL0     C63862  10.655   8.939   0.351 -0.2404  0.3485 -0.2998
  474MOL0     O63863  10.515   8.945   0.331  0.3430  0.0050 -0.0559
  474MOL0     C63864  10.443   8.827   0.273  0.4722  0.0246  0.7790
  474MOL0     C63865  10.484   8.822   0.120  0.2650  0.3149  0.3570
  474MOL0     C63866  10.369   8.764   0.030  0.7103  0.9553 -0.2177
  474MOL0     C63867  10.346   8.870  -0.082 -0.9034  0.6561  0.4245
  474MOL0     C63868  10.232   8.860  -0.176 -0.1252  0.0794 -0.8326
  474MOL0     C63869  10.106   8.807  -0.122  0.1321  0.0210 -0.1210
  474MOL0     C63870   9.994   8.828  -0.216 -1.2700 -0.1191  0.3728
  474MOL0     C63871   9.879   8.741  -0.197  0.6786  0.0052  1.3721
  474MOL0     N63872   9.757   8.776  -0.279  0.2317 -1.2562  0.4349
  474MOL0     C63873   9.637   8.702  -0.279 -0.5816 -0.2946  0.1146
  474MOL0     C63874   9.555   8.765  -0.374  0.1799  0.5739  0.4463
  474MOL0     C63875   9.416   8.724  -0.409 -0.3917  0.6761 -0.4174
  474MOL0     C63876   9.416   8.597  -0.497  0.7227 -0.1356 -0.6115
  474MOL0     C63877   9.488   8.616  -0.634 -0.0766  0.6271 -0.5976
  474MOL0     C63878   9.420   8.534  -0.744 -0.2495  0.1289  0.5334
  474MOL0     O63879   9.308   8.598  -0.802 -0.0644 -0.0543  0.3694
  474MOL0     C63880   9.231   8.520  -0.883  0.3926  0.1152 -0.2329
  474MOL0     C63881   9.258   8.388  -0.935 -0.2353 -0.3373 -0.3152
  474MOL0     C63882   9.171   8.315  -1.005  0.9232  0.1752  0.1666
  474MOL0     C63883   9.211   8.169  -1.051 -0.0172  0.0005  0.0764
  474MOL0     C63884   9.048   8.373  -1.043 -0.0920  0.4342  1.0383
  474MOL0     C63885   8.940   8.310  -1.120 -0.1850 -0.0635 -0.9049
  474MOL0     O63886   8.922   8.173  -1.112  0.3831  0.0246  0.1777
  474MOL0     C63887   8.821   8.118  -1.188  0.3574  0.4522 -0.7489
  474MOL0     C63888   8.691   8.157  -1.165 -0.7887 -0.5528  0.2239
  474MOL0     C63889   8.590   8.104  -1.238  0.3375  0.1122  0.0424
  474MOL0     C63890   8.613   8.010  -1.337 -0.6718 -0.0653  0.5103
  474MOL0     O63891   8.511   7.942  -1.409 -0.7767 -0.5331  0.2813
  474MOL0     C63892   8.370   7.952  -1.369 -0.2922 -0.4052 -0.4319
  474MOL0     C63893   8.301   8.080  -1.419  0.4581 -0.2490  0.8865
  474MOL0     C63894   8.239   8.065  -1.555 -0.7844 -0.9881 -0.5461
  474MOL0     C63895   8.120   8.152  -1.591 -0.5780 -0.2431 -0.0803
  474MOL0     C63896   8.045   8.078  -1.704  0.7288  0.4482 -0.2781
  474MOL0     C63897   7.929   8.165  -1.750  0.1284 -0.0217 -0.3024
  474MOL0     C63898   7.854   8.103  -1.870 -0.1432 -0.4710 -0.1618
  474MOL0     C63899   7.766   7.981  -1.844  0.2888  0.7386  0.4590
  474MOL0    Cl63900   7.636   7.954  -1.964 -0.2320 -0.4137  0.4061
  474MOL0     C63901   8.747   7.979  -1.366 -0.3646 -0.2582  0.7187
  474MOL0     C63902   8.848   8.033  -1.290 -0.1499 -0.5800  0.2351
  474MOL0     O63903   8.884   8.384  -1.198  0.9607  0.4582 -0.1864
  474MOL0     C63904   9.012   8.510  -1.000 -0.0183  0.5443  0.0330
  474MOL0     C63905   9.116   8.578  -0.928 -0.3989  0.9537 -0.0980
  474MOL0     N63906   9.627   8.865  -0.439 -0.5114 -0.3202  0.5608
  474MOL0     N63907   9.748   8.857  -0.386 -0.3318  0.0571 -0.1250
  474MOL0     C63908  10.729   8.822   0.347 -0.3961 -1.1396 -0.1311
  474MOL0     C63909  10.869   8.821   0.354 -0.0403 -0.2512  0.3058
  474MOL0     C63910  11.294   8.931   0.316 -1.4524 -0.5924  0.5714
  474MOL0     C63911  11.350   9.060   0.329 -0.4198 -0.3015 -0.8507
  474MOL0     C63912  11.490   9.078   0.346  0.3764 -0.4347  0.1766
  474MOL0     C63913  11.573   8.968   0.340  0.6970  0.2910 -0.1600
  474MOL0     O63914  11.703   8.977   0.351  0.6685 -0.6039  0.1369
  474MOL0     C63915  11.762   9.071   0.260  0.3116 -0.5608 -0.0487
  474MOL0     C63916  11.902   9.040   0.273  0.4535  0.3579 -0.0457
  474MOL0     C63917  11.936   8.901   0.235  1.1659  0.4146 -0.3728
  474MOL0     C63918  12.093   8.873   0.232 -0.0753  0.0893  0.5159
  474MOL0     C63919  12.138   8.819   0.357  0.1706 -0.6739 -0.0202
  474MOL0     C63920  12.176   8.781   0.471 -0.1531  0.2307  0.9156
  474MOL0     C63921  11.517   8.837   0.338 -0.0855  0.6157 -0.6291
  474MOL0     C63922  11.380   8.822   0.317 -0.7561 -0.0618 -0.2331
  474MOL0     H63923  10.900   9.169   0.400 -2.7768  1.2247 -0.3834
  474MOL0     H63924  10.661   9.150   0.350  0.2187 -0.4630  0.7484
  474MOL0     H63925  10.471   8.740   0.334 -1.6286 -0.4959  1.0925
  474MOL0     H63926  10.337   8.849   0.287  0.7227  3.0801 -1.2560
  474MOL0     H63927  10.525   8.915   0.079 -0.5013 -0.2784 -1.9579
  474MOL0     H63928  10.570   8.755   0.119  0.4551  0.5465 -0.7807
  474MOL0     H63929  10.394   8.670  -0.021  0.7568  0.4185  0.7550
  474MOL0     H63930  10.280   8.758   0.094  1.9255  0.6372  1.5387
  474MOL0     H63931  10.321   8.967  -0.038 -2.3210  1.9201 -2.8537
  474MOL0     H63932  10.441   8.870  -0.137  0.1199 -2.2308  1.9795
  474MOL0     H63933  10.217   8.959  -0.219  0.2618 -0.2986 -1.8678
  474MOL0     H63934  10.260   8.810  -0.269  1.2233  2.6429 -1.8861
  474MOL0     H63935  10.122   8.699  -0.118  0.3859  0.0030 -1.1489
  474MOL0     H63936  10.091   8.842  -0.020 -0.3700 -0.1391 -0.1361
  474MOL0     H63937   9.961   8.932  -0.207  0.3268  0.3458  1.1450
  474MOL0     H63938  10.028   8.822  -0.320  0.7139  1.2248  0.8969
  474MOL0     H63939   9.848   8.752  -0.093  0.3553  1.6320  1.1333
  474MOL0     H63940   9.909   8.637  -0.211  0.2697 -0.0031  0.4637
  474MOL0     H63941   9.612   8.624  -0.207 -0.3251 -0.9053 -0.4509
  474MOL0     H63942   9.357   8.712  -0.317  0.4372  2.9022  0.4604
  474MOL0     H63943   9.376   8.806  -0.469 -0.3075  0.8384 -0.2509
  474MOL0     H63944   9.314   8.563  -0.513  0.3369  1.1658 -1.0541
  474MOL0     H63945   9.469   8.527  -0.431 -0.3991 -0.0163  0.4352
  474MOL0     H63946   9.594   8.592  -0.616 -0.7390 -0.7430  2.1368
  474MOL0     H63947   9.484   8.718  -0.671  2.0556  2.3696  3.3843
  474MOL0     H63948   9.386   8.443  -0.695  0.9121 -0.1884  0.7718
  474MOL0     H63949   9.492   8.518  -0.825  1.4124  2.7723  1.3649
  474MOL0     H63950   9.351   8.342  -0.902 -0.6795 -1.3565 -0.4713
  474MOL0     H63951   9.154   8.091  -1.000 -2.3051  1.3950 -0.2145
  474MOL0     H63952   9.203   8.159  -1.159  0.8966 -3.4052  0.2176
  474MOL0     H63953   9.317   8.153  -1.028  0.9336  4.2245 -0.5491
  474MOL0     H63954   8.665   8.226  -1.085 -0.6081  0.4444 -0.5602
  474MOL0     H63955   8.486   8.113  -1.209  0.0016 -1.5263 -0.5456
  474MOL0     H63956   8.314   7.863  -1.401 -1.0931  0.2397 -0.8617
  474MOL0     H63957   8.365   7.941  -1.260 -3.1523  2.1009 -0.1558
  474MOL0     H63958   8.228   8.115  -1.346  0.4098  2.5623 -0.3447
  474MOL0     H63959   8.377   8.158  -1.435 -1.1464  1.0124 -1.1112
  474MOL0     H63960   8.208   7.960  -1.563  2.0709 -1.8431 -6.7375
  474MOL0     H63961   8.314   8.065  -1.634  0.2562 -2.5633  0.3774
  474MOL0     H63962   8.063   8.154  -1.498  0.0538  1.1374  0.2965
  474MOL0     H63963   8.167   8.248  -1.614  2.8541 -1.6495  0.4515
  474MOL0     H63964   8.018   7.974  -1.685 -0.7302  0.5808 -1.3827
  474MOL0     H63965   8.119   8.064  -1.784 -0.1078 -1.3617 -0.7998
  474MOL0     H63966   7.857   8.174  -1.668 -3.1428  1.9643 -3.1089
  474MOL0     H63967   7.961   8.267  -1.774 -3.6092  1.7569  1.4293
  474MOL0     H63968   7.928   8.089  -1.949 -1.2010  1.1023 -1.4992
  474MOL0     H63969   7.796   8.186  -1.911  1.5772  1.2526  0.7603
  474MOL0     H63970   7.717   7.978  -1.747 -1.5408 -4.3969 -0.3053
  474MOL0     H63971   7.828   7.891  -1.834 -3.6417 -1.9209  4.0146
  474MOL0     H63972   8.780   7.913  -1.446  1.2595 -0.0760  1.1990
  474MOL0     H63973   8.945   8.003  -1.328 -0.8201 -0.8048 -1.3691
  474MOL0     H63974   8.921   8.556  -1.037  0.6601  1.1213 -0.9587
  474MOL0     H63975   9.101   8.677  -0.887 -0.2636  1.4063 -1.1173
  474MOL0     H63976  10.682   8.727   0.327  0.6355 -1.6166 -0.3712
  474MOL0     H63977  10.921   8.728   0.335  1.5640  0.2014  2.1637
  474MOL0     H63978  11.282   9.139   0.357 -1.3338 -2.0576  2.2889
  474MOL0     H63979  11.532   9.177   0.361 -0.6475 -0.3203  2.8253
  474MOL0     H63980  11.724   9.050   0.159 -1.2079  1.7691 -0.0265
  474MOL0     H63981  11.742   9.176   0.285 -2.7425 -0.5897 -1.8216
  474MOL0     H63982  11.921   9.055   0.379 -0.7240 -0.8995  0.3721
  474MOL0     H63983  11.963   9.118   0.226  1.5756 -1.4105 -1.6689
  474MOL0     H63984  11.886   8.869   0.144 -1.3763 -1.9295  1.6452
  474MOL0     H63985  11.888   8.830   0.304  2.1539 -2.0373 -2.0757
  474MOL0     H63986  12.140   8.967   0.201 -1.7067  0.8983  0.3574
  474MOL0     H63987  12.106   8.798   0.153  1.1365  0.0362  0.7389
  474MOL0     H63988  12.223   8.742   0.559 -2.8751  1.5039  3.0801
  474MOL0     H63989  11.577   8.747   0.336  2.0812  1.9709 -0.5546
  474MOL0     H63990  11.344   8.721   0.305 -1.3771  0.2902 -1.5078
  475MOL0     O63991   1.923   2.890   0.184 -0.8469  1.1920 -0.0964
  475MOL0     C63992   1.940   2.794   0.103  0.7932  0.9309 -0.5138
  475MOL0     O63993   2.051   2.770   0.034  0.7481  0.4826 -0.1288
  475MOL0     C63994   2.141   2.878   0.024  0.3504  0.1551  0.3150
  475MOL0     C63995   2.281   2.851   0.050 -1.2500 -0.0224 -0.0042
  475MOL0     C63996   2.375   2.951   0.037 -0.5711  1.3196  0.6486
  475MOL0     C63997   2.338   3.082  -0.005  0.4912 -0.5743  0.2557
  475MOL0     O63998   2.442   3.174  -0.017  0.0497 -0.0667 -0.5799
  475MOL0     C63999   2.400   3.315   0.018 -0.4767 -0.1866  0.4407
  475MOL0     C64000   2.371   3.326   0.166 -0.6741  0.0946 -0.5473
  475MOL0     C64001   2.491   3.266   0.256 -0.9237 -0.5792  0.3521
  475MOL0     C64002   2.621   3.347   0.256  0.3269 -1.1134  0.3683
  475MOL0     C64003   2.739   3.255   0.309  0.2742 -0.0354  0.1077
  475MOL0     C64004   2.876   3.327   0.317  0.0550  0.4690 -0.1929
  475MOL0     C64005   2.986   3.222   0.358  0.4796  0.0416 -1.1088
  475MOL0     C64006   2.971   3.180   0.503  0.0442  0.7400  1.1404
  475MOL0     N64007   3.022   3.294   0.583  0.7459 -0.2164 -0.4376
  475MOL0     C64008   2.948   3.386   0.653 -0.4229 -0.4379  0.1288
  475MOL0     C64009   3.037   3.460   0.721 -0.3985 -1.0381 -0.0107
  475MOL0     C64010   2.991   3.553   0.826 -0.4968  0.3019  0.6054
  475MOL0     C64011   2.838   3.567   0.835 -0.9133  0.1728  0.6767
  475MOL0     C64012   2.799   3.693   0.925  0.2452 -0.0526  0.5162
  475MOL0     C64013   2.656   3.683   0.977 -0.3996  0.9722 -0.4341
  475MOL0     O64014   2.561   3.681   0.879  0.0770  0.5468 -0.3312
  475MOL0     C64015   2.431   3.643   0.930 -0.4235  0.2058  0.0909
  475MOL0     C64016   2.387   3.657   1.064 -0.5739 -0.7148  0.4911
  475MOL0     C64017   2.255   3.618   1.101 -0.6124 -0.1055 -0.6494
  475MOL0     C64018   2.211   3.633   1.243  0.2834  0.3615 -0.4414
  475MOL0     C64019   2.168   3.554   1.004 -0.1295  0.7691  0.4952
  475MOL0     C64020   2.034   3.486   1.022 -0.3446 -0.5655  0.5025
  475MOL0     O64021   1.934   3.485   0.920 -0.8772  0.3079  0.2399
  475MOL0     C64022   1.852   3.379   0.923 -0.2747  0.4466 -0.2268
  475MOL0     C64023   1.907   3.256   0.915 -0.0963  0.3618 -0.6196
  475MOL0     C64024   1.830   3.147   0.920  0.6666 -0.3805  0.7407
  475MOL0     C64025   1.686   3.157   0.929  0.3003  0.3320 -0.0118
  475MOL0     O64026   1.609   3.045   0.932  0.6959 -0.1581 -0.0655
  475MOL0     C64027   1.465   3.035   0.922  0.0522  0.3853  0.3088
  475MOL0     C64028   1.385   3.018   1.049 -0.7380  0.0474  1.1559
  475MOL0     C64029   1.233   3.051   1.030 -0.0383  0.3610 -0.1755
  475MOL0     C64030   1.157   2.944   0.950 -0.4607  0.5096  0.2023
  475MOL0     C64031   1.003   2.973   0.939  0.3787 -0.3483  0.2413
  475MOL0     C64032   0.968   3.107   0.863 -0.3126  0.1161 -0.0996
  475MOL0     C64033   0.829   3.107   0.794  0.7985  0.2908  0.3096
  475MOL0     C64034   0.718   3.094   0.890  0.2801  0.5668  0.1089
  475MOL0    Cl64035   0.564   3.127   0.803 -0.5613 -0.0123  0.0499
  475MOL0     C64036   1.626   3.289   0.920  0.4964  0.5072  0.2208
  475MOL0     C64037   1.713   3.401   0.926  0.9787 -0.4839 -0.3280
  475MOL0     O64038   2.027   3.420   1.127  0.0941  0.4714 -0.6783
  475MOL0     C64039   2.212   3.547   0.875 -0.1680  0.0795  0.2793
  475MOL0     C64040   2.337   3.592   0.840 -0.2429  0.2410 -0.3649
  475MOL0     N64041   3.156   3.413   0.693  0.2045  0.9349 -0.2961
  475MOL0     N64042   3.152   3.312   0.618  0.6107  0.2471  0.5699
  475MOL0     C64043   2.207   3.100  -0.055  0.6670 -0.0191  1.1918
  475MOL0     C64044   2.105   3.002  -0.035  0.5054 -0.3404 -0.3138
  475MOL0     C64045   1.818   2.708   0.080 -0.5397  0.8377  0.7980
  475MOL0     C64046   1.829   2.593  -0.006 -0.1472  0.0774 -0.1759
  475MOL0     C64047   1.710   2.516  -0.035 -0.1165  0.0744  0.3436
  475MOL0     C64048   1.586   2.555   0.025  0.4791  0.2350  0.1291
  475MOL0     O64049   1.467   2.486   0.009  0.9844  0.3124  0.4173
  475MOL0     C64050   1.452   2.378  -0.087 -0.3949 -0.7287 -0.9129
  475MOL0     C64051   1.400   2.421  -0.229 -0.1065  0.3272  0.7967
  475MOL0     C64052   1.279   2.515  -0.229  0.3826 -0.2690  0.2621
  475MOL0     C64053   1.148   2.476  -0.147 -0.1054 -0.3753 -0.6586
  475MOL0     C64054   1.090   2.348  -0.169  0.0136 -0.3055  0.6806
  475MOL0     C64055   1.030   2.244  -0.195 -0.7646  0.3239  0.0924
  475MOL0     C64056   1.572   2.685   0.094 -0.3859 -0.2983  0.3168
  475MOL0     C64057   1.693   2.758   0.122 -0.2236 -0.0341 -0.0931
  475MOL0     H64058   2.304   2.769   0.117 -0.0708  0.8671  0.7163
  475MOL0     H64059   2.477   2.921   0.057 -0.5314 -0.4247 -1.8430
  475MOL0     H64060   2.481   3.385  -0.005 -2.2952  1.4494 -1.4964
  475MOL0     H64061   2.315   3.333  -0.049  0.5918  1.1482 -0.6215
  475MOL0     H64062   2.348   3.428   0.198  1.2272 -0.1980  2.1228
  475MOL0     H64063   2.279   3.270   0.183  0.1090 -1.7343 -1.9545
  475MOL0     H64064   2.454   3.265   0.358 -1.4137  0.3748  0.1905
  475MOL0     H64065   2.508   3.161   0.228 -0.0945 -0.0563 -1.2563
  475MOL0     H64066   2.640   3.377   0.153 -4.1288 -3.2402 -1.3403
  475MOL0     H64067   2.606   3.435   0.319  1.8207 -0.2007 -0.4961
  475MOL0     H64068   2.707   3.203   0.400 -4.5088 -1.5111 -2.0819
  475MOL0     H64069   2.749   3.173   0.237  2.8050  1.5897 -1.5460
  475MOL0     H64070   2.887   3.364   0.215  0.8908  4.1209  1.0726
  475MOL0     H64071   2.871   3.408   0.391  1.4162  1.1928 -0.8544
  475MOL0     H64072   2.986   3.139   0.287  1.5501 -0.8479 -0.0974
  475MOL0     H64073   3.083   3.270   0.342  2.0604 -2.3678  0.6792
  475MOL0     H64074   3.040   3.095   0.515  0.2510  0.2300 -2.4547
  475MOL0     H64075   2.867   3.170   0.532 -1.0303  2.6496 -1.6381
  475MOL0     H64076   2.843   3.364   0.667  0.2984 -3.8358  1.1127
  475MOL0     H64077   3.018   3.524   0.927 -2.1575  0.9729  1.2822
  475MOL0     H64078   3.036   3.649   0.798  0.6826 -1.0226 -2.4408
  475MOL0     H64079   2.784   3.476   0.861  2.2388 -2.7581 -1.9879
  475MOL0     H64080   2.791   3.592   0.739  0.8447 -2.9594 -1.2015
  475MOL0     H64081   2.815   3.785   0.868 -1.2832 -0.1292 -0.0759
  475MOL0     H64082   2.865   3.688   1.012 -0.0798 -1.3912  0.7093
  475MOL0     H64083   2.630   3.771   1.036  0.7742  0.6911  0.5518
  475MOL0     H64084   2.645   3.605   1.053  2.8851  1.2353  0.4531
  475MOL0     H64085   2.454   3.691   1.142  0.0438 -1.9188  0.5159
  475MOL0     H64086   2.206   3.536   1.293  2.8540 -0.7860 -2.1681
  475MOL0     H64087   2.292   3.680   1.300  0.1869 -2.1793  1.9782
  475MOL0     H64088   2.116   3.686   1.260 -0.2742 -1.1003  1.2832
  475MOL0     H64089   2.013   3.237   0.902 -0.2715  0.6326 -2.8352
  475MOL0     H64090   1.860   3.044   0.908 -2.0905 -0.9502 -3.4287
  475MOL0     H64091   1.428   3.120   0.864  1.5739  0.7833 -0.1082
  475MOL0     H64092   1.452   2.952   0.852 -1.4861 -0.2135  1.2452
  475MOL0     H64093   1.394   2.914   1.079 -1.0678  0.4071  2.5841
  475MOL0     H64094   1.418   3.080   1.133  0.3813  1.0303  0.0245
  475MOL0     H64095   1.222   3.149   0.985 -0.3402  0.9174  1.0503
  475MOL0     H64096   1.181   3.058   1.126  1.3768  2.3099  0.5153
  475MOL0     H64097   1.210   2.936   0.855 -2.1126  0.0999 -0.7153
  475MOL0     H64098   1.173   2.847   1.000 -0.1550  1.6738  2.4999
  475MOL0     H64099   0.955   2.990   1.036  1.6603  0.3938  0.7731
  475MOL0     H64100   0.956   2.888   0.889 -1.3431  0.5582  0.2568
  475MOL0     H64101   0.972   3.193   0.930  2.0601  0.1878 -0.2250
  475MOL0     H64102   1.049   3.120   0.791  0.2962 -0.9009  0.3629
  475MOL0     H64103   0.822   3.031   0.715 -0.1337  3.4496 -2.8986
  475MOL0     H64104   0.807   3.203   0.747 -3.3993  0.7886  2.7678
  475MOL0     H64105   0.750   3.166   0.966  1.0277  0.1056  0.2359
  475MOL0     H64106   0.716   2.989   0.919 -2.0057  0.5226 -0.0111
  475MOL0     H64107   1.519   3.301   0.914  0.5355  0.1682 -2.2940
  475MOL0     H64108   1.682   3.503   0.947 -1.0457 -1.6017  2.8434
  475MOL0     H64109   2.143   3.505   0.802 -0.5594  0.9298  0.1497
  475MOL0     H64110   2.383   3.600   0.742  0.3166 -2.7801 -0.4516
  475MOL0     H64111   2.176   3.175  -0.127 -1.5336 -0.8498  1.2052
  475MOL0     H64112   2.003   3.022  -0.066  0.8647  0.7567 -0.8554
  475MOL0     H64113   1.923   2.565  -0.051 -1.0727 -0.9127 -1.5754
  475MOL0     H64114   1.717   2.429  -0.099  0.0369  0.0721  0.3647
  475MOL0     H64115   1.546   2.333  -0.121  1.9577  2.6100  0.5593
  475MOL0     H64116   1.388   2.300  -0.046  0.3986 -0.8652  0.1022
  475MOL0     H64117   1.362   2.331  -0.278  0.0176 -1.3939  3.6665
  475MOL0     H64118   1.474   2.468  -0.295 -1.0066  2.7394  1.4238
  475MOL0     H64119   1.248   2.513  -0.334  1.0894  1.7538 -0.0377
  475MOL0     H64120   1.328   2.611  -0.208 -0.5817  0.0792  1.0306
  475MOL0     H64121   1.075   2.554  -0.169 -1.1038 -0.5173  1.7924
  475MOL0     H64122   1.176   2.472  -0.041 -1.4688 -2.9508 -0.3242
  475MOL0     H64123   0.993   2.145  -0.213  5.8476 -3.1555  2.2580
  475MOL0     H64124   1.473   2.706   0.133 -0.3269 -1.3778  1.1156
  475MOL0     H64125   1.693   2.857   0.168  3.5445 -0.8921  2.1993
  476MOL0     O64126   9.148   4.055   8.868 -0.1000  0.0170 -0.4478
  476MOL0     C64127   9.147   4.142   8.780 -0.1568  0.2426  0.3601
  476MOL0     O64128   9.033   4.195   8.721  0.6306  0.3820  0.6802
  476MOL0     C64129   8.912   4.150   8.769  0.1714 -0.0594  0.1009
  476MOL0     C64130   8.837   4.249   8.837  0.2870  0.1863  0.2101
  476MOL0     C64131   8.714   4.212   8.884 -0.0142  0.8338 -0.7445
  476MOL0     C64132   8.662   4.088   8.881 -0.6319 -0.3791  0.0569
  476MOL0     O64133   8.532   4.066   8.918 -0.6464 -0.5241  0.2574
  476MOL0     C64134   8.440   4.131   8.832 -1.0379  0.0233  0.5912
  476MOL0     C64135   8.298   4.076   8.860 -0.5159  0.0163  0.5120
  476MOL0     C64136   8.191   4.147   8.770  0.5039 -0.3809 -0.0418
  476MOL0     C64137   8.049   4.120   8.823 -0.9356  0.3515 -0.3718
  476MOL0     C64138   8.006   3.975   8.783 -0.4434  0.5275 -0.5632
  476MOL0     C64139   7.865   3.960   8.803  0.4868  0.8012 -0.5509
  476MOL0     C64140   7.824   3.813   8.774  0.4912 -0.4348  0.4365
  476MOL0     C64141   7.667   3.788   8.770 -0.0670 -0.8205  0.4569
  476MOL0     N64142   7.608   3.878   8.671  0.4427 -0.1067 -1.0060
  476MOL0     C64143   7.530   3.981   8.719 -0.6101  0.7578  0.0140
  476MOL0     C64144   7.516   4.059   8.614 -0.3445  0.4095  0.1378
  476MOL0     C64145   7.443   4.183   8.603  0.0374 -0.2588  0.7494
  476MOL0     C64146   7.533   4.311   8.628  0.6114  0.4818  0.2309
  476MOL0     C64147   7.455   4.431   8.635  0.8053 -0.3522  0.4370
  476MOL0     C64148   7.532   4.548   8.674 -0.2843 -0.2344  0.5977
  476MOL0     O64149   7.457   4.641   8.746 -0.2652 -0.3127  0.9247
  476MOL0     C64150   7.361   4.705   8.678  0.4340 -0.5060  0.2346
  476MOL0     C64151   7.374   4.831   8.631  0.6154 -0.5744  0.6215
  476MOL0     C64152   7.281   4.904   8.557 -0.4716 -0.2493  0.5395
  476MOL0     C64153   7.311   5.045   8.498 -0.4955 -0.1178 -0.1004
  476MOL0     C64154   7.164   4.839   8.525 -0.6065 -0.8519  0.1595
  476MOL0     C64155   7.054   4.901   8.453 -0.1052  0.7088 -0.5289
  476MOL0     O64156   6.975   4.968   8.535 -0.5473  0.9733 -0.2526
  476MOL0     C64157   6.846   4.982   8.498  0.4271  0.5963 -0.2313
  476MOL0     C64158   6.811   5.094   8.422  0.1378  0.8237 -0.2949
  476MOL0     C64159   6.678   5.121   8.383 -0.2871  0.2553  0.1519
  476MOL0     C64160   6.584   5.018   8.400 -1.1778  0.0279  0.5587
  476MOL0     O64161   6.456   5.031   8.353  0.4096 -0.1739  0.4615
  476MOL0     C64162   6.432   5.048   8.214  0.6588 -0.1651  0.0579
  476MOL0     C64163   6.295   4.999   8.152  0.2633 -0.1242  0.0022
  476MOL0     C64164   6.174   5.007   8.237 -0.3285 -0.3960  0.2635
  476MOL0     C64165   6.067   4.909   8.184 -0.2785 -0.2135 -1.0549
  476MOL0     C64166   5.930   4.912   8.269 -0.8015 -0.2784  0.6413
  476MOL0     C64167   5.860   4.778   8.260  0.0831  0.3221  0.3450
  476MOL0     C64168   5.739   4.770   8.356 -0.0197  0.3596 -0.0796
  476MOL0     C64169   5.606   4.747   8.290  0.4294 -0.4217 -0.1387
  476MOL0    Cl64170   5.554   4.872   8.170 -0.1818  0.5108 -0.1816
  476MOL0     C64171   6.618   4.907   8.480 -0.2293 -0.6168 -0.7028
  476MOL0     C64172   6.748   4.891   8.536  0.1308  0.0271  0.6438
  476MOL0     O64173   7.032   4.877   8.332 -0.1065  0.3194 -0.9383
  476MOL0     C64174   7.139   4.715   8.591  0.0759  0.0468  0.6768
  476MOL0     C64175   7.232   4.652   8.669  0.1418  0.6620 -1.1021
  476MOL0     N64176   7.574   4.007   8.497  0.3774  0.5160  0.9260
  476MOL0     N64177   7.626   3.898   8.537 -0.6269 -0.3665  0.4411
  476MOL0     C64178   8.736   3.990   8.809 -0.8198  0.3034  1.1289
  476MOL0     C64179   8.857   4.023   8.746 -0.2311  0.4942 -0.2831
  476MOL0     C64180   9.270   4.184   8.721  0.3297 -0.9220 -0.3560
  476MOL0     C64181   9.266   4.268   8.605 -0.4482  0.4517  0.2025
  476MOL0     C64182   9.376   4.322   8.541 -0.8620 -0.3348 -0.3040
  476MOL0     C64183   9.504   4.300   8.592  0.2006  0.6294 -0.0702
  476MOL0     O64184   9.607   4.362   8.520  1.0963  0.6019  0.0028
  476MOL0     C64185   9.739   4.315   8.551  0.0155 -0.0518 -0.9778
  476MOL0     C64186   9.824   4.359   8.433  0.7125 -0.0479  0.2424
  476MOL0     C64187   9.769   4.286   8.307  0.1573 -0.3128 -0.2909
  476MOL0     C64188   9.878   4.296   8.190  0.1782  0.2358  0.4634
  476MOL0     C64189   9.928   4.433   8.172  1.3623  0.2420  0.6333
  476MOL0     C64190   9.980   4.544   8.168 -0.2990  0.0093  0.4899
  476MOL0     C64191   9.512   4.195   8.694 -0.1509  0.0376  0.2523
  476MOL0     C64192   9.399   4.144   8.760 -0.4957 -0.4265 -0.4227
  476MOL0     H64193   8.880   4.348   8.848  1.3290 -0.2493  0.1963
  476MOL0     H64194   8.657   4.285   8.941 -1.7601 -2.2431  1.8025
  476MOL0     H64195   8.441   4.240   8.844 -2.4633  0.2343 -0.7958
  476MOL0     H64196   8.473   4.116   8.729  3.0636 -1.0016  1.8994
  476MOL0     H64197   8.302   3.969   8.838  1.8111  0.1903 -0.2224
  476MOL0     H64198   8.275   4.074   8.967 -1.2165 -1.1288  0.3474
  476MOL0     H64199   8.220   4.253   8.769 -0.0863 -0.1701 -2.7394
  476MOL0     H64200   8.202   4.111   8.667  2.6907  1.8244 -0.6922
  476MOL0     H64201   8.063   4.124   8.931 -1.6370 -1.5326 -0.1850
  476MOL0     H64202   7.978   4.197   8.788 -2.8580 -0.6813  1.0554
  476MOL0     H64203   8.038   3.957   8.680  1.5303 -1.0828  0.2619
  476MOL0     H64204   8.048   3.894   8.843 -2.0726 -0.0415 -0.1322
  476MOL0     H64205   7.846   4.005   8.901  0.8243  2.4399 -1.1957
  476MOL0     H64206   7.806   4.019   8.732 -2.5834 -2.1265 -0.6191
  476MOL0     H64207   7.864   3.780   8.678  0.9950  0.4386  0.3362
  476MOL0     H64208   7.855   3.754   8.861  2.8182  1.8927  1.3229
  476MOL0     H64209   7.620   3.808   8.867 -0.6138 -0.6881  0.1702
  476MOL0     H64210   7.658   3.681   8.751 -0.1354 -1.1768  2.2412
  476MOL0     H64211   7.498   4.007   8.819 -0.0982 -2.4102  1.0963
  476MOL0     H64212   7.405   4.175   8.501  1.2256 -0.9537  0.3520
  476MOL0     H64213   7.364   4.196   8.678 -2.2110  0.7706 -1.6564
  476MOL0     H64214   7.611   4.304   8.552  0.9004 -2.8851  0.6535
  476MOL0     H64215   7.591   4.294   8.719 -0.6369 -1.2930  0.7644
  476MOL0     H64216   7.365   4.419   8.696 -1.1787  1.3772 -1.9429
  476MOL0     H64217   7.422   4.443   8.531  0.3673 -1.6534  0.4083
  476MOL0     H64218   7.577   4.596   8.587 -0.7623  0.3785  0.6871
  476MOL0     H64219   7.612   4.511   8.739  1.9806 -0.3326 -2.0448
  476MOL0     H64220   7.468   4.875   8.660  0.4649  0.9117 -0.9787
  476MOL0     H64221   7.299   5.114   8.581 -1.1647 -2.0885  1.5243
  476MOL0     H64222   7.417   5.054   8.469 -0.4109  1.8851  0.6997
  476MOL0     H64223   7.246   5.090   8.423 -2.5383 -0.0260  1.6435
  476MOL0     H64224   6.893   5.157   8.390 -0.0667  1.1261 -0.2310
  476MOL0     H64225   6.633   5.210   8.340 -3.1707 -0.3281  1.6816
  476MOL0     H64226   6.427   5.157   8.205 -0.2616 -0.3142 -1.9869
  476MOL0     H64227   6.517   5.000   8.165  1.7448 -0.7933  2.4217
  476MOL0     H64228   6.274   5.048   8.056 -1.3456 -1.0041 -0.1229
  476MOL0     H64229   6.305   4.893   8.125  0.7082 -0.3846  1.1286
  476MOL0     H64230   6.130   5.107   8.239 -1.1754 -0.6688 -1.6560
  476MOL0     H64231   6.206   4.979   8.337 -0.1936 -0.6749  0.1442
  476MOL0     H64232   6.055   4.936   8.078  1.5661 -0.1937 -1.2927
  476MOL0     H64233   6.111   4.809   8.176 -1.8367 -0.9507 -0.7604
  476MOL0     H64234   5.872   4.996   8.229 -1.0849  0.1098  1.8151
  476MOL0     H64235   5.949   4.942   8.373  1.5591  1.5233 -0.2326
  476MOL0     H64236   5.836   4.762   8.155 -0.6123  1.7486  0.2679
  476MOL0     H64237   5.940   4.707   8.285  1.8278  1.4711 -1.6541
  476MOL0     H64238   5.730   4.864   8.411  1.3514  0.8354 -0.6199
  476MOL0     H64239   5.755   4.693   8.432 -0.2977 -0.4829 -0.8576
  476MOL0     H64240   5.538   4.747   8.375 -0.2257 -3.7950 -0.5161
  476MOL0     H64241   5.602   4.652   8.236 -2.0943 -0.4276 -0.0924
  476MOL0     H64242   6.533   4.841   8.496 -1.2453  0.8899  0.4315
  476MOL0     H64243   6.778   4.807   8.597 -2.1804 -0.7194  0.8117
  476MOL0     H64244   7.043   4.672   8.564 -0.1276  2.0015 -2.1632
  476MOL0     H64245   7.217   4.552   8.709  2.1846  0.3451 -0.9926
  476MOL0     H64246   8.693   3.892   8.789  2.1002 -1.3195  2.3096
  476MOL0     H64247   8.922   3.961   8.686  0.4729  2.2226 -1.3791
  476MOL0     H64248   9.170   4.283   8.555 -1.8650 -1.6789  2.1103
  476MOL0     H64249   9.360   4.392   8.459 -1.7167  0.8401  0.8104
  476MOL0     H64250   9.784   4.369   8.634  2.7720 -2.1269 -0.9667
  476MOL0     H64251   9.743   4.206   8.563  2.6345  0.0764 -0.0621
  476MOL0     H64252   9.928   4.335   8.459  1.0976  0.3092 -0.9005
  476MOL0     H64253   9.820   4.466   8.411 -2.0965 -0.1740 -0.1467
  476MOL0     H64254   9.665   4.310   8.281  0.5369  2.2891  0.2997
  476MOL0     H64255   9.769   4.179   8.329 -0.4737 -0.7190 -2.1230
  476MOL0     H64256   9.818   4.266   8.103 -0.0760 -0.4918  0.8814
  476MOL0     H64257   9.967   4.233   8.204 -0.2387 -0.5910 -0.4577
  476MOL0     H64258  10.011   4.645   8.183 -0.9652  0.0724  1.5816
  476MOL0     H64259   9.605   4.158   8.735  0.6782  0.1198 -1.4609
  476MOL0     H64260   9.412   4.081   8.847  4.6248  1.3916  0.4855
  477MOL0     O64261   9.140   8.488   6.874  0.3088 -1.2362 -0.0569
  477MOL0     C64262   9.204   8.519   6.969 -0.1994  0.1504 -1.5727
  477MOL0     O64263   9.163   8.563   7.096  0.3406 -0.4660 -0.1475
  477MOL0     C64264   9.034   8.606   7.099  0.9052 -0.9135 -0.1195
  477MOL0     C64265   8.922   8.520   7.062 -0.1959 -0.0386 -0.4737
  477MOL0     C64266   8.786   8.555   7.080  0.6948 -0.2203 -0.4121
  477MOL0     C64267   8.753   8.683   7.141 -0.4876  0.8580 -0.1879
  477MOL0     O64268   8.618   8.716   7.173 -0.3613 -0.3389 -0.5379
  477MOL0     C64269   8.595   8.811   7.270 -0.5271  0.1216 -0.5683
  477MOL0     C64270   8.453   8.847   7.299  0.3399  0.0356 -0.7620
  477MOL0     C64271   8.358   8.730   7.329 -0.5881 -0.9790 -0.3159
  477MOL0     C64272   8.222   8.793   7.373  0.5827 -0.3463 -0.4580
  477MOL0     C64273   8.120   8.690   7.430  0.3857  0.6485 -0.0654
  477MOL0     C64274   8.011   8.766   7.509 -0.2674  0.2405 -0.8955
  477MOL0     C64275   7.889   8.666   7.526 -0.9198 -0.6386  0.2625
  477MOL0     C64276   7.783   8.747   7.595 -0.6532  0.1830 -0.1347
  477MOL0     N64277   7.738   8.700   7.730  0.6777  0.3928 -0.0560
  477MOL0     C64278   7.700   8.575   7.771  0.4215 -0.0938  0.2589
  477MOL0     C64279   7.650   8.596   7.895  0.2216 -0.7720  0.5470
  477MOL0     C64280   7.588   8.492   7.989 -0.0959 -0.7927  0.2514
  477MOL0     C64281   7.459   8.447   7.937  1.2983 -0.1223  0.0106
  477MOL0     C64282   7.363   8.567   7.909 -0.0427  0.5880  0.3294
  477MOL0     C64283   7.233   8.522   7.838  0.9023 -0.2954  0.2749
  477MOL0     O64284   7.135   8.630   7.859 -0.1707 -0.0094 -0.6510
  477MOL0     C64285   7.014   8.610   7.805  0.1032  0.7039  0.5216
  477MOL0     C64286   6.983   8.502   7.718  0.8970  0.2897  0.8403
  477MOL0     C64287   6.851   8.490   7.666  0.2248  0.3188 -0.0781
  477MOL0     C64288   6.829   8.376   7.562  0.4984 -0.2145 -0.4240
  477MOL0     C64289   6.750   8.586   7.711 -0.3162 -0.8447  0.6588
  477MOL0     C64290   6.609   8.594   7.670 -0.2094  0.1316 -0.3640
  477MOL0     O64291   6.527   8.667   7.746  0.1562  0.2018  0.2995
  477MOL0     C64292   6.400   8.684   7.697 -0.3777  0.2226 -0.4400
  477MOL0     C64293   6.294   8.697   7.794  0.2145 -0.5987  0.7447
  477MOL0     C64294   6.167   8.730   7.760 -0.3839  0.5519  0.2724
  477MOL0     C64295   6.138   8.761   7.627  0.3448  0.7974  0.3903
  477MOL0     O64296   6.018   8.798   7.569 -0.3708 -0.6683  0.1868
  477MOL0     C64297   5.887   8.761   7.631  0.1484  0.1513  0.1400
  477MOL0     C64298   5.804   8.667   7.539 -0.8403 -0.1759  0.5266
  477MOL0     C64299   5.666   8.632   7.594 -0.0322 -1.0924 -0.3423
  477MOL0     C64300   5.564   8.740   7.551  0.0287  0.2861  0.3997
  477MOL0     C64301   5.538   8.738   7.400  0.8891  0.5148 -0.0719
  477MOL0     C64302   5.486   8.617   7.330 -0.2958  0.4244  0.2526
  477MOL0     C64303   5.364   8.557   7.407  0.7352 -0.1369 -0.5918
  477MOL0     C64304   5.232   8.640   7.407 -0.3189  0.0989  0.5159
  477MOL0    Cl64305   5.174   8.693   7.238  0.0036 -0.2646 -0.0009
  477MOL0     C64306   6.238   8.759   7.531 -0.2696  0.0278  0.0778
  477MOL0     C64307   6.371   8.719   7.567  0.0782 -0.6862  0.2192
  477MOL0     O64308   6.581   8.520   7.583  0.0869  0.2036 -0.2314
  477MOL0     C64309   6.790   8.688   7.793 -0.0493 -0.5063 -0.6711
  477MOL0     C64310   6.915   8.693   7.845  0.3385 -0.4764  1.0172
  477MOL0     N64311   7.670   8.728   7.930  0.0031  0.0783  0.0600
  477MOL0     N64312   7.720   8.788   7.834 -0.4653 -0.2160  0.7836
  477MOL0     C64313   8.863   8.768   7.170 -0.6993 -1.1685  1.1611
  477MOL0     C64314   9.001   8.729   7.146 -0.5229  0.0338 -0.6505
  477MOL0     C64315   9.350   8.519   6.940  0.2656 -0.0190 -0.9418
  477MOL0     C64316   9.398   8.452   6.820 -0.3252  0.1212  0.0835
  477MOL0     C64317   9.536   8.455   6.798  0.6971  0.8563  0.8259
  477MOL0     C64318   9.625   8.504   6.884 -0.8738 -0.6484  0.4178
  477MOL0     O64319   9.762   8.503   6.863 -0.0300  0.0512  0.0307
  477MOL0     C64320   9.819   8.384   6.911 -0.1978 -0.0766 -0.1557
  477MOL0     C64321   9.867   8.297   6.794 -0.7549 -0.2635  0.4270
  477MOL0     C64322   9.877   8.151   6.838 -0.5509  0.0608  0.0678
  477MOL0     C64323   9.926   8.059   6.741 -0.0214 -0.2776  0.5348
  477MOL0     C64324  10.061   8.088   6.691  0.1372  0.1970  0.0484
  477MOL0     C64325  10.169   8.106   6.655  0.2440  0.0013 -0.6619
  477MOL0     C64326   9.572   8.585   6.991 -0.2259 -0.1328  0.7796
  477MOL0     C64327   9.438   8.586   7.020 -0.1933 -0.1493 -0.1102
  477MOL0     H64328   8.941   8.421   7.021 -1.5053  0.5529 -2.6787
  477MOL0     H64329   8.698   8.493   7.061 -2.7709  4.1290 -0.0983
  477MOL0     H64330   8.639   8.784   7.366 -3.0080 -0.8637  0.4006
  477MOL0     H64331   8.641   8.901   7.229  0.6256 -0.6069 -0.9139
  477MOL0     H64332   8.465   8.910   7.388  0.4922  0.1431 -0.8579
  477MOL0     H64333   8.417   8.907   7.215  3.7963  4.3992  0.4784
  477MOL0     H64334   8.354   8.651   7.253 -0.0599 -2.0633  0.7428
  477MOL0     H64335   8.411   8.686   7.414  1.7629  0.4816 -0.9515
  477MOL0     H64336   8.234   8.873   7.447 -2.9279 -1.1290  1.1766
  477MOL0     H64337   8.184   8.847   7.287 -0.4912  0.2261  0.3504
  477MOL0     H64338   8.080   8.629   7.348 -1.6842  0.7221  0.8382
  477MOL0     H64339   8.167   8.624   7.504 -3.2231 -1.9767  0.1296
  477MOL0     H64340   8.050   8.789   7.609 -1.1614  0.8298 -0.6684
  477MOL0     H64341   7.979   8.858   7.459 -0.3435 -0.4048 -2.0634
  477MOL0     H64342   7.845   8.644   7.429 -0.3111 -1.9056  0.2446
  477MOL0     H64343   7.914   8.568   7.569  1.0145  0.1802  1.1519
  477MOL0     H64344   7.690   8.741   7.539  0.8093 -3.4818 -2.5954
  477MOL0     H64345   7.808   8.853   7.594 -1.0949  0.2983  0.5985
  477MOL0     H64346   7.700   8.486   7.709  0.0897 -1.1857  1.7508
  477MOL0     H64347   7.650   8.402   7.987 -1.4525 -1.7783 -2.0791
  477MOL0     H64348   7.568   8.530   8.090 -2.0795  3.9355 -1.5934
  477MOL0     H64349   7.415   8.378   8.009 -0.9711  1.2267  0.0451
  477MOL0     H64350   7.471   8.393   7.843 -0.2346  0.9273 -0.8283
  477MOL0     H64351   7.403   8.636   7.835 -2.8267  0.0035 -1.8777
  477MOL0     H64352   7.349   8.607   8.010  0.7478 -3.1423  2.1135
  477MOL0     H64353   7.195   8.430   7.884  0.4686  0.1593  0.8461
  477MOL0     H64354   7.251   8.510   7.731 -1.4551 -1.3201 -0.0776
  477MOL0     H64355   7.063   8.433   7.692  1.2474  1.1156 -0.4130
  477MOL0     H64356   6.735   8.321   7.570  0.6122 -0.3392  0.0794
  477MOL0     H64357   6.852   8.410   7.460  1.9671  1.6223  0.4503
  477MOL0     H64358   6.898   8.292   7.570  0.2691 -0.4577 -0.9541
  477MOL0     H64359   6.326   8.677   7.896  2.4164 -1.3511 -0.0304
  477MOL0     H64360   6.086   8.721   7.832 -2.1623  0.0985 -1.6651
  477MOL0     H64361   5.891   8.715   7.731 -2.1703 -0.8083 -0.1549
  477MOL0     H64362   5.822   8.847   7.649  1.3111  1.5184 -1.7823
  477MOL0     H64363   5.796   8.712   7.440 -1.5857  1.0503  1.1326
  477MOL0     H64364   5.871   8.580   7.536  0.8207  1.0642 -2.1246
  477MOL0     H64365   5.691   8.630   7.700  3.0468 -2.3565 -0.9730
  477MOL0     H64366   5.635   8.534   7.557 -0.6210 -1.0114 -0.0595
  477MOL0     H64367   5.469   8.722   7.601  0.2191 -0.8444  0.3766
  477MOL0     H64368   5.605   8.834   7.589 -0.3770  0.1029  1.2936
  477MOL0     H64369   5.616   8.790   7.344  1.8694  1.1157  1.7813
  477MOL0     H64370   5.452   8.807   7.401 -0.1227 -0.7002  1.0683
  477MOL0     H64371   5.456   8.627   7.225  0.5256  1.3040  0.0930
  477MOL0     H64372   5.568   8.545   7.326 -1.2587 -0.6525 -0.9884
  477MOL0     H64373   5.390   8.531   7.510  2.4175 -1.8584 -1.3803
  477MOL0     H64374   5.348   8.455   7.371 -0.7768 -0.7893  1.7045
  477MOL0     H64375   5.253   8.732   7.463 -0.5269  0.1611  0.4930
  477MOL0     H64376   5.151   8.590   7.461 -2.7228  0.8020 -2.2098
  477MOL0     H64377   6.225   8.792   7.429  0.0423 -1.1825 -0.3789
  477MOL0     H64378   6.452   8.718   7.495  3.8890  1.3158  4.0615
  477MOL0     H64379   6.719   8.761   7.833 -0.9451 -1.7477  0.0750
  477MOL0     H64380   6.949   8.770   7.912  0.5756  0.0581  0.2999
  477MOL0     H64381   8.838   8.866   7.209 -0.1749  0.2430 -1.8211
  477MOL0     H64382   9.075   8.806   7.162 -1.6168  1.2123 -1.0236
  477MOL0     H64383   9.334   8.400   6.751  1.7673 -2.4778 -0.0715
  477MOL0     H64384   9.574   8.402   6.711 -0.1397 -0.3328  1.1512
  477MOL0     H64385   9.894   8.425   6.979 -0.4823  2.1956 -1.1316
  477MOL0     H64386   9.751   8.321   6.969 -0.7083 -0.0143 -0.6700
  477MOL0     H64387   9.962   8.342   6.765 -0.4811 -1.8352 -1.3528
  477MOL0     H64388   9.798   8.299   6.708 -0.4916  1.4723  0.2154
  477MOL0     H64389   9.776   8.124   6.870 -1.8490  3.4675 -0.7012
  477MOL0     H64390   9.938   8.147   6.930 -3.1207  0.6328  1.9116
  477MOL0     H64391   9.853   8.057   6.659 -1.4010 -0.4127  1.7313
  477MOL0     H64392   9.931   7.953   6.766  1.5593 -0.9514 -2.1562
  477MOL0     H64393  10.259   8.127   6.601  0.8514  0.5526  0.5177
  477MOL0     H64394   9.629   8.651   7.056  3.0254 -0.4245 -1.5550
  477MOL0     H64395   9.411   8.640   7.110  0.9345 -0.5338  0.4801
  478MOL0     O64396   3.968   5.833   6.669 -0.4202  0.2573 -0.4489
  478MOL0     C64397   4.040   5.735   6.637 -0.4245 -0.2183  0.2467
  478MOL0     O64398   3.985   5.607   6.609  0.0637 -0.2498  0.9969
  478MOL0     C64399   3.849   5.582   6.604 -0.0321 -0.2395 -0.4069
  478MOL0     C64400   3.776   5.593   6.721  1.0755 -0.2399 -0.4322
  478MOL0     C64401   3.633   5.568   6.724 -0.3560 -0.4766  0.0083
  478MOL0     C64402   3.574   5.540   6.608 -0.7671  1.3759 -0.1602
  478MOL0     O64403   3.438   5.507   6.622  0.3683 -0.1764 -0.1710
  478MOL0     C64404   3.373   5.430   6.512  0.4469 -0.0587 -0.2626
  478MOL0     C64405   3.218   5.439   6.530 -0.3826 -0.1961  0.2388
  478MOL0     C64406   3.144   5.398   6.400  0.8558  0.0371  0.3348
  478MOL0     C64407   3.110   5.249   6.413  0.2502  0.0310 -0.3989
  478MOL0     C64408   3.050   5.190   6.280 -0.7221 -0.6334 -0.7082
  478MOL0     C64409   3.018   5.041   6.295  0.9540 -0.0085  0.3556
  478MOL0     C64410   2.906   5.004   6.397  1.5444  0.6464  0.0641
  478MOL0     C64411   2.770   5.039   6.331 -0.5853  0.0631 -0.2200
  478MOL0     N64412   2.658   4.951   6.375  0.0034 -0.1512 -0.0177
  478MOL0     C64413   2.589   4.959   6.493  0.9624  0.2976 -0.1295
  478MOL0     C64414   2.509   4.848   6.496 -0.4141  0.0373 -0.2443
  478MOL0     C64415   2.416   4.810   6.608  0.1059 -0.3478  0.8235
  478MOL0     C64416   2.276   4.876   6.602  0.3000  0.0388  0.2281
  478MOL0     C64417   2.186   4.797   6.516 -0.1826 -0.0069  0.7663
  478MOL0     C64418   2.062   4.865   6.459  0.2249  0.0649  0.1061
  478MOL0     O64419   2.005   4.774   6.367  0.0685  0.0274  0.6943
  478MOL0     C64420   1.886   4.821   6.311 -0.6417 -0.5272 -0.0630
  478MOL0     C64421   1.885   4.863   6.175  0.8754  0.6202  1.1094
  478MOL0     C64422   1.769   4.883   6.104 -0.0218 -0.7071  0.0119
  478MOL0     C64423   1.780   4.906   5.958  0.2706  0.7417 -0.0847
  478MOL0     C64424   1.653   4.861   6.170  0.4385 -0.3644  0.6285
  478MOL0     C64425   1.522   4.845   6.110  0.8381 -0.5734  0.6509
  478MOL0     O64426   1.418   4.906   6.173 -0.3300  0.5245 -0.4341
  478MOL0     C64427   1.293   4.919   6.112 -0.0086 -0.6677  0.8603
  478MOL0     C64428   1.227   5.047   6.097 -0.0704  0.9444 -0.9843
  478MOL0     C64429   1.099   5.050   6.035 -0.0122  0.4361  0.1847
  478MOL0     C64430   1.038   4.942   5.987 -0.8381 -0.3252  0.2547
  478MOL0     O64431   0.916   4.963   5.936  0.1732 -0.2195  0.3272
  478MOL0     C64432   0.833   4.842   5.906 -0.3203 -0.6393  0.3851
  478MOL0     C64433   0.717   4.887   5.831  0.2889 -0.1077  0.1267
  478MOL0     C64434   0.617   4.769   5.837  0.1707  0.5632  0.2986
  478MOL0     C64435   0.503   4.795   5.744 -0.5366 -0.2139  0.5648
  478MOL0     C64436   0.410   4.668   5.767  0.1050 -1.5082 -0.2142
  478MOL0     C64437   0.280   4.669   5.689  0.7210 -0.4722  0.3509
  478MOL0     C64438   0.167   4.765   5.744 -0.7085 -0.7303 -1.2572
  478MOL0     C64439   0.041   4.760   5.656  0.1704 -0.2759 -0.3541
  478MOL0    Cl64440  -0.073   4.631   5.709 -0.4816 -0.1705 -0.2406
  478MOL0     C64441   1.099   4.816   6.016 -0.0830 -0.6628  0.1579
  478MOL0     C64442   1.228   4.803   6.078  0.1209  0.5853 -0.3904
  478MOL0     O64443   1.510   4.776   6.007 -0.3054 -0.0099 -0.5978
  478MOL0     C64444   1.651   4.816   6.308  0.2442  0.1291  0.8194
  478MOL0     C64445   1.770   4.795   6.376 -0.4812  0.0012 -0.3946
  478MOL0     N64446   2.536   4.785   6.381  0.2156  0.0093 -0.0235
  478MOL0     N64447   2.625   4.842   6.310  0.5330 -0.0493  1.0643
  478MOL0     C64448   3.647   5.537   6.482 -0.0287 -0.0236  0.1822
  478MOL0     C64449   3.790   5.558   6.481  0.3875  0.1306  1.6237
  478MOL0     C64450   4.186   5.744   6.621  0.5620  1.1657 -0.6960
  478MOL0     C64451   4.272   5.630   6.603 -0.1462 -0.6214 -0.0500
  478MOL0     C64452   4.413   5.645   6.593  0.1663  0.0217 -0.6389
  478MOL0     C64453   4.475   5.771   6.594 -0.2167  0.2929 -0.1497
  478MOL0     O64454   4.608   5.784   6.584  0.0690 -0.2547 -0.0562
  478MOL0     C64455   4.668   5.918   6.562 -1.2730 -0.1196  0.1372
  478MOL0     C64456   4.784   5.860   6.478 -0.0793 -0.3493 -0.6265
  478MOL0     C64457   4.894   5.970   6.473  0.6829 -1.0970  1.3679
  478MOL0     C64458   5.027   5.943   6.385  0.4905 -0.0684 -0.4490
  478MOL0     C64459   5.001   5.919   6.245  0.6850 -0.7682  0.7260
  478MOL0     C64460   4.985   5.904   6.123  0.0743  0.4871  0.2183
  478MOL0     C64461   4.400   5.877   6.631  0.9892 -0.1101 -0.1404
  478MOL0     C64462   4.259   5.863   6.645  0.9979 -0.3198 -0.1184
  478MOL0     H64463   3.819   5.614   6.818 -0.9052  1.9176  0.0716
  478MOL0     H64464   3.584   5.563   6.821  3.2888 -0.8285  2.0190
  478MOL0     H64465   3.404   5.478   6.419 -0.8212  0.6196 -0.3678
  478MOL0     H64466   3.408   5.327   6.501  1.0226  0.1412 -0.3095
  478MOL0     H64467   3.177   5.380   6.612 -0.3890  1.3594  1.3934
  478MOL0     H64468   3.200   5.544   6.553 -0.5733  0.2743 -1.8294
  478MOL0     H64469   3.056   5.460   6.384 -0.5695 -1.7869  0.7393
  478MOL0     H64470   3.201   5.409   6.307  1.2969  3.6628  0.8743
  478MOL0     H64471   3.203   5.195   6.429  0.9304  1.1897 -0.3205
  478MOL0     H64472   3.035   5.249   6.492  0.2414  2.3562 -0.3247
  478MOL0     H64473   2.962   5.250   6.257 -1.4413 -0.8650  1.2275
  478MOL0     H64474   3.132   5.203   6.209 -0.0023  1.1582  0.3668
  478MOL0     H64475   2.981   4.998   6.201  0.4112  0.8374  0.1731
  478MOL0     H64476   3.111   4.987   6.314  0.5829 -0.5164  0.7610
  478MOL0     H64477   2.906   4.895   6.403  0.8402  0.7165  1.9850
  478MOL0     H64478   2.916   5.052   6.494 -3.3003 -1.1459  1.7443
  478MOL0     H64479   2.772   5.026   6.222  2.3449 -3.0776  0.0379
  478MOL0     H64480   2.746   5.142   6.357 -0.4455  0.4991 -1.7586
  478MOL0     H64481   2.597   5.030   6.575  0.9167  1.8208 -1.4038
  478MOL0     H64482   2.406   4.701   6.605 -0.4989 -0.2881  0.4994
  478MOL0     H64483   2.462   4.816   6.707  0.3405  0.5559  0.6688
  478MOL0     H64484   2.280   4.978   6.564 -1.5360 -0.2654 -0.8774
  478MOL0     H64485   2.242   4.874   6.706 -0.2528  1.6955  0.1084
  478MOL0     H64486   2.155   4.712   6.577 -2.0250  1.1376  1.5007
  478MOL0     H64487   2.242   4.754   6.433 -0.6921  0.3666  0.2229
  478MOL0     H64488   2.070   4.970   6.427 -1.2900  0.6276  1.3980
  478MOL0     H64489   1.987   4.878   6.538 -0.6620  1.4293 -0.9037
  478MOL0     H64490   1.976   4.867   6.117  0.2025 -0.6456 -0.1126
  478MOL0     H64491   1.881   4.939   5.934  0.1939  1.7288  0.8773
  478MOL0     H64492   1.766   4.815   5.898  0.3870  1.3882 -1.1290
  478MOL0     H64493   1.704   4.981   5.934  0.2020  2.4946  4.6614
  478MOL0     H64494   1.283   5.126   6.147 -0.2995  1.3581 -1.3750
  478MOL0     H64495   1.046   5.144   6.025  0.3624  0.8866  2.0047
  478MOL0     H64496   0.883   4.766   5.844 -2.1392 -2.0820  0.5967
  478MOL0     H64497   0.794   4.794   5.996 -3.5678  1.2313  0.1218
  478MOL0     H64498   0.667   4.978   5.866 -1.0598 -0.3096 -1.1828
  478MOL0     H64499   0.756   4.905   5.730 -0.4391 -3.2335 -0.8144
  478MOL0     H64500   0.591   4.743   5.940  0.0952 -3.2568 -0.5315
  478MOL0     H64501   0.667   4.677   5.806  0.9923  1.4539 -1.1541
  478MOL0     H64502   0.458   4.885   5.788 -0.6346 -1.4389  3.1661
  478MOL0     H64503   0.533   4.809   5.640  2.3552  1.8608  1.5642
  478MOL0     H64504   0.390   4.656   5.874  2.6514 -4.2939  0.0657
  478MOL0     H64505   0.467   4.582   5.733  0.3342 -0.6425 -2.1463
  478MOL0     H64506   0.314   4.700   5.589 -1.0370 -0.1352 -0.1642
  478MOL0     H64507   0.242   4.567   5.682  1.1245 -0.5254 -2.1134
  478MOL0     H64508   0.205   4.868   5.751  1.9630 -1.7426  3.6878
  478MOL0     H64509   0.135   4.758   5.849  0.9973  0.1887 -0.6305
  478MOL0     H64510   0.067   4.745   5.550  0.6477 -1.6092 -0.0699
  478MOL0     H64511  -0.010   4.856   5.663  2.5230  0.9604  1.2146
  478MOL0     H64512   1.059   4.730   5.964 -1.5361 -1.0291  1.7930
  478MOL0     H64513   1.274   4.709   6.105  0.0422  0.3806 -0.9485
  478MOL0     H64514   1.553   4.803   6.353 -0.3230  2.7503  0.4735
  478MOL0     H64515   1.751   4.765   6.479 -2.3450  1.8688 -0.1263
  478MOL0     H64516   3.598   5.535   6.385  2.2237 -2.5783 -1.0172
  478MOL0     H64517   3.846   5.564   6.388 -2.4743 -0.1767 -0.2577
  478MOL0     H64518   4.222   5.534   6.593 -1.9243  0.2291  0.1858
  478MOL0     H64519   4.483   5.563   6.582 -0.6124 -0.8322  0.5343
  478MOL0     H64520   4.609   5.984   6.498  0.8022  0.7412 -0.9665
  478MOL0     H64521   4.706   5.970   6.650  1.9913  1.9615 -2.2857
  478MOL0     H64522   4.757   5.823   6.379 -0.4197 -1.1802 -0.2267
  478MOL0     H64523   4.823   5.772   6.529 -0.7523 -0.0700  0.3983
  478MOL0     H64524   4.915   5.977   6.580 -2.0473 -2.0141  2.0650
  478MOL0     H64525   4.854   6.063   6.431  2.5931 -0.8729 -0.0980
  478MOL0     H64526   5.093   5.868   6.430  1.3357  2.1773  2.3022
  478MOL0     H64527   5.087   6.034   6.393  2.4879 -1.4553  1.3980
  478MOL0     H64528   4.972   5.877   6.021 -3.5964 -4.2254  1.5542
  478MOL0     H64529   4.435   5.973   6.668  0.0846  0.6776 -1.2375
  478MOL0     H64530   4.207   5.956   6.666  3.9704  1.0131  2.3103
  479MOL0     O64531   9.446   5.007   4.145  0.3840 -0.0983 -0.0954
  479MOL0     C64532   9.442   5.130   4.164  0.7195  0.1934  0.2501
  479MOL0     O64533   9.534   5.220   4.116 -0.2985  0.4998 -0.1920
  479MOL0     C64534   9.605   5.184   3.999 -0.6679 -0.8077  1.2325
  479MOL0     C64535   9.542   5.124   3.892  0.2019  0.2112 -0.0105
  479MOL0     C64536   9.618   5.107   3.771 -0.4239 -1.2201  0.3232
  479MOL0     C64537   9.744   5.170   3.758  0.2635  0.6351 -0.9187
  479MOL0     O64538   9.814   5.195   3.643 -0.5077  0.8639  0.2315
  479MOL0     C64539   9.780   5.108   3.531 -0.4021 -0.1344 -0.1427
  479MOL0     C64540   9.845   5.165   3.409 -0.4242 -1.3349  0.3363
  479MOL0     C64541   9.969   5.098   3.353 -0.1466  0.6497  0.4762
  479MOL0     C64542  10.085   5.099   3.449  0.5460  0.6973  0.2789
  479MOL0     C64543  10.200   5.018   3.399 -0.3396  0.2246  0.3988
  479MOL0     C64544  10.328   5.053   3.471 -0.5772 -0.5404  0.0492
  479MOL0     C64545  10.452   4.999   3.404 -0.2779 -0.9345  0.4608
  479MOL0     C64546  10.468   4.856   3.435 -1.0740 -0.0364 -0.8056
  479MOL0     N64547  10.521   4.853   3.572 -0.1827  0.6874 -0.2346
  479MOL0     C64548  10.658   4.843   3.606 -0.0727 -0.1837 -0.2410
  479MOL0     C64549  10.656   4.817   3.742 -0.4227  0.5394 -0.5444
  479MOL0     C64550  10.779   4.793   3.822  0.5367 -0.1985 -0.0703
  479MOL0     C64551  10.803   4.650   3.860  0.1760 -0.4651  0.3752
  479MOL0     C64552  10.951   4.603   3.905  0.2878 -0.6899 -0.3236
  479MOL0     C64553  10.963   4.604   4.054 -0.3657  0.7051  0.4002
  479MOL0     O64554  11.044   4.495   4.099  0.5087  0.3108 -0.3894
  479MOL0     C64555  11.179   4.500   4.108  0.2860 -0.7637 -0.9825
  479MOL0     C64556  11.231   4.383   4.158 -0.1571  0.7061 -0.3938
  479MOL0     C64557  11.371   4.365   4.171  0.0443  0.3182 -0.9239
  479MOL0     C64558  11.424   4.226   4.214 -0.1617  0.8502 -0.9946
  479MOL0     C64559  11.462   4.466   4.131 -0.2476 -0.6847  0.8976
  479MOL0     C64560  11.603   4.471   4.147 -0.9366  0.8384  0.1777
  479MOL0     O64561  11.666   4.587   4.185 -0.0938  0.4146  0.1864
  479MOL0     C64562  11.803   4.590   4.173 -0.2542  0.7194 -0.1058
  479MOL0     C64563  11.878   4.577   4.293  0.4454  1.1138  0.0472
  479MOL0     C64564  12.015   4.575   4.288 -0.9901  0.3380 -0.4101
  479MOL0     C64565  12.085   4.593   4.166  0.3207  0.2632 -0.0021
  479MOL0     O64566  12.217   4.625   4.150 -0.0633  0.3950  0.2692
  479MOL0     C64567  12.296   4.674   4.257  0.2993  0.2853  0.0822
  479MOL0     C64568  12.352   4.554   4.333 -0.3893  0.1539 -0.8648
  479MOL0     C64569  12.418   4.617   4.466  0.8514  0.0088 -0.4014
  479MOL0     C64570  12.475   4.497   4.541 -0.2677  0.5422  0.2482
  479MOL0     C64571  12.507   4.536   4.681 -0.1895 -0.2359  0.1990
  479MOL0     C64572  12.383   4.555   4.770  0.6825 -0.5359  0.5814
  479MOL0     C64573  12.426   4.582   4.921  0.4522  0.7446 -0.7173
  479MOL0     C64574  12.315   4.657   4.998  0.8675 -0.7515 -0.3957
  479MOL0    Cl64575  12.159   4.580   4.985  0.2648 -0.3912  0.0650
  479MOL0     C64576  12.011   4.605   4.053 -0.4295 -0.3141  0.4490
  479MOL0     C64577  11.873   4.606   4.052 -0.4988  0.8748  0.3793
  479MOL0     O64578  11.657   4.360   4.136 -0.2569 -0.1640  0.6525
  479MOL0     C64579  11.401   4.584   4.084  0.5559  0.3117  1.1090
  479MOL0     C64580  11.264   4.601   4.070 -0.4905  1.6241  0.3728
  479MOL0     N64581  10.526   4.796   3.781  0.4412 -0.1898  0.2383
  479MOL0     N64582  10.447   4.832   3.683 -0.0309  0.5284 -0.7459
  479MOL0     C64583   9.805   5.229   3.866  0.8661  0.3983  0.2469
  479MOL0     C64584   9.728   5.242   3.977  0.3273 -0.2965 -0.8966
  479MOL0     C64585   9.345   5.174   4.269  0.7985 -0.6850 -1.2304
  479MOL0     C64586   9.359   5.307   4.316  0.2882 -0.4403  0.4029
  479MOL0     C64587   9.292   5.357   4.435  0.4229 -0.0722  0.3567
  479MOL0     C64588   9.206   5.273   4.512  0.5315  0.1698  0.2966
  479MOL0     O64589   9.127   5.309   4.621  0.4874 -0.4116  0.2213
  479MOL0     C64590   9.188   5.406   4.708  0.2272  0.4844 -0.5123
  479MOL0     C64591   9.110   5.393   4.850 -0.0451 -0.0497  0.2814
  479MOL0     C64592   9.158   5.501   4.946  0.7317 -0.0233  1.0091
  479MOL0     C64593   9.136   5.649   4.881  0.8718 -0.2844 -0.8014
  479MOL0     C64594   8.995   5.687   4.865  0.0747 -0.1333 -0.0843
  479MOL0     C64595   8.875   5.710   4.842  0.1761 -0.1357  0.2698
  479MOL0     C64596   9.185   5.145   4.463  0.2847  0.1332  0.0471
  479MOL0     C64597   9.263   5.095   4.352 -0.6230 -0.2302 -0.4238
  479MOL0     H64598   9.448   5.069   3.898  0.9940 -1.1105  0.9735
  479MOL0     H64599   9.600   5.042   3.686 -0.5463  0.3698 -0.9419
  479MOL0     H64600   9.808   5.004   3.553  3.2505  1.2866  3.1418
  479MOL0     H64601   9.671   5.107   3.517 -0.7148  1.3590  1.7987
  479MOL0     H64602   9.770   5.189   3.333 -0.1918 -2.8319 -0.4213
  479MOL0     H64603   9.867   5.270   3.431 -4.4083 -0.0418 -1.0390
  479MOL0     H64604   9.941   4.994   3.335 -2.6910  1.3829 -0.2328
  479MOL0     H64605  10.000   5.147   3.260 -1.4880 -3.1842 -2.2155
  479MOL0     H64606  10.122   5.202   3.454  0.2662  0.7853  0.5743
  479MOL0     H64607  10.060   5.074   3.553  2.8384 -0.1839  0.6816
  479MOL0     H64608  10.179   4.914   3.424 -0.0646  0.0671 -0.0055
  479MOL0     H64609  10.206   5.033   3.291  2.3753 -1.9491  0.1287
  479MOL0     H64610  10.324   5.161   3.455  0.0060 -0.3358  1.1590
  479MOL0     H64611  10.314   5.035   3.578 -1.0969  2.1948  0.5326
  479MOL0     H64612  10.442   5.017   3.296 -2.7375  0.1216  0.8140
  479MOL0     H64613  10.542   5.054   3.430 -0.8242  0.5881 -0.7320
  479MOL0     H64614  10.544   4.817   3.368 -1.3350  0.8045 -1.6146
  479MOL0     H64615  10.373   4.802   3.423 -0.2183 -1.6156 -0.7464
  479MOL0     H64616  10.746   4.863   3.545 -2.5000  2.9470 -3.0507
  479MOL0     H64617  10.859   4.832   3.758  1.1186 -0.3942  0.5172
  479MOL0     H64618  10.772   4.855   3.913 -3.2854 -0.4554 -0.0533
  479MOL0     H64619  10.782   4.585   3.774  0.2069  0.2521 -0.1821
  479MOL0     H64620  10.724   4.632   3.934 -2.3083 -0.6484 -2.1641
  479MOL0     H64621  11.027   4.665   3.856  0.5505 -0.5004  0.3160
  479MOL0     H64622  10.966   4.498   3.878  2.0785 -0.6191  0.2157
  479MOL0     H64623  10.864   4.596   4.101 -0.6712 -3.7265 -0.5377
  479MOL0     H64624  11.005   4.697   4.092  0.4898 -0.1324  1.5839
  479MOL0     H64625  11.178   4.300   4.204  3.1473 -0.8040  1.0751
  479MOL0     H64626  11.338   4.161   4.230  0.5715  0.2402  0.7854
  479MOL0     H64627  11.484   4.178   4.136 -0.3903 -0.9549 -0.1224
  479MOL0     H64628  11.483   4.223   4.306  2.5857 -1.8562 -2.6590
  479MOL0     H64629  11.829   4.565   4.389  0.2181 -0.3205 -0.2354
  479MOL0     H64630  12.068   4.571   4.383 -0.6232  2.1074 -0.4929
  479MOL0     H64631  12.380   4.736   4.224  2.1425 -1.1041  1.9194
  479MOL0     H64632  12.233   4.739   4.318  0.3476  1.4002 -1.0207
  479MOL0     H64633  12.280   4.476   4.360  0.3148 -1.0819 -2.3690
  479MOL0     H64634  12.432   4.506   4.275  0.4745 -0.4479  0.7520
  479MOL0     H64635  12.339   4.665   4.524  1.1484  0.4800 -0.3820
  479MOL0     H64636  12.496   4.694   4.457 -0.7994  2.2025  2.5701
  479MOL0     H64637  12.401   4.416   4.539 -0.4160  0.6984 -1.0849
  479MOL0     H64638  12.563   4.466   4.483  0.2887 -1.7121  2.1365
  479MOL0     H64639  12.565   4.629   4.674  0.5039 -0.6439  0.4329
  479MOL0     H64640  12.565   4.455   4.726  0.3370 -1.5609 -2.6204
  479MOL0     H64641  12.332   4.646   4.738  3.6059  0.6893 -1.0154
  479MOL0     H64642  12.314   4.471   4.758 -1.8801  1.8434 -3.8667
  479MOL0     H64643  12.520   4.639   4.926  1.2175 -0.4600 -1.0108
  479MOL0     H64644  12.432   4.491   4.981 -1.1688  1.9030  1.3262
  479MOL0     H64645  12.313   4.757   4.956  0.4413 -1.5417 -2.3692
  479MOL0     H64646  12.336   4.675   5.104  1.5300 -3.1455 -0.0450
  479MOL0     H64647  12.060   4.636   3.962 -0.3715  2.9498  1.4666
  479MOL0     H64648  11.817   4.619   3.960 -1.3073  2.8660  1.0979
  479MOL0     H64649  11.458   4.673   4.059  2.0938 -1.3744 -1.9134
  479MOL0     H64650  11.238   4.698   4.030 -3.3436  1.1472  0.8945
  479MOL0     H64651   9.898   5.283   3.875  0.3797  0.9393  2.4977
  479MOL0     H64652   9.775   5.297   4.058  0.4555 -1.3969 -0.2057
  479MOL0     H64653   9.424   5.378   4.267 -1.5872  0.9256 -0.2008
  479MOL0     H64654   9.314   5.459   4.467 -1.8588  1.3221 -2.0903
  479MOL0     H64655   9.294   5.384   4.718  0.2358 -0.0532 -1.6821
  479MOL0     H64656   9.172   5.495   4.647 -3.9254 -1.5897 -2.8635
  479MOL0     H64657   9.130   5.297   4.898  0.5465 -1.4910 -2.6392
  479MOL0     H64658   9.005   5.422   4.838  0.6682  2.2378 -0.8445
  479MOL0     H64659   9.266   5.485   4.950  1.7269  4.4482 -1.3400
  479MOL0     H64660   9.096   5.485   5.035 -1.7405  1.2368 -0.3803
  479MOL0     H64661   9.186   5.682   4.790  0.4213  0.4963 -0.7744
  479MOL0     H64662   9.177   5.721   4.953 -1.1779  1.0716 -0.9122
  479MOL0     H64663   8.769   5.724   4.837  0.4446  1.8607 -0.6427
  479MOL0     H64664   9.117   5.076   4.511  0.3484  0.5469  0.7497
  479MOL0     H64665   9.254   4.988   4.334 -0.6193 -0.1794 -0.7306
  480MOL0     O64666   6.627   1.985   9.407 -0.4305  0.4251  0.3580
  480MOL0     C64667   6.733   2.038   9.369  0.6183 -0.0788 -0.2011
  480MOL0     O64668   6.753   2.174   9.366  0.6823  0.3914 -0.1001
  480MOL0     C64669   6.646   2.253   9.342 -0.0377  0.6240  0.1074
  480MOL0     C64670   6.619   2.309   9.216 -0.2999 -0.2447  0.5796
  480MOL0     C64671   6.505   2.377   9.186  0.1253 -0.4594 -0.4856
  480MOL0     C64672   6.405   2.391   9.287 -0.5229  0.1472 -0.4120
  480MOL0     O64673   6.288   2.460   9.264  0.4178 -1.0443  0.2546
  480MOL0     C64674   6.301   2.603   9.229 -0.8025  0.7471  0.1380
  480MOL0     C64675   6.338   2.683   9.358  0.4317  0.1314 -0.0129
  480MOL0     C64676   6.221   2.696   9.451  0.9471 -0.0179 -0.4551
  480MOL0     C64677   6.189   2.578   9.530 -0.4520  0.0544  0.3864
  480MOL0     C64678   6.080   2.604   9.640  0.1529  0.3603  0.2223
  480MOL0     C64679   6.079   2.473   9.735 -0.5691 -0.7398  1.1233
  480MOL0     C64680   5.967   2.481   9.839 -0.9505  0.7847  0.2606
  480MOL0     C64681   5.830   2.454   9.784 -0.0404  0.0421  0.6002
  480MOL0     N64682   5.790   2.317   9.776 -0.1272  0.2235  0.9558
  480MOL0     C64683   5.743   2.254   9.661 -0.1063  0.5447 -0.8610
  480MOL0     C64684   5.673   2.149   9.692  0.0284  1.0752 -0.2019
  480MOL0     C64685   5.605   2.054   9.600  0.3249 -1.0213  0.2407
  480MOL0     C64686   5.455   2.052   9.611 -0.1146 -0.2235  0.2711
  480MOL0     C64687   5.391   2.181   9.575  0.1332  0.5891 -0.2606
  480MOL0     C64688   5.237   2.175   9.613  0.3466 -0.0941  0.6058
  480MOL0     O64689   5.170   2.065   9.552 -0.6848  0.4187 -0.5572
  480MOL0     C64690   5.103   2.082   9.434  0.5784  0.0490  0.6240
  480MOL0     C64691   4.990   2.005   9.414  0.3207  0.5306  0.2517
  480MOL0     C64692   4.916   2.016   9.286 -0.0851  0.3656 -0.0522
  480MOL0     C64693   4.785   1.933   9.292 -0.3883  0.2414  0.2109
  480MOL0     C64694   4.956   2.108   9.183 -0.0795 -0.7506  0.1274
  480MOL0     C64695   4.886   2.125   9.059 -0.3475  0.1711 -0.4063
  480MOL0     O64696   4.876   2.248   9.008 -0.2869 -0.1361  0.3346
  480MOL0     C64697   4.812   2.257   8.884  0.0027  0.2104 -0.2190
  480MOL0     C64698   4.888   2.294   8.772 -0.7397 -0.3636 -0.4283
  480MOL0     C64699   4.836   2.306   8.649  0.7046  0.1570 -0.0593
  480MOL0     C64700   4.696   2.278   8.637  0.7892 -0.7943 -0.2483
  480MOL0     O64701   4.626   2.286   8.524 -0.1800  0.3413 -0.2766
  480MOL0     C64702   4.636   2.412   8.455 -0.4552  0.1231  0.1037
  480MOL0     C64703   4.506   2.450   8.383 -0.4484  0.3378  0.3268
  480MOL0     C64704   4.407   2.477   8.489  1.1669 -0.5420  0.2854
  480MOL0     C64705   4.281   2.551   8.450 -0.6925  0.0640  0.5805
  480MOL0     C64706   4.183   2.581   8.568  0.9467  0.1400 -0.6677
  480MOL0     C64707   4.060   2.485   8.571 -0.5862  0.4621  0.1722
  480MOL0     C64708   3.975   2.521   8.689  0.1833  0.1823  0.3023
  480MOL0     C64709   3.823   2.481   8.674  0.4738 -0.2760 -0.5184
  480MOL0    Cl64710   3.810   2.315   8.600  0.2403 -0.2750  0.0021
  480MOL0     C64711   4.620   2.251   8.748 -0.0820 -0.4587 -0.8800
  480MOL0     C64712   4.678   2.233   8.871 -0.4732 -0.2799  0.4457
  480MOL0     O64713   4.844   2.020   9.000  0.0912 -0.6275  0.1038
  480MOL0     C64714   5.060   2.195   9.213  0.6520  1.1588  0.8910
  480MOL0     C64715   5.126   2.179   9.333 -0.3754  0.8953  0.3045
  480MOL0     N64716   5.677   2.135   9.825  0.2719 -0.8777 -0.1476
  480MOL0     N64717   5.751   2.231   9.872 -0.0969  1.1662 -0.0161
  480MOL0     C64718   6.425   2.327   9.406  0.6898 -1.2216 -0.1893
  480MOL0     C64719   6.539   2.256   9.432  1.1567 -0.3976 -0.8028
  480MOL0     C64720   6.839   1.950   9.329 -0.0158 -0.6468 -0.5043
  480MOL0     C64721   6.962   2.014   9.286  0.0156 -0.6696 -0.7626
  480MOL0     C64722   7.072   1.931   9.262  0.0561  0.0221 -0.3096
  480MOL0     C64723   7.069   1.794   9.270  0.0252 -0.1565  0.4795
  480MOL0     O64724   7.190   1.730   9.246 -0.1513  0.4033  0.9093
  480MOL0     C64725   7.192   1.594   9.295 -0.2168 -1.0578 -1.2039
  480MOL0     C64726   7.338   1.559   9.270  0.3198  0.2529  0.8839
  480MOL0     C64727   7.367   1.417   9.323 -0.1206  0.1345 -0.6171
  480MOL0     C64728   7.507   1.369   9.275 -0.1904  0.6355 -0.4938
  480MOL0     C64729   7.547   1.245   9.335  0.1882  0.2298 -1.0177
  480MOL0     C64730   7.562   1.144   9.392 -1.1626  1.0730  0.0558
  480MOL0     C64731   6.940   1.741   9.292  0.5477 -0.1352 -0.3620
  480MOL0     C64732   6.831   1.817   9.317 -1.2633  0.9019  0.6321
  480MOL0     H64733   6.687   2.297   9.132 -0.2451  1.3538  0.3641
  480MOL0     H64734   6.473   2.405   9.086 -2.4147 -3.7661 -0.7816
  480MOL0     H64735   6.376   2.614   9.150 -3.0345  2.8112 -1.8259
  480MOL0     H64736   6.206   2.638   9.189 -1.7367 -0.6839  1.0198
  480MOL0     H64737   6.418   2.633   9.414  0.6992 -2.7160 -2.6612
  480MOL0     H64738   6.372   2.784   9.335 -0.8240  0.2899 -1.3077
  480MOL0     H64739   6.247   2.775   9.522 -2.1146  1.4077 -0.7750
  480MOL0     H64740   6.141   2.740   9.391  0.4448  0.6657  0.6911
  480MOL0     H64741   6.161   2.496   9.463  2.6321 -1.7786  1.1157
  480MOL0     H64742   6.278   2.531   9.574 -0.2916  0.7799  0.8471
  480MOL0     H64743   6.104   2.694   9.697  0.8393  0.8565 -0.8318
  480MOL0     H64744   5.985   2.610   9.586  0.3895 -2.2402 -0.6392
  480MOL0     H64745   6.069   2.378   9.682 -0.7812  0.8359 -1.8961
  480MOL0     H64746   6.178   2.459   9.780  1.7753 -3.8646 -4.0175
  480MOL0     H64747   5.999   2.406   9.911  0.6988  0.2206 -1.0016
  480MOL0     H64748   5.961   2.576   9.892 -3.2039  0.7868  0.1249
  480MOL0     H64749   5.805   2.522   9.702  1.8462 -0.3563 -0.3569
  480MOL0     H64750   5.756   2.492   9.855 -2.1566 -1.4828 -0.6704
  480MOL0     H64751   5.768   2.292   9.562  1.1250  2.7485  0.2145
  480MOL0     H64752   5.625   2.096   9.501 -0.2454 -0.5057  0.3405
  480MOL0     H64753   5.643   1.952   9.606 -0.8140 -1.3954  1.6190
  480MOL0     H64754   5.417   2.029   9.711 -1.5028 -1.9967 -0.5958
  480MOL0     H64755   5.414   1.968   9.553  0.0559  0.6152 -1.1117
  480MOL0     H64756   5.412   2.199   9.469 -0.4113 -0.3952 -0.5424
  480MOL0     H64757   5.440   2.263   9.628 -0.0083  0.2064  0.4595
  480MOL0     H64758   5.180   2.264   9.587 -0.3860 -0.7078  0.0294
  480MOL0     H64759   5.224   2.156   9.720  1.3685  0.6050  0.8702
  480MOL0     H64760   4.960   1.938   9.493  1.1338 -0.0334  0.0908
  480MOL0     H64761   4.714   1.991   9.232 -1.6617 -0.4096  1.0448
  480MOL0     H64762   4.801   1.837   9.242 -1.6684  0.9223 -1.6057
  480MOL0     H64763   4.747   1.924   9.394 -1.2031  1.1524  0.0029
  480MOL0     H64764   4.992   2.322   8.785 -1.2733  1.2525  0.7602
  480MOL0     H64765   4.894   2.365   8.578  0.0738  3.2677  1.8007
  480MOL0     H64766   4.651   2.493   8.527 -3.0732 -0.9560  1.9825
  480MOL0     H64767   4.717   2.411   8.380  0.6965 -2.3225  1.2922
  480MOL0     H64768   4.521   2.539   8.321  0.9635  0.1894  0.4296
  480MOL0     H64769   4.466   2.369   8.320 -0.0954  1.3019 -1.1876
  480MOL0     H64770   4.459   2.533   8.567 -2.6639  2.4492  0.9560
  480MOL0     H64771   4.378   2.386   8.542  0.6567  1.5475  3.8859
  480MOL0     H64772   4.314   2.649   8.413 -0.9272  0.2808  0.9402
  480MOL0     H64773   4.230   2.517   8.360 -0.9436  2.2599 -0.1773
  480MOL0     H64774   4.142   2.682   8.562  0.0093 -0.0471  1.6508
  480MOL0     H64775   4.224   2.577   8.669 -1.9594 -1.0917  0.5739
  480MOL0     H64776   4.004   2.498   8.478 -0.3158  0.6551  0.0354
  480MOL0     H64777   4.089   2.380   8.586  0.4717  0.9581  1.8298
  480MOL0     H64778   3.983   2.628   8.712 -0.7125  0.3424 -0.0738
  480MOL0     H64779   4.010   2.484   8.785  2.3662  3.0483  0.7796
  480MOL0     H64780   3.777   2.550   8.603  0.6268 -0.6016 -0.9374
  480MOL0     H64781   3.778   2.506   8.771  0.7994 -0.8413 -0.2146
  480MOL0     H64782   4.512   2.243   8.736 -0.1521  1.0973 -1.5065
  480MOL0     H64783   4.607   2.218   8.952 -4.0282  2.2061 -1.9080
  480MOL0     H64784   5.106   2.262   9.141  0.9683 -1.6271 -1.6995
  480MOL0     H64785   5.217   2.237   9.341  1.9695 -2.0302 -2.5366
  480MOL0     H64786   6.343   2.316   9.476 -0.6094 -0.0846 -1.4726
  480MOL0     H64787   6.545   2.206   9.528  0.5478  3.3642  1.4400
  480MOL0     H64788   6.973   2.122   9.280  2.5555 -0.9565 -2.7869
  480MOL0     H64789   7.165   1.978   9.233 -0.8715  3.1176  1.2468
  480MOL0     H64790   7.177   1.589   9.404  1.2903 -4.0266 -1.0184
  480MOL0     H64791   7.124   1.528   9.239 -0.6275 -2.1369  0.4759
  480MOL0     H64792   7.398   1.628   9.329 -1.0400 -0.6062  3.4283
  480MOL0     H64793   7.360   1.569   9.164 -2.6047 -0.6902  0.0879
  480MOL0     H64794   7.294   1.341   9.294  0.1703 -2.2818  4.0146
  480MOL0     H64795   7.372   1.436   9.430  6.0978  1.2195 -0.7233
  480MOL0     H64796   7.578   1.451   9.290 -0.1814  0.6272 -0.4908
  480MOL0     H64797   7.508   1.359   9.166  0.2078 -0.0919 -0.4250
  480MOL0     H64798   7.582   1.057   9.451  2.8710  1.6628 -0.1508
  480MOL0     H64799   6.916   1.638   9.316 -2.7054  0.5444 -0.2138
  480MOL0     H64800   6.740   1.770   9.351  0.0567 -0.6599  2.1488
  481MOL0     O64801   1.363   6.932   1.428  0.8035  0.1952 -0.1315
  481MOL0     C64802   1.383   6.833   1.359  0.6034  1.5500 -0.0572
  481MOL0     O64803   1.479   6.831   1.254  0.6848  0.7066 -0.4319
  481MOL0     C64804   1.560   6.945   1.241 -0.2973  0.5292  0.4923
  481MOL0     C64805   1.538   7.017   1.121  0.5578  0.3894 -0.7161
  481MOL0     C64806   1.619   7.125   1.091  0.0257 -0.2886 -0.2925
  481MOL0     C64807   1.714   7.172   1.189 -1.3702  0.4020  0.8821
  481MOL0     O64808   1.782   7.293   1.182  0.3542  0.0631  0.1279
  481MOL0     C64809   1.748   7.376   1.069 -0.9069 -0.2421 -0.7758
  481MOL0     C64810   1.852   7.494   1.061 -0.3073 -0.7206 -0.2870
  481MOL0     C64811   1.984   7.444   1.003  0.1479  0.1603  0.3723
  481MOL0     C64812   2.101   7.539   0.996 -0.4313 -0.2357 -0.1745
  481MOL0     C64813   2.083   7.626   0.872  0.3107 -0.3737  0.4619
  481MOL0     C64814   2.158   7.760   0.863  0.6092 -0.6964 -0.5354
  481MOL0     C64815   2.143   7.855   0.747 -0.7821 -0.2800 -0.7685
  481MOL0     C64816   2.255   7.851   0.649 -0.6484 -0.5012 -0.0104
  481MOL0     N64817   2.277   7.721   0.586  0.3142 -0.1399 -0.0484
  481MOL0     C64818   2.362   7.630   0.639  0.6215  0.6593  0.1415
  481MOL0     C64819   2.378   7.530   0.550 -0.7773 -0.9492  0.3800
  481MOL0     C64820   2.487   7.425   0.549  0.7536 -0.6150 -0.3090
  481MOL0     C64821   2.451   7.295   0.620 -0.8694  0.1635  0.1329
  481MOL0     C64822   2.351   7.309   0.735  0.9199  0.0416  0.1759
  481MOL0     C64823   2.305   7.160   0.758  0.2484 -0.8510 -0.4491
  481MOL0     O64824   2.200   7.155   0.851 -0.2244 -0.4618 -0.2021
  481MOL0     C64825   2.111   7.051   0.850 -0.3293  1.0702 -0.1232
  481MOL0     C64826   2.148   6.918   0.833  0.4259 -0.0502  0.1731
  481MOL0     C64827   2.042   6.818   0.821 -0.5053  0.2198  1.1947
  481MOL0     C64828   2.098   6.685   0.784 -0.6838 -0.2013 -0.0687
  481MOL0     C64829   1.907   6.844   0.839 -0.6600 -0.7375 -0.1627
  481MOL0     C64830   1.801   6.742   0.829  0.7837 -0.4924 -0.1439
  481MOL0     O64831   1.691   6.747   0.910  0.7486  0.0223  0.5448
  481MOL0     C64832   1.585   6.659   0.898  0.0671 -0.1095  0.0464
  481MOL0     C64833   1.457   6.714   0.900  1.0767  0.2855  0.1384
  481MOL0     C64834   1.342   6.642   0.910 -0.1925 -0.0714 -0.6988
  481MOL0     C64835   1.357   6.499   0.885  0.1821  0.2326  0.7498
  481MOL0     O64836   1.246   6.425   0.904  0.1151  0.0932  0.6952
  481MOL0     C64837   1.137   6.470   0.815 -0.0783  0.3798 -0.0349
  481MOL0     C64838   1.007   6.465   0.896  0.4206 -0.2751 -0.4467
  481MOL0     C64839   0.970   6.322   0.946 -0.9265  0.6890 -0.0630
  481MOL0     C64840   0.944   6.232   0.827 -0.0849  0.8614 -0.0262
  481MOL0     C64841   0.873   6.101   0.869  0.0803 -0.0220 -0.3148
  481MOL0     C64842   0.721   6.123   0.892  0.3864 -0.3835  0.7779
  481MOL0     C64843   0.653   5.998   0.934 -1.3490 -0.0034 -0.9270
  481MOL0     C64844   0.515   6.033   0.991  0.1104  0.2439  0.2916
  481MOL0    Cl64845   0.427   5.873   1.040  0.1296 -0.0493 -0.2905
  481MOL0     C64846   1.479   6.441   0.879 -0.8139 -0.3284 -0.3758
  481MOL0     C64847   1.599   6.517   0.883 -0.6622 -0.2254 -0.3487
  481MOL0     O64848   1.813   6.661   0.738 -0.1353  0.0168 -0.2825
  481MOL0     C64849   1.882   6.974   0.898 -0.1998  0.1052 -0.3930
  481MOL0     C64850   1.975   7.073   0.892 -0.6534  0.2141  0.4706
  481MOL0     N64851   2.295   7.569   0.438 -0.3260  1.0400 -0.2823
  481MOL0     N64852   2.249   7.690   0.453 -0.7131  0.1695  0.5291
  481MOL0     C64853   1.740   7.089   1.301  0.5788  0.8681 -0.0231
  481MOL0     C64854   1.659   6.981   1.333  0.4576  0.0553  0.5215
  481MOL0     C64855   1.315   6.714   1.381  1.3181  0.1545 -0.3918
  481MOL0     C64856   1.282   6.674   1.517 -0.1929  0.3061 -0.2954
  481MOL0     C64857   1.194   6.568   1.538 -0.3397 -0.1267  0.2768
  481MOL0     C64858   1.138   6.485   1.439  0.1889  0.0611  0.6229
  481MOL0     O64859   1.072   6.372   1.483 -0.1835  0.3917  0.5914
  481MOL0     C64860   1.019   6.278   1.382 -0.2503 -0.6256 -0.1458
  481MOL0     C64861   0.924   6.175   1.452  0.5030  0.8341  0.7566
  481MOL0     C64862   0.880   6.080   1.341  0.6381 -0.1191 -0.1138
  481MOL0     C64863   0.770   5.973   1.377 -0.2255 -0.7504 -0.7878
  481MOL0     C64864   0.641   6.035   1.402 -0.3152 -0.3640 -0.6945
  481MOL0     C64865   0.533   6.080   1.426 -0.2800  1.3280 -0.4945
  481MOL0     C64866   1.178   6.522   1.306  0.0867  0.4554 -0.4414
  481MOL0     C64867   1.268   6.629   1.278  0.0405  0.2996  0.3592
  481MOL0     H64868   1.455   6.991   1.056 -0.8036  0.1240  1.0562
  481MOL0     H64869   1.596   7.194   1.011  3.1360  2.1910  0.7605
  481MOL0     H64870   1.765   7.318   0.977  0.9805 -2.5866  0.9048
  481MOL0     H64871   1.644   7.407   1.073 -0.7515  0.2992  3.5553
  481MOL0     H64872   1.811   7.577   1.003  3.5460  2.6832  1.3428
  481MOL0     H64873   1.856   7.540   1.160  0.7243 -2.3809  0.4700
  481MOL0     H64874   2.013   7.367   1.075 -2.2831 -2.9524 -1.7185
  481MOL0     H64875   1.971   7.402   0.904 -0.9452  3.0635 -0.8322
  481MOL0     H64876   2.104   7.611   1.078  0.1713  1.2389 -1.4457
  481MOL0     H64877   2.194   7.482   0.992 -1.4309 -1.9576 -0.0151
  481MOL0     H64878   2.121   7.567   0.789  1.9229  2.2786 -0.8292
  481MOL0     H64879   1.979   7.651   0.847  1.2600  2.0791 -1.5040
  481MOL0     H64880   2.120   7.815   0.950  0.4982 -0.2670 -0.8582
  481MOL0     H64881   2.265   7.745   0.882  0.5862  0.2744  0.4641
  481MOL0     H64882   2.051   7.830   0.692 -0.7179  0.8652 -1.4196
  481MOL0     H64883   2.130   7.958   0.780 -1.1323 -1.0224  1.5593
  481MOL0     H64884   2.341   7.873   0.713  0.2197 -1.7449 -0.7031
  481MOL0     H64885   2.239   7.933   0.578 -2.9840 -1.8291 -1.1042
  481MOL0     H64886   2.408   7.659   0.732  1.3252  3.1545 -0.9145
  481MOL0     H64887   2.514   7.407   0.445 -0.2767  1.5603 -1.0111
  481MOL0     H64888   2.571   7.471   0.601 -2.2256  1.9845  2.6591
  481MOL0     H64889   2.550   7.255   0.644  0.3351  2.0815 -1.2685
  481MOL0     H64890   2.415   7.229   0.541  0.1211  1.4469 -1.4765
  481MOL0     H64891   2.266   7.365   0.695 -0.1227 -1.0306  0.8273
  481MOL0     H64892   2.402   7.367   0.813 -1.5251  1.9647  0.4897
  481MOL0     H64893   2.385   7.097   0.799 -2.4453 -2.0575  3.5916
  481MOL0     H64894   2.278   7.117   0.661 -0.3123 -0.5356 -0.4348
  481MOL0     H64895   2.254   6.898   0.821  0.2884  0.4460 -2.3727
  481MOL0     H64896   2.062   6.650   0.687  1.8859 -1.5482 -0.6241
  481MOL0     H64897   2.207   6.694   0.787 -0.6941 -0.0476 -0.1107
  481MOL0     H64898   2.063   6.615   0.860  0.7196 -2.9057 -1.7536
  481MOL0     H64899   1.438   6.820   0.891 -2.0834 -0.3326 -2.6402
  481MOL0     H64900   1.247   6.688   0.937 -0.2325 -0.5454  0.0017
  481MOL0     H64901   1.139   6.572   0.776 -0.5943  0.4415  0.0873
  481MOL0     H64902   1.136   6.398   0.733  2.3985  0.7450 -0.4517
  481MOL0     H64903   1.013   6.527   0.986  3.8948 -2.1874  0.8594
  481MOL0     H64904   0.925   6.503   0.835 -0.3218  0.7931  1.1416
  481MOL0     H64905   0.881   6.314   1.010 -1.7338  0.4445 -1.1799
  481MOL0     H64906   1.056   6.282   1.000  0.3611  1.9830 -1.0947
  481MOL0     H64907   0.885   6.283   0.750 -2.8955  0.2594  1.5935
  481MOL0     H64908   1.035   6.196   0.779 -0.4770  0.6908 -0.6663
  481MOL0     H64909   0.919   6.071   0.964  1.3245 -2.7353 -1.6539
  481MOL0     H64910   0.897   6.022   0.797  0.2880 -0.2986  0.0526
  481MOL0     H64911   0.695   6.203   0.962  0.9486  0.1398  0.3921
  481MOL0     H64912   0.673   6.160   0.801  0.9018 -1.6691 -0.0459
  481MOL0     H64913   0.712   5.950   1.012 -1.3238 -0.7045 -1.3680
  481MOL0     H64914   0.652   5.921   0.856 -1.0887 -2.5226  1.4320
  481MOL0     H64915   0.467   6.093   0.914  0.7683  0.7953  0.3027
  481MOL0     H64916   0.518   6.074   1.092 -1.6489 -0.9422  0.8785
  481MOL0     H64917   1.483   6.333   0.879 -2.9843 -0.4602  1.5010
  481MOL0     H64918   1.697   6.472   0.888 -0.7288 -0.3920 -0.5373
  481MOL0     H64919   1.783   6.985   0.941  0.0100  1.1787 -0.1652
  481MOL0     H64920   1.939   7.168   0.929  0.9589  1.2102 -0.3943
  481MOL0     H64921   1.815   7.130   1.369  0.5799  1.0256 -0.1173
  481MOL0     H64922   1.680   6.914   1.416  2.9605 -3.5639 -2.6425
  481MOL0     H64923   1.316   6.717   1.610 -1.7353 -0.8948  0.8693
  481MOL0     H64924   1.182   6.535   1.641  0.7052  0.8927  0.7496
  481MOL0     H64925   0.968   6.329   1.300  1.0727 -1.2828 -1.4338
  481MOL0     H64926   1.098   6.221   1.333 -0.8817 -2.1876  0.5840
  481MOL0     H64927   0.833   6.219   1.494  0.2462 -0.5128  1.6952
  481MOL0     H64928   0.968   6.126   1.539 -2.3879 -1.0101  1.3273
  481MOL0     H64929   0.975   6.029   1.326  0.8004  0.0782  0.2221
  481MOL0     H64930   0.844   6.127   1.249 -1.0384 -0.9487  0.0658
  481MOL0     H64931   0.809   5.920   1.465 -1.6773  0.4944  0.6580
  481MOL0     H64932   0.775   5.897   1.298  1.0137 -0.3938 -1.0670
  481MOL0     H64933   0.428   6.093   1.444 -0.5562 -2.2053  1.3611
  481MOL0     H64934   1.140   6.471   1.218 -3.6745  0.0991  1.2164
  481MOL0     H64935   1.297   6.641   1.174  0.2270  1.5793  0.5429
  482MOL0     O64936   5.831   1.697   1.442 -0.2345 -0.4608  0.3129
  482MOL0     C64937   5.851   1.820   1.463  0.0755  0.6292  0.6450
  482MOL0     O64938   5.747   1.913   1.486 -0.1947 -0.5339  0.7442
  482MOL0     C64939   5.627   1.885   1.425 -0.0633 -0.2711 -0.9308
  482MOL0     C64940   5.522   1.806   1.472 -0.5274 -0.1623  0.6566
  482MOL0     C64941   5.391   1.815   1.418 -0.6070  0.8367 -0.1151
  482MOL0     C64942   5.373   1.885   1.295 -0.8064 -0.4580 -0.4676
  482MOL0     O64943   5.244   1.897   1.242 -0.7923 -0.5543  0.4100
  482MOL0     C64944   5.221   1.940   1.108  0.0224 -0.7702  0.2865
  482MOL0     C64945   5.070   1.943   1.080 -0.1445 -0.7539  1.6031
  482MOL0     C64946   5.025   1.968   0.935 -0.1306  0.3826  0.4181
  482MOL0     C64947   4.875   1.986   0.925 -0.1824  0.1246 -0.0786
  482MOL0     C64948   4.838   2.035   0.787  0.9025 -0.3488  0.3784
  482MOL0     C64949   4.695   2.069   0.772  0.9029  0.0027 -0.0208
  482MOL0     C64950   4.600   1.943   0.770  0.4893  0.2335 -0.2275
  482MOL0     C64951   4.541   1.912   0.907 -0.1718 -0.1686 -0.2585
  482MOL0     N64952   4.451   2.014   0.956 -0.0835  0.5385 -0.7196
  482MOL0     C64953   4.402   2.129   0.896  0.4902  0.1583 -0.6814
  482MOL0     C64954   4.329   2.191   0.995 -0.2040  0.4821  0.6904
  482MOL0     C64955   4.247   2.314   0.983 -0.0927 -0.5770 -0.7687
  482MOL0     C64956   4.113   2.279   0.911 -1.3064  0.8773  0.0461
  482MOL0     C64957   4.017   2.185   0.998  0.1832  0.8831  0.4944
  482MOL0     C64958   3.875   2.184   0.932  0.3059  0.0667 -0.3445
  482MOL0     O64959   3.861   2.123   0.804  0.2897  0.6330 -0.4997
  482MOL0     C64960   3.736   2.084   0.765  0.9495 -0.3872 -0.2489
  482MOL0     C64961   3.626   2.170   0.759 -0.3653 -0.3152 -0.1217
  482MOL0     C64962   3.500   2.123   0.725  0.4845  0.9246  0.1268
  482MOL0     C64963   3.395   2.228   0.731  0.1027  1.5575  0.2013
  482MOL0     C64964   3.488   1.981   0.694  0.2516  0.2537  0.2506
  482MOL0     C64965   3.355   1.922   0.654 -0.2229 -0.4062  0.6519
  482MOL0     O64966   3.252   2.004   0.604  0.2348  0.8594 -0.5463
  482MOL0     C64967   3.129   1.950   0.584  0.3308 -0.1553 -0.3121
  482MOL0     C64968   3.027   2.047   0.564 -0.2876  0.2813 -0.6857
  482MOL0     C64969   2.898   2.012   0.532  0.1025 -0.0198  0.7231
  482MOL0     C64970   2.865   1.877   0.518  1.0107  0.5428 -0.6825
  482MOL0     O64971   2.730   1.845   0.505 -0.2904 -0.2545  0.5051
  482MOL0     C64972   2.696   1.776   0.382 -0.0905  0.3795  0.1599
  482MOL0     C64973   2.552   1.719   0.379 -0.0615  0.6479  0.5777
  482MOL0     C64974   2.518   1.628   0.491  0.1072 -0.5366 -0.0590
  482MOL0     C64975   2.373   1.579   0.476 -0.2181  0.2429  0.9420
  482MOL0     C64976   2.337   1.481   0.590  1.0219  0.1596  0.1510
  482MOL0     C64977   2.188   1.445   0.581  0.2353  0.1335 -0.4999
  482MOL0     C64978   2.142   1.393   0.723  1.0456  0.3276  1.0574
  482MOL0     C64979   1.991   1.360   0.713  0.6092  0.2599 -0.6002
  482MOL0    Cl64980   1.936   1.298   0.875  0.2147  0.1655 -0.1041
  482MOL0     C64981   2.959   1.786   0.533 -0.4751  0.2783  1.1197
  482MOL0     C64982   3.086   1.818   0.566  0.0121  0.1378 -0.3038
  482MOL0     O64983   3.348   1.802   0.666 -0.1160  0.3739 -0.1048
  482MOL0     C64984   3.597   1.890   0.711 -0.4445 -0.3427 -0.3401
  482MOL0     C64985   3.723   1.948   0.738 -0.5088  0.1225 -1.2671
  482MOL0     N64986   4.334   2.116   1.111  0.3442 -0.3649  0.5022
  482MOL0     N64987   4.409   2.011   1.084 -0.1652 -0.0561  0.2420
  482MOL0     C64988   5.479   1.962   1.253  0.2144 -0.2505  0.7139
  482MOL0     C64989   5.607   1.959   1.312 -0.2833 -0.3470 -0.6134
  482MOL0     C64990   5.989   1.872   1.449  0.2472  0.9154  0.0951
  482MOL0     C64991   6.101   1.795   1.420 -0.0183 -0.3877  0.9426
  482MOL0     C64992   6.224   1.856   1.399  0.2358 -0.2455  0.5957
  482MOL0     C64993   6.251   1.989   1.404  0.2466 -1.1253  0.8264
  482MOL0     O64994   6.390   2.015   1.397  0.3293  1.0183 -0.4222
  482MOL0     C64995   6.422   2.141   1.451  0.4686 -0.3178  0.0400
  482MOL0     C64996   6.577   2.157   1.446 -0.2412 -0.8537  0.2236
  482MOL0     C64997   6.640   2.098   1.572  0.0982  0.4326 -0.1593
  482MOL0     C64998   6.797   2.130   1.582  0.7335  1.7258  0.2917
  482MOL0     C64999   6.864   2.067   1.468 -0.2167 -0.2581  0.0429
  482MOL0     C65000   6.933   2.013   1.387  0.3885 -1.0152 -0.2456
  482MOL0     C65001   6.138   2.072   1.443 -0.5377 -0.2821  0.1905
  482MOL0     C65002   6.009   2.009   1.461 -0.0648  0.2990  0.0904
  482MOL0     H65003   5.539   1.739   1.556  0.9208 -2.1365 -1.1093
  482MOL0     H65004   5.300   1.767   1.451 -1.1211  0.4082 -1.9931
  482MOL0     H65005   5.264   2.039   1.091  0.5656 -1.4170 -2.5175
  482MOL0     H65006   5.265   1.871   1.036  0.0658  0.0649 -0.5114
  482MOL0     H65007   5.021   1.852   1.118 -0.1767 -0.6863  1.7249
  482MOL0     H65008   5.028   2.023   1.142 -1.3864 -2.1883  2.7046
  482MOL0     H65009   5.066   2.063   0.899  0.0510  0.4619  0.8267
  482MOL0     H65010   5.047   1.883   0.870  0.0097  0.5537  0.2399
  482MOL0     H65011   4.823   1.894   0.955 -2.1543  0.9533 -0.7464
  482MOL0     H65012   4.849   2.063   0.998  2.3603  1.3801 -0.4134
  482MOL0     H65013   4.891   2.129   0.768 -0.6039  0.5923  0.6546
  482MOL0     H65014   4.868   1.959   0.715 -0.2941  0.3363 -0.8981
  482MOL0     H65015   4.664   2.141   0.848  0.5124 -1.5650  1.3624
  482MOL0     H65016   4.684   2.121   0.677  1.4197 -0.5577 -0.3951
  482MOL0     H65017   4.514   1.969   0.709  0.7127  2.2568  0.2513
  482MOL0     H65018   4.657   1.857   0.733 -1.4573 -2.0618  1.7838
  482MOL0     H65019   4.620   1.915   0.983 -0.0792  1.9614 -0.3971
  482MOL0     H65020   4.481   1.821   0.916 -0.3813  0.0795  1.1197
  482MOL0     H65021   4.407   2.170   0.795  0.7687 -0.5530 -0.9605
  482MOL0     H65022   4.218   2.351   1.082 -0.3038 -0.9240 -0.7006
  482MOL0     H65023   4.307   2.395   0.940 -1.6288  0.3366 -1.2672
  482MOL0     H65024   4.133   2.223   0.819 -2.6015 -1.3136  1.0297
  482MOL0     H65025   4.064   2.374   0.888 -0.2507  0.9663 -2.0357
  482MOL0     H65026   4.010   2.224   1.100 -1.8168  0.4351  0.5625
  482MOL0     H65027   4.052   2.082   1.009 -0.8316  0.5500  0.6771
  482MOL0     H65028   3.842   2.287   0.918  1.4898  0.4234 -0.6294
  482MOL0     H65029   3.809   2.143   1.010 -1.5123 -0.4105 -2.0394
  482MOL0     H65030   3.646   2.276   0.773  1.0521 -0.7131  1.0405
  482MOL0     H65031   3.423   2.325   0.772 -0.8057  2.8413 -2.0584
  482MOL0     H65032   3.360   2.246   0.629 -1.4026  2.0296  0.7755
  482MOL0     H65033   3.304   2.190   0.779  0.6338  2.4356  1.9614
  482MOL0     H65034   3.054   2.151   0.579  1.2344 -0.3302  1.2542
  482MOL0     H65035   2.821   2.088   0.522  0.2471 -0.0626 -1.1224
  482MOL0     H65036   2.725   1.848   0.306 -1.6453 -0.5633 -1.3842
  482MOL0     H65037   2.761   1.688   0.374  2.7585  2.3432  0.0295
  482MOL0     H65038   2.483   1.804   0.381 -0.3700  0.4048  0.3252
  482MOL0     H65039   2.534   1.663   0.288 -0.5300 -0.4744  1.3464
  482MOL0     H65040   2.522   1.689   0.582  0.0199 -0.2959 -0.2165
  482MOL0     H65041   2.587   1.545   0.509 -0.8886 -1.6830 -1.3824
  482MOL0     H65042   2.300   1.660   0.466 -0.8013 -0.3544  0.2507
  482MOL0     H65043   2.374   1.506   0.395 -0.6835 -0.3955  1.5006
  482MOL0     H65044   2.373   1.529   0.681  2.4966  0.9935 -0.8191
  482MOL0     H65045   2.381   1.383   0.569  0.0740 -0.0899 -0.7674
  482MOL0     H65046   2.136   1.541   0.581  0.6175  0.4116  2.3006
  482MOL0     H65047   2.167   1.377   0.498 -1.1604  1.5385 -1.3606
  482MOL0     H65048   2.150   1.472   0.798 -1.5932  2.5401 -0.8051
  482MOL0     H65049   2.193   1.305   0.764 -0.2809 -0.0031  2.0758
  482MOL0     H65050   1.967   1.277   0.645  1.4544 -1.7087  1.3703
  482MOL0     H65051   1.926   1.446   0.697  1.1456  0.8983  0.5076
  482MOL0     H65052   2.929   1.682   0.530  1.7104 -0.3979 -1.8386
  482MOL0     H65053   3.162   1.740   0.569  0.7200  0.8136 -0.1962
  482MOL0     H65054   3.587   1.782   0.699  1.0886 -0.7432  1.4796
  482MOL0     H65055   3.804   1.879   0.759 -0.5362  0.5083  0.2764
  482MOL0     H65056   5.455   2.037   1.178 -2.9189  0.6525  2.4279
  482MOL0     H65057   5.690   2.021   1.281  1.5127 -2.0922  0.4405
  482MOL0     H65058   6.094   1.687   1.421 -2.0160 -0.3464 -0.7806
  482MOL0     H65059   6.307   1.788   1.383  0.3513  0.0162  0.0682
  482MOL0     H65060   6.376   2.211   1.380  0.8986 -0.7217 -0.6512
  482MOL0     H65061   6.381   2.148   1.552  1.9331  1.1752  0.5801
  482MOL0     H65062   6.594   2.265   1.443  0.1529 -0.8687  1.4734
  482MOL0     H65063   6.620   2.118   1.354  0.1769 -3.9772  1.6144
  482MOL0     H65064   6.608   1.995   1.586 -0.6314  0.5236 -1.0425
  482MOL0     H65065   6.594   2.151   1.655  2.8828  2.2270  0.3899
  482MOL0     H65066   6.838   2.104   1.680 -1.2644  0.0787  0.7456
  482MOL0     H65067   6.816   2.238   1.579 -0.3238  1.9252  0.4623
  482MOL0     H65068   7.000   1.986   1.308 -0.5898 -0.5157 -1.2778
  482MOL0     H65069   6.137   2.179   1.455 -3.0086 -0.1726 -0.4649
  482MOL0     H65070   5.924   2.067   1.494 -0.0915 -0.1512  0.8282
  483MOL0     O65071   7.539   4.961   0.685 -0.8322  0.1468  0.3913
  483MOL0     C65072   7.539   5.018   0.578  0.1930 -0.3252  0.3054
  483MOL0     O65073   7.422   5.017   0.496 -0.2597 -0.8463 -0.2740
  483MOL0     C65074   7.299   4.964   0.533 -0.2290 -0.4516 -0.9107
  483MOL0     C65075   7.256   4.943   0.671  0.2574 -0.5767  0.3358
  483MOL0     C65076   7.139   4.868   0.697  0.7093  0.2726  0.0087
  483MOL0     C65077   7.055   4.822   0.598 -0.8055 -1.1225 -1.2733
  483MOL0     O65078   6.934   4.766   0.623  0.3700 -0.7464  0.0173
  483MOL0     C65079   6.896   4.713   0.752  0.3019 -1.4041 -0.0703
  483MOL0     C65080   6.776   4.616   0.745 -0.9307 -0.0746  0.9911
  483MOL0     C65081   6.732   4.566   0.885 -0.2056  0.3819 -0.3321
  483MOL0     C65082   6.592   4.504   0.876 -0.3754 -0.8269 -0.1469
  483MOL0     C65083   6.562   4.401   0.983 -0.1222  0.4580  0.1065
  483MOL0     C65084   6.434   4.334   0.947 -0.0270  1.0846 -0.7781
  483MOL0     C65085   6.402   4.217   1.041 -0.4687  0.0893  0.0541
  483MOL0     C65086   6.255   4.173   1.025 -0.4809  0.4307 -0.7115
  483MOL0     N65087   6.208   4.096   1.149 -0.1638  0.7806 -0.5535
  483MOL0     C65088   6.100   4.127   1.233  0.2181 -0.2151 -0.2786
  483MOL0     C65089   6.080   4.012   1.306 -0.0191  0.4987 -0.2659
  483MOL0     C65090   5.955   3.992   1.397  0.1528 -0.1496  0.7652
  483MOL0     C65091   5.945   4.097   1.508 -0.4649 -0.6550 -0.2843
  483MOL0     C65092   5.882   4.041   1.639  0.3193  0.3841  0.3058
  483MOL0     C65093   5.906   4.104   1.775 -0.2575 -0.6174  0.6335
  483MOL0     O65094   5.828   4.222   1.803  0.1569  0.1403 -0.3221
  483MOL0     C65095   5.710   4.202   1.864  0.5431 -0.8217 -0.0051
  483MOL0     C65096   5.601   4.195   1.774  0.6630 -0.2997 -0.5356
  483MOL0     C65097   5.484   4.143   1.825  0.4812 -0.9741  0.0280
  483MOL0     C65098   5.376   4.120   1.722  0.0563 -0.4920  0.1028
  483MOL0     C65099   5.456   4.123   1.960  0.3238  0.2698 -0.0785
  483MOL0     C65100   5.323   4.065   1.997  0.0201  0.2351 -0.3938
  483MOL0     O65101   5.226   4.162   2.008 -0.8089 -0.7041  0.1162
  483MOL0     C65102   5.110   4.114   2.060 -0.2592  0.5117  0.1174
  483MOL0     C65103   5.059   4.179   2.174  0.1474  0.6831  0.2063
  483MOL0     C65104   4.938   4.138   2.231 -0.1875 -0.2854 -0.0086
  483MOL0     C65105   4.865   4.033   2.184 -0.0346  0.2526 -0.1034
  483MOL0     O65106   4.769   3.973   2.271  0.8725 -0.6296  0.2259
  483MOL0     C65107   4.679   3.866   2.226 -0.5649 -0.3930  0.1756
  483MOL0     C65108   4.576   3.924   2.124  0.2276  0.4722  0.1788
  483MOL0     C65109   4.458   3.832   2.080 -0.3032  0.5541  0.5542
  483MOL0     C65110   4.505   3.714   1.988  0.2537 -0.4556 -0.1876
  483MOL0     C65111   4.400   3.642   1.901 -0.2479  0.2210 -0.6207
  483MOL0     C65112   4.283   3.732   1.851  0.0447  0.4631 -0.3071
  483MOL0     C65113   4.196   3.647   1.762  0.0926 -0.0473 -0.4345
  483MOL0     C65114   4.233   3.663   1.613 -0.0344  0.0254 -0.5994
  483MOL0    Cl65115   4.141   3.545   1.522  0.4646 -0.0653  0.4605
  483MOL0     C65116   4.907   3.967   2.069 -1.1933  0.0817  0.7799
  483MOL0     C65117   5.029   4.011   2.009  0.0268 -0.3669  0.7453
  483MOL0     O65118   5.316   3.950   2.041 -0.1421  0.9683  0.3963
  483MOL0     C65119   5.563   4.129   2.045 -0.5711 -0.4610  0.1540
  483MOL0     C65120   5.690   4.164   1.994  0.2858 -0.0157  0.2619
  483MOL0     N65121   6.180   3.918   1.271  0.1370  0.2720 -0.2145
  483MOL0     N65122   6.258   3.974   1.179  1.3535 -0.4905  0.3969
  483MOL0     C65123   7.094   4.841   0.470  0.2535  0.0114  0.3565
  483MOL0     C65124   7.218   4.910   0.441 -0.5875  0.5656  0.0958
  483MOL0     C65125   7.660   5.088   0.544  0.9054  0.1499  0.7846
  483MOL0     C65126   7.770   5.116   0.623  0.1601 -0.9088 -0.2178
  483MOL0     C65127   7.885   5.176   0.575 -0.0023  0.0420 -0.1750
  483MOL0     C65128   7.898   5.209   0.440 -0.0648 -0.1018  0.6384
  483MOL0     O65129   8.015   5.251   0.374 -0.5459 -0.8443  0.4240
  483MOL0     C65130   8.141   5.212   0.421 -0.5604  0.4127 -0.4278
  483MOL0     C65131   8.231   5.335   0.437 -0.3270 -1.0855  0.5960
  483MOL0     C65132   8.325   5.320   0.558 -0.3225 -0.1217  0.2774
  483MOL0     C65133   8.256   5.345   0.694 -0.2340 -0.0590 -1.4271
  483MOL0     C65134   8.364   5.367   0.793 -0.7985 -0.4288  0.1018
  483MOL0     C65135   8.460   5.379   0.872  0.3260  0.1820  0.4857
  483MOL0     C65136   7.793   5.186   0.357  0.4560 -0.1337 -1.0161
  483MOL0     C65137   7.676   5.125   0.406  1.1940 -0.4511 -1.0946
  483MOL0     H65138   7.306   4.964   0.764  1.0168 -1.0896  0.0486
  483MOL0     H65139   7.109   4.846   0.799 -1.2983 -0.0857 -0.6057
  483MOL0     H65140   6.979   4.650   0.785  1.5460 -1.1567 -2.5005
  483MOL0     H65141   6.875   4.795   0.822  1.1294 -1.1699 -0.0904
  483MOL0     H65142   6.700   4.666   0.684  1.0392  3.7119  1.3639
  483MOL0     H65143   6.800   4.535   0.675 -1.5020  0.4860  0.1219
  483MOL0     H65144   6.799   4.487   0.921 -4.2851 -2.6736  1.4177
  483MOL0     H65145   6.737   4.649   0.956  3.7607 -0.6202  0.7750
  483MOL0     H65146   6.519   4.585   0.886 -1.3424 -1.9992  4.0477
  483MOL0     H65147   6.585   4.446   0.783  0.2220 -1.7094  0.3451
  483MOL0     H65148   6.646   4.332   0.988 -1.2839 -1.0231 -0.1496
  483MOL0     H65149   6.560   4.448   1.082 -0.0192 -1.9791  1.3297
  483MOL0     H65150   6.360   4.414   0.952 -0.3793  0.6899  0.9164
  483MOL0     H65151   6.440   4.284   0.850  0.7664 -3.1172  1.2174
  483MOL0     H65152   6.476   4.137   1.024  0.9580  1.3237  0.2154
  483MOL0     H65153   6.419   4.257   1.141  3.0800  1.2321 -0.8431
  483MOL0     H65154   6.245   4.114   0.934  0.5109 -1.2141  0.2010
  483MOL0     H65155   6.189   4.260   1.023 -0.2489  0.6192 -0.4233
  483MOL0     H65156   6.041   4.217   1.233  1.0732  0.3699  0.5846
  483MOL0     H65157   5.863   3.982   1.338  2.0198 -1.9173 -2.1569
  483MOL0     H65158   5.981   3.894   1.440  0.2564 -0.9279 -0.9783
  483MOL0     H65159   5.891   4.184   1.470 -0.9290 -0.7240  0.2095
  483MOL0     H65160   6.047   4.131   1.532 -0.9108  1.3288 -0.9549
  483MOL0     H65161   5.922   3.939   1.642  2.6162  1.1473 -1.6977
  483MOL0     H65162   5.775   4.041   1.615  0.4759  3.4188 -0.8023
  483MOL0     H65163   6.011   4.135   1.783 -0.6016  1.6844 -2.0878
  483MOL0     H65164   5.886   4.035   1.857 -3.5812 -1.7993 -0.9780
  483MOL0     H65165   5.597   4.223   1.669 -1.3015 -1.6724 -0.8926
  483MOL0     H65166   5.419   4.084   1.629  0.3894 -0.1370  0.1192
  483MOL0     H65167   5.306   4.041   1.752 -3.1675  1.7332 -0.9415
  483MOL0     H65168   5.335   4.221   1.713  1.1690 -0.1274 -1.1494
  483MOL0     H65169   5.110   4.258   2.230 -1.4368  1.1864  0.9866
  483MOL0     H65170   4.913   4.201   2.315  3.5164 -0.9030  1.7446
  483MOL0     H65171   4.726   3.790   2.163  1.4835 -1.0610  2.3737
  483MOL0     H65172   4.646   3.819   2.319 -0.6941  1.0486  0.8958
  483MOL0     H65173   4.532   4.014   2.169  2.3360  2.2544 -1.1010
  483MOL0     H65174   4.624   3.964   2.034 -1.9322  1.5362 -0.5689
  483MOL0     H65175   4.396   3.899   2.019  2.3252  2.0900 -0.6059
  483MOL0     H65176   4.401   3.801   2.168  1.3334 -1.4309  0.9886
  483MOL0     H65177   4.570   3.749   1.907  1.0797 -2.4051 -0.4062
  483MOL0     H65178   4.555   3.640   2.051 -0.3726 -1.1029 -0.4487
  483MOL0     H65179   4.346   3.570   1.964  1.5482  1.2654  2.3053
  483MOL0     H65180   4.448   3.599   1.813 -0.4551  0.9301 -1.0795
  483MOL0     H65181   4.227   3.774   1.935  1.8195  1.1769  0.5686
  483MOL0     H65182   4.319   3.815   1.790  1.3486  0.2973  0.1985
  483MOL0     H65183   4.093   3.681   1.779 -0.3634 -0.7043 -1.7320
  483MOL0     H65184   4.213   3.542   1.788 -2.5918 -0.1279  1.4293
  483MOL0     H65185   4.339   3.636   1.604 -0.1755 -2.1363  2.5271
  483MOL0     H65186   4.209   3.761   1.573 -3.3831  0.4100  1.8899
  483MOL0     H65187   4.853   3.891   2.014 -0.5886  0.7601 -0.8122
  483MOL0     H65188   5.076   3.975   1.918 -0.3887  0.4966  0.1782
  483MOL0     H65189   5.556   4.112   2.152  0.0405  0.1346  0.2954
  483MOL0     H65190   5.781   4.150   2.051 -0.1813  1.7292  1.5388
  483MOL0     H65191   7.022   4.807   0.396  1.4570 -0.7333 -0.5191
  483MOL0     H65192   7.244   4.916   0.336  0.9499 -0.7793  0.3570
  483MOL0     H65193   7.774   5.074   0.723  0.0278 -1.4947 -0.4546
  483MOL0     H65194   7.957   5.185   0.655  0.2244 -1.3238 -0.2030
  483MOL0     H65195   8.140   5.166   0.520  2.5787  1.3829  0.1825
  483MOL0     H65196   8.184   5.157   0.337  0.8881  0.5101  0.2070
  483MOL0     H65197   8.176   5.428   0.453  0.5875 -0.6065  1.0152
  483MOL0     H65198   8.307   5.352   0.361 -0.7805 -0.1099  0.3450
  483MOL0     H65199   8.408   5.390   0.545 -0.4546 -0.3546 -2.1672
  483MOL0     H65200   8.370   5.221   0.568 -1.2077 -0.5061  0.5474
  483MOL0     H65201   8.193   5.266   0.735 -0.3344  0.3972 -0.6659
  483MOL0     H65202   8.198   5.438   0.697  1.1606  0.8570  1.4325
  483MOL0     H65203   8.547   5.384   0.934 -0.3408 -1.4958  1.5919
  483MOL0     H65204   7.794   5.218   0.253 -1.9727  0.0056 -1.0528
  483MOL0     H65205   7.598   5.109   0.332 -0.2886 -0.5333  0.4179
  484MOL0     O65206   9.099   1.856   2.437  0.8442 -0.0094 -0.1817
  484MOL0     C65207   9.144   1.956   2.386 -0.4248 -0.4270  0.6858
  484MOL0     O65208   9.078   2.078   2.375  0.5050 -0.0208  0.7599
  484MOL0     C65209   8.949   2.073   2.421  0.6559  0.0382  0.9631
  484MOL0     C65210   8.922   2.095   2.556  0.6951  0.1208 -0.5196
  484MOL0     C65211   8.786   2.123   2.598 -0.0385 -0.7734 -0.0723
  484MOL0     C65212   8.676   2.119   2.516  0.3793  0.1551 -0.2664
  484MOL0     O65213   8.548   2.144   2.570  0.1736  0.0146  0.3409
  484MOL0     C65214   8.440   2.076   2.498  0.2501  0.6356 -0.5965
  484MOL0     C65215   8.311   2.089   2.587  0.9640  0.1152  0.1623
  484MOL0     C65216   8.333   2.018   2.721 -0.9427 -0.7245 -0.1082
  484MOL0     C65217   8.202   2.009   2.806  0.3821 -0.3363 -0.4140
  484MOL0     C65218   8.218   1.941   2.938  0.2930  0.1939 -0.1374
  484MOL0     C65219   8.252   1.791   2.939  0.4975 -0.2101  0.0376
  484MOL0     C65220   8.276   1.733   3.082 -0.2512 -0.7620  1.4704
  484MOL0     C65221   8.417   1.743   3.142 -0.0688  0.0341 -0.5321
  484MOL0     N65222   8.530   1.729   3.053 -0.4434  0.9537  0.3259
  484MOL0     C65223   8.606   1.829   2.994  0.0305 -0.1802  0.0867
  484MOL0     C65224   8.684   1.765   2.905 -0.4033  0.8701 -0.5687
  484MOL0     C65225   8.794   1.827   2.829 -0.7601 -0.5465 -0.5784
  484MOL0     C65226   8.898   1.727   2.780 -0.1307 -0.1884  0.2399
  484MOL0     C65227   9.023   1.803   2.760 -0.3674 -0.0856 -0.5645
  484MOL0     C65228   9.135   1.706   2.729 -0.9029  0.0133 -0.0965
  484MOL0     O65229   9.176   1.651   2.857  0.0235 -0.4357  0.1385
  484MOL0     C65230   9.293   1.577   2.867  0.8241  0.2799  0.1002
  484MOL0     C65231   9.306   1.510   2.994 -0.5150 -0.1628  0.4602
  484MOL0     C65232   9.417   1.422   3.011 -0.4378 -0.2181  0.3467
  484MOL0     C65233   9.420   1.337   3.137 -0.5293 -0.1310 -0.0782
  484MOL0     C65234   9.518   1.415   2.906 -0.1212  0.1910 -0.8372
  484MOL0     C65235   9.645   1.337   2.915 -0.0618  0.0294 -0.3303
  484MOL0     O65236   9.727   1.344   2.807  0.0826 -0.6143  0.3118
  484MOL0     C65237   9.859   1.302   2.814  0.4365 -0.1420 -0.6789
  484MOL0     C65238   9.962   1.386   2.786  0.1147 -0.4790 -0.1103
  484MOL0     C65239  10.092   1.339   2.785 -0.2444 -0.6084 -0.4448
  484MOL0     C65240  10.123   1.209   2.820  0.8286  1.0184  0.2954
  484MOL0     O65241  10.253   1.175   2.826 -0.4935 -0.3872  0.7980
  484MOL0     C65242  10.302   1.041   2.793 -0.0150  0.9008 -0.1499
  484MOL0     C65243  10.441   1.049   2.722 -0.4774  0.3530  0.0481
  484MOL0     C65244  10.500   0.912   2.685 -0.6752 -0.5385  0.3386
  484MOL0     C65245  10.647   0.918   2.678 -0.4374 -0.0906  0.1142
  484MOL0     C65246  10.707   0.773   2.647 -0.4991 -0.8881 -0.6069
  484MOL0     C65247  10.867   0.782   2.644 -0.6761 -0.0007  0.0386
  484MOL0     C65248  10.933   0.650   2.606 -0.4033  0.6569  0.2126
  484MOL0     C65249  10.939   0.641   2.458  0.2077 -1.0425 -0.1018
  484MOL0    Cl65250  11.048   0.505   2.428  0.1296  0.2989  0.2047
  484MOL0     C65251  10.018   1.123   2.857 -0.1038  0.3530  0.5807
  484MOL0     C65252   9.888   1.165   2.846  0.1379 -1.2659 -0.0121
  484MOL0     O65253   9.665   1.277   3.021 -0.1621 -0.4156 -0.9460
  484MOL0     C65254   9.505   1.499   2.798  0.3834 -0.4228  0.3096
  484MOL0     C65255   9.388   1.568   2.765  0.7319  0.3301  0.3061
  484MOL0     N65256   8.663   1.632   2.911  0.7669 -0.1754  0.0449
  484MOL0     N65257   8.569   1.613   2.996  0.0619 -0.4651  0.0926
  484MOL0     C65258   8.704   2.096   2.379  0.2021  0.8286  0.3186
  484MOL0     C65259   8.838   2.073   2.331  0.3021 -0.2360  0.7495
  484MOL0     C65260   9.283   1.957   2.338  0.8591 -0.6925 -0.0723
  484MOL0     C65261   9.351   2.062   2.268  1.2632  0.0762 -0.1623
  484MOL0     C65262   9.479   2.048   2.218 -0.0901  0.0435 -0.6301
  484MOL0     C65263   9.549   1.935   2.253 -0.8256 -0.5011 -0.1106
  484MOL0     O65264   9.681   1.938   2.210  0.1468 -0.0408 -0.2371
  484MOL0     C65265   9.769   1.835   2.254 -0.0399 -0.3185  0.0837
  484MOL0     C65266   9.909   1.870   2.200  0.2134 -0.9159 -0.0751
  484MOL0     C65267  10.024   1.785   2.260  0.0119 -0.4734  1.0145
  484MOL0     C65268  10.156   1.838   2.199 -0.7874 -0.0095 -0.5630
  484MOL0     C65269  10.262   1.740   2.173 -0.2886 -0.2632 -0.3502
  484MOL0     C65270  10.354   1.660   2.161  1.0357  0.1943  0.8990
  484MOL0     C65271   9.486   1.827   2.319  0.5283  0.2417  0.8360
  484MOL0     C65272   9.356   1.840   2.358 -0.1641 -0.1186  0.1843
  484MOL0     H65273   9.005   2.092   2.627  0.4291  1.3923 -0.1206
  484MOL0     H65274   8.771   2.133   2.705  2.6302 -1.0293  0.3915
  484MOL0     H65275   8.426   2.131   2.405  3.4378 -0.3466 -1.8025
  484MOL0     H65276   8.464   1.970   2.480 -2.7734 -0.0954 -0.9036
  484MOL0     H65277   8.277   2.191   2.603 -1.6275 -0.4987 -0.8527
  484MOL0     H65278   8.230   2.040   2.532  1.2883 -0.0339 -0.1845
  484MOL0     H65279   8.387   1.924   2.704 -0.2685 -0.4772  0.6166
  484MOL0     H65280   8.398   2.083   2.781 -1.3168  1.4744 -1.9472
  484MOL0     H65281   8.156   2.107   2.823  0.3526 -0.5668  0.9728
  484MOL0     H65282   8.128   1.957   2.744 -0.8654 -2.0752  2.3157
  484MOL0     H65283   8.300   1.990   2.991  0.6521  0.0705 -0.5715
  484MOL0     H65284   8.129   1.965   2.997  0.3760 -3.1455  1.5583
  484MOL0     H65285   8.175   1.730   2.891  2.3336 -0.3734 -2.9165
  484MOL0     H65286   8.332   1.771   2.867  1.7662 -0.3050  1.4107
  484MOL0     H65287   8.197   1.759   3.152 -0.7878 -0.0462  0.6125
  484MOL0     H65288   8.260   1.627   3.058  2.6444 -1.4284  2.0929
  484MOL0     H65289   8.431   1.672   3.223  1.0257  1.5750  0.6801
  484MOL0     H65290   8.417   1.839   3.195  0.8121 -0.1918 -0.1066
  484MOL0     H65291   8.604   1.936   3.013  1.9252 -0.1756  0.4649
  484MOL0     H65292   8.746   1.865   2.738 -1.3195  3.8762  1.2903
  484MOL0     H65293   8.817   1.916   2.888 -1.5532 -2.8330  3.5247
  484MOL0     H65294   8.862   1.689   2.684 -1.1849 -0.2080  0.6283
  484MOL0     H65295   8.920   1.647   2.852  2.9927 -0.1222 -0.5004
  484MOL0     H65296   9.072   1.849   2.847  3.2594 -2.4523 -1.1178
  484MOL0     H65297   9.012   1.876   2.679 -2.8452 -0.7482 -0.8961
  484MOL0     H65298   9.209   1.756   2.666 -0.2032 -3.7705 -2.6559
  484MOL0     H65299   9.091   1.621   2.675  0.8946 -2.1529  1.6387
  484MOL0     H65300   9.229   1.525   3.069  0.2455 -0.4130  1.3181
  484MOL0     H65301   9.335   1.366   3.199 -1.1323  2.6789 -2.0045
  484MOL0     H65302   9.425   1.229   3.126  0.5444 -0.4529  2.6371
  484MOL0     H65303   9.511   1.362   3.193 -1.9638 -1.9369  3.3976
  484MOL0     H65304   9.950   1.491   2.762  1.0641 -0.1433  0.7793
  484MOL0     H65305  10.180   1.391   2.750 -0.2034 -2.8758 -4.2342
  484MOL0     H65306  10.311   0.984   2.886  1.7591  0.6004 -0.4798
  484MOL0     H65307  10.242   0.986   2.720  0.0079  2.0733 -1.0711
  484MOL0     H65308  10.422   1.101   2.628  1.3645  0.8518 -0.0887
  484MOL0     H65309  10.507   1.099   2.794 -0.4213 -0.5263  0.6394
  484MOL0     H65310  10.475   0.881   2.583  0.3910 -1.5650  0.3632
  484MOL0     H65311  10.465   0.837   2.757  0.1226  0.4046  1.7523
  484MOL0     H65312  10.677   0.997   2.608 -0.6034 -0.6072 -0.5512
  484MOL0     H65313  10.680   0.955   2.776 -1.0912  1.1266 -0.1089
  484MOL0     H65314  10.675   0.743   2.547  0.0883 -0.7490 -0.8396
  484MOL0     H65315  10.671   0.697   2.717 -0.1614  0.0632  0.6258
  484MOL0     H65316  10.907   0.866   2.585 -0.7509  1.3768  1.8489
  484MOL0     H65317  10.890   0.812   2.746  1.3683  1.7773 -0.8568
  484MOL0     H65318  10.873   0.564   2.638 -0.4183  1.2239  1.8149
  484MOL0     H65319  11.036   0.641   2.640  0.1897  1.7859 -1.2033
  484MOL0     H65320  10.980   0.732   2.413  3.2754 -2.2099  0.0890
  484MOL0     H65321  10.842   0.624   2.411 -0.0608 -0.0710  0.0842
  484MOL0     H65322  10.041   1.020   2.881  0.1409  0.6068  1.4948
  484MOL0     H65323   9.802   1.101   2.864 -1.8530  1.3222  0.1637
  484MOL0     H65324   9.577   1.497   2.717 -1.2403 -0.5167 -1.1908
  484MOL0     H65325   9.365   1.615   2.670 -4.1623 -2.7873 -0.3949
  484MOL0     H65326   8.624   2.105   2.307 -0.4489  0.1604  0.9487
  484MOL0     H65327   8.852   2.054   2.225  1.6352 -1.7305  1.1568
  484MOL0     H65328   9.306   2.158   2.245  2.7163  0.1344 -3.2281
  484MOL0     H65329   9.525   2.132   2.167 -2.4160 -0.2439 -3.4659
  484MOL0     H65330   9.772   1.838   2.363 -0.7292  0.9218  0.0810
  484MOL0     H65331   9.720   1.742   2.222  0.6994 -0.5295 -0.4694
  484MOL0     H65332   9.930   1.976   2.219 -1.1749 -0.5583 -0.4569
  484MOL0     H65333   9.905   1.855   2.092  0.8899  2.1581 -0.6310
  484MOL0     H65334  10.008   1.683   2.223 -1.7385  0.8648 -2.3200
  484MOL0     H65335  10.030   1.791   2.369  0.7375  1.4111  0.8984
  484MOL0     H65336  10.205   1.904   2.272  0.9492 -0.9640 -0.8114
  484MOL0     H65337  10.143   1.900   2.110 -0.0461  0.2378 -0.5079
  484MOL0     H65338  10.424   1.580   2.143  0.7598  0.5946 -2.6349
  484MOL0     H65339   9.537   1.737   2.351 -0.4841 -0.3939  0.6948
  484MOL0     H65340   9.322   1.752   2.412 -1.4697  0.2718  0.0187
  485MOL0     O65341   3.084   7.903   2.527 -0.8037 -0.4067 -0.1890
  485MOL0     C65342   3.152   7.972   2.605  0.6928 -0.0471  0.0882
  485MOL0     O65343   3.124   8.096   2.651 -0.2908  0.6785  0.0748
  485MOL0     C65344   3.013   8.160   2.595  0.2657  0.4949  0.1375
  485MOL0     C65345   2.879   8.123   2.621 -0.4212 -0.3607  0.8734
  485MOL0     C65346   2.777   8.205   2.566  0.4733 -0.0135 -0.0146
  485MOL0     C65347   2.809   8.323   2.507 -0.8699  0.2436 -0.3887
  485MOL0     O65348   2.715   8.419   2.456  0.1496  0.2876  0.1512
  485MOL0     C65349   2.586   8.418   2.529  0.5479 -0.1898 -0.3494
  485MOL0     C65350   2.593   8.482   2.667 -0.0361  0.1804 -1.1561
  485MOL0     C65351   2.453   8.497   2.725 -0.0721 -0.4153  0.0785
  485MOL0     C65352   2.420   8.630   2.790  0.0146 -0.4964  0.5933
  485MOL0     C65353   2.267   8.638   2.807  0.0083 -0.0624  0.2509
  485MOL0     C65354   2.223   8.774   2.861 -0.6783 -0.6808 -0.1727
  485MOL0     C65355   2.072   8.765   2.930 -0.1394  0.1923  0.0450
  485MOL0     C65356   2.025   8.904   2.953 -0.8085  0.3193  0.7939
  485MOL0     N65357   1.887   8.920   2.986 -0.3461  0.2935 -0.2801
  485MOL0     C65358   1.784   8.905   2.893 -1.4328  1.0032 -0.1671
  485MOL0     C65359   1.678   8.950   2.962 -1.1625  1.2007 -0.2621
  485MOL0     C65360   1.535   8.936   2.913 -0.0288  0.1149  0.7844
  485MOL0     C65361   1.430   9.032   2.977  0.1606 -0.2513  1.0115
  485MOL0     C65362   1.290   8.982   2.917  0.3214  0.2948 -0.8664
  485MOL0     C65363   1.183   9.084   2.924 -0.2014 -0.4211  0.7851
  485MOL0     O65364   1.066   9.013   2.882 -0.4792 -0.1945 -0.0893
  485MOL0     C65365   0.960   9.091   2.868 -0.0062 -0.8219  0.6719
  485MOL0     C65366   0.929   9.212   2.935  0.7507 -0.9368  0.6803
  485MOL0     C65367   0.803   9.281   2.909 -0.1028  0.4383 -0.5114
  485MOL0     C65368   0.795   9.408   2.982  0.4689 -0.7000 -0.1544
  485MOL0     C65369   0.707   9.215   2.819 -0.0365 -0.3295 -0.7261
  485MOL0     C65370   0.580   9.270   2.807  0.6738 -0.2695  1.1323
  485MOL0     O65371   0.526   9.254   2.684 -0.7416 -0.2165 -0.5163
  485MOL0     C65372   0.402   9.306   2.669  0.7832  0.4372 -0.0465
  485MOL0     C65373   0.296   9.262   2.749 -0.0203  0.0108  0.0443
  485MOL0     C65374   0.172   9.316   2.723  0.6270 -0.1933 -0.5752
  485MOL0     C65375   0.153   9.415   2.629  0.5295  0.4145  0.7577
  485MOL0     O65376   0.028   9.468   2.611 -0.1971 -0.7560  0.5023
  485MOL0     C65377  -0.010   9.517   2.476  0.4571 -0.6715 -0.3426
  485MOL0     C65378  -0.163   9.520   2.480 -0.6690  0.5214  0.1916
  485MOL0     C65379  -0.213   9.537   2.341  0.1629  0.4002  1.1961
  485MOL0     C65380  -0.369   9.530   2.322 -0.8668 -0.4161 -0.3580
  485MOL0     C65381  -0.416   9.538   2.184 -0.0273 -0.4517  0.6178
  485MOL0     C65382  -0.342   9.441   2.081 -0.0920  0.3413  0.3432
  485MOL0     C65383  -0.343   9.293   2.124  0.1544  0.1192  0.3400
  485MOL0     C65384  -0.204   9.224   2.126 -0.6596  0.2452  0.2526
  485MOL0    Cl65385  -0.136   9.241   1.954 -0.2731 -0.2108 -0.2041
  485MOL0     C65386   0.262   9.456   2.560 -0.4709  0.7608  0.2100
  485MOL0     C65387   0.385   9.403   2.577 -0.6981 -0.7738 -0.7492
  485MOL0     O65388   0.519   9.301   2.909  0.3385  0.5349 -0.0195
  485MOL0     C65389   0.743   9.097   2.754 -0.2790 -0.5371 -0.2228
  485MOL0     C65390   0.868   9.036   2.786 -0.1985 -0.5713 -0.0706
  485MOL0     N65391   1.719   9.012   3.076 -0.5338 -0.0566 -0.0478
  485MOL0     N65392   1.849   9.006   3.079  0.4829 -0.1789 -0.7359
  485MOL0     C65393   2.938   8.365   2.485  0.6007 -0.8000 -0.6278
  485MOL0     C65394   3.042   8.282   2.530  1.2050 -0.3240 -0.0119
  485MOL0     C65395   3.252   7.896   2.672 -0.0434  0.6773  0.2142
  485MOL0     C65396   3.262   7.752   2.648 -0.6239  0.1180 -0.3326
  485MOL0     C65397   3.366   7.685   2.726 -0.0725 -0.3070  0.0872
  485MOL0     C65398   3.445   7.748   2.826 -0.0327  0.4538  0.3294
  485MOL0     O65399   3.560   7.683   2.873  0.3682 -0.4602 -0.1858
  485MOL0     C65400   3.671   7.719   2.788  0.4301  0.5613  0.2058
  485MOL0     C65401   3.719   7.600   2.710 -0.0950  0.6275  0.0324
  485MOL0     C65402   3.811   7.481   2.769  0.6215  0.2109 -0.2773
  485MOL0     C65403   3.939   7.530   2.854  0.5615 -0.1953 -0.2615
  485MOL0     C65404   4.032   7.423   2.906 -0.2345 -0.1313  0.2749
  485MOL0     C65405   4.090   7.326   2.955 -1.0665 -0.0456  0.2655
  485MOL0     C65406   3.426   7.877   2.847 -0.4383 -0.7174 -0.5269
  485MOL0     C65407   3.336   7.954   2.769  0.4490 -0.3004 -0.0488
  485MOL0     H65408   2.850   8.040   2.685 -0.9032 -1.2156 -0.3964
  485MOL0     H65409   2.675   8.169   2.577  0.8798 -2.0839 -2.2615
  485MOL0     H65410   2.521   8.488   2.476  0.8278  1.3651  1.2601
  485MOL0     H65411   2.543   8.318   2.517  1.3171 -0.3808 -1.7165
  485MOL0     H65412   2.657   8.429   2.738  0.1473 -1.7083 -2.6430
  485MOL0     H65413   2.629   8.586   2.665 -2.5029  1.2762  2.1538
  485MOL0     H65414   2.383   8.470   2.645  0.2942 -2.4044  0.3676
  485MOL0     H65415   2.448   8.424   2.807  1.5499  1.4484  1.9825
  485MOL0     H65416   2.474   8.649   2.883  1.0860 -2.2861  0.3879
  485MOL0     H65417   2.445   8.717   2.730  0.8772 -0.3861  1.0957
  485MOL0     H65418   2.221   8.615   2.711  2.4598  4.1860 -2.2683
  485MOL0     H65419   2.228   8.563   2.876  0.9291  1.2422  2.2755
  485MOL0     H65420   2.285   8.804   2.946  0.0976 -1.7319 -0.3567
  485MOL0     H65421   2.227   8.846   2.779 -0.8959 -1.2079 -0.6517
  485MOL0     H65422   1.996   8.714   2.870 -0.1687  0.2922 -0.0020
  485MOL0     H65423   2.070   8.716   3.027 -2.3345  1.1985  0.5623
  485MOL0     H65424   2.043   8.969   2.867 -0.0129  0.0661  0.7580
  485MOL0     H65425   2.088   8.956   3.026 -0.7985  1.5030 -0.0272
  485MOL0     H65426   1.787   8.846   2.802  1.5554 -1.9077  1.6003
  485MOL0     H65427   1.546   8.951   2.805 -1.2797  1.2642  0.7914
  485MOL0     H65428   1.487   8.843   2.944 -2.5958  1.1868  0.3120
  485MOL0     H65429   1.447   9.138   2.957 -1.5781 -0.0470  0.4413
  485MOL0     H65430   1.430   9.007   3.083  2.4758  1.1328  1.3868
  485MOL0     H65431   1.264   8.893   2.975 -2.8747  1.6900  0.0670
  485MOL0     H65432   1.313   8.941   2.818  1.6833 -0.3387 -0.3074
  485MOL0     H65433   1.206   9.160   2.850 -2.0062 -0.8392 -0.2702
  485MOL0     H65434   1.187   9.137   3.020  1.7461  3.0906 -1.0326
  485MOL0     H65435   0.991   9.255   3.013 -0.9766 -0.7301  1.9944
  485MOL0     H65436   0.886   9.468   2.971  0.5136 -0.0542  2.7775
  485MOL0     H65437   0.712   9.468   2.945  1.2235  1.1556  1.0134
  485MOL0     H65438   0.781   9.388   3.089 -0.1541  0.2824 -0.0401
  485MOL0     H65439   0.307   9.182   2.821  1.8751 -0.3197 -0.5809
  485MOL0     H65440   0.090   9.271   2.778  1.3677 -1.1499 -0.2200
  485MOL0     H65441   0.019   9.623   2.469 -2.7206  0.7019  3.4090
  485MOL0     H65442   0.041   9.450   2.406 -1.0749 -1.0711 -1.1114
  485MOL0     H65443  -0.201   9.428   2.524 -2.8955  1.6042  0.6565
  485MOL0     H65444  -0.212   9.602   2.532  0.4493  0.7394  0.9327
  485MOL0     H65445  -0.164   9.460   2.281 -1.4998  0.0022  0.2921
  485MOL0     H65446  -0.172   9.635   2.313  0.6672 -0.8289 -3.0866
  485MOL0     H65447  -0.405   9.430   2.349 -1.9400 -0.7157 -2.6421
  485MOL0     H65448  -0.410   9.612   2.382  2.3683  3.3541 -2.7724
  485MOL0     H65449  -0.407   9.635   2.133 -1.1470 -1.5218 -1.7402
  485MOL0     H65450  -0.522   9.521   2.207  0.1617  0.4255  2.3674
  485MOL0     H65451  -0.387   9.450   1.982  0.7409 -1.3585 -0.2348
  485MOL0     H65452  -0.239   9.473   2.061 -0.4703  1.3918 -0.0225
  485MOL0     H65453  -0.403   9.236   2.053  0.8628 -0.3692  0.1171
  485MOL0     H65454  -0.403   9.281   2.214 -2.8787 -0.7203 -1.6565
  485MOL0     H65455  -0.204   9.116   2.145  3.2093 -0.0882 -0.8252
  485MOL0     H65456  -0.138   9.273   2.198  0.7031 -0.0333 -0.7611
  485MOL0     H65457   0.259   9.533   2.483  1.5892  0.5270 -0.1513
  485MOL0     H65458   0.469   9.451   2.527 -0.4431  2.2134  2.2176
  485MOL0     H65459   0.669   9.056   2.685 -1.6841  0.7906  0.4288
  485MOL0     H65460   0.892   8.952   2.722 -1.9009  1.2033 -3.2932
  485MOL0     H65461   2.949   8.453   2.423  0.1682 -1.2001 -1.2930
  485MOL0     H65462   3.142   8.323   2.536  1.0029 -0.0866  3.0461
  485MOL0     H65463   3.201   7.695   2.578 -0.1099 -2.5324  1.2107
  485MOL0     H65464   3.406   7.586   2.705  3.8093  0.9379  0.7846
  485MOL0     H65465   3.638   7.807   2.731  1.7782  0.5304 -0.6602
  485MOL0     H65466   3.755   7.750   2.851  0.1281 -2.0427  2.0229
  485MOL0     H65467   3.782   7.651   2.637 -2.2867  2.8860 -0.4138
  485MOL0     H65468   3.631   7.558   2.660  0.4100 -2.1723  1.3331
  485MOL0     H65469   3.855   7.427   2.685  1.8072 -1.7527  1.4870
  485MOL0     H65470   3.758   7.410   2.834  0.0211 -0.5108 -1.5236
  485MOL0     H65471   3.900   7.581   2.943 -0.8966  0.6604 -1.3434
  485MOL0     H65472   3.999   7.601   2.796 -1.2204 -0.7299 -2.9339
  485MOL0     H65473   4.155   7.246   2.983 -0.2540  0.5600  0.1505
  485MOL0     H65474   3.485   7.933   2.919  0.1290  1.5246 -2.5808
  485MOL0     H65475   3.346   8.062   2.782 -2.7421  0.1107 -0.2195
  486MOL0     O65476   5.870   3.238   4.972  0.4084  0.0622 -0.1751
  486MOL0     C65477   5.913   3.168   5.061  0.1292  0.6199  0.2497
  486MOL0     O65478   5.848   3.128   5.168  0.5748 -0.0341 -0.4754
  486MOL0     C65479   5.730   3.203   5.192  0.3953 -0.1010 -0.5676
  486MOL0     C65480   5.732   3.328   5.251  0.1806  0.1255 -0.5353
  486MOL0     C65481   5.617   3.407   5.248 -0.2815  0.0403 -0.1568
  486MOL0     C65482   5.499   3.363   5.201  0.0115 -0.4479  0.5107
  486MOL0     O65483   5.396   3.446   5.183 -0.2303  0.1555 -0.3039
  486MOL0     C65484   5.420   3.589   5.170  0.2481  0.0400  0.2764
  486MOL0     C65485   5.299   3.657   5.097  0.6237 -0.8200  0.3119
  486MOL0     C65486   5.315   3.808   5.126 -0.1529 -0.8338  0.3488
  486MOL0     C65487   5.207   3.902   5.071  0.6106  0.4248  0.4767
  486MOL0     C65488   5.084   3.891   5.159 -0.0957  0.5675 -0.0971
  486MOL0     C65489   4.977   3.971   5.102  0.1794 -0.7402 -0.1388
  486MOL0     C65490   4.857   3.952   5.189  0.1168  1.0179 -0.0779
  486MOL0     C65491   4.731   3.988   5.099 -0.8071 -0.4499 -0.2408
  486MOL0     N65492   4.609   3.994   5.174  0.1920 -0.2097 -0.4769
  486MOL0     C65493   4.589   4.007   5.310 -0.2160  0.0751 -0.0073
  486MOL0     C65494   4.451   4.020   5.327 -0.6250 -0.9859  0.6226
  486MOL0     C65495   4.371   4.045   5.457  0.2524  0.4561 -0.1595
  486MOL0     C65496   4.447   4.140   5.548 -0.6525 -0.0304  0.0120
  486MOL0     C65497   4.363   4.175   5.666 -0.5342  0.4878  0.2798
  486MOL0     C65498   4.435   4.249   5.783 -0.1839  0.1948  1.2738
  486MOL0     O65499   4.335   4.297   5.875  0.1916 -0.6695 -0.4236
  486MOL0     C65500   4.292   4.217   5.983 -0.1276 -0.5854 -0.5160
  486MOL0     C65501   4.194   4.269   6.070  0.3510  0.1955 -0.3190
  486MOL0     C65502   4.154   4.202   6.185  0.3747 -0.0278 -1.0312
  486MOL0     C65503   4.053   4.282   6.275 -0.1183 -0.0131 -0.6848
  486MOL0     C65504   4.206   4.074   6.217 -0.1464 -0.1475 -0.6079
  486MOL0     C65505   4.141   3.992   6.322 -0.5667  1.0897 -0.2354
  486MOL0     O65506   4.009   3.988   6.352 -0.4869  0.0461 -0.3149
  486MOL0     C65507   3.974   3.886   6.428 -0.0436 -0.0542 -0.2681
  486MOL0     C65508   3.947   3.765   6.355  0.1476 -0.1922 -0.2715
  486MOL0     C65509   3.892   3.655   6.416 -0.2499  0.1181 -0.3610
  486MOL0     C65510   3.862   3.657   6.547  0.1500  0.2969  0.0129
  486MOL0     O65511   3.796   3.557   6.619  0.7388  0.2337  0.4408
  486MOL0     C65512   3.748   3.443   6.552  0.7300 -0.6562  0.2911
  486MOL0     C65513   3.695   3.343   6.663  0.3228  1.0408  0.1124
  486MOL0     C65514   3.812   3.303   6.758  1.0233  0.5318  0.1940
  486MOL0     C65515   3.786   3.176   6.838 -0.6758 -0.3640 -0.6415
  486MOL0     C65516   3.672   3.186   6.939 -0.6745  0.9823  0.4815
  486MOL0     C65517   3.707   3.239   7.073 -0.3127 -0.3921  0.1964
  486MOL0     C65518   3.761   3.130   7.170  0.1755  0.4569  0.6214
  486MOL0     C65519   3.793   3.187   7.306  0.6633  0.0451  0.1561
  486MOL0    Cl65520   3.931   3.305   7.283  0.0411  0.1337 -0.3178
  486MOL0     C65521   3.896   3.767   6.623 -0.0017  0.2861  0.0043
  486MOL0     C65522   3.950   3.887   6.563 -0.2326  1.3129  0.6712
  486MOL0     O65523   4.219   3.918   6.381  0.5959  0.4627  0.8331
  486MOL0     C65524   4.306   4.017   6.132  0.0135 -0.2805  0.2677
  486MOL0     C65525   4.353   4.096   6.017  0.1634  0.1302  0.3533
  486MOL0     N65526   4.398   4.000   5.203  0.2424  0.0431 -0.0740
  486MOL0     N65527   4.489   3.992   5.119  0.4354  0.1816  0.9539
  486MOL0     C65528   5.489   3.236   5.149 -0.5790 -0.2897 -0.2702
  486MOL0     C65529   5.604   3.159   5.143  0.1325 -0.0111 -0.6544
  486MOL0     C65530   6.051   3.125   5.054  0.1185  0.0190 -0.0597
  486MOL0     C65531   6.116   3.073   5.165  0.4270 -0.6930  0.8698
  486MOL0     C65532   6.237   3.015   5.144 -1.0643  0.0467 -0.7794
  486MOL0     C65533   6.300   3.009   5.015 -0.0981  0.0989 -0.9857
  486MOL0     O65534   6.428   2.953   5.005 -0.0077  0.3771 -0.6378
  486MOL0     C65535   6.523   3.003   4.911  0.5919 -0.5486 -0.0780
  486MOL0     C65536   6.661   2.943   4.931  0.2663  0.5160 -0.4628
  486MOL0     C65537   6.751   2.977   4.816  0.1323  0.2942  0.2973
  486MOL0     C65538   6.682   2.929   4.689  0.3690  0.4741 -0.6123
  486MOL0     C65539   6.783   2.888   4.588  0.0352 -0.0582  0.1123
  486MOL0     C65540   6.869   2.851   4.512 -0.2588  0.1546  1.0148
  486MOL0     C65541   6.235   3.066   4.912  0.6384 -0.1720  0.1504
  486MOL0     C65542   6.105   3.115   4.930  0.0274 -0.5155 -0.0633
  486MOL0     H65543   5.821   3.365   5.300 -0.5539  3.3023 -1.4064
  486MOL0     H65544   5.623   3.506   5.291 -0.6417 -0.0501  0.1082
  486MOL0     H65545   5.437   3.632   5.269  2.7035 -1.4811  0.6165
  486MOL0     H65546   5.514   3.617   5.122  0.6241  0.4060  1.2020
  486MOL0     H65547   5.295   3.639   4.989 -0.3431 -0.8692  0.3525
  486MOL0     H65548   5.204   3.619   5.135  0.2710  1.6081  2.0058
  486MOL0     H65549   5.309   3.816   5.235 -3.3737  0.7580  0.1637
  486MOL0     H65550   5.410   3.846   5.087 -1.4292  1.2673 -0.9030
  486MOL0     H65551   5.255   4.001   5.075 -2.4459  2.1507 -1.2402
  486MOL0     H65552   5.174   3.875   4.971  0.9292 -4.1081  1.3977
  486MOL0     H65553   5.055   3.786   5.157  1.3554  0.1356  0.2156
  486MOL0     H65554   5.112   3.928   5.258 -0.2452  0.2864  0.0524
  486MOL0     H65555   5.019   4.072   5.108  3.7054 -2.0811 -0.2983
  486MOL0     H65556   4.947   3.949   4.999 -2.1223  1.3191 -0.0240
  486MOL0     H65557   4.845   3.848   5.218 -0.8493  1.3392  0.7675
  486MOL0     H65558   4.858   4.025   5.271  0.1594  2.2606 -1.1380
  486MOL0     H65559   4.716   3.919   5.015 -0.2690 -2.4871  1.2337
  486MOL0     H65560   4.754   4.089   5.064  0.1257 -0.8925 -0.9632
  486MOL0     H65561   4.676   4.018   5.374  2.5806 -0.2215 -3.4591
  486MOL0     H65562   4.278   4.093   5.425 -0.6407  0.1713  1.8675
  486MOL0     H65563   4.355   3.948   5.506 -1.6453  2.3618  3.3987
  486MOL0     H65564   4.467   4.231   5.490  0.4704 -0.6348 -0.5873
  486MOL0     H65565   4.543   4.100   5.580 -0.8598 -0.9082 -0.4255
  486MOL0     H65566   4.317   4.085   5.708 -3.0713 -0.1234 -3.3623
  486MOL0     H65567   4.278   4.233   5.629 -1.0489  0.0656  0.7757
  486MOL0     H65568   4.489   4.333   5.738 -0.4506 -0.5986 -0.6380
  486MOL0     H65569   4.502   4.188   5.843 -0.0692  0.3551  1.3112
  486MOL0     H65570   4.153   4.366   6.042 -0.9704 -0.8448 -2.1529
  486MOL0     H65571   4.064   4.244   6.376  2.4952 -0.4714 -1.0615
  486MOL0     H65572   4.091   4.385   6.286  2.8424 -1.1710  1.2574
  486MOL0     H65573   3.955   4.295   6.229 -0.2892  1.3594  0.0136
  486MOL0     H65574   3.972   3.775   6.250 -0.1582  1.2425 -0.2177
  486MOL0     H65575   3.876   3.566   6.357  2.2122  0.6541 -2.0278
  486MOL0     H65576   3.665   3.477   6.489  0.8400  1.1788  1.0564
  486MOL0     H65577   3.820   3.391   6.488 -2.2035 -2.2753 -1.9593
  486MOL0     H65578   3.598   3.382   6.696 -2.2014 -4.1657 -0.1744
  486MOL0     H65579   3.643   3.256   6.621 -3.3906  3.0102  0.2178
  486MOL0     H65580   3.835   3.384   6.827 -0.2109  1.7491 -0.7609
  486MOL0     H65581   3.905   3.293   6.701  0.8443 -2.4186  0.2605
  486MOL0     H65582   3.768   3.099   6.763 -2.2304  0.1333 -0.8090
  486MOL0     H65583   3.877   3.146   6.892  0.1494  0.8868 -1.2774
  486MOL0     H65584   3.619   3.090   6.943  0.2204  0.2125 -2.7688
  486MOL0     H65585   3.606   3.247   6.877 -0.1793 -1.8223 -3.1436
  486MOL0     H65586   3.779   3.320   7.057 -0.7254 -0.4707 -2.6377
  486MOL0     H65587   3.611   3.276   7.108 -0.3056  0.6919 -0.8750
  486MOL0     H65588   3.850   3.083   7.127 -1.2306 -0.7224 -1.1479
  486MOL0     H65589   3.682   3.056   7.184 -0.4956  1.0830  0.2132
  486MOL0     H65590   3.825   3.106   7.373  0.7226  0.4735  0.6560
  486MOL0     H65591   3.707   3.238   7.350  1.4369  2.6749 -1.1676
  486MOL0     H65592   3.861   3.771   6.725  1.8663 -1.8959  0.8228
  486MOL0     H65593   3.954   3.974   6.627  1.2376  0.0326  2.4195
  486MOL0     H65594   4.347   3.920   6.160 -3.2452 -1.5778  0.9580
  486MOL0     H65595   4.427   4.040   5.960 -0.3272  0.3595 -0.5229
  486MOL0     H65596   5.395   3.205   5.106 -0.0488 -0.8646 -1.0551
  486MOL0     H65597   5.611   3.065   5.088 -0.7569 -2.2952  2.8341
  486MOL0     H65598   6.064   3.059   5.260  2.4866 -1.8738  1.8830
  486MOL0     H65599   6.284   2.964   5.228 -1.7373  2.1187  0.9392
  486MOL0     H65600   6.487   2.975   4.812  1.0654  1.6012 -0.9195
  486MOL0     H65601   6.531   3.111   4.921  0.7813 -0.3901 -1.7117
  486MOL0     H65602   6.653   2.836   4.951  1.3060  0.9959  3.3812
  486MOL0     H65603   6.714   2.977   5.021 -2.5113  0.5643  1.2671
  486MOL0     H65604   6.850   2.932   4.830  1.8475  3.8453  0.7130
  486MOL0     H65605   6.761   3.084   4.798 -3.5399  0.6013 -0.5189
  486MOL0     H65606   6.620   3.012   4.651 -3.6169 -0.1634  3.5321
  486MOL0     H65607   6.612   2.847   4.710  0.5677  0.5967  0.6322
  486MOL0     H65608   6.937   2.800   4.447 -2.5397 -1.5088 -0.1898
  486MOL0     H65609   6.265   3.062   4.807 -0.9066 -0.7407 -0.2936
  486MOL0     H65610   6.050   3.156   4.846 -0.2468  0.1232  0.4188
  487MOL0     O65611   0.776   8.320   3.143  0.2824 -0.5392 -0.6401
  487MOL0     C65612   0.764   8.203   3.119  0.5653  0.2612 -0.1772
  487MOL0     O65613   0.650   8.140   3.083 -0.3273  0.0556  0.1464
  487MOL0     C65614   0.536   8.204   3.041  0.0748 -0.2925 -0.7330
  487MOL0     C65615   0.421   8.128   3.059 -0.0091  0.2034  0.1198
  487MOL0     C65616   0.299   8.183   3.025 -0.0167  0.3405  0.0469
  487MOL0     C65617   0.286   8.311   2.969  0.1547  0.6444  0.3650
  487MOL0     O65618   0.173   8.378   2.928  1.0676  0.1162  0.4085
  487MOL0     C65619   0.050   8.296   2.909 -0.7345 -0.4370 -0.4324
  487MOL0     C65620  -0.047   8.392   2.842  0.3587 -0.1550  0.1142
  487MOL0     C65621  -0.109   8.497   2.938 -0.1449 -0.1171 -0.6322
  487MOL0     C65622  -0.156   8.601   2.829  0.6380 -0.5429  0.2965
  487MOL0     C65623  -0.253   8.705   2.893 -0.1824  1.1935  0.1541
  487MOL0     C65624  -0.393   8.668   2.928 -0.3915  0.1237  0.6354
  487MOL0     C65625  -0.472   8.800   2.977 -0.2348 -0.9915  0.3430
  487MOL0     C65626  -0.616   8.784   2.991  0.3113  0.2569 -0.2996
  487MOL0     N65627  -0.684   8.914   2.992  0.6862 -0.3488  1.7228
  487MOL0     C65628  -0.642   9.026   3.054  0.0028  0.0551  0.4263
  487MOL0     C65629  -0.744   9.116   3.034 -1.4090  0.0223  0.4304
  487MOL0     C65630  -0.726   9.263   3.074  0.3027 -0.6851 -0.4551
  487MOL0     C65631  -0.857   9.318   3.132 -0.4178 -0.7606  0.4166
  487MOL0     C65632  -0.828   9.444   3.219 -0.6165 -1.1634  0.0803
  487MOL0     C65633  -0.948   9.484   3.313 -0.3950 -0.9205 -0.7712
  487MOL0     O65634  -1.054   9.538   3.227 -0.3954  0.2786  0.6272
  487MOL0     C65635  -1.184   9.540   3.269 -0.1602 -0.4102  0.2749
  487MOL0     C65636  -1.222   9.520   3.401 -0.7063 -0.3086  0.3277
  487MOL0     C65637  -1.348   9.556   3.441  0.0112 -1.0759  0.3650
  487MOL0     C65638  -1.375   9.553   3.591  0.3626  0.4053  0.2277
  487MOL0     C65639  -1.456   9.581   3.347 -0.9247 -0.3782  0.4072
  487MOL0     C65640  -1.605   9.588   3.376  0.2138 -0.5384  1.0171
  487MOL0     O65641  -1.683   9.546   3.273 -0.6214 -0.4856  0.0447
  487MOL0     C65642  -1.828   9.562   3.278 -0.1431 -0.7369 -0.1470
  487MOL0     C65643  -1.906   9.550   3.394 -0.3051  1.0043 -0.4186
  487MOL0     C65644  -2.048   9.543   3.393 -0.0518  0.0340 -0.8493
  487MOL0     C65645  -2.114   9.545   3.268 -0.5689 -0.1169  0.4810
  487MOL0     O65646  -2.249   9.528   3.267  0.0937  0.0644  0.0853
  487MOL0     C65647  -2.301   9.440   3.173  0.3551  0.8662 -0.4613
  487MOL0     C65648  -2.393   9.537   3.087 -0.0629 -0.5077  0.4991
  487MOL0     C65649  -2.520   9.579   3.157  0.4343 -0.5096 -0.4808
  487MOL0     C65650  -2.627   9.655   3.071 -0.0911 -0.5243  0.7097
  487MOL0     C65651  -2.667   9.582   2.933 -0.5809 -0.0929  0.3915
  487MOL0     C65652  -2.782   9.655   2.868  0.2448 -0.1331  1.0445
  487MOL0     C65653  -2.827   9.579   2.745  0.2366  0.1309 -0.5417
  487MOL0     C65654  -2.849   9.427   2.758 -1.0037  0.0629 -0.5295
  487MOL0    Cl65655  -2.980   9.398   2.868  0.0652  0.5287  0.5311
  487MOL0     C65656  -2.038   9.582   3.155 -0.5850  0.0182  0.0217
  487MOL0     C65657  -1.890   9.582   3.156  0.3739  0.8077  0.5349
  487MOL0     O65658  -1.638   9.609   3.490 -0.4333 -0.1167  0.1924
  487MOL0     C65659  -1.414   9.595   3.207  0.0082  0.8205  1.2154
  487MOL0     C65660  -1.279   9.576   3.171  0.0098 -0.2008 -0.3465
  487MOL0     N65661  -0.851   9.063   2.958  0.2374  0.1323  0.1483
  487MOL0     N65662  -0.807   8.945   2.934 -0.0651  0.6162  0.6159
  487MOL0     C65663   0.400   8.387   2.947  0.1803  0.8805  1.3296
  487MOL0     C65664   0.526   8.331   2.979  1.1609  0.2815  0.2211
  487MOL0     C65665   0.890   8.118   3.140 -0.3882 -0.3011  0.1223
  487MOL0     C65666   1.010   8.169   3.112  0.3639 -0.4034  1.2831
  487MOL0     C65667   1.128   8.093   3.123  1.1763 -0.6613 -0.5727
  487MOL0     C65668   1.123   7.956   3.160  0.1449  0.7521 -0.6900
  487MOL0     O65669   1.226   7.864   3.171 -0.0532 -0.3144  0.6680
  487MOL0     C65670   1.356   7.923   3.200 -0.3451 -0.3681  0.3978
  487MOL0     C65671   1.372   7.996   3.333  0.0240  0.2740  0.1309
  487MOL0     C65672   1.373   7.890   3.450  0.7586  0.3118 -0.5287
  487MOL0     C65673   1.436   7.945   3.583  0.3145  0.1783  0.4104
  487MOL0     C65674   1.353   8.048   3.646 -0.7355 -0.7486  1.0423
  487MOL0     C65675   1.273   8.132   3.691  0.2106 -0.2457 -1.0529
  487MOL0     C65676   0.995   7.899   3.172 -0.1224  1.0994  0.1195
  487MOL0     C65677   0.883   7.974   3.174 -0.4381 -0.1679  0.6876
  487MOL0     H65678   0.429   8.029   3.102  2.7010 -0.6587 -2.0381
  487MOL0     H65679   0.211   8.127   3.054 -0.5458  1.9488  1.7404
  487MOL0     H65680   0.063   8.209   2.844 -0.4211 -1.8152  1.4153
  487MOL0     H65681   0.013   8.251   3.001 -1.1472 -0.2733 -0.5130
  487MOL0     H65682   0.001   8.441   2.758 -0.5137  0.9886  0.2572
  487MOL0     H65683  -0.123   8.328   2.796  2.6241 -2.8642 -0.1808
  487MOL0     H65684  -0.192   8.453   2.993 -2.8974  3.2314 -1.7299
  487MOL0     H65685  -0.034   8.548   3.000 -0.6853  1.7027 -1.4035
  487MOL0     H65686  -0.068   8.645   2.780  0.9891 -3.8645 -2.4727
  487MOL0     H65687  -0.209   8.566   2.741 -1.0458  1.0656  0.6116
  487MOL0     H65688  -0.206   8.733   2.988  0.9489  1.2817 -0.4161
  487MOL0     H65689  -0.245   8.795   2.832  1.6339  1.2973  0.4930
  487MOL0     H65690  -0.437   8.646   2.830  2.2248 -0.0319 -0.5997
  487MOL0     H65691  -0.394   8.587   3.001  2.5974 -0.3639  0.2784
  487MOL0     H65692  -0.439   8.822   3.079 -0.0549 -1.9750  0.5014
  487MOL0     H65693  -0.440   8.885   2.915 -0.5926 -0.7245  0.5215
  487MOL0     H65694  -0.628   8.725   3.082  0.4886 -0.1187 -0.5160
  487MOL0     H65695  -0.654   8.727   2.905  1.8990  0.4598 -1.1780
  487MOL0     H65696  -0.553   9.037   3.115 -0.8306  1.9219  1.4064
  487MOL0     H65697  -0.652   9.272   3.154 -1.4141  1.3061  1.0367
  487MOL0     H65698  -0.682   9.321   2.991  2.1971  1.6506  1.9859
  487MOL0     H65699  -0.898   9.247   3.204  2.4756 -1.7177  1.2671
  487MOL0     H65700  -0.929   9.339   3.052  0.5463 -3.2137 -1.2248
  487MOL0     H65701  -0.814   9.524   3.146  3.0056 -1.1837  0.5950
  487MOL0     H65702  -0.750   9.428   3.294  0.5344  1.5333 -0.4416
  487MOL0     H65703  -0.921   9.561   3.387 -2.1766 -4.6106  4.3156
  487MOL0     H65704  -0.980   9.397   3.371 -0.2924 -0.7445 -0.4460
  487MOL0     H65705  -1.143   9.502   3.473 -0.5943  2.3706  0.9928
  487MOL0     H65706  -1.443   9.474   3.623  2.4176 -0.9042  1.6369
  487MOL0     H65707  -1.286   9.541   3.653  0.7708 -0.0264 -0.4260
  487MOL0     H65708  -1.417   9.651   3.614 -0.5981 -0.3261  1.7408
  487MOL0     H65709  -1.865   9.546   3.494 -2.5634  2.9521  0.6889
  487MOL0     H65710  -2.120   9.556   3.474  0.0149 -0.2687 -0.7411
  487MOL0     H65711  -2.220   9.401   3.110  0.2573  0.5429 -0.3892
  487MOL0     H65712  -2.353   9.352   3.211  0.5855  1.2536  0.8082
  487MOL0     H65713  -2.342   9.627   3.051 -2.5518  1.0429  0.5798
  487MOL0     H65714  -2.422   9.476   3.001  1.6703  1.6239 -1.7414
  487MOL0     H65715  -2.497   9.640   3.244 -0.5776 -1.5956  0.5972
  487MOL0     H65716  -2.561   9.483   3.190 -0.2779  0.0266  0.2352
  487MOL0     H65717  -2.718   9.665   3.130  0.4654  0.8940  1.3765
  487MOL0     H65718  -2.585   9.754   3.053 -2.0551  0.2631  0.3235
  487MOL0     H65719  -2.684   9.475   2.945  2.0176 -0.7590 -1.0355
  487MOL0     H65720  -2.586   9.582   2.859 -3.0261 -3.5743 -2.6524
  487MOL0     H65721  -2.864   9.676   2.936  2.0116  2.3249  2.6143
  487MOL0     H65722  -2.759   9.755   2.829 -0.3326 -1.6283 -3.8020
  487MOL0     H65723  -2.760   9.587   2.659  1.2120 -4.4210 -0.4561
  487MOL0     H65724  -2.918   9.633   2.716  1.9748  4.2229  0.8081
  487MOL0     H65725  -2.763   9.362   2.774 -1.4802 -0.1239  1.5699
  487MOL0     H65726  -2.888   9.377   2.669 -0.8093 -3.8528  1.3917
  487MOL0     H65727  -2.086   9.605   3.060  3.4221  0.6582 -2.0755
  487MOL0     H65728  -1.828   9.600   3.070 -0.5544  3.1690  0.2855
  487MOL0     H65729  -1.488   9.623   3.133  0.7274 -0.6714 -0.0996
  487MOL0     H65730  -1.243   9.587   3.069 -3.3342  1.8368 -1.4626
  487MOL0     H65731   0.407   8.479   2.889  2.5279  1.7398  2.8358
  487MOL0     H65732   0.618   8.383   2.953  0.6807  0.9716 -0.1429
  487MOL0     H65733   1.015   8.272   3.078 -3.2094 -0.2552  0.8638
  487MOL0     H65734   1.217   8.151   3.098 -1.1311  3.5502  0.0253
  487MOL0     H65735   1.424   7.837   3.201 -1.1188 -1.0391 -0.9568
  487MOL0     H65736   1.387   7.987   3.118 -1.0943  2.3457  2.1086
  487MOL0     H65737   1.286   8.063   3.344 -0.6102 -0.4111 -0.5140
  487MOL0     H65738   1.469   8.046   3.340  1.1402 -1.9784  2.2614
  487MOL0     H65739   1.441   7.808   3.423  0.8480 -0.4296  1.7441
  487MOL0     H65740   1.275   7.847   3.470  0.4814  2.1693  2.7777
  487MOL0     H65741   1.536   7.980   3.554 -0.1421 -0.2922 -1.9003
  487MOL0     H65742   1.447   7.852   3.640 -1.0724  0.4802  1.2226
  487MOL0     H65743   1.196   8.197   3.727  2.2952  0.4788  2.6112
  487MOL0     H65744   0.980   7.794   3.195  2.5342  0.4984 -0.5521
  487MOL0     H65745   0.783   7.938   3.196 -0.0643 -0.5927  1.7490
  488MOL0     O65746   7.220   2.325   1.308 -1.0886  0.2051  0.0385
  488MOL0     C65747   7.262   2.394   1.216  0.4701 -0.2830  0.6939
  488MOL0     O65748   7.185   2.431   1.106 -0.0559  0.1389 -0.6073
  488MOL0     C65749   7.055   2.382   1.104  0.3031 -0.1898  0.4402
  488MOL0     C65750   7.024   2.247   1.104  1.1550  0.3722 -0.1062
  488MOL0     C65751   6.890   2.194   1.077  0.2171 -0.4749 -0.1662
  488MOL0     C65752   6.795   2.288   1.045 -0.0741 -0.2725  1.2465
  488MOL0     O65753   6.660   2.264   1.021  0.1437 -0.5441  0.4233
  488MOL0     C65754   6.617   2.132   1.041  0.0777  1.0994 -0.3223
  488MOL0     C65755   6.475   2.156   0.993 -0.0569  0.2279 -0.3424
  488MOL0     C65756   6.381   2.036   1.016  0.3132 -0.1986  0.0801
  488MOL0     C65757   6.232   2.074   0.978 -0.4885 -0.0753 -1.1496
  488MOL0     C65758   6.131   1.966   1.006 -0.0700  0.3342 -0.0999
  488MOL0     C65759   5.993   2.008   0.985 -0.1679 -0.8435  0.7430
  488MOL0     C65760   5.879   1.929   1.046 -0.3258 -0.1534 -0.5437
  488MOL0     C65761   5.853   1.798   0.980  0.1052  1.3385  0.4221
  488MOL0     N65762   5.712   1.757   0.989  0.5373  0.3022  0.2100
  488MOL0     C65763   5.654   1.642   1.047  0.1463 -1.2307  0.1806
  488MOL0     C65764   5.528   1.641   1.010 -0.3592  0.7358 -0.4287
  488MOL0     C65765   5.450   1.513   1.039 -0.2691 -0.7526  0.5284
  488MOL0     C65766   5.346   1.553   1.141  0.7149  0.1831 -0.2694
  488MOL0     C65767   5.245   1.434   1.174  0.0766  0.4363 -0.8265
  488MOL0     C65768   5.162   1.473   1.299  0.2526 -0.8346  0.4187
  488MOL0     O65769   5.050   1.559   1.263  0.2765  0.0972  0.0956
  488MOL0     C65770   4.930   1.503   1.210 -0.3222  0.0404  0.5221
  488MOL0     C65771   4.914   1.373   1.160 -0.0927 -0.2313 -0.2081
  488MOL0     C65772   4.793   1.331   1.104  0.3657 -0.2005 -0.3497
  488MOL0     C65773   4.790   1.182   1.075  1.3027  0.8086  1.5885
  488MOL0     C65774   4.684   1.422   1.107 -1.1600  0.6840  0.4806
  488MOL0     C65775   4.559   1.368   1.054  0.3082  0.3665  0.0682
  488MOL0     O65776   4.451   1.421   1.113 -0.0076  0.4509  0.6815
  488MOL0     C65777   4.335   1.354   1.093  1.1976  0.1641 -0.5599
  488MOL0     C65778   4.243   1.423   1.021  0.8430 -0.8391  0.2115
  488MOL0     C65779   4.120   1.361   0.982 -0.8082 -0.9809  0.4326
  488MOL0     C65780   4.092   1.231   1.022 -0.0711  0.8849  0.6000
  488MOL0     O65781   3.971   1.176   0.988  0.1621 -0.0404 -0.5239
  488MOL0     C65782   3.980   1.029   0.989  0.2400 -0.5902  0.1719
  488MOL0     C65783   3.874   0.965   0.903  0.0378 -0.2887  0.3643
  488MOL0     C65784   3.735   1.031   0.926 -0.1125  0.6183 -0.7815
  488MOL0     C65785   3.629   0.981   0.828 -0.2750  0.6459 -0.4502
  488MOL0     C65786   3.477   1.006   0.859  0.1029  0.1882 -0.0789
  488MOL0     C65787   3.421   0.903   0.967  0.0057  0.0352  0.3071
  488MOL0     C65788   3.281   0.941   1.005  0.0590  0.5060 -0.3342
  488MOL0     C65789   3.217   0.852   1.114  0.5540  0.8756 -0.0034
  488MOL0    Cl65790   3.044   0.885   1.118  0.0943 -0.2331 -0.0028
  488MOL0     C65791   4.187   1.159   1.109  0.8143 -0.4312  0.8012
  488MOL0     C65792   4.311   1.225   1.140  0.5344 -0.0678  0.1431
  488MOL0     O65793   4.554   1.294   0.955  0.1401  0.2947 -0.0602
  488MOL0     C65794   4.695   1.546   1.162  0.1048 -0.4863  0.5686
  488MOL0     C65795   4.815   1.595   1.205 -0.9083 -0.0067  1.1777
  488MOL0     N65796   5.509   1.738   0.916 -0.3457 -0.4286 -0.5506
  488MOL0     N65797   5.622   1.795   0.895  0.3183  0.0503 -0.3478
  488MOL0     C65798   6.828   2.422   1.040  0.0049 -1.3760  0.3528
  488MOL0     C65799   6.954   2.473   1.070  0.3119  0.0700 -0.7180
  488MOL0     C65800   7.407   2.437   1.220 -0.6673  0.1156 -0.5312
  488MOL0     C65801   7.486   2.414   1.331  0.0006  0.1835 -0.7999
  488MOL0     C65802   7.630   2.429   1.318 -0.0943 -0.8613 -0.3746
  488MOL0     C65803   7.689   2.474   1.204 -0.1098  0.1504 -0.3101
  488MOL0     O65804   7.824   2.514   1.189  0.1586  0.6767  1.0120
  488MOL0     C65805   7.909   2.550   1.302  0.2963  0.7440 -0.4593
  488MOL0     C65806   7.987   2.678   1.279 -0.5089 -0.1501 -0.3054
  488MOL0     C65807   8.081   2.679   1.149  1.0097  0.4252  0.0679
  488MOL0     C65808   8.229   2.671   1.190 -0.6547 -0.2948 -0.6310
  488MOL0     C65809   8.274   2.550   1.260 -0.0215 -0.7548 -0.4356
  488MOL0     C65810   8.303   2.437   1.303  0.8751 -0.0799  0.6278
  488MOL0     C65811   7.602   2.504   1.105 -0.0982  0.0881  0.8482
  488MOL0     C65812   7.460   2.493   1.102  0.8057  0.5907  0.1730
  488MOL0     H65813   7.106   2.177   1.113  0.8372  0.0563  0.3851
  488MOL0     H65814   6.860   2.091   1.066  1.3289 -1.1195  2.1216
  488MOL0     H65815   6.671   2.057   0.983 -1.4578 -0.4727  0.1646
  488MOL0     H65816   6.617   2.119   1.150  0.9866  3.6207  0.0385
  488MOL0     H65817   6.434   2.247   1.040  0.7796  0.8024 -0.7102
  488MOL0     H65818   6.481   2.173   0.885 -0.5580  0.6341 -0.3141
  488MOL0     H65819   6.418   1.943   0.972  0.6653 -2.3102  4.3623
  488MOL0     H65820   6.394   2.015   1.122 -0.1059 -1.1537 -0.0474
  488MOL0     H65821   6.204   2.167   1.029  1.2688 -0.2984  0.2956
  488MOL0     H65822   6.231   2.096   0.870 -1.0274 -0.3398 -1.2025
  488MOL0     H65823   6.149   1.895   0.924  0.9758  1.3870 -0.8088
  488MOL0     H65824   6.135   1.930   1.109 -0.8359  1.1709  0.2363
  488MOL0     H65825   5.982   2.110   1.024  1.7003  2.4013 -5.6380
  488MOL0     H65826   5.972   2.029   0.879  1.9836 -1.5942  0.1199
  488MOL0     H65827   5.899   1.918   1.153  2.6319 -0.6773 -1.0613
  488MOL0     H65828   5.781   1.976   1.037 -0.6680 -0.9640 -1.2026
  488MOL0     H65829   5.925   1.726   1.022  1.0393  1.5991 -0.6858
  488MOL0     H65830   5.878   1.796   0.874  1.7089 -4.4197  0.5697
  488MOL0     H65831   5.704   1.569   1.109  0.8280 -0.4562  0.5693
  488MOL0     H65832   5.396   1.475   0.952  0.4461 -2.0460  0.6210
  488MOL0     H65833   5.519   1.433   1.068 -1.1393 -1.7539 -0.0994
  488MOL0     H65834   5.287   1.633   1.095 -0.1272  0.0328  0.5300
  488MOL0     H65835   5.395   1.600   1.227 -1.3229  2.5526 -0.3057
  488MOL0     H65836   5.304   1.347   1.205  1.3808  1.5701 -0.0395
  488MOL0     H65837   5.173   1.416   1.093 -2.1813  0.4443  1.0787
  488MOL0     H65838   5.237   1.519   1.363  2.0389 -0.2929 -1.9470
  488MOL0     H65839   5.124   1.385   1.353 -0.7951  0.7201  2.3530
  488MOL0     H65840   5.002   1.311   1.170  1.8576  2.6603  2.3602
  488MOL0     H65841   4.875   1.123   1.110 -0.1161 -2.4701 -0.0284
  488MOL0     H65842   4.694   1.143   1.110  1.8067  0.1732  2.2712
  488MOL0     H65843   4.796   1.163   0.967  1.7225  1.0173  1.5724
  488MOL0     H65844   4.253   1.524   0.984  0.9883 -0.7557  0.4755
  488MOL0     H65845   4.043   1.409   0.922  0.8863  1.9821  0.4524
  488MOL0     H65846   4.083   0.998   0.969  0.7591 -0.9498  2.9638
  488MOL0     H65847   3.947   0.993   1.087 -1.4234 -1.5413 -0.6869
  488MOL0     H65848   3.894   0.971   0.796  1.3122  1.3099  0.6614
  488MOL0     H65849   3.881   0.856   0.915  0.1544 -0.1795  1.4617
  488MOL0     H65850   3.728   1.140   0.927 -0.6916  0.6062 -2.0430
  488MOL0     H65851   3.693   1.004   1.023 -0.0517 -1.2871 -1.2366
  488MOL0     H65852   3.646   1.025   0.730  1.9580  1.7327  0.3435
  488MOL0     H65853   3.641   0.873   0.817 -2.9152  0.1796  0.5326
  488MOL0     H65854   3.416   0.987   0.770 -1.6660  2.8157  0.4453
  488MOL0     H65855   3.458   1.111   0.884 -2.6437  0.3548 -2.2787
  488MOL0     H65856   3.424   0.800   0.930 -0.4328  0.3914 -0.7922
  488MOL0     H65857   3.488   0.910   1.052 -1.5219 -0.6368  1.6124
  488MOL0     H65858   3.213   0.942   0.919 -1.3119  3.6545  0.6069
  488MOL0     H65859   3.280   1.041   1.050 -4.4926  0.0254  1.1728
  488MOL0     H65860   3.270   0.864   1.209  1.6843  0.5833 -0.5811
  488MOL0     H65861   3.231   0.748   1.083  1.4291  0.3582  1.9505
  488MOL0     H65862   4.177   1.061   1.155 -0.4681  1.0177  3.9471
  488MOL0     H65863   4.383   1.182   1.208  0.3929  1.0569  1.0460
  488MOL0     H65864   4.618   1.622   1.158  1.0463  0.6859  2.8740
  488MOL0     H65865   4.821   1.697   1.241 -1.7328 -1.0205  4.5596
  488MOL0     H65866   6.744   2.489   1.024  1.0264  0.0873  0.8872
  488MOL0     H65867   6.976   2.579   1.071 -0.8567  0.3457  1.7440
  488MOL0     H65868   7.447   2.368   1.421 -1.9758  1.7280 -0.7966
  488MOL0     H65869   7.703   2.420   1.399  2.6749  4.3682 -1.8239
  488MOL0     H65870   7.849   2.572   1.391  0.6743  0.5189 -0.1460
  488MOL0     H65871   7.969   2.464   1.333  2.5486  1.0848 -3.4464
  488MOL0     H65872   8.042   2.705   1.370 -0.2918 -1.6385  0.0275
  488MOL0     H65873   7.917   2.754   1.243  1.1834  1.1827 -0.8620
  488MOL0     H65874   8.070   2.772   1.094 -3.1099 -0.0144 -0.1124
  488MOL0     H65875   8.061   2.595   1.082 -3.8326  0.5713  1.0129
  488MOL0     H65876   8.255   2.756   1.254 -1.7671 -1.1909  1.0830
  488MOL0     H65877   8.290   2.664   1.100  1.9786  1.5079  0.8808
  488MOL0     H65878   8.343   2.345   1.340 -1.7062 -1.6320 -0.1936
  488MOL0     H65879   7.644   2.536   1.010  0.4295 -0.5327  0.8695
  488MOL0     H65880   7.390   2.511   1.020  0.0458 -2.8331 -0.0827
  489MOL0     O65881   9.915  10.541  10.948  1.1769  0.0433  0.3044
  489MOL0     C65882   9.938  10.576  10.834 -0.5321 -0.9549 -0.4356
  489MOL0     O65883   9.847  10.574  10.739 -0.2075 -0.1214  0.0323
  489MOL0     C65884   9.724  10.504  10.761 -0.2743  0.2498  0.3425
  489MOL0     C65885   9.624  10.579  10.819  0.4734  0.5920 -0.2708
  489MOL0     C65886   9.499  10.529  10.830 -0.2236 -0.1062 -0.7265
  489MOL0     C65887   9.464  10.400  10.786 -0.1424 -0.8923  0.0055
  489MOL0     O65888   9.345  10.338  10.804 -0.2098 -1.0107  0.0398
  489MOL0     C65889   9.241  10.397  10.728  0.2988  0.5532  0.4208
  489MOL0     C65890   9.109  10.315  10.732  0.2430 -1.4917 -0.3246
  489MOL0     C65891   9.012  10.364  10.626 -0.4226 -0.2354 -0.1762
  489MOL0     C65892   8.873  10.411  10.682 -0.1502 -0.0042  0.8359
  489MOL0     C65893   8.774  10.480  10.580 -1.0483  0.0910  0.2716
  489MOL0     C65894   8.628  10.472  10.628 -0.1774 -0.1939  0.7760
  489MOL0     C65895   8.530  10.530  10.531  0.3985  1.3732  1.5818
  489MOL0     C65896   8.388  10.472  10.577  0.4610  0.4731 -0.8302
  489MOL0     N65897   8.276  10.529  10.494 -0.1340 -0.2654  0.1276
  489MOL0     C65898   8.172  10.598  10.541 -0.1374  0.0766 -0.2667
  489MOL0     C65899   8.067  10.579  10.457  0.0304 -0.1897  0.4607
  489MOL0     C65900   7.938  10.655  10.481  0.1061 -0.5786 -0.1631
  489MOL0     C65901   7.852  10.576  10.574 -0.0061 -0.3535 -1.7642
  489MOL0     C65902   7.765  10.493  10.489  0.0676 -0.9570  0.9519
  489MOL0     C65903   7.661  10.423  10.569  0.2798 -0.5065 -0.1977
  489MOL0     O65904   7.578  10.521  10.637  0.4765  0.4723  0.3174
  489MOL0     C65905   7.443  10.489  10.652  0.1999  0.1568  0.6298
  489MOL0     C65906   7.395  10.377  10.721  0.7698  0.0767 -0.7470
  489MOL0     C65907   7.259  10.350  10.723 -0.0534  0.5680  0.3682
  489MOL0     C65908   7.222  10.226  10.803  0.4708  0.2302  0.0662
  489MOL0     C65909   7.169  10.437  10.665 -0.9134  0.8337  0.0818
  489MOL0     C65910   7.022  10.435  10.682 -0.4890 -0.5484 -0.4115
  489MOL0     O65911   6.962  10.557  10.678 -0.4369  0.6695  0.5191
  489MOL0     C65912   6.825  10.562  10.675  0.4656 -0.7776 -0.4435
  489MOL0     C65913   6.777  10.529  10.551  1.0994  0.9341 -0.6289
  489MOL0     C65914   6.638  10.525  10.530 -0.2863  0.7805 -0.8601
  489MOL0     C65915   6.556  10.557  10.635  0.8800  0.3366 -0.1222
  489MOL0     O65916   6.415  10.557  10.623  0.1409  0.5771 -0.0133
  489MOL0     C65917   6.352  10.496  10.508  0.7853  0.0490 -0.4650
  489MOL0     C65918   6.202  10.455  10.526 -0.3119 -0.4293 -0.3696
  489MOL0     C65919   6.202  10.359  10.651 -0.1850  0.5811 -0.5026
  489MOL0     C65920   6.055  10.351  10.707 -0.4308 -0.7106  0.1395
  489MOL0     C65921   6.039  10.245  10.820  0.3013 -0.9159  0.5590
  489MOL0     C65922   6.024  10.307  10.954 -0.4456 -0.4319 -0.4341
  489MOL0     C65923   6.038  10.205  11.070 -0.4842 -0.5273  0.3431
  489MOL0     C65924   6.039  10.277  11.200  0.0395 -0.8290 -0.6862
  489MOL0    Cl65925   5.880  10.355  11.234 -0.6304 -0.1588  0.1864
  489MOL0     C65926   6.604  10.582  10.761 -0.0250  0.1201 -0.5032
  489MOL0     C65927   6.740  10.588  10.781 -0.2623  0.7521  0.1215
  489MOL0     O65928   6.964  10.331  10.700 -0.6033  0.0066  0.0913
  489MOL0     C65929   7.217  10.549  10.596 -0.2200 -0.5422  0.0799
  489MOL0     C65930   7.357  10.571  10.587 -0.0986 -0.4823 -0.8291
  489MOL0     N65931   8.122  10.509  10.353  0.2010  0.9235 -0.7294
  489MOL0     N65932   8.247  10.481  10.374  0.5761  0.3556  0.4510
  489MOL0     C65933   9.570  10.316  10.735 -0.6384  0.5658  0.7639
  489MOL0     C65934   9.703  10.371  10.726 -0.4883 -0.7363 -0.0662
  489MOL0     C65935  10.067  10.628  10.803 -0.4184  0.0936 -0.0079
  489MOL0     C65936  10.156  10.670  10.907  0.0199  0.4891 -0.1746
  489MOL0     C65937  10.283  10.716  10.883 -0.1893  0.6336  0.6897
  489MOL0     C65938  10.330  10.722  10.751  0.9170  0.2048  0.4555
  489MOL0     O65939  10.454  10.772  10.726  0.2683 -0.6643 -0.0245
  489MOL0     C65940  10.494  10.808  10.588 -0.3118 -0.2452 -0.3417
  489MOL0     C65941  10.643  10.852  10.577  0.3006 -0.7437  0.3808
  489MOL0     C65942  10.738  10.760  10.647 -0.0111 -1.0582  0.7204
  489MOL0     C65943  10.780  10.637  10.559  0.0435 -1.1876  0.0231
  489MOL0     C65944  10.889  10.562  10.608 -0.5931  0.4711  0.7013
  489MOL0     C65945  10.980  10.482  10.639  0.7886  0.0737  0.3679
  489MOL0     C65946  10.244  10.682  10.641  0.1787 -0.1082 -0.3078
  489MOL0     C65947  10.113  10.637  10.673  0.6853 -0.3104  0.1244
  489MOL0     H65948   9.649  10.681  10.848 -0.4978  1.3812 -2.0535
  489MOL0     H65949   9.424  10.590  10.880  0.4063  0.9557 -1.0491
  489MOL0     H65950   9.221  10.497  10.767  2.3107  2.1459 -2.3123
  489MOL0     H65951   9.272  10.412  10.625  1.0439 -0.3241  0.5079
  489MOL0     H65952   9.138  10.211  10.716  2.7796 -0.5810 -2.3498
  489MOL0     H65953   9.061  10.326  10.830 -0.1866  0.3445 -0.7156
  489MOL0     H65954   9.053  10.462  10.598 -2.0206  1.3044  2.4439
  489MOL0     H65955   8.999  10.293  10.544 -1.3969 -1.6453  1.1599
  489MOL0     H65956   8.823  10.321  10.721  1.4539 -0.9747  0.7416
  489MOL0     H65957   8.895  10.471  10.771 -1.9913  1.5962  0.2797
  489MOL0     H65958   8.800  10.584  10.558  0.1985  0.3558  2.7132
  489MOL0     H65959   8.780  10.420  10.488 -0.7336  1.2469 -0.4894
  489MOL0     H65960   8.615  10.364  10.638 -0.2599 -0.3438 -0.7458
  489MOL0     H65961   8.610  10.503  10.731  0.0910 -1.9262  1.3732
  489MOL0     H65962   8.535  10.639  10.528  1.3176  1.4159  3.4009
  489MOL0     H65963   8.552  10.483  10.434  0.8172  0.4198  2.1178
  489MOL0     H65964   8.379  10.495  10.684  0.4598  0.4854 -0.8326
  489MOL0     H65965   8.376  10.364  10.564 -1.6120  0.4097  1.1515
  489MOL0     H65966   8.167  10.668  10.624 -0.3589  1.4209 -1.3752
  489MOL0     H65967   7.962  10.750  10.529  1.5300 -0.2866 -1.3804
  489MOL0     H65968   7.893  10.678  10.384  0.2365 -2.2002 -0.6411
  489MOL0     H65969   7.795  10.641  10.641  0.2416 -1.4949 -0.3962
  489MOL0     H65970   7.896  10.513  10.653  0.4091  1.0907 -0.7988
  489MOL0     H65971   7.821  10.421  10.429  0.0271 -0.6068  0.4896
  489MOL0     H65972   7.722  10.562  10.416  3.5408  1.6381  1.0763
  489MOL0     H65973   7.712  10.378  10.655  1.6362  0.5241 -0.4340
  489MOL0     H65974   7.611  10.348  10.509  1.7267 -0.3499 -1.6616
  489MOL0     H65975   7.471  10.313  10.766 -0.8684 -0.2130  1.8180
  489MOL0     H65976   7.172  10.234  10.900 -2.8281 -3.2361 -1.1123
  489MOL0     H65977   7.152  10.166  10.746  1.2296  1.3740 -2.1979
  489MOL0     H65978   7.315  10.171  10.822 -0.6275 -1.3135  1.2681
  489MOL0     H65979   6.842  10.505  10.467  1.5044 -1.6875  0.3208
  489MOL0     H65980   6.602  10.493  10.433  1.8932 -2.0156 -0.8458
  489MOL0     H65981   6.362  10.563  10.422  1.3868  0.9264  0.2633
  489MOL0     H65982   6.411  10.408  10.483  0.2045 -0.5437  0.2055
  489MOL0     H65983   6.148  10.546  10.556  0.2911  0.1464 -1.0024
  489MOL0     H65984   6.140  10.414  10.446 -1.2122  2.5657 -1.3652
  489MOL0     H65985   6.255  10.396  10.739 -0.2211 -1.7465  0.5798
  489MOL0     H65986   6.223  10.254  10.631 -0.9378  0.6847 -1.9800
  489MOL0     H65987   6.039  10.447  10.756  1.2568 -0.3163 -0.0112
  489MOL0     H65988   5.981  10.329  10.630  0.1901 -1.0208 -0.3821
  489MOL0     H65989   6.121  10.173  10.824  0.0175 -1.2076  1.4066
  489MOL0     H65990   5.951  10.182  10.803 -2.4073  1.9584  2.7437
  489MOL0     H65991   6.106  10.375  10.980 -0.9262  0.5214 -1.3729
  489MOL0     H65992   5.929  10.358  10.970  0.3623  0.9461  0.1676
  489MOL0     H65993   6.126  10.142  11.056  1.6026  2.3763 -0.5134
  489MOL0     H65994   5.953  10.135  11.062  0.3342 -1.4318 -0.6851
  489MOL0     H65995   6.116  10.354  11.212 -0.8729  0.3552 -2.0993
  489MOL0     H65996   6.057  10.206  11.281 -0.5438  1.1422  1.2823
  489MOL0     H65997   6.529  10.594  10.839 -0.4799 -0.9022 -0.7666
  489MOL0     H65998   6.765  10.602  10.886 -0.9584  3.4901  0.0219
  489MOL0     H65999   7.152  10.623  10.550  0.0222  0.7958  1.7997
  489MOL0     H66000   7.399  10.649  10.526 -2.2299  0.1291 -1.6099
  489MOL0     H66001   9.552  10.214  10.704  2.3368  0.5540 -1.3823
  489MOL0     H66002   9.783  10.313  10.681  1.5495  2.0794 -0.3790
  489MOL0     H66003  10.119  10.685  11.008 -1.9326  0.7020 -0.8675
  489MOL0     H66004  10.351  10.746  10.961  1.8698  3.0689 -1.8405
  489MOL0     H66005  10.478  10.715  10.533  1.2033 -2.8690  3.2244
  489MOL0     H66006  10.440  10.896  10.553 -0.4752  0.9883  2.6503
  489MOL0     H66007  10.659  10.954  10.611 -1.4500  0.4613 -2.0895
  489MOL0     H66008  10.667  10.860  10.471 -1.4913  1.3737  0.0759
  489MOL0     H66009  10.702  10.730  10.745 -2.8852  1.6803  0.6527
  489MOL0     H66010  10.835  10.811  10.652  0.2357 -1.5526  1.0526
  489MOL0     H66011  10.799  10.666  10.456 -0.9330 -3.1513 -0.7644
  489MOL0     H66012  10.700  10.564  10.541  1.5996 -2.5777 -1.6243
  489MOL0     H66013  11.053  10.408  10.663 -1.4537 -1.6862  2.2377
  489MOL0     H66014  10.267  10.706  10.538 -3.5320  1.1794 -0.9690
  489MOL0     H66015  10.051  10.610  10.588  1.6231 -2.0025 -0.0608
  490MOL0     O66016   4.767   3.359  10.202  0.3212  0.9373 -0.2188
  490MOL0     C66017   4.789   3.453  10.122 -0.0075 -0.2683  0.3015
  490MOL0     O66018   4.698   3.519  10.047 -0.3689 -0.2532 -0.5023
  490MOL0     C66019   4.563   3.477  10.053 -0.0489 -0.0054  0.1619
  490MOL0     C66020   4.461   3.567  10.073 -0.6888 -0.1879 -0.0581
  490MOL0     C66021   4.337   3.523  10.103 -1.0493 -0.1700  0.1180
  490MOL0     C66022   4.306   3.387  10.099  0.0523  0.0832  0.3032
  490MOL0     O66023   4.180   3.341  10.142 -0.8192  0.5715  0.8154
  490MOL0     C66024   4.078   3.440  10.157 -0.1804 -0.5254 -0.1389
  490MOL0     C66025   3.939   3.391  10.180 -0.2283 -0.4124  0.8836
  490MOL0     C66026   3.893   3.320  10.051 -0.1807  0.2948  0.1230
  490MOL0     C66027   3.753   3.244  10.088 -0.8266 -0.3504 -0.2615
  490MOL0     C66028   3.710   3.155   9.970  0.1724  0.5319 -0.3620
  490MOL0     C66029   3.613   3.060  10.022 -0.1110  0.4211  0.5432
  490MOL0     C66030   3.596   2.926   9.955 -0.4696 -0.4090 -0.1190
  490MOL0     C66031   3.548   2.939   9.808 -0.4337  0.2794  0.6802
  490MOL0     N66032   3.541   2.806   9.746 -0.0476  0.2587 -0.5191
  490MOL0     C66033   3.570   2.763   9.625  0.0740  0.4675  0.1232
  490MOL0     C66034   3.518   2.637   9.623 -0.8616  0.7153 -0.7982
  490MOL0     C66035   3.531   2.541   9.509  0.1329  0.8050  0.0093
  490MOL0     C66036   3.422   2.531   9.408  0.6710 -0.5043  0.3148
  490MOL0     C66037   3.287   2.499   9.485  0.3202 -0.4548 -0.1480
  490MOL0     C66038   3.177   2.449   9.382 -0.5382  0.4660  0.5105
  490MOL0     O66039   3.050   2.481   9.446 -0.7485  0.3648  0.6330
  490MOL0     C66040   2.937   2.411   9.425 -0.2447 -0.1143 -0.5388
  490MOL0     C66041   2.927   2.318   9.320  1.0402  0.1318  0.4098
  490MOL0     C66042   2.804   2.255   9.286  0.0909 -0.0038  0.2747
  490MOL0     C66043   2.801   2.181   9.163  0.9679 -0.5090  0.2109
  490MOL0     C66044   2.696   2.285   9.362  0.1825  0.9312  0.3851
  490MOL0     C66045   2.566   2.231   9.327  0.4126 -0.2948  0.5846
  490MOL0     O66046   2.466   2.321   9.291  0.3357  0.4128 -0.8651
  490MOL0     C66047   2.345   2.261   9.259 -0.4766  0.5452 -0.0506
  490MOL0     C66048   2.268   2.306   9.153 -1.2179  0.5536  0.3876
  490MOL0     C66049   2.137   2.259   9.135 -0.3553  0.8140  1.3465
  490MOL0     C66050   2.074   2.169   9.222 -0.2284 -0.0964  0.0294
  490MOL0     O66051   1.941   2.134   9.194 -0.1520 -0.5840  0.1347
  490MOL0     C66052   1.844   2.235   9.211 -0.2329  0.3654 -0.4642
  490MOL0     C66053   1.705   2.175   9.219  0.0089 -0.1509 -0.6340
  490MOL0     C66054   1.685   2.099   9.353 -1.1746 -0.3512 -0.1959
  490MOL0     C66055   1.559   2.025   9.362  0.3439  0.3804 -0.1498
  490MOL0     C66056   1.522   1.989   9.502  0.0176 -1.2000  0.3231
  490MOL0     C66057   1.381   1.931   9.530  0.7869 -0.2321 -0.4895
  490MOL0     C66058   1.260   1.972   9.437  0.4438  0.3138  0.0223
  490MOL0     C66059   1.135   1.933   9.516  0.1829 -0.2199 -0.5089
  490MOL0    Cl66060   1.004   2.022   9.427  0.0628 -0.6537 -0.3234
  490MOL0     C66061   2.158   2.134   9.332 -0.0650  1.3489 -0.8139
  490MOL0     C66062   2.289   2.177   9.354  0.3054 -0.3361  1.0124
  490MOL0     O66063   2.557   2.110   9.332  0.5168  0.4718 -0.0042
  490MOL0     C66064   2.706   2.376   9.471  0.5946  0.5928  0.4013
  490MOL0     C66065   2.821   2.440   9.503 -0.4044  0.6490  0.5402
  490MOL0     N66066   3.460   2.601   9.742 -0.1879  0.3415 -0.3593
  490MOL0     N66067   3.467   2.706   9.811 -0.2443 -0.1603  1.0282
  490MOL0     C66068   4.399   3.296  10.066  0.3222  0.2663 -0.3086
  490MOL0     C66069   4.531   3.338  10.035 -0.2485  0.0132 -1.4149
  490MOL0     C66070   4.920   3.520  10.126  0.1841 -0.2335  0.4876
  490MOL0     C66071   4.935   3.659  10.114  0.0472  0.2077  0.3510
  490MOL0     C66072   5.058   3.702  10.105 -1.7144 -0.6169  0.1862
  490MOL0     C66073   5.174   3.622  10.103  0.3109 -0.4355  0.4428
  490MOL0     O66074   5.297   3.678  10.096 -0.7815 -0.1832 -0.2948
  490MOL0     C66075   5.404   3.594  10.067  0.6352  0.9734 -1.0177
  490MOL0     C66076   5.532   3.671  10.043  0.0457  0.1019  0.4219
  490MOL0     C66077   5.650   3.579   9.992  0.9454  0.0786  0.3504
  490MOL0     C66078   5.792   3.636  10.009 -0.6195  0.1687  0.4477
  490MOL0     C66079   5.789   3.761   9.928 -0.7735  0.2493  0.6051
  490MOL0     C66080   5.763   3.858   9.867 -0.2672  0.9589 -0.6093
  490MOL0     C66081   5.151   3.481  10.123 -0.5411 -1.0887  0.9267
  490MOL0     C66082   5.027   3.429  10.134  0.5811  0.1264  0.5634
  490MOL0     H66083   4.482   3.673  10.082 -0.7479 -0.2056  0.3244
  490MOL0     H66084   4.259   3.594  10.130 -0.8364 -0.0233  0.3546
  490MOL0     H66085   4.102   3.505  10.242 -1.8176  0.6776 -0.5417
  490MOL0     H66086   4.081   3.509  10.072 -0.0268 -1.6392 -1.0557
  490MOL0     H66087   3.929   3.327  10.268  0.5655  1.9845  2.8453
  490MOL0     H66088   3.877   3.479  10.201 -0.5751 -0.5510  0.4611
  490MOL0     H66089   3.882   3.397   9.974 -0.6907 -2.1853 -2.4235
  490MOL0     H66090   3.968   3.250  10.015  0.3599  0.9254  0.0120
  490MOL0     H66091   3.770   3.180  10.174  1.6905 -2.9179 -2.4306
  490MOL0     H66092   3.681   3.319  10.121 -0.4593 -0.2356  0.3018
  490MOL0     H66093   3.672   3.211   9.884  2.2350 -0.7177 -2.2062
  490MOL0     H66094   3.803   3.106   9.938 -0.9217 -2.1109  0.2966
  490MOL0     H66095   3.638   3.028  10.123 -3.1936 -2.3324  0.6161
  490MOL0     H66096   3.512   3.102  10.032 -1.9323 -3.1720 -0.7580
  490MOL0     H66097   3.696   2.880   9.954 -0.6349 -0.9206  2.3704
  490MOL0     H66098   3.528   2.861  10.009 -0.4641 -0.9182 -0.7215
  490MOL0     H66099   3.622   3.000   9.756  2.5329 -1.9719  1.9351
  490MOL0     H66100   3.451   2.988   9.800 -0.8593 -0.7738 -1.3047
  490MOL0     H66101   3.620   2.819   9.547  1.2122  1.6245  1.6389
  490MOL0     H66102   3.623   2.576   9.462  2.0633  0.7827  3.3753
  490MOL0     H66103   3.548   2.445   9.560  3.3651  0.8791 -0.6956
  490MOL0     H66104   3.433   2.454   9.331 -1.1453  0.3026 -0.8180
  490MOL0     H66105   3.412   2.633   9.371  2.3365 -0.1824  0.6889
  490MOL0     H66106   3.253   2.590   9.536  2.0764  0.7316 -0.9799
  490MOL0     H66107   3.297   2.427   9.566 -1.3207 -1.7594 -1.0519
  490MOL0     H66108   3.197   2.342   9.369  0.1158  0.6155  0.2586
  490MOL0     H66109   3.176   2.491   9.280  0.7674 -3.3042 -1.2267
  490MOL0     H66110   3.013   2.275   9.269 -1.2756 -4.7693  0.0444
  490MOL0     H66111   2.781   2.257   9.087  3.3072 -2.3471 -2.4673
  490MOL0     H66112   2.900   2.143   9.137  0.6662 -2.0678  1.2100
  490MOL0     H66113   2.728   2.100   9.154 -1.2693  1.4699 -0.6128
  490MOL0     H66114   2.314   2.377   9.085  1.4031 -1.8286 -0.5125
  490MOL0     H66115   2.091   2.275   9.038 -0.9068 -0.6766  1.3366
  490MOL0     H66116   1.856   2.279   9.310  2.1865 -0.0690 -0.5271
  490MOL0     H66117   1.832   2.309   9.131 -3.1836  0.1686 -0.3209
  490MOL0     H66118   1.638   2.260   9.207  3.2559  3.0483  1.5205
  490MOL0     H66119   1.698   2.103   9.137  1.9506 -0.8580 -0.2417
  490MOL0     H66120   1.685   2.175   9.432  0.3340  0.3563 -0.8288
  490MOL0     H66121   1.773   2.036   9.371  1.7511  2.7043 -2.3571
  490MOL0     H66122   1.488   2.088   9.308 -0.2533 -2.6017 -3.1676
  490MOL0     H66123   1.574   1.929   9.311 -0.1686  0.3747 -0.2891
  490MOL0     H66124   1.527   2.085   9.554  0.3939 -1.7914  1.4288
  490MOL0     H66125   1.598   1.922   9.543  1.5091 -1.3228 -2.4024
  490MOL0     H66126   1.396   1.824   9.512 -1.0248 -0.1703 -2.9161
  490MOL0     H66127   1.365   1.956   9.635  2.7256  0.0421 -0.2256
  490MOL0     H66128   1.267   1.918   9.343 -1.4871 -0.8029  0.4627
  490MOL0     H66129   1.260   2.081   9.432  0.6841  0.2498 -1.5943
  490MOL0     H66130   1.139   1.974   9.618 -5.3094  2.6875 -1.0702
  490MOL0     H66131   1.125   1.825   9.528  3.3484 -0.3854  2.1181
  490MOL0     H66132   2.108   2.067   9.401 -1.1717  0.9949 -1.9228
  490MOL0     H66133   2.339   2.157   9.448 -1.4601  1.4624  2.4296
  490MOL0     H66134   2.615   2.394   9.527 -0.5810 -2.6366 -0.3072
  490MOL0     H66135   2.832   2.511   9.584  1.1650  0.5751  0.4183
  490MOL0     H66136   4.390   3.188  10.056 -2.8622  0.5507 -1.8078
  490MOL0     H66137   4.609   3.264  10.018  1.0386  0.0418  3.0990
  490MOL0     H66138   4.857   3.734  10.105  0.9046  1.2479  1.3083
  490MOL0     H66139   5.072   3.809  10.111 -1.8250 -0.4946 -1.2438
  490MOL0     H66140   5.415   3.523  10.150 -3.7942 -0.2056 -1.1780
  490MOL0     H66141   5.379   3.541   9.975 -1.5373  1.3373 -0.6904
  490MOL0     H66142   5.569   3.731  10.126  0.5840  1.9190 -1.0621
  490MOL0     H66143   5.509   3.746   9.966  3.7213  2.0391  0.9488
  490MOL0     H66144   5.624   3.559   9.887  0.2036  0.6125  0.4225
  490MOL0     H66145   5.652   3.488  10.053 -1.2319  0.9427  1.8371
  490MOL0     H66146   5.871   3.570   9.971 -0.1095  1.1113 -0.1952
  490MOL0     H66147   5.815   3.659  10.113 -2.1774 -1.6860  1.2606
  490MOL0     H66148   5.750   3.954   9.820  1.0249  1.5224  0.1627
  490MOL0     H66149   5.231   3.408  10.131  2.3488  1.8599  1.0115
  490MOL0     H66150   5.011   3.322  10.138 -0.2732  0.2456  0.4808
  491MOL0     O66151   2.343  10.158   7.792  0.7293  0.6969 -0.1037
  491MOL0     C66152   2.222  10.186   7.806 -0.3643  1.0939  1.0879
  491MOL0     O66153   2.151  10.157   7.908  0.0676  0.3095 -0.3440
  491MOL0     C66154   2.202  10.092   8.020  0.7811  0.7945 -0.5209
  491MOL0     C66155   2.333  10.072   8.067  0.1955 -0.1771 -0.8381
  491MOL0     C66156   2.362  10.002   8.183 -0.7192 -0.1773  0.8526
  491MOL0     C66157   2.267   9.929   8.242 -0.8271  0.1901 -0.9656
  491MOL0     O66158   2.318   9.861   8.349 -0.9796 -1.1357 -0.1363
  491MOL0     C66159   2.274   9.730   8.368 -0.5205 -0.0109  0.3326
  491MOL0     C66160   2.353   9.683   8.479  0.4293  0.5451 -0.1260
  491MOL0     C66161   2.505   9.668   8.457  0.3086 -0.1738  0.4205
  491MOL0     C66162   2.583   9.641   8.589  0.5680 -0.1129  0.4038
  491MOL0     C66163   2.727   9.622   8.557 -1.1202  0.2983 -0.1190
  491MOL0     C66164   2.814   9.622   8.677 -0.1167  0.7844  0.2999
  491MOL0     C66165   2.771   9.518   8.785  0.4689  0.2089 -0.0957
  491MOL0     C66166   2.881   9.497   8.892 -0.1047  0.0247 -0.1101
  491MOL0     N66167   3.009   9.428   8.840  0.6398  0.1934  0.2403
  491MOL0     C66168   3.108   9.486   8.773 -0.0654 -1.0135 -0.0463
  491MOL0     C66169   3.198   9.392   8.751 -0.4977 -1.0011 -0.1448
  491MOL0     C66170   3.332   9.416   8.695 -0.5459  0.5048  0.5884
  491MOL0     C66171   3.442   9.340   8.764  0.7627  0.1004 -0.6644
  491MOL0     C66172   3.581   9.374   8.707 -0.2429 -0.1656  0.9902
  491MOL0     C66173   3.693   9.286   8.765  0.0335  0.7881  0.3460
  491MOL0     O66174   3.733   9.348   8.888 -0.3918 -0.6142 -0.5380
  491MOL0     C66175   3.861   9.329   8.931 -0.1906 -0.5605 -0.4165
  491MOL0     C66176   3.917   9.424   9.015 -0.0101 -0.0082 -0.1188
  491MOL0     C66177   4.049   9.403   9.065  0.4114 -0.0211  0.6070
  491MOL0     C66178   4.103   9.519   9.145 -0.1326  0.2497 -0.2248
  491MOL0     C66179   4.121   9.288   9.033 -0.3446  0.0958  0.5417
  491MOL0     C66180   4.258   9.260   9.080 -0.8948  0.7453  0.7331
  491MOL0     O66181   4.290   9.301   9.208  0.0271 -0.3908  0.0529
  491MOL0     C66182   4.415   9.298   9.270  0.6551  1.2133 -0.4364
  491MOL0     C66183   4.469   9.417   9.310 -0.9824 -0.5637  0.5115
  491MOL0     C66184   4.603   9.433   9.356  1.3574 -0.1554  0.3170
  491MOL0     C66185   4.666   9.313   9.385  0.1724  0.0804  0.6100
  491MOL0     O66186   4.788   9.320   9.436 -0.2855 -0.7667 -0.3889
  491MOL0     C66187   4.885   9.211   9.431  0.3310  0.0272  0.0192
  491MOL0     C66188   5.023   9.264   9.461 -0.3927 -0.4019 -0.2468
  491MOL0     C66189   5.095   9.332   9.346 -0.6479 -0.0841 -0.5336
  491MOL0     C66190   5.248   9.333   9.378 -0.3251 -0.2738 -1.0009
  491MOL0     C66191   5.331   9.357   9.247 -0.0498  0.5092  0.0229
  491MOL0     C66192   5.475   9.293   9.263  0.1379 -0.4006  1.1008
  491MOL0     C66193   5.486   9.144   9.234 -0.4119  1.0022  0.9106
  491MOL0     C66194   5.482   9.122   9.081 -0.8120  0.0178 -0.6909
  491MOL0    Cl66195   5.467   8.952   9.021  0.0437 -0.1174 -0.4695
  491MOL0     C66196   4.607   9.190   9.363  0.0544 -0.1432 -1.2718
  491MOL0     C66197   4.480   9.179   9.302 -0.5111  0.3103 -0.3834
  491MOL0     O66198   4.339   9.202   9.005 -0.9538 -0.3328 -0.5374
  491MOL0     C66199   4.063   9.196   8.942 -0.6551 -0.1814 -0.3253
  491MOL0     C66200   3.935   9.220   8.884 -0.8401  0.7000 -0.4697
  491MOL0     N66201   3.158   9.275   8.801 -0.4964  0.7311 -0.5426
  491MOL0     N66202   3.039   9.298   8.852  0.1324  0.3800  0.0083
  491MOL0     C66203   2.126   9.941   8.209 -0.8045 -0.0097  0.2694
  491MOL0     C66204   2.100  10.025   8.102  0.3747 -0.3960 -0.4162
  491MOL0     C66205   2.167  10.268   7.698 -0.3287 -0.5183  0.3537
  491MOL0     C66206   2.228  10.261   7.569 -0.6968 -0.5615  0.0802
  491MOL0     C66207   2.189  10.352   7.473 -0.0100  0.4396 -0.1790
  491MOL0     C66208   2.079  10.436   7.489 -0.4357 -0.1670 -0.4565
  491MOL0     O66209   2.044  10.510   7.381 -0.4371 -0.1152 -0.4621
  491MOL0     C66210   1.908  10.553   7.362 -0.0609 -0.2336 -0.2127
  491MOL0     C66211   1.870  10.581   7.215  0.2673 -0.7756 -0.5161
  491MOL0     C66212   1.883  10.448   7.144  0.6956 -0.8680  0.0456
  491MOL0     C66213   1.839  10.462   6.994  0.3980 -0.0833 -0.6307
  491MOL0     C66214   1.693  10.460   6.972 -0.2367  0.2783 -0.5068
  491MOL0     C66215   1.574  10.457   6.955  0.2934 -0.0219  0.7064
  491MOL0     C66216   2.012  10.440   7.613 -0.8422 -0.5774 -0.1842
  491MOL0     C66217   2.061  10.362   7.717  0.6381  0.5845  0.1730
  491MOL0     H66218   2.416  10.117   8.015  1.7320 -1.6845  0.1666
  491MOL0     H66219   2.463   9.997   8.223 -0.5702  0.4852  0.5856
  491MOL0     H66220   2.169   9.715   8.395 -1.5511  2.9946 -1.6124
  491MOL0     H66221   2.292   9.674   8.275  0.0387 -3.5177  2.3530
  491MOL0     H66222   2.325   9.739   8.569 -1.0125 -1.0065  0.4537
  491MOL0     H66223   2.311   9.584   8.498  4.5281 -1.4371 -0.4461
  491MOL0     H66224   2.532   9.597   8.378  1.0453 -1.0308  1.4018
  491MOL0     H66225   2.545   9.761   8.417 -1.4267  0.5711  0.3330
  491MOL0     H66226   2.561   9.725   8.656 -2.3368  0.0668 -0.6266
  491MOL0     H66227   2.534   9.551   8.628 -2.3748  1.8201  1.6199
  491MOL0     H66228   2.735   9.524   8.509  0.7345 -0.7445  2.1504
  491MOL0     H66229   2.763   9.700   8.488  0.6122  0.5892  1.0624
  491MOL0     H66230   2.916   9.610   8.638  0.2773  0.5858  1.3589
  491MOL0     H66231   2.802   9.717   8.730 -0.6283 -0.0414  1.7189
  491MOL0     H66232   2.679   9.558   8.829 -0.7824 -1.7734 -0.7871
  491MOL0     H66233   2.744   9.423   8.739 -1.1850  1.1840 -1.2425
  491MOL0     H66234   2.831   9.434   8.966  0.1397  0.5084  0.4791
  491MOL0     H66235   2.901   9.602   8.914  0.8988  0.6424 -3.4043
  491MOL0     H66236   3.118   9.590   8.743  0.0535 -1.8062 -3.1310
  491MOL0     H66237   3.331   9.375   8.593  0.3833 -0.8341  1.0889
  491MOL0     H66238   3.355   9.522   8.708  0.1645  0.2096  1.8735
  491MOL0     H66239   3.426   9.232   8.771  2.7578 -0.2038  4.8914
  491MOL0     H66240   3.437   9.369   8.870 -3.3522 -3.9172  0.5634
  491MOL0     H66241   3.608   9.480   8.709 -1.5805  0.2117  0.4362
  491MOL0     H66242   3.560   9.348   8.602 -0.7379 -0.3326  1.1281
  491MOL0     H66243   3.770   9.279   8.688  2.4014 -0.0907  2.6428
  491MOL0     H66244   3.670   9.180   8.781  2.3467  0.3268  1.0044
  491MOL0     H66245   3.856   9.510   9.043  0.2629  1.0760 -2.6214
  491MOL0     H66246   4.209   9.529   9.122  0.5166 -1.2134  1.8536
  491MOL0     H66247   4.044   9.610   9.127 -2.0926 -1.1547 -1.2904
  491MOL0     H66248   4.106   9.484   9.249  0.6738 -1.0036 -0.6540
  491MOL0     H66249   4.403   9.503   9.314  1.1735  1.3207 -1.4657
  491MOL0     H66250   4.660   9.522   9.382 -1.3372  1.0301  2.7031
  491MOL0     H66251   4.861   9.130   9.500 -1.7659 -0.2397 -0.9433
  491MOL0     H66252   4.883   9.165   9.332  0.5927 -2.2416  1.0124
  491MOL0     H66253   5.013   9.330   9.547 -0.9574  0.5057 -0.9859
  491MOL0     H66254   5.077   9.180   9.507  0.8355  1.4938  2.0145
  491MOL0     H66255   5.057   9.433   9.324  1.8602  0.7062 -1.5853
  491MOL0     H66256   5.087   9.269   9.257  3.7485 -1.3435 -0.2203
  491MOL0     H66257   5.270   9.419   9.442 -0.0100  0.6396 -2.3031
  491MOL0     H66258   5.282   9.236   9.417  0.5986 -0.4505 -2.1969
  491MOL0     H66259   5.337   9.457   9.204  0.5445  0.5329  0.1617
  491MOL0     H66260   5.268   9.302   9.176  0.7479  0.1742 -0.4399
  491MOL0     H66261   5.549   9.343   9.200 -0.1363 -0.1478  0.9731
  491MOL0     H66262   5.506   9.315   9.366  1.0940 -0.3054  0.7969
  491MOL0     H66263   5.395   9.099   9.276  0.6876 -0.9995  1.2797
  491MOL0     H66264   5.572   9.098   9.284  0.4008 -1.3459 -2.2667
  491MOL0     H66265   5.572   9.166   9.037  1.2657 -2.8778  0.3291
  491MOL0     H66266   5.405   9.180   9.030  1.0559  1.6628 -1.7804
  491MOL0     H66267   4.655   9.095   9.385  2.7788  0.9833 -1.9198
  491MOL0     H66268   4.429   9.084   9.297  0.2330 -0.0608 -1.1404
  491MOL0     H66269   4.119   9.107   8.915  1.3800  0.1259  2.4047
  491MOL0     H66270   3.898   9.135   8.827 -3.7817  1.7298 -0.2987
  491MOL0     H66271   2.051   9.904   8.278 -0.9412 -0.3998 -0.0848
  491MOL0     H66272   1.998  10.021   8.065  0.6158 -0.5952 -1.0819
  491MOL0     H66273   2.316  10.197   7.558  0.1157  0.4301  0.6367
  491MOL0     H66274   2.245  10.355   7.381  0.0186  1.9231 -0.1295
  491MOL0     H66275   1.838  10.480   7.402 -0.9365  1.4892  1.5713
  491MOL0     H66276   1.895  10.650   7.410 -2.2553 -0.4411 -0.3202
  491MOL0     H66277   1.946  10.649   7.174 -0.3625  2.6256  3.2503
  491MOL0     H66278   1.772  10.630   7.215  1.7106  2.4850  1.0548
  491MOL0     H66279   1.835  10.368   7.201  0.3905  0.0626  1.1438
  491MOL0     H66280   1.987  10.417   7.135  2.1462  3.3216 -0.0199
  491MOL0     H66281   1.878  10.370   6.949  0.2858 -0.7920  0.6865
  491MOL0     H66282   1.887  10.545   6.941 -1.1500  0.6117 -1.0096
  491MOL0     H66283   1.470  10.443   6.935  0.2251 -0.1782  1.1524
  491MOL0     H66284   1.931  10.508   7.637  2.6873  2.7091  4.3672
  491MOL0     H66285   2.005  10.365   7.810 -1.3881 -0.6433 -0.9012
  492MOL0     O66286  10.571  10.730   3.354 -0.1572 -1.0678 -0.5419
  492MOL0     C66287  10.631  10.808   3.431 -1.0140  1.1161 -0.5080
  492MOL0     O66288  10.626  10.940   3.441 -0.0816  0.0896  0.1735
  492MOL0     C66289  10.529  11.016   3.375  1.1648 -0.0877 -0.3226
  492MOL0     C66290  10.576  11.134   3.321  1.1988  0.3587 -0.6947
  492MOL0     C66291  10.487  11.232   3.269  0.4528 -0.1293  0.0248
  492MOL0     C66292  10.348  11.193   3.265  0.0453 -1.1478  1.2080
  492MOL0     O66293  10.243  11.277   3.223  0.0173 -0.3684  0.2666
  492MOL0     C66294  10.278  11.415   3.193 -0.0782 -0.8463 -0.7996
  492MOL0     C66295  10.160  11.509   3.167 -0.5670  0.0255 -0.5288
  492MOL0     C66296  10.115  11.557   3.297  0.7188 -0.1838 -0.1643
  492MOL0     C66297   9.989  11.650   3.284 -0.0490  0.4042  0.2395
  492MOL0     C66298   9.929  11.699   3.410 -0.3065 -0.1497  0.0636
  492MOL0     C66299   9.810  11.781   3.370  0.4013  0.2881 -0.3981
  492MOL0     C66300   9.743  11.846   3.487  0.3138  0.4982 -0.0628
  492MOL0     C66301   9.635  11.940   3.444  0.3284 -0.3760  0.6456
  492MOL0     N66302   9.543  11.975   3.546  0.2297  0.0277  0.0254
  492MOL0     C66303   9.405  11.962   3.555 -0.3163 -0.1927 -0.1187
  492MOL0     C66304   9.374  11.981   3.686  0.5732  0.3700  0.2352
  492MOL0     C66305   9.231  11.972   3.717 -0.1919 -0.9817  0.4591
  492MOL0     C66306   9.164  12.111   3.707  0.4544 -0.4010  0.3482
  492MOL0     C66307   9.038  12.112   3.618 -0.3943  0.5763 -0.2731
  492MOL0     C66308   8.975  12.253   3.633  0.0660  0.5494 -0.1504
  492MOL0     O66309   8.906  12.250   3.761 -0.0560 -0.2699 -0.3208
  492MOL0     C66310   8.843  12.360   3.807 -0.3397  0.1979 -0.5930
  492MOL0     C66311   8.799  12.471   3.734 -0.1515  1.1518 -0.1086
  492MOL0     C66312   8.735  12.570   3.797  1.2460 -0.3547  0.0499
  492MOL0     C66313   8.686  12.692   3.717 -0.5196  0.0027 -0.2179
  492MOL0     C66314   8.695  12.557   3.937  0.5733 -0.4241 -0.0018
  492MOL0     C66315   8.592  12.638   4.013  0.1735 -0.7092  0.7052
  492MOL0     O66316   8.590  12.632   4.149 -0.3563  0.9114 -0.3091
  492MOL0     C66317   8.472  12.635   4.220 -0.7793 -0.3749  0.2947
  492MOL0     C66318   8.342  12.601   4.170  0.5687  0.3566  0.4416
  492MOL0     C66319   8.229  12.607   4.261 -0.7976 -0.0280  0.3138
  492MOL0     C66320   8.248  12.655   4.390 -0.3765 -0.8372 -0.4297
  492MOL0     O66321   8.141  12.687   4.468 -0.1930  0.2971 -0.0163
  492MOL0     C66322   8.004  12.651   4.445 -0.3079  0.3890 -0.0046
  492MOL0     C66323   7.922  12.692   4.568 -0.3996 -0.4924  0.4901
  492MOL0     C66324   7.774  12.674   4.550  0.6461 -0.1082  0.2711
  492MOL0     C66325   7.706  12.532   4.553 -0.6156  0.1242 -0.3182
  492MOL0     C66326   7.558  12.526   4.556  0.1715  0.0558 -0.8750
  492MOL0     C66327   7.499  12.591   4.674 -0.5186  0.0932 -0.7584
  492MOL0     C66328   7.347  12.576   4.686 -0.3315  0.3107  0.3031
  492MOL0     C66329   7.265  12.638   4.580  0.2533 -0.4044 -0.2005
  492MOL0    Cl66330   7.314  12.805   4.538 -0.2013 -0.0630 -0.2017
  492MOL0     C66331   8.373  12.682   4.434 -0.8109  0.0252  0.3610
  492MOL0     C66332   8.478  12.677   4.349 -0.0698  0.4118  0.9383
  492MOL0     O66333   8.513  12.707   3.953 -0.1911 -0.1062 -0.1566
  492MOL0     C66334   8.743  12.459   4.014 -1.1492  1.0411 -0.0460
  492MOL0     C66335   8.824  12.356   3.951  0.0802 -0.5545 -0.8523
  492MOL0     N66336   9.483  12.021   3.753  0.3568  0.8027 -0.5884
  492MOL0     N66337   9.581  12.006   3.673  0.3107 -0.5217  0.2705
  492MOL0     C66338  10.300  11.075   3.315 -0.2225 -0.6403 -0.5321
  492MOL0     C66339  10.390  10.982   3.365 -1.1485  0.1313 -1.4040
  492MOL0     C66340  10.752  10.748   3.492  0.1325  0.1763 -0.0505
  492MOL0     C66341  10.795  10.615   3.457  1.7464 -1.0089  0.0940
  492MOL0     C66342  10.892  10.546   3.525 -0.7951 -0.1820  0.0074
  492MOL0     C66343  10.967  10.611   3.623  0.6560 -0.4246 -0.2952
  492MOL0     O66344  11.061  10.540   3.690 -0.0693  0.1739 -0.1922
  492MOL0     C66345  11.172  10.612   3.747 -0.9705  0.8438  0.0498
  492MOL0     C66346  11.277  10.512   3.794  0.1033  0.1871  0.1930
  492MOL0     C66347  11.372  10.451   3.698 -0.1889  0.9379  0.7614
  492MOL0     C66348  11.319  10.314   3.624  0.2482  0.3202 -0.5059
  492MOL0     C66349  11.426  10.257   3.537  0.7363  0.9463  0.0834
  492MOL0     C66350  11.519  10.189   3.497 -0.6896 -0.2760 -0.3569
  492MOL0     C66351  10.937  10.742   3.655  0.9427  0.1842 -0.5073
  492MOL0     C66352  10.825  10.808   3.597  0.0632 -0.5606 -0.6392
  492MOL0     H66353  10.682  11.157   3.328  2.0217 -3.0039 -0.6615
  492MOL0     H66354  10.521  11.323   3.221  0.1040 -0.5677 -1.0841
  492MOL0     H66355  10.345  11.436   3.277  1.8998 -1.4250 -2.1818
  492MOL0     H66356  10.334  11.413   3.099  0.9945  2.3506 -0.3538
  492MOL0     H66357  10.173  11.591   3.096 -0.0594 -0.1252 -0.6074
  492MOL0     H66358  10.073  11.458   3.123  0.6022 -2.3428 -0.2568
  492MOL0     H66359  10.091  11.486   3.377  1.2773  0.2007  0.3589
  492MOL0     H66360  10.193  11.623   3.338  1.4418 -0.2756 -1.3652
  492MOL0     H66361  10.013  11.740   3.227 -1.9239  2.0846  1.9308
  492MOL0     H66362   9.911  11.598   3.227 -0.8956  1.4989  0.3622
  492MOL0     H66363   9.904  11.616   3.477 -0.5812 -1.1120 -1.1854
  492MOL0     H66364   9.999  11.755   3.473 -0.6057 -0.1277  0.3776
  492MOL0     H66365   9.845  11.865   3.309  1.1483  1.2998  1.3432
  492MOL0     H66366   9.739  11.717   3.316 -0.2002  0.0706  0.6290
  492MOL0     H66367   9.701  11.772   3.557 -1.6320  1.9724  0.4159
  492MOL0     H66368   9.817  11.906   3.541 -0.6790  0.4536  1.4272
  492MOL0     H66369   9.578  11.913   3.355  0.7443  1.3352 -0.1714
  492MOL0     H66370   9.683  12.029   3.402 -1.1617 -0.4200 -1.3109
  492MOL0     H66371   9.336  11.942   3.473 -0.0577  0.9386 -0.6369
  492MOL0     H66372   9.179  11.888   3.669 -0.0057 -0.8954  0.1051
  492MOL0     H66373   9.234  11.946   3.824  0.7772 -1.1286  0.4047
  492MOL0     H66374   9.233  12.187   3.670 -1.6810  0.7176 -1.6317
  492MOL0     H66375   9.141  12.144   3.809  1.0023 -2.2642  1.1156
  492MOL0     H66376   8.973  12.035   3.660  1.8932 -1.2973  0.0278
  492MOL0     H66377   9.060  12.082   3.515  0.0426  0.3468 -0.1152
  492MOL0     H66378   8.909  12.270   3.547  4.4354  0.9098 -3.8389
  492MOL0     H66379   9.050  12.332   3.621  0.5992  0.5087  2.4085
  492MOL0     H66380   8.819  12.478   3.628  0.9582 -0.9434 -0.1034
  492MOL0     H66381   8.670  12.773   3.789 -0.3816 -0.6888  0.6155
  492MOL0     H66382   8.765  12.720   3.647  0.0566 -1.2642 -0.1135
  492MOL0     H66383   8.595  12.676   3.658  0.4731  1.0707 -2.1147
  492MOL0     H66384   8.321  12.586   4.064  0.2851  2.1602  0.2092
  492MOL0     H66385   8.127  12.609   4.223 -1.0658  4.6387  0.7051
  492MOL0     H66386   7.971  12.702   4.354  1.9965 -1.7826 -2.2208
  492MOL0     H66387   7.982  12.546   4.427  1.4274  0.1377 -0.8725
  492MOL0     H66388   7.953  12.627   4.650  0.0510 -1.5275 -0.4743
  492MOL0     H66389   7.940  12.796   4.597 -1.4061  0.9393 -3.3029
  492MOL0     H66390   7.738  12.710   4.453 -1.6306  0.0054  1.1015
  492MOL0     H66391   7.723  12.738   4.622 -0.0782 -2.0291  1.5723
  492MOL0     H66392   7.741  12.467   4.472  0.2883  2.1528 -1.6529
  492MOL0     H66393   7.743  12.475   4.638 -0.9426 -2.3506 -1.7398
  492MOL0     H66394   7.533  12.420   4.568 -1.1736  0.4583  0.0567
  492MOL0     H66395   7.528  12.571   4.461  1.7501  0.8094 -1.0548
  492MOL0     H66396   7.552  12.554   4.762 -0.2340  1.5353 -0.3093
  492MOL0     H66397   7.535  12.694   4.678  1.1787 -0.5011 -0.1650
  492MOL0     H66398   7.324  12.619   4.784  1.3121  1.0210  0.4185
  492MOL0     H66399   7.314  12.474   4.705 -0.9423  0.6050  0.8498
  492MOL0     H66400   7.158  12.642   4.605 -0.3542 -2.3344 -2.1365
  492MOL0     H66401   7.273  12.572   4.493 -1.8913 -0.1308 -0.6626
  492MOL0     H66402   8.380  12.724   4.534 -1.8525  0.2727  0.3448
  492MOL0     H66403   8.575  12.699   4.392  0.3365 -1.0045  0.7712
  492MOL0     H66404   8.721  12.429   4.116 -1.6438 -0.6310 -0.5947
  492MOL0     H66405   8.875  12.277   4.005  1.7624  0.9193 -0.1324
  492MOL0     H66406  10.197  11.054   3.343  0.1132 -1.1657  0.3449
  492MOL0     H66407  10.350  10.898   3.420  2.1648  1.0380  2.8578
  492MOL0     H66408  10.747  10.561   3.376 -1.4751  0.3042  0.9778
  492MOL0     H66409  10.909  10.447   3.483 -3.2048 -0.1071 -1.3456
  492MOL0     H66410  11.212  10.680   3.671  0.1621 -0.2966 -0.3930
  492MOL0     H66411  11.137  10.670   3.833  0.9202 -0.2784  1.6519
  492MOL0     H66412  11.228  10.431   3.848  0.5013 -0.2748 -0.1420
  492MOL0     H66413  11.330  10.572   3.870 -1.2607  2.5172 -0.5703
  492MOL0     H66414  11.471  10.428   3.738  0.0775 -0.5136 -0.5990
  492MOL0     H66415  11.385  10.528   3.621  0.9787 -1.9144 -2.1428
  492MOL0     H66416  11.225  10.321   3.569  1.3744 -0.5365 -2.6656
  492MOL0     H66417  11.312  10.239   3.703  0.0154  1.8036  0.9544
  492MOL0     H66418  11.596  10.116   3.481 -0.1956  0.3885 -1.0684
  492MOL0     H66419  10.994  10.799   3.728 -0.5483  1.2107 -0.1067
  492MOL0     H66420  10.813  10.914   3.614 -1.4801 -1.0874  2.2817
  493MOL0     O66421  10.627   9.529  10.789  0.8444  0.5178 -0.0901
  493MOL0     C66422  10.698   9.622  10.763 -0.5198  0.0170 -0.4659
  493MOL0     O66423  10.664   9.752  10.793  0.0597 -0.6128 -0.4581
  493MOL0     C66424  10.552   9.773  10.878  0.4060  0.1457 -0.5622
  493MOL0     C66425  10.437   9.818  10.825 -0.3800 -0.0372 -0.3559
  493MOL0     C66426  10.323   9.842  10.906 -0.0831 -0.5957  0.4416
  493MOL0     C66427  10.326   9.819  11.038 -0.2814 -0.2692 -0.7642
  493MOL0     O66428  10.210   9.849  11.106 -0.2391  0.8800  0.3921
  493MOL0     C66429  10.207   9.816  11.246 -0.3629  0.2435  0.8330
  493MOL0     C66430  10.082   9.854  11.318  0.0967 -0.3852  0.1659
  493MOL0     C66431   9.948   9.818  11.259  0.3870 -0.2071  0.0395
  493MOL0     C66432   9.829   9.846  11.356 -0.8741 -0.3632  0.4115
  493MOL0     C66433   9.685   9.792  11.310 -0.5204  0.1533 -0.8144
  493MOL0     C66434   9.691   9.640  11.281  0.1838  0.0128 -0.9798
  493MOL0     C66435   9.561   9.576  11.231 -0.1706  0.0121 -0.0774
  493MOL0     C66436   9.429   9.586  11.328 -0.3351 -0.1794 -0.3741
  493MOL0     N66437   9.308   9.528  11.264 -0.2436 -0.7851 -1.0116
  493MOL0     C66438   9.190   9.599  11.257  0.5271  0.4969  0.1869
  493MOL0     C66439   9.097   9.513  11.206 -0.1546 -0.6149  0.5459
  493MOL0     C66440   8.952   9.554  11.171 -0.2438 -0.8825  0.7767
  493MOL0     C66441   8.859   9.605  11.283  0.3932  0.4216  1.3464
  493MOL0     C66442   8.744   9.683  11.228  0.7088  0.5369 -0.0609
  493MOL0     C66443   8.655   9.725  11.340  0.4453  0.8753 -0.7775
  493MOL0     O66444   8.570   9.822  11.276  0.4688  0.6980  0.1237
  493MOL0     C66445   8.465   9.855  11.358  0.6713 -0.6687  0.4931
  493MOL0     C66446   8.438   9.807  11.483  0.6467  0.7210 -0.3991
  493MOL0     C66447   8.330   9.846  11.559  0.3894 -0.6926  0.5419
  493MOL0     C66448   8.311   9.780  11.688 -0.7449 -0.8042 -0.6631
  493MOL0     C66449   8.240   9.950  11.510 -0.6354 -0.6843  0.4008
  493MOL0     C66450   8.125  10.006  11.593 -0.0572  0.2581  0.1172
  493MOL0     O66451   8.018  10.042  11.520 -0.4803  0.1424  0.7056
  493MOL0     C66452   7.904  10.062  11.586  0.4629  0.5782  0.9258
  493MOL0     C66453   7.841  10.186  11.563  0.1829  0.5356 -0.3046
  493MOL0     C66454   7.719  10.212  11.625 -0.1062  0.1976  0.0721
  493MOL0     C66455   7.646  10.108  11.686 -0.1031 -0.1674 -0.2159
  493MOL0     O66456   7.517  10.139  11.729 -0.4291 -0.0317 -0.4797
  493MOL0     C66457   7.427  10.028  11.737 -0.1313 -0.9726 -0.7119
  493MOL0     C66458   7.279  10.067  11.783 -0.1859  0.3090  0.4571
  493MOL0     C66459   7.178  10.095  11.669 -0.5420  0.3724  0.3296
  493MOL0     C66460   7.033  10.072  11.714  0.0744 -0.2404 -0.4506
  493MOL0     C66461   6.940  10.148  11.622 -0.1561  0.3111 -0.0837
  493MOL0     C66462   6.800  10.129  11.680  0.8126  0.7883  0.3775
  493MOL0     C66463   6.693  10.163  11.574  0.0352  0.3300 -0.2950
  493MOL0     C66464   6.553  10.150  11.650 -0.4111 -0.3531  0.0374
  493MOL0    Cl66465   6.459  10.051  11.540 -0.2261  0.1926 -0.0913
  493MOL0     C66466   7.714   9.984  11.694 -0.0095  0.0896 -0.4648
  493MOL0     C66467   7.833   9.961  11.648 -0.2121  0.5727 -0.7084
  493MOL0     O66468   8.127  10.015  11.716 -0.0655 -0.8964 -0.0708
  493MOL0     C66469   8.268  10.010  11.383  0.0202  0.5930 -0.0596
  493MOL0     C66470   8.382   9.960  11.311  0.3880 -0.0626  0.4126
  493MOL0     N66471   9.155   9.393  11.184 -1.0419  0.4244  0.0825
  493MOL0     N66472   9.279   9.398  11.234  0.5793 -0.3036  0.5135
  493MOL0     C66473  10.440   9.758  11.088 -0.8247 -0.7645  0.0125
  493MOL0     C66474  10.549   9.740  11.009  0.4169  0.3485 -0.6843
  493MOL0     C66475  10.825   9.597  10.695  1.0268 -0.5989  0.0101
  493MOL0     C66476  10.884   9.472  10.685  0.2888 -0.2805  0.0209
  493MOL0     C66477  11.015   9.464  10.626  0.1263 -0.6650  0.7647
  493MOL0     C66478  11.080   9.571  10.561 -0.3504 -0.2133 -1.0212
  493MOL0     O66479  11.211   9.549  10.531 -0.1120 -0.3624 -0.1926
  493MOL0     C66480  11.279   9.663  10.474 -1.1711 -0.4967 -0.2257
  493MOL0     C66481  11.430   9.627  10.455  0.0399  0.1704 -0.2134
  493MOL0     C66482  11.445   9.522  10.344  0.3760  0.2326 -0.0544
  493MOL0     C66483  11.572   9.531  10.269 -0.0362  0.0132  0.0160
  493MOL0     C66484  11.684   9.462  10.352 -0.6734  0.4018  0.2098
  493MOL0     C66485  11.765   9.401  10.420 -0.7648 -0.1710 -0.0833
  493MOL0     C66486  11.016   9.687  10.569  0.1439 -0.2771 -0.7074
  493MOL0     C66487  10.890   9.708  10.631  1.1594  0.6402 -0.3420
  493MOL0     H66488  10.430   9.863  10.727 -0.3196  2.5224  0.7497
  493MOL0     H66489  10.240   9.894  10.859  0.4862  0.5400  0.6595
  493MOL0     H66490  10.221   9.709  11.260  1.6178  0.6473  2.3507
  493MOL0     H66491  10.290   9.870  11.292  2.1301  0.4645 -3.3717
  493MOL0     H66492  10.091   9.822  11.422 -0.3935 -1.0326  0.0101
  493MOL0     H66493  10.082   9.963  11.306  0.3771 -0.6184 -2.8081
  493MOL0     H66494   9.942   9.857  11.157  2.2578  0.5236  0.1645
  493MOL0     H66495   9.952   9.711  11.233 -1.5837 -0.2618 -0.2094
  493MOL0     H66496   9.846   9.801  11.454  1.1325  1.7817  1.1163
  493MOL0     H66497   9.823   9.955  11.365  1.3386 -0.3427  2.5684
  493MOL0     H66498   9.601   9.817  11.376  1.0223 -0.7615  1.6360
  493MOL0     H66499   9.667   9.848  11.218  2.8506 -1.3907 -2.5936
  493MOL0     H66500   9.766   9.621  11.203 -1.0513 -0.4734 -2.0778
  493MOL0     H66501   9.714   9.582  11.370 -0.4616  1.0647 -0.1089
  493MOL0     H66502   9.530   9.624  11.138  0.6284 -0.0354 -0.3755
  493MOL0     H66503   9.585   9.474  11.199  0.1497  1.0272 -3.4669
  493MOL0     H66504   9.423   9.693  11.350  1.3903 -0.3479  1.2373
  493MOL0     H66505   9.448   9.537  11.425  1.1253  2.2553  0.6611
  493MOL0     H66506   9.167   9.701  11.285 -1.3111  1.3818 -3.8433
  493MOL0     H66507   8.966   9.628  11.092 -2.1978 -1.0749  0.2078
  493MOL0     H66508   8.906   9.465  11.128 -2.8366  0.9896 -0.5647
  493MOL0     H66509   8.914   9.662  11.358  1.4409  1.6202 -0.2814
  493MOL0     H66510   8.818   9.509  11.317  2.3413 -0.3613  1.5794
  493MOL0     H66511   8.693   9.616  11.158  1.3369 -0.3946  0.3563
  493MOL0     H66512   8.783   9.771  11.176 -0.2712  2.3596  2.1048
  493MOL0     H66513   8.715   9.766  11.422  2.2210 -0.2729 -1.4412
  493MOL0     H66514   8.616   9.637  11.393  3.4257  0.7300  1.4118
  493MOL0     H66515   8.503   9.744  11.542  2.1268 -0.5712 -3.1949
  493MOL0     H66516   8.211   9.745  11.715  0.1132 -2.5640  0.4239
  493MOL0     H66517   8.360   9.682  11.688  0.7875 -0.0866  1.4028
  493MOL0     H66518   8.356   9.836  11.769 -2.6258  1.9730 -1.4042
  493MOL0     H66519   7.886  10.250  11.487  0.0223  0.8299 -0.1512
  493MOL0     H66520   7.665  10.306  11.623 -2.6623 -1.1379  1.2935
  493MOL0     H66521   7.418   9.991  11.635 -1.7467 -1.8576 -0.2872
  493MOL0     H66522   7.458   9.959  11.816 -1.2596  1.2554  1.8356
  493MOL0     H66523   7.241   9.983  11.842  0.9897  0.0982  0.9614
  493MOL0     H66524   7.283  10.146  11.859  1.0311  0.2557  0.4684
  493MOL0     H66525   7.201  10.028  11.587  0.5334  3.0927 -1.7442
  493MOL0     H66526   7.202  10.196  11.634  0.1107  0.3886  0.8033
  493MOL0     H66527   7.007   9.965  11.713  2.6946 -0.9338 -1.2907
  493MOL0     H66528   7.027  10.110  11.816  2.6301 -2.4834  0.6643
  493MOL0     H66529   6.957  10.122  11.517  0.4013 -0.0534  0.0906
  493MOL0     H66530   6.959  10.255  11.629  1.0103  0.0601  1.0151
  493MOL0     H66531   6.781  10.022  11.694  2.9692  0.2541 -0.4424
  493MOL0     H66532   6.786  10.188  11.771  1.1066 -0.2118  1.0866
  493MOL0     H66533   6.696  10.099  11.485 -0.2658 -0.7182  0.4276
  493MOL0     H66534   6.710  10.264  11.534  1.1005  0.7089  1.0150
  493MOL0     H66535   6.513  10.252  11.655  1.2399  0.4837 -2.2129
  493MOL0     H66536   6.564  10.111  11.752 -2.3822 -0.6193  0.1954
  493MOL0     H66537   7.664   9.897  11.734 -0.1174 -0.6366 -2.1146
  493MOL0     H66538   7.868   9.860  11.629  0.8717  0.9302 -0.6634
  493MOL0     H66539   8.215  10.097  11.347 -3.1181 -0.3588  1.9093
  493MOL0     H66540   8.413  10.001  11.215  1.0265  2.5801  1.6437
  493MOL0     H66541  10.453   9.741  11.195  2.8726  1.3522  0.0458
  493MOL0     H66542  10.647   9.708  11.043  0.9255  3.0294  0.5677
  493MOL0     H66543  10.848   9.384  10.738  3.0032 -3.6779 -3.2053
  493MOL0     H66544  11.057   9.365  10.637 -2.3249 -1.7289  1.2852
  493MOL0     H66545  11.229   9.698  10.384 -2.3335 -4.4472 -1.3374
  493MOL0     H66546  11.284   9.735  10.556 -1.2955 -0.4702 -0.2418
  493MOL0     H66547  11.469   9.592  10.552 -0.2713  0.3615 -0.0167
  493MOL0     H66548  11.489   9.718  10.442  0.8773  0.2094  2.9417
  493MOL0     H66549  11.367   9.536  10.268  1.3224  2.0592 -0.7500
  493MOL0     H66550  11.424   9.419  10.373  1.4842 -0.5426 -1.8495
  493MOL0     H66551  11.589   9.634  10.238  0.0416 -0.0055 -0.0052
  493MOL0     H66552  11.568   9.463  10.183  2.1410  0.2550 -0.3522
  493MOL0     H66553  11.833   9.360  10.492 -0.0510  0.8533 -0.1649
  493MOL0     H66554  11.068   9.776  10.535 -2.1793  0.3107 -3.0384
  493MOL0     H66555  10.846   9.807  10.635 -0.2866  0.0038  0.5461
  494MOL0     O66556   3.401   1.240   5.882 -0.8098  0.0251 -0.8971
  494MOL0     C66557   3.422   1.353   5.936 -0.0743 -0.4057 -0.4629
  494MOL0     O66558   3.544   1.421   5.939 -0.1752 -0.3655  0.1121
  494MOL0     C66559   3.654   1.376   5.872  0.0570  0.0265 -0.5566
  494MOL0     C66560   3.641   1.305   5.745 -0.5428 -0.0221  0.0977
  494MOL0     C66561   3.761   1.268   5.683  0.0329  0.2574  0.6209
  494MOL0     C66562   3.887   1.286   5.732 -0.0098 -0.2059  0.4314
  494MOL0     O66563   3.996   1.229   5.675  0.4389 -0.4961  0.5358
  494MOL0     C66564   3.991   1.172   5.550 -0.0444 -0.4259  0.2475
  494MOL0     C66565   4.139   1.146   5.518  0.4587 -0.6573  1.1241
  494MOL0     C66566   4.210   1.285   5.507  0.1642 -0.3805 -0.1059
  494MOL0     C66567   4.336   1.261   5.426  0.0476 -0.6982  0.3492
  494MOL0     C66568   4.445   1.361   5.459 -0.0627  0.3740  0.3109
  494MOL0     C66569   4.417   1.499   5.409  0.1440 -0.2173  0.4062
  494MOL0     C66570   4.529   1.598   5.419  0.4924  0.0939 -0.1280
  494MOL0     C66571   4.549   1.651   5.562 -0.2899  0.8442 -0.7094
  494MOL0     N66572   4.654   1.752   5.570  0.6439 -0.6073  1.6058
  494MOL0     C66573   4.776   1.757   5.627 -0.3001  0.9066  0.3018
  494MOL0     C66574   4.838   1.867   5.578 -0.0587 -0.4933  0.0742
  494MOL0     C66575   4.973   1.926   5.628  0.3077 -0.4915  0.0468
  494MOL0     C66576   5.078   1.820   5.637 -0.4473 -0.5349 -1.3566
  494MOL0     C66577   5.213   1.877   5.703  0.0661 -0.2163 -0.4716
  494MOL0     C66578   5.290   1.763   5.754  0.2162  0.7728 -0.2457
  494MOL0     O66579   5.239   1.715   5.884  0.3387  0.1209  0.2465
  494MOL0     C66580   5.313   1.770   5.985 -0.0346  0.0626 -0.3493
  494MOL0     C66581   5.449   1.752   6.003  0.6313  0.0014 -0.2932
  494MOL0     C66582   5.522   1.816   6.105 -0.7730  0.5062 -0.3842
  494MOL0     C66583   5.672   1.804   6.089 -0.0385 -0.6359 -0.1646
  494MOL0     C66584   5.462   1.919   6.185 -0.9779  0.1198 -0.4502
  494MOL0     C66585   5.525   2.010   6.281 -0.5004  0.6507 -0.4940
  494MOL0     O66586   5.446   2.118   6.331  0.2467 -0.0954  0.0257
  494MOL0     C66587   5.505   2.198   6.427 -0.1735  0.8027  0.2422
  494MOL0     C66588   5.485   2.154   6.554  0.0420  0.0853 -0.2795
  494MOL0     C66589   5.552   2.221   6.658 -0.0796 -0.2764 -0.1986
  494MOL0     C66590   5.637   2.332   6.632  0.5430  1.1236 -0.0059
  494MOL0     O66591   5.686   2.404   6.727  0.4589 -0.4971 -0.4781
  494MOL0     C66592   5.729   2.344   6.841 -0.1980  0.1763 -0.2067
  494MOL0     C66593   5.815   2.424   6.934  0.1708 -0.4647 -0.1251
  494MOL0     C66594   5.874   2.333   7.044  0.1697 -0.3280 -0.0306
  494MOL0     C66595   5.772   2.300   7.151  0.8632  1.0758  0.5781
  494MOL0     C66596   5.847   2.236   7.270  0.2824 -0.1166 -0.0396
  494MOL0     C66597   5.905   2.094   7.253 -0.4418 -0.1745 -0.5852
  494MOL0     C66598   5.804   1.986   7.218 -0.1242 -0.0513  0.1779
  494MOL0     C66599   5.882   1.855   7.223 -0.4173 -0.1278  0.2034
  494MOL0    Cl66600   5.767   1.725   7.198  0.0545 -0.1781 -0.3482
  494MOL0     C66601   5.638   2.386   6.507  0.0971  0.3226 -0.0759
  494MOL0     C66602   5.576   2.313   6.403 -0.6371  0.2558  0.1569
  494MOL0     O66603   5.637   1.981   6.324 -0.3375  0.0078 -0.1946
  494MOL0     C66604   5.317   1.930   6.167 -0.5519 -0.1382  0.5156
  494MOL0     C66605   5.248   1.862   6.065  1.1346  1.2611 -0.3313
  494MOL0     N66606   4.752   1.928   5.502  0.2293  0.0718 -0.1320
  494MOL0     N66607   4.635   1.871   5.511  0.0298 -0.3927 -0.1817
  494MOL0     C66608   3.896   1.353   5.849 -0.6497  0.0508 -0.0339
  494MOL0     C66609   3.785   1.399   5.924  0.1180 -0.1486  0.2277
  494MOL0     C66610   3.299   1.424   5.979  0.7723 -0.8621 -0.3055
  494MOL0     C66611   3.173   1.365   5.968 -0.2048 -0.2789  0.5713
  494MOL0     C66612   3.060   1.437   5.990  0.3456 -0.1414 -0.3317
  494MOL0     C66613   3.060   1.570   6.032 -1.2941  0.3864 -0.3896
  494MOL0     O66614   2.941   1.631   6.041  0.4269 -0.4598 -0.2243
  494MOL0     C66615   2.909   1.727   6.142  0.0382 -0.3015 -0.0719
  494MOL0     C66616   2.828   1.670   6.255 -0.3797 -0.1807  0.1031
  494MOL0     C66617   2.810   1.763   6.373 -0.5638 -0.0995  0.3869
  494MOL0     C66618   2.774   1.914   6.350 -0.3096 -0.8142  0.5916
  494MOL0     C66619   2.661   1.913   6.254  0.7834  0.3389  0.1481
  494MOL0     C66620   2.565   1.905   6.177 -0.1519  0.4818 -0.1408
  494MOL0     C66621   3.188   1.634   6.048  0.3165  0.0346  1.1374
  494MOL0     C66622   3.306   1.558   6.021  0.6674 -0.5475 -1.0232
  494MOL0     H66623   3.549   1.291   5.690 -0.3871 -0.4431 -0.0561
  494MOL0     H66624   3.743   1.211   5.592 -0.2614  0.4977  0.5243
  494MOL0     H66625   3.923   1.088   5.543 -0.2037 -0.1931 -1.7653
  494MOL0     H66626   3.952   1.246   5.479 -2.2883  1.3768  3.1620
  494MOL0     H66627   4.177   1.082   5.598 -0.0235  0.3723  2.1882
  494MOL0     H66628   4.140   1.084   5.427  0.0115  0.9804 -0.0417
  494MOL0     H66629   4.143   1.362   5.467 -0.1598 -0.3374  0.5119
  494MOL0     H66630   4.246   1.309   5.607  0.9381 -5.0106  0.9399
  494MOL0     H66631   4.368   1.159   5.448 -2.3413 -2.2767 -2.6765
  494MOL0     H66632   4.326   1.259   5.317 -2.1157 -1.4336  0.5180
  494MOL0     H66633   4.452   1.361   5.568 -1.6364  0.3358  0.4285
  494MOL0     H66634   4.539   1.318   5.421  0.6056 -0.7354  2.9704
  494MOL0     H66635   4.388   1.494   5.304  1.1636  2.1086 -0.0405
  494MOL0     H66636   4.332   1.539   5.466  0.4653 -0.6202  1.1889
  494MOL0     H66637   4.628   1.559   5.391  0.1952 -1.7115  1.2050
  494MOL0     H66638   4.515   1.680   5.348  2.4380  0.2886 -0.3439
  494MOL0     H66639   4.576   1.570   5.630 -0.2515  2.0623  0.7980
  494MOL0     H66640   4.453   1.686   5.603 -0.6451 -0.1093 -0.7089
  494MOL0     H66641   4.813   1.690   5.703  0.4827 -1.3040 -1.8830
  494MOL0     H66642   4.997   2.007   5.558 -0.8186 -0.6417 -0.5236
  494MOL0     H66643   4.951   1.972   5.725 -3.3434 -2.3883  0.2815
  494MOL0     H66644   5.092   1.777   5.537  0.4959  0.0441 -1.4792
  494MOL0     H66645   5.037   1.743   5.703  1.1657 -1.1460 -1.0405
  494MOL0     H66646   5.194   1.940   5.790  1.0510 -0.0946 -0.3341
  494MOL0     H66647   5.269   1.939   5.632 -1.6657  2.9588  0.7406
  494MOL0     H66648   5.393   1.799   5.756 -0.5113  3.0540 -0.5244
  494MOL0     H66649   5.276   1.676   5.690 -2.7339  0.1632  1.0579
  494MOL0     H66650   5.502   1.689   5.932 -0.2339 -0.6074 -0.4183
  494MOL0     H66651   5.723   1.772   6.181  1.7785 -0.3852 -1.0342
  494MOL0     H66652   5.700   1.734   6.010  1.6836 -3.0180  2.3448
  494MOL0     H66653   5.708   1.900   6.050 -2.1506  0.8250  1.2538
  494MOL0     H66654   5.419   2.069   6.569  1.0970 -0.7097 -0.1117
  494MOL0     H66655   5.513   2.193   6.755 -1.7911  0.4423 -0.6505
  494MOL0     H66656   5.638   2.311   6.892  0.2850 -0.4530  0.2609
  494MOL0     H66657   5.794   2.261   6.811  0.3099  0.1240  0.9963
  494MOL0     H66658   5.895   2.464   6.872 -0.5242  1.1341 -0.0347
  494MOL0     H66659   5.758   2.513   6.961 -0.9656 -0.2627 -2.8431
  494MOL0     H66660   5.954   2.387   7.095 -0.5601  0.9813 -0.2095
  494MOL0     H66661   5.917   2.240   7.006 -5.5798 -2.7556 -1.6392
  494MOL0     H66662   5.712   2.382   7.191 -0.0152 -0.5963  2.9375
  494MOL0     H66663   5.705   2.221   7.119  1.9847  0.1373  0.4915
  494MOL0     H66664   5.779   2.245   7.356  1.2575  0.7001  0.6692
  494MOL0     H66665   5.927   2.299   7.310  0.6443 -1.2598  1.0953
  494MOL0     H66666   5.985   2.091   7.179  0.3580 -0.8925  0.2909
  494MOL0     H66667   5.953   2.066   7.348 -1.2922 -2.0028 -0.6562
  494MOL0     H66668   5.767   1.991   7.115 -0.5738 -2.4732  0.1750
  494MOL0     H66669   5.724   1.971   7.291  0.0825  2.2627  0.9580
  494MOL0     H66670   5.945   1.844   7.312  1.3799  0.9069 -0.8839
  494MOL0     H66671   5.955   1.867   7.143  0.2807  0.5794  0.9281
  494MOL0     H66672   5.715   2.460   6.489  1.0541 -1.2670 -3.3245
  494MOL0     H66673   5.588   2.340   6.299 -0.4709  2.3984  0.6813
  494MOL0     H66674   5.261   2.004   6.224  0.3114  1.1586 -0.2467
  494MOL0     H66675   5.140   1.867   6.060  0.9265 -1.3070  0.3795
  494MOL0     H66676   3.993   1.361   5.896 -0.8060 -0.2700  0.3493
  494MOL0     H66677   3.791   1.455   6.017 -0.9700  4.4123 -2.1367
  494MOL0     H66678   3.173   1.276   5.906 -4.4878 -0.9995  1.2837
  494MOL0     H66679   2.968   1.384   5.968  0.2666 -1.6031  2.9914
  494MOL0     H66680   2.995   1.764   6.197  0.4118 -4.4872  2.6364
  494MOL0     H66681   2.860   1.814   6.098 -0.2731 -1.5477 -2.3739
  494MOL0     H66682   2.892   1.591   6.295  1.8376  1.1088 -0.7444
  494MOL0     H66683   2.730   1.642   6.215 -1.3060  0.4966  1.7855
  494MOL0     H66684   2.903   1.776   6.429  1.2570 -0.4417 -2.3671
  494MOL0     H66685   2.748   1.712   6.447  2.4675 -1.3354  2.2957
  494MOL0     H66686   2.859   1.969   6.309 -1.2454  2.1657  2.3353
  494MOL0     H66687   2.760   1.971   6.442 -0.0059 -0.5026  0.4505
  494MOL0     H66688   2.483   1.907   6.108 -0.9790  0.7477  0.8291
  494MOL0     H66689   3.195   1.735   6.085 -1.2089 -0.4340  2.8561
  494MOL0     H66690   3.404   1.599   6.046 -0.4751  1.8773 -0.1944
  495MOL0     O66691   2.567   1.810   4.459  0.3803 -0.1223 -0.6381
  495MOL0     C66692   2.627   1.719   4.408 -0.0831 -0.4939 -0.4274
  495MOL0     O66693   2.565   1.625   4.337  0.4823  0.4336  0.4932
  495MOL0     C66694   2.434   1.649   4.295 -0.6845  0.3735 -0.2017
  495MOL0     C66695   2.326   1.597   4.361 -0.0753 -0.7629 -0.5662
  495MOL0     C66696   2.201   1.604   4.302 -0.3523  0.6612  0.1206
  495MOL0     C66697   2.182   1.682   4.184 -0.3033  0.1865  0.5200
  495MOL0     O66698   2.053   1.700   4.132 -0.0043 -0.8266 -0.0547
  495MOL0     C66699   1.949   1.597   4.136 -0.3235  0.3665  0.6102
  495MOL0     C66700   1.836   1.653   4.050 -0.6150  0.0936 -0.1146
  495MOL0     C66701   1.861   1.692   3.901  0.1765  0.3570  0.4012
  495MOL0     C66702   1.729   1.738   3.838 -0.7019 -0.2610 -0.4468
  495MOL0     C66703   1.710   1.719   3.691 -0.5133  0.2061  1.1404
  495MOL0     C66704   1.688   1.574   3.652 -0.2015  0.8954 -0.0249
  495MOL0     C66705   1.653   1.580   3.502 -0.5173  0.3173  0.3139
  495MOL0     C66706   1.617   1.444   3.443  0.9277 -0.8959 -0.5432
  495MOL0     N66707   1.645   1.446   3.298  0.0107  0.0708  0.4226
  495MOL0     C66708   1.569   1.514   3.202 -0.3553 -0.0515 -0.9443
  495MOL0     C66709   1.638   1.496   3.087  0.3416 -0.8124  0.3049
  495MOL0     C66710   1.581   1.547   2.953 -1.0481 -0.0710  0.4861
  495MOL0     C66711   1.466   1.462   2.902 -0.4258  0.1807 -0.4563
  495MOL0     C66712   1.514   1.329   2.848 -0.6876  0.4992  0.2099
  495MOL0     C66713   1.411   1.236   2.788  0.0717  0.7776  0.6569
  495MOL0     O66714   1.331   1.307   2.690 -0.2470  0.4119  0.4077
  495MOL0     C66715   1.203   1.271   2.693 -0.3726 -0.3771  0.4724
  495MOL0     C66716   1.104   1.368   2.725  0.2095 -0.3108 -0.0989
  495MOL0     C66717   0.969   1.338   2.737 -1.0338 -0.5159  1.1249
  495MOL0     C66718   0.883   1.456   2.761 -0.0849  1.2497  0.1914
  495MOL0     C66719   0.928   1.212   2.695 -0.5828 -0.3208  0.8591
  495MOL0     C66720   0.783   1.181   2.676  0.5796  0.6006 -0.1776
  495MOL0     O66721   0.741   1.069   2.601 -1.0235 -0.2954 -0.4722
  495MOL0     C66722   0.610   1.023   2.601 -0.4271 -0.1599  0.3780
  495MOL0     C66723   0.574   0.939   2.488 -0.5669  0.2123  0.3264
  495MOL0     C66724   0.449   0.881   2.474  0.6806 -0.1474 -0.1074
  495MOL0     C66725   0.346   0.918   2.567  0.1384  0.0491 -0.1555
  495MOL0     O66726   0.221   0.860   2.557 -0.6089  0.0435 -0.9039
  495MOL0     C66727   0.184   0.766   2.453 -0.7980  0.1219  0.6144
  495MOL0     C66728   0.053   0.697   2.489  0.7614 -0.1469  0.7144
  495MOL0     C66729   0.074   0.655   2.632  0.0550  0.1600 -0.9513
  495MOL0     C66730  -0.010   0.532   2.675  0.2328 -0.1865 -0.3938
  495MOL0     C66731   0.015   0.459   2.808 -0.1089  0.0837 -0.1553
  495MOL0     C66732   0.046   0.550   2.924 -0.1224  1.6297 -0.6754
  495MOL0     C66733   0.083   0.485   3.060  0.3825  0.0013 -0.1771
  495MOL0     C66734   0.023   0.550   3.186  0.1783 -0.4768  0.7570
  495MOL0    Cl66735   0.055   0.454   3.328 -0.0075  0.0889  0.2288
  495MOL0     C66736   0.390   0.994   2.685  0.7103  0.3651 -0.4764
  495MOL0     C66737   0.515   1.039   2.699  1.1043 -0.3205  0.4970
  495MOL0     O66738   0.709   1.252   2.743 -0.2053  1.1408  0.2589
  495MOL0     C66739   1.023   1.124   2.644  0.3764  0.4656 -0.5981
  495MOL0     C66740   1.164   1.147   2.656  0.3438  0.8565  0.0548
  495MOL0     N66741   1.757   1.429   3.106  0.4172 -0.6162  0.1183
  495MOL0     N66742   1.757   1.397   3.237  0.3179 -1.2315  0.2215
  495MOL0     C66743   2.294   1.725   4.116 -0.5873  0.2937 -0.1066
  495MOL0     C66744   2.419   1.710   4.173  0.2812 -0.4573 -0.3150
  495MOL0     C66745   2.754   1.686   4.473  0.2474 -0.4137 -1.3089
  495MOL0     C66746   2.828   1.572   4.448  0.3231 -0.7230  0.2393
  495MOL0     C66747   2.959   1.549   4.498  0.3043 -0.0127 -0.1859
  495MOL0     C66748   3.025   1.635   4.578  0.7308 -1.2052  0.7824
  495MOL0     O66749   3.155   1.610   4.620 -0.2178 -0.4226 -0.1803
  495MOL0     C66750   3.220   1.728   4.649 -0.7021 -0.1615 -0.7087
  495MOL0     C66751   3.376   1.719   4.633  0.0396  0.6632  0.3805
  495MOL0     C66752   3.407   1.739   4.488  0.2732  0.5135  0.1028
  495MOL0     C66753   3.545   1.711   4.445 -0.5660  0.3304 -0.1041
  495MOL0     C66754   3.640   1.802   4.515  0.4804  0.4951  0.4709
  495MOL0     C66755   3.723   1.865   4.573 -1.0127 -0.1792  0.0309
  495MOL0     C66756   2.950   1.749   4.621 -0.1268 -0.5093 -0.0455
  495MOL0     C66757   2.824   1.781   4.556 -0.1486 -0.2888 -0.0530
  495MOL0     H66758   2.331   1.553   4.460 -2.1641 -1.4359 -0.7238
  495MOL0     H66759   2.116   1.558   4.351  0.6873 -1.8072 -0.2159
  495MOL0     H66760   1.999   1.508   4.097  0.0020 -0.1945  2.2400
  495MOL0     H66761   1.910   1.573   4.235 -1.1109  2.9449  1.0090
  495MOL0     H66762   1.763   1.572   4.053  0.3382 -0.8256 -0.7342
  495MOL0     H66763   1.808   1.744   4.104 -0.7027 -0.0970  0.1635
  495MOL0     H66764   1.935   1.773   3.900  2.1428 -1.3493 -1.0026
  495MOL0     H66765   1.904   1.607   3.848 -3.5126 -1.9346  0.7624
  495MOL0     H66766   1.638   1.708   3.891  0.1422 -0.9830  0.6205
  495MOL0     H66767   1.739   1.845   3.857  0.7649 -0.7240  1.8082
  495MOL0     H66768   1.641   1.794   3.653  2.3242  1.0322 -3.1588
  495MOL0     H66769   1.803   1.745   3.639 -0.9655 -2.5174 -1.3152
  495MOL0     H66770   1.780   1.516   3.663 -1.3576 -0.7683  1.7008
  495MOL0     H66771   1.612   1.517   3.708  1.0996 -2.2168 -1.1646
  495MOL0     H66772   1.564   1.643   3.495  0.4116  2.1333  3.1275
  495MOL0     H66773   1.736   1.620   3.443 -1.2081  0.5844 -0.5050
  495MOL0     H66774   1.511   1.429   3.467  0.7280  0.1618 -0.7305
  495MOL0     H66775   1.677   1.366   3.491 -2.2487 -2.0520  1.9684
  495MOL0     H66776   1.483   1.573   3.233  0.8888  1.0574  0.5883
  495MOL0     H66777   1.546   1.651   2.959 -0.3426  0.1783  0.4130
  495MOL0     H66778   1.662   1.556   2.880  0.3529  1.8296  2.1666
  495MOL0     H66779   1.429   1.522   2.818  0.3357  3.7293  1.5090
  495MOL0     H66780   1.386   1.441   2.974  2.3148 -1.5344  2.3007
  495MOL0     H66781   1.573   1.274   2.922 -0.4166  1.9962  1.1527
  495MOL0     H66782   1.591   1.349   2.772 -0.1416 -4.4168 -0.8524
  495MOL0     H66783   1.349   1.215   2.876 -3.9555  2.7252 -1.4272
  495MOL0     H66784   1.457   1.145   2.749  1.7125  1.5385  0.7497
  495MOL0     H66785   1.137   1.466   2.756  1.4752 -1.5187  2.6850
  495MOL0     H66786   0.826   1.476   2.669  0.1019 -2.7812 -0.9549
  495MOL0     H66787   0.808   1.441   2.839 -2.3575 -0.5570 -2.1708
  495MOL0     H66788   0.941   1.538   2.804  2.2972 -1.8325  3.4200
  495MOL0     H66789   0.644   0.921   2.407 -1.5018  5.3640 -2.0433
  495MOL0     H66790   0.423   0.821   2.388  0.0557  4.0279 -3.1517
  495MOL0     H66791   0.188   0.802   2.349  3.4642 -1.2614  0.1282
  495MOL0     H66792   0.252   0.681   2.449 -2.2193 -1.0098 -2.2206
  495MOL0     H66793  -0.039   0.756   2.484  0.2653 -0.9788 -0.3965
  495MOL0     H66794   0.036   0.612   2.423  1.1689  0.1777  0.1821
  495MOL0     H66795   0.049   0.739   2.698  1.5374 -3.3168  4.7434
  495MOL0     H66796   0.177   0.623   2.650  0.6270  1.2859 -2.0590
  495MOL0     H66797  -0.111   0.574   2.670  0.1871 -0.3994 -1.4615
  495MOL0     H66798  -0.007   0.462   2.591 -0.4346  0.6296 -1.1100
  495MOL0     H66799   0.109   0.407   2.788  1.2645  1.8998  1.1940
  495MOL0     H66800  -0.070   0.390   2.817 -0.9511  1.1402  0.1641
  495MOL0     H66801   0.124   0.624   2.903  0.1291  1.2469 -1.1183
  495MOL0     H66802  -0.044   0.610   2.941  1.0735  3.1260  0.6784
  495MOL0     H66803   0.190   0.472   3.076  0.3243  1.4865  1.8959
  495MOL0     H66804   0.043   0.383   3.065  0.8924 -0.2348 -0.8634
  495MOL0     H66805  -0.083   0.574   3.170  0.4224  1.4287  1.6895
  495MOL0     H66806   0.062   0.652   3.196  0.1036 -0.5165  1.5025
  495MOL0     H66807   0.314   1.013   2.760  2.0706  5.0475  0.0413
  495MOL0     H66808   0.533   1.097   2.789 -0.3616 -1.4600  1.5677
  495MOL0     H66809   0.978   1.029   2.617 -2.3509  1.8325 -1.1464
  495MOL0     H66810   1.235   1.072   2.621 -0.5790  0.6237 -1.4281
  495MOL0     H66811   2.286   1.771   4.018  1.0488 -1.9066 -1.3667
  495MOL0     H66812   2.503   1.766   4.135 -0.6962  2.7262  1.8689
  495MOL0     H66813   2.775   1.506   4.380 -1.4286  0.3027  0.5432
  495MOL0     H66814   3.019   1.462   4.475  0.7290  0.2513 -0.0797
  495MOL0     H66815   3.193   1.821   4.598 -1.2169 -0.1318 -0.3996
  495MOL0     H66816   3.208   1.754   4.755  0.9169 -0.3291 -0.4636
  495MOL0     H66817   3.409   1.620   4.667  2.2540  1.8160  1.8008
  495MOL0     H66818   3.436   1.792   4.688  1.6661 -0.1112 -0.2995
  495MOL0     H66819   3.372   1.838   4.458  1.0743  0.5629 -0.7006
  495MOL0     H66820   3.356   1.662   4.430  2.6523 -1.9005  1.0038
  495MOL0     H66821   3.561   1.736   4.340  0.4535  1.9117  0.3909
  495MOL0     H66822   3.569   1.605   4.456 -1.6752  0.1665  0.9765
  495MOL0     H66823   3.803   1.922   4.615  0.1649 -2.0463  0.4547
  495MOL0     H66824   2.984   1.821   4.695 -2.6174  0.1200  0.5771
  495MOL0     H66825   2.788   1.883   4.562 -0.8268 -0.2402 -3.4086
  496MOL0     O66826   6.235   4.738  10.921  0.0461  0.8476  0.3112
  496MOL0     C66827   6.319   4.822  10.955  0.6230 -1.0851 -0.6742
  496MOL0     O66828   6.291   4.952  11.001  0.1732  0.4369 -0.3020
  496MOL0     C66829   6.157   4.990  11.017  0.1124 -0.7941  0.1292
  496MOL0     C66830   6.108   5.067  10.907 -0.4486  0.3758 -0.3206
  496MOL0     C66831   5.984   5.134  10.910 -0.1928 -0.7582  0.5172
  496MOL0     C66832   5.900   5.112  11.018  0.2532 -0.7453  0.2763
  496MOL0     O66833   5.781   5.174  11.040  0.2586 -0.6850  0.0160
  496MOL0     C66834   5.662   5.105  11.075 -0.4809  0.4047 -0.2011
  496MOL0     C66835   5.571   5.202  11.151 -0.0753  0.6139 -0.4556
  496MOL0     C66836   5.448   5.127  11.204 -0.1145  0.3785 -0.3753
  496MOL0     C66837   5.325   5.219  11.228 -0.7543  0.0179 -0.4504
  496MOL0     C66838   5.197   5.149  11.272  0.4573  0.7405 -0.2135
  496MOL0     C66839   5.159   5.030  11.178  0.4208  0.2372 -0.1185
  496MOL0     C66840   5.019   4.968  11.226 -0.2283 -0.1781  0.3178
  496MOL0     C66841   4.964   4.872  11.123  0.0251 -0.2509 -0.5996
  496MOL0     N66842   4.832   4.810  11.146 -0.3917 -0.4767 -0.5402
  496MOL0     C66843   4.719   4.838  11.078  0.5081 -0.0838 -0.2848
  496MOL0     C66844   4.642   4.738  11.120  0.6989 -0.2712  0.7149
  496MOL0     C66845   4.484   4.726  11.119  0.1847  0.4120  0.9420
  496MOL0     C66846   4.423   4.764  11.247 -0.2705 -0.1668 -0.1870
  496MOL0     C66847   4.301   4.689  11.285  0.5050 -0.7169  0.9259
  496MOL0     C66848   4.341   4.550  11.346  0.3837  0.1939 -0.8603
  496MOL0     O66849   4.216   4.481  11.381 -0.7335  0.0500  0.5562
  496MOL0     C66850   4.212   4.355  11.420  0.9086 -1.1444 -0.5120
  496MOL0     C66851   4.319   4.269  11.424 -0.9332 -0.1491  0.2626
  496MOL0     C66852   4.305   4.133  11.479  0.0048 -0.1654  0.7790
  496MOL0     C66853   4.428   4.054  11.494  0.1436  1.3725 -0.4976
  496MOL0     C66854   4.178   4.088  11.507 -0.2106  0.5134 -0.3862
  496MOL0     C66855   4.148   3.957  11.562 -0.6155 -0.6877 -0.8258
  496MOL0     O66856   4.034   3.890  11.516  0.0465 -0.0884 -0.3609
  496MOL0     C66857   4.009   3.758  11.534  0.5078 -0.0456 -0.9807
  496MOL0     C66858   4.108   3.660  11.526  0.6027  0.7302  0.2982
  496MOL0     C66859   4.074   3.523  11.541 -0.1779 -0.1216 -1.1182
  496MOL0     C66860   3.952   3.482  11.576  0.1432 -0.2163  0.0555
  496MOL0     O66861   3.942   3.345  11.602 -0.2124 -0.1537  0.4675
  496MOL0     C66862   3.982   3.305  11.734  0.4626 -0.3806 -0.3085
  496MOL0     C66863   3.870   3.321  11.831 -0.2419  1.0737  0.4063
  496MOL0     C66864   3.760   3.215  11.817 -0.6919 -0.1626 -0.4222
  496MOL0     C66865   3.626   3.255  11.878 -0.5282  0.1966 -0.7866
  496MOL0     C66866   3.510   3.231  11.773  0.4701 -0.1314 -0.2368
  496MOL0     C66867   3.487   3.085  11.723 -0.4460  0.4876  0.4748
  496MOL0     C66868   3.352   3.064  11.672  0.6417  0.6475  0.0139
  496MOL0     C66869   3.311   2.915  11.636 -0.5183 -0.3064  0.0033
  496MOL0    Cl66870   3.132   2.897  11.647 -0.2747  0.3106 -0.0422
  496MOL0     C66871   3.850   3.575  11.584  0.5186  0.0740  0.2692
  496MOL0     C66872   3.876   3.713  11.559 -0.6917  0.7123 -0.6171
  496MOL0     O66873   4.211   3.919  11.656 -0.1634 -0.9631 -0.4005
  496MOL0     C66874   4.065   4.172  11.503 -0.1654 -0.0538 -0.3649
  496MOL0     C66875   4.085   4.309  11.461 -0.3944  0.2987  0.0890
  496MOL0     N66876   4.707   4.660  11.214  0.3926  0.5310  0.0945
  496MOL0     N66877   4.826   4.705  11.232  0.0024  0.8025  0.0342
  496MOL0     C66878   5.946   5.032  11.126  0.1010 -0.8304 -0.1733
  496MOL0     C66879   6.077   4.969  11.124 -0.0099 -0.3750 -0.3107
  496MOL0     C66880   6.455   4.771  10.954  0.1111 -0.9379 -1.2396
  496MOL0     C66881   6.491   4.663  10.883  0.3982 -0.2033 -0.6246
  496MOL0     C66882   6.625   4.623  10.877  0.4961  0.0621 -0.0572
  496MOL0     C66883   6.725   4.697  10.941  0.2244  0.5342 -0.7288
  496MOL0     O66884   6.860   4.667  10.950 -0.3255  0.3932 -0.1493
  496MOL0     C66885   6.897   4.537  10.914 -0.4408 -0.3923  0.1160
  496MOL0     C66886   7.049   4.517  10.914 -0.0914  0.6380 -0.0951
  496MOL0     C66887   7.119   4.620  10.833 -0.4195 -0.1535 -0.6488
  496MOL0     C66888   7.276   4.618  10.856  0.0972 -0.2375 -0.2347
  496MOL0     C66889   7.331   4.495  10.804  0.3600  0.4004  0.1344
  496MOL0     C66890   7.366   4.380  10.773 -0.2684  0.5188 -0.5400
  496MOL0     C66891   6.692   4.818  11.004 -0.0800  0.2715 -0.5188
  496MOL0     C66892   6.559   4.851  11.012  0.4313 -0.0769  0.1641
  496MOL0     H66893   6.166   5.093  10.820 -0.7245  0.4659 -0.4777
  496MOL0     H66894   5.940   5.189  10.827  0.9436  1.3527  1.2484
  496MOL0     H66895   5.623   5.071  10.978  1.5734  0.8310 -1.2343
  496MOL0     H66896   5.679   5.013  11.131 -1.1416 -1.0371 -2.2399
  496MOL0     H66897   5.634   5.241  11.231  1.1208  0.2078 -1.1713
  496MOL0     H66898   5.547   5.282  11.080  0.6755  1.0279 -0.2560
  496MOL0     H66899   5.414   5.049  11.135 -2.4495  1.3843 -0.4557
  496MOL0     H66900   5.475   5.072  11.294 -1.2665 -0.0994 -0.3024
  496MOL0     H66901   5.365   5.285  11.305  1.1315 -2.5534  0.9521
  496MOL0     H66902   5.297   5.260  11.130  0.7644 -0.9635 -1.3534
  496MOL0     H66903   5.204   5.110  11.375  1.3151 -1.2200 -0.9603
  496MOL0     H66904   5.119   5.225  11.277  1.1948  1.5355 -0.5704
  496MOL0     H66905   5.161   5.056  11.071  0.4788 -0.5359 -0.3109
  496MOL0     H66906   5.238   4.956  11.193  0.9623  0.8582  0.1751
  496MOL0     H66907   5.046   4.915  11.317  0.8758  0.6500  0.4848
  496MOL0     H66908   4.937   5.039  11.243 -1.4041 -1.2022 -0.8662
  496MOL0     H66909   5.035   4.789  11.133 -0.9715 -0.9912  0.4103
  496MOL0     H66910   4.973   4.917  11.023 -2.2355  1.1699 -0.2177
  496MOL0     H66911   4.689   4.921  11.015  1.3009  0.6802  0.3195
  496MOL0     H66912   4.431   4.776  11.037  2.8395 -1.1571 -1.9777
  496MOL0     H66913   4.470   4.618  11.110  0.7184  0.3929  0.2137
  496MOL0     H66914   4.395   4.870  11.247 -0.1898 -0.1455 -0.1883
  496MOL0     H66915   4.504   4.757  11.320  0.4358 -1.4740 -1.0570
  496MOL0     H66916   4.243   4.675  11.194  1.6639 -0.4081  0.1108
  496MOL0     H66917   4.246   4.751  11.356 -0.1501 -0.7231  0.4308
  496MOL0     H66918   4.400   4.566  11.436 -1.2127  1.7675 -0.0163
  496MOL0     H66919   4.399   4.491  11.275  3.1010 -1.4196  2.3989
  496MOL0     H66920   4.416   4.304  11.392 -0.9299 -1.3928 -1.2262
  496MOL0     H66921   4.404   3.949  11.476 -0.2145  1.7324 -2.3886
  496MOL0     H66922   4.510   4.075  11.424  1.5911 -2.2381 -0.1301
  496MOL0     H66923   4.456   4.072  11.598  0.3361 -1.1283 -0.0475
  496MOL0     H66924   4.204   3.692  11.488 -0.6660  0.3499 -3.6703
  496MOL0     H66925   4.156   3.453  11.547  2.6684  2.9219 -1.7476
  496MOL0     H66926   4.016   3.202  11.719  1.5754  0.0468 -0.8621
  496MOL0     H66927   4.068   3.365  11.763 -0.3095  3.2349 -4.4485
  496MOL0     H66928   3.905   3.305  11.933 -3.0133 -2.5417  0.9955
  496MOL0     H66929   3.832   3.424  11.828 -0.7151  0.8922 -0.2061
  496MOL0     H66930   3.798   3.136  11.884  0.1959 -1.7394 -2.6737
  496MOL0     H66931   3.757   3.164  11.721 -0.2138 -3.4470  1.1641
  496MOL0     H66932   3.621   3.192  11.967  1.7840  0.1460 -0.6518
  496MOL0     H66933   3.626   3.363  11.895  3.1234  0.1824  0.1128
  496MOL0     H66934   3.519   3.300  11.689 -2.5756  0.4184 -0.2570
  496MOL0     H66935   3.417   3.266  11.819 -0.5833 -2.1791 -0.6842
  496MOL0     H66936   3.555   3.064  11.640 -2.0211 -0.1522 -0.7140
  496MOL0     H66937   3.512   3.012  11.800  0.8367  1.0683  0.6195
  496MOL0     H66938   3.336   3.131  11.587  1.1814  0.5727 -0.1480
  496MOL0     H66939   3.286   3.083  11.757  0.8973  0.5894  0.2293
  496MOL0     H66940   3.354   2.854  11.716 -0.3760  0.0942  0.2397
  496MOL0     H66941   3.350   2.893  11.536  2.4182 -0.1254  0.9985
  496MOL0     H66942   3.749   3.546  11.611 -0.0704  2.4458  0.8728
  496MOL0     H66943   3.798   3.789  11.557  0.7815  2.2668 -2.3126
  496MOL0     H66944   3.965   4.144  11.534  0.4470 -0.8556  0.9174
  496MOL0     H66945   4.004   4.382  11.459 -1.2741 -0.6795 -0.9155
  496MOL0     H66946   5.888   5.026  11.217 -1.2482 -0.7624 -1.0058
  496MOL0     H66947   6.115   4.921  11.213 -2.0669 -2.1004 -0.2791
  496MOL0     H66948   6.424   4.611  10.815 -0.2329 -0.6099  0.2946
  496MOL0     H66949   6.637   4.541  10.808  1.7408 -0.1346  0.3500
  496MOL0     H66950   6.846   4.469  10.982  1.0885 -0.9149  0.7819
  496MOL0     H66951   6.857   4.518  10.814 -1.3965  0.3664  0.3322
  496MOL0     H66952   7.068   4.411  10.895 -2.4335 -0.0288  0.8771
  496MOL0     H66953   7.075   4.527  11.020  0.6976 -2.4524  0.1076
  496MOL0     H66954   7.083   4.716  10.870  0.1688  0.6095 -1.9664
  496MOL0     H66955   7.095   4.611  10.727 -2.4575 -2.1429 -0.0916
  496MOL0     H66956   7.293   4.624  10.964 -1.7641  1.3490  0.0358
  496MOL0     H66957   7.318   4.703  10.801 -1.0001 -0.6665 -1.8221
  496MOL0     H66958   7.417   4.288  10.754  0.4416 -0.1096  3.4177
  496MOL0     H66959   6.771   4.886  11.032  0.8964  0.2753 -3.0442
  496MOL0     H66960   6.536   4.945  11.062 -0.0393 -0.0275 -0.1358
  497MOL0     O66961   3.116   4.834   4.333  0.5707  0.5632 -0.4425
  497MOL0     C66962   3.087   4.801   4.215 -0.5685 -0.4379 -0.1756
  497MOL0     O66963   2.990   4.861   4.139  0.1130  0.6605 -0.1859
  497MOL0     C66964   2.917   4.971   4.190 -0.2643  0.0804  0.0341
  497MOL0     C66965   2.946   5.096   4.133 -0.6491  0.0659 -0.1891
  497MOL0     C66966   2.877   5.199   4.181  0.8926 -0.1953 -0.9849
  497MOL0     C66967   2.774   5.187   4.286 -0.7243 -0.4786 -0.0713
  497MOL0     O66968   2.709   5.295   4.330  1.3468 -0.2990 -0.3813
  497MOL0     C66969   2.609   5.294   4.428  1.0040  0.6304  0.3029
  497MOL0     C66970   2.503   5.402   4.378 -0.7233 -0.2417  0.3787
  497MOL0     C66971   2.404   5.436   4.489  0.1047  0.3517  0.1863
  497MOL0     C66972   2.308   5.554   4.469  0.5868  1.0069 -1.2508
  497MOL0     C66973   2.233   5.591   4.602 -0.3615 -0.0714  0.3970
  497MOL0     C66974   2.133   5.482   4.657  0.0706 -0.6267  1.0175
  497MOL0     C66975   2.035   5.509   4.768  0.4303  0.1368  0.3896
  497MOL0     C66976   1.956   5.385   4.812  0.3110  0.7785 -0.1014
  497MOL0     N66977   1.825   5.416   4.874  0.1639  0.0508  0.4212
  497MOL0     C66978   1.705   5.373   4.821  1.1273 -0.1539 -0.6080
  497MOL0     C66979   1.613   5.431   4.907 -0.1110  0.4500  0.2437
  497MOL0     C66980   1.463   5.442   4.900  0.1394 -0.3165  0.4185
  497MOL0     C66981   1.413   5.527   4.784  0.0763  0.4657 -0.2452
  497MOL0     C66982   1.407   5.459   4.649  0.7130 -0.7524  0.9461
  497MOL0     C66983   1.276   5.381   4.654 -0.2469 -0.1559 -0.9751
  497MOL0     O66984   1.164   5.476   4.633  0.2130 -0.6108  0.4592
  497MOL0     C66985   1.032   5.438   4.656 -0.7473 -1.2312 -0.7182
  497MOL0     C66986   0.954   5.547   4.648  0.1859  0.2286  0.1446
  497MOL0     C66987   0.819   5.547   4.677 -1.0433 -0.6403 -0.2574
  497MOL0     C66988   0.746   5.685   4.649  0.2805  0.6190 -0.6902
  497MOL0     C66989   0.761   5.415   4.702  0.1910 -0.1489 -1.2751
  497MOL0     C66990   0.613   5.399   4.723 -0.6703 -0.6600 -0.1719
  497MOL0     O66991   0.538   5.508   4.757  0.0455 -0.4289  0.8465
  497MOL0     C66992   0.405   5.506   4.755 -0.4953 -0.1513  0.8192
  497MOL0     C66993   0.321   5.439   4.667  0.0587 -0.0438  0.3119
  497MOL0     C66994   0.185   5.447   4.663  0.3185 -0.9801  0.4711
  497MOL0     C66995   0.120   5.543   4.741 -0.7769 -0.2441 -0.8788
  497MOL0     O66996  -0.014   5.575   4.724 -0.5817  0.1953 -0.5393
  497MOL0     C66997  -0.097   5.506   4.634 -0.5622  0.8560  0.1656
  497MOL0     C66998  -0.246   5.528   4.662  0.3155 -1.0283  0.0807
  497MOL0     C66999  -0.336   5.444   4.570 -0.2815  0.4676  0.1943
  497MOL0     C67000  -0.475   5.426   4.627  0.1044 -0.2810 -0.5987
  497MOL0     C67001  -0.571   5.350   4.536 -0.3654 -0.8215 -0.4435
  497MOL0     C67002  -0.712   5.336   4.597  0.3335  0.4689  0.7873
  497MOL0     C67003  -0.811   5.249   4.526  0.4805  0.2342  0.4426
  497MOL0     C67004  -0.938   5.226   4.607 -0.1384 -0.3254 -0.4106
  497MOL0    Cl67005  -1.010   5.074   4.544  0.6396  0.2227 -0.5620
  497MOL0     C67006   0.202   5.626   4.827  0.9406  0.2573 -0.4018
  497MOL0     C67007   0.340   5.599   4.833  0.1139 -0.5860 -0.5584
  497MOL0     O67008   0.561   5.288   4.709 -0.0633 -0.4012  0.0160
  497MOL0     C67009   0.846   5.305   4.708 -0.2545  0.1869  0.3366
  497MOL0     C67010   0.989   5.313   4.684  0.1540  0.2560 -0.6426
  497MOL0     N67011   1.677   5.506   5.009 -0.3879 -0.1510  0.9031
  497MOL0     N67012   1.803   5.503   4.975  0.9612 -0.4175 -0.2541
  497MOL0     C67013   2.759   5.062   4.347  0.2174  0.1463  0.3189
  497MOL0     C67014   2.823   4.953   4.289  0.2901  0.2267 -0.7117
  497MOL0     C67015   3.164   4.688   4.157 -0.4887  0.5008  0.1470
  497MOL0     C67016   3.272   4.626   4.226 -0.0568  0.0349  0.6804
  497MOL0     C67017   3.353   4.525   4.168  0.1520  0.4274  0.7703
  497MOL0     C67018   3.333   4.479   4.037  0.3517  0.0712  0.2278
  497MOL0     O67019   3.401   4.374   3.984  0.5130 -0.1894 -0.0424
  497MOL0     C67020   3.523   4.327   4.048  0.8243 -0.3163  0.4834
  497MOL0     C67021   3.644   4.415   4.029  0.2950 -0.0127 -0.3125
  497MOL0     C67022   3.652   4.461   3.887 -0.0878  0.0167  0.1695
  497MOL0     C67023   3.772   4.563   3.876  0.3385 -0.1145 -0.2016
  497MOL0     C67024   3.902   4.492   3.889  0.2389 -0.0394 -0.0622
  497MOL0     C67025   4.013   4.447   3.920  0.4554 -0.5238  0.8568
  497MOL0     C67026   3.222   4.533   3.969 -0.0042  0.3503 -0.2382
  497MOL0     C67027   3.143   4.636   4.026  0.2765 -0.0833 -0.2167
  497MOL0     H67028   3.018   5.107   4.053 -0.0179 -2.3741 -0.0297
  497MOL0     H67029   2.893   5.294   4.133  1.2290 -0.8988 -2.3134
  497MOL0     H67030   2.551   5.202   4.440  1.2279  0.1088 -2.0453
  497MOL0     H67031   2.657   5.321   4.522 -0.2462  3.9956  0.0831
  497MOL0     H67032   2.554   5.493   4.344  0.8331 -1.4752 -0.7375
  497MOL0     H67033   2.457   5.360   4.288  0.1749  0.4826 -0.4490
  497MOL0     H67034   2.351   5.341   4.506  1.9704 -1.6597 -3.8732
  497MOL0     H67035   2.455   5.449   4.585 -1.1883 -0.2748  0.9964
  497MOL0     H67036   2.369   5.641   4.444 -1.4589  3.2671  1.0516
  497MOL0     H67037   2.236   5.539   4.388 -1.4295 -0.8688  0.7079
  497MOL0     H67038   2.312   5.614   4.673  0.8876  0.9562 -1.2560
  497MOL0     H67039   2.164   5.673   4.579 -2.2203 -1.3893  1.0073
  497MOL0     H67040   2.086   5.421   4.579 -0.4200  0.3108  0.5704
  497MOL0     H67041   2.208   5.411   4.694 -0.0383 -0.2121  2.0587
  497MOL0     H67042   2.080   5.552   4.858 -0.3126  1.2261  0.2570
  497MOL0     H67043   1.960   5.579   4.729  2.5947  1.3477 -1.9038
  497MOL0     H67044   2.015   5.336   4.890 -0.4683  0.7717  0.4871
  497MOL0     H67045   1.923   5.314   4.735 -2.3675  1.0833  0.6888
  497MOL0     H67046   1.695   5.323   4.725  2.6984 -0.5264 -0.6025
  497MOL0     H67047   1.423   5.341   4.890  2.0397 -0.8908 -2.4189
  497MOL0     H67048   1.424   5.468   4.999  2.1826 -0.9879  1.4514
  497MOL0     H67049   1.476   5.616   4.789  0.4518  0.1272  2.3047
  497MOL0     H67050   1.314   5.562   4.813 -2.2300 -1.9781 -4.2028
  497MOL0     H67051   1.491   5.394   4.625  1.3488  0.4278 -0.1266
  497MOL0     H67052   1.400   5.535   4.570 -0.2199 -1.5709  0.2058
  497MOL0     H67053   1.257   5.327   4.747 -0.3547 -2.4708 -2.2706
  497MOL0     H67054   1.275   5.317   4.565 -0.9713 -1.8841  0.2298
  497MOL0     H67055   1.007   5.638   4.622  2.2170 -1.2515 -1.1964
  497MOL0     H67056   0.665   5.674   4.577  0.5393 -2.5991 -0.6111
  497MOL0     H67057   0.713   5.735   4.741  0.6294  1.6341 -1.0993
  497MOL0     H67058   0.812   5.758   4.600 -0.0495  0.6131 -1.1470
  497MOL0     H67059   0.371   5.369   4.601 -1.1305 -0.8860  0.2762
  497MOL0     H67060   0.128   5.375   4.605 -2.8001  1.4494  0.2601
  497MOL0     H67061  -0.064   5.544   4.537  2.0201 -2.1765 -0.3158
  497MOL0     H67062  -0.088   5.397   4.634  0.0097  0.8683 -1.9986
  497MOL0     H67063  -0.266   5.505   4.767  0.5251 -3.2764 -0.3313
  497MOL0     H67064  -0.277   5.628   4.629 -0.3556 -1.4111 -0.4641
  497MOL0     H67065  -0.286   5.350   4.546  1.4349  1.8174 -2.0185
  497MOL0     H67066  -0.352   5.500   4.477 -4.5190  0.6904  0.8696
  497MOL0     H67067  -0.467   5.377   4.724 -0.6215  2.1736  0.8036
  497MOL0     H67068  -0.518   5.521   4.661  0.1493 -0.1830 -0.8146
  497MOL0     H67069  -0.528   5.250   4.527 -0.2567 -1.0665  2.0690
  497MOL0     H67070  -0.584   5.396   4.438  0.9537  1.5721  0.4174
  497MOL0     H67071  -0.707   5.292   4.697 -2.5938 -1.8487  0.0920
  497MOL0     H67072  -0.744   5.441   4.592  0.5867  0.5171 -0.0591
  497MOL0     H67073  -0.765   5.159   4.484 -1.2815  0.3100 -1.8988
  497MOL0     H67074  -0.844   5.301   4.435 -1.6732 -0.2647  0.8700
  497MOL0     H67075  -1.016   5.304   4.610 -1.0201 -1.1775  2.9554
  497MOL0     H67076  -0.908   5.203   4.709  0.3508 -1.0648 -0.7144
  497MOL0     H67077   0.169   5.713   4.883 -0.1765  0.9797 -2.1144
  497MOL0     H67078   0.396   5.656   4.906  0.2416 -2.6387  1.0262
  497MOL0     H67079   0.802   5.207   4.717 -0.1751  0.2222  1.2132
  497MOL0     H67080   1.047   5.222   4.673 -3.0616 -2.5428  2.6280
  497MOL0     H67081   2.694   5.038   4.431 -0.5019 -1.7386 -0.7320
  497MOL0     H67082   2.808   4.857   4.337  0.4965  0.4243 -0.2487
  497MOL0     H67083   3.289   4.662   4.327  0.2837  0.4782  0.4704
  497MOL0     H67084   3.436   4.491   4.228  1.0733  0.0429 -0.6790
  497MOL0     H67085   3.512   4.308   4.156  0.7622 -1.0802  0.3491
  497MOL0     H67086   3.546   4.232   3.999  2.7671 -0.2961  1.2788
  497MOL0     H67087   3.738   4.360   4.046  2.1946  2.4725 -1.9980
  497MOL0     H67088   3.645   4.497   4.101  1.3499 -0.0887 -0.2175
  497MOL0     H67089   3.564   4.520   3.858  0.3592  0.5075 -0.1939
  497MOL0     H67090   3.673   4.378   3.820  2.2345 -0.4634  1.3794
  497MOL0     H67091   3.771   4.633   3.959 -1.3443  0.9921 -1.0889
  497MOL0     H67092   3.769   4.620   3.782  1.4328  1.5832  0.7554
  497MOL0     H67093   4.110   4.410   3.946 -0.3298 -1.0071  3.3999
  497MOL0     H67094   3.216   4.518   3.862  1.3010  0.3753 -0.3296
  497MOL0     H67095   3.061   4.675   3.967 -1.8933 -2.8043  0.7816
  498MOL0     O67096   5.925   3.553  11.026 -0.3266  1.1748  0.3627
  498MOL0     C67097   6.002   3.472  10.963 -0.2862 -1.0654  0.7955
  498MOL0     O67098   5.958   3.365  10.881 -0.1186 -0.5521  0.4455
  498MOL0     C67099   5.828   3.346  10.906 -0.3493  0.8486 -0.1060
  498MOL0     C67100   5.736   3.416  10.823 -0.1355  1.1571 -0.8040
  498MOL0     C67101   5.595   3.389  10.847  0.2581 -0.3160  0.2196
  498MOL0     C67102   5.552   3.298  10.947  0.6676 -0.9417 -0.2545
  498MOL0     O67103   5.422   3.277  10.988  0.2743  0.5430 -0.0745
  498MOL0     C67104   5.391   3.134  11.004  0.0447 -0.9541  0.3189
  498MOL0     C67105   5.251   3.091  10.960  0.4671 -0.0330 -0.0071
  498MOL0     C67106   5.124   3.156  11.033 -0.6667 -0.5369 -0.3501
  498MOL0     C67107   5.002   3.080  10.994  1.3647 -0.1823 -0.7337
  498MOL0     C67108   4.866   3.160  11.012 -0.6795  0.0413  0.5410
  498MOL0     C67109   4.754   3.068  11.052 -0.3856 -0.7343 -0.3537
  498MOL0     C67110   4.712   2.961  10.952 -0.3816  1.0032  0.0991
  498MOL0     C67111   4.630   3.024  10.837  0.7332  0.3498 -1.1169
  498MOL0     N67112   4.564   2.923  10.761  0.4886  0.5106 -0.1496
  498MOL0     C67113   4.480   2.949  10.656  0.2789  0.8979  0.6032
  498MOL0     C67114   4.447   2.829  10.593  0.3674 -0.0563  0.0973
  498MOL0     C67115   4.378   2.815  10.461  0.3123 -0.0447  1.0241
  498MOL0     C67116   4.377   2.684  10.394 -0.3302  0.1590  0.3968
  498MOL0     C67117   4.266   2.583  10.431 -0.0678 -0.2078 -1.1407
  498MOL0     C67118   4.120   2.634  10.424  0.1356 -0.6397  0.0458
  498MOL0     O67119   4.066   2.638  10.294 -1.3095 -0.1349 -0.0982
  498MOL0     C67120   4.001   2.536  10.231 -0.0138  0.3045 -0.9444
  498MOL0     C67121   3.924   2.578  10.122 -0.1385  0.4086  0.3743
  498MOL0     C67122   3.852   2.498  10.035  0.2252  0.4884 -0.2494
  498MOL0     C67123   3.771   2.556   9.926  0.5509  0.0513  0.3695
  498MOL0     C67124   3.851   2.360  10.063 -0.7159 -0.1209 -1.0283
  498MOL0     C67125   3.770   2.264   9.995  0.1776 -0.6240 -0.3275
  498MOL0     O67126   3.635   2.287  10.005 -0.3163 -0.5863  0.1324
  498MOL0     C67127   3.550   2.205   9.936  0.2378  0.0841 -0.3037
  498MOL0     C67128   3.442   2.119   9.985  0.0927  0.4301  0.5966
  498MOL0     C67129   3.351   2.060   9.899 -0.0564 -0.4151  0.7223
  498MOL0     C67130   3.358   2.083   9.762 -1.0971  0.5775 -0.2355
  498MOL0     O67131   3.276   2.004   9.677  0.4944 -0.6522 -0.0425
  498MOL0     C67132   3.304   1.998   9.539 -0.0430 -0.6622 -0.2713
  498MOL0     C67133   3.193   1.915   9.469  0.8602 -0.7977 -0.6113
  498MOL0     C67134   3.233   1.900   9.324 -0.2163  1.1815  0.5739
  498MOL0     C67135   3.205   2.022   9.243 -1.0690  0.0604  0.4679
  498MOL0     C67136   3.266   2.002   9.103 -0.1531 -0.2583 -0.0769
  498MOL0     C67137   3.216   2.105   9.000  0.5834 -0.4563  0.4411
  498MOL0     C67138   3.201   2.055   8.859 -0.3510 -0.3800  0.6569
  498MOL0     C67139   3.129   2.150   8.763 -0.2625  0.0116 -0.2227
  498MOL0    Cl67140   3.132   2.058   8.603  0.1246  0.0309 -0.0796
  498MOL0     C67141   3.453   2.181   9.709 -0.1415  0.0386  0.3194
  498MOL0     C67142   3.540   2.242   9.800  0.5269 -0.0874  0.8873
  498MOL0     O67143   3.818   2.178   9.930  0.3632 -0.5068  0.1283
  498MOL0     C67144   3.928   2.319  10.178 -0.1510  0.3722 -0.0997
  498MOL0     C67145   3.996   2.404  10.264 -0.6006  0.1231  0.4707
  498MOL0     N67146   4.503   2.730  10.666 -0.5549  0.9188 -0.2079
  498MOL0     N67147   4.568   2.781  10.770  1.0273  0.5169  0.1760
  498MOL0     C67148   5.654   3.247  11.033  0.4564  0.4666  0.2597
  498MOL0     C67149   5.786   3.261  11.009  0.0830  0.3504  0.1477
  498MOL0     C67150   6.148   3.487  10.987  0.1769 -0.6938  0.0471
  498MOL0     C67151   6.209   3.607  11.018 -0.1629  0.4190  0.1484
  498MOL0     C67152   6.347   3.628  11.039 -0.3799  0.6890  0.0553
  498MOL0     C67153   6.422   3.514  11.038 -0.4230  0.1593 -1.3981
  498MOL0     O67154   6.556   3.503  11.058  0.7537 -0.2484 -0.4830
  498MOL0     C67155   6.629   3.630  11.058 -0.7504  0.2960  0.2578
  498MOL0     C67156   6.780   3.620  11.070 -1.2385 -0.5913  0.6769
  498MOL0     C67157   6.847   3.477  11.092 -0.6745  0.4614 -0.1678
  498MOL0     C67158   6.993   3.494  11.092 -0.4075 -0.6706  0.0177
  498MOL0     C67159   7.041   3.569  11.205  0.2297 -0.6501  0.0582
  498MOL0     C67160   7.088   3.631  11.296  0.4738 -0.2586 -0.6301
  498MOL0     C67161   6.367   3.385  11.013 -0.1139 -0.5623  0.0067
  498MOL0     C67162   6.232   3.373  10.989 -0.0144 -0.6650 -0.1605
  498MOL0     H67163   5.778   3.477  10.744  0.5580  1.7009 -0.0390
  498MOL0     H67164   5.522   3.420  10.772  0.4071 -0.6711 -0.0757
  498MOL0     H67165   5.466   3.075  10.951  4.8372  3.7807  0.9237
  498MOL0     H67166   5.398   3.120  11.112 -3.6223  0.3908  0.8590
  498MOL0     H67167   5.247   3.113  10.853  2.5833 -0.0775 -0.1440
  498MOL0     H67168   5.241   2.984  10.980  0.3761  0.0192  0.2257
  498MOL0     H67169   5.143   3.148  11.140 -2.3132  0.6876  0.0670
  498MOL0     H67170   5.115   3.258  10.994  1.4711 -0.2099 -0.1534
  498MOL0     H67171   5.008   3.052  10.888 -2.6477  0.9784 -1.4437
  498MOL0     H67172   4.989   2.994  11.059  1.3378  0.3760  0.0147
  498MOL0     H67173   4.873   3.239  11.088 -0.5296 -0.9917  1.6436
  498MOL0     H67174   4.850   3.217  10.920 -2.5507  0.1552  0.9036
  498MOL0     H67175   4.782   3.022  11.147 -1.7484  0.1861  0.5301
  498MOL0     H67176   4.669   3.130  11.082  0.5160 -0.3182  1.4253
  498MOL0     H67177   4.800   2.901  10.928 -1.3968 -1.0248  1.2105
  498MOL0     H67178   4.642   2.906  11.016  3.7949 -2.0147  2.6135
  498MOL0     H67179   4.702   3.080  10.776 -1.7009  1.3026 -3.3065
  498MOL0     H67180   4.555   3.094  10.874 -0.3612 -0.6480 -1.4128
  498MOL0     H67181   4.459   3.049  10.619 -0.8193  0.0353 -1.2987
  498MOL0     H67182   4.275   2.841  10.484  0.4000 -0.0344  1.4091
  498MOL0     H67183   4.410   2.891  10.389  0.1703  0.0702  1.0809
  498MOL0     H67184   4.467   2.624  10.409  0.7872  1.4500 -0.8807
  498MOL0     H67185   4.372   2.708  10.288 -1.0402  0.5357  0.5093
  498MOL0     H67186   4.273   2.571  10.540 -2.4398 -1.8916 -1.0902
  498MOL0     H67187   4.274   2.484  10.384 -1.0541 -0.5746 -0.5512
  498MOL0     H67188   4.107   2.737  10.458 -0.7896 -0.7296 -0.0112
  498MOL0     H67189   4.062   2.561  10.481 -0.6903 -0.3162 -0.3558
  498MOL0     H67190   3.928   2.684  10.099  3.5973  0.4506  0.6008
  498MOL0     H67191   3.794   2.495   9.838  1.4820 -0.9356  1.2683
  498MOL0     H67192   3.665   2.542   9.949  0.2908  0.2422 -0.6799
  498MOL0     H67193   3.803   2.660   9.920  0.7137  0.1009  1.8453
  498MOL0     H67194   3.465   2.098  10.089  3.0145  0.0930 -0.0235
  498MOL0     H67195   3.275   1.986   9.926 -0.8529 -0.5358 -1.5498
  498MOL0     H67196   3.307   2.094   9.487 -0.7881 -1.6602 -2.3061
  498MOL0     H67197   3.399   1.946   9.524 -1.0943 -2.8353  0.1434
  498MOL0     H67198   3.179   1.815   9.511  1.5228 -0.2817  0.8930
  498MOL0     H67199   3.099   1.969   9.481  0.6251 -0.7128 -2.4562
  498MOL0     H67200   3.168   1.819   9.290  0.6897 -0.1052  1.7756
  498MOL0     H67201   3.336   1.866   9.306 -1.8968 -4.5401 -0.3173
  498MOL0     H67202   3.097   2.040   9.242 -0.8191  2.0061  2.2939
  498MOL0     H67203   3.243   2.119   9.277 -0.2210  0.3324 -1.1312
  498MOL0     H67204   3.224   1.910   9.061  1.4324  0.1256 -2.7367
  498MOL0     H67205   3.376   1.998   9.108 -0.1933 -2.4211 -0.2051
  498MOL0     H67206   3.122   2.153   9.027 -0.6463 -2.3205 -0.3626
  498MOL0     H67207   3.292   2.184   9.000  1.0607 -0.9155  0.1938
  498MOL0     H67208   3.142   1.965   8.876 -1.2414  0.2764  1.1401
  498MOL0     H67209   3.302   2.039   8.821  0.5543  3.6127  0.9720
  498MOL0     H67210   3.190   2.241   8.766 -1.6878  0.9924 -0.1165
  498MOL0     H67211   3.029   2.178   8.797 -0.9400 -2.3827 -0.1198
  498MOL0     H67212   3.461   2.208   9.605 -1.9565 -0.1050  0.1047
  498MOL0     H67213   3.609   2.314   9.757  0.4118 -0.7373 -0.4107
  498MOL0     H67214   3.931   2.212  10.198 -0.4492  0.6186  1.3664
  498MOL0     H67215   4.055   2.371  10.349  2.0594  0.7269 -1.0251
  498MOL0     H67216   5.634   3.178  11.114 -1.1490  0.2510 -0.2874
  498MOL0     H67217   5.862   3.210  11.067  3.0241  0.3554 -3.3390
  498MOL0     H67218   6.138   3.685  11.047 -2.0191 -1.7036  1.6359
  498MOL0     H67219   6.386   3.727  11.056 -1.7525  1.5898 -1.7172
  498MOL0     H67220   6.613   3.683  10.963  0.7941  0.6751  0.1864
  498MOL0     H67221   6.589   3.691  11.140 -1.8709 -1.4380  1.0700
  498MOL0     H67222   6.814   3.672  11.161  1.6740 -0.7229 -0.2351
  498MOL0     H67223   6.832   3.678  10.993  0.8898 -2.8149  0.3255
  498MOL0     H67224   6.821   3.406  11.014 -2.8154  0.2421  0.6907
  498MOL0     H67225   6.805   3.442  11.187 -0.7437  2.3595  0.5673
  498MOL0     H67226   7.013   3.558  11.006 -2.3747  0.1247  0.1028
  498MOL0     H67227   7.050   3.401  11.084  1.2599  0.2649  0.5873
  498MOL0     H67228   7.140   3.675  11.379  0.8087 -0.9311 -0.4683
  498MOL0     H67229   6.425   3.293  11.009 -0.0831 -0.5167 -0.5838
  498MOL0     H67230   6.190   3.276  10.967  0.2482 -0.5795 -1.0835
  499MOL0     O67231   6.451   3.313   2.054 -0.6548  0.6840  0.4894
  499MOL0     C67232   6.571   3.295   2.090  0.9477  0.7190  0.1673
  499MOL0     O67233   6.629   3.171   2.115 -0.4615 -0.3505 -0.0237
  499MOL0     C67234   6.549   3.068   2.114  0.4662  1.0253  0.4963
  499MOL0     C67235   6.445   3.051   2.210 -0.7512  0.6605 -0.0833
  499MOL0     C67236   6.361   2.935   2.211  0.2588 -0.3550 -0.2188
  499MOL0     C67237   6.389   2.834   2.124  0.0576  0.1247  0.6061
  499MOL0     O67238   6.319   2.716   2.130  0.2970  0.2717  0.7830
  499MOL0     C67239   6.409   2.607   2.141 -0.7980  0.2330 -0.8205
  499MOL0     C67240   6.353   2.474   2.123 -0.3018 -0.7865  0.5166
  499MOL0     C67241   6.226   2.444   2.195 -0.8730  1.2662  0.7041
  499MOL0     C67242   6.213   2.492   2.351  0.1549  0.8121 -0.2255
  499MOL0     C67243   6.069   2.491   2.399  1.1881  0.0631 -0.2526
  499MOL0     C67244   6.030   2.337   2.424  0.3789 -0.2081  0.2555
  499MOL0     C67245   5.878   2.330   2.444 -0.8372 -0.2295 -0.1648
  499MOL0     C67246   5.834   2.372   2.583 -0.4621  0.9477 -0.1235
  499MOL0     N67247   5.690   2.370   2.592  0.2826 -0.1767 -0.3053
  499MOL0     C67248   5.596   2.417   2.494 -0.0955  0.4459 -0.0886
  499MOL0     C67249   5.476   2.374   2.533  0.0214  0.1616 -0.3428
  499MOL0     C67250   5.348   2.405   2.459  0.1837 -0.4349 -0.4128
  499MOL0     C67251   5.282   2.278   2.404 -0.4045 -0.5315 -0.4683
  499MOL0     C67252   5.213   2.214   2.526  0.1657 -0.2220 -0.3539
  499MOL0     C67253   5.160   2.080   2.479 -0.6934  0.0105  0.5576
  499MOL0     O67254   5.058   2.032   2.571  0.5740 -0.1490  0.7601
  499MOL0     C67255   4.967   1.943   2.526  0.2848 -0.1251  0.7553
  499MOL0     C67256   4.978   1.870   2.407 -0.3682 -0.3135  0.3122
  499MOL0     C67257   4.883   1.784   2.364  0.0911 -0.4384  0.7861
  499MOL0     C67258   4.912   1.719   2.232 -0.1712  0.3854  0.3186
  499MOL0     C67259   4.759   1.779   2.425 -0.0749 -0.8097  0.6118
  499MOL0     C67260   4.646   1.714   2.372  0.1601 -0.7790 -0.8886
  499MOL0     O67261   4.524   1.761   2.411  0.1590 -0.2207  0.1789
  499MOL0     C67262   4.412   1.686   2.387  0.4011 -0.4899 -0.3205
  499MOL0     C67263   4.354   1.641   2.503  0.0228  0.0761  0.1447
  499MOL0     C67264   4.227   1.581   2.495  0.4000 -0.3184  0.5696
  499MOL0     C67265   4.157   1.572   2.372  0.8267 -0.3264  0.6866
  499MOL0     O67266   4.037   1.506   2.344 -0.0079 -0.0740 -0.9144
  499MOL0     C67267   3.989   1.410   2.437 -0.2315  0.0342  0.5326
  499MOL0     C67268   4.077   1.285   2.434  0.3882 -0.2279 -0.1317
  499MOL0     C67269   3.996   1.158   2.477  0.0865  0.4887  0.6395
  499MOL0     C67270   4.101   1.057   2.536 -0.1188 -0.3000  0.3148
  499MOL0     C67271   4.029   0.927   2.575  0.4501 -0.2160  0.3925
  499MOL0     C67272   4.122   0.810   2.611  0.2451  0.3021 -0.3986
  499MOL0     C67273   4.207   0.838   2.742 -0.4098  0.0616 -0.0573
  499MOL0     C67274   4.282   0.717   2.798 -0.7843  0.5832  0.7216
  499MOL0    Cl67275   4.162   0.595   2.851 -0.3772 -0.2039 -0.2819
  499MOL0     C67276   4.230   1.608   2.253  1.4026  0.1535 -0.4944
  499MOL0     C67277   4.353   1.667   2.265 -0.0108  0.0831  1.1327
  499MOL0     O67278   4.666   1.603   2.317  0.3172 -0.0781  0.5429
  499MOL0     C67279   4.747   1.845   2.549 -0.1159  0.2917 -0.1330
  499MOL0     C67280   4.852   1.925   2.605 -0.3075  0.3337  0.2465
  499MOL0     N67281   5.504   2.301   2.653 -0.2174 -0.6774  0.0141
  499MOL0     N67282   5.628   2.290   2.679  0.2850  0.2493  0.5210
  499MOL0     C67283   6.477   2.858   2.013 -0.2051  0.4845 -0.9032
  499MOL0     C67284   6.554   2.975   2.008 -0.2529 -0.3805 -0.0094
  499MOL0     C67285   6.663   3.415   2.097  0.5250 -0.4035  0.2811
  499MOL0     C67286   6.616   3.542   2.088  0.1877 -0.0766 -0.7608
  499MOL0     C67287   6.698   3.654   2.109  0.9231  0.5023  0.6818
  499MOL0     C67288   6.831   3.634   2.122  0.5552  0.6779 -0.0960
  499MOL0     O67289   6.927   3.729   2.127 -0.7732 -0.3793 -0.0604
  499MOL0     C67290   6.896   3.869   2.099  0.4765  1.1438 -0.7089
  499MOL0     C67291   6.901   3.907   1.947 -0.8237 -0.4940 -0.0334
  499MOL0     C67292   6.803   3.832   1.864  0.6711  0.1693  0.2386
  499MOL0     C67293   6.776   3.895   1.725  0.4685 -0.0363 -0.5817
  499MOL0     C67294   6.899   3.914   1.652 -0.2710 -0.0491 -0.1452
  499MOL0     C67295   7.009   3.948   1.611  0.2632 -1.3573 -0.3828
  499MOL0     C67296   6.885   3.509   2.131  0.4801 -0.1296  0.2326
  499MOL0     C67297   6.796   3.396   2.118 -0.0838  0.8254 -0.7132
  499MOL0     H67298   6.434   3.126   2.288  3.6320  2.2017 -0.7201
  499MOL0     H67299   6.290   2.930   2.292  0.9116 -2.7953  0.2792
  499MOL0     H67300   6.490   2.607   2.067  0.2930  1.3366  0.3275
  499MOL0     H67301   6.452   2.606   2.242 -2.2150 -1.3755 -0.1841
  499MOL0     H67302   6.338   2.472   2.015  1.2613  1.0325  0.1976
  499MOL0     H67303   6.428   2.395   2.136 -0.1225 -0.6535  0.2956
  499MOL0     H67304   6.146   2.490   2.135 -2.4976  2.2211  3.4229
  499MOL0     H67305   6.212   2.336   2.185 -0.5330  1.4084 -2.2103
  499MOL0     H67306   6.284   2.440   2.415  1.0980  3.8050  1.3447
  499MOL0     H67307   6.236   2.597   2.374  0.9038  0.1415  2.2997
  499MOL0     H67308   6.057   2.533   2.499  1.1133  0.1398 -0.2940
  499MOL0     H67309   6.006   2.532   2.320  0.9428 -2.9796 -1.7579
  499MOL0     H67310   6.056   2.267   2.345  0.9193  0.9145 -0.5931
  499MOL0     H67311   6.075   2.297   2.515 -0.1982 -0.4573  0.4368
  499MOL0     H67312   5.834   2.394   2.366  1.6270  3.2686  1.0877
  499MOL0     H67313   5.843   2.228   2.422 -1.5243 -0.1053  0.3167
  499MOL0     H67314   5.860   2.479   2.586 -0.0953  0.9194 -1.6278
  499MOL0     H67315   5.870   2.313   2.668  1.9616  0.7722 -1.2012
  499MOL0     H67316   5.622   2.481   2.410  1.4836 -2.4874 -2.0276
  499MOL0     H67317   5.282   2.461   2.525  3.3093 -0.2726  2.9343
  499MOL0     H67318   5.370   2.471   2.375 -1.2987 -0.2694 -0.6975
  499MOL0     H67319   5.362   2.216   2.364  2.1753  2.7106 -0.7430
  499MOL0     H67320   5.209   2.306   2.327 -2.6380 -0.0864  1.6902
  499MOL0     H67321   5.126   2.273   2.555 -0.0576 -0.9019  0.4106
  499MOL0     H67322   5.280   2.190   2.609  1.5201 -1.8164 -1.8341
  499MOL0     H67323   5.243   2.010   2.484 -0.5217  0.2865  1.6791
  499MOL0     H67324   5.132   2.095   2.374  2.1178  2.8765  0.0425
  499MOL0     H67325   5.063   1.869   2.339 -1.0945 -2.7346 -0.6259
  499MOL0     H67326   4.991   1.779   2.185  0.8054 -0.8921  0.2646
  499MOL0     H67327   4.942   1.614   2.241 -1.1643  0.0690  0.0423
  499MOL0     H67328   4.817   1.725   2.179 -0.3983 -1.5015  0.4557
  499MOL0     H67329   4.386   1.657   2.606 -2.4159  3.7699  0.5200
  499MOL0     H67330   4.179   1.556   2.589 -0.9307  0.8534  0.2390
  499MOL0     H67331   3.983   1.459   2.534 -1.7638  0.5560  0.2036
  499MOL0     H67332   3.890   1.377   2.403  0.8262 -0.3491 -2.4778
  499MOL0     H67333   4.102   1.271   2.329 -1.7852 -0.0589 -0.7121
  499MOL0     H67334   4.168   1.302   2.493  2.7461  2.8397 -4.1734
  499MOL0     H67335   3.960   1.100   2.391 -0.1593 -3.0321  2.9126
  499MOL0     H67336   3.920   1.183   2.551 -1.4250  1.0923 -1.0448
  499MOL0     H67337   4.174   1.035   2.457 -0.2617 -0.0940  0.1208
  499MOL0     H67338   4.154   1.106   2.617  0.2597 -2.0874  1.1858
  499MOL0     H67339   3.964   0.899   2.491 -0.0756  3.0692 -0.4507
  499MOL0     H67340   3.957   0.945   2.656  0.0726 -0.2920  0.0819
  499MOL0     H67341   4.067   0.716   2.619  1.1850 -0.1152  1.9895
  499MOL0     H67342   4.196   0.799   2.531 -1.5291  1.4857 -2.2855
  499MOL0     H67343   4.132   0.871   2.815  0.2577 -2.2214  1.7675
  499MOL0     H67344   4.274   0.923   2.727  2.3643 -2.0256 -0.2313
  499MOL0     H67345   4.344   0.749   2.882  0.5360  2.0474 -0.7358
  499MOL0     H67346   4.344   0.688   2.713 -1.1006  1.2145  0.2692
  499MOL0     H67347   4.192   1.582   2.154 -0.6415 -0.8797  0.5054
  499MOL0     H67348   4.399   1.702   2.173 -2.1053  2.5619  0.9003
  499MOL0     H67349   4.660   1.854   2.613 -0.3206  0.3800 -0.4224
  499MOL0     H67350   4.845   1.975   2.701  1.4754  0.2255  0.4763
  499MOL0     H67351   6.492   2.780   1.939 -0.6726 -1.2681  0.7707
  499MOL0     H67352   6.624   2.977   1.925  2.3051 -2.6072  1.9178
  499MOL0     H67353   6.508   3.548   2.082 -0.0000 -1.9175 -0.0110
  499MOL0     H67354   6.652   3.753   2.116 -1.6063 -0.5393  0.0951
  499MOL0     H67355   6.795   3.896   2.131  0.9714 -0.4494  2.6054
  499MOL0     H67356   6.967   3.935   2.150  0.3639  2.4934 -2.2319
  499MOL0     H67357   7.004   3.899   1.911 -1.1141  1.2437 -1.3562
  499MOL0     H67358   6.882   4.013   1.929 -0.9061 -0.4632  0.2211
  499MOL0     H67359   6.701   3.834   1.904  0.1475 -0.0530 -1.0416
  499MOL0     H67360   6.846   3.734   1.843 -2.3575 -1.2085 -0.0967
  499MOL0     H67361   6.734   3.995   1.739 -1.1523 -0.5652 -1.3833
  499MOL0     H67362   6.703   3.843   1.662  0.6274  0.6019 -1.3071
  499MOL0     H67363   7.104   3.988   1.580 -1.0084  3.8141  1.2722
  499MOL0     H67364   6.992   3.498   2.145  0.4573 -1.8350 -0.6796
  499MOL0     H67365   6.839   3.296   2.126 -1.3113  0.4732  3.7061
  500MOL0     O67366   8.325   5.996   7.730  0.1371 -0.3958 -0.0492
  500MOL0     C67367   8.326   6.089   7.650  0.2530  0.2445 -0.4999
  500MOL0     O67368   8.224   6.124   7.568 -0.2908 -0.3839  0.0053
  500MOL0     C67369   8.108   6.056   7.583 -0.0081  0.6113 -0.5453
  500MOL0     C67370   8.043   6.000   7.471  0.2197 -0.0660 -0.1088
  500MOL0     C67371   7.921   5.933   7.484  0.3143  0.8974  0.6654
  500MOL0     C67372   7.854   5.932   7.604 -0.7134  0.1692 -0.4364
  500MOL0     O67373   7.733   5.867   7.614  0.2052  0.9059  0.1371
  500MOL0     C67374   7.631   5.955   7.631  0.5295 -0.4040  0.3403
  500MOL0     C67375   7.489   5.895   7.589 -0.4219 -0.1225 -0.0554
  500MOL0     C67376   7.429   5.811   7.703 -0.5974  0.5046 -0.1866
  500MOL0     C67377   7.276   5.793   7.684 -0.3514  0.1921 -0.3465
  500MOL0     C67378   7.209   5.815   7.821 -0.0847  0.1096 -0.5034
  500MOL0     C67379   7.059   5.825   7.804  0.3848 -0.2201  0.5743
  500MOL0     C67380   6.999   5.839   7.942  0.4806 -0.5586 -0.4982
  500MOL0     C67381   6.843   5.816   7.940 -0.0427  0.7789 -0.0132
  500MOL0     N67382   6.818   5.680   7.984 -0.0563  0.8009 -0.0425
  500MOL0     C67383   6.772   5.568   7.909 -0.7443 -0.8565 -0.2228
  500MOL0     C67384   6.738   5.476   7.998 -0.3129 -0.5323  0.1297
  500MOL0     C67385   6.687   5.335   7.976 -0.2543 -0.5946 -0.6005
  500MOL0     C67386   6.535   5.335   7.929  0.3692 -0.4089 -0.5336
  500MOL0     C67387   6.441   5.413   8.026  0.3390  0.1668 -0.4660
  500MOL0     C67388   6.295   5.390   7.985  0.7656  0.7494 -0.5486
  500MOL0     O67389   6.207   5.480   8.055  0.5302  0.0920 -0.1808
  500MOL0     C67390   6.075   5.439   8.070  1.0178 -0.0909 -0.8133
  500MOL0     C67391   6.006   5.378   7.972  0.4087 -1.0376 -0.2981
  500MOL0     C67392   5.878   5.323   7.981  0.8191 -0.5505  0.5779
  500MOL0     C67393   5.828   5.225   7.875  0.5234 -0.2233 -1.2658
  500MOL0     C67394   5.805   5.346   8.103  0.3671 -0.2655  0.7816
  500MOL0     C67395   5.666   5.310   8.124  0.9037  0.2169  0.4102
  500MOL0     O67396   5.628   5.277   8.244  0.2112 -1.1004  0.1396
  500MOL0     C67397   5.498   5.278   8.289  0.1026  0.0273 -0.5369
  500MOL0     C67398   5.427   5.162   8.298  0.0644 -0.1901  0.3948
  500MOL0     C67399   5.292   5.156   8.331  0.1999 -0.0900  0.1294
  500MOL0     C67400   5.212   5.276   8.336  0.1648 -0.2511 -0.0699
  500MOL0     O67401   5.072   5.268   8.359 -0.0251 -0.1719  0.7206
  500MOL0     C67402   4.979   5.382   8.351 -0.0605  0.6828  0.0569
  500MOL0     C67403   4.838   5.369   8.390  1.4418  0.1288 -0.7069
  500MOL0     C67404   4.826   5.332   8.539 -1.2070 -0.5807 -0.1924
  500MOL0     C67405   4.684   5.355   8.594  0.0178  0.1300 -0.3443
  500MOL0     C67406   4.670   5.309   8.743 -0.7723  0.0664 -1.0077
  500MOL0     C67407   4.530   5.324   8.800 -0.5742 -0.2130 -0.2587
  500MOL0     C67408   4.521   5.237   8.936  0.8085 -0.2816  0.3206
  500MOL0     C67409   4.373   5.231   9.002 -0.6404  0.5357 -0.0744
  500MOL0    Cl67410   4.271   5.152   8.884 -0.1784 -0.2692  0.1381
  500MOL0     C67411   5.279   5.389   8.325  0.2019 -0.5812 -0.7688
  500MOL0     C67412   5.418   5.398   8.307 -0.4105  0.5959 -0.1170
  500MOL0     O67413   5.599   5.304   8.021  0.2379  0.0277  0.5612
  500MOL0     C67414   5.868   5.421   8.203  0.7793 -0.5096  0.3806
  500MOL0     C67415   6.003   5.468   8.187  1.2748  0.0723  0.1447
  500MOL0     N67416   6.744   5.536   8.119 -0.1287 -0.6023  0.1265
  500MOL0     N67417   6.790   5.661   8.113 -0.7303  0.2753 -0.0726
  500MOL0     C67418   7.908   6.000   7.715  0.9960 -0.0470 -0.9826
  500MOL0     C67419   8.030   6.063   7.701  0.0222 -0.3045 -0.5750
  500MOL0     C67420   8.452   6.165   7.639  0.5751  0.0365  0.3509
  500MOL0     C67421   8.455   6.284   7.564  0.4471 -0.3597  0.1542
  500MOL0     C67422   8.570   6.365   7.557  0.0674 -0.8460  0.1283
  500MOL0     C67423   8.679   6.333   7.638  0.3739 -0.4674 -0.3932
  500MOL0     O67424   8.779   6.417   7.625 -0.1997  0.1994  0.3976
  500MOL0     C67425   8.874   6.431   7.725  0.6306  0.0972 -0.2269
  500MOL0     C67426   9.011   6.378   7.692 -0.1016  0.7262  0.4749
  500MOL0     C67427   9.082   6.477   7.589  0.4235  0.9825 -1.0907
  500MOL0     C67428   9.134   6.594   7.670 -0.2992 -0.0236 -0.0209
  500MOL0     C67429   9.048   6.717   7.679  0.4388  0.1347  0.3056
  500MOL0     C67430   8.984   6.818   7.678 -0.1468 -0.3073  1.3665
  500MOL0     C67431   8.671   6.220   7.722  0.0827  0.3612 -1.3017
  500MOL0     C67432   8.563   6.137   7.720  0.9037  0.6722 -0.3592
  500MOL0     H67433   8.088   6.012   7.373  1.3177 -1.5789  0.1800
  500MOL0     H67434   7.869   5.881   7.405 -0.6103  1.3181  0.9853
  500MOL0     H67435   7.630   6.001   7.730  2.4057  0.9918 -0.2296
  500MOL0     H67436   7.634   6.036   7.558 -1.4616  0.1433  0.8206
  500MOL0     H67437   7.423   5.980   7.572  3.2404  3.1113  0.7206
  500MOL0     H67438   7.497   5.840   7.495 -0.3599  0.6062 -0.4817
  500MOL0     H67439   7.462   5.706   7.703  1.2253  1.0375 -0.7248
  500MOL0     H67440   7.449   5.861   7.798 -3.5125 -2.6541  2.3579
  500MOL0     H67441   7.235   5.873   7.621 -3.3783 -0.1684  0.9461
  500MOL0     H67442   7.255   5.694   7.645  2.5918  0.1413 -1.9961
  500MOL0     H67443   7.235   5.727   7.880  2.6889  0.7752 -0.6135
  500MOL0     H67444   7.240   5.912   7.859  0.2985  0.8330 -2.5262
  500MOL0     H67445   7.038   5.911   7.739 -0.3220 -1.8901 -1.5404
  500MOL0     H67446   7.019   5.737   7.752 -0.1215 -0.1691  0.8708
  500MOL0     H67447   7.043   5.764   8.008  0.5904 -1.1177 -1.1963
  500MOL0     H67448   7.020   5.940   7.979 -1.1190  1.2181 -3.9296
  500MOL0     H67449   6.802   5.842   7.842  0.2660  0.0981 -0.3303
  500MOL0     H67450   6.798   5.885   8.013 -1.8736  0.4619 -0.7949
  500MOL0     H67451   6.794   5.541   7.806  3.6178 -2.1922  0.8552
  500MOL0     H67452   6.754   5.279   7.910 -1.1227 -2.2604 -0.1263
  500MOL0     H67453   6.688   5.273   8.067  0.6046  1.3660  0.8053
  500MOL0     H67454   6.502   5.232   7.913 -0.7183  0.0331 -1.2483
  500MOL0     H67455   6.531   5.384   7.832  1.9924 -1.9717 -1.4404
  500MOL0     H67456   6.460   5.520   8.034 -2.0085  0.5501  1.3344
  500MOL0     H67457   6.456   5.363   8.122  0.2204 -1.1823 -1.1199
  500MOL0     H67458   6.264   5.288   8.009 -0.5226  0.5876 -2.6342
  500MOL0     H67459   6.284   5.412   7.879 -1.9365  2.8834  0.0534
  500MOL0     H67460   6.062   5.370   7.879  1.7706  2.0674  0.1366
  500MOL0     H67461   5.746   5.257   7.810  1.9555  2.0853 -2.0571
  500MOL0     H67462   5.914   5.205   7.810  0.1935 -0.9106 -1.5049
  500MOL0     H67463   5.793   5.131   7.920 -0.2490 -0.8001 -2.9883
  500MOL0     H67464   5.482   5.069   8.303  1.8449  0.8646  2.0622
  500MOL0     H67465   5.251   5.060   8.360  0.9083 -0.3159  0.4109
  500MOL0     H67466   5.022   5.454   8.421  0.2583  0.9669 -0.4271
  500MOL0     H67467   4.970   5.439   8.259  0.7288  1.8160  0.6530
  500MOL0     H67468   4.803   5.473   8.392  0.4518  0.0638  6.1877
  500MOL0     H67469   4.778   5.296   8.336  3.3383 -0.0995 -2.6471
  500MOL0     H67470   4.892   5.396   8.598 -0.8567 -1.1903  0.0837
  500MOL0     H67471   4.860   5.230   8.560  1.4798  0.7190  2.7219
  500MOL0     H67472   4.652   5.459   8.589 -1.3844 -0.2158  0.6457
  500MOL0     H67473   4.620   5.294   8.530 -0.1876  0.9218 -0.9055
  500MOL0     H67474   4.742   5.351   8.814 -0.5868 -0.1405 -1.0725
  500MOL0     H67475   4.699   5.204   8.735 -2.7590 -0.4515 -2.2481
  500MOL0     H67476   4.506   5.428   8.821  0.9816 -0.0765  1.0206
  500MOL0     H67477   4.457   5.278   8.732 -1.1998  1.0560 -0.4760
  500MOL0     H67478   4.584   5.280   9.015 -1.6588  1.8703  1.2731
  500MOL0     H67479   4.557   5.136   8.913 -0.1822 -0.1294 -2.2414
  500MOL0     H67480   4.341   5.331   9.034 -0.7579 -0.4056  3.0260
  500MOL0     H67481   4.377   5.170   9.092 -0.2586 -1.8119 -1.5824
  500MOL0     H67482   5.216   5.476   8.339 -1.3695 -1.5870 -1.3670
  500MOL0     H67483   5.463   5.497   8.302  0.8113  0.2063  1.8700
  500MOL0     H67484   5.822   5.439   8.299  0.5331 -0.4336  0.2495
  500MOL0     H67485   6.052   5.514   8.273  1.0074  1.2674 -0.3140
  500MOL0     H67486   7.856   5.999   7.810 -1.0354 -0.5230 -2.0416
  500MOL0     H67487   8.076   6.105   7.790  0.1970  0.2380 -0.9154
  500MOL0     H67488   8.372   6.311   7.500  0.7292  1.0604  0.3535
  500MOL0     H67489   8.576   6.452   7.492  1.5426 -2.9431 -2.7668
  500MOL0     H67490   8.875   6.540   7.738  0.6025  0.0734 -0.0199
  500MOL0     H67491   8.839   6.381   7.816  1.4215 -2.0496 -1.0410
  500MOL0     H67492   8.987   6.287   7.636 -0.0428  0.9578  0.0741
  500MOL0     H67493   9.067   6.356   7.784  0.1204  2.1228  0.6942
  500MOL0     H67494   9.013   6.520   7.515  0.1637  0.9445 -0.8714
  500MOL0     H67495   9.159   6.423   7.534  1.0275  1.8107 -1.0858
  500MOL0     H67496   9.224   6.625   7.615  0.4678 -0.8430  0.7317
  500MOL0     H67497   9.170   6.562   7.769  1.8609 -1.9375 -1.3404
  500MOL0     H67498   8.933   6.912   7.688  1.2491  0.7192 -0.4105
  500MOL0     H67499   8.746   6.196   7.797 -2.5949  2.2093  2.2769
  500MOL0     H67500   8.553   6.055   7.791 -1.9117  1.5460  0.3627
  501MOL0     O67501   6.871   8.190   3.616 -0.2127  0.1003 -0.4129
  501MOL0     C67502   6.976   8.203   3.682  0.0813  0.5135  0.4230
  501MOL0     O67503   6.976   8.189   3.816 -0.2167  0.7526  0.2936
  501MOL0     C67504   6.858   8.142   3.878  0.3955  0.4207 -0.7337
  501MOL0     C67505   6.866   8.018   3.948 -0.1653  0.3686  0.0737
  501MOL0     C67506   6.752   7.958   3.998 -0.2674  0.1029 -0.5569
  501MOL0     C67507   6.624   8.021   3.986 -0.3311 -0.2616 -0.2376
  501MOL0     O67508   6.524   7.944   4.030  0.2948  0.5916  0.0894
  501MOL0     C67509   6.435   8.013   4.121  0.1229 -0.4325 -0.0964
  501MOL0     C67510   6.382   7.914   4.217 -0.5680 -0.5128  0.0511
  501MOL0     C67511   6.293   7.822   4.132 -0.2691  0.5323 -0.1073
  501MOL0     C67512   6.237   7.711   4.220 -0.2689 -0.3862  0.3050
  501MOL0     C67513   6.102   7.741   4.274 -0.3000 -0.2572 -0.6722
  501MOL0     C67514   6.066   7.623   4.372 -0.3883 -0.1121 -0.0978
  501MOL0     C67515   5.969   7.655   4.481  0.2448 -0.6651 -0.2909
  501MOL0     C67516   5.862   7.741   4.420  0.0592  0.1446  0.0821
  501MOL0     N67517   5.777   7.777   4.536 -0.2418  0.0535  0.0927
  501MOL0     C67518   5.642   7.754   4.544 -0.6370 -0.1563 -0.1008
  501MOL0     C67519   5.602   7.805   4.665 -0.3557  0.4189  1.2498
  501MOL0     C67520   5.483   7.792   4.748  0.7841 -0.3199 -0.7618
  501MOL0     C67521   5.366   7.719   4.669  1.1409 -0.1143  0.1678
  501MOL0     C67522   5.247   7.817   4.642 -0.2526 -0.0776 -0.1777
  501MOL0     C67523   5.124   7.768   4.572  0.4644 -0.4617  0.8112
  501MOL0     O67524   5.051   7.664   4.632  0.1259 -0.0612 -0.2326
  501MOL0     C67525   4.974   7.583   4.550 -0.7288 -0.3974 -0.8335
  501MOL0     C67526   4.891   7.631   4.459  0.4587 -0.2086  0.6906
  501MOL0     C67527   4.818   7.546   4.371 -0.0044  0.1484 -0.5208
  501MOL0     C67528   4.724   7.607   4.271 -0.0663 -0.2504 -0.5047
  501MOL0     C67529   4.831   7.409   4.382 -0.1707  0.4675  0.7268
  501MOL0     C67530   4.769   7.307   4.288 -1.2351  0.2917 -0.7084
  501MOL0     O67531   4.689   7.349   4.183 -0.0256  1.0478  0.1014
  501MOL0     C67532   4.636   7.248   4.103  0.5100  0.0319  0.1931
  501MOL0     C67533   4.512   7.192   4.126 -0.2249  0.6526  0.5823
  501MOL0     C67534   4.470   7.095   4.035  0.3516  0.4236  0.0793
  501MOL0     C67535   4.542   7.053   3.922 -0.8533 -0.3036 -0.8692
  501MOL0     O67536   4.482   6.964   3.844  0.5830  1.0320  0.4604
  501MOL0     C67537   4.443   7.021   3.723  0.4997  0.4614  0.6268
  501MOL0     C67538   4.304   6.969   3.683 -0.5639  0.0409  0.5215
  501MOL0     C67539   4.199   6.997   3.790 -0.0763 -0.8118  0.9291
  501MOL0     C67540   4.054   6.965   3.751  0.2935  0.1261  0.7217
  501MOL0     C67541   3.961   7.011   3.869  0.0279 -0.0143  0.5461
  501MOL0     C67542   3.818   6.987   3.825  0.5900  0.7707 -0.2216
  501MOL0     C67543   3.720   7.021   3.942 -0.3908 -1.2181  0.1468
  501MOL0     C67544   3.570   7.023   3.898 -0.2245  0.5473 -0.9392
  501MOL0    Cl67545   3.477   7.080   4.035  0.1988  0.0687 -0.4155
  501MOL0     C67546   4.667   7.109   3.895 -0.4645 -0.1853 -0.2719
  501MOL0     C67547   4.707   7.215   3.986 -0.2642  0.1336 -0.4638
  501MOL0     O67548   4.780   7.188   4.323 -0.0801  0.2875  0.0797
  501MOL0     C67549   4.925   7.359   4.474  0.4878  0.2269  0.2972
  501MOL0     C67550   4.997   7.446   4.552 -0.1437 -0.6193 -0.5111
  501MOL0     N67551   5.714   7.859   4.721  0.2107  0.0054 -0.7209
  501MOL0     N67552   5.808   7.855   4.644 -0.3893  0.0003  0.2197
  501MOL0     C67553   6.614   8.146   3.934 -0.7807  0.2682 -0.3585
  501MOL0     C67554   6.732   8.209   3.873 -0.1527 -0.0113  0.9437
  501MOL0     C67555   7.099   8.249   3.615 -0.1905 -0.2600  0.5916
  501MOL0     C67556   7.118   8.249   3.472  1.5915  0.6040  0.0209
  501MOL0     C67557   7.231   8.297   3.414 -0.2828 -0.5320  0.7113
  501MOL0     C67558   7.333   8.351   3.489 -0.4598  0.0092 -0.5848
  501MOL0     O67559   7.461   8.400   3.449  0.7277  0.1717  0.1837
  501MOL0     C67560   7.497   8.388   3.312 -0.6227  0.2279 -0.2518
  501MOL0     C67561   7.660   8.375   3.295  0.2815  0.0045  0.8231
  501MOL0     C67562   7.750   8.466   3.378 -0.8487 -0.0011  0.1188
  501MOL0     C67563   7.698   8.610   3.398 -0.2693 -0.0413 -0.7045
  501MOL0     C67564   7.799   8.705   3.443 -0.4110  0.3479  0.5563
  501MOL0     C67565   7.879   8.786   3.484 -0.6223 -0.4525  0.3930
  501MOL0     C67566   7.326   8.340   3.619 -1.1110  0.3868  0.1558
  501MOL0     C67567   7.217   8.290   3.682 -0.0542  0.3476  0.3985
  501MOL0     H67568   6.958   7.964   3.967 -0.7333 -1.0864 -1.1698
  501MOL0     H67569   6.760   7.862   4.047 -0.1958  0.4980  0.2274
  501MOL0     H67570   6.479   8.085   4.191  1.7126 -1.0783 -0.3880
  501MOL0     H67571   6.346   8.044   4.064 -0.1174 -0.2032  0.4003
  501MOL0     H67572   6.466   7.858   4.262  0.5530  2.2186  1.6290
  501MOL0     H67573   6.331   7.973   4.294  0.0390  1.6138 -1.1028
  501MOL0     H67574   6.210   7.866   4.076 -1.2297 -1.4262 -0.3234
  501MOL0     H67575   6.360   7.776   4.059  2.1062  0.6697  1.8386
  501MOL0     H67576   6.233   7.617   4.164  1.6811 -0.6901  0.5798
  501MOL0     H67577   6.319   7.692   4.290  1.3969 -0.3096 -1.5201
  501MOL0     H67578   6.123   7.827   4.338 -1.2469 -0.4093 -0.1274
  501MOL0     H67579   6.017   7.762   4.208 -3.7558  0.5217  3.5362
  501MOL0     H67580   6.025   7.537   4.319  2.3971 -0.8364 -1.2272
  501MOL0     H67581   6.151   7.576   4.421 -0.5548  0.2761  0.5742
  501MOL0     H67582   5.918   7.572   4.530 -2.3349  0.9464 -0.0389
  501MOL0     H67583   6.016   7.711   4.563  0.0338  0.6193 -1.0248
  501MOL0     H67584   5.814   7.679   4.344  0.5014  0.2270 -0.2673
  501MOL0     H67585   5.912   7.831   4.383  0.4652 -0.9235 -2.0830
  501MOL0     H67586   5.572   7.710   4.474 -1.9207  0.8238  0.5108
  501MOL0     H67587   5.497   7.729   4.836 -1.9191  3.0006  2.3953
  501MOL0     H67588   5.474   7.897   4.778  3.4607 -0.1262 -0.3295
  501MOL0     H67589   5.331   7.627   4.717 -2.1723 -0.3731 -2.3193
  501MOL0     H67590   5.404   7.681   4.574  2.3733  2.2754 -0.3796
  501MOL0     H67591   5.281   7.903   4.584 -1.4125  0.0819 -0.6474
  501MOL0     H67592   5.217   7.854   4.741  1.1243 -2.7864  1.3643
  501MOL0     H67593   5.164   7.738   4.475 -0.4542 -0.8494  0.5457
  501MOL0     H67594   5.051   7.848   4.552  2.0143  0.6025 -0.9164
  501MOL0     H67595   4.867   7.736   4.453 -1.6303 -0.7118 -0.9523
  501MOL0     H67596   4.621   7.571   4.272  0.2221 -1.1066 -0.8464
  501MOL0     H67597   4.739   7.716   4.270  2.1919 -0.5096  0.2428
  501MOL0     H67598   4.760   7.570   4.175 -0.4918 -1.8562 -0.0773
  501MOL0     H67599   4.440   7.213   4.204 -3.9212 -0.0048 -2.3386
  501MOL0     H67600   4.373   7.048   4.046 -0.0867  1.6369  1.8627
  501MOL0     H67601   4.439   7.130   3.720  4.3716  0.7685  1.4666
  501MOL0     H67602   4.523   6.984   3.657  2.1511  1.0814  2.1964
  501MOL0     H67603   4.264   7.020   3.595 -2.5754 -0.0826  1.3047
  501MOL0     H67604   4.311   6.860   3.687  1.0992  0.1101  0.1953
  501MOL0     H67605   4.207   7.101   3.823 -0.4187  0.5082 -2.6381
  501MOL0     H67606   4.220   6.933   3.876 -1.3716 -0.5935  1.4270
  501MOL0     H67607   4.032   7.012   3.655 -0.2619  0.2183  0.8863
  501MOL0     H67608   4.040   6.857   3.745 -3.6722  0.5490 -3.5338
  501MOL0     H67609   3.979   7.117   3.883 -0.6278 -0.0305  1.5373
  501MOL0     H67610   3.976   6.957   3.963  0.3317  1.2896  1.2653
  501MOL0     H67611   3.794   7.052   3.740 -0.2708  0.9328  0.1299
  501MOL0     H67612   3.799   6.882   3.805 -1.0527  0.8776  0.5587
  501MOL0     H67613   3.740   7.121   3.984  0.0532 -1.2896  0.1075
  501MOL0     H67614   3.737   6.955   4.027  2.5756  2.4279  2.7527
  501MOL0     H67615   3.533   6.923   3.872 -2.4219  1.8059 -3.1140
  501MOL0     H67616   3.555   7.098   3.819  1.1562  0.8254 -0.9545
  501MOL0     H67617   4.727   7.077   3.810 -0.5510 -0.8561 -0.0930
  501MOL0     H67618   4.810   7.250   3.978 -0.0955 -0.3388 -0.4245
  501MOL0     H67619   4.954   7.255   4.482 -0.6849 -0.0108  2.5319
  501MOL0     H67620   5.065   7.399   4.622 -2.5320 -1.1041  1.6121
  501MOL0     H67621   6.514   8.183   3.920 -1.1214 -0.8282 -0.9567
  501MOL0     H67622   6.730   8.309   3.831  0.3992  1.0091  3.1913
  501MOL0     H67623   7.044   8.203   3.408  1.4273  2.0561 -0.8732
  501MOL0     H67624   7.238   8.291   3.306 -4.6777  0.6251  0.1605
  501MOL0     H67625   7.444   8.313   3.253 -1.3585  0.1585  0.4703
  501MOL0     H67626   7.467   8.485   3.272 -0.7438  0.0738 -0.5406
  501MOL0     H67627   7.689   8.391   3.191  0.6270 -1.5723  0.6456
  501MOL0     H67628   7.683   8.271   3.319  0.6361  0.0625  0.7383
  501MOL0     H67629   7.842   8.479   3.320 -0.7899  3.7706  0.8170
  501MOL0     H67630   7.771   8.425   3.478 -2.0948  0.7124  0.6907
  501MOL0     H67631   7.621   8.615   3.476 -2.2135  0.2758 -2.5349
  501MOL0     H67632   7.654   8.648   3.306 -1.1008  3.7729  1.0810
  501MOL0     H67633   7.939   8.869   3.516 -2.7714  2.2646 -2.0970
  501MOL0     H67634   7.416   8.364   3.675 -1.7600  0.3093  1.2568
  501MOL0     H67635   7.229   8.279   3.789  1.7808  0.5080  0.2425
  502MOL0     O67636   3.681  10.866  10.053 -0.2318 -0.2815  1.2395
  502MOL0     C67637   3.724  10.768   9.994 -1.2889 -0.5707  0.3929
  502MOL0     O67638   3.652  10.686   9.910 -0.7049 -0.0040 -0.1832
  502MOL0     C67639   3.520  10.715   9.907 -0.3254 -0.2759 -0.1197
  502MOL0     C67640   3.441  10.695  10.024  0.7337 -0.7518  0.6816
  502MOL0     C67641   3.309  10.696  10.019  0.1131 -0.1469  0.7056
  502MOL0     C67642   3.241  10.721   9.899  0.3499  0.1326  0.1830
  502MOL0     O67643   3.107  10.732   9.897 -0.3266 -0.5532 -0.0341
  502MOL0     C67644   3.042  10.860   9.865 -0.5847  0.7638 -0.5375
  502MOL0     C67645   3.011  10.888   9.720  0.2320 -0.2476  0.5137
  502MOL0     C67646   2.921  10.780   9.658  0.3282 -0.2328  0.4872
  502MOL0     C67647   2.776  10.777   9.699  0.1157  0.1339  0.2807
  502MOL0     C67648   2.688  10.662   9.635 -0.5845 -0.8029  0.5342
  502MOL0     C67649   2.543  10.663   9.681  0.1353  0.8479  0.0237
  502MOL0     C67650   2.472  10.549   9.603 -0.9154  0.5212 -0.1494
  502MOL0     C67651   2.514  10.398   9.637  0.3357 -1.2039 -0.4261
  502MOL0     N67652   2.419  10.289   9.605 -0.3224 -1.0808 -0.3034
  502MOL0     C67653   2.371  10.263   9.477 -0.1329  1.0617 -0.2859
  502MOL0     C67654   2.286  10.156   9.495 -0.4519 -0.2433  0.3281
  502MOL0     C67655   2.215  10.072   9.400  0.4788  0.6109  0.2562
  502MOL0     C67656   2.300   9.960   9.353 -0.4119 -0.0349 -0.1972
  502MOL0     C67657   2.215   9.832   9.311  0.7933  0.8489  0.3124
  502MOL0     C67658   2.122   9.867   9.203 -0.1344  0.6991 -0.5066
  502MOL0     O67659   2.047   9.748   9.170  0.4532  0.1807 -0.0576
  502MOL0     C67660   1.938   9.772   9.083 -0.3141 -0.5893 -0.9960
  502MOL0     C67661   1.868   9.665   9.046  0.5472  0.1167 -0.3011
  502MOL0     C67662   1.761   9.662   8.956 -1.7577 -0.0355 -0.2557
  502MOL0     C67663   1.694   9.532   8.905 -0.7409 -0.5021  0.2138
  502MOL0     C67664   1.725   9.793   8.901  0.6006  0.1956  0.5527
  502MOL0     C67665   1.598   9.819   8.816 -1.0427  0.4665 -0.0409
  502MOL0     O67666   1.508   9.720   8.787 -1.2426  0.0385  0.0458
  502MOL0     C67667   1.403   9.753   8.700  0.5379  0.2502 -0.3560
  502MOL0     C67668   1.279   9.811   8.745 -0.1266 -0.1888  0.2635
  502MOL0     C67669   1.184   9.843   8.657  0.9151  0.0996  0.0454
  502MOL0     C67670   1.219   9.849   8.525 -0.2231  0.0528 -0.2662
  502MOL0     O67671   1.127   9.921   8.451 -0.3241  0.0588  0.4564
  502MOL0     C67672   1.086   9.875   8.325  0.3679  0.4173  0.3669
  502MOL0     C67673   1.023   9.986   8.239 -0.3750  0.1779  0.3168
  502MOL0     C67674   0.892  10.041   8.296  0.3194  0.2813  0.5086
  502MOL0     C67675   0.780   9.940   8.291 -0.0160 -1.3587  0.7282
  502MOL0     C67676   0.636   9.991   8.300 -0.0943 -0.5808  0.7848
  502MOL0     C67677   0.618  10.093   8.416 -0.4756 -0.0478  0.4716
  502MOL0     C67678   0.473  10.154   8.420  0.4646  1.2855 -0.4286
  502MOL0     C67679   0.462  10.268   8.524  0.0864 -0.2423 -0.3462
  502MOL0    Cl67680   0.315  10.360   8.498 -0.1741  0.1295  0.5592
  502MOL0     C67681   1.343   9.805   8.475  0.7815  0.5447 -0.5541
  502MOL0     C67682   1.433   9.749   8.563 -0.1151 -0.6734  0.6651
  502MOL0     O67683   1.580   9.937   8.790  0.6214 -0.0155 -0.2427
  502MOL0     C67684   1.806   9.902   8.939  0.2230 -0.7523 -0.2553
  502MOL0     C67685   1.904   9.896   9.029  0.4223 -0.4005  0.4664
  502MOL0     N67686   2.286  10.135   9.631 -0.2394  0.0170 -0.4993
  502MOL0     N67687   2.375  10.202   9.694  0.8751 -0.5368 -0.2823
  502MOL0     C67688   3.319  10.748   9.785  0.0299 -0.0012 -0.2214
  502MOL0     C67689   3.459  10.743   9.787  1.0871 -0.0354  0.3141
  502MOL0     C67690   3.866  10.733  10.027 -0.2139 -0.1486 -0.1425
  502MOL0     C67691   3.940  10.669   9.929 -0.2733 -0.5238 -0.7904
  502MOL0     C67692   4.079  10.662   9.948 -0.4020 -0.4785  0.1968
  502MOL0     C67693   4.143  10.717  10.067 -1.3945 -0.8677  1.1942
  502MOL0     O67694   4.281  10.712  10.076 -0.3906  0.2962  0.6023
  502MOL0     C67695   4.342  10.791  10.182 -0.3112  0.0928  0.0222
  502MOL0     C67696   4.498  10.777  10.182  0.0517  0.7490  0.0642
  502MOL0     C67697   4.567  10.875  10.088  1.1246 -0.3974 -0.2183
  502MOL0     C67698   4.592  10.801   9.946  0.6664 -0.1742  0.8758
  502MOL0     C67699   4.657  10.898   9.867 -0.2707 -0.1311  0.5137
  502MOL0     C67700   4.714  10.991   9.808  0.6400  0.2369  0.5284
  502MOL0     C67701   4.060  10.766  10.166  0.3650 -0.6156 -0.7932
  502MOL0     C67702   3.926  10.781  10.137  0.4093  0.0055 -0.2684
  502MOL0     H67703   3.481  10.655  10.116 -1.1090 -0.1917  1.7845
  502MOL0     H67704   3.252  10.699  10.111 -0.0059  1.0052  0.6078
  502MOL0     H67705   2.948  10.856   9.921  0.7195 -3.3753  1.8409
  502MOL0     H67706   3.110  10.935   9.907  3.0891 -2.4674 -0.1216
  502MOL0     H67707   2.946  10.976   9.727  0.1751 -0.0033 -2.1242
  502MOL0     H67708   3.099  10.904   9.658 -1.5714  0.8115 -1.9254
  502MOL0     H67709   2.916  10.795   9.550  0.5600  1.0508  0.6436
  502MOL0     H67710   2.963  10.680   9.676 -0.7886 -1.1249 -1.5271
  502MOL0     H67711   2.772  10.758   9.806  2.5728 -2.7851  0.0079
  502MOL0     H67712   2.730  10.875   9.683 -3.4968 -1.8033 -2.7063
  502MOL0     H67713   2.697  10.680   9.528 -2.4741 -0.2883  0.4183
  502MOL0     H67714   2.734  10.566   9.661 -1.3865 -1.4038 -0.2071
  502MOL0     H67715   2.545  10.653   9.790  2.8759 -0.7633 -0.0643
  502MOL0     H67716   2.489  10.755   9.660 -1.5024  0.7770  3.3237
  502MOL0     H67717   2.368  10.562   9.634  0.2355  0.8536  4.2545
  502MOL0     H67718   2.496  10.547   9.496  1.7215  0.0813  0.3759
  502MOL0     H67719   2.550  10.390   9.740  3.3958  0.7967 -1.1918
  502MOL0     H67720   2.598  10.370   9.572 -0.8098 -1.4089 -1.8540
  502MOL0     H67721   2.394  10.315   9.384 -0.6466  2.6559  0.4453
  502MOL0     H67722   2.128  10.034   9.456  1.2990 -1.0858  0.4508
  502MOL0     H67723   2.183  10.134   9.316  5.1221 -0.6611 -2.7949
  502MOL0     H67724   2.367   9.940   9.438  1.2835  1.9596 -0.9862
  502MOL0     H67725   2.351   9.995   9.263 -0.2937 -1.3683 -0.6743
  502MOL0     H67726   2.152   9.811   9.398  1.2761 -1.7206  0.1334
  502MOL0     H67727   2.286   9.751   9.294 -0.6432 -0.5698  0.8542
  502MOL0     H67728   2.182   9.905   9.119 -0.7134 -0.4312 -1.4557
  502MOL0     H67729   2.051   9.944   9.235  2.7748  3.0135  0.9454
  502MOL0     H67730   1.896   9.580   9.108 -1.8359 -0.8561 -0.4491
  502MOL0     H67731   1.664   9.536   8.799  0.7988  0.0184 -0.2350
  502MOL0     H67732   1.776   9.460   8.901  1.0999  1.4585  0.3912
  502MOL0     H67733   1.618   9.499   8.976  0.6278 -3.7738  0.2929
  502MOL0     H67734   1.250   9.813   8.850 -0.4052  0.7332  0.1782
  502MOL0     H67735   1.087   9.885   8.682  0.3200 -1.7041  0.8657
  502MOL0     H67736   1.163   9.815   8.278  1.3848  1.5552  0.5259
  502MOL0     H67737   1.002   9.806   8.340 -1.7200  2.6515 -0.3554
  502MOL0     H67738   1.091  10.071   8.227 -2.1348  1.7423  0.9401
  502MOL0     H67739   1.016   9.950   8.136 -0.4331 -1.3089  0.8088
  502MOL0     H67740   0.859  10.122   8.230 -1.0719 -0.8880 -0.2855
  502MOL0     H67741   0.903  10.078   8.398  0.3832 -0.6333  0.8389
  502MOL0     H67742   0.784   9.883   8.198  1.6549  1.3164 -0.9883
  502MOL0     H67743   0.801   9.873   8.375 -0.1879  0.5149  2.3468
  502MOL0     H67744   0.569   9.911   8.332 -2.7338  1.7587  1.5011
  502MOL0     H67745   0.609  10.024   8.199  0.3647 -4.0883 -0.6130
  502MOL0     H67746   0.654  10.049   8.509  0.6888 -2.8656 -1.1532
  502MOL0     H67747   0.691  10.170   8.389 -0.7771 -0.4733 -1.8064
  502MOL0     H67748   0.397  10.076   8.421  0.4949  1.2495  1.6775
  502MOL0     H67749   0.458  10.213   8.328 -0.4810  0.6692 -0.6779
  502MOL0     H67750   0.536  10.348   8.517 -0.8997  0.6999 -0.1798
  502MOL0     H67751   0.470  10.221   8.623 -1.0307  2.1556  0.9641
  502MOL0     H67752   1.357   9.814   8.368  0.8011  0.1843 -0.5825
  502MOL0     H67753   1.526   9.708   8.527 -1.5042 -1.9995 -1.6660
  502MOL0     H67754   1.805   9.996   8.884  2.1718 -1.4627 -1.6521
  502MOL0     H67755   1.969   9.983   9.031 -0.1262  0.2234 -2.9344
  502MOL0     H67756   3.270  10.773   9.691  3.3785  1.5610 -1.7053
  502MOL0     H67757   3.521  10.759   9.699  0.4152 -4.7646 -1.2783
  502MOL0     H67758   3.898  10.626   9.839 -1.6886 -1.0888  0.1011
  502MOL0     H67759   4.138  10.605   9.877 -1.4536  0.5018 -1.5612
  502MOL0     H67760   4.317  10.898  10.186 -0.2481  0.2817 -2.6482
  502MOL0     H67761   4.311  10.748  10.278 -1.1633 -0.5628 -0.5355
  502MOL0     H67762   4.530  10.675  10.160 -0.0701  0.7428 -0.0856
  502MOL0     H67763   4.537  10.793  10.283 -0.7728 -0.8680  0.6740
  502MOL0     H67764   4.658  10.917  10.132  0.3693 -0.5433  1.5617
  502MOL0     H67765   4.484  10.944  10.071 -0.8185 -3.2810 -4.0919
  502MOL0     H67766   4.504  10.753   9.901  1.2638 -1.9866  1.5228
  502MOL0     H67767   4.668  10.722   9.939 -0.5599 -1.3400 -0.0673
  502MOL0     H67768   4.770  11.071   9.764  0.2546  1.0316  1.4495
  502MOL0     H67769   4.107  10.802  10.257  0.0468  2.1638 -1.6344
  502MOL0     H67770   3.871  10.822  10.222  0.0923 -0.3055 -0.3229
  503MOL0     O67771   4.797   5.684   2.734  0.9229  0.4943 -0.2609
  503MOL0     C67772   4.834   5.565   2.729 -0.4068 -0.0288  0.2778
  503MOL0     O67773   4.762   5.463   2.689  0.4787  0.5627  0.2178
  503MOL0     C67774   4.626   5.477   2.661 -0.7780  0.2179  0.4228
  503MOL0     C67775   4.542   5.393   2.734  0.0020 -0.1643 -0.2187
  503MOL0     C67776   4.414   5.409   2.715 -0.2125  0.6505  0.2510
  503MOL0     C67777   4.356   5.495   2.616  0.3289  1.3669  0.3111
  503MOL0     O67778   4.218   5.507   2.622 -0.3434 -0.5705 -0.1926
  503MOL0     C67779   4.150   5.560   2.505  0.0770  0.6917  0.2542
  503MOL0     C67780   4.180   5.476   2.375  0.4250  0.2869  0.2765
  503MOL0     C67781   4.130   5.333   2.393  1.5027  0.8623  0.4867
  503MOL0     C67782   3.977   5.328   2.358  0.4054  0.1401 -0.5092
  503MOL0     C67783   3.942   5.299   2.212  1.1539  0.4718  0.2083
  503MOL0     C67784   3.790   5.276   2.199  0.3553  0.5485  0.2834
  503MOL0     C67785   3.759   5.186   2.078  0.1158 -0.3543  0.5541
  503MOL0     C67786   3.806   5.043   2.084 -0.0517 -0.2581  0.6192
  503MOL0     N67787   3.728   4.940   2.011 -0.9284 -0.2359  0.6381
  503MOL0     C67788   3.639   4.869   2.076 -0.3135 -0.3022  0.0731
  503MOL0     C67789   3.579   4.790   1.981 -0.1034  0.1269 -0.5513
  503MOL0     C67790   3.451   4.722   2.019  0.7426  0.2082  0.0316
  503MOL0     C67791   3.402   4.617   1.912  0.2190 -0.5070  0.2931
  503MOL0     C67792   3.274   4.540   1.938  0.5320  1.3248 -0.1286
  503MOL0     C67793   3.268   4.469   2.075 -0.2488 -0.5620 -0.1463
  503MOL0     O67794   3.134   4.430   2.120  0.2574 -0.8861 -0.8531
  503MOL0     C67795   3.070   4.355   2.031  0.5086  0.1897  0.5807
  503MOL0     C67796   3.071   4.215   2.044 -0.4383 -0.0873 -0.2932
  503MOL0     C67797   2.993   4.131   1.964  0.4907 -0.2599 -0.2214
  503MOL0     C67798   3.006   3.977   2.001 -0.1863  0.3985  0.4429
  503MOL0     C67799   2.916   4.182   1.859  0.4014  0.4625 -0.3149
  503MOL0     C67800   2.835   4.095   1.761 -0.1710  0.5380  0.0559
  503MOL0     O67801   2.775   3.980   1.809 -0.1960 -0.4913 -0.1807
  503MOL0     C67802   2.709   3.895   1.722 -0.4785 -0.1956 -0.6985
  503MOL0     C67803   2.784   3.831   1.624  0.3776 -0.7205  1.5054
  503MOL0     C67804   2.718   3.761   1.527 -0.6814  0.0264 -1.6586
  503MOL0     C67805   2.578   3.745   1.530 -0.0059 -0.3467 -0.4005
  503MOL0     O67806   2.517   3.687   1.428 -0.0479 -0.8936 -0.5729
  503MOL0     C67807   2.563   3.561   1.385 -0.5085  0.2432 -0.2998
  503MOL0     C67808   2.520   3.460   1.498  0.0734 -0.0644  0.2258
  503MOL0     C67809   2.369   3.446   1.523 -0.6273 -0.4027 -0.0570
  503MOL0     C67810   2.318   3.331   1.451 -0.5144  0.3767 -0.0431
  503MOL0     C67811   2.172   3.300   1.478  0.0608 -0.0565 -0.7706
  503MOL0     C67812   2.157   3.236   1.615 -0.2555 -0.0893  0.5715
  503MOL0     C67813   2.010   3.223   1.641  0.7721 -0.2189 -0.6379
  503MOL0     C67814   1.966   3.107   1.717 -0.4911 -0.1610 -0.2618
  503MOL0    Cl67815   1.794   3.098   1.723 -0.1546 -0.2979 -0.5556
  503MOL0     C67816   2.510   3.786   1.652 -0.5505 -0.2302 -0.0588
  503MOL0     C67817   2.578   3.857   1.747  0.4499 -0.8668  0.6055
  503MOL0     O67818   2.831   4.133   1.644  0.0660  0.9997  0.3995
  503MOL0     C67819   2.922   4.320   1.844  0.3550 -0.4717  0.0011
  503MOL0     C67820   2.991   4.409   1.933 -0.4078  0.8212  0.5970
  503MOL0     N67821   3.649   4.808   1.865 -0.0684  0.2257  0.4180
  503MOL0     N67822   3.749   4.881   1.883 -0.0887 -0.7899 -0.4062
  503MOL0     C67823   4.444   5.569   2.534  0.0267  0.3850  0.6897
  503MOL0     C67824   4.580   5.548   2.555 -0.1971  0.7803  0.0594
  503MOL0     C67825   4.980   5.527   2.763 -0.1813 -0.7168 -0.2523
  503MOL0     C67826   5.081   5.617   2.782 -0.1129 -0.7119  0.0629
  503MOL0     C67827   5.217   5.582   2.797 -0.9132 -0.1198 -0.1165
  503MOL0     C67828   5.240   5.447   2.830 -0.0411  0.0876  0.3327
  503MOL0     O67829   5.372   5.402   2.826  0.0794 -0.2269  0.6580
  503MOL0     C67830   5.399   5.281   2.891  0.6636  0.2221 -0.1416
  503MOL0     C67831   5.552   5.263   2.897  1.0898 -0.1519  1.1523
  503MOL0     C67832   5.592   5.145   2.982  0.1399 -0.1137  0.1607
  503MOL0     C67833   5.740   5.102   2.981 -0.4291 -0.4016  0.3412
  503MOL0     C67834   5.795   5.093   2.849 -0.0866 -0.7750  0.1495
  503MOL0     C67835   5.818   5.105   2.729 -0.2669  0.3807  0.7207
  503MOL0     C67836   5.132   5.352   2.830 -0.0875  0.0668  0.6104
  503MOL0     C67837   5.005   5.396   2.789  0.6754  0.3169 -0.4953
  503MOL0     H67838   4.585   5.317   2.798 -0.2505  0.3101  0.5330
  503MOL0     H67839   4.353   5.352   2.785 -2.7528  1.1653 -1.3899
  503MOL0     H67840   4.042   5.554   2.521 -0.1189  2.3155 -0.2222
  503MOL0     H67841   4.179   5.665   2.496  1.1592  0.4531  0.8341
  503MOL0     H67842   4.116   5.518   2.297 -4.0753  1.1736  3.9961
  503MOL0     H67843   4.282   5.475   2.335 -0.6114 -0.4533 -2.6417
  503MOL0     H67844   4.184   5.260   2.332 -0.7699  0.4042 -1.1031
  503MOL0     H67845   4.144   5.298   2.496 -0.5000  2.6431  1.4585
  503MOL0     H67846   3.935   5.246   2.417  1.2616 -0.1832 -0.3264
  503MOL0     H67847   3.932   5.419   2.397  0.8161 -0.7261  2.2109
  503MOL0     H67848   3.976   5.378   2.145 -1.4672  1.3014 -0.2639
  503MOL0     H67849   3.998   5.207   2.188  2.2708  0.0403  3.8511
  503MOL0     H67850   3.744   5.232   2.288 -1.3651  1.7657  0.0557
  503MOL0     H67851   3.738   5.372   2.193  0.4463  0.5122 -2.6982
  503MOL0     H67852   3.651   5.189   2.062  0.3916  2.0970 -1.3963
  503MOL0     H67853   3.803   5.226   1.986 -0.3852  0.2776  0.5818
  503MOL0     H67854   3.813   5.018   2.191  0.0676 -1.0706  0.4323
  503MOL0     H67855   3.907   5.031   2.045  1.1587 -3.5454  4.1524
  503MOL0     H67856   3.613   4.883   2.180  1.3097 -1.5281  0.7021
  503MOL0     H67857   3.458   4.663   2.111  0.5845  0.6692  0.3426
  503MOL0     H67858   3.369   4.794   2.030  0.6646  0.0012  0.8314
  503MOL0     H67859   3.475   4.536   1.906  1.8391  0.9178  0.0444
  503MOL0     H67860   3.389   4.679   1.822 -0.4738 -1.2926 -0.1635
  503MOL0     H67861   3.254   4.470   1.857  0.6071  1.0548  0.0859
  503MOL0     H67862   3.203   4.623   1.934  0.0404  1.0621  1.9017
  503MOL0     H67863   3.290   4.546   2.149 -1.7817 -0.8010  0.6064
  503MOL0     H67864   3.347   4.395   2.092  1.5657  0.4758 -3.3003
  503MOL0     H67865   3.130   4.163   2.119  2.6926  0.0398 -2.4717
  503MOL0     H67866   2.908   3.940   2.031  0.0634 -2.2659 -1.6533
  503MOL0     H67867   3.038   3.924   1.911 -2.0338 -0.3685  0.2026
  503MOL0     H67868   3.068   3.955   2.089 -1.3406  0.7433  1.3706
  503MOL0     H67869   2.889   3.856   1.625  0.2866 -0.2793  0.9144
  503MOL0     H67870   2.778   3.725   1.444  1.6388 -0.2663  0.0504
  503MOL0     H67871   2.524   3.531   1.286 -3.8169  0.0083  0.9216
  503MOL0     H67872   2.672   3.560   1.376 -0.5843  0.6763 -1.4743
  503MOL0     H67873   2.565   3.366   1.464  4.3073  1.6247  0.5609
  503MOL0     H67874   2.577   3.472   1.590  1.1815  2.9766 -0.7628
  503MOL0     H67875   2.318   3.539   1.498 -0.6487 -0.3233  0.2752
  503MOL0     H67876   2.347   3.431   1.629 -0.1952 -4.6627 -0.3997
  503MOL0     H67877   2.333   3.338   1.343  0.9398  0.2850  0.1328
  503MOL0     H67878   2.371   3.240   1.479 -0.1458  0.6580  0.1814
  503MOL0     H67879   2.129   3.230   1.406 -3.4739  0.7405  0.3569
  503MOL0     H67880   2.095   3.377   1.472 -0.4369 -0.3679  0.9662
  503MOL0     H67881   2.197   3.134   1.618  0.5963  0.2434  3.0442
  503MOL0     H67882   2.199   3.297   1.695 -1.0484  1.3323 -0.0583
  503MOL0     H67883   1.957   3.213   1.546 -2.1753  0.1066  0.8559
  503MOL0     H67884   1.970   3.314   1.686 -0.7507 -1.3287  0.4055
  503MOL0     H67885   2.004   3.115   1.819 -1.9521 -2.6002  0.5712
  503MOL0     H67886   2.003   3.014   1.672  0.0732  0.2780 -0.7190
  503MOL0     H67887   2.404   3.766   1.665 -1.3217  3.0104 -0.5605
  503MOL0     H67888   2.509   3.897   1.820 -0.3306  0.0491 -0.5838
  503MOL0     H67889   2.863   4.367   1.766  1.7993 -0.4026 -1.0720
  503MOL0     H67890   2.982   4.517   1.938  2.3324  1.1161  0.9131
  503MOL0     H67891   4.402   5.644   2.468 -0.7281 -1.1696 -0.6800
  503MOL0     H67892   4.650   5.603   2.494 -0.9576 -0.5390 -2.1411
  503MOL0     H67893   5.042   5.716   2.760  0.5814 -0.8253 -1.8640
  503MOL0     H67894   5.287   5.665   2.801 -1.3033  0.2587 -0.8200
  503MOL0     H67895   5.349   5.274   2.987  1.2191  1.4744  0.2606
  503MOL0     H67896   5.362   5.199   2.829  0.9529  1.2495 -1.7410
  503MOL0     H67897   5.587   5.351   2.953 -1.8928  1.2994  0.9327
  503MOL0     H67898   5.592   5.257   2.795  0.4828  0.5211  0.8735
  503MOL0     H67899   5.520   5.067   2.955 -0.4523 -0.2497  2.0115
  503MOL0     H67900   5.574   5.177   3.085  1.5668  2.5543 -0.3269
  503MOL0     H67901   5.760   5.003   3.024  1.1060 -0.8100 -1.2046
  503MOL0     H67902   5.801   5.176   3.033  0.6594 -0.6583 -0.5232
  503MOL0     H67903   5.835   5.141   2.629 -1.3356 -2.5993 -0.6579
  503MOL0     H67904   5.147   5.248   2.857 -1.9515 -0.3940  0.0420
  503MOL0     H67905   4.937   5.313   2.771  1.9922 -0.8263 -0.3563
  504MOL0     O67906   2.441  11.146   5.842 -0.4522  0.3795 -0.1265
  504MOL0     C67907   2.536  11.219   5.858 -0.1939 -0.2361 -0.1439
  504MOL0     O67908   2.552  11.327   5.938  0.2837  1.3880  0.2775
  504MOL0     C67909   2.446  11.351   6.025  0.3992 -0.2480 -0.7283
  504MOL0     C67910   2.479  11.382   6.157 -0.0631  0.3014 -0.0602
  504MOL0     C67911   2.386  11.425   6.256 -0.0110  0.0818  0.6278
  504MOL0     C67912   2.248  11.441   6.213 -0.6842  0.2892 -0.2424
  504MOL0     O67913   2.146  11.474   6.295  0.8729  0.2059 -0.8044
  504MOL0     C67914   2.107  11.377   6.402  0.6243 -0.2742  0.6228
  504MOL0     C67915   1.990  11.436   6.484 -0.0964  0.2312 -0.7844
  504MOL0     C67916   2.038  11.541   6.587 -0.3939 -0.0008  0.2472
  504MOL0     C67917   1.977  11.533   6.729  0.1410  0.3732  0.0574
  504MOL0     C67918   2.060  11.612   6.830  0.4028  0.2843  0.5967
  504MOL0     C67919   2.025  11.759   6.828  0.4027  0.2594  0.1595
  504MOL0     C67920   1.890  11.813   6.781 -0.3936 -0.0193  0.3071
  504MOL0     C67921   1.779  11.780   6.875 -0.6105  0.3275 -0.5908
  504MOL0     N67922   1.654  11.837   6.826  0.5018 -0.3503 -0.3811
  504MOL0     C67923   1.522  11.811   6.868 -0.8159 -0.3232 -0.8525
  504MOL0     C67924   1.448  11.898   6.794  0.1672 -0.5130 -0.3062
  504MOL0     C67925   1.305  11.916   6.811 -0.1284 -0.1952  0.6177
  504MOL0     C67926   1.224  11.826   6.716  0.1292 -0.8200  0.3645
  504MOL0     C67927   1.071  11.841   6.717  0.1184  0.4130 -0.1908
  504MOL0     C67928   1.015  11.787   6.848 -0.4558 -0.2934 -0.8041
  504MOL0     O67929   1.036  11.647   6.864  0.6390  0.0359  0.0229
  504MOL0     C67930   0.959  11.574   6.952 -0.1952  0.0994  0.9588
  504MOL0     C67931   0.842  11.609   7.019 -0.5588  0.2531 -0.2246
  504MOL0     C67932   0.776  11.521   7.111 -0.1488  0.8175 -0.4242
  504MOL0     C67933   0.659  11.583   7.170  0.6158  0.0411 -0.4983
  504MOL0     C67934   0.825  11.385   7.132  0.1354 -0.0167  0.1991
  504MOL0     C67935   0.754  11.285   7.217 -0.6205 -1.1064 -0.0877
  504MOL0     O67936   0.776  11.152   7.193 -0.2664  0.3031  0.4988
  504MOL0     C67937   0.709  11.075   7.275 -0.0175 -0.0814 -0.4384
  504MOL0     C67938   0.572  11.038   7.253 -0.6248 -0.2301 -0.5939
  504MOL0     C67939   0.496  10.975   7.351  0.8438 -0.3328  0.6581
  504MOL0     C67940   0.561  10.932   7.462 -0.9205  0.0072  0.4213
  504MOL0     O67941   0.510  10.841   7.552  0.0221 -0.2665  0.2042
  504MOL0     C67942   0.377  10.790   7.536 -0.5088  0.1430  0.8389
  504MOL0     C67943   0.315  10.744   7.668  0.0183  0.5694  0.5663
  504MOL0     C67944   0.267  10.598   7.665  0.0032  0.1082 -0.4246
  504MOL0     C67945   0.180  10.575   7.785  0.1040 -0.5479  0.1350
  504MOL0     C67946   0.114  10.438   7.806 -0.0770  0.9041 -0.3929
  504MOL0     C67947   0.214  10.324   7.788  0.0417  0.7899  0.3299
  504MOL0     C67948   0.324  10.308   7.900  0.2862  0.0083  0.3169
  504MOL0     C67949   0.472  10.304   7.840  1.3230  0.0892  0.3160
  504MOL0    Cl67950   0.593  10.273   7.970  0.0857 -0.2518  0.4888
  504MOL0     C67951   0.696  10.962   7.492  0.2036 -0.1963  0.3819
  504MOL0     C67952   0.767  11.041   7.399 -0.0619  0.6324 -0.6388
  504MOL0     O67953   0.686  11.331   7.304  0.0921 -0.3009  0.3122
  504MOL0     C67954   0.944  11.355   7.070 -0.2096  0.0293  0.2714
  504MOL0     C67955   1.005  11.442   6.976 -0.1192  0.2778 -0.9022
  504MOL0     N67956   1.523  11.987   6.712  0.0650  0.6001  0.4825
  504MOL0     N67957   1.646  11.940   6.737  1.3221  0.0950 -0.1920
  504MOL0     C67958   2.214  11.398   6.088  0.2114  0.5934  0.3308
  504MOL0     C67959   2.306  11.354   5.993 -0.2596  0.0107 -0.9266
  504MOL0     C67960   2.658  11.192   5.773 -0.5046  0.2384 -0.0986
  504MOL0     C67961   2.669  11.087   5.673 -0.4857  0.3456 -0.6355
  504MOL0     C67962   2.786  11.071   5.598  0.0665 -0.4880 -0.7436
  504MOL0     C67963   2.901  11.146   5.619 -0.5795 -0.3518  0.3099
  504MOL0     O67964   3.014  11.122   5.543 -0.0273 -0.4064  0.8727
  504MOL0     C67965   3.147  11.170   5.595 -0.1232 -0.0292  0.4868
  504MOL0     C67966   3.263  11.105   5.513  0.0748 -0.1268  1.4107
  504MOL0     C67967   3.245  10.958   5.491 -0.0217 -0.4147  0.1386
  504MOL0     C67968   3.207  10.875   5.619  0.5602 -0.1042 -0.3169
  504MOL0     C67969   3.321  10.845   5.708 -0.2414 -1.0249 -0.3339
  504MOL0     C67970   3.394  10.804   5.799 -0.8404 -0.7414  0.4264
  504MOL0     C67971   2.889  11.257   5.711  0.0707  0.4433  0.4880
  504MOL0     C67972   2.770  11.269   5.786  0.4017  0.1081 -0.3876
  504MOL0     H67973   2.582  11.403   6.184  0.3010 -0.3784 -0.8670
  504MOL0     H67974   2.414  11.476   6.347  1.1512  2.7183 -1.0901
  504MOL0     H67975   2.067  11.289   6.350  0.7615  0.3415 -0.5449
  504MOL0     H67976   2.190  11.358   6.471  0.9759 -0.5541  0.1223
  504MOL0     H67977   1.921  11.476   6.409 -2.2827  0.0731  1.0587
  504MOL0     H67978   1.939  11.351   6.530  0.9645  0.1034  0.2051
  504MOL0     H67979   2.144  11.524   6.604  0.1279  2.1024 -0.6417
  504MOL0     H67980   2.029  11.638   6.537  2.0554 -0.1779 -0.6572
  504MOL0     H67981   1.870  11.555   6.718 -0.1304 -0.6341  0.6005
  504MOL0     H67982   1.993  11.431   6.764 -0.8290 -0.1397 -0.9257
  504MOL0     H67983   2.043  11.577   6.932 -1.3730  0.5435  0.4311
  504MOL0     H67984   2.166  11.594   6.813  1.2204 -0.0143  4.8817
  504MOL0     H67985   2.056  11.809   6.920  1.6418 -1.2887  0.6310
  504MOL0     H67986   2.099  11.805   6.763  1.2075 -1.6562 -0.3695
  504MOL0     H67987   1.908  11.920   6.771  0.3652 -0.1287  0.3787
  504MOL0     H67988   1.869  11.776   6.680 -2.8389  1.5358  0.1757
  504MOL0     H67989   1.798  11.822   6.974  0.7460  0.2659 -0.8135
  504MOL0     H67990   1.764  11.674   6.897  1.1425 -0.0336 -1.0381
  504MOL0     H67991   1.498  11.719   6.922  1.1700 -0.2050  0.3381
  504MOL0     H67992   1.279  11.900   6.916  0.9620  1.5876  1.2047
  504MOL0     H67993   1.271  12.018   6.795 -2.3911 -0.9568  0.2483
  504MOL0     H67994   1.255  11.726   6.747  0.8399  0.1766  3.2770
  504MOL0     H67995   1.265  11.836   6.616 -3.2176 -0.3825 -1.0973
  504MOL0     H67996   1.026  11.787   6.633 -0.4533 -0.4275  0.6387
  504MOL0     H67997   1.040  11.946   6.719 -0.5868  0.3418  4.8321
  504MOL0     H67998   0.911  11.818   6.838 -0.6388 -0.3389  0.7776
  504MOL0     H67999   1.068  11.840   6.927  0.9246 -0.5389 -1.5265
  504MOL0     H68000   0.794  11.700   6.987  1.7120  2.3150  1.8240
  504MOL0     H68001   0.665  11.577   7.279  0.5464  1.8952 -0.3689
  504MOL0     H68002   0.642  11.690   7.156 -0.7369  0.1478  1.4876
  504MOL0     H68003   0.568  11.530   7.141  1.7970 -3.4810  1.6011
  504MOL0     H68004   0.518  11.069   7.165 -1.1428  0.5894 -0.0021
  504MOL0     H68005   0.392  10.948   7.333  0.0994  1.5290  1.8901
  504MOL0     H68006   0.316  10.873   7.502 -2.2574 -1.6811 -0.7175
  504MOL0     H68007   0.370  10.716   7.456 -2.2467 -0.0374  1.1285
  504MOL0     H68008   0.384  10.764   7.750  0.1513 -0.4802  0.7260
  504MOL0     H68009   0.234  10.816   7.682  0.0432  1.6943 -3.6987
  504MOL0     H68010   0.350  10.528   7.681 -1.4307 -1.6804 -0.4734
  504MOL0     H68011   0.209  10.567   7.578 -0.8701  0.2359  0.0931
  504MOL0     H68012   0.241  10.609   7.869 -3.9120  1.6138  2.5037
  504MOL0     H68013   0.099  10.649   7.783  0.2483 -0.3730  0.7282
  504MOL0     H68014   0.022  10.429   7.747 -0.5358 -0.0909  0.4437
  504MOL0     H68015   0.094  10.430   7.913  1.1941 -3.5782 -0.2842
  504MOL0     H68016   0.156  10.231   7.788  2.6786 -1.0832 -2.9518
  504MOL0     H68017   0.266  10.330   7.692 -0.4605 -1.7843 -0.1866
  504MOL0     H68018   0.310  10.211   7.947  1.1467 -0.1193  0.3215
  504MOL0     H68019   0.304  10.383   7.977 -2.4832 -1.8356  1.5668
  504MOL0     H68020   0.499  10.394   7.784 -0.4801  0.7624  0.4538
  504MOL0     H68021   0.471  10.222   7.768 -1.7730  1.9116 -1.9969
  504MOL0     H68022   0.736  10.926   7.587 -0.7614  1.6148  1.5382
  504MOL0     H68023   0.868  11.076   7.415  0.5640  0.0141 -2.9350
  504MOL0     H68024   0.983  11.259   7.101 -1.6729 -0.3271  1.1224
  504MOL0     H68025   1.087  11.422   6.909  0.3141  1.1983 -0.6620
  504MOL0     H68026   2.112  11.418   6.056  0.4158  0.9631 -0.0986
  504MOL0     H68027   2.273  11.335   5.891  1.0742  0.1683 -1.4096
  504MOL0     H68028   2.587  11.017   5.662 -0.6356  0.4837 -0.3962
  504MOL0     H68029   2.784  10.997   5.519  0.3581 -1.8916  0.5234
  504MOL0     H68030   3.158  11.278   5.579  1.0994 -0.0071  1.3398
  504MOL0     H68031   3.155  11.140   5.699 -1.8678  0.8094  0.9028
  504MOL0     H68032   3.352  11.128   5.572  1.4369 -0.8238 -0.2614
  504MOL0     H68033   3.278  11.151   5.414 -0.4179  1.3142  1.9760
  504MOL0     H68034   3.336  10.916   5.447  2.2102  1.4377  2.6274
  504MOL0     H68035   3.163  10.944   5.420 -2.0088  1.7616  1.8611
  504MOL0     H68036   3.179  10.776   5.583  0.3853  0.9606 -3.3800
  504MOL0     H68037   3.119  10.905   5.676 -0.1954 -2.3244 -0.2225
  504MOL0     H68038   3.460  10.781   5.880 -2.4976  0.5608  2.2284
  504MOL0     H68039   2.967  11.331   5.728 -1.0680  1.1584  3.0311
  504MOL0     H68040   2.772  11.351   5.857  1.1352  0.2860 -0.6032
  505MOL0     O68041   4.712   7.402   7.116  0.1696  0.1842 -0.3214
  505MOL0     C68042   4.730   7.526   7.108  0.1524 -0.2330 -0.4039
  505MOL0     O68043   4.628   7.624   7.105 -0.1239 -0.6678  0.1612
  505MOL0     C68044   4.507   7.568   7.082  0.3052 -0.0826  0.6637
  505MOL0     C68045   4.408   7.580   7.178  0.8102  0.4034  0.0525
  505MOL0     C68046   4.288   7.503   7.157  0.0646  0.0888 -0.2836
  505MOL0     C68047   4.264   7.432   7.041  0.4246  0.1509 -0.2124
  505MOL0     O68048   4.149   7.359   7.021  0.1204 -0.1778 -0.2874
  505MOL0     C68049   4.152   7.237   6.948  0.2768  0.0239  0.2516
  505MOL0     C68050   4.013   7.186   6.969 -0.5843  0.2674 -0.6675
  505MOL0     C68051   3.993   7.063   6.882  0.3437  0.0515 -0.6841
  505MOL0     C68052   3.872   6.980   6.924  0.1589 -0.4448 -0.4714
  505MOL0     C68053   3.809   6.894   6.820  0.3475 -0.2060 -0.1014
  505MOL0     C68054   3.698   6.794   6.859  0.9148  1.3002  0.5087
  505MOL0     C68055   3.640   6.699   6.747 -0.4284 -0.1699 -0.2045
  505MOL0     C68056   3.538   6.587   6.809  0.4003  0.2307  0.0023
  505MOL0     N68057   3.487   6.499   6.700 -0.1121  0.3016 -0.1127
  505MOL0     C68058   3.416   6.537   6.592 -0.2307  0.4923  0.4403
  505MOL0     C68059   3.427   6.429   6.508 -1.1645 -0.8602 -0.9400
  505MOL0     C68060   3.375   6.417   6.376 -0.7856  0.0211 -0.6156
  505MOL0     C68061   3.298   6.282   6.364 -0.3450 -0.2122  0.4857
  505MOL0     C68062   3.237   6.259   6.228 -0.3563 -0.3994  0.5944
  505MOL0     C68063   3.117   6.156   6.240 -0.4062 -0.2949  0.8356
  505MOL0     O68064   3.061   6.157   6.112  0.2163  0.5371 -0.3651
  505MOL0     C68065   2.943   6.087   6.102 -0.0171 -0.2486 -0.2161
  505MOL0     C68066   2.939   5.995   6.003 -0.8487  0.1091  0.1066
  505MOL0     C68067   2.824   5.916   5.978 -0.2781  0.0611  0.9948
  505MOL0     C68068   2.833   5.838   5.856 -0.1299  0.3273  0.4997
  505MOL0     C68069   2.707   5.948   6.050 -0.5159  0.2514  0.2123
  505MOL0     C68070   2.564   5.883   6.037 -0.1382  1.2089 -0.2756
  505MOL0     O68071   2.472   5.923   6.131 -0.1715  0.3902  0.1437
  505MOL0     C68072   2.339   5.896   6.121  0.9221  0.9773 -0.2917
  505MOL0     C68073   2.281   5.827   6.229 -0.0081 -1.0851 -0.2903
  505MOL0     C68074   2.146   5.788   6.221  0.2338 -0.4052  0.9926
  505MOL0     C68075   2.061   5.826   6.119  0.0468  1.1319 -0.0089
  505MOL0     O68076   1.928   5.793   6.139 -0.1536 -0.1804  0.7811
  505MOL0     C68077   1.823   5.836   6.055  0.2729 -0.4596 -0.3917
  505MOL0     C68078   1.693   5.792   6.115  0.0681  0.4348 -0.6564
  505MOL0     C68079   1.669   5.641   6.097  0.1600  0.2004 -0.0026
  505MOL0     C68080   1.531   5.610   6.154  0.2944  0.2165  1.2928
  505MOL0     C68081   1.488   5.462   6.138  0.0902  0.5958 -0.2347
  505MOL0     C68082   1.357   5.428   6.208  0.1459 -0.0702 -0.2673
  505MOL0     C68083   1.235   5.457   6.116  0.3893 -0.9623 -0.1020
  505MOL0     C68084   1.104   5.431   6.193 -0.4085 -0.4353  0.7330
  505MOL0    Cl68085   1.119   5.533   6.332  0.3479 -0.0414  0.4074
  505MOL0     C68086   2.117   5.903   6.023 -0.3040 -0.0303  0.1333
  505MOL0     C68087   2.252   5.934   6.017 -0.3494  0.6728  0.1310
  505MOL0     O68088   2.547   5.805   5.947  0.2985 -0.0598  0.6451
  505MOL0     C68089   2.712   6.042   6.146 -0.1996 -0.0993 -0.6036
  505MOL0     C68090   2.831   6.110   6.178  0.3927  0.0421 -0.4092
  505MOL0     N68091   3.513   6.335   6.574  0.4124  0.0275  0.1091
  505MOL0     N68092   3.550   6.383   6.677  0.3868  0.5502 -0.7687
  505MOL0     C68093   4.366   7.431   6.948  0.0136  0.3016 -0.4313
  505MOL0     C68094   4.485   7.492   6.968 -0.2951  0.3330 -0.5624
  505MOL0     C68095   4.871   7.570   7.091  0.4302  0.0302  0.4029
  505MOL0     C68096   4.900   7.706   7.098 -0.9947 -0.2720 -0.5289
  505MOL0     C68097   5.034   7.756   7.069 -0.7849 -0.5552 -0.3631
  505MOL0     C68098   5.132   7.660   7.023  1.1219 -1.2210  0.2648
  505MOL0     O68099   5.255   7.708   6.980  0.4031  1.1869  0.6478
  505MOL0     C68100   5.369   7.617   6.972 -0.1546  0.4612  0.2567
  505MOL0     C68101   5.495   7.707   6.962  0.7197  0.2200 -0.2168
  505MOL0     C68102   5.516   7.810   6.850  0.3563  0.5833  0.1430
  505MOL0     C68103   5.672   7.825   6.830  0.6476 -0.2487 -0.1150
  505MOL0     C68104   5.730   7.710   6.758 -0.0104 -0.0752 -0.8301
  505MOL0     C68105   5.781   7.629   6.686 -0.7724 -0.7219 -0.1859
  505MOL0     C68106   5.096   7.532   7.017  0.1616  0.0441 -0.9474
  505MOL0     C68107   4.972   7.480   7.046 -0.1042 -0.2935  0.1380
  505MOL0     H68108   4.418   7.630   7.273  2.3826 -3.6870  2.2716
  505MOL0     H68109   4.209   7.504   7.231 -0.8377  1.4289 -1.2320
  505MOL0     H68110   4.164   7.247   6.840  0.2571 -2.0196  0.0293
  505MOL0     H68111   4.236   7.176   6.984  0.8511 -1.5907 -3.3965
  505MOL0     H68112   3.996   7.168   7.075  1.6044 -0.2130 -0.3453
  505MOL0     H68113   3.944   7.265   6.937 -0.5252  0.1178 -1.1817
  505MOL0     H68114   3.981   7.101   6.780 -2.1048 -0.7440 -0.7411
  505MOL0     H68115   4.080   6.997   6.889 -1.4594 -2.3069  0.7466
  505MOL0     H68116   3.898   6.910   7.005 -3.7007 -1.2994  0.2338
  505MOL0     H68117   3.802   7.055   6.962  2.0792  0.0321  2.4686
  505MOL0     H68118   3.760   6.960   6.748 -2.8984 -2.1025  0.1764
  505MOL0     H68119   3.891   6.839   6.773  1.2566  1.1025 -0.1157
  505MOL0     H68120   3.752   6.725   6.925 -0.3506  0.4160  0.6508
  505MOL0     H68121   3.622   6.856   6.908 -0.1053  0.5961 -0.1510
  505MOL0     H68122   3.572   6.758   6.684 -2.5774 -1.3416  0.9114
  505MOL0     H68123   3.717   6.652   6.684  1.5583 -1.1543  2.7653
  505MOL0     H68124   3.457   6.632   6.867 -0.3024  0.1974 -0.9249
  505MOL0     H68125   3.600   6.530   6.878 -0.0997 -0.9455 -0.4891
  505MOL0     H68126   3.371   6.632   6.564  1.2699  1.4048  0.9523
  505MOL0     H68127   3.304   6.496   6.350  0.9813  2.1173  0.6217
  505MOL0     H68128   3.464   6.432   6.315 -1.5110  2.2354 -1.2099
  505MOL0     H68129   3.218   6.299   6.437 -2.0963 -1.1732 -1.1040
  505MOL0     H68130   3.369   6.204   6.392  3.8379  3.5056  1.3712
  505MOL0     H68131   3.315   6.220   6.161 -1.4495  2.5901 -2.7576
  505MOL0     H68132   3.206   6.355   6.186 -0.5949 -0.5803  0.3534
  505MOL0     H68133   3.057   6.189   6.324  2.4354  0.8391  2.5812
  505MOL0     H68134   3.164   6.061   6.266  2.2064 -0.0624 -2.3177
  505MOL0     H68135   3.026   5.972   5.944  0.3050  1.2583  1.2954
  505MOL0     H68136   2.806   5.734   5.879  0.4760  0.3622  1.4817
  505MOL0     H68137   2.766   5.878   5.780 -0.5960  0.6575  1.0761
  505MOL0     H68138   2.934   5.825   5.814  1.2143  0.0455  3.5204
  505MOL0     H68139   2.340   5.810   6.318  1.2924 -0.5656 -1.0365
  505MOL0     H68140   2.115   5.729   6.307  0.6970 -1.0917  0.6953
  505MOL0     H68141   1.811   5.944   6.057 -0.6025 -0.5268 -1.5941
  505MOL0     H68142   1.838   5.797   5.954  0.2069 -3.6905  0.7381
  505MOL0     H68143   1.680   5.814   6.221  0.5527  1.4716 -0.7982
  505MOL0     H68144   1.613   5.842   6.060 -0.0214  0.9208 -0.0905
  505MOL0     H68145   1.751   5.591   6.149  1.9018  1.7797 -1.1051
  505MOL0     H68146   1.664   5.619   5.990 -1.7955  0.6014 -0.0362
  505MOL0     H68147   1.524   5.630   6.262 -2.0918  0.0226  1.2236
  505MOL0     H68148   1.452   5.669   6.105 -0.4301 -0.4946  1.5891
  505MOL0     H68149   1.565   5.396   6.180 -0.6700  0.0111  0.2600
  505MOL0     H68150   1.485   5.429   6.034 -0.9990  0.0207 -0.0354
  505MOL0     H68151   1.347   5.321   6.228  0.6591  0.0958  0.9597
  505MOL0     H68152   1.353   5.471   6.308 -3.5359 -1.2853  0.2503
  505MOL0     H68153   1.231   5.394   6.027 -1.0327 -0.4670 -0.4218
  505MOL0     H68154   1.246   5.560   6.079 -2.6302  0.4648  2.5264
  505MOL0     H68155   1.094   5.324   6.212 -2.0485 -0.4295  0.0476
  505MOL0     H68156   1.020   5.469   6.133 -1.8321 -0.2033  2.7611
  505MOL0     H68157   2.049   5.942   5.948 -1.6797  0.7424  1.7270
  505MOL0     H68158   2.296   5.997   5.941 -3.4247  4.4239  1.1697
  505MOL0     H68159   2.622   6.071   6.201 -1.4435 -0.8306 -2.1762
  505MOL0     H68160   2.831   6.186   6.255  1.4530  0.5233 -0.8619
  505MOL0     H68161   4.356   7.383   6.851  2.7658 -0.9072 -0.2041
  505MOL0     H68162   4.567   7.484   6.897 -1.8709  2.1423 -2.7363
  505MOL0     H68163   4.826   7.784   7.110 -1.0472 -0.1809 -1.3996
  505MOL0     H68164   5.051   7.863   7.072  0.5933 -0.7038 -1.7558
  505MOL0     H68165   5.370   7.548   7.057 -1.7354  4.4417  3.8429
  505MOL0     H68166   5.361   7.558   6.880  3.2667  0.1669  0.0142
  505MOL0     H68167   5.573   7.631   6.958 -1.2566 -2.0009  0.9465
  505MOL0     H68168   5.499   7.762   7.056  0.7314 -0.9502  0.4927
  505MOL0     H68169   5.477   7.909   6.871  0.1709  1.0156 -2.0129
  505MOL0     H68170   5.475   7.767   6.758  0.4610  2.2370 -0.7148
  505MOL0     H68171   5.722   7.844   6.925 -1.6086  0.5502  0.9888
  505MOL0     H68172   5.679   7.916   6.770 -1.8088 -0.4844 -0.8895
  505MOL0     H68173   5.834   7.563   6.620  2.6500  2.3291 -0.7872
  505MOL0     H68174   5.172   7.464   6.979  2.6467  1.9051  0.3910
  505MOL0     H68175   4.963   7.373   7.030  1.1582 -0.0287 -3.3202
  506MOL0     O68176   7.871   7.265   9.535  0.2307  1.1135 -0.6134
  506MOL0     C68177   7.798   7.169   9.532  0.9832 -1.1634  0.2009
  506MOL0     O68178   7.839   7.038   9.552  0.5310  0.0716  0.9459
  506MOL0     C68179   7.971   7.012   9.580  1.1867  0.1192 -0.4429
  506MOL0     C68180   8.055   6.938   9.496  0.4592  0.0351 -0.3248
  506MOL0     C68181   8.193   6.909   9.530  0.5360 -0.0135  0.1592
  506MOL0     C68182   8.246   6.959   9.653  0.3502  0.2958  0.6708
  506MOL0     O68183   8.381   6.941   9.689 -0.0988 -0.1978 -0.0930
  506MOL0     C68184   8.477   6.932   9.583 -0.0206  1.2518  0.0601
  506MOL0     C68185   8.607   6.941   9.659 -0.2210  0.4653  0.6068
  506MOL0     C68186   8.743   6.921   9.585 -0.2077 -0.0373 -0.1739
  506MOL0     C68187   8.861   6.967   9.681 -0.4391  0.1890  0.9391
  506MOL0     C68188   8.991   6.950   9.611 -1.1400  0.1627 -0.3195
  506MOL0     C68189   9.105   6.986   9.701  0.1931  0.3384 -0.5686
  506MOL0     C68190   9.239   6.958   9.644 -0.0669 -0.4353  0.5035
  506MOL0     C68191   9.343   7.027   9.739 -0.3623 -0.0257  0.6536
  506MOL0     N68192   9.347   7.171   9.726 -0.0658  0.3528 -0.2776
  506MOL0     C68193   9.398   7.249   9.620 -0.3668  0.5309 -1.1806
  506MOL0     C68194   9.379   7.375   9.669  1.1323 -0.4920 -1.0386
  506MOL0     C68195   9.401   7.509   9.591  0.2493  0.6225 -0.1166
  506MOL0     C68196   9.530   7.579   9.654 -0.1885 -0.2463  0.0643
  506MOL0     C68197   9.589   7.692   9.551  0.0768  0.3553 -0.2971
  506MOL0     C68198   9.716   7.764   9.596 -0.2531  0.3377  0.3354
  506MOL0     O68199   9.821   7.669   9.615 -0.5182  0.2112  0.2276
  506MOL0     C68200   9.947   7.706   9.575  0.8297 -0.3296  0.0159
  506MOL0     C68201  10.030   7.770   9.659 -0.7287  0.0188 -0.1836
  506MOL0     C68202  10.164   7.792   9.627  0.3969 -0.2550  0.1438
  506MOL0     C68203  10.252   7.851   9.738 -0.6747 -0.7423 -1.6927
  506MOL0     C68204  10.214   7.759   9.497  0.0015  0.3398 -0.1730
  506MOL0     C68205  10.347   7.792   9.443  0.4258 -0.3715  0.8150
  506MOL0     O68206  10.399   7.911   9.467  0.2498  0.2976 -0.4284
  506MOL0     C68207  10.497   7.957   9.389 -0.9905  0.9720  0.3741
  506MOL0     C68208  10.627   7.935   9.437  0.6144  1.2117  0.0761
  506MOL0     C68209  10.737   7.976   9.359  0.7023  0.3226 -0.8612
  506MOL0     C68210  10.714   8.045   9.232  0.4863  1.0416 -1.3397
  506MOL0     O68211  10.833   8.073   9.155  0.0015 -0.2388 -0.5245
  506MOL0     C68212  10.828   8.142   9.029 -0.1941  0.5676 -0.2910
  506MOL0     C68213  10.948   8.106   8.958 -0.6875  0.7941  0.6904
  506MOL0     C68214  11.077   8.157   9.020  0.0747  0.8016 -0.8880
  506MOL0     C68215  11.198   8.156   8.938 -0.8273 -0.2978 -0.2025
  506MOL0     C68216  11.317   8.212   9.007 -0.0999  0.2059  0.3622
  506MOL0     C68217  11.439   8.220   8.918  0.7039 -0.9956  0.2091
  506MOL0     C68218  11.483   8.085   8.854 -0.2462  0.4218 -0.4297
  506MOL0     C68219  11.615   8.120   8.780  0.5042  0.3621  0.7323
  506MOL0    Cl68220  11.688   7.957   8.724  0.1388  0.1711  0.1562
  506MOL0     C68221  10.590   8.091   9.201 -0.3124  0.1970  1.3086
  506MOL0     C68222  10.481   8.046   9.278  0.9413  0.3158  0.3537
  506MOL0     O68223  10.401   7.706   9.371 -0.2945 -0.4523  0.2431
  506MOL0     C68224  10.120   7.700   9.403  0.4006  0.0154 -0.8033
  506MOL0     C68225   9.986   7.667   9.448 -0.9738  0.2719 -0.2463
  506MOL0     N68226   9.324   7.371   9.798 -0.1498 -0.2822  0.2721
  506MOL0     N68227   9.305   7.253   9.832 -0.4840 -0.0098  0.5463
  506MOL0     C68228   8.158   7.033   9.727  0.4087 -0.2089  0.9093
  506MOL0     C68229   8.020   7.052   9.705 -0.7473 -0.2321  0.0188
  506MOL0     C68230   7.666   7.202   9.487  0.3878 -0.0990 -0.2562
  506MOL0     C68231   7.568   7.097   9.492  0.3431  0.1344 -0.3056
  506MOL0     C68232   7.447   7.116   9.439  1.1484 -0.4869  0.1454
  506MOL0     C68233   7.400   7.234   9.375  0.2416 -0.4652 -0.0732
  506MOL0     O68234   7.276   7.246   9.316  0.3294  0.2901 -0.4379
  506MOL0     C68235   7.182   7.139   9.318  0.4672  0.4724 -0.7862
  506MOL0     C68236   7.054   7.178   9.243 -0.4308  0.2524 -0.8785
  506MOL0     C68237   6.941   7.080   9.275  0.3670 -0.0248  0.1601
  506MOL0     C68238   6.805   7.122   9.207 -0.2815 -1.3875 -0.0884
  506MOL0     C68239   6.693   7.064   9.274 -0.0338  0.8258  0.0764
  506MOL0     C68240   6.605   7.015   9.346 -0.5240  0.0145  0.0547
  506MOL0     C68241   7.488   7.340   9.376  0.0406 -0.8416 -0.2746
  506MOL0     C68242   7.620   7.321   9.419  0.9172 -0.1449  0.2467
  506MOL0     H68243   8.021   6.891   9.404  1.6241  0.4541 -0.9872
  506MOL0     H68244   8.252   6.851   9.461 -0.9372 -0.4691 -0.7567
  506MOL0     H68245   8.479   6.829   9.545  2.6966  0.8696  1.0730
  506MOL0     H68246   8.471   7.012   9.509  1.1273  1.0719 -0.2390
  506MOL0     H68247   8.608   7.044   9.698  1.3249  0.2987  1.0426
  506MOL0     H68248   8.611   6.876   9.746  3.9135 -0.4119 -0.0300
  506MOL0     H68249   8.739   6.815   9.557  1.2426  0.1913 -1.3419
  506MOL0     H68250   8.749   6.972   9.488  2.1411 -2.8903 -1.6890
  506MOL0     H68251   8.854   7.072   9.713 -2.3057 -0.5624  3.2661
  506MOL0     H68252   8.856   6.910   9.774 -0.3716 -1.6866 -0.1550
  506MOL0     H68253   9.006   6.848   9.574 -0.3927 -0.7001  2.1872
  506MOL0     H68254   9.006   7.020   9.528  0.4137 -0.1260 -0.3141
  506MOL0     H68255   9.101   7.088   9.739 -1.2091 -0.1428  0.6941
  506MOL0     H68256   9.089   6.921   9.788 -0.9900 -0.9718 -1.6990
  506MOL0     H68257   9.259   6.850   9.645 -0.1398 -0.4515  1.8696
  506MOL0     H68258   9.255   7.004   9.546 -1.1418  1.2483  1.0771
  506MOL0     H68259   9.446   6.994   9.725 -0.9048 -2.8382  2.5501
  506MOL0     H68260   9.311   6.994   9.838  1.7081 -3.3355  0.3685
  506MOL0     H68261   9.433   7.213   9.524 -0.8240 -2.0760 -0.4616
  506MOL0     H68262   9.408   7.489   9.484 -3.3957  1.2066 -0.5909
  506MOL0     H68263   9.317   7.578   9.583 -0.5843 -0.5558 -2.0548
  506MOL0     H68264   9.614   7.517   9.686 -1.5644 -1.5993  1.1662
  506MOL0     H68265   9.491   7.629   9.743  0.2982 -1.9551  1.2911
  506MOL0     H68266   9.525   7.780   9.542  1.0279  1.3495  2.0482
  506MOL0     H68267   9.605   7.655   9.449  2.4730 -1.5338  0.6515
  506MOL0     H68268   9.698   7.820   9.688 -2.0487  1.3610 -0.5701
  506MOL0     H68269   9.760   7.838   9.528 -0.2568 -0.7202 -0.8574
  506MOL0     H68270   9.988   7.797   9.755 -1.2695 -0.1255 -0.3770
  506MOL0     H68271  10.243   7.785   9.825  0.2090  0.1312 -0.9096
  506MOL0     H68272  10.357   7.855   9.707  0.1719  1.5186  1.0622
  506MOL0     H68273  10.212   7.952   9.754 -0.8753 -1.0872  0.2003
  506MOL0     H68274  10.635   7.885   9.533  1.6700  1.1058 -0.0559
  506MOL0     H68275  10.832   7.972   9.411 -0.0345  0.5471  0.5715
  506MOL0     H68276  10.738   8.109   8.976  0.1088 -3.8551  1.5401
  506MOL0     H68277  10.843   8.249   9.046  0.6930  0.2453  1.0771
  506MOL0     H68278  10.961   7.998   8.948 -1.3731  0.6391  1.3919
  506MOL0     H68279  10.941   8.160   8.864 -2.2925  1.5568  1.2052
  506MOL0     H68280  11.090   8.099   9.112 -0.9303  1.8363 -0.0791
  506MOL0     H68281  11.054   8.259   9.052  2.6261  1.7063 -1.6723
  506MOL0     H68282  11.213   8.049   8.918 -2.3177 -0.7239  0.7939
  506MOL0     H68283  11.176   8.218   8.850 -1.4816 -0.3519 -0.0824
  506MOL0     H68284  11.340   8.158   9.099  1.8042  1.8059  0.8876
  506MOL0     H68285  11.284   8.310   9.042 -2.1344  0.7625 -2.7190
  506MOL0     H68286  11.413   8.283   8.832 -1.0884 -2.7484 -0.6037
  506MOL0     H68287  11.520   8.268   8.975 -2.4122  2.9140  1.8793
  506MOL0     H68288  11.402   8.044   8.794 -0.7370 -0.2049  0.6342
  506MOL0     H68289  11.505   8.008   8.929  1.0066 -2.5330 -3.5768
  506MOL0     H68290  11.687   8.172   8.844  1.4054 -0.0085  0.0417
  506MOL0     H68291  11.594   8.189   8.697 -1.0405 -0.9632 -0.0394
  506MOL0     H68292  10.566   8.145   9.110 -5.1906  0.0516  2.2619
  506MOL0     H68293  10.386   8.090   9.249  1.1377  1.0625  0.8067
  506MOL0     H68294  10.135   7.698   9.295 -1.9660  0.3972 -1.1949
  506MOL0     H68295   9.912   7.629   9.379 -0.3069 -0.7153 -0.4323
  506MOL0     H68296   8.188   7.077   9.822 -3.8615 -1.6384  3.1992
  506MOL0     H68297   7.962   7.098   9.785 -2.6321  0.7377 -1.8327
  506MOL0     H68298   7.598   7.002   9.534  0.3314 -0.0917 -0.8035
  506MOL0     H68299   7.378   7.031   9.444 -1.2297  1.2662 -0.8563
  506MOL0     H68300   7.236   7.051   9.282  1.6807  0.4571  0.9326
  506MOL0     H68301   7.151   7.126   9.422  1.8034  1.3892 -0.2360
  506MOL0     H68302   7.070   7.186   9.135  0.2574 -2.6221 -1.0537
  506MOL0     H68303   7.028   7.280   9.274 -3.1075 -0.9636  1.2939
  506MOL0     H68304   6.929   7.066   9.383 -1.0091  2.2555  0.3635
  506MOL0     H68305   6.970   6.990   9.218  1.1863  1.2952 -1.5997
  506MOL0     H68306   6.800   7.089   9.103 -0.8269 -0.6524 -0.2978
  506MOL0     H68307   6.798   7.231   9.214 -0.0907 -1.4246  0.7316
  506MOL0     H68308   6.523   6.990   9.410 -2.6668  2.2787 -1.6042
  506MOL0     H68309   7.457   7.435   9.334 -0.8133 -2.0042 -2.4243
  506MOL0     H68310   7.692   7.400   9.400  0.5614  0.3696  0.9733
  507MOL0     O68311   3.612  11.012   8.547 -0.3263 -0.7097  0.0121
  507MOL0     C68312   3.640  10.900   8.571  0.5717  0.6828 -0.4238
  507MOL0     O68313   3.569  10.785   8.534  0.3790 -0.2684  0.3788
  507MOL0     C68314   3.452  10.801   8.457 -0.3740  0.5553  0.1401
  507MOL0     C68315   3.441  10.876   8.347 -0.2829 -0.6769  0.5560
  507MOL0     C68316   3.327  10.872   8.270  0.0566 -0.5158  0.0587
  507MOL0     C68317   3.214  10.798   8.306 -0.3130  0.2783 -0.7480
  507MOL0     O68318   3.112  10.814   8.217 -0.2711  0.0490  0.3581
  507MOL0     C68319   2.991  10.737   8.224 -0.2816  0.0092 -0.6367
  507MOL0     C68320   2.911  10.765   8.096  0.0349 -0.0963  0.3870
  507MOL0     C68321   2.762  10.725   8.101  1.1836 -0.2011  0.2471
  507MOL0     C68322   2.736  10.571   8.124  0.8765 -0.2212  0.5553
  507MOL0     C68323   2.595  10.518   8.087 -0.0458  0.8532 -0.1180
  507MOL0     C68324   2.487  10.576   8.178  0.0734  0.0613  0.4124
  507MOL0     C68325   2.361  10.485   8.160  0.0703 -0.6676  0.1656
  507MOL0     C68326   2.312  10.463   8.019 -0.4394  0.6330  0.1729
  507MOL0     N68327   2.285  10.591   7.948  0.2675  0.1909 -0.8122
  507MOL0     C68328   2.179  10.668   7.975 -0.3692  0.8795 -0.0254
  507MOL0     C68329   2.191  10.780   7.897 -0.0405  0.6268 -0.8184
  507MOL0     C68330   2.095  10.897   7.888  0.7099  0.1685  0.1697
  507MOL0     C68331   1.956  10.843   7.848 -1.0761  0.1301  0.6380
  507MOL0     C68332   1.875  10.962   7.814 -0.0053  0.1483  0.2805
  507MOL0     C68333   1.723  10.948   7.785  0.6083 -1.0194  0.3641
  507MOL0     O68334   1.674  11.070   7.718 -0.5655  0.1403  0.4568
  507MOL0     C68335   1.570  11.039   7.621  0.1932  0.4192  0.0949
  507MOL0     C68336   1.541  11.154   7.545 -0.8150 -0.0293  0.0526
  507MOL0     C68337   1.450  11.159   7.446  0.2513  0.4104 -0.0380
  507MOL0     C68338   1.429  11.291   7.372 -0.7188 -0.3037  0.8826
  507MOL0     C68339   1.370  11.055   7.420  0.4050  0.3215  0.4429
  507MOL0     C68340   1.248  11.051   7.333 -0.0885  0.1711 -0.3975
  507MOL0     O68341   1.214  10.926   7.281  0.1075 -0.5797  0.4871
  507MOL0     C68342   1.103  10.907   7.197  0.0636  0.0445  0.4758
  507MOL0     C68343   1.031  10.792   7.212  0.2420 -0.5862 -0.8628
  507MOL0     C68344   0.934  10.755   7.124  0.2129 -0.0832 -0.6131
  507MOL0     C68345   0.912  10.826   7.010  1.0124  1.3482  0.0390
  507MOL0     O68346   0.807  10.801   6.926 -0.4355 -0.2572  0.3445
  507MOL0     C68347   0.692  10.752   6.991 -0.9074 -0.3717  0.2512
  507MOL0     C68348   0.592  10.743   6.880 -0.0526 -0.0106 -0.7814
  507MOL0     C68349   0.448  10.754   6.933  0.0430  0.4111  0.1226
  507MOL0     C68350   0.345  10.697   6.842 -0.5196  0.5466  0.6534
  507MOL0     C68351   0.196  10.695   6.877  0.0871 -0.5157  0.1754
  507MOL0     C68352   0.155  10.588   6.984 -0.2348 -0.1202 -0.3550
  507MOL0     C68353   0.069  10.668   7.097 -0.1478  0.4003 -0.7584
  507MOL0     C68354   0.038  10.575   7.214  1.1085  0.3671  0.0191
  507MOL0    Cl68355  -0.047  10.681   7.335  0.5319  0.0781 -0.1349
  507MOL0     C68356   0.980  10.943   6.994 -0.7462  0.7032  0.2285
  507MOL0     C68357   1.078  10.987   7.082  0.9125  0.7828 -0.5091
  507MOL0     O68358   1.179  11.154   7.314  0.1390  0.4098  0.9720
  507MOL0     C68359   1.398  10.942   7.492 -0.4079  0.0135 -0.2474
  507MOL0     C68360   1.493  10.924   7.590  0.0327  0.3086  0.4333
  507MOL0     N68361   2.309  10.761   7.826  0.2775 -0.8778  0.1073
  507MOL0     N68362   2.366  10.643   7.855  0.5543  0.3483 -0.0690
  507MOL0     C68363   3.227  10.730   8.431  0.1603  0.2673  0.6370
  507MOL0     C68364   3.343  10.734   8.507 -0.2662 -0.0115  1.0089
  507MOL0     C68365   3.770  10.879   8.646  0.4349  0.1105  0.6482
  507MOL0     C68366   3.791  10.750   8.700  0.8402  0.5284  0.1994
  507MOL0     C68367   3.908  10.709   8.767 -0.2863 -0.1902 -0.6865
  507MOL0     C68368   3.999  10.810   8.794  0.5269 -0.3954  0.1630
  507MOL0     O68369   4.114  10.760   8.848  0.4115 -0.1112  0.1958
  507MOL0     C68370   4.224  10.845   8.858 -1.1060  0.3475  0.2562
  507MOL0     C68371   4.349  10.773   8.935  0.1347  0.7450 -0.4555
  507MOL0     C68372   4.491  10.794   8.885  1.0743  0.3463 -0.1437
  507MOL0     C68373   4.555  10.933   8.918  0.2416  0.4312  0.4110
  507MOL0     C68374   4.700  10.943   8.880 -1.1381 -0.7373  0.2399
  507MOL0     C68375   4.818  10.956   8.845 -0.0061  0.4162 -0.5740
  507MOL0     C68376   3.977  10.943   8.751 -0.5161  0.5466  0.1852
  507MOL0     C68377   3.857  10.977   8.683 -0.0579  0.6632 -0.5899
  507MOL0     H68378   3.529  10.929   8.312 -0.7517 -0.5380 -0.4490
  507MOL0     H68379   3.315  10.926   8.176 -0.9857 -1.4311 -0.3621
  507MOL0     H68380   3.011  10.630   8.226 -0.5062 -0.0924 -2.1597
  507MOL0     H68381   2.933  10.769   8.311 -1.4332 -3.5561  0.0786
  507MOL0     H68382   2.901  10.874   8.093 -1.5316 -0.2290 -2.3531
  507MOL0     H68383   2.960  10.729   8.006 -1.9975  0.4577 -1.0043
  507MOL0     H68384   2.710  10.772   8.186 -0.5508 -0.6268 -0.5342
  507MOL0     H68385   2.720  10.757   8.006  0.1493 -1.0134  0.4134
  507MOL0     H68386   2.808  10.518   8.061 -0.0991  0.2120 -0.9844
  507MOL0     H68387   2.766  10.548   8.227  1.1805  0.5903  0.6538
  507MOL0     H68388   2.580  10.539   7.981 -1.5567 -0.4364 -0.2043
  507MOL0     H68389   2.603  10.409   8.096  0.3553  0.6014 -2.9027
  507MOL0     H68390   2.520  10.583   8.282 -0.9321  1.8564  0.6473
  507MOL0     H68391   2.456  10.675   8.142  0.9510  0.0352 -0.4807
  507MOL0     H68392   2.372  10.390   8.213 -1.0512 -0.7910  0.2119
  507MOL0     H68393   2.283  10.541   8.213 -0.0234  1.5679 -2.1306
  507MOL0     H68394   2.222  10.401   8.009 -0.2213  0.1065  1.2768
  507MOL0     H68395   2.391  10.411   7.964 -0.1217  3.7548 -2.6409
  507MOL0     H68396   2.103  10.654   8.051 -0.0208  1.9559  0.5411
  507MOL0     H68397   2.088  10.945   7.986  0.4398  0.6766 -0.0922
  507MOL0     H68398   2.130  10.970   7.815 -0.5861  2.2103  1.4830
  507MOL0     H68399   1.908  10.787   7.929  1.5505 -2.5036  0.5346
  507MOL0     H68400   1.955  10.785   7.755 -0.3290 -0.0765  0.7506
  507MOL0     H68401   1.920  10.997   7.721 -0.4578  1.6723  0.6061
  507MOL0     H68402   1.892  11.042   7.886 -2.8254  0.1726  1.0154
  507MOL0     H68403   1.656  10.908   7.861  0.0668 -0.6538  0.0841
  507MOL0     H68404   1.716  10.873   7.706 -0.5240  1.0429 -1.6029
  507MOL0     H68405   1.597  11.242   7.575  0.9946 -1.3038  0.5538
  507MOL0     H68406   1.439  11.273   7.265 -0.3438  0.3463  0.8007
  507MOL0     H68407   1.327  11.322   7.395 -2.3518 -2.8552 -2.1356
  507MOL0     H68408   1.502  11.372   7.376  0.2121 -0.7516 -2.9551
  507MOL0     H68409   1.042  10.707   7.279  0.8375 -0.9412 -1.3997
  507MOL0     H68410   0.876  10.669   7.156 -0.2674  0.9779  1.6252
  507MOL0     H68411   0.710  10.659   7.046 -1.5115  0.7712  2.4622
  507MOL0     H68412   0.660  10.831   7.058 -0.4782  0.8981 -0.9883
  507MOL0     H68413   0.593  10.838   6.825  0.1643  1.8869  2.2761
  507MOL0     H68414   0.596  10.653   6.817 -3.1594 -0.5708 -0.2973
  507MOL0     H68415   0.423  10.860   6.945  0.7065  0.3811  2.1805
  507MOL0     H68416   0.441  10.712   7.034  1.0870 -1.2232 -0.4489
  507MOL0     H68417   0.356  10.733   6.739 -1.7482  0.5865  0.5306
  507MOL0     H68418   0.378  10.593   6.827  2.8413  1.6438 -0.4248
  507MOL0     H68419   0.140  10.685   6.784  0.5005  0.7591 -0.2309
  507MOL0     H68420   0.174  10.795   6.915  0.6668 -0.0197 -0.7487
  507MOL0     H68421   0.102  10.496   6.957  1.6139 -2.5265  3.3640
  507MOL0     H68422   0.249  10.562   7.032  0.5226  3.8317  0.6557
  507MOL0     H68423  -0.024  10.706   7.052  1.9074  2.1132 -3.9220
  507MOL0     H68424   0.133  10.752   7.124  0.3816  0.3265 -1.7281
  507MOL0     H68425   0.128  10.534   7.261  1.7772 -1.4788 -2.6566
  507MOL0     H68426  -0.020  10.487   7.185  2.5779 -0.3484 -0.8643
  507MOL0     H68427   0.956  10.995   6.902  1.7258  1.2450 -0.1864
  507MOL0     H68428   1.123  11.086   7.075 -1.2065  2.0446  1.7136
  507MOL0     H68429   1.337  10.854   7.474  0.8979 -0.9595 -0.0406
  507MOL0     H68430   1.491  10.838   7.657  0.6172 -0.7107 -0.8077
  507MOL0     H68431   3.138  10.696   8.481  1.4733  0.7067  3.4623
  507MOL0     H68432   3.347  10.696   8.608 -1.1476 -0.6832  0.8025
  507MOL0     H68433   3.727  10.670   8.662  0.3463 -0.5220  2.9995
  507MOL0     H68434   3.928  10.607   8.797 -4.0264 -0.2012  2.6406
  507MOL0     H68435   4.253  10.871   8.756  2.3041 -1.1853  0.7183
  507MOL0     H68436   4.202  10.945   8.896  0.9486  3.1265 -4.8218
  507MOL0     H68437   4.328  10.665   8.942  0.0579  0.8247  1.0271
  507MOL0     H68438   4.341  10.801   9.041  1.4651 -1.0779  0.1981
  507MOL0     H68439   4.489  10.775   8.777 -1.3084 -1.8623  0.2065
  507MOL0     H68440   4.544  10.712   8.934 -1.4824 -3.3538 -3.0083
  507MOL0     H68441   4.531  10.961   9.021 -0.8039 -1.3694  0.6906
  507MOL0     H68442   4.498  11.012   8.868  0.6368  0.4025 -0.0966
  507MOL0     H68443   4.916  10.958   8.801  0.7395 -0.1685  0.9566
  507MOL0     H68444   4.048  11.022   8.776  0.8637 -0.9311  1.1334
  507MOL0     H68445   3.831  11.081   8.673 -1.4854  0.5585  1.4632
  508MOL0     O68446   0.570   1.455   7.208  0.4988  0.2462  0.6584
  508MOL0     C68447   0.607   1.561   7.254 -0.9433 -0.6501 -0.0352
  508MOL0     O68448   0.566   1.694   7.223 -0.0197  0.0448 -0.3430
  508MOL0     C68449   0.459   1.689   7.133 -1.3219 -0.4994 -0.8661
  508MOL0     C68450   0.333   1.720   7.177 -0.2711  0.1275 -1.0552
  508MOL0     C68451   0.226   1.721   7.084 -1.0374 -0.3095 -0.0346
  508MOL0     C68452   0.246   1.703   6.945  0.3709 -0.0741 -0.9969
  508MOL0     O68453   0.141   1.709   6.854 -0.6893 -0.3034  0.3915
  508MOL0     C68454   0.166   1.749   6.714 -0.1973  0.0973  0.2622
  508MOL0     C68455   0.030   1.809   6.672  0.0990  0.2764 -0.7557
  508MOL0     C68456   0.050   1.872   6.539  0.0942  0.5238  0.5712
  508MOL0     C68457  -0.082   1.952   6.506 -0.1543  0.7383  0.0561
  508MOL0     C68458  -0.217   1.885   6.533 -0.0614  0.0066 -0.5179
  508MOL0     C68459  -0.338   1.957   6.469  0.0160 -0.2017 -0.2837
  508MOL0     C68460  -0.482   1.883   6.521  0.6241 -0.5025  0.3872
  508MOL0     C68461  -0.499   1.737   6.485  0.4624 -0.5507  0.3298
  508MOL0     N68462  -0.632   1.688   6.532  0.7223 -0.4019  0.1953
  508MOL0     C68463  -0.651   1.592   6.634  0.0913  0.4139  0.6613
  508MOL0     C68464  -0.786   1.586   6.654  0.7637 -0.4712  0.6856
  508MOL0     C68465  -0.862   1.489   6.730  0.4978 -0.1537 -0.8151
  508MOL0     C68466  -0.904   1.568   6.860 -1.4973  0.0083  0.1542
  508MOL0     C68467  -0.990   1.471   6.932 -0.0081 -0.0559 -0.8061
  508MOL0     C68468  -1.135   1.515   6.905 -0.6666 -1.0844  0.6620
  508MOL0     O68469  -1.155   1.627   6.989 -0.3599 -0.3274 -0.1914
  508MOL0     C68470  -1.274   1.695   6.968 -0.6922  0.2074 -0.1485
  508MOL0     C68471  -1.278   1.828   6.933  0.3578 -0.0127  0.3707
  508MOL0     C68472  -1.390   1.892   6.902  0.2129 -0.9517  0.4253
  508MOL0     C68473  -1.384   2.044   6.866 -0.0777  0.3597 -0.5595
  508MOL0     C68474  -1.513   1.824   6.912 -0.4168 -0.3572  0.3625
  508MOL0     C68475  -1.649   1.887   6.877  0.4008 -0.9612  1.5603
  508MOL0     O68476  -1.748   1.794   6.883  0.1682  0.1833  0.3891
  508MOL0     C68477  -1.879   1.826   6.845 -1.2709 -0.8560  0.2492
  508MOL0     C68478  -1.902   1.900   6.725 -0.6843  0.0170 -1.1517
  508MOL0     C68479  -2.028   1.937   6.685 -0.2858  0.5846 -0.6017
  508MOL0     C68480  -2.140   1.889   6.747 -1.3132 -0.0513 -0.2398
  508MOL0     O68481  -2.254   1.923   6.696  0.4658 -0.3015  0.3715
  508MOL0     C68482  -2.355   1.983   6.774 -0.2451  0.1713  0.2214
  508MOL0     C68483  -2.471   2.018   6.675 -0.2589  0.7190 -1.0154
  508MOL0     C68484  -2.416   2.114   6.567  0.1051 -0.0350 -0.2635
  508MOL0     C68485  -2.523   2.162   6.470 -0.2407 -0.0064  0.3723
  508MOL0     C68486  -2.583   2.287   6.537 -0.3381  0.3054 -0.5107
  508MOL0     C68487  -2.714   2.321   6.476 -0.2084 -0.1315  0.3938
  508MOL0     C68488  -2.792   2.432   6.555 -0.2430  0.3539  0.2009
  508MOL0     C68489  -2.889   2.359   6.654 -0.3147 -0.7757  0.2717
  508MOL0    Cl68490  -2.982   2.487   6.750 -0.2201  0.2884  0.1007
  508MOL0     C68491  -2.121   1.809   6.851 -0.3656  0.2804 -1.1953
  508MOL0     C68492  -1.995   1.772   6.904 -0.3107 -0.5702  0.7078
  508MOL0     O68493  -1.667   2.009   6.860 -0.1740 -0.2414 -0.0247
  508MOL0     C68494  -1.511   1.692   6.961 -0.1872  0.6928 -0.2439
  508MOL0     C68495  -1.399   1.626   6.987 -0.7497  0.3916 -0.5218
  508MOL0     N68496  -0.850   1.676   6.567  0.2228 -0.4461 -0.2828
  508MOL0     N68497  -0.760   1.727   6.496  0.3469 -1.2324 -0.0840
  508MOL0     C68498   0.377   1.677   6.909 -0.7584 -0.2387  0.2486
  508MOL0     C68499   0.489   1.666   6.998 -1.0354  0.3605 -0.1583
  508MOL0     C68500   0.709   1.551   7.356  0.3795 -0.4195  0.5622
  508MOL0     C68501   0.793   1.671   7.368 -0.2336  0.6778 -0.2641
  508MOL0     C68502   0.907   1.655   7.453  0.0484 -0.6441  0.1495
  508MOL0     C68503   0.940   1.540   7.532 -0.6026  0.5406 -0.4406
  508MOL0     O68504   1.046   1.530   7.616  0.3657  0.8446 -0.6317
  508MOL0     C68505   1.059   1.642   7.704 -0.1867  0.3107  0.9540
  508MOL0     C68506   1.111   1.586   7.836  0.4465  0.6059  1.1181
  508MOL0     C68507   1.134   1.702   7.933  0.5927 -0.1513  0.5125
  508MOL0     C68508   1.245   1.677   8.029 -0.5785 -0.0598 -0.0845
  508MOL0     C68509   1.228   1.558   8.113  0.2443  0.1409 -0.3749
  508MOL0     C68510   1.205   1.450   8.161 -0.8851  0.4471 -0.8428
  508MOL0     C68511   0.853   1.428   7.513 -0.3225  0.0746  0.9314
  508MOL0     C68512   0.736   1.437   7.424 -0.5132  0.5503 -0.1741
  508MOL0     H68513   0.324   1.741   7.283 -0.4005 -1.3413 -0.7567
  508MOL0     H68514   0.133   1.767   7.115 -1.7628  0.2232 -2.7664
  508MOL0     H68515   0.234   1.834   6.717  0.9343 -0.6204 -2.2954
  508MOL0     H68516   0.199   1.663   6.655  2.6515  1.9658 -1.0760
  508MOL0     H68517  -0.048   1.732   6.674  1.9764 -1.7136 -0.5818
  508MOL0     H68518   0.003   1.891   6.740  2.3007  0.8729 -0.5321
  508MOL0     H68519   0.143   1.929   6.527  0.5043  0.7525  3.7276
  508MOL0     H68520   0.052   1.790   6.467  0.6726  0.8747  0.1863
  508MOL0     H68521  -0.076   2.043   6.566 -0.6518 -0.5262  2.0819
  508MOL0     H68522  -0.066   1.983   6.402  2.3593 -1.4077 -0.3049
  508MOL0     H68523  -0.216   1.779   6.503  0.1207  0.1239 -0.9330
  508MOL0     H68524  -0.233   1.879   6.641 -0.5221  2.5313 -0.4059
  508MOL0     H68525  -0.340   2.059   6.508 -0.4828 -0.3266  0.0239
  508MOL0     H68526  -0.331   1.965   6.360 -3.3412 -1.7539 -0.7418
  508MOL0     H68527  -0.493   1.905   6.628  0.6662  3.5947 -0.2837
  508MOL0     H68528  -0.550   1.951   6.469  1.5117  1.7503  1.9849
  508MOL0     H68529  -0.428   1.672   6.537 -2.7426 -1.4173  4.0372
  508MOL0     H68530  -0.491   1.737   6.376  0.1065  0.8133  0.2809
  508MOL0     H68531  -0.575   1.523   6.666 -2.6652 -2.6010  1.1907
  508MOL0     H68532  -0.953   1.457   6.678  0.4089 -0.7522 -0.2957
  508MOL0     H68533  -0.800   1.401   6.750  0.4527 -0.2849 -1.2386
  508MOL0     H68534  -0.955   1.660   6.831 -1.3479 -0.7841 -2.9546
  508MOL0     H68535  -0.814   1.594   6.918 -0.7430 -0.0813 -0.9452
  508MOL0     H68536  -0.958   1.470   7.036  0.4271  2.5643 -0.8456
  508MOL0     H68537  -0.968   1.368   6.901  0.0764 -0.3684  0.2494
  508MOL0     H68538  -1.205   1.435   6.931 -2.0721  0.0069  0.3219
  508MOL0     H68539  -1.150   1.544   6.801 -1.3164  0.6146  1.2041
  508MOL0     H68540  -1.183   1.881   6.935 -0.1415  1.0033 -1.2586
  508MOL0     H68541  -1.443   2.107   6.933  1.5026 -1.6596  3.0284
  508MOL0     H68542  -1.282   2.080   6.880  0.3940 -0.8770 -0.6208
  508MOL0     H68543  -1.411   2.059   6.761 -1.2286 -2.1092 -0.7015
  508MOL0     H68544  -1.818   1.942   6.671 -1.4038  4.3629  0.7127
  508MOL0     H68545  -2.028   1.998   6.594  0.6989 -0.7607 -1.5463
  508MOL0     H68546  -2.390   1.923   6.859  1.2199 -1.1535 -0.0623
  508MOL0     H68547  -2.307   2.070   6.821  0.4834  0.0931 -0.3667
  508MOL0     H68548  -2.510   1.923   6.639 -2.8994  1.1636  0.4430
  508MOL0     H68549  -2.550   2.069   6.730 -0.0837  0.6646 -0.7150
  508MOL0     H68550  -2.356   2.061   6.493 -1.8412  0.1042 -2.0419
  508MOL0     H68551  -2.363   2.193   6.620 -0.6274 -0.3393  0.9738
  508MOL0     H68552  -2.491   2.201   6.373 -0.1837 -2.4013 -0.6444
  508MOL0     H68553  -2.602   2.088   6.455  1.9244 -2.6924  1.5724
  508MOL0     H68554  -2.512   2.368   6.522 -3.4557  3.1344 -1.2250
  508MOL0     H68555  -2.611   2.280   6.643  0.2403  1.5846 -0.2529
  508MOL0     H68556  -2.717   2.353   6.371  1.3664  2.5309  1.0620
  508MOL0     H68557  -2.775   2.231   6.465  2.0110 -1.7612  0.7151
  508MOL0     H68558  -2.845   2.486   6.476 -1.4588 -0.9478  0.0914
  508MOL0     H68559  -2.722   2.488   6.617  1.2633 -2.4122  1.1632
  508MOL0     H68560  -2.835   2.299   6.727  0.0716  0.9636  1.4921
  508MOL0     H68561  -2.965   2.298   6.604 -1.0687  0.0136  0.4289
  508MOL0     H68562  -2.201   1.769   6.913  0.7126  0.2975  0.2556
  508MOL0     H68563  -1.992   1.700   6.985  3.0473 -0.4702  0.8156
  508MOL0     H68564  -1.603   1.639   6.982 -0.8393  2.4177  1.5053
  508MOL0     H68565  -1.398   1.527   7.031  3.2069  0.8860  0.9025
  508MOL0     H68566   0.388   1.660   6.802  1.0132  2.1087 -0.0188
  508MOL0     H68567   0.590   1.648   6.965 -1.7128 -0.4134 -1.9506
  508MOL0     H68568   0.777   1.763   7.312  0.6175  3.2464  3.3268
  508MOL0     H68569   0.974   1.740   7.453 -0.1114 -0.4892  1.4977
  508MOL0     H68570   1.130   1.715   7.666  0.2336 -0.3376  0.4657
  508MOL0     H68571   0.967   1.699   7.722  0.2970  1.4620 -0.1309
  508MOL0     H68572   1.204   1.532   7.817 -0.8475 -2.6061  3.0859
  508MOL0     H68573   1.042   1.519   7.888 -0.5851  1.8586  1.4103
  508MOL0     H68574   1.037   1.737   7.969  1.4949  1.2790  1.6108
  508MOL0     H68575   1.160   1.788   7.870  0.1299 -2.1333 -2.6186
  508MOL0     H68576   1.263   1.764   8.094 -0.2907  0.0729 -0.3411
  508MOL0     H68577   1.334   1.662   7.967 -0.7357  4.3989 -1.7407
  508MOL0     H68578   1.204   1.350   8.200  0.7097  1.5262  2.3252
  508MOL0     H68579   0.868   1.344   7.581 -0.6099 -1.1274 -0.4300
  508MOL0     H68580   0.667   1.357   7.399  0.2109  0.5197 -2.2534
  509MOL0     O68581  10.195   6.440   2.681  0.1192 -0.9329 -0.4728
  509MOL0     C68582  10.275   6.388   2.751  0.0481  0.3140 -0.2831
  509MOL0     O68583  10.244   6.331   2.887 -0.3013  0.2205  0.0129
  509MOL0     C68584  10.115   6.344   2.943 -0.0084  0.0551  0.4447
  509MOL0     C68585   9.991   6.335   2.868  0.8858  0.0227  0.8856
  509MOL0     C68586   9.867   6.353   2.922 -0.5671  0.8942  0.0362
  509MOL0     C68587   9.861   6.388   3.057  0.0666  0.4829 -0.0476
  509MOL0     O68588   9.737   6.416   3.101  0.4939 -0.3066 -0.0854
  509MOL0     C68589   9.690   6.394   3.233  0.0116  0.5773 -0.7416
  509MOL0     C68590   9.536   6.384   3.232  0.0422 -0.0971  0.2778
  509MOL0     C68591   9.490   6.336   3.372  0.1673 -0.5936  0.5467
  509MOL0     C68592   9.363   6.263   3.376 -0.7676 -0.8174 -0.1042
  509MOL0     C68593   9.252   6.362   3.345  0.0123 -0.3148 -0.1685
  509MOL0     C68594   9.155   6.315   3.245  0.0606  0.1434  0.0761
  509MOL0     C68595   9.048   6.431   3.215 -0.7151  0.4380 -1.1058
  509MOL0     C68596   8.954   6.390   3.112 -0.1925 -0.0269 -0.2981
  509MOL0     N68597   8.846   6.316   3.181  0.0913  0.5197  0.6770
  509MOL0     C68598   8.722   6.380   3.210 -0.8106  0.0025 -0.8208
  509MOL0     C68599   8.646   6.280   3.262 -0.4604  0.4061 -0.3837
  509MOL0     C68600   8.522   6.305   3.342  0.2710  0.3121  1.3375
  509MOL0     C68601   8.405   6.283   3.247 -0.5059 -0.7097 -0.5564
  509MOL0     C68602   8.388   6.141   3.195 -0.2810  0.6791  0.8536
  509MOL0     C68603   8.279   6.135   3.084 -0.7844 -0.5573  0.2065
  509MOL0     O68604   8.307   6.220   2.973  0.3033 -0.7145  1.1622
  509MOL0     C68605   8.386   6.169   2.868  0.2348  0.9199 -0.3226
  509MOL0     C68606   8.401   6.245   2.749  0.0223  0.6467  0.1303
  509MOL0     C68607   8.467   6.207   2.630 -0.0817  0.1045  0.4849
  509MOL0     C68608   8.478   6.317   2.527  0.0872 -0.3428  0.1776
  509MOL0     C68609   8.527   6.079   2.626  0.0938 -1.0273  0.3377
  509MOL0     C68610   8.597   6.037   2.505  0.7816 -0.1412 -0.1072
  509MOL0     O68611   8.658   5.914   2.516 -0.4067 -0.1586 -0.1544
  509MOL0     C68612   8.675   5.841   2.404 -0.0253 -0.0387 -0.0617
  509MOL0     C68613   8.571   5.774   2.340  1.1453  0.7236 -0.0473
  509MOL0     C68614   8.596   5.684   2.238 -0.3192 -0.7934  0.4346
  509MOL0     C68615   8.729   5.669   2.189 -0.1948  0.2157  0.1885
  509MOL0     O68616   8.758   5.583   2.075 -0.1420 -0.0746  0.2306
  509MOL0     C68617   8.800   5.671   1.977  0.3610  0.5196  0.0107
  509MOL0     C68618   8.836   5.600   1.842  0.5649  0.5871  0.1969
  509MOL0     C68619   8.716   5.533   1.786 -0.3013  0.3656 -1.5978
  509MOL0     C68620   8.651   5.615   1.673 -0.0242 -0.1877 -0.8879
  509MOL0     C68621   8.511   5.546   1.650  0.0606  0.2476  0.7992
  509MOL0     C68622   8.425   5.623   1.546 -0.3778 -0.3995 -0.2718
  509MOL0     C68623   8.323   5.712   1.612 -0.5605  0.9884 -0.2329
  509MOL0     C68624   8.251   5.810   1.521 -0.5028  0.0085  0.4916
  509MOL0    Cl68625   8.166   5.726   1.380  0.2442  0.5372  0.9732
  509MOL0     C68626   8.828   5.734   2.254 -0.1496  0.2793  0.6629
  509MOL0     C68627   8.801   5.817   2.360 -0.1033 -1.2881  0.6434
  509MOL0     O68628   8.598   6.096   2.394  0.0194 -0.1820  0.0116
  509MOL0     C68629   8.521   6.006   2.742  0.7968 -0.2052  0.4554
  509MOL0     C68630   8.448   6.042   2.857  0.7380 -0.4483  0.1324
  509MOL0     N68631   8.720   6.159   3.263  0.4042 -0.7973 -0.1550
  509MOL0     N68632   8.836   6.182   3.209  0.2533  1.2234 -0.2073
  509MOL0     C68633   9.981   6.389   3.136  0.4144  0.7192 -1.2175
  509MOL0     C68634  10.100   6.364   3.077  0.1585  0.7965  0.3965
  509MOL0     C68635  10.419   6.367   2.716 -0.5067 -0.0434  0.0481
  509MOL0     C68636  10.515   6.332   2.808 -0.3705 -0.1943  0.2766
  509MOL0     C68637  10.651   6.309   2.774 -0.2943 -0.4943 -0.2290
  509MOL0     C68638  10.693   6.340   2.644 -0.2346  0.9835 -0.3171
  509MOL0     O68639  10.818   6.336   2.589 -0.2234 -0.0446  0.4628
  509MOL0     C68640  10.924   6.362   2.685  0.1893  0.3041  0.2013
  509MOL0     C68641  11.021   6.475   2.635  0.3889  0.1982  0.2761
  509MOL0     C68642  10.951   6.603   2.588 -0.2337  0.7511 -0.3191
  509MOL0     C68643  11.036   6.700   2.506 -0.5650 -0.4008  0.4586
  509MOL0     C68644  11.094   6.648   2.379  0.0914  0.4426  0.5619
  509MOL0     C68645  11.126   6.585   2.281 -0.4214  0.5543  1.0513
  509MOL0     C68646  10.597   6.379   2.552 -0.3169  0.7031  0.3055
  509MOL0     C68647  10.461   6.390   2.588 -0.0863 -0.2437  0.1562
  509MOL0     H68648   9.987   6.303   2.764  0.4775 -1.1415  1.2445
  509MOL0     H68649   9.775   6.363   2.865 -1.6437 -1.5251  1.2161
  509MOL0     H68650   9.730   6.301   3.275 -2.2671 -0.7800 -1.4240
  509MOL0     H68651   9.729   6.477   3.293  2.6693 -1.3742  0.4744
  509MOL0     H68652   9.495   6.485   3.220  0.5033  0.5133  3.1000
  509MOL0     H68653   9.515   6.318   3.147  1.7333 -1.4006  0.8134
  509MOL0     H68654   9.572   6.277   3.414  4.8962  2.9468 -2.6288
  509MOL0     H68655   9.489   6.418   3.444  1.2631 -0.3406  0.2982
  509MOL0     H68656   9.371   6.197   3.288 -2.4828 -0.0347 -0.9016
  509MOL0     H68657   9.348   6.213   3.472  0.7681 -1.2293 -0.0648
  509MOL0     H68658   9.195   6.385   3.435 -0.3475  1.3703 -0.7826
  509MOL0     H68659   9.289   6.453   3.297 -2.2412  0.6225 -0.2409
  509MOL0     H68660   9.194   6.282   3.148 -1.0103 -0.1418 -0.2692
  509MOL0     H68661   9.107   6.228   3.292  2.7065 -0.4509  1.9365
  509MOL0     H68662   8.991   6.452   3.305  1.1908 -0.8672  0.5055
  509MOL0     H68663   9.096   6.526   3.192 -1.3499  1.2060  0.5834
  509MOL0     H68664   8.996   6.331   3.031  0.3186  0.2914 -0.2709
  509MOL0     H68665   8.910   6.482   3.074  0.1641  1.0904  1.8237
  509MOL0     H68666   8.698   6.486   3.201  4.3544  1.7644  1.8855
  509MOL0     H68667   8.515   6.237   3.427  0.3492  0.7936  1.7373
  509MOL0     H68668   8.512   6.408   3.379  0.3675  1.0790 -0.6632
  509MOL0     H68669   8.412   6.351   3.161  3.1449  0.7359  0.6698
  509MOL0     H68670   8.314   6.288   3.308  0.5264 -0.1650  1.0246
  509MOL0     H68671   8.358   6.069   3.272  1.7288 -4.9412 -3.0678
  509MOL0     H68672   8.484   6.103   3.158  0.4236  0.6572  2.5982
  509MOL0     H68673   8.191   6.178   3.134 -0.8779 -1.3222  0.7020
  509MOL0     H68674   8.262   6.030   3.057  0.7284 -0.4853 -1.1486
  509MOL0     H68675   8.360   6.345   2.745  1.1775  1.1101 -0.2990
  509MOL0     H68676   8.585   6.340   2.515 -0.0403 -0.2589 -0.9060
  509MOL0     H68677   8.424   6.313   2.432  0.9242 -1.4843 -0.2821
  509MOL0     H68678   8.427   6.407   2.561 -1.3646 -0.6143 -1.1730
  509MOL0     H68679   8.470   5.798   2.372 -0.0935 -1.3471 -2.0597
  509MOL0     H68680   8.526   5.620   2.185 -0.2418 -0.3548 -0.2105
  509MOL0     H68681   8.733   5.756   1.964  0.3389  0.2211 -2.2738
  509MOL0     H68682   8.893   5.723   2.004  1.9111 -1.5850 -0.9487
  509MOL0     H68683   8.870   5.669   1.764 -2.9596  1.5715 -0.6939
  509MOL0     H68684   8.916   5.531   1.870 -0.5786 -1.3230 -1.0231
  509MOL0     H68685   8.637   5.514   1.859 -0.7867 -0.3589 -2.2996
  509MOL0     H68686   8.742   5.436   1.741  1.0014 -0.0984  0.0737
  509MOL0     H68687   8.632   5.717   1.708  0.7249 -0.0275 -0.9186
  509MOL0     H68688   8.716   5.619   1.585 -0.1827 -1.1621 -1.0521
  509MOL0     H68689   8.445   5.525   1.734 -1.2565  0.2127 -0.2202
  509MOL0     H68690   8.542   5.446   1.618  0.6629  0.3531  1.0426
  509MOL0     H68691   8.494   5.679   1.483 -0.4540 -1.3303 -1.2236
  509MOL0     H68692   8.381   5.549   1.478  0.5902  0.5367 -1.9651
  509MOL0     H68693   8.374   5.758   1.697  2.6928 -0.1113 -1.4384
  509MOL0     H68694   8.248   5.640   1.646  1.6230 -0.3875  1.9878
  509MOL0     H68695   8.329   5.873   1.478  0.8284 -0.4434  2.1477
  509MOL0     H68696   8.183   5.876   1.576 -3.3902  0.5723 -3.3087
  509MOL0     H68697   8.933   5.729   2.226  0.1104  1.2286  1.3967
  509MOL0     H68698   8.884   5.874   2.399  0.2168 -0.9685 -0.4807
  509MOL0     H68699   8.558   5.904   2.735  0.0306 -0.4181 -0.7757
  509MOL0     H68700   8.432   5.972   2.939 -0.0584 -2.0219 -1.3144
  509MOL0     H68701   9.981   6.402   3.244 -1.0043 -1.8555 -0.8133
  509MOL0     H68702  10.184   6.358   3.145  1.8112 -1.7348 -1.6416
  509MOL0     H68703  10.491   6.299   2.908 -0.9185 -1.7791 -0.3357
  509MOL0     H68704  10.726   6.260   2.835 -0.6513 -2.4924 -1.2861
  509MOL0     H68705  10.896   6.386   2.788  2.3595 -0.4099  0.9959
  509MOL0     H68706  10.980   6.269   2.692 -0.1319  0.1384  0.6705
  509MOL0     H68707  11.063   6.427   2.546 -0.7188 -2.6648  1.1732
  509MOL0     H68708  11.089   6.504   2.715 -0.9232  0.1156  1.4541
  509MOL0     H68709  10.898   6.652   2.670 -3.0831  0.3142 -1.8013
  509MOL0     H68710  10.865   6.586   2.524  1.0751  0.3374 -2.0597
  509MOL0     H68711  11.121   6.727   2.568 -1.4574  0.5962  1.2888
  509MOL0     H68712  10.977   6.792   2.494 -1.1755 -1.0505 -2.3234
  509MOL0     H68713  11.136   6.526   2.192 -1.5543 -0.4194  1.5408
  509MOL0     H68714  10.618   6.410   2.450  0.1854 -1.9759 -0.4856
  509MOL0     H68715  10.386   6.431   2.521 -1.1875 -2.2900  0.0451
  510MOL0     O68716   1.139   3.837   6.461  0.2547 -0.7754  0.4767
  510MOL0     C68717   1.185   3.946   6.497 -0.8611  1.0522 -0.2121
  510MOL0     O68718   1.149   4.008   6.614 -0.6531  0.0487 -0.0933
  510MOL0     C68719   1.023   3.969   6.666 -0.0910 -0.5024  0.3167
  510MOL0     C68720   0.988   3.844   6.712 -0.9003  0.5545 -0.2552
  510MOL0     C68721   0.863   3.810   6.754 -0.1672  0.0184  0.0774
  510MOL0     C68722   0.758   3.904   6.760  0.3425  0.8301 -0.0199
  510MOL0     O68723   0.636   3.854   6.804  0.4265 -0.8193  0.5189
  510MOL0     C68724   0.531   3.947   6.812  0.6709 -0.1887  1.0688
  510MOL0     C68725   0.412   3.888   6.864 -1.0179  0.6852 -0.2785
  510MOL0     C68726   0.439   3.830   7.000  0.2383  0.3440  0.6499
  510MOL0     C68727   0.324   3.740   7.044  0.3063 -0.0708  0.1593
  510MOL0     C68728   0.328   3.608   6.966 -0.3019 -0.1318 -0.7518
  510MOL0     C68729   0.399   3.504   7.052  0.1617  0.0407 -0.3113
  510MOL0     C68730   0.348   3.366   7.016  0.4329  0.0436  0.0727
  510MOL0     C68731   0.407   3.253   7.109 -0.7839  0.1250  0.4415
  510MOL0     N68732   0.343   3.128   7.088 -0.9512 -0.3925 -0.4442
  510MOL0     C68733   0.375   3.047   6.983 -0.6666 -0.5001  0.4632
  510MOL0     C68734   0.273   2.958   6.976  0.4157 -0.0914 -0.6254
  510MOL0     C68735   0.273   2.845   6.883  0.3927  0.5714  0.0187
  510MOL0     C68736   0.344   2.722   6.952 -0.3539  0.4578 -0.4986
  510MOL0     C68737   0.368   2.602   6.857 -0.2778  0.0185 -0.0109
  510MOL0     C68738   0.420   2.486   6.930  0.3416  1.2750 -0.7300
  510MOL0     O68739   0.557   2.501   6.949  0.1556  0.1928  0.2672
  510MOL0     C68740   0.614   2.406   7.038 -0.1514 -0.6395 -0.0541
  510MOL0     C68741   0.543   2.285   7.072  0.1388 -0.5278  0.1026
  510MOL0     C68742   0.619   2.191   7.148  0.3877  0.8027 -0.3065
  510MOL0     C68743   0.542   2.059   7.176  0.0998 -0.8984 -0.0015
  510MOL0     C68744   0.749   2.208   7.200  0.1571  0.4084 -0.1148
  510MOL0     C68745   0.821   2.129   7.305 -0.4201 -0.0880  0.2453
  510MOL0     O68746   0.937   2.183   7.346  0.5962 -0.5648  0.2322
  510MOL0     C68747   1.017   2.137   7.444  0.1680 -0.4972  0.4900
  510MOL0     C68748   0.984   2.048   7.550 -0.1812  0.8859 -0.6875
  510MOL0     C68749   1.079   2.005   7.642 -0.2653  0.5891 -0.8028
  510MOL0     C68750   1.216   2.038   7.622  0.8272  0.4364  0.3295
  510MOL0     O68751   1.308   1.983   7.705  0.2038  0.0228 -1.0569
  510MOL0     C68752   1.440   1.958   7.655 -0.1973 -0.2070 -0.0765
  510MOL0     C68753   1.515   1.860   7.749  0.6347  0.2990 -0.2597
  510MOL0     C68754   1.564   1.932   7.876  0.0817 -0.2678 -0.2750
  510MOL0     C68755   1.656   1.842   7.963 -1.0101  1.1922  1.0708
  510MOL0     C68756   1.671   1.915   8.101 -0.0700  0.6050 -0.3993
  510MOL0     C68757   1.724   1.822   8.210 -1.0323  0.5085 -0.5681
  510MOL0     C68758   1.634   1.725   8.283  0.4276 -0.3413  0.4979
  510MOL0     C68759   1.645   1.582   8.233 -0.6300 -0.1136  0.3647
  510MOL0    Cl68760   1.792   1.513   8.318  0.3536 -0.4357  0.7465
  510MOL0     C68761   1.248   2.129   7.522 -0.2838 -0.2805 -0.2218
  510MOL0     C68762   1.148   2.169   7.431 -0.9479 -0.1117 -0.0643
  510MOL0     O68763   0.780   2.023   7.347  0.1376  0.5343  0.3855
  510MOL0     C68764   0.811   2.326   7.149  0.0239  0.7469  0.2179
  510MOL0     C68765   0.746   2.427   7.075  0.5559  1.0276 -0.7847
  510MOL0     N68766   0.185   2.974   7.087 -0.8989 -0.3582  0.9887
  510MOL0     N68767   0.229   3.079   7.144  0.5286 -0.8870 -0.1182
  510MOL0     C68768   0.787   4.034   6.710 -0.3100  0.3005  0.8898
  510MOL0     C68769   0.921   4.063   6.656  0.3069  0.5359 -0.7860
  510MOL0     C68770   1.314   3.984   6.426 -0.2980  0.1186 -0.1001
  510MOL0     C68771   1.396   4.082   6.474  0.4895  0.2408  0.3658
  510MOL0     C68772   1.511   4.120   6.410 -0.8085 -0.1090  0.7550
  510MOL0     C68773   1.555   4.046   6.296 -0.5836 -0.1081 -0.1708
  510MOL0     O68774   1.670   4.075   6.216 -0.8566  0.3898 -0.2120
  510MOL0     C68775   1.791   4.010   6.256  0.5647 -0.1484 -0.4524
  510MOL0     C68776   1.827   3.908   6.147 -0.3178  1.0001 -0.3495
  510MOL0     C68777   1.934   3.799   6.191  0.0051 -0.6848 -0.0221
  510MOL0     C68778   1.944   3.688   6.084 -1.1592 -0.3166 -0.1909
  510MOL0     C68779   2.080   3.636   6.089 -0.0777 -0.1494 -0.8936
  510MOL0     C68780   2.192   3.588   6.096  1.0014 -0.6572 -0.6986
  510MOL0     C68781   1.470   3.936   6.248 -0.3645 -0.0549  0.9724
  510MOL0     C68782   1.354   3.911   6.315 -0.8426  0.5393  0.1315
  510MOL0     H68783   1.065   3.768   6.718 -0.3786  1.0987 -0.0143
  510MOL0     H68784   0.836   3.712   6.791 -2.3270  0.2106 -0.7875
  510MOL0     H68785   0.553   4.036   6.873 -1.0089  1.6506 -0.8499
  510MOL0     H68786   0.501   3.978   6.712 -0.3499 -1.7862  0.8525
  510MOL0     H68787   0.333   3.963   6.873 -1.4225  0.1040  1.2985
  510MOL0     H68788   0.370   3.818   6.791  1.1237 -0.7546 -0.2196
  510MOL0     H68789   0.529   3.767   6.992  0.1592  0.4694 -2.4093
  510MOL0     H68790   0.450   3.899   7.084 -1.7914 -0.4650  1.6280
  510MOL0     H68791   0.325   3.728   7.153  1.0967  0.9082  0.2836
  510MOL0     H68792   0.235   3.799   7.024  1.5924  1.1091 -2.6617
  510MOL0     H68793   0.225   3.577   6.945  0.6570 -2.7048 -2.0974
  510MOL0     H68794   0.364   3.614   6.863 -1.6964  0.1040 -1.2496
  510MOL0     H68795   0.507   3.517   7.039  0.2264 -0.0459  0.1527
  510MOL0     H68796   0.381   3.520   7.158  2.9128 -2.6224  0.6860
  510MOL0     H68797   0.239   3.363   7.024  0.3912 -0.1278 -0.5049
  510MOL0     H68798   0.376   3.343   6.913 -1.0134  2.2626 -0.8828
  510MOL0     H68799   0.395   3.285   7.213  0.6124 -1.4099  1.1188
  510MOL0     H68800   0.514   3.237   7.094  0.1116  1.6559  4.0468
  510MOL0     H68801   0.463   3.032   6.921  0.0916  0.2283  1.3543
  510MOL0     H68802   0.174   2.814   6.849  0.7489 -0.5446 -0.0601
  510MOL0     H68803   0.327   2.868   6.790 -0.2685 -1.8266 -1.0291
  510MOL0     H68804   0.276   2.680   7.027  0.4049 -2.3084 -1.2164
  510MOL0     H68805   0.440   2.741   7.000 -2.1135  1.1835  3.0691
  510MOL0     H68806   0.421   2.633   6.766 -1.7126 -0.3561 -1.0055
  510MOL0     H68807   0.271   2.559   6.831  0.8539 -2.5901 -0.2987
  510MOL0     H68808   0.412   2.394   6.872  1.4396 -0.4943  1.7501
  510MOL0     H68809   0.377   2.481   7.031  2.7527 -0.5848  0.3265
  510MOL0     H68810   0.445   2.252   7.040 -0.7412  2.8598 -1.1989
  510MOL0     H68811   0.479   2.067   7.266  0.8815  0.0354  0.4765
  510MOL0     H68812   0.484   2.035   7.087 -1.2262  1.3841  0.1850
  510MOL0     H68813   0.607   1.972   7.192  4.0692  1.4246 -1.9983
  510MOL0     H68814   0.880   2.022   7.562  0.0589  0.8198  1.9763
  510MOL0     H68815   1.065   1.937   7.725  0.5762 -2.5381 -3.0588
  510MOL0     H68816   1.443   1.914   7.555  1.1352  0.6099 -0.4257
  510MOL0     H68817   1.505   2.046   7.655  1.2461 -1.0322  3.9577
  510MOL0     H68818   1.462   1.765   7.761 -1.4581  1.4480  0.1014
  510MOL0     H68819   1.600   1.838   7.684  0.1885 -0.1989 -0.6773
  510MOL0     H68820   1.475   1.959   7.934 -1.2443 -3.2513 -0.7412
  510MOL0     H68821   1.614   2.027   7.851  1.7966 -1.0309  0.1649
  510MOL0     H68822   1.628   1.737   7.963 -0.7418  1.0781 -1.0861
  510MOL0     H68823   1.755   1.845   7.917 -0.9616  0.3369  1.1202
  510MOL0     H68824   1.581   1.969   8.131 -0.8270 -0.8876  0.0660
  510MOL0     H68825   1.754   1.987   8.091  1.7488 -1.3311 -0.0676
  510MOL0     H68826   1.809   1.773   8.160  0.5664  3.6808 -1.2361
  510MOL0     H68827   1.774   1.879   8.289 -0.5374  0.0599 -0.5519
  510MOL0     H68828   1.537   1.777   8.282  1.2381  1.2419  0.4243
  510MOL0     H68829   1.653   1.717   8.391  2.2921  2.9263  0.5565
  510MOL0     H68830   1.668   1.574   8.126  2.2502 -1.2157  0.9773
  510MOL0     H68831   1.549   1.531   8.248 -1.3024  0.1251 -2.5053
  510MOL0     H68832   1.351   2.158   7.501 -0.2782 -0.4874 -0.4820
  510MOL0     H68833   1.179   2.233   7.348 -0.6109 -1.3694 -0.9477
  510MOL0     H68834   0.918   2.336   7.164  0.5629 -2.8323 -0.4254
  510MOL0     H68835   0.793   2.516   7.036  1.4320  0.2607 -1.5255
  510MOL0     H68836   0.701   4.100   6.709 -0.5299  0.0171  0.0656
  510MOL0     H68837   0.943   4.155   6.603 -2.7001  0.9611 -1.4715
  510MOL0     H68838   1.368   4.132   6.566 -0.9544  0.1891 -0.0077
  510MOL0     H68839   1.578   4.192   6.455 -1.9111  1.7085 -0.3507
  510MOL0     H68840   1.862   4.091   6.274 -1.4938  1.5637  0.4189
  510MOL0     H68841   1.764   3.963   6.351 -0.3026  0.2608 -0.4805
  510MOL0     H68842   1.857   3.956   6.054 -0.2056 -2.2873 -2.1864
  510MOL0     H68843   1.737   3.849   6.126 -0.8441  1.3845  0.7459
  510MOL0     H68844   1.915   3.758   6.291 -1.0176  1.1058  0.5560
  510MOL0     H68845   2.029   3.852   6.198 -0.9063  0.8520  1.4117
  510MOL0     H68846   1.928   3.729   5.984 -0.4830 -0.5364 -0.3950
  510MOL0     H68847   1.860   3.621   6.108 -0.9517 -0.5300 -0.0577
  510MOL0     H68848   2.290   3.549   6.110  2.1509  1.1624 -2.9001
  510MOL0     H68849   1.497   3.888   6.155  1.3748  2.0601  0.2871
  510MOL0     H68850   1.280   3.846   6.269 -1.8166  2.4613 -1.1278
  511MOL0     O68851   8.387  10.843   1.693 -0.2757  1.1229 -0.0791
  511MOL0     C68852   8.383  10.873   1.809  0.2972  0.5293 -0.3245
  511MOL0     O68853   8.492  10.910   1.887  0.2321  0.6170 -0.2713
  511MOL0     C68854   8.626  10.894   1.860  0.0582  0.0093  0.6543
  511MOL0     C68855   8.711  10.928   1.968 -0.2174  0.2532 -0.0635
  511MOL0     C68856   8.853  10.933   1.949 -0.4015  0.3318  0.7449
  511MOL0     C68857   8.904  10.871   1.832 -0.0083 -0.1699 -1.0372
  511MOL0     O68858   9.044  10.865   1.816 -0.3667  0.0206 -0.2196
  511MOL0     C68859   9.135  10.877   1.926 -0.2718  0.7323  0.4240
  511MOL0     C68860   9.281  10.881   1.897  0.1297 -0.6349  0.0499
  511MOL0     C68861   9.363  10.920   2.026  0.1264 -0.4593  0.1964
  511MOL0     C68862   9.365  10.795   2.122  0.5724  0.1161  0.8302
  511MOL0     C68863   9.442  10.815   2.251 -1.1133  0.4625 -0.6242
  511MOL0     C68864   9.408  10.719   2.368 -0.1624 -0.3032 -0.0218
  511MOL0     C68865   9.486  10.741   2.500  0.0686 -0.7759  0.2763
  511MOL0     C68866   9.631  10.680   2.495  0.3071 -0.5500  0.3663
  511MOL0     N68867   9.692  10.692   2.623  0.0197  0.7210 -0.8911
  511MOL0     C68868   9.684  10.607   2.733 -0.0379 -0.7642  0.7498
  511MOL0     C68869   9.766  10.663   2.831  0.6351 -1.0918 -0.1925
  511MOL0     C68870   9.795  10.596   2.957 -0.1653  0.4187 -0.1931
  511MOL0     C68871   9.876  10.461   2.960 -0.7895  0.7282 -0.1102
  511MOL0     C68872   9.899  10.393   3.107  0.0911 -0.0727  0.8407
  511MOL0     C68873   9.772  10.361   3.183 -0.2883 -0.3086 -0.2027
  511MOL0     O68874   9.668  10.313   3.094  0.2658  0.7886  0.6289
  511MOL0     C68875   9.546  10.274   3.138 -0.3604  0.7600  0.4731
  511MOL0     C68876   9.468  10.214   3.035  0.0215 -0.1118  0.3063
  511MOL0     C68877   9.331  10.189   3.053 -0.3474  0.2294 -0.7555
  511MOL0     C68878   9.263  10.112   2.936 -0.2488 -0.5414 -0.4215
  511MOL0     C68879   9.270  10.216   3.173 -0.1397 -0.5012 -0.6761
  511MOL0     C68880   9.124  10.203   3.195  0.4013  0.0561 -0.1654
  511MOL0     O68881   9.045  10.154   3.091 -0.8275  0.6862  0.3288
  511MOL0     C68882   8.915  10.158   3.081  0.1089 -0.3688  0.3849
  511MOL0     C68883   8.832  10.249   3.145 -0.3919 -0.5661  0.3388
  511MOL0     C68884   8.694  10.241   3.136  0.1753  0.5902  0.0352
  511MOL0     C68885   8.627  10.144   3.049 -0.0470 -1.2843  0.4702
  511MOL0     O68886   8.497  10.137   3.029  0.1682 -0.2494 -0.2793
  511MOL0     C68887   8.420  10.250   3.072  0.8890 -0.3031  0.1747
  511MOL0     C68888   8.265  10.220   3.034 -0.1732  0.2128  0.1567
  511MOL0     C68889   8.186  10.330   3.101 -0.5333 -0.6374 -0.4780
  511MOL0     C68890   8.042  10.340   3.043 -0.4751 -0.1310  0.1213
  511MOL0     C68891   7.970  10.200   3.034  0.2644  0.2999  0.2286
  511MOL0     C68892   7.816  10.232   3.020  0.8147  0.2041  0.9640
  511MOL0     C68893   7.771  10.261   2.871 -1.1849 -0.3803 -0.0185
  511MOL0     C68894   7.635  10.326   2.874  0.3652  0.8128 -0.6383
  511MOL0    Cl68895   7.526  10.227   2.965 -0.6615  0.0848 -0.1697
  511MOL0     C68896   8.716  10.045   2.985 -0.4755  0.4425 -1.1072
  511MOL0     C68897   8.858  10.055   3.007  0.0390 -0.3544 -0.2147
  511MOL0     O68898   9.069  10.255   3.295  0.9721  0.7219 -0.6397
  511MOL0     C68899   9.343  10.272   3.279 -0.2709 -0.5599 -0.8105
  511MOL0     C68900   9.481  10.309   3.251 -0.3226 -0.7220  0.5004
  511MOL0     N68901   9.820  10.773   2.771  0.2185 -1.6844  0.4270
  511MOL0     N68902   9.784  10.794   2.649  0.3503 -0.1732  0.4966
  511MOL0     C68903   8.816  10.817   1.736 -0.2587 -0.7371  0.2246
  511MOL0     C68904   8.682  10.827   1.753 -0.2849 -0.2190 -0.0726
  511MOL0     C68905   8.248  10.875   1.865  0.6904  0.4146  0.4469
  511MOL0     C68906   8.135  10.838   1.791 -0.0979 -0.4921 -0.9450
  511MOL0     C68907   8.004  10.862   1.842 -0.2735  0.2306  0.6803
  511MOL0     C68908   7.984  10.923   1.970 -0.4780 -0.1692  0.4349
  511MOL0     O68909   7.861  10.939   2.034 -0.1625  0.8715  1.2179
  511MOL0     C68910   7.742  10.930   1.956  0.1473 -0.4964 -0.4005
  511MOL0     C68911   7.690  10.783   1.953 -0.0407 -0.2884 -0.4114
  511MOL0     C68912   7.572  10.755   2.047 -0.3222 -0.1481  0.3573
  511MOL0     C68913   7.555  10.606   2.055  0.4859 -0.3431 -0.8322
  511MOL0     C68914   7.665  10.537   2.115  0.6633 -0.0675  0.1226
  511MOL0     C68915   7.754  10.476   2.169 -0.9942 -0.6457 -0.0947
  511MOL0     C68916   8.103  10.956   2.040  0.3431  0.0234  0.0730
  511MOL0     C68917   8.232  10.936   1.994 -0.2528  0.2904 -0.2742
  511MOL0     H68918   8.672  10.972   2.059  1.0243 -0.1470  0.6793
  511MOL0     H68919   8.899  10.968   2.041 -1.2480 -0.0867  1.3351
  511MOL0     H68920   9.116  10.963   1.992  3.2401 -0.2090  2.9904
  511MOL0     H68921   9.110  10.801   2.000  1.6348  0.0954  0.4713
  511MOL0     H68922   9.321  10.789   1.854  0.8813 -0.2127 -0.1770
  511MOL0     H68923   9.307  10.961   1.827 -0.9514  0.7684  1.2114
  511MOL0     H68924   9.460  10.964   2.002  0.6935  0.7873  4.1528
  511MOL0     H68925   9.311  11.003   2.074 -2.9704 -0.3108 -2.9784
  511MOL0     H68926   9.263  10.762   2.145 -0.1787  1.8780  0.1658
  511MOL0     H68927   9.420  10.712   2.076  1.6923  0.5018  1.4416
  511MOL0     H68928   9.546  10.800   2.220 -1.4152  0.7779 -1.8691
  511MOL0     H68929   9.441  10.915   2.294 -1.6292  0.0590  0.3241
  511MOL0     H68930   9.301  10.725   2.390  0.0407  0.0908  0.9283
  511MOL0     H68931   9.424  10.616   2.333  0.1082 -0.1645 -0.3140
  511MOL0     H68932   9.479  10.848   2.520 -0.1741  0.0989 -3.6215
  511MOL0     H68933   9.430  10.688   2.578 -0.4512 -0.5225  0.0810
  511MOL0     H68934   9.694  10.733   2.422 -2.1074 -1.5007 -2.5991
  511MOL0     H68935   9.624  10.573   2.473  4.7581 -0.9327 -0.2496
  511MOL0     H68936   9.616  10.523   2.735 -1.8255  0.5657 -0.2032
  511MOL0     H68937   9.836  10.672   3.025  1.3092  0.0767 -0.6607
  511MOL0     H68938   9.695  10.577   2.996 -0.1279  0.7973  0.0973
  511MOL0     H68939   9.976  10.477   2.919 -0.5715 -2.4127 -1.0506
  511MOL0     H68940   9.829  10.383   2.900  1.2722  1.5869 -3.0670
  511MOL0     H68941   9.956  10.457   3.175 -1.6364 -1.6028  3.9662
  511MOL0     H68942   9.944  10.295   3.088 -1.9213 -1.0197  0.6562
  511MOL0     H68943   9.742  10.442   3.250 -2.2120 -0.9466 -0.2545
  511MOL0     H68944   9.791  10.281   3.254  0.2946  2.6202  3.2417
  511MOL0     H68945   9.514  10.187   2.941 -1.6012 -0.1692 -0.5160
  511MOL0     H68946   9.191  10.187   2.904 -0.7149  0.5508  2.8348
  511MOL0     H68947   9.327  10.079   2.853  1.6766 -0.1055  0.8270
  511MOL0     H68948   9.217  10.027   2.988  4.4397 -1.0252  3.7301
  511MOL0     H68949   8.874  10.330   3.206 -1.4093  0.3605 -0.1622
  511MOL0     H68950   8.635  10.312   3.193  0.6900  0.3974  0.8314
  511MOL0     H68951   8.417  10.262   3.181 -2.4775  0.6720  0.0912
  511MOL0     H68952   8.455  10.343   3.025 -0.9268 -1.0334 -2.9577
  511MOL0     H68953   8.245  10.223   2.927 -3.6050  0.0370  0.6950
  511MOL0     H68954   8.240  10.120   3.068 -2.1227  1.5586  3.1476
  511MOL0     H68955   8.240  10.422   3.082 -1.5212  0.9109  3.2378
  511MOL0     H68956   8.171  10.317   3.209  1.6141 -2.1224 -0.2980
  511MOL0     H68957   7.979  10.413   3.096 -1.2171 -0.0431 -0.8447
  511MOL0     H68958   8.056  10.383   2.944 -1.6930  3.9875  1.5316
  511MOL0     H68959   7.993  10.147   3.127 -1.9822  0.0893  0.7059
  511MOL0     H68960   8.001  10.146   2.944 -1.2439  1.3079 -0.9558
  511MOL0     H68961   7.760  10.140   3.042 -1.0179  0.6943 -1.2523
  511MOL0     H68962   7.790  10.310   3.092 -0.7429 -1.2222  2.0196
  511MOL0     H68963   7.761  10.169   2.812 -0.3317 -0.0918 -0.6373
  511MOL0     H68964   7.842  10.331   2.826 -2.4529  2.7617  2.5010
  511MOL0     H68965   7.588  10.334   2.776  0.5067  0.1520 -0.7714
  511MOL0     H68966   7.647  10.425   2.919 -2.5751 -0.0731  2.4795
  511MOL0     H68967   8.673   9.973   2.916 -3.0227 -1.0991  1.7976
  511MOL0     H68968   8.921   9.984   2.956  1.0312  1.2987 -1.3947
  511MOL0     H68969   9.304  10.305   3.375  1.5769 -0.4761 -0.0528
  511MOL0     H68970   9.529  10.369   3.327 -2.2533 -2.1716  3.0217
  511MOL0     H68971   8.864  10.767   1.652 -0.4130 -0.5011 -0.0061
  511MOL0     H68972   8.626  10.770   1.679 -2.1948  1.7017 -0.1974
  511MOL0     H68973   8.152  10.802   1.690  0.4620  0.5761 -1.2446
  511MOL0     H68974   7.924  10.836   1.773  1.6863 -1.8861 -0.9387
  511MOL0     H68975   7.659  10.995   1.986  0.6053  1.6888 -3.4162
  511MOL0     H68976   7.760  10.958   1.852 -0.7401  0.3783 -0.3393
  511MOL0     H68977   7.776  10.723   1.987 -0.1154 -0.6292 -0.8189
  511MOL0     H68978   7.666  10.767   1.847 -1.0843 -2.2605  0.0657
  511MOL0     H68979   7.483  10.802   2.005  0.6857  0.4882 -1.1591
  511MOL0     H68980   7.586  10.792   2.149 -1.1339  2.3405 -0.3686
  511MOL0     H68981   7.528  10.573   1.955 -0.2380  3.4742 -2.0595
  511MOL0     H68982   7.467  10.605   2.120  0.1266 -1.0635 -1.3218
  511MOL0     H68983   7.823  10.446   2.246 -3.2334  0.3399  2.5010
  511MOL0     H68984   8.097  10.984   2.145  0.0265  0.3316 -0.0235
  511MOL0     H68985   8.319  10.962   2.053 -0.6122 -1.0464  0.9092
  512MOL0     O68986   5.686   4.426   2.744  0.1507 -0.5181  0.4225
  512MOL0     C68987   5.675   4.480   2.856 -0.3718  0.2314  0.0504
  512MOL0     O68988   5.600   4.441   2.966  0.1424  0.0144 -0.2364
  512MOL0     C68989   5.511   4.335   2.953 -0.2543 -0.5190 -1.3298
  512MOL0     C68990   5.517   4.220   2.872 -0.7060 -0.1698  1.1422
  512MOL0     C68991   5.420   4.125   2.878 -0.1205  0.0629 -0.0828
  512MOL0     C68992   5.317   4.134   2.970 -0.9957 -0.0196  0.0345
  512MOL0     O68993   5.230   4.029   2.987  0.1244  0.1106  0.0660
  512MOL0     C68994   5.104   4.075   3.006  1.3974  0.0578 -0.2700
  512MOL0     C68995   5.007   3.956   2.977  0.4399 -0.2339 -0.4441
  512MOL0     C68996   4.874   3.984   3.054  0.4704  0.5696  0.0014
  512MOL0     C68997   4.776   3.862   3.035 -0.2521 -0.1817 -0.1963
  512MOL0     C68998   4.662   3.869   3.142  0.5305  1.6788  0.4540
  512MOL0     C68999   4.572   3.744   3.143  0.0806 -0.5580  0.4562
  512MOL0     C69000   4.473   3.749   3.030 -0.1218 -0.6220 -0.7514
  512MOL0     C69001   4.406   3.615   3.015  0.5722  0.4410 -0.3878
  512MOL0     N69002   4.308   3.586   3.112  0.4041 -0.0596 -0.2967
  512MOL0     C69003   4.319   3.490   3.211 -1.0542 -0.1035 -0.8599
  512MOL0     C69004   4.238   3.523   3.312 -0.0528 -0.3865 -0.9556
  512MOL0     C69005   4.252   3.454   3.449 -0.0099 -1.0126  0.1465
  512MOL0     C69006   4.336   3.530   3.560  0.1322  0.1212  0.4423
  512MOL0     C69007   4.281   3.662   3.609 -0.0197  0.5537 -0.6753
  512MOL0     C69008   4.131   3.665   3.639  0.6629 -1.1758  0.2308
  512MOL0     O69009   4.095   3.558   3.737 -0.1405 -0.0983  0.4258
  512MOL0     C69010   3.979   3.585   3.812 -0.4341  0.3495 -0.1850
  512MOL0     C69011   3.851   3.552   3.773 -0.2780  0.5879 -0.0851
  512MOL0     C69012   3.740   3.593   3.845  0.0004 -0.4445 -0.4472
  512MOL0     C69013   3.603   3.560   3.794 -0.6283 -0.3814 -0.0610
  512MOL0     C69014   3.761   3.672   3.960  0.4129 -0.2675  0.0842
  512MOL0     C69015   3.646   3.730   4.040  0.7641 -0.7976 -0.3234
  512MOL0     O69016   3.674   3.764   4.168 -0.7517 -0.1107  0.1923
  512MOL0     C69017   3.565   3.796   4.247  0.0823 -0.3271 -0.9741
  512MOL0     C69018   3.547   3.929   4.282 -0.1281 -0.6174  0.1841
  512MOL0     C69019   3.448   3.967   4.368 -0.0334  0.6029  0.1891
  512MOL0     C69020   3.376   3.870   4.436  0.0233 -0.7270 -0.8944
  512MOL0     O69021   3.280   3.901   4.541 -0.6918  0.1222  0.6317
  512MOL0     C69022   3.143   3.886   4.497 -0.0295  0.1514 -0.1665
  512MOL0     C69023   3.054   3.972   4.586 -0.4026  0.5843  0.1389
  512MOL0     C69024   3.030   3.906   4.722 -0.8323  0.6861  1.0066
  512MOL0     C69025   2.922   3.971   4.803  0.3129  0.5747 -0.2658
  512MOL0     C69026   2.925   3.933   4.951  0.2535 -0.0569 -0.7969
  512MOL0     C69027   3.051   3.965   5.030 -0.0120  0.9786  0.3164
  512MOL0     C69028   3.026   3.915   5.168 -0.1083  0.8044 -0.0333
  512MOL0     C69029   3.159   3.948   5.242  1.3312  0.3335  0.8165
  512MOL0    Cl69030   3.132   3.925   5.423 -0.1633 -0.4209  0.3292
  512MOL0     C69031   3.393   3.735   4.411 -0.6834 -0.1974  0.2221
  512MOL0     C69032   3.491   3.701   4.309 -0.0393 -1.0426 -0.5077
  512MOL0     O69033   3.555   3.785   3.979 -0.3977 -0.7260  0.1480
  512MOL0     C69034   3.887   3.683   4.011 -0.3773 -0.2079 -0.5718
  512MOL0     C69035   4.002   3.649   3.936  0.5018 -0.5891  0.2168
  512MOL0     N69036   4.182   3.646   3.279  0.3119  0.2154  0.0065
  512MOL0     N69037   4.220   3.674   3.161 -0.3286 -0.1120 -0.0029
  512MOL0     C69038   5.316   4.237   3.058 -0.8316 -0.2059  0.1630
  512MOL0     C69039   5.408   4.337   3.047  0.2709 -0.1781 -0.4986
  512MOL0     C69040   5.771   4.581   2.884 -0.2331 -1.3513 -0.0213
  512MOL0     C69041   5.807   4.615   3.019  0.2244  0.6408  0.3238
  512MOL0     C69042   5.904   4.715   3.044 -0.6787 -0.5417  0.0027
  512MOL0     C69043   5.982   4.773   2.944  0.2020  0.0168 -0.2150
  512MOL0     O69044   6.070   4.870   2.989 -0.1665 -0.3637 -0.6193
  512MOL0     C69045   6.131   4.944   2.882 -0.0923  0.0947 -0.8533
  512MOL0     C69046   6.166   5.085   2.935 -0.3768 -0.1646  0.8393
  512MOL0     C69047   6.242   5.090   3.064  0.2770 -0.4509 -0.0546
  512MOL0     C69048   6.284   5.233   3.108  0.5302 -0.0184 -0.4681
  512MOL0     C69049   6.313   5.333   3.004 -0.3949 -0.0118 -0.4490
  512MOL0     C69050   6.340   5.411   2.908 -0.1307 -0.5661 -0.1333
  512MOL0     C69051   5.947   4.731   2.809 -0.5640 -0.1243  0.1599
  512MOL0     C69052   5.856   4.636   2.784  1.1650 -0.5118 -0.1138
  512MOL0     H69053   5.606   4.211   2.811  0.2876 -0.4818  2.5612
  512MOL0     H69054   5.438   4.042   2.811  0.4463  0.3856 -0.3317
  512MOL0     H69055   5.089   4.093   3.113  0.0898 -2.6148  0.0944
  512MOL0     H69056   5.091   4.171   2.956  0.0585 -0.4940 -1.0400
  512MOL0     H69057   4.986   3.946   2.871  0.2184 -1.9432 -0.2623
  512MOL0     H69058   5.049   3.860   3.009 -0.1892 -0.8085 -1.3066
  512MOL0     H69059   4.893   4.013   3.158  1.0067  2.6287 -0.6347
  512MOL0     H69060   4.830   4.074   3.011 -3.7172  0.9793  4.3744
  512MOL0     H69061   4.728   3.884   2.939 -0.5075 -1.6500 -0.4237
  512MOL0     H69062   4.838   3.772   3.036 -0.6539 -0.5729 -3.0572
  512MOL0     H69063   4.712   3.867   3.239  1.7506  0.2674 -0.1716
  512MOL0     H69064   4.596   3.956   3.132 -2.1400 -0.3409 -0.7301
  512MOL0     H69065   4.635   3.655   3.131 -1.2919 -1.7565  1.7114
  512MOL0     H69066   4.514   3.744   3.236  0.1571  3.1018  0.6726
  512MOL0     H69067   4.401   3.831   3.040  1.9195  1.4687 -2.1634
  512MOL0     H69068   4.520   3.781   2.937 -0.3079 -0.1692 -0.6948
  512MOL0     H69069   4.467   3.525   3.027 -0.6983 -0.4069 -0.1292
  512MOL0     H69070   4.358   3.603   2.917 -0.7864 -0.3932  0.3541
  512MOL0     H69071   4.398   3.416   3.221 -0.5949  0.4479 -0.2123
  512MOL0     H69072   4.152   3.442   3.491  0.4608  1.6698  2.3466
  512MOL0     H69073   4.300   3.358   3.432 -1.1146 -1.4700 -0.4796
  512MOL0     H69074   4.436   3.550   3.521  1.3189 -0.4930  2.9673
  512MOL0     H69075   4.350   3.464   3.646 -2.4408  0.5768  1.2814
  512MOL0     H69076   4.305   3.741   3.537 -0.5280  0.5921 -0.8070
  512MOL0     H69077   4.355   3.675   3.688  0.0235 -3.5295  0.1914
  512MOL0     H69078   4.075   3.641   3.549 -0.6381 -0.5403  0.8482
  512MOL0     H69079   4.097   3.765   3.667  2.2895 -1.3386  3.2258
  512MOL0     H69080   3.845   3.502   3.677 -2.7816  0.9960 -0.2236
  512MOL0     H69081   3.602   3.476   3.724  1.1304  2.2199 -3.5149
  512MOL0     H69082   3.543   3.534   3.882  1.4009 -0.0751  1.4872
  512MOL0     H69083   3.563   3.647   3.743 -1.9169  0.3077  1.9947
  512MOL0     H69084   3.595   3.993   4.209  0.7582 -1.3016  0.1428
  512MOL0     H69085   3.424   4.072   4.372 -0.8751  0.3936  0.9482
  512MOL0     H69086   3.134   3.931   4.398  2.0920  1.3274  0.1057
  512MOL0     H69087   3.119   3.780   4.489  0.2708  0.1275 -0.7986
  512MOL0     H69088   3.109   4.059   4.621  2.0628 -1.7589  2.6547
  512MOL0     H69089   2.957   3.990   4.539 -0.8020 -3.0165 -0.7365
  512MOL0     H69090   3.123   3.912   4.778 -0.4775 -1.7764  0.8182
  512MOL0     H69091   3.004   3.803   4.696  2.0279  0.5798 -1.9948
  512MOL0     H69092   2.931   4.080   4.800 -1.8462  0.7786 -1.5402
  512MOL0     H69093   2.825   3.952   4.755  0.4735  1.3288 -0.9254
  512MOL0     H69094   2.903   3.827   4.967 -2.8725  0.3705 -1.6936
  512MOL0     H69095   2.842   3.982   5.003  0.1311 -0.5398 -0.5317
  512MOL0     H69096   3.138   3.919   4.983 -2.5097 -1.3300 -2.5644
  512MOL0     H69097   3.056   4.074   5.039 -4.4610  1.5722 -1.3713
  512MOL0     H69098   3.011   3.807   5.166  1.5759  0.5378  0.7016
  512MOL0     H69099   2.947   3.967   5.223  1.1096  1.9600  0.6737
  512MOL0     H69100   3.181   4.053   5.221  0.6423 -0.1640 -2.9965
  512MOL0     H69101   3.249   3.891   5.218  0.3229 -1.6953  1.6218
  512MOL0     H69102   3.331   3.658   4.456 -1.2474 -1.4947 -2.5453
  512MOL0     H69103   3.524   3.600   4.288  2.1667 -0.3739 -0.4811
  512MOL0     H69104   3.899   3.735   4.105 -1.7769  0.3105 -0.6595
  512MOL0     H69105   4.099   3.679   3.974  0.6135 -1.9706  1.0745
  512MOL0     H69106   5.243   4.238   3.139  1.0775 -0.2683  1.9884
  512MOL0     H69107   5.413   4.419   3.118 -1.8264  1.6543 -2.3096
  512MOL0     H69108   5.753   4.563   3.098 -3.6217 -2.3208 -3.7710
  512MOL0     H69109   5.909   4.750   3.147 -0.5733  1.7967 -0.7479
  512MOL0     H69110   6.218   4.894   2.839  1.3073  2.1678 -0.5569
  512MOL0     H69111   6.065   4.960   2.796 -0.8135 -0.2405 -0.3723
  512MOL0     H69112   6.074   5.144   2.944 -0.8599 -0.9328  1.0830
  512MOL0     H69113   6.228   5.135   2.860 -1.9813  0.0092 -0.4508
  512MOL0     H69114   6.329   5.025   3.055  0.6635  0.2119 -1.3085
  512MOL0     H69115   6.183   5.046   3.145  3.5641 -5.3142  0.0932
  512MOL0     H69116   6.371   5.220   3.173  1.7765 -0.5594 -2.1968
  512MOL0     H69117   6.200   5.274   3.166  0.3117 -2.4102  1.0157
  512MOL0     H69118   6.357   5.485   2.833  6.7581 -1.1328  0.2456
  512MOL0     H69119   5.991   4.791   2.731  1.5844  1.2214  2.2886
  512MOL0     H69120   5.832   4.621   2.679  1.6005 -2.0331 -0.0226
  513MOL0     O69121   2.861   5.255  10.263  0.7185  1.2801  0.6064
  513MOL0     C69122   2.898   5.371  10.240 -0.2111 -0.5622  0.1038
  513MOL0     O69123   2.820   5.476  10.214  0.0319  0.2529 -0.2176
  513MOL0     C69124   2.685   5.483  10.245  0.7211  0.0536  0.4223
  513MOL0     C69125   2.610   5.577  10.178  0.5361  0.1480 -1.2128
  513MOL0     C69126   2.482   5.621  10.234 -0.2472  0.3309 -0.9269
  513MOL0     C69127   2.423   5.547  10.338 -0.0288  0.3230  0.3101
  513MOL0     O69128   2.299   5.563  10.397  0.3266 -0.3454  0.2516
  513MOL0     C69129   2.221   5.683  10.356  0.0325 -0.2920  0.3733
  513MOL0     C69130   2.117   5.697  10.469 -0.4256 -0.9139  0.6875
  513MOL0     C69131   2.022   5.821  10.440 -0.2990 -0.6617  0.7038
  513MOL0     C69132   1.933   5.852  10.561  0.0434  0.3492  0.2729
  513MOL0     C69133   1.842   5.972  10.550 -0.2237 -0.3883 -0.0154
  513MOL0     C69134   1.773   6.011  10.685 -0.3437 -0.6859 -0.6221
  513MOL0     C69135   1.717   6.155  10.679 -0.2183  0.0135  0.4545
  513MOL0     C69136   1.699   6.231  10.811 -0.1354  1.1365  0.3962
  513MOL0     N69137   1.621   6.152  10.912  0.4752 -0.2931 -0.0601
  513MOL0     C69138   1.484   6.138  10.926  0.6434 -0.1001  0.4393
  513MOL0     C69139   1.472   6.062  11.035  0.1938 -0.4713 -0.8801
  513MOL0     C69140   1.347   6.004  11.106 -0.2441  0.6885 -0.3555
  513MOL0     C69141   1.249   6.106  11.156 -0.0600  0.3663 -0.1145
  513MOL0     C69142   1.286   6.197  11.272 -0.4269  0.3076 -0.1276
  513MOL0     C69143   1.181   6.305  11.296 -0.2068  0.4439  0.0661
  513MOL0     O69144   1.054   6.232  11.324 -0.6740 -0.5126 -0.1939
  513MOL0     C69145   1.030   6.186  11.452  0.7323 -0.5985  0.0513
  513MOL0     C69146   1.100   6.194  11.577  0.0668  0.2266 -0.7178
  513MOL0     C69147   1.033   6.167  11.695 -0.4944  0.4952  0.4153
  513MOL0     C69148   1.107   6.175  11.822  0.0961  0.1176 -0.0500
  513MOL0     C69149   0.903   6.122  11.684  0.3759  0.3818 -0.0286
  513MOL0     C69150   0.829   6.067  11.796 -0.4478 -0.1849 -0.8388
  513MOL0     O69151   0.772   5.953  11.767 -0.8198  0.5795 -0.3445
  513MOL0     C69152   0.672   5.892  11.836  1.0046  0.2678  0.7299
  513MOL0     C69153   0.599   5.945  11.943  0.2651  0.4008 -0.4484
  513MOL0     C69154   0.497   5.858  12.006  0.0093 -0.6494  1.0956
  513MOL0     C69155   0.488   5.717  11.979  0.1330 -0.6056  0.4528
  513MOL0     O69156   0.394   5.633  12.033 -0.0468  0.2017 -0.4471
  513MOL0     C69157   0.285   5.691  12.107 -0.8349 -0.1155  0.1890
  513MOL0     C69158   0.203   5.570  12.156 -0.0141  0.5124  0.2535
  513MOL0     C69159   0.070   5.611  12.223 -0.2575 -0.1301  0.0154
  513MOL0     C69160  -0.022   5.491  12.211 -0.1875 -0.2659 -0.1200
  513MOL0     C69161  -0.155   5.525  12.275  0.6857  0.8116 -0.6456
  513MOL0     C69162  -0.257   5.407  12.281 -0.3980 -0.0010  0.2740
  513MOL0     C69163  -0.207   5.308  12.386  0.1516 -0.5670  0.0050
  513MOL0     C69164  -0.285   5.178  12.394  0.6870  0.0768  0.0158
  513MOL0    Cl69165  -0.405   5.175  12.535 -0.1656  0.0375 -0.2376
  513MOL0     C69166   0.568   5.664  11.878 -0.2244 -0.0844  1.3049
  513MOL0     C69167   0.659   5.748  11.814  0.2601 -0.0243  0.1176
  513MOL0     O69168   0.826   6.127  11.903 -0.5527 -0.2336  0.1630
  513MOL0     C69169   0.826   6.122  11.561  0.3056  0.1186 -0.4226
  513MOL0     C69170   0.892   6.157  11.445  0.6366 -0.2608 -0.3217
  513MOL0     N69171   1.595   6.044  11.100  0.1042 -0.5688  0.1593
  513MOL0     N69172   1.678   6.098  11.026 -0.7460 -0.5753 -0.1756
  513MOL0     C69173   2.500   5.444  10.401  0.4519 -0.1840 -0.9862
  513MOL0     C69174   2.626   5.417  10.353  0.0698 -0.5110 -0.8721
  513MOL0     C69175   3.040   5.380  10.204 -0.2346 -0.3686  0.6631
  513MOL0     C69176   3.099   5.503  10.182 -0.2624 -1.5133 -0.6657
  513MOL0     C69177   3.238   5.510  10.159 -0.5377 -0.5422  0.0629
  513MOL0     C69178   3.323   5.398  10.180 -0.2598  0.4656  0.3754
  513MOL0     O69179   3.465   5.401  10.176  0.5842  0.0359 -0.2411
  513MOL0     C69180   3.507   5.446  10.042 -0.2216 -0.5865  0.8252
  513MOL0     C69181   3.660   5.432  10.034  0.3430 -0.3519 -0.0562
  513MOL0     C69182   3.735   5.542  10.112 -0.6823  0.3051  0.0401
  513MOL0     C69183   3.888   5.530  10.087  0.2327 -0.1981  0.5258
  513MOL0     C69184   3.952   5.435  10.180  0.2487 -0.0108 -0.0568
  513MOL0     C69185   3.995   5.345  10.251  0.1724 -0.0825 -1.1294
  513MOL0     C69186   3.263   5.275  10.195  0.4369  0.0111  0.5052
  513MOL0     C69187   3.119   5.266  10.211 -0.9857 -0.9008 -0.7764
  513MOL0     H69188   2.652   5.632  10.094 -1.0621  0.3383 -1.9423
  513MOL0     H69189   2.421   5.692  10.179 -2.9756 -0.9693  0.1930
  513MOL0     H69190   2.279   5.773  10.332  0.8239 -1.4462 -2.5121
  513MOL0     H69191   2.168   5.656  10.264  0.1003 -1.1328  0.5749
  513MOL0     H69192   2.057   5.607  10.486 -0.1187 -1.0369  1.1392
  513MOL0     H69193   2.165   5.717  10.565 -1.1801  5.1088  0.1838
  513MOL0     H69194   2.086   5.907  10.421 -2.5745  1.5800  2.4735
  513MOL0     H69195   1.971   5.797  10.347  1.5837 -2.7487  0.1300
  513MOL0     H69196   1.875   5.763  10.585 -1.0755  0.4498 -1.8086
  513MOL0     H69197   2.006   5.865  10.641  2.4170  1.9224 -1.9835
  513MOL0     H69198   1.909   6.047  10.507  1.8641 -0.2909  3.0303
  513MOL0     H69199   1.774   5.954  10.466  0.4683 -0.5623 -0.5467
  513MOL0     H69200   1.686   5.948  10.706  0.0621 -1.4696 -1.2137
  513MOL0     H69201   1.856   6.001  10.756  0.8434 -0.3629 -1.9166
  513MOL0     H69202   1.794   6.210  10.623 -0.3047  1.1588  1.4193
  513MOL0     H69203   1.622   6.153  10.625  1.1627 -3.8146 -2.3078
  513MOL0     H69204   1.662   6.333  10.802  2.8058  2.2839  0.2300
  513MOL0     H69205   1.795   6.252  10.858 -0.4983  1.4050  1.0400
  513MOL0     H69206   1.412   6.193  10.866  0.6951  0.1486  0.6057
  513MOL0     H69207   1.310   5.934  11.030 -0.4760  2.5047 -1.9944
  513MOL0     H69208   1.370   5.930  11.183 -2.8323 -0.7875 -0.8828
  513MOL0     H69209   1.158   6.047  11.170  0.1164 -0.0672 -0.7124
  513MOL0     H69210   1.228   6.168  11.068  0.7556  0.5154 -0.2192
  513MOL0     H69211   1.380   6.250  11.257 -0.6410  1.5925  2.4384
  513MOL0     H69212   1.290   6.140  11.366  0.8503  1.9258  0.8636
  513MOL0     H69213   1.180   6.364  11.203 -0.6155 -1.1299 -0.9795
  513MOL0     H69214   1.218   6.367  11.378  1.1419  3.4211 -2.5488
  513MOL0     H69215   1.205   6.223  11.576  0.2785 -0.3116  1.2996
  513MOL0     H69216   1.072   6.257  11.884  0.1580 -2.5843  3.9472
  513MOL0     H69217   1.078   6.089  11.883  0.8814  0.0171  0.1861
  513MOL0     H69218   1.215   6.175  11.809  0.4079 -2.5585  1.7052
  513MOL0     H69219   0.598   6.045  11.986 -3.1360 -0.4105  1.7863
  513MOL0     H69220   0.438   5.911  12.079 -1.6024  1.4087 -1.5061
  513MOL0     H69221   0.298   5.760  12.191  0.0356 -2.5635  2.2062
  513MOL0     H69222   0.228   5.753  12.038 -1.0467  1.4161  1.6671
  513MOL0     H69223   0.172   5.503  12.076 -1.8935  1.0457  0.5024
  513MOL0     H69224   0.259   5.497  12.215 -0.9443  0.1935  0.7597
  513MOL0     H69225   0.038   5.697  12.164  1.6346  1.9681  1.8629
  513MOL0     H69226   0.077   5.644  12.327  0.0576  1.0723 -0.3803
  513MOL0     H69227  -0.046   5.469  12.107  0.2595  2.6424 -0.9463
  513MOL0     H69228   0.021   5.401  12.255 -1.1417  0.1545  1.8080
  513MOL0     H69229  -0.200   5.609  12.222  0.4590  0.4485 -1.0332
  513MOL0     H69230  -0.150   5.567  12.376 -3.1395 -2.4465  1.1930
  513MOL0     H69231  -0.353   5.443  12.318  0.1383  2.6847 -0.6751
  513MOL0     H69232  -0.264   5.368  12.179  0.9559 -1.1101  0.5704
  513MOL0     H69233  -0.210   5.355  12.485  0.6309  2.6300 -1.3793
  513MOL0     H69234  -0.102   5.284  12.367  0.0193 -0.9713 -0.2344
  513MOL0     H69235  -0.211   5.098  12.404  2.2638  1.6956  2.4293
  513MOL0     H69236  -0.336   5.156  12.300  1.2425 -1.7323  0.1062
  513MOL0     H69237   0.556   5.558  11.858 -4.0939 -0.0939  2.6980
  513MOL0     H69238   0.712   5.688  11.740 -4.7332 -3.2437 -1.2906
  513MOL0     H69239   0.726   6.084  11.545  0.8471 -1.0921 -1.1154
  513MOL0     H69240   0.841   6.167  11.349 -0.5973 -0.6018  0.2796
  513MOL0     H69241   2.454   5.385  10.480 -2.1059  1.3273 -1.2467
  513MOL0     H69242   2.663   5.331  10.407 -0.8919  0.0749  0.7840
  513MOL0     H69243   3.036   5.590  10.169  0.9420 -0.7758 -1.8308
  513MOL0     H69244   3.276   5.611  10.142 -1.1757 -0.4994 -1.2400
  513MOL0     H69245   3.463   5.395   9.956  2.0589 -0.1712 -0.6819
  513MOL0     H69246   3.476   5.545  10.008  0.2085 -1.1238 -1.2711
  513MOL0     H69247   3.684   5.447   9.928 -1.3805 -0.1603 -0.4404
  513MOL0     H69248   3.694   5.331  10.060 -3.0714 -1.3404  1.0382
  513MOL0     H69249   3.727   5.536  10.220  0.8212 -0.9040  0.1163
  513MOL0     H69250   3.685   5.635  10.084 -5.1028 -2.2403 -1.3914
  513MOL0     H69251   3.932   5.630  10.098  1.1876 -0.4808 -0.5497
  513MOL0     H69252   3.915   5.501   9.985  0.3889  0.5059  0.3602
  513MOL0     H69253   4.017   5.266  10.319 -4.6108 -1.6703 -1.0171
  513MOL0     H69254   3.324   5.187  10.214  1.0120  0.4081  0.5092
  513MOL0     H69255   3.068   5.172  10.231  1.1039 -1.4161  2.8929
  514MOL0     O69256   8.882   4.777   9.302 -0.4428 -0.3014  0.7477
  514MOL0     C69257   8.856   4.774   9.420  0.0422 -0.1591  0.2942
  514MOL0     O69258   8.949   4.771   9.528 -0.5444  0.1475  0.0619
  514MOL0     C69259   9.079   4.760   9.486  0.0114 -0.1653  0.2211
  514MOL0     C69260   9.173   4.853   9.540  0.2248  0.8573  0.5403
  514MOL0     C69261   9.314   4.824   9.523  0.7419 -0.0708 -0.7273
  514MOL0     C69262   9.351   4.723   9.450  0.4002 -0.0546  0.3679
  514MOL0     O69263   9.486   4.729   9.418  0.1848  0.1949 -0.7140
  514MOL0     C69264   9.547   4.599   9.391 -0.7262  0.3309  0.0604
  514MOL0     C69265   9.689   4.630   9.345 -0.6641  0.7219  0.2601
  514MOL0     C69266   9.707   4.708   9.220  0.7469 -0.6721 -0.4788
  514MOL0     C69267   9.647   4.666   9.086  0.2458  0.4822  0.0685
  514MOL0     C69268   9.653   4.514   9.053  0.6790  0.3592 -0.2624
  514MOL0     C69269   9.800   4.461   9.047 -0.1497 -0.9005 -0.3034
  514MOL0     C69270   9.799   4.320   9.009  0.1907 -0.7538  0.4610
  514MOL0     C69271   9.941   4.271   9.029  0.3416 -0.5364 -0.5363
  514MOL0     N69272  10.011   4.246   8.898  0.3303 -0.0236 -0.1850
  514MOL0     C69273  10.056   4.118   8.861 -0.1845 -0.3713 -0.4329
  514MOL0     C69274  10.083   4.139   8.724  0.1665 -0.3435  0.3629
  514MOL0     C69275  10.147   4.040   8.635 -0.0865 -0.9443  0.4758
  514MOL0     C69276  10.051   3.988   8.521  0.8455 -1.3133 -0.6036
  514MOL0     C69277   9.943   3.890   8.587  0.3747 -0.0185 -0.2402
  514MOL0     C69278   9.898   3.783   8.477 -0.3706 -0.1308 -0.6359
  514MOL0     O69279   9.838   3.854   8.364 -0.5741  0.4387 -0.4722
  514MOL0     C69280   9.708   3.878   8.355 -0.7624  0.1438  1.4591
  514MOL0     C69281   9.665   3.908   8.224  0.3891 -0.2871  0.1519
  514MOL0     C69282   9.538   3.936   8.193  0.4409 -0.0204  0.5323
  514MOL0     C69283   9.524   3.996   8.054 -0.2306 -0.2794  0.1336
  514MOL0     C69284   9.436   3.935   8.295  0.2643 -0.3233  0.2536
  514MOL0     C69285   9.293   3.983   8.266  0.3150  0.4120 -0.2880
  514MOL0     O69286   9.223   4.060   8.364 -0.2238  0.1751  0.1476
  514MOL0     C69287   9.108   4.122   8.313 -0.0070 -1.2926 -0.8703
  514MOL0     C69288   9.118   4.224   8.221 -0.6474 -0.0742  1.0599
  514MOL0     C69289   8.997   4.287   8.167  0.0310 -0.1707 -0.8230
  514MOL0     C69290   8.872   4.221   8.185 -0.9534 -0.1880 -0.1227
  514MOL0     O69291   8.771   4.276   8.112 -0.3454 -0.4679  0.4780
  514MOL0     C69292   8.642   4.231   8.145 -0.3295  0.7600  0.4386
  514MOL0     C69293   8.550   4.299   8.038 -0.4781 -0.1335  0.7969
  514MOL0     C69294   8.586   4.234   7.901  1.0045 -0.7583 -0.2161
  514MOL0     C69295   8.592   4.078   7.894  0.5806 -0.8617  0.2860
  514MOL0     C69296   8.623   4.036   7.740  0.0481 -0.4466 -0.4345
  514MOL0     C69297   8.486   4.020   7.661 -0.8356 -0.3264  0.0882
  514MOL0     C69298   8.513   4.014   7.512 -0.7664 -0.0862 -0.1269
  514MOL0     C69299   8.389   3.978   7.436  0.1971  0.3368 -0.1231
  514MOL0    Cl69300   8.288   4.113   7.433 -0.0112  0.3117  0.0238
  514MOL0     C69301   8.869   4.112   8.277 -0.2477  0.5697  0.0154
  514MOL0     C69302   8.986   4.061   8.339 -0.4250 -0.7162  0.0672
  514MOL0     O69303   9.246   3.940   8.157  0.1403  1.0266 -0.1530
  514MOL0     C69304   9.481   3.931   8.428 -0.2635  1.3063  0.4243
  514MOL0     C69305   9.615   3.893   8.454 -0.3738 -0.0896 -0.7127
  514MOL0     N69306  10.062   4.268   8.693  0.2337  0.6125  0.5608
  514MOL0     N69307  10.018   4.332   8.791  1.1069  0.7162  0.6799
  514MOL0     C69308   9.256   4.629   9.389  0.2076  0.1033 -0.7084
  514MOL0     C69309   9.125   4.645   9.411  0.7277 -0.6627  0.6560
  514MOL0     C69310   8.716   4.804   9.453 -0.2595 -0.0586 -0.3782
  514MOL0     C69311   8.617   4.838   9.351 -0.4814 -0.4047 -0.4626
  514MOL0     C69312   8.498   4.897   9.387 -0.8188 -0.3393  1.6290
  514MOL0     C69313   8.477   4.919   9.520  1.0860 -0.8778 -0.8568
  514MOL0     O69314   8.346   4.979   9.545  0.4726  0.6160  0.8877
  514MOL0     C69315   8.257   4.900   9.624 -0.0089  0.2892 -0.6670
  514MOL0     C69316   8.185   4.800   9.532 -0.2055  0.5567  0.7835
  514MOL0     C69317   8.089   4.872   9.441  0.0214  0.0768  0.3404
  514MOL0     C69318   8.021   4.792   9.331  0.5579  0.0096  0.2146
  514MOL0     C69319   7.990   4.877   9.209  0.0101 -0.0854  0.1028
  514MOL0     C69320   7.958   4.939   9.111  0.1072 -0.4857  0.2722
  514MOL0     C69321   8.557   4.876   9.620  0.1455 -0.3521 -0.8731
  514MOL0     C69322   8.679   4.817   9.584  0.0306 -0.0007  0.6691
  514MOL0     H69323   9.134   4.929   9.607 -4.2454  0.1410 -0.9001
  514MOL0     H69324   9.388   4.887   9.572 -0.4959 -0.1526  1.3795
  514MOL0     H69325   9.551   4.528   9.475 -0.5752 -0.8137 -0.8899
  514MOL0     H69326   9.493   4.561   9.304 -2.3042 -0.4491  1.3259
  514MOL0     H69327   9.745   4.674   9.428 -1.4306 -2.1430  2.4234
  514MOL0     H69328   9.734   4.534   9.317  0.8507  0.9686  1.6478
  514MOL0     H69329   9.679   4.810   9.246  0.3300 -0.5709 -1.3048
  514MOL0     H69330   9.815   4.724   9.205  0.8383  0.9578  1.5356
  514MOL0     H69331   9.539   4.685   9.094  0.1389 -0.3912  0.9655
  514MOL0     H69332   9.682   4.717   8.996  0.8288 -1.9729 -1.2080
  514MOL0     H69333   9.604   4.448   9.125 -0.1293 -1.5319 -2.4230
  514MOL0     H69334   9.589   4.506   8.964  1.1256  1.3546 -0.6815
  514MOL0     H69335   9.858   4.527   8.981 -1.3361  0.3275 -0.1469
  514MOL0     H69336   9.844   4.472   9.146 -0.1891  1.3731 -0.5004
  514MOL0     H69337   9.714   4.270   9.055 -0.6203  1.5155  1.5695
  514MOL0     H69338   9.763   4.320   8.906  2.0184 -0.8761 -0.2262
  514MOL0     H69339   9.937   4.173   9.077 -1.0436 -0.1979  0.1217
  514MOL0     H69340  10.003   4.333   9.094 -1.0235 -2.2395  2.6034
  514MOL0     H69341  10.073   4.033   8.926 -0.5170  2.8928  4.4529
  514MOL0     H69342  10.230   4.096   8.593 -0.9728  1.8657  2.1384
  514MOL0     H69343  10.188   3.956   8.692 -1.1006 -1.1444  0.9347
  514MOL0     H69344  10.105   3.928   8.446  1.1442 -0.7652 -0.8349
  514MOL0     H69345  10.003   4.069   8.466 -1.3911 -2.8017 -1.0100
  514MOL0     H69346   9.872   3.965   8.621  0.0510 -0.3375 -0.2058
  514MOL0     H69347   9.992   3.838   8.670 -1.3810 -1.0673  0.1938
  514MOL0     H69348   9.837   3.705   8.524 -0.1690 -0.4727 -0.9377
  514MOL0     H69349   9.979   3.718   8.444  0.1059  0.8616 -1.5021
  514MOL0     H69350   9.741   3.918   8.147 -0.4654 -4.2206 -1.4544
  514MOL0     H69351   9.529   4.106   8.058 -1.5136 -0.1850 -0.2535
  514MOL0     H69352   9.593   3.962   7.977 -1.8676  0.6944 -1.8967
  514MOL0     H69353   9.429   3.961   8.013 -0.1520 -0.8889  0.4735
  514MOL0     H69354   9.210   4.280   8.213 -1.5837  2.2722  4.5179
  514MOL0     H69355   8.992   4.374   8.103 -5.2733 -0.6886 -1.5577
  514MOL0     H69356   8.635   4.121   8.148 -2.3863  0.8087 -0.9021
  514MOL0     H69357   8.607   4.271   8.241  0.0416 -1.2617  1.4811
  514MOL0     H69358   8.444   4.296   8.065 -0.1991 -1.3060  1.8828
  514MOL0     H69359   8.582   4.403   8.028  3.8907 -1.1077  2.5368
  514MOL0     H69360   8.679   4.274   7.860  1.0675 -2.0727 -1.4519
  514MOL0     H69361   8.511   4.273   7.831  1.3701 -1.2784 -0.9150
  514MOL0     H69362   8.668   4.031   7.957  0.7116 -0.3991  0.4804
  514MOL0     H69363   8.491   4.050   7.922  0.7960 -3.1037 -0.9394
  514MOL0     H69364   8.681   3.944   7.751  0.6220  0.1439  2.1365
  514MOL0     H69365   8.686   4.114   7.698  2.1240  1.0363  4.6379
  514MOL0     H69366   8.421   3.936   7.686 -0.1930 -1.6449 -2.3469
  514MOL0     H69367   8.424   4.108   7.679 -0.0063  0.4162 -0.5948
  514MOL0     H69368   8.593   3.943   7.491  0.5519  1.8856 -2.2654
  514MOL0     H69369   8.562   4.106   7.478  3.1337 -1.4736  1.2577
  514MOL0     H69370   8.344   3.895   7.491  1.5427 -1.0828 -1.0687
  514MOL0     H69371   8.413   3.942   7.336  1.2386  3.4801 -1.1181
  514MOL0     H69372   8.776   4.057   8.291  1.0037 -1.1636  2.0361
  514MOL0     H69373   8.989   3.979   8.410 -0.4977  1.1951  2.4101
  514MOL0     H69374   9.418   3.961   8.511  0.2673  2.1570  0.5230
  514MOL0     H69375   9.645   3.865   8.554  0.6063  0.7041 -0.7730
  514MOL0     H69376   9.290   4.542   9.333 -2.0665  0.0752 -2.1714
  514MOL0     H69377   9.060   4.563   9.382  0.4751 -0.6134  1.0703
  514MOL0     H69378   8.635   4.806   9.249 -2.0227 -2.0224 -0.2751
  514MOL0     H69379   8.428   4.918   9.307  1.1797 -0.1574 -0.1701
  514MOL0     H69380   8.313   4.843   9.699 -2.5326  0.8157  1.7615
  514MOL0     H69381   8.195   4.966   9.686  1.3484 -0.2260  1.3366
  514MOL0     H69382   8.129   4.727   9.591 -1.0360 -0.8852 -1.6542
  514MOL0     H69383   8.246   4.736   9.467  0.1403  1.2811  0.3930
  514MOL0     H69384   8.145   4.954   9.397 -1.2150  1.3180  0.9871
  514MOL0     H69385   8.008   4.924   9.495 -2.9424 -2.1752 -1.5987
  514MOL0     H69386   7.928   4.746   9.366  1.0469 -1.4507 -0.3018
  514MOL0     H69387   8.087   4.708   9.304  0.3172 -0.2716  0.4943
  514MOL0     H69388   7.934   4.988   9.019 -0.0928  2.3670  1.7340
  514MOL0     H69389   8.533   4.896   9.724  2.3548 -1.4096 -0.1219
  514MOL0     H69390   8.743   4.783   9.666  4.3396 -1.4569 -2.8989
  515MOL0     O69391   0.960   2.808   7.221 -0.3601  0.2134  0.5758
  515MOL0     C69392   0.911   2.853   7.324 -0.3592 -0.6521  0.0425
  515MOL0     O69393   0.982   2.895   7.428 -0.5828 -0.7761  0.3325
  515MOL0     C69394   1.118   2.879   7.450 -0.0667 -0.1931  0.4872
  515MOL0     C69395   1.198   2.767   7.416  0.7632  0.3780  0.3636
  515MOL0     C69396   1.334   2.752   7.456 -0.7330  0.1975  0.2041
  515MOL0     C69397   1.402   2.852   7.525 -0.2806  1.1156 -1.0333
  515MOL0     O69398   1.528   2.846   7.567 -0.2061 -0.0336 -0.3804
  515MOL0     C69399   1.566   2.744   7.664  0.5898  0.0861 -0.7970
  515MOL0     C69400   1.712   2.698   7.642 -0.4301 -0.2444 -0.8751
  515MOL0     C69401   1.779   2.654   7.772  0.0623  0.2744  0.1481
  515MOL0     C69402   1.933   2.647   7.744  0.5261  0.3313 -0.7100
  515MOL0     C69403   1.990   2.581   7.874 -0.4891 -0.6824  0.4647
  515MOL0     C69404   2.137   2.540   7.849 -0.4894  0.6020 -0.2515
  515MOL0     C69405   2.208   2.451   7.959  0.9877 -0.1833  0.6311
  515MOL0     C69406   2.358   2.448   7.949 -0.3348  0.4238 -0.0419
  515MOL0     N69407   2.420   2.367   8.067 -0.0774  0.0122 -0.2808
  515MOL0     C69408   2.394   2.241   8.099 -0.6293  0.3845 -0.5797
  515MOL0     C69409   2.476   2.211   8.200 -1.1531  0.4522 -0.2493
  515MOL0     C69410   2.477   2.084   8.287  0.6377 -0.4753 -0.5599
  515MOL0     C69411   2.382   2.094   8.402 -0.0716  0.0120  0.0048
  515MOL0     C69412   2.266   1.996   8.396 -0.4825 -0.7295  1.1593
  515MOL0     C69413   2.150   2.066   8.331  0.7694  0.0315  0.0780
  515MOL0     O69414   2.155   2.062   8.185 -1.2127  0.5647 -0.5777
  515MOL0     C69415   2.051   2.110   8.109 -0.3405 -0.1156 -0.0108
  515MOL0     C69416   2.057   2.091   7.971 -0.9554 -0.0162 -0.1373
  515MOL0     C69417   1.958   2.132   7.888 -0.0602 -0.7018 -0.5838
  515MOL0     C69418   1.976   2.085   7.745  0.0195 -0.1905  0.8293
  515MOL0     C69419   1.849   2.212   7.940  0.7157 -0.6593  0.2352
  515MOL0     C69420   1.739   2.278   7.860  0.3245  1.1561 -0.2162
  515MOL0     O69421   1.636   2.320   7.928  0.0289 -0.5554 -0.4701
  515MOL0     C69422   1.524   2.371   7.866  0.1478  0.3997 -0.3156
  515MOL0     C69423   1.477   2.341   7.735 -0.3652  0.2973  0.5497
  515MOL0     C69424   1.355   2.395   7.690 -0.0532 -0.4418  1.3224
  515MOL0     C69425   1.281   2.494   7.761  1.3934 -0.2818  0.8118
  515MOL0     O69426   1.159   2.546   7.722 -0.5857  0.6256  1.0152
  515MOL0     C69427   1.085   2.471   7.623  0.0404  0.2454  0.7202
  515MOL0     C69428   0.951   2.543   7.626 -0.7018 -1.1408 -0.6605
  515MOL0     C69429   0.855   2.494   7.523 -1.1141 -0.4523 -0.4810
  515MOL0     C69430   0.713   2.504   7.565  0.3435 -0.2237  0.2349
  515MOL0     C69431   0.631   2.467   7.449 -0.0101  0.7344  0.7275
  515MOL0     C69432   0.480   2.471   7.479 -0.0458 -0.5635 -0.2359
  515MOL0     C69433   0.398   2.420   7.362 -0.1226 -0.1542 -0.4064
  515MOL0     C69434   0.258   2.447   7.410  0.6191  0.2836 -0.2747
  515MOL0    Cl69435   0.155   2.377   7.276 -0.0939 -0.5030 -0.3133
  515MOL0     C69436   1.321   2.524   7.892  0.8044 -0.0983  0.2750
  515MOL0     C69437   1.446   2.468   7.935 -0.6240  0.3641  0.4224
  515MOL0     O69438   1.738   2.251   7.743 -0.0664  0.2188  0.5764
  515MOL0     C69439   1.856   2.253   8.079 -0.7412  0.2761  0.5309
  515MOL0     C69440   1.941   2.181   8.161 -0.8473  0.7277  1.5081
  515MOL0     N69441   2.561   2.312   8.221  0.3456 -0.8190 -0.4815
  515MOL0     N69442   2.533   2.406   8.133  0.7565  0.7073  0.1974
  515MOL0     C69443   1.319   2.964   7.555 -0.8088 -0.2884 -0.3639
  515MOL0     C69444   1.185   2.980   7.521  0.1653 -0.1123 -0.4207
  515MOL0     C69445   0.766   2.873   7.340 -0.4517  0.1960 -0.1772
  515MOL0     C69446   0.718   2.930   7.459  1.1457  0.0644  0.2496
  515MOL0     C69447   0.579   2.943   7.487 -0.5851 -0.4026 -0.6058
  515MOL0     C69448   0.485   2.899   7.388 -0.7413 -0.3097 -0.3097
  515MOL0     O69449   0.347   2.924   7.398  0.1674  1.0767  0.5348
  515MOL0     C69450   0.296   2.946   7.526 -0.3223  0.8188  0.2737
  515MOL0     C69451   0.151   2.949   7.526  0.6684  0.0544 -0.3624
  515MOL0     C69452   0.090   2.822   7.447  0.4934  0.1190  0.3485
  515MOL0     C69453  -0.068   2.836   7.429 -0.5451  0.4778 -0.9055
  515MOL0     C69454  -0.144   2.863   7.551 -0.0324  0.4595  0.4019
  515MOL0     C69455  -0.210   2.900   7.651 -0.5194  0.3538 -0.5159
  515MOL0     C69456   0.534   2.855   7.261  0.4416  0.3167  0.1446
  515MOL0     C69457   0.676   2.833   7.239  0.4842  0.3239 -0.6791
  515MOL0     H69458   1.160   2.678   7.367  2.8604 -0.4691  0.1701
  515MOL0     H69459   1.386   2.656   7.458  1.6083  1.3926 -0.1147
  515MOL0     H69460   1.538   2.779   7.764  0.9539 -0.8736 -0.3536
  515MOL0     H69461   1.499   2.660   7.643 -1.8065  0.8770  2.8462
  515MOL0     H69462   1.705   2.614   7.573 -1.3752 -1.9574  1.1906
  515MOL0     H69463   1.774   2.780   7.605 -2.4607  1.3930 -0.8499
  515MOL0     H69464   1.743   2.722   7.850  1.6234  0.4064  0.8090
  515MOL0     H69465   1.743   2.552   7.790 -0.0623  0.2329 -0.3404
  515MOL0     H69466   1.944   2.595   7.648  1.6000 -1.7987  0.5034
  515MOL0     H69467   1.980   2.744   7.726  2.3305 -0.1553  1.0775
  515MOL0     H69468   1.982   2.647   7.961  5.0839 -0.0058  0.8118
  515MOL0     H69469   1.937   2.487   7.887  1.7347 -2.1041 -0.2710
  515MOL0     H69470   2.139   2.503   7.746 -0.0999  0.8809 -0.3471
  515MOL0     H69471   2.188   2.636   7.838 -1.9999  1.5013  0.1818
  515MOL0     H69472   2.177   2.482   8.059 -1.4108  0.3047 -0.2021
  515MOL0     H69473   2.171   2.348   7.949 -0.2374  0.2440  0.6540
  515MOL0     H69474   2.390   2.552   7.942 -3.0425  1.7078  3.5025
  515MOL0     H69475   2.386   2.412   7.850  0.0432 -0.1196  0.2538
  515MOL0     H69476   2.338   2.162   8.050  0.3845 -1.0522  0.4900
  515MOL0     H69477   2.451   2.000   8.221 -1.7912 -0.8944  0.8140
  515MOL0     H69478   2.577   2.061   8.324  1.9218  1.1094 -2.7962
  515MOL0     H69479   2.346   2.197   8.403  2.1732  0.9697 -3.0384
  515MOL0     H69480   2.439   2.059   8.489 -2.0387  0.2167  1.4587
  515MOL0     H69481   2.242   1.952   8.493  2.1085 -2.1119  1.2732
  515MOL0     H69482   2.305   1.910   8.340  2.6872  0.4112  1.4026
  515MOL0     H69483   2.140   2.167   8.373 -2.0249  0.4672 -1.4431
  515MOL0     H69484   2.061   2.007   8.352 -1.1973  2.1922 -1.6705
  515MOL0     H69485   2.147   2.044   7.935 -1.9047 -4.6411  2.7428
  515MOL0     H69486   2.055   2.010   7.730  0.4793  0.4580 -0.0652
  515MOL0     H69487   1.876   2.048   7.722 -0.4377  1.9426 -0.9254
  515MOL0     H69488   2.014   2.164   7.680 -0.7132 -0.1288  0.4746
  515MOL0     H69489   1.521   2.266   7.670 -3.6898  0.4522 -2.2043
  515MOL0     H69490   1.319   2.366   7.592 -0.4737 -2.1868  1.9656
  515MOL0     H69491   1.139   2.486   7.529 -2.6164  4.2870 -0.4312
  515MOL0     H69492   1.057   2.366   7.640 -4.6335  0.7317 -2.1674
  515MOL0     H69493   0.908   2.525   7.725  2.3688 -2.3053  0.5943
  515MOL0     H69494   0.963   2.650   7.612 -4.4243 -0.4893  0.0279
  515MOL0     H69495   0.878   2.396   7.479  1.7072  0.7651 -1.9341
  515MOL0     H69496   0.865   2.568   7.443  0.5863  3.0112  2.6458
  515MOL0     H69497   0.696   2.443   7.654  1.0691  2.2624  2.1730
  515MOL0     H69498   0.676   2.605   7.587 -2.4598 -0.2597 -3.2848
  515MOL0     H69499   0.661   2.363   7.430  0.7395  1.1889 -0.7119
  515MOL0     H69500   0.650   2.525   7.359  2.2156 -0.0313  0.6583
  515MOL0     H69501   0.456   2.424   7.576 -3.8714  1.0546 -0.2375
  515MOL0     H69502   0.453   2.575   7.496 -0.6788 -0.7699  0.0500
  515MOL0     H69503   0.420   2.315   7.342  0.1837 -0.4315  1.2623
  515MOL0     H69504   0.429   2.478   7.275 -2.6683 -1.0075 -1.9784
  515MOL0     H69505   0.236   2.553   7.425 -0.0940  0.0874  0.1384
  515MOL0     H69506   0.237   2.396   7.505  0.9088  2.0123  0.7666
  515MOL0     H69507   1.263   2.591   7.955 -0.6135  0.9691 -2.0438
  515MOL0     H69508   1.472   2.475   8.040 -3.2651 -0.3834  1.2086
  515MOL0     H69509   1.778   2.317   8.119 -1.0202 -0.3548  1.0090
  515MOL0     H69510   1.929   2.187   8.269  2.4098  0.3121  2.0055
  515MOL0     H69511   1.361   3.040   7.620  1.4032 -1.9108  0.2233
  515MOL0     H69512   1.133   3.066   7.562 -2.0094 -1.2594 -0.6097
  515MOL0     H69513   0.786   2.968   7.534 -0.6851 -0.8848  2.5042
  515MOL0     H69514   0.537   2.989   7.576  0.6623 -0.5748  0.0919
  515MOL0     H69515   0.319   2.869   7.600 -0.3999  1.6404  1.1800
  515MOL0     H69516   0.349   3.032   7.568  1.3370  0.1778 -0.4503
  515MOL0     H69517   0.107   3.042   7.489  0.3273  1.4074  3.0143
  515MOL0     H69518   0.119   2.945   7.631  4.1589  0.3659  0.8368
  515MOL0     H69519   0.103   2.731   7.506 -4.1963 -0.8633  0.2288
  515MOL0     H69520   0.139   2.793   7.354 -2.1142 -1.7267 -0.5650
  515MOL0     H69521  -0.109   2.745   7.384 -1.3672 -2.4458  4.9015
  515MOL0     H69522  -0.082   2.921   7.361  1.4938  1.1843 -0.5266
  515MOL0     H69523  -0.249   2.926   7.747  1.6754 -2.2506  1.2526
  515MOL0     H69524   0.461   2.836   7.183  1.1402  2.9206 -1.2848
  515MOL0     H69525   0.712   2.790   7.146  0.4604 -1.5648  0.1263
  516MOL0     O69526  11.157   2.750   4.145  0.0164 -0.0177  0.1289
  516MOL0     C69527  11.263   2.772   4.198  0.7719 -0.2961  0.3719
  516MOL0     O69528  11.279   2.844   4.313  0.8742 -0.1866  0.2360
  516MOL0     C69529  11.177   2.913   4.370  0.5629 -0.1909 -0.2301
  516MOL0     C69530  11.051   2.854   4.388  1.0354  0.0936  1.5238
  516MOL0     C69531  10.943   2.930   4.428  0.2914  0.4783 -0.0801
  516MOL0     C69532  10.957   3.060   4.471  0.1201 -0.1134  0.4281
  516MOL0     O69533  10.846   3.123   4.514  0.7650  0.6196 -0.0742
  516MOL0     C69534  10.843   3.270   4.528 -0.3635 -0.2794  0.4195
  516MOL0     C69535  10.836   3.314   4.677 -0.0765  0.0681 -0.2120
  516MOL0     C69536  10.707   3.266   4.746  0.3187 -0.0545 -0.0097
  516MOL0     C69537  10.589   3.362   4.732 -0.1586 -0.1480 -0.9094
  516MOL0     C69538  10.458   3.293   4.749 -0.3329  1.0810  0.4318
  516MOL0     C69539  10.332   3.382   4.729 -0.3696 -2.0650  0.9068
  516MOL0     C69540  10.209   3.290   4.732 -0.9688  0.2658  0.4753
  516MOL0     C69541  10.088   3.372   4.781 -0.5893  0.9082  0.6079
  516MOL0     N69542   9.962   3.301   4.734 -0.7039  0.1448 -0.5786
  516MOL0     C69543   9.883   3.242   4.826  0.3001  1.1044  0.3488
  516MOL0     C69544   9.772   3.207   4.757 -0.0486  0.6775 -0.5877
  516MOL0     C69545   9.640   3.153   4.816  0.3817 -0.0015 -0.4378
  516MOL0     C69546   9.544   3.267   4.864  0.1876 -0.4038 -0.0102
  516MOL0     C69547   9.400   3.214   4.906  0.7719 -0.4886 -0.1796
  516MOL0     C69548   9.387   3.140   5.040  0.7853  0.5423 -0.4145
  516MOL0     O69549   9.254   3.096   5.046 -0.3697  0.1820  0.7598
  516MOL0     C69550   9.147   3.185   5.083 -0.0237 -0.0076 -0.4989
  516MOL0     C69551   9.048   3.235   4.989  0.4019 -0.3502  0.3769
  516MOL0     C69552   8.947   3.325   5.034 -0.1612 -0.0097 -0.0901
  516MOL0     C69553   8.852   3.374   4.929  0.3020  0.4536 -0.1713
  516MOL0     C69554   8.941   3.367   5.170 -0.0184  0.0192  0.0430
  516MOL0     C69555   8.833   3.461   5.226  0.2457 -0.3074  0.1363
  516MOL0     O69556   8.761   3.538   5.135  0.2965 -0.1729 -0.8088
  516MOL0     C69557   8.650   3.599   5.191  0.0614 -0.2399  0.9076
  516MOL0     C69558   8.531   3.536   5.161 -1.3453  0.2202 -1.1000
  516MOL0     C69559   8.411   3.588   5.189  0.0573 -0.3387 -0.5133
  516MOL0     C69560   8.410   3.715   5.260 -0.1400  0.6059  0.1526
  516MOL0     O69561   8.286   3.769   5.293  0.1704 -0.3103 -0.0261
  516MOL0     C69562   8.281   3.901   5.352  0.6033  0.3786  0.1181
  516MOL0     C69563   8.144   3.939   5.395  0.4293 -0.0170 -1.3690
  516MOL0     C69564   8.039   3.971   5.289  0.0462  1.2202  0.3965
  516MOL0     C69565   7.946   4.066   5.325  0.7563  0.1971  0.6177
  516MOL0     C69566   7.835   4.049   5.222  0.2299 -0.0488 -0.4984
  516MOL0     C69567   7.721   4.151   5.248 -0.1830  0.5584 -0.6721
  516MOL0     C69568   7.618   4.140   5.138  0.2002 -0.1500  0.4736
  516MOL0     C69569   7.512   4.249   5.152  0.4150  1.2212  0.6555
  516MOL0    Cl69570   7.418   4.234   5.298 -0.4992 -0.2116 -0.3045
  516MOL0     C69571   8.532   3.785   5.283  0.1895 -0.0041  0.2982
  516MOL0     C69572   8.653   3.722   5.252  0.7252  0.1774  0.1221
  516MOL0     O69573   8.818   3.458   5.345 -0.6455 -0.1060  0.1318
  516MOL0     C69574   9.042   3.326   5.260 -0.0790  0.8943 -0.7673
  516MOL0     C69575   9.139   3.235   5.217 -0.2457  0.2043 -0.2269
  516MOL0     N69576   9.782   3.251   4.625  0.5439 -0.2132 -0.4193
  516MOL0     N69577   9.893   3.311   4.617  0.1139  0.6436  0.7984
  516MOL0     C69578  11.088   3.113   4.489  0.0814  0.1162  0.0840
  516MOL0     C69579  11.197   3.037   4.439  1.0656  0.0801 -0.1419
  516MOL0     C69580  11.382   2.713   4.137  0.7417 -1.5111 -0.0034
  516MOL0     C69581  11.506   2.701   4.206  0.0749  0.8401  0.3796
  516MOL0     C69582  11.618   2.676   4.138 -0.4176  0.0435  0.4850
  516MOL0     C69583  11.621   2.652   4.004  0.2144  0.3230  0.8715
  516MOL0     O69584  11.724   2.628   3.920 -0.2977  0.0038 -0.8989
  516MOL0     C69585  11.856   2.617   3.969  0.8400  0.3816  0.9523
  516MOL0     C69586  11.953   2.630   3.856 -0.0462 -0.0613 -0.1383
  516MOL0     C69587  11.932   2.767   3.780 -0.5972  0.2072 -0.1015
  516MOL0     C69588  12.021   2.787   3.653 -0.7078 -0.9271  0.5323
  516MOL0     C69589  12.162   2.763   3.675  0.2204 -0.7076  0.9558
  516MOL0     C69590  12.278   2.754   3.677 -0.7331 -0.1073  0.3360
  516MOL0     C69591  11.494   2.638   3.938  0.4965  0.1594 -0.5493
  516MOL0     C69592  11.379   2.670   4.003 -0.0882  0.1823  0.4280
  516MOL0     H69593  11.040   2.756   4.342  4.4795  1.3801 -2.8213
  516MOL0     H69594  10.842   2.891   4.420  1.2224 -1.9873 -0.8821
  516MOL0     H69595  10.929   3.319   4.482 -0.4086  0.5893  1.2301
  516MOL0     H69596  10.757   3.306   4.470 -0.6210  1.2213  1.6433
  516MOL0     H69597  10.912   3.276   4.745 -1.6018  0.9795  2.1368
  516MOL0     H69598  10.846   3.422   4.669  0.6028 -0.0914 -2.0348
  516MOL0     H69599  10.674   3.172   4.699 -0.1685  0.2097 -0.2071
  516MOL0     H69600  10.723   3.239   4.851 -0.5695 -0.7628 -0.0365
  516MOL0     H69601  10.609   3.444   4.802  3.0299 -0.4706 -1.3088
  516MOL0     H69602  10.594   3.411   4.635  3.4829  2.4046  0.3674
  516MOL0     H69603  10.437   3.210   4.680 -0.5518  2.8808 -1.8090
  516MOL0     H69604  10.439   3.251   4.848 -1.9902 -0.5546 -0.5180
  516MOL0     H69605  10.330   3.463   4.802  3.3663 -0.5867 -0.3952
  516MOL0     H69606  10.337   3.427   4.629 -4.1163  0.1391  1.5329
  516MOL0     H69607  10.191   3.260   4.629  1.9708 -2.0565  0.4974
  516MOL0     H69608  10.221   3.200   4.793  1.0108 -1.2379 -1.9280
  516MOL0     H69609  10.089   3.471   4.735  2.6148  0.6721 -0.0221
  516MOL0     H69610  10.086   3.382   4.890  2.4206 -2.2116  1.1212
  516MOL0     H69611   9.893   3.244   4.934 -1.6871  1.2002  0.5819
  516MOL0     H69612   9.587   3.087   4.747  2.2639 -2.6297  0.4643
  516MOL0     H69613   9.652   3.091   4.905 -4.2339 -1.2347 -0.4334
  516MOL0     H69614   9.527   3.347   4.791 -2.1685 -1.1977 -0.3889
  516MOL0     H69615   9.592   3.313   4.952  1.4707 -3.8038  1.2579
  516MOL0     H69616   9.351   3.172   4.818  0.2458  0.6308 -0.4459
  516MOL0     H69617   9.345   3.308   4.916  3.4304  1.0790  1.0796
  516MOL0     H69618   9.428   3.205   5.118 -0.1494  0.9544 -0.2480
  516MOL0     H69619   9.447   3.049   5.038  0.2076  0.0268  2.3011
  516MOL0     H69620   9.046   3.210   4.883  1.9884  0.7384  0.0595
  516MOL0     H69621   8.748   3.356   4.959  0.7596 -3.4566 -0.3966
  516MOL0     H69622   8.871   3.478   4.903 -1.6558  0.7104 -0.7255
  516MOL0     H69623   8.856   3.316   4.837 -1.4727 -3.2309  1.8208
  516MOL0     H69624   8.529   3.444   5.102 -1.3676 -0.0332 -0.7069
  516MOL0     H69625   8.318   3.536   5.168 -0.6132  0.6753 -0.1112
  516MOL0     H69626   8.351   3.895   5.435  1.7096  0.5604 -0.7729
  516MOL0     H69627   8.328   3.974   5.285 -0.1183  1.6466  0.9316
  516MOL0     H69628   8.099   3.864   5.461 -0.6609  2.0587  0.4021
  516MOL0     H69629   8.159   4.022   5.465 -2.0107 -0.7489  0.1604
  516MOL0     H69630   7.987   3.883   5.250  0.4047  1.9280 -1.7812
  516MOL0     H69631   8.092   4.017   5.205 -0.2858  1.0392  0.0829
  516MOL0     H69632   7.910   4.048   5.427  2.3782 -0.6997  1.0671
  516MOL0     H69633   7.984   4.169   5.314 -1.6636  1.1847  0.8629
  516MOL0     H69634   7.790   3.950   5.219 -1.0898  0.4801  0.7656
  516MOL0     H69635   7.878   4.062   5.122 -0.8684 -2.1313 -1.2988
  516MOL0     H69636   7.670   4.127   5.342 -0.0879  1.4635 -0.3772
  516MOL0     H69637   7.765   4.252   5.249 -0.1052  0.6250  2.6915
  516MOL0     H69638   7.569   4.045   5.163 -1.3525  1.3111  3.7766
  516MOL0     H69639   7.664   4.140   5.040 -2.0530 -2.1994 -0.6985
  516MOL0     H69640   7.446   4.231   5.067 -2.1092 -4.8170  3.3237
  516MOL0     H69641   7.553   4.350   5.155  0.3165  1.4145 -2.1041
  516MOL0     H69642   8.528   3.886   5.324 -0.0601  0.1655 -0.1292
  516MOL0     H69643   8.754   3.758   5.270  0.7585  0.2467 -0.1978
  516MOL0     H69644   9.045   3.361   5.362  2.6554 -0.5658 -0.2649
  516MOL0     H69645   9.211   3.216   5.297  0.6234 -1.8207 -1.4255
  516MOL0     H69646  11.108   3.217   4.510 -1.3322  0.4367 -0.0639
  516MOL0     H69647  11.293   3.087   4.444  1.9739 -1.5260 -0.7261
  516MOL0     H69648  11.499   2.720   4.312  0.3453  2.6730  0.1084
  516MOL0     H69649  11.711   2.657   4.191  0.6088 -0.4934 -1.4010
  516MOL0     H69650  11.876   2.706   4.029 -0.4056  0.4138  1.3497
  516MOL0     H69651  11.867   2.523   4.023  0.0613  0.1648  0.7547
  516MOL0     H69652  11.941   2.544   3.789 -3.3932  1.4390 -1.6895
  516MOL0     H69653  12.058   2.631   3.889 -0.2174 -1.7844  0.5608
  516MOL0     H69654  11.949   2.840   3.859  0.2858 -2.6779  2.5605
  516MOL0     H69655  11.829   2.775   3.743  0.3310  0.1389 -2.9816
  516MOL0     H69656  12.012   2.888   3.611 -2.3910 -0.6161  1.5418
  516MOL0     H69657  11.991   2.725   3.568  2.0641 -1.3411 -0.2558
  516MOL0     H69658  12.379   2.719   3.686 -0.6938  0.3418  1.9750
  516MOL0     H69659  11.498   2.603   3.835 -1.2383  1.7092 -1.2110
  516MOL0     H69660  11.288   2.670   3.942  0.7855  0.3345 -0.9174
  517MOL0     O69661   7.386   8.653  10.952  0.0418  0.1518 -0.4467
  517MOL0     C69662   7.430   8.557  10.884 -0.2071 -0.6658  0.7127
  517MOL0     O69663   7.363   8.475  10.811 -0.0739  0.6458  0.5968
  517MOL0     C69664   7.231   8.475  10.791  0.3456 -0.1001  1.0578
  517MOL0     C69665   7.190   8.411  10.673  0.3164 -0.6058  0.2855
  517MOL0     C69666   7.055   8.417  10.616  0.0783  0.7633 -0.3646
  517MOL0     C69667   6.955   8.455  10.704  0.1473  0.1434  0.4424
  517MOL0     O69668   6.820   8.432  10.668 -0.1180  0.0114  0.1410
  517MOL0     C69669   6.721   8.480  10.755  0.1584  0.2675 -0.1154
  517MOL0     C69670   6.591   8.475  10.676 -0.0525 -0.0417 -0.3334
  517MOL0     C69671   6.482   8.467  10.774 -0.0979 -0.3222 -0.2438
  517MOL0     C69672   6.346   8.458  10.713  0.3970 -0.0502 -0.1623
  517MOL0     C69673   6.233   8.492  10.807  0.2027  0.3190  0.3080
  517MOL0     C69674   6.111   8.439  10.739 -0.1626 -0.1473 -0.5730
  517MOL0     C69675   6.081   8.297  10.781  0.1926  0.6076 -0.0867
  517MOL0     C69676   5.978   8.216  10.688  0.2876  1.0850  0.9116
  517MOL0     N69677   5.846   8.281  10.675 -0.3549  0.2896 -0.5583
  517MOL0     C69678   5.822   8.397  10.605  0.0788  0.0873  0.4140
  517MOL0     C69679   5.699   8.426  10.644  0.1806  0.2403 -1.0717
  517MOL0     C69680   5.636   8.559  10.629  0.5742 -0.3450 -0.1951
  517MOL0     C69681   5.493   8.537  10.602 -0.4150 -1.1187  0.5307
  517MOL0     C69682   5.458   8.513  10.453 -0.4827  0.0681 -0.5161
  517MOL0     C69683   5.305   8.496  10.421 -0.2566  0.5349 -0.7250
  517MOL0     O69684   5.283   8.477  10.285  0.1065  0.7793  0.2127
  517MOL0     C69685   5.218   8.372  10.230 -0.0275 -0.1755 -0.3021
  517MOL0     C69686   5.188   8.247  10.291  0.1774  0.0751 -0.0046
  517MOL0     C69687   5.113   8.150  10.230  0.2354  0.2626 -0.1257
  517MOL0     C69688   5.082   8.024  10.324  0.5778 -0.0102 -0.0288
  517MOL0     C69689   5.061   8.173  10.101 -0.4177 -0.1426  0.4185
  517MOL0     C69690   4.974   8.081  10.021 -0.8746  0.9889 -1.3719
  517MOL0     O69691   4.977   8.092   9.881  0.1438 -0.6424 -0.0646
  517MOL0     C69692   4.906   8.007   9.803 -0.1400 -0.1052 -0.3718
  517MOL0     C69693   4.960   7.885   9.764 -0.6907  0.9634  0.2306
  517MOL0     C69694   4.863   7.794   9.702  0.2533  0.6118  0.1170
  517MOL0     C69695   4.736   7.841   9.650 -0.8376  0.7527  0.1829
  517MOL0     O69696   4.659   7.745   9.587  0.0598 -0.1216 -0.3762
  517MOL0     C69697   4.521   7.784   9.559 -0.1999  0.5661  0.8990
  517MOL0     C69698   4.457   7.667   9.493 -0.6491  0.1825  0.2498
  517MOL0     C69699   4.320   7.707   9.442 -0.1237 -1.5132 -0.5193
  517MOL0     C69700   4.230   7.588   9.410 -0.5107  0.1994  0.6706
  517MOL0     C69701   4.079   7.606   9.446 -0.1388 -0.7010 -0.4390
  517MOL0     C69702   4.013   7.739   9.402 -0.0118  0.7695 -0.3941
  517MOL0     C69703   3.912   7.781   9.514 -0.3388 -0.0632 -0.2109
  517MOL0     C69704   3.863   7.928   9.500 -0.8330  0.2998 -0.0143
  517MOL0    Cl69705   3.777   7.944   9.349  0.4215 -0.2772  0.7558
  517MOL0     C69706   4.696   7.978   9.689  0.2602  0.6439  0.7495
  517MOL0     C69707   4.779   8.058   9.766  0.9498 -0.1539  0.3582
  517MOL0     O69708   4.903   8.002  10.080 -1.0404 -0.1996 -1.0361
  517MOL0     C69709   5.096   8.296  10.037 -0.4314  0.3018  0.0386
  517MOL0     C69710   5.166   8.396  10.106  0.7066  0.7011  0.5466
  517MOL0     N69711   5.650   8.325  10.726 -0.3880 -0.6615  0.8216
  517MOL0     N69712   5.739   8.245  10.750  0.1023 -0.9304  0.3996
  517MOL0     C69713   6.992   8.489  10.830 -0.3602  0.4249  0.2663
  517MOL0     C69714   7.126   8.506  10.877  0.8814  0.3699 -0.1891
  517MOL0     C69715   7.577   8.517  10.899  0.1192  0.4145  0.9364
  517MOL0     C69716   7.668   8.589  10.975 -0.0153 -0.5403  0.3965
  517MOL0     C69717   7.800   8.550  11.007  0.2134  0.0921 -0.2427
  517MOL0     C69718   7.843   8.426  10.955 -0.5195  0.2240  0.2976
  517MOL0     O69719   7.970   8.370  10.965  0.4393 -0.5582  0.3357
  517MOL0     C69720   8.069   8.428  11.052 -1.0686  0.2125 -0.0992
  517MOL0     C69721   8.199   8.359  11.025 -0.6535 -0.3449  0.4980
  517MOL0     C69722   8.196   8.205  11.056  0.5904 -0.3382 -0.2859
  517MOL0     C69723   8.330   8.154  11.114  0.8848  0.5854  0.1911
  517MOL0     C69724   8.438   8.183  11.014  0.2460  0.1658  1.0076
  517MOL0     C69725   8.530   8.216  10.935 -0.3337  0.0583  0.9602
  517MOL0     C69726   7.750   8.352  10.875 -0.3108 -0.5739  0.7757
  517MOL0     C69727   7.622   8.398  10.854 -0.1399 -0.0109  0.1159
  517MOL0     H69728   7.264   8.379  10.600  0.4857  1.6722 -0.6107
  517MOL0     H69729   7.026   8.369  10.523  2.4274  0.1360 -0.8601
  517MOL0     H69730   6.707   8.403  10.832  1.2277 -0.9479 -1.0984
  517MOL0     H69731   6.756   8.575  10.798  0.6012  0.8300 -1.6590
  517MOL0     H69732   6.591   8.570  10.621  0.4013 -0.8518 -1.7883
  517MOL0     H69733   6.593   8.386  10.613 -0.4589 -1.6502  1.8042
  517MOL0     H69734   6.482   8.379  10.840 -2.3439  1.4256  2.2939
  517MOL0     H69735   6.498   8.557  10.833  1.8559 -0.5574 -0.3380
  517MOL0     H69736   6.330   8.522  10.626  1.4391 -0.1304 -0.4223
  517MOL0     H69737   6.335   8.354  10.680 -1.3575  0.1160 -0.2233
  517MOL0     H69738   6.242   8.459  10.911  0.5784  2.0166  0.8454
  517MOL0     H69739   6.231   8.601  10.816  1.4660  0.7200 -2.8545
  517MOL0     H69740   6.023   8.500  10.759  0.4299  0.4697  0.2290
  517MOL0     H69741   6.130   8.461  10.634 -0.1750  0.3935 -0.4628
  517MOL0     H69742   6.173   8.243  10.803 -0.4177 -0.9489 -1.1442
  517MOL0     H69743   6.024   8.295  10.875  2.4312 -0.0022  1.3184
  517MOL0     H69744   5.971   8.110  10.713  0.4727  0.2224 -2.1734
  517MOL0     H69745   6.020   8.209  10.587  2.6140 -2.4532  1.9446
  517MOL0     H69746   5.895   8.454  10.548 -0.1343 -0.4488 -0.4156
  517MOL0     H69747   5.653   8.618  10.720 -0.6307 -0.6559  0.2482
  517MOL0     H69748   5.663   8.612  10.537  3.2704 -1.5635 -0.1831
  517MOL0     H69749   5.448   8.633  10.629 -0.0955  0.0742 -2.8167
  517MOL0     H69750   5.455   8.466  10.677 -0.9872  0.2882  1.6269
  517MOL0     H69751   5.506   8.416  10.437  1.0002  0.8420 -0.9221
  517MOL0     H69752   5.505   8.577  10.378  2.3890 -4.6100 -3.2635
  517MOL0     H69753   5.257   8.588  10.455 -0.4032 -0.8993  3.4513
  517MOL0     H69754   5.273   8.412  10.484  1.6127  1.0701  1.0378
  517MOL0     H69755   5.225   8.236  10.392 -3.2933  2.1164  1.6858
  517MOL0     H69756   5.147   8.011  10.411  0.0256 -0.3332  0.3396
  517MOL0     H69757   4.987   8.009  10.376  0.2577 -1.7862 -1.0223
  517MOL0     H69758   5.084   7.939  10.254  0.3785 -0.2241  0.2246
  517MOL0     H69759   5.063   7.853   9.777 -0.3676  2.7949  3.1852
  517MOL0     H69760   4.891   7.689   9.693 -2.7647 -0.1070 -2.6354
  517MOL0     H69761   4.469   7.807   9.652  0.6434 -2.7615  2.3553
  517MOL0     H69762   4.507   7.871   9.495  1.1507  0.9059  1.0274
  517MOL0     H69763   4.525   7.622   9.420  0.3871 -0.6293  1.6508
  517MOL0     H69764   4.439   7.585   9.564  0.2667 -2.0036 -1.8804
  517MOL0     H69765   4.352   7.779   9.367  2.1366 -0.5393  1.2500
  517MOL0     H69766   4.263   7.761   9.518 -0.5401 -0.5586 -1.4877
  517MOL0     H69767   4.240   7.551   9.308 -1.0710  0.6486  0.4511
  517MOL0     H69768   4.256   7.507   9.479  0.0315 -0.7215 -0.5717
  517MOL0     H69769   4.082   7.587   9.554 -0.8230  1.1157 -0.0644
  517MOL0     H69770   4.033   7.521   9.395 -0.2337  0.1236 -1.7649
  517MOL0     H69771   4.089   7.817   9.390 -0.6215  1.2393 -1.4396
  517MOL0     H69772   3.960   7.731   9.306  1.3641  1.5002 -1.2600
  517MOL0     H69773   3.962   7.768   9.611 -1.2020  2.7035  0.6902
  517MOL0     H69774   3.825   7.715   9.510 -0.2083 -0.1939 -1.1032
  517MOL0     H69775   3.953   7.991   9.502 -0.6003 -0.0127 -0.6473
  517MOL0     H69776   3.793   7.955   9.580 -3.8083 -2.0091 -1.6576
  517MOL0     H69777   4.603   8.023   9.657  0.2040 -0.4625 -0.7411
  517MOL0     H69778   4.741   8.154   9.799  1.6381 -0.5955  2.5960
  517MOL0     H69779   5.053   8.326   9.943  2.1673 -1.1120 -1.7339
  517MOL0     H69780   5.175   8.495  10.062  0.0655  1.1915  1.4888
  517MOL0     H69781   6.916   8.503  10.907  0.1564  3.3447  0.3702
  517MOL0     H69782   7.144   8.527  10.982 -1.0824  1.2362  0.0256
  517MOL0     H69783   7.650   8.686  11.019 -0.0569 -0.0277 -0.7143
  517MOL0     H69784   7.871   8.617  11.053  1.6766  0.6310 -3.0400
  517MOL0     H69785   8.079   8.535  11.032  0.4738 -0.0798 -1.1449
  517MOL0     H69786   8.043   8.409  11.157 -2.8070  2.1197 -0.1374
  517MOL0     H69787   8.265   8.398  11.103 -1.0531  1.3443  0.0404
  517MOL0     H69788   8.240   8.383  10.927  1.5636 -0.7261  1.2646
  517MOL0     H69789   8.170   8.148  10.966 -3.4714  0.1506  0.3862
  517MOL0     H69790   8.128   8.184  11.139  0.0605 -0.2959 -0.7004
  517MOL0     H69791   8.340   8.047  11.136  3.1773  0.4781 -1.0085
  517MOL0     H69792   8.355   8.210  11.204  2.0472  2.8989 -1.4540
  517MOL0     H69793   8.609   8.239  10.867 -0.2994 -0.7993  0.7071
  517MOL0     H69794   7.788   8.265  10.822  3.9937  1.7476 -0.4158
  517MOL0     H69795   7.563   8.328  10.796  2.2770 -1.2085 -1.0853
  518MOL0     O69796   7.962   8.150   6.677 -0.0476 -0.2529  0.5918
  518MOL0     C69797   7.957   8.131   6.554  0.4099  0.3516 -0.7782
  518MOL0     O69798   7.842   8.108   6.490 -0.1837  0.0615 -0.4180
  518MOL0     C69799   7.709   8.134   6.541 -0.7732 -1.4922  0.7206
  518MOL0     C69800   7.608   8.044   6.508  0.0985 -0.3020 -0.7275
  518MOL0     C69801   7.476   8.061   6.555 -0.5673  0.2632 -0.2165
  518MOL0     C69802   7.440   8.172   6.635 -0.1778 -0.4383 -0.4644
  518MOL0     O69803   7.317   8.189   6.691  0.0372 -0.3495  0.3983
  518MOL0     C69804   7.211   8.096   6.649 -1.4130  0.1875 -0.4305
  518MOL0     C69805   7.076   8.124   6.718 -0.7200  0.5378  0.0493
  518MOL0     C69806   6.978   8.217   6.650  0.5475 -0.0804 -0.2394
  518MOL0     C69807   6.864   8.240   6.745 -0.5676  0.1202  0.6138
  518MOL0     C69808   6.767   8.346   6.708  0.1233 -0.2693  0.1820
  518MOL0     C69809   6.641   8.342   6.802 -0.5704 -0.4238  0.3496
  518MOL0     C69810   6.546   8.223   6.783 -0.0402  0.0294  0.4989
  518MOL0     C69811   6.480   8.216   6.651 -0.4875  0.5151 -0.0797
  518MOL0     N69812   6.401   8.091   6.638 -0.8600 -0.4245  0.4989
  518MOL0     C69813   6.455   7.966   6.640 -0.3743  0.3880 -0.3008
  518MOL0     C69814   6.354   7.880   6.604 -0.1982  0.3782  0.2486
  518MOL0     C69815   6.343   7.724   6.606 -0.1904 -0.3035 -0.9328
  518MOL0     C69816   6.205   7.684   6.670 -0.5690 -0.7360  0.8279
  518MOL0     C69817   6.203   7.714   6.815  0.3281 -0.5118 -1.0887
  518MOL0     C69818   6.078   7.672   6.898 -0.5136 -0.1882  0.8329
  518MOL0     O69819   6.079   7.524   6.902  0.2939 -0.1206 -0.1531
  518MOL0     C69820   5.972   7.462   6.957 -0.5308  1.6424 -0.1090
  518MOL0     C69821   5.948   7.325   6.922 -0.5959  0.3591  0.2618
  518MOL0     C69822   5.833   7.262   6.967 -0.1511  0.3760  0.9905
  518MOL0     C69823   5.822   7.119   6.922 -0.7388 -0.3430  0.5172
  518MOL0     C69824   5.742   7.316   7.055 -1.1694  0.1413  0.7657
  518MOL0     C69825   5.629   7.249   7.126  0.5297  0.9167 -0.6954
  518MOL0     O69826   5.524   7.333   7.175  0.0328  0.1474 -0.1487
  518MOL0     C69827   5.409   7.286   7.234  0.0026  0.0221  0.4747
  518MOL0     C69828   5.355   7.154   7.222 -0.4666 -0.3250 -0.5979
  518MOL0     C69829   5.238   7.114   7.280  0.5151  0.3816 -0.7150
  518MOL0     C69830   5.148   7.206   7.343 -0.2740 -0.0095  0.0383
  518MOL0     O69831   5.019   7.183   7.391  0.6953 -0.7730 -0.1877
  518MOL0     C69832   4.934   7.101   7.314 -0.8088 -0.2443 -0.2944
  518MOL0     C69833   4.784   7.127   7.346 -0.2165 -0.0938 -0.0129
  518MOL0     C69834   4.690   7.057   7.257  0.2752  0.1437  0.8980
  518MOL0     C69835   4.550   7.109   7.269 -0.7496  0.2521  1.0271
  518MOL0     C69836   4.444   7.013   7.205 -0.5487 -0.0287 -0.0291
  518MOL0     C69837   4.301   7.025   7.269 -0.0305 -0.1577  0.0168
  518MOL0     C69838   4.217   6.923   7.190  0.7304 -0.7506  0.3006
  518MOL0     C69839   4.068   6.924   7.236  0.0741 -0.2476  0.8236
  518MOL0    Cl69840   4.087   6.899   7.403  0.0557 -0.2587 -0.0475
  518MOL0     C69841   5.199   7.339   7.351  0.3248 -0.2516 -0.0160
  518MOL0     C69842   5.332   7.372   7.303 -0.3494 -0.2999 -0.4390
  518MOL0     O69843   5.640   7.131   7.136  0.0961  0.2587  0.6663
  518MOL0     C69844   5.765   7.446   7.080  0.3905 -0.8162  0.5415
  518MOL0     C69845   5.872   7.524   7.029  0.7292  0.7374  0.3953
  518MOL0     N69846   6.253   7.962   6.567  0.3671  0.0901 -0.1285
  518MOL0     N69847   6.275   8.089   6.597 -0.4421  0.5935 -0.1913
  518MOL0     C69848   7.541   8.270   6.656  0.0955 -0.5069  0.2072
  518MOL0     C69849   7.671   8.262   6.611 -0.6645  1.0572  0.0531
  518MOL0     C69850   8.078   8.122   6.463  0.9290  0.1616 -0.4019
  518MOL0     C69851   8.205   8.079   6.511  0.4837 -1.3782 -0.5789
  518MOL0     C69852   8.319   8.082   6.431 -0.3000 -0.2333  0.5050
  518MOL0     C69853   8.314   8.117   6.291  0.4851 -0.0842  0.7537
  518MOL0     O69854   8.422   8.101   6.214  0.0935 -0.2958 -0.3148
  518MOL0     C69855   8.418   8.159   6.076  0.2706 -0.0571  0.5264
  518MOL0     C69856   8.533   8.121   5.985  0.5014 -0.5403  1.3366
  518MOL0     C69857   8.660   8.168   6.050 -0.1866  0.5345 -0.5889
  518MOL0     C69858   8.782   8.132   5.970  0.0099  0.3163  0.5429
  518MOL0     C69859   8.899   8.197   6.019 -0.2560  0.4698  0.0645
  518MOL0     C69860   9.006   8.241   6.050  0.1503 -0.4628  0.1988
  518MOL0     C69861   8.184   8.161   6.241 -0.2434  0.1085 -1.3103
  518MOL0     C69862   8.067   8.158   6.325  0.3888  0.2586 -0.2334
  518MOL0     H69863   7.638   7.960   6.446  0.7907 -0.9802  0.4912
  518MOL0     H69864   7.408   7.978   6.539  0.3921 -1.3572  3.3039
  518MOL0     H69865   7.196   8.096   6.541  0.9591  2.0259 -0.8410
  518MOL0     H69866   7.247   7.996   6.675  1.3707  1.0381 -0.6244
  518MOL0     H69867   7.032   8.027   6.744  1.8704 -1.1738 -1.4900
  518MOL0     H69868   7.104   8.162   6.817  0.0667 -0.6970  0.3245
  518MOL0     H69869   7.026   8.313   6.627  0.7281  0.2571  1.4238
  518MOL0     H69870   6.937   8.183   6.554 -2.2905  2.0568  0.0918
  518MOL0     H69871   6.804   8.149   6.749 -2.0908  0.9090 -2.0935
  518MOL0     H69872   6.898   8.265   6.846 -1.4971  1.0935  0.7001
  518MOL0     H69873   6.818   8.442   6.725  1.9184 -0.8377 -1.6004
  518MOL0     H69874   6.735   8.353   6.603 -0.8576  2.7735  0.5830
  518MOL0     H69875   6.679   8.325   6.903  1.7818  2.6571  0.1350
  518MOL0     H69876   6.593   8.440   6.811  2.5026  1.0558  2.3061
  518MOL0     H69877   6.604   8.130   6.781  0.5052  0.3584  0.9110
  518MOL0     H69878   6.475   8.208   6.865  0.1498  1.8212  1.0380
  518MOL0     H69879   6.553   8.231   6.571  1.6905 -1.2004  1.4447
  518MOL0     H69880   6.404   8.293   6.637  0.0297  1.2304  0.9160
  518MOL0     H69881   6.551   7.927   6.673  0.6966  1.1670 -2.2968
  518MOL0     H69882   6.337   7.697   6.500 -0.3011  2.6239 -1.7548
  518MOL0     H69883   6.425   7.672   6.658 -1.5932 -0.7374  0.9564
  518MOL0     H69884   6.181   7.578   6.654  1.6333 -0.9751 -1.4787
  518MOL0     H69885   6.125   7.737   6.616 -0.4762 -1.0249  0.3979
  518MOL0     H69886   6.205   7.823   6.817 -1.9438 -0.4331  0.0918
  518MOL0     H69887   6.290   7.668   6.864  0.3532 -0.8033 -1.4064
  518MOL0     H69888   5.990   7.705   6.843  0.5064  3.8239  1.3381
  518MOL0     H69889   6.086   7.728   6.991  1.4759  1.6032 -0.3190
  518MOL0     H69890   6.014   7.266   6.859 -0.5450  1.7534 -1.0474
  518MOL0     H69891   5.820   7.046   7.004 -0.3009 -1.2504 -0.2489
  518MOL0     H69892   5.729   7.100   6.867  1.0044  0.1814 -2.8591
  518MOL0     H69893   5.894   7.095   6.843 -1.5670 -0.8724 -0.0963
  518MOL0     H69894   5.419   7.081   7.172 -0.0068 -1.2580  1.2756
  518MOL0     H69895   5.206   7.010   7.283  0.2456  0.4462  3.0377
  518MOL0     H69896   4.954   7.127   7.210  3.3808 -2.5870 -0.3507
  518MOL0     H69897   4.964   6.997   7.333  0.7907 -0.0843 -1.6944
  518MOL0     H69898   4.765   7.105   7.451 -1.3430 -3.5709 -0.8162
  518MOL0     H69899   4.769   7.234   7.328  2.3187  1.0766  3.6629
  518MOL0     H69900   4.710   6.949   7.265  1.3821  0.1798 -0.7955
  518MOL0     H69901   4.722   7.074   7.154 -0.3990  2.0190  0.9671
  518MOL0     H69902   4.529   7.125   7.375 -2.6654 -1.6024  1.0024
  518MOL0     H69903   4.541   7.208   7.224  1.0421 -0.4268 -0.9649
  518MOL0     H69904   4.485   6.914   7.226  1.3126  0.2548 -1.9951
  518MOL0     H69905   4.448   7.030   7.097 -2.3722  0.8218 -0.0022
  518MOL0     H69906   4.306   6.997   7.374  0.0828  4.3810  1.4202
  518MOL0     H69907   4.265   7.127   7.254  0.2326 -0.4118 -2.9550
  518MOL0     H69908   4.248   6.818   7.198  1.0852 -0.7805 -1.1273
  518MOL0     H69909   4.223   6.958   7.086 -1.2984  2.0361  0.9951
  518MOL0     H69910   4.014   6.842   7.187  1.6776  0.0451 -1.6727
  518MOL0     H69911   4.004   7.009   7.213 -0.9765 -1.1613  0.2374
  518MOL0     H69912   5.147   7.410   7.414 -0.7827 -0.9044 -0.1683
  518MOL0     H69913   5.379   7.469   7.318  0.9086 -1.2772  2.7097
  518MOL0     H69914   5.707   7.495   7.157 -2.4716 -2.6869 -0.2656
  518MOL0     H69915   5.880   7.625   7.068 -0.6935  1.1426 -0.3032
  518MOL0     H69916   7.507   8.359   6.709 -1.4376  1.6532 -3.9574
  518MOL0     H69917   7.744   8.338   6.640 -0.5802  0.9543  0.1108
  518MOL0     H69918   8.226   8.051   6.614 -2.2330  0.2594  0.5133
  518MOL0     H69919   8.410   8.051   6.482 -0.8762  1.3908  2.6947
  518MOL0     H69920   8.328   8.124   6.026 -0.0912  0.6602  0.6674
  518MOL0     H69921   8.411   8.268   6.083  2.4031  0.2265 -0.7115
  518MOL0     H69922   8.516   8.161   5.884  0.9304 -1.9417  0.6935
  518MOL0     H69923   8.545   8.014   5.970  1.9823  0.0031 -2.6011
  518MOL0     H69924   8.671   8.124   6.150 -0.6938  0.5590 -0.5154
  518MOL0     H69925   8.655   8.277   6.052 -0.5928  0.5653 -2.2278
  518MOL0     H69926   8.761   8.158   5.865 -2.6568 -0.1738  0.8894
  518MOL0     H69927   8.795   8.024   5.975  1.4734  0.2462 -2.3147
  518MOL0     H69928   9.098   8.295   6.061  1.0639 -1.6516 -1.0704
  518MOL0     H69929   8.155   8.183   6.139 -0.1881  1.6785 -1.0250
  518MOL0     H69930   7.971   8.179   6.279  1.4388  0.1025 -2.6397
  519MOL0     O69931   4.528   6.118   3.347 -0.0291 -0.5204  0.9298
  519MOL0     C69932   4.607   6.150   3.262 -0.1987  0.5415 -0.1216
  519MOL0     O69933   4.568   6.192   3.139  0.0152 -0.3540  0.2873
  519MOL0     C69934   4.439   6.196   3.105 -0.5328 -0.4307 -0.4002
  519MOL0     C69935   4.415   6.298   3.021 -0.2842  1.2237  0.3364
  519MOL0     C69936   4.286   6.310   2.974 -0.1432 -0.1319  1.1001
  519MOL0     C69937   4.185   6.223   3.000 -0.4094 -0.4394 -0.4241
  519MOL0     O69938   4.054   6.218   2.938 -0.6162  0.2447  0.4226
  519MOL0     C69939   3.983   6.337   2.904 -0.4269 -0.4348  0.7119
  519MOL0     C69940   3.910   6.322   2.770  0.0777  0.8582  0.1928
  519MOL0     C69941   3.840   6.451   2.738  0.0504 -0.1548 -0.1718
  519MOL0     C69942   3.730   6.502   2.834 -0.4073 -0.4601  0.0454
  519MOL0     C69943   3.669   6.631   2.784 -0.3084 -0.0552 -0.2829
  519MOL0     C69944   3.598   6.624   2.648  0.1224  1.1273 -0.1963
  519MOL0     C69945   3.528   6.751   2.619  0.0981  0.6086 -0.7868
  519MOL0     C69946   3.450   6.743   2.490  0.3705 -0.1650 -1.0839
  519MOL0     N69947   3.349   6.845   2.487 -0.1843  0.2454  0.8333
  519MOL0     C69948   3.244   6.854   2.577 -0.7596  0.5435 -0.1940
  519MOL0     C69949   3.143   6.914   2.513 -0.9114  0.8889  0.0454
  519MOL0     C69950   3.013   6.932   2.580 -1.0297 -0.1271  0.1789
  519MOL0     C69951   2.923   7.016   2.483 -0.3978  0.1571  0.0120
  519MOL0     C69952   2.777   7.042   2.536 -0.7792 -0.4283  0.3986
  519MOL0     C69953   2.685   7.107   2.434 -0.5552 -0.0626  0.4456
  519MOL0     O69954   2.544   7.112   2.474 -0.4029  0.0948 -0.1828
  519MOL0     C69955   2.475   7.220   2.437 -0.6965 -0.9306 -0.6072
  519MOL0     C69956   2.512   7.319   2.340 -0.3973  0.1398 -0.1290
  519MOL0     C69957   2.419   7.408   2.293  0.0117  0.1949 -0.3168
  519MOL0     C69958   2.472   7.516   2.210 -0.0529 -0.2494 -0.5203
  519MOL0     C69959   2.279   7.405   2.327  0.1111 -0.0821 -0.5258
  519MOL0     C69960   2.168   7.490   2.274  0.0922 -1.0705  1.0965
  519MOL0     O69961   2.038   7.456   2.308 -0.1095  0.1640 -0.0146
  519MOL0     C69962   1.929   7.483   2.227 -0.7065  0.2034 -0.0501
  519MOL0     C69963   1.930   7.477   2.088 -0.0184 -0.4289  0.4028
  519MOL0     C69964   1.811   7.492   2.012 -0.1897 -0.2512  0.1267
  519MOL0     C69965   1.686   7.507   2.078  0.1187  0.4504 -0.8952
  519MOL0     O69966   1.576   7.514   2.003  0.1085  0.6345 -0.3314
  519MOL0     C69967   1.462   7.457   2.060  0.3606  0.6395  0.3835
  519MOL0     C69968   1.367   7.431   1.941  0.7224  0.5633 -0.2180
  519MOL0     C69969   1.247   7.334   1.979 -0.2062  0.9936  0.2167
  519MOL0     C69970   1.134   7.397   2.060  0.2664  0.0476 -0.2422
  519MOL0     C69971   1.059   7.510   1.986  0.0104  0.0229  0.6035
  519MOL0     C69972   0.962   7.449   1.886  0.3924  1.1319  0.5652
  519MOL0     C69973   0.889   7.563   1.814  0.1658 -0.7068 -0.0254
  519MOL0     C69974   0.816   7.522   1.680  0.2643  0.8993 -0.9156
  519MOL0    Cl69975   0.665   7.615   1.654  0.0421  0.2231  0.3533
  519MOL0     C69976   1.694   7.527   2.220  0.2571  1.0023  0.6424
  519MOL0     C69977   1.813   7.513   2.295 -0.0685 -1.1455  0.0123
  519MOL0     O69978   2.194   7.583   2.198 -1.2256  0.7098  0.1158
  519MOL0     C69979   2.242   7.305   2.418 -0.1412  0.3342 -0.3017
  519MOL0     C69980   2.338   7.216   2.477 -0.0273 -0.2749 -0.4364
  519MOL0     N69981   3.178   6.941   2.381 -0.1422  0.2951 -0.3236
  519MOL0     N69982   3.295   6.884   2.368  0.1096 -0.0441  0.1520
  519MOL0     C69983   4.204   6.109   3.082 -0.5661 -0.6367 -0.5550
  519MOL0     C69984   4.341   6.090   3.118 -0.3072  0.5330  0.6559
  519MOL0     C69985   4.754   6.157   3.297  0.6703  0.1661 -0.0636
  519MOL0     C69986   4.816   6.092   3.408 -0.2197  0.2183 -0.6348
  519MOL0     C69987   4.949   6.120   3.443  0.1485  0.6285  0.1891
  519MOL0     C69988   5.024   6.210   3.357 -0.1570 -0.1742 -0.0706
  519MOL0     O69989   5.155   6.251   3.393  0.4187  0.6374 -0.5509
  519MOL0     C69990   5.212   6.185   3.504 -0.7039 -0.0263  0.7768
  519MOL0     C69991   5.359   6.215   3.507 -0.1489 -0.1773  0.0494
  519MOL0     C69992   5.437   6.138   3.398 -0.5438 -0.1023 -0.4145
  519MOL0     C69993   5.583   6.187   3.399  0.7471  0.0946  0.5337
  519MOL0     C69994   5.653   6.161   3.520 -0.6598 -0.0031  0.0828
  519MOL0     C69995   5.709   6.127   3.624 -0.1390  0.1109 -0.4787
  519MOL0     C69996   4.970   6.259   3.238  0.6886  0.1727  0.1020
  519MOL0     C69997   4.839   6.229   3.206  0.9544  0.3452  0.5814
  519MOL0     H69998   4.495   6.358   2.980  0.8771 -0.2038  0.4604
  519MOL0     H69999   4.261   6.389   2.903  0.2339 -0.8695  0.1299
  519MOL0     H70000   3.901   6.339   2.976 -0.9493  3.0964  0.1727
  519MOL0     H70001   4.040   6.430   2.901  0.7317 -1.0711  1.8151
  519MOL0     H70002   3.976   6.297   2.686  0.6143 -1.6219  1.2434
  519MOL0     H70003   3.845   6.234   2.778  0.7824  0.3098  0.0724
  519MOL0     H70004   3.906   6.537   2.728  0.1240 -0.2447 -0.4746
  519MOL0     H70005   3.784   6.428   2.647 -4.7648  0.1753  2.4033
  519MOL0     H70006   3.647   6.433   2.856 -1.4246  1.0859  1.3064
  519MOL0     H70007   3.779   6.518   2.931 -2.6604 -1.1594  1.3927
  519MOL0     H70008   3.599   6.670   2.858  1.9159  1.1377  1.2979
  519MOL0     H70009   3.744   6.708   2.765 -0.4064 -0.2569 -1.5748
  519MOL0     H70010   3.674   6.605   2.571 -0.1368 -2.1467  0.2051
  519MOL0     H70011   3.531   6.538   2.653  1.3962 -0.1021 -2.4629
  519MOL0     H70012   3.457   6.783   2.696  0.2319 -1.6582  0.3556
  519MOL0     H70013   3.609   6.825   2.618  1.1267 -0.4780 -0.6697
  519MOL0     H70014   3.403   6.646   2.471  1.6635 -1.3431  1.2682
  519MOL0     H70015   3.519   6.767   2.409  0.4692 -0.0156 -0.9562
  519MOL0     H70016   3.243   6.818   2.679  1.0039 -1.5744 -0.8527
  519MOL0     H70017   2.959   6.838   2.593 -2.9707  0.6696 -1.5960
  519MOL0     H70018   3.027   6.986   2.673 -0.2878 -0.4168  0.2481
  519MOL0     H70019   2.910   6.965   2.387 -2.0115 -0.3267  0.4630
  519MOL0     H70020   2.967   7.113   2.460  0.3107 -0.3909 -1.0211
  519MOL0     H70021   2.788   7.108   2.622  1.7920 -0.9519  0.5433
  519MOL0     H70022   2.738   6.948   2.578  0.6066 -0.4691  1.7054
  519MOL0     H70023   2.692   7.049   2.342  2.0008  0.9683 -0.1084
  519MOL0     H70024   2.736   7.203   2.426  0.7710 -0.6968  0.7978
  519MOL0     H70025   2.617   7.328   2.312 -0.6355 -2.0884 -2.0746
  519MOL0     H70026   2.580   7.527   2.221 -0.1976 -1.0551  2.5512
  519MOL0     H70027   2.445   7.513   2.104 -2.2594 -0.0336 -0.0223
  519MOL0     H70028   2.431   7.613   2.240  3.2707  1.1780 -0.1634
  519MOL0     H70029   2.021   7.459   2.033  0.8540 -0.4125  1.7952
  519MOL0     H70030   1.815   7.472   1.905 -1.9189 -2.1817  0.3581
  519MOL0     H70031   1.484   7.366   2.117  0.1364  0.5994  0.4068
  519MOL0     H70032   1.426   7.535   2.128  3.1089  1.5234  0.9668
  519MOL0     H70033   1.332   7.526   1.900  1.0437  0.2416 -1.2998
  519MOL0     H70034   1.422   7.384   1.858  0.6783  0.1668 -0.0228
  519MOL0     H70035   1.287   7.253   2.042  1.7165  0.6286 -1.3921
  519MOL0     H70036   1.215   7.287   1.886  1.6247  0.2280 -0.0605
  519MOL0     H70037   1.066   7.316   2.090  2.0291 -0.8891  1.3792
  519MOL0     H70038   1.179   7.436   2.151 -1.7533 -1.3163  1.4567
  519MOL0     H70039   1.135   7.574   1.940  1.7285 -1.5599  1.1066
  519MOL0     H70040   1.014   7.569   2.067 -1.4490 -1.3419  0.8445
  519MOL0     H70041   1.017   7.401   1.803 -1.0228  1.8231 -0.8245
  519MOL0     H70042   0.892   7.378   1.931 -0.8318  1.9290 -0.0472
  519MOL0     H70043   0.968   7.632   1.783  1.4065 -1.3156  1.6216
  519MOL0     H70044   0.812   7.611   1.875  1.5002 -2.1129  2.9376
  519MOL0     H70045   0.794   7.416   1.694  1.1175  0.4953 -2.3830
  519MOL0     H70046   0.887   7.538   1.598  1.2651  1.7841  0.0990
  519MOL0     H70047   1.604   7.538   2.279  0.9737 -1.5945  2.3595
  519MOL0     H70048   1.808   7.513   2.404 -3.0244  0.8024 -0.0206
  519MOL0     H70049   2.142   7.271   2.443  0.0829 -1.1553 -1.3097
  519MOL0     H70050   2.300   7.143   2.547 -0.6848  1.3841  1.0082
  519MOL0     H70051   4.127   6.035   3.103 -3.4262  2.6231  1.4710
  519MOL0     H70052   4.358   5.994   3.166  0.9038 -1.4565 -3.3220
  519MOL0     H70053   4.744   6.037   3.467 -0.3770  1.3726  0.2874
  519MOL0     H70054   4.977   6.059   3.528  0.1516  0.2139 -0.1083
  519MOL0     H70055   5.156   6.223   3.590 -0.5023  2.4369 -0.0967
  519MOL0     H70056   5.194   6.078   3.497  0.1979 -0.1631  0.5361
  519MOL0     H70057   5.397   6.176   3.602 -1.7184  3.0518  2.2040
  519MOL0     H70058   5.374   6.323   3.497  0.7466 -0.3971 -1.2256
  519MOL0     H70059   5.395   6.150   3.298 -0.4442  0.4401 -0.3913
  519MOL0     H70060   5.444   6.032   3.425  0.7629 -0.2219 -1.1507
  519MOL0     H70061   5.587   6.289   3.361  3.8537 -0.4723 -0.9392
  519MOL0     H70062   5.642   6.136   3.322  1.9601 -1.8578  2.6404
  519MOL0     H70063   5.737   6.100   3.724 -4.3453  0.4394  0.9605
  519MOL0     H70064   5.023   6.320   3.166  0.8788  0.1366  0.2135
  519MOL0     H70065   4.809   6.269   3.110  0.2256 -0.1834  0.5794
  520MOL0     O70066   9.927   2.331   3.370  0.7004 -0.1617 -0.3661
  520MOL0     C70067  10.008   2.342   3.458  0.5507  0.2436 -0.5600
  520MOL0     O70068   9.985   2.320   3.596 -0.5326  0.0153 -0.6669
  520MOL0     C70069   9.851   2.318   3.626 -0.5845  0.0459 -0.5773
  520MOL0     C70070   9.788   2.205   3.661  0.0277  0.5211  0.2707
  520MOL0     C70071   9.658   2.202   3.705  0.7494  0.0465 -0.7794
  520MOL0     C70072   9.574   2.319   3.702 -0.1894  0.4913  0.3957
  520MOL0     O70073   9.437   2.319   3.727  0.3954 -0.2633 -0.1330
  520MOL0     C70074   9.380   2.199   3.789 -0.2615  0.5507  0.4617
  520MOL0     C70075   9.230   2.203   3.804  0.4884 -0.1497  0.0695
  520MOL0     C70076   9.194   2.291   3.923  0.0663 -0.2567 -0.5594
  520MOL0     C70077   9.045   2.343   3.917 -0.8617 -0.2952  0.4526
  520MOL0     C70078   9.011   2.408   4.056  0.1658 -0.5017  0.2431
  520MOL0     C70079   8.871   2.465   4.056  0.5944 -0.5021  0.0024
  520MOL0     C70080   8.846   2.552   3.935 -0.1048  0.1144  0.2294
  520MOL0     C70081   8.730   2.641   3.962 -0.0378 -0.1666 -0.2069
  520MOL0     N70082   8.610   2.586   4.043  0.4851 -0.6077  0.3872
  520MOL0     C70083   8.601   2.574   4.180  0.7489  0.8872  0.0559
  520MOL0     C70084   8.475   2.526   4.204  0.6997 -0.4892 -0.1874
  520MOL0     C70085   8.436   2.487   4.343  0.4971 -0.1971 -0.1853
  520MOL0     C70086   8.381   2.611   4.407  0.1733  0.6170 -0.3949
  520MOL0     C70087   8.293   2.565   4.529 -0.1162  0.4125 -0.3110
  520MOL0     C70088   8.237   2.694   4.604 -0.3301  0.4250 -0.6945
  520MOL0     O70089   8.135   2.735   4.517  0.3879 -0.6312  0.0881
  520MOL0     C70090   8.039   2.804   4.588 -0.4747  0.1260  0.0769
  520MOL0     C70091   8.059   2.921   4.656  0.1676 -0.8606 -0.6738
  520MOL0     C70092   7.962   2.976   4.751  0.5173 -1.0966  0.0944
  520MOL0     C70093   7.995   3.105   4.822  0.6661 -0.0391 -0.5493
  520MOL0     C70094   7.848   2.899   4.771 -0.1417 -0.2715  0.7981
  520MOL0     C70095   7.736   2.938   4.866  0.1761 -0.3231  0.9388
  520MOL0     O70096   7.685   3.067   4.845 -0.2091  0.0578 -0.6493
  520MOL0     C70097   7.593   3.115   4.937  1.3460  0.2202  0.7632
  520MOL0     C70098   7.500   3.206   4.883 -0.1846  0.9129 -0.2466
  520MOL0     C70099   7.387   3.255   4.948 -0.2771 -0.0727  0.0948
  520MOL0     C70100   7.374   3.229   5.087 -0.6023 -0.7063  0.4409
  520MOL0     O70101   7.272   3.282   5.150  0.8763 -0.5687 -1.1889
  520MOL0     C70102   7.153   3.318   5.077 -0.3252 -0.0222  0.8288
  520MOL0     C70103   7.041   3.334   5.185  0.5597  0.2401  0.5139
  520MOL0     C70104   6.950   3.205   5.186 -0.5546  0.9028  0.7750
  520MOL0     C70105   6.849   3.222   5.298  0.3843 -0.3992  0.1899
  520MOL0     C70106   6.752   3.101   5.292 -0.2572 -0.8214 -0.6262
  520MOL0     C70107   6.661   3.110   5.417 -0.2306  0.6246 -0.2075
  520MOL0     C70108   6.590   2.966   5.436  0.1799 -0.3243 -0.3561
  520MOL0     C70109   6.679   2.845   5.471  0.2067 -0.1670 -0.2458
  520MOL0    Cl70110   6.751   2.859   5.651  0.0468  0.2847 -0.2165
  520MOL0     C70111   7.469   3.144   5.155  0.4960 -0.6415  0.7070
  520MOL0     C70112   7.573   3.085   5.080 -0.4868  0.3203 -0.3100
  520MOL0     O70113   7.689   2.854   4.941  0.5020  0.2834 -0.1740
  520MOL0     C70114   7.819   2.783   4.700 -0.9567  0.5811  0.1531
  520MOL0     C70115   7.920   2.740   4.605  0.6036  0.5167 -0.0036
  520MOL0     N70116   8.413   2.496   4.081  0.6824  0.3439 -0.3322
  520MOL0     N70117   8.491   2.543   3.985  0.8771  0.0332 -0.1584
  520MOL0     C70118   9.637   2.430   3.654  1.6567  0.4651  0.3275
  520MOL0     C70119   9.778   2.436   3.617  0.2939 -0.0879 -0.3100
  520MOL0     C70120  10.145   2.360   3.401 -0.4704 -0.3407 -0.2215
  520MOL0     C70121  10.255   2.334   3.499  0.2970  0.1753 -0.3495
  520MOL0     C70122  10.386   2.357   3.460  1.1614 -0.3644 -0.6142
  520MOL0     C70123  10.410   2.412   3.333 -0.4144  0.3853 -0.7117
  520MOL0     O70124  10.534   2.422   3.284  0.4038 -0.1266  0.7588
  520MOL0     C70125  10.644   2.442   3.373  0.0569  0.2947 -0.0569
  520MOL0     C70126  10.765   2.516   3.309  0.2264  0.0606  0.0186
  520MOL0     C70127  10.826   2.436   3.188 -0.2705 -0.8188 -0.9941
  520MOL0     C70128  10.945   2.500   3.119  0.0610 -0.0837 -0.4885
  520MOL0     C70129  11.059   2.503   3.213 -0.5877  0.2827 -0.0076
  520MOL0     C70130  11.153   2.521   3.287  0.6574 -0.0474 -0.3342
  520MOL0     C70131  10.307   2.438   3.240  0.5923  0.1630  0.2163
  520MOL0     C70132  10.175   2.407   3.275 -0.1116 -0.9803  0.1663
  520MOL0     H70133   9.850   2.116   3.656  0.7011  1.0302 -0.6725
  520MOL0     H70134   9.618   2.109   3.743 -0.3178  0.5177 -0.6976
  520MOL0     H70135   9.413   2.108   3.739 -0.5990 -0.0149  1.2468
  520MOL0     H70136   9.417   2.196   3.892  1.5831 -1.5451 -0.1850
  520MOL0     H70137   9.194   2.255   3.714  0.8968  2.1074  1.1312
  520MOL0     H70138   9.185   2.104   3.800 -3.1953  1.4099 -3.1275
  520MOL0     H70139   9.206   2.234   4.016 -0.2656  0.4200 -0.0887
  520MOL0     H70140   9.268   2.370   3.933 -3.8306  3.8760 -1.1376
  520MOL0     H70141   9.043   2.420   3.839  2.1921  0.6360  1.1362
  520MOL0     H70142   8.972   2.269   3.885 -2.3592  1.2852  0.0743
  520MOL0     H70143   9.023   2.333   4.135  3.3166 -0.6532 -0.2669
  520MOL0     H70144   9.078   2.486   4.093  0.7091 -0.9024  0.1131
  520MOL0     H70145   8.792   2.390   4.070  1.1555 -1.2070 -0.5594
  520MOL0     H70146   8.872   2.527   4.146  1.7888 -0.8287  0.2372
  520MOL0     H70147   8.927   2.619   3.905 -1.9039  1.3808 -2.1271
  520MOL0     H70148   8.813   2.488   3.852 -0.8363 -1.1213  1.4336
  520MOL0     H70149   8.675   2.671   3.873 -1.9506 -1.9620  0.2939
  520MOL0     H70150   8.780   2.733   3.995  3.9614 -1.8789 -0.8375
  520MOL0     H70151   8.678   2.594   4.254 -0.3181 -3.3292  2.6306
  520MOL0     H70152   8.372   2.398   4.349 -0.6883  0.6405 -0.0278
  520MOL0     H70153   8.523   2.446   4.394  1.8059 -2.1943 -3.6804
  520MOL0     H70154   8.318   2.664   4.335 -1.5634  1.0283  1.3451
  520MOL0     H70155   8.467   2.669   4.443  0.4602  0.0144 -0.0906
  520MOL0     H70156   8.345   2.502   4.602 -1.1853 -1.1243 -0.8103
  520MOL0     H70157   8.205   2.509   4.493 -0.8276 -0.1631  2.1517
  520MOL0     H70158   8.310   2.775   4.597  1.5528 -0.9479  1.4396
  520MOL0     H70159   8.210   2.670   4.707  2.2189  2.2279  0.4922
  520MOL0     H70160   8.146   2.981   4.631 -0.3299  0.6546  0.9867
  520MOL0     H70161   8.053   3.176   4.761 -1.1578 -0.8177 -3.4200
  520MOL0     H70162   7.908   3.158   4.861 -0.3333 -2.5961  0.9656
  520MOL0     H70163   8.063   3.089   4.906  0.2343 -4.2707 -0.7926
  520MOL0     H70164   7.503   3.220   4.775 -1.9032 -0.9522 -0.6040
  520MOL0     H70165   7.334   3.336   4.899  0.7878  1.9411  2.0881
  520MOL0     H70166   7.159   3.414   5.025 -2.3147 -1.3342 -2.1098
  520MOL0     H70167   7.126   3.242   5.003  2.1994  1.0478 -1.3772
  520MOL0     H70168   7.079   3.365   5.282 -0.3992  3.2663  0.0317
  520MOL0     H70169   6.976   3.415   5.149  2.0461  1.1049 -0.3045
  520MOL0     H70170   7.009   3.114   5.196 -0.7739  0.8022  1.1324
  520MOL0     H70171   6.900   3.199   5.089  0.4297 -0.5522  0.3295
  520MOL0     H70172   6.903   3.195   5.389  0.8716 -1.3555 -0.3639
  520MOL0     H70173   6.797   3.317   5.301 -1.4275 -1.3388 -0.2342
  520MOL0     H70174   6.807   3.007   5.282 -1.7115 -1.6397 -1.3037
  520MOL0     H70175   6.690   3.101   5.202  2.6931  0.2640 -2.8215
  520MOL0     H70176   6.698   3.142   5.514  0.4928  0.6636 -0.4828
  520MOL0     H70177   6.586   3.185   5.394 -0.6798  1.3874  3.2320
  520MOL0     H70178   6.535   2.947   5.343  2.0583  0.9175 -1.8003
  520MOL0     H70179   6.504   2.985   5.501 -1.0562  1.9788 -2.4871
  520MOL0     H70180   6.750   2.830   5.389 -0.5805 -1.1734 -0.7729
  520MOL0     H70181   6.622   2.752   5.466 -1.8561  1.0342 -0.0411
  520MOL0     H70182   7.454   3.130   5.261 -4.0437  0.0114  0.3368
  520MOL0     H70183   7.641   3.028   5.142  0.4869  1.7045 -0.0475
  520MOL0     H70184   7.726   2.727   4.707 -0.4513 -0.8902 -2.8899
  520MOL0     H70185   7.894   2.649   4.552 -1.9788 -0.8571  3.2938
  520MOL0     H70186   9.573   2.517   3.638 -1.9237 -2.3854 -2.5681
  520MOL0     H70187   9.817   2.530   3.580  1.2526 -0.6589 -0.8036
  520MOL0     H70188  10.234   2.291   3.596  0.6715 -1.0519 -0.7969
  520MOL0     H70189  10.462   2.329   3.532  1.1772  1.3739  0.0875
  520MOL0     H70190  10.599   2.490   3.460  1.7443  1.2955  0.3111
  520MOL0     H70191  10.682   2.342   3.398 -0.0689  0.4420  0.7345
  520MOL0     H70192  10.841   2.547   3.382  1.4529  2.1549 -2.0332
  520MOL0     H70193  10.728   2.610   3.268  1.5354  0.3459 -0.5681
  520MOL0     H70194  10.753   2.417   3.109  0.6346 -2.2088 -1.5391
  520MOL0     H70195  10.866   2.339   3.220  2.0728 -0.8174 -3.5722
  520MOL0     H70196  10.922   2.595   3.070  0.0955 -1.1469 -2.6755
  520MOL0     H70197  10.966   2.433   3.035  1.3654  2.6129 -2.4345
  520MOL0     H70198  11.226   2.533   3.364  0.4502 -0.9280  0.0109
  520MOL0     H70199  10.331   2.467   3.138 -1.5617 -2.5267 -1.1976
  520MOL0     H70200  10.093   2.433   3.209  0.0339  0.2788  0.4666
  521MOL0     O70201   8.113   0.543   5.388  0.6777 -0.2584 -0.3539
  521MOL0     C70202   8.129   0.635   5.468  0.0701  0.0685 -0.6201
  521MOL0     O70203   8.024   0.701   5.535  0.0440  0.3325  0.5199
  521MOL0     C70204   7.891   0.669   5.504 -0.2469 -0.0256 -0.0640
  521MOL0     C70205   7.800   0.762   5.453  0.1317 -0.2306 -0.0576
  521MOL0     C70206   7.671   0.718   5.413 -0.3851  0.2160 -0.2424
  521MOL0     C70207   7.619   0.586   5.431  0.1860 -0.9749  1.4788
  521MOL0     O70208   7.495   0.530   5.392 -0.9405 -0.6639 -0.5370
  521MOL0     C70209   7.418   0.616   5.306  0.7493  0.7112 -0.4966
  521MOL0     C70210   7.317   0.538   5.222 -0.3302 -0.0795 -0.6851
  521MOL0     C70211   7.219   0.628   5.136  0.0255  0.3130  0.1742
  521MOL0     C70212   7.123   0.706   5.232 -0.0052  0.0918 -0.5893
  521MOL0     C70213   7.049   0.820   5.164 -0.0237 -0.1921  0.5057
  521MOL0     C70214   6.945   0.891   5.251  0.2734 -0.3553 -0.2787
  521MOL0     C70215   6.864   1.005   5.185  0.8641  0.5858 -0.3834
  521MOL0     C70216   6.732   1.030   5.260  0.9036  0.1159 -0.1469
  521MOL0     N70217   6.635   0.937   5.197  0.0794  1.0349  0.4403
  521MOL0     C70218   6.595   0.814   5.256 -0.0235 -1.0155 -0.1009
  521MOL0     C70219   6.471   0.789   5.201  1.1187  0.1687  0.2370
  521MOL0     C70220   6.372   0.697   5.231  0.0153  0.5029 -0.5697
  521MOL0     C70221   6.408   0.581   5.144  0.1886 -0.9905 -0.5874
  521MOL0     C70222   6.336   0.456   5.174  0.4968  0.1693 -0.4934
  521MOL0     C70223   6.198   0.479   5.232 -0.4773  0.5460 -0.4970
  521MOL0     O70224   6.131   0.352   5.265 -0.2654 -1.2323  0.0230
  521MOL0     C70225   6.004   0.336   5.251  1.0932 -0.8860  0.5268
  521MOL0     C70226   5.928   0.398   5.145 -0.0021  0.9869  0.0062
  521MOL0     C70227   5.790   0.361   5.129 -1.0400 -0.4327  0.6298
  521MOL0     C70228   5.727   0.422   5.001 -0.3301 -0.0728  0.1096
  521MOL0     C70229   5.729   0.261   5.221 -0.7850 -0.6406  0.2974
  521MOL0     C70230   5.583   0.223   5.209 -0.2957  0.1479 -0.5025
  521MOL0     O70231   5.546   0.091   5.229  1.5185 -0.1767 -0.9356
  521MOL0     C70232   5.415   0.055   5.207 -0.1638  0.5821  0.6017
  521MOL0     C70233   5.358  -0.044   5.295 -0.4025 -0.7731  1.2059
  521MOL0     C70234   5.219  -0.091   5.278 -0.3834 -0.1180  0.2351
  521MOL0     C70235   5.152  -0.053   5.157 -0.2442  0.4305 -1.0230
  521MOL0     O70236   5.021  -0.090   5.139  0.2737  0.3700  0.7375
  521MOL0     C70237   4.984  -0.132   5.003 -0.2502  0.6424  0.5040
  521MOL0     C70238   4.894  -0.254   5.016 -0.2525  0.6199  0.3937
  521MOL0     C70239   4.753  -0.227   5.061  0.3441  0.3074  0.0127
  521MOL0     C70240   4.671  -0.351   5.031  0.2619  0.3084 -0.5412
  521MOL0     C70241   4.528  -0.319   4.981 -0.0327  0.2952  0.1934
  521MOL0     C70242   4.441  -0.442   4.956 -0.4524  0.5522  0.5324
  521MOL0     C70243   4.383  -0.516   5.076 -0.4461  0.7480 -0.0836
  521MOL0     C70244   4.458  -0.647   5.093 -0.3694  0.2987 -0.1408
  521MOL0    Cl70245   4.434  -0.692   5.267  0.0348  0.4910  0.3192
  521MOL0     C70246   5.212   0.042   5.072 -0.6103  1.1297 -0.2962
  521MOL0     C70247   5.341   0.089   5.091 -0.4138  0.4579 -1.0248
  521MOL0     O70248   5.508   0.315   5.178 -0.3296 -0.5909 -0.4544
  521MOL0     C70249   5.806   0.206   5.316  0.3888  0.3605 -0.2012
  521MOL0     C70250   5.947   0.234   5.322  0.0487 -0.3540 -0.4096
  521MOL0     N70251   6.447   0.892   5.109  0.5514 -0.1524  0.0624
  521MOL0     N70252   6.542   0.978   5.104 -0.0127 -0.2020 -1.1749
  521MOL0     C70253   7.716   0.502   5.493  0.3433 -0.1296  0.3508
  521MOL0     C70254   7.844   0.544   5.528  0.0446  0.1476  0.2095
  521MOL0     C70255   8.265   0.684   5.485 -0.0979  0.6477  0.1707
  521MOL0     C70256   8.294   0.799   5.560 -0.2095  0.1499  1.0517
  521MOL0     C70257   8.431   0.847   5.571 -0.2642 -0.7561 -0.0556
  521MOL0     C70258   8.539   0.781   5.514 -1.2165 -0.0089 -0.4872
  521MOL0     O70259   8.667   0.839   5.520  0.0450  0.9001 -0.0542
  521MOL0     C70260   8.751   0.772   5.614  0.5294  0.2942 -0.4252
  521MOL0     C70261   8.894   0.823   5.594 -0.9442  0.8770  0.9324
  521MOL0     C70262   8.993   0.815   5.720  0.5225 -0.7856 -0.5890
  521MOL0     C70263   8.935   0.920   5.831  0.1405 -0.0459 -0.0603
  521MOL0     C70264   9.027   0.965   5.934 -0.2643  0.1383 -0.2598
  521MOL0     C70265   9.110   0.989   6.012 -0.7892 -0.6288 -0.1473
  521MOL0     C70266   8.509   0.668   5.434  0.1731  0.0313  0.3118
  521MOL0     C70267   8.375   0.613   5.426 -0.3463  0.0089 -0.1952
  521MOL0     H70268   7.833   0.859   5.417 -0.4680 -0.0815 -0.2089
  521MOL0     H70269   7.610   0.794   5.367 -0.9041 -0.0430  0.0076
  521MOL0     H70270   7.374   0.687   5.377 -0.3190 -0.2790 -0.1331
  521MOL0     H70271   7.488   0.662   5.236  0.9750 -0.9091 -1.3831
  521MOL0     H70272   7.386   0.476   5.164  1.6122 -1.5093  2.8082
  521MOL0     H70273   7.249   0.478   5.283 -0.5153 -1.1278 -1.8932
  521MOL0     H70274   7.283   0.689   5.072 -1.8933 -0.1391 -2.3182
  521MOL0     H70275   7.152   0.562   5.080  0.1873  1.2942 -1.2377
  521MOL0     H70276   7.054   0.630   5.271  0.5767  0.8438  2.1257
  521MOL0     H70277   7.177   0.745   5.319 -0.5899  1.3573 -0.7797
  521MOL0     H70278   7.114   0.894   5.116 -0.4788  0.8723  1.4999
  521MOL0     H70279   6.991   0.775   5.084  1.6776  0.0057 -0.9115
  521MOL0     H70280   6.867   0.819   5.276 -2.1022  0.9737 -3.2070
  521MOL0     H70281   6.995   0.930   5.340  0.2010 -1.2353  0.1482
  521MOL0     H70282   6.925   1.096   5.193  2.4250 -0.3630 -1.0020
  521MOL0     H70283   6.842   0.972   5.084 -2.6441  1.0748  0.0819
  521MOL0     H70284   6.703   1.128   5.220 -2.3943 -0.4223  0.6150
  521MOL0     H70285   6.739   1.033   5.369 -0.1062  3.7230 -0.0467
  521MOL0     H70286   6.637   0.767   5.344 -3.3721 -1.7710  1.2745
  521MOL0     H70287   6.383   0.675   5.338  2.3217  0.0057 -0.8567
  521MOL0     H70288   6.269   0.727   5.210  0.2377  1.5323 -0.2236
  521MOL0     H70289   6.514   0.556   5.142  0.5746  0.5101 -0.0480
  521MOL0     H70290   6.385   0.608   5.040  0.1059  3.9395  0.4985
  521MOL0     H70291   6.398   0.406   5.249  1.6795  0.6807 -1.1089
  521MOL0     H70292   6.329   0.389   5.088  0.0758  1.4715 -1.5031
  521MOL0     H70293   6.147   0.534   5.152 -1.0997 -1.7375 -1.7756
  521MOL0     H70294   6.184   0.546   5.317 -1.8734  1.3800 -1.3366
  521MOL0     H70295   5.964   0.480   5.084  2.2936  0.1213  0.1032
  521MOL0     H70296   5.749   0.338   4.934 -0.8906 -0.4821  0.4331
  521MOL0     H70297   5.621   0.447   5.010  0.2253  3.6529 -1.7705
  521MOL0     H70298   5.769   0.513   4.958 -1.3855 -0.2124 -1.2671
  521MOL0     H70299   5.407  -0.069   5.389  1.6708 -2.3761 -0.2316
  521MOL0     H70300   5.182  -0.160   5.353  1.1916 -2.3622 -0.9191
  521MOL0     H70301   4.921  -0.053   4.961  0.3445  0.5419 -0.6009
  521MOL0     H70302   5.071  -0.147   4.938  0.4369 -0.6201  1.6713
  521MOL0     H70303   4.887  -0.286   4.911 -3.7193  0.1321  0.6451
  521MOL0     H70304   4.945  -0.332   5.072  2.5665  0.6986 -1.8392
  521MOL0     H70305   4.712  -0.145   5.002  1.9209  0.0991 -1.4692
  521MOL0     H70306   4.742  -0.220   5.169 -2.8623  3.7398 -0.3273
  521MOL0     H70307   4.720  -0.414   4.957 -1.1605 -0.4395 -0.8865
  521MOL0     H70308   4.662  -0.405   5.126 -1.2798  0.1834 -0.7321
  521MOL0     H70309   4.539  -0.270   4.884  0.3853  0.6385  0.4105
  521MOL0     H70310   4.485  -0.245   5.049  1.4881  0.8791  0.5635
  521MOL0     H70311   4.355  -0.406   4.899  0.4200  0.4031 -0.9277
  521MOL0     H70312   4.493  -0.507   4.884  0.9781  3.4118 -1.1930
  521MOL0     H70313   4.278  -0.545   5.071 -0.5435  0.5899  1.9829
  521MOL0     H70314   4.400  -0.457   5.167  1.8551 -0.4344  0.3314
  521MOL0     H70315   4.565  -0.638   5.071  0.5087 -2.0668  2.5003
  521MOL0     H70316   4.423  -0.726   5.025  1.1349  0.4443 -1.1265
  521MOL0     H70317   5.153   0.079   4.989  1.1066  1.0384 -1.6219
  521MOL0     H70318   5.389   0.152   5.016 -1.0414  0.1512 -1.7009
  521MOL0     H70319   5.761   0.129   5.378 -2.0275  2.3505  0.6747
  521MOL0     H70320   6.007   0.179   5.394  1.7328  0.1039 -1.3927
  521MOL0     H70321   7.703   0.395   5.509 -1.1725 -0.3446 -1.8963
  521MOL0     H70322   7.915   0.475   5.574 -0.9827  1.1036  3.4999
  521MOL0     H70323   8.222   0.856   5.617  0.3149  1.8971  0.0315
  521MOL0     H70324   8.467   0.934   5.625  3.1978 -0.9772 -1.7723
  521MOL0     H70325   8.713   0.790   5.715  2.3436 -0.1203  0.3671
  521MOL0     H70326   8.750   0.662   5.613 -0.3581  0.2676  1.2341
  521MOL0     H70327   8.897   0.928   5.566 -0.1412  0.7510  0.5081
  521MOL0     H70328   8.939   0.771   5.508  0.4801  1.1969  1.4599
  521MOL0     H70329   9.087   0.852   5.679 -1.2370  2.6795 -1.9149
  521MOL0     H70330   8.994   0.715   5.765 -0.6215 -0.6645 -0.2602
  521MOL0     H70331   8.855   0.861   5.877 -0.4527  0.7702 -0.0316
  521MOL0     H70332   8.886   1.006   5.785 -1.2179 -0.9599 -0.3755
  521MOL0     H70333   9.195   1.009   6.073  1.7803  1.5904 -4.0243
  521MOL0     H70334   8.592   0.616   5.387  0.0401  1.6231 -1.8550
  521MOL0     H70335   8.373   0.517   5.376  4.1811  0.2035 -1.1873
  522MOL0     O70336   5.666   6.014   8.815  0.3791 -0.3846  0.1821
  522MOL0     C70337   5.753   5.969   8.891 -0.0859 -0.2738 -0.1733
  522MOL0     O70338   5.736   5.871   8.980  0.2435  0.1709  0.9037
  522MOL0     C70339   5.619   5.811   9.016  0.5681  0.8502  0.1480
  522MOL0     C70340   5.640   5.722   9.124  0.6964  0.0285 -0.0052
  522MOL0     C70341   5.529   5.648   9.175 -0.2584 -0.7007 -0.0347
  522MOL0     C70342   5.402   5.661   9.111  0.0906  0.0530  0.0093
  522MOL0     O70343   5.293   5.598   9.171 -0.8200 -0.2305 -0.3838
  522MOL0     C70344   5.183   5.692   9.201 -0.1238 -0.3349 -0.4204
  522MOL0     C70345   5.122   5.647   9.334 -0.0338 -0.1257  0.7582
  522MOL0     C70346   5.148   5.492   9.371  1.1093 -0.5225  0.0857
  522MOL0     C70347   5.022   5.440   9.443 -0.0301  1.0609  0.6992
  522MOL0     C70348   4.962   5.517   9.558 -0.5591  0.2309 -1.0052
  522MOL0     C70349   5.066   5.560   9.667 -0.7054  0.6262 -0.3726
  522MOL0     C70350   5.005   5.579   9.807  0.8911 -0.4217  0.6024
  522MOL0     C70351   5.114   5.629   9.898  0.5565 -0.1893  0.1341
  522MOL0     N70352   5.058   5.678  10.025 -0.7995 -0.7364 -0.7983
  522MOL0     C70353   4.993   5.799  10.021 -0.6612  0.1382 -0.8247
  522MOL0     C70354   4.959   5.820  10.145 -0.6803 -0.0863  0.9403
  522MOL0     C70355   4.895   5.950  10.201 -0.3580  0.0916  0.8877
  522MOL0     C70356   4.740   5.963  10.199  0.6575  0.4457 -1.3318
  522MOL0     C70357   4.668   5.892  10.085  0.5371  0.3117  0.5621
  522MOL0     C70358   4.519   5.920  10.083 -0.7450  0.0117 -0.5756
  522MOL0     O70359   4.453   5.841  10.187  0.0797 -0.2158 -0.3106
  522MOL0     C70360   4.318   5.861  10.210 -0.7622  0.2293  0.3210
  522MOL0     C70361   4.262   5.783  10.309  0.0532  0.0999 -0.3887
  522MOL0     C70362   4.129   5.799  10.350  0.3813  0.2975 -0.3835
  522MOL0     C70363   4.078   5.721  10.462  0.4046 -0.3305  0.0018
  522MOL0     C70364   4.047   5.888  10.279 -0.6814 -0.2042 -1.3276
  522MOL0     C70365   3.908   5.911  10.315  0.2599  0.3862 -0.5141
  522MOL0     O70366   3.817   5.826  10.254 -1.0235  0.7644 -0.6436
  522MOL0     C70367   3.690   5.854  10.288  0.8704  0.3308 -0.2358
  522MOL0     C70368   3.607   5.939  10.209  0.2709  1.2363 -0.1016
  522MOL0     C70369   3.472   5.957  10.256  0.6063  0.3444  0.5361
  522MOL0     C70370   3.413   5.884  10.352  0.7386 -0.1228  0.4329
  522MOL0     O70371   3.280   5.901  10.366  0.3767 -0.3370 -0.6904
  522MOL0     C70372   3.236   5.897  10.500 -0.0139  0.5723 -1.2730
  522MOL0     C70373   3.097   5.958  10.513 -0.4780 -0.1951  0.1803
  522MOL0     C70374   2.987   5.879  10.451 -0.2496  1.1055  0.6050
  522MOL0     C70375   2.844   5.950  10.456 -0.1586  0.2244 -0.4629
  522MOL0     C70376   2.728   5.869  10.404 -1.2510  0.1209 -0.7622
  522MOL0     C70377   2.597   5.948  10.432 -0.4843 -0.1346  0.0635
  522MOL0     C70378   2.530   5.913  10.562  0.0348  0.1454  0.0558
  522MOL0     C70379   2.406   6.003  10.578 -0.4792 -0.3035  0.2971
  522MOL0    Cl70380   2.338   5.964  10.733 -0.4945  0.0739  0.0906
  522MOL0     C70381   3.496   5.809  10.438 -0.6974 -0.6945  0.3161
  522MOL0     C70382   3.635   5.798  10.402 -0.4318 -0.1123 -0.5805
  522MOL0     O70383   3.878   6.023  10.353 -0.0540  0.4491 -0.3998
  522MOL0     C70384   4.105   5.963  10.179  0.1304  0.3372  0.1206
  522MOL0     C70385   4.243   5.956  10.147  0.8285 -0.2693  0.0164
  522MOL0     N70386   5.001   5.713  10.223  0.3900 -0.2775  0.5801
  522MOL0     N70387   5.050   5.620  10.143 -0.1197 -0.0470 -0.0948
  522MOL0     C70388   5.389   5.738   9.004 -0.1249 -0.2717 -0.0760
  522MOL0     C70389   5.495   5.815   8.957 -0.5921  0.4227  0.7515
  522MOL0     C70390   5.886   6.042   8.885  1.1540  0.7522  0.0066
  522MOL0     C70391   5.904   6.168   8.818  0.2911  0.8563 -0.1894
  522MOL0     C70392   6.030   6.228   8.817 -0.3377 -0.3336 -0.1135
  522MOL0     C70393   6.142   6.165   8.876  0.9103 -0.1548  0.4420
  522MOL0     O70394   6.264   6.226   8.852 -0.1642 -0.0017 -0.2414
  522MOL0     C70395   6.374   6.185   8.932  0.4484  0.0274 -1.2823
  522MOL0     C70396   6.485   6.285   8.929  0.2811 -0.6497 -0.0859
  522MOL0     C70397   6.611   6.218   8.987 -0.2633  0.1928 -0.8494
  522MOL0     C70398   6.683   6.118   8.885 -0.4343 -0.0209 -0.7112
  522MOL0     C70399   6.795   6.186   8.820  0.3836  0.1014 -0.5215
  522MOL0     C70400   6.892   6.243   8.772  0.8908  0.6003  0.2098
  522MOL0     C70401   6.127   6.044   8.942  0.2748  0.6398 -0.7965
  522MOL0     C70402   6.004   5.984   8.941  0.1072 -0.0908  0.7512
  522MOL0     H70403   5.737   5.713   9.173 -0.2664 -2.1247  1.6542
  522MOL0     H70404   5.536   5.585   9.263 -1.0547  2.3298  2.3461
  522MOL0     H70405   5.207   5.798   9.208 -2.3727  0.2109 -0.3203
  522MOL0     H70406   5.111   5.689   9.118  2.0148  3.7494 -2.7608
  522MOL0     H70407   5.169   5.700   9.417  2.9887  0.6647 -1.3075
  522MOL0     H70408   5.015   5.673   9.334  0.3109  1.4714 -1.0094
  522MOL0     H70409   5.155   5.423   9.287  2.7947 -0.2459 -0.0343
  522MOL0     H70410   5.241   5.482   9.429  0.3570  0.2700  1.4811
  522MOL0     H70411   4.941   5.423   9.371  1.5424 -2.2274 -0.5139
  522MOL0     H70412   5.037   5.343   9.491 -2.8800 -0.4473 -1.1429
  522MOL0     H70413   4.908   5.602   9.516 -0.2320  1.3761  0.7772
  522MOL0     H70414   4.897   5.445   9.609 -0.2385  0.3229 -0.4616
  522MOL0     H70415   5.146   5.485   9.668 -0.3102  0.8117 -3.7644
  522MOL0     H70416   5.120   5.650   9.636  0.9428 -1.4235 -4.1222
  522MOL0     H70417   4.932   5.660   9.800  0.7591 -0.4894  1.1342
  522MOL0     H70418   4.955   5.488   9.843 -0.4480  0.0211 -0.1013
  522MOL0     H70419   5.152   5.719   9.848 -1.3747  0.7292  0.2228
  522MOL0     H70420   5.185   5.548   9.916  1.6997  0.7309 -0.0615
  522MOL0     H70421   4.974   5.865   9.937 -2.2135  0.4848 -0.2476
  522MOL0     H70422   4.912   5.958  10.309 -5.4654 -2.1233  2.1553
  522MOL0     H70423   4.938   6.033  10.144  2.0190 -0.8312  1.2168
  522MOL0     H70424   4.709   6.068  10.210  0.4116  0.3356 -0.9479
  522MOL0     H70425   4.699   5.902  10.279  0.3762 -0.2681 -2.0153
  522MOL0     H70426   4.682   5.784  10.077 -3.5870 -0.2838 -2.8445
  522MOL0     H70427   4.714   5.906   9.987  0.6558 -1.4580  0.3313
  522MOL0     H70428   4.467   5.901   9.988 -1.2109 -0.8017 -0.1742
  522MOL0     H70429   4.508   6.025  10.109  1.5403  0.2216 -0.2272
  522MOL0     H70430   4.324   5.709  10.358 -1.3354 -0.5291  0.4870
  522MOL0     H70431   4.001   5.652  10.424 -3.3304  3.5938 -0.3548
  522MOL0     H70432   4.156   5.680  10.527  0.6436  0.6399  0.3367
  522MOL0     H70433   4.024   5.796  10.520  1.1319  1.7135 -1.8468
  522MOL0     H70434   3.635   5.995  10.121 -3.5611  4.1090  0.2638
  522MOL0     H70435   3.415   6.041  10.216  3.3691  2.0696 -0.0900
  522MOL0     H70436   3.229   5.793  10.534  2.8268  0.7701  0.2479
  522MOL0     H70437   3.296   5.957  10.570  3.4234 -3.3166 -0.5254
  522MOL0     H70438   3.073   5.973  10.619  0.1979 -0.4715  0.3769
  522MOL0     H70439   3.104   6.050  10.455 -0.3951 -0.9877 -1.1117
  522MOL0     H70440   2.990   5.778  10.493 -1.3859  0.4031 -0.9050
  522MOL0     H70441   3.011   5.869  10.345 -1.2378  2.3228  0.2444
  522MOL0     H70442   2.832   5.984  10.559  0.3884  3.6080 -1.3827
  522MOL0     H70443   2.853   6.043  10.398  1.7326  0.1559 -0.3428
  522MOL0     H70444   2.708   5.771  10.448  0.0152 -0.3935 -1.2791
  522MOL0     H70445   2.741   5.861  10.295 -4.4225  0.3378 -1.2452
  522MOL0     H70446   2.624   6.054  10.432 -0.7698 -0.0422 -1.8235
  522MOL0     H70447   2.528   5.927  10.351 -0.5052  0.0279  0.0395
  522MOL0     H70448   2.596   5.925  10.649 -0.1464  0.1858  0.1870
  522MOL0     H70449   2.492   5.810  10.567  1.7429 -0.5827 -0.8440
  522MOL0     H70450   2.328   6.000  10.502  0.2943  0.1022 -0.5282
  522MOL0     H70451   2.435   6.108  10.586 -1.4477 -0.0560  0.7143
  522MOL0     H70452   3.468   5.759  10.530 -0.1586 -2.8072 -0.6207
  522MOL0     H70453   3.702   5.743  10.467 -1.4703  1.7295  2.2592
  522MOL0     H70454   4.050   6.030  10.113 -0.2111 -1.2760 -1.2866
  522MOL0     H70455   4.280   6.018  10.065  3.7812 -1.5300  0.2642
  522MOL0     H70456   5.298   5.740   8.946 -0.5758 -1.6786  0.5434
  522MOL0     H70457   5.480   5.868   8.864 -0.4466 -1.8366 -0.6345
  522MOL0     H70458   5.818   6.210   8.767  0.1388 -2.2681 -2.8109
  522MOL0     H70459   6.052   6.316   8.758 -1.9650  2.0034  2.5339
  522MOL0     H70460   6.345   6.160   9.035  0.5549  1.6073 -0.8416
  522MOL0     H70461   6.409   6.094   8.883 -2.0248 -0.2698 -2.6652
  522MOL0     H70462   6.454   6.364   8.997  0.4723  1.0429 -1.8747
  522MOL0     H70463   6.495   6.334   8.832 -3.4861 -0.1974 -0.3732
  522MOL0     H70464   6.587   6.159   9.076 -1.4670  2.8813  0.7554
  522MOL0     H70465   6.675   6.302   9.016 -3.5471  3.3684 -1.9602
  522MOL0     H70466   6.612   6.070   8.817 -1.1881  1.0438 -0.7006
  522MOL0     H70467   6.716   6.030   8.941 -1.7815  0.5201  1.0084
  522MOL0     H70468   6.980   6.290   8.732  2.3622 -1.9830  0.1194
  522MOL0     H70469   6.217   5.997   8.979 -0.8333 -1.1716 -0.2745
  522MOL0     H70470   5.990   5.888   8.989 -0.6317  0.3667  1.4981
  523MOL0     O70471   4.488   0.328   3.443 -0.3373 -0.2383  0.2132
  523MOL0     C70472   4.471   0.252   3.537  0.0394 -0.9200 -0.7528
  523MOL0     O70473   4.546   0.248   3.659 -0.2351 -0.0516 -0.1421
  523MOL0     C70474   4.666   0.320   3.676  0.4531  0.2891 -0.0663
  523MOL0     C70475   4.691   0.448   3.618 -0.4663 -0.0897  0.1616
  523MOL0     C70476   4.808   0.518   3.649 -0.0103  1.0925  0.3925
  523MOL0     C70477   4.909   0.468   3.727  0.3378 -0.4089  0.8209
  523MOL0     O70478   5.019   0.543   3.751 -0.4069  0.1563  1.5534
  523MOL0     C70479   5.139   0.489   3.810 -0.2604 -0.6094 -0.2848
  523MOL0     C70480   5.257   0.589   3.810  0.5259  0.6049  0.1935
  523MOL0     C70481   5.309   0.622   3.673  0.5723  0.2022 -0.5125
  523MOL0     C70482   5.384   0.755   3.669  0.6761 -0.2057  0.4993
  523MOL0     C70483   5.435   0.789   3.532  0.6228 -0.3461  0.1978
  523MOL0     C70484   5.561   0.719   3.487  0.3774 -0.3430  0.4320
  523MOL0     C70485   5.681   0.752   3.574  0.7501 -0.1151  0.2302
  523MOL0     C70486   5.817   0.706   3.505  0.3035  0.5053  0.4546
  523MOL0     N70487   5.847   0.812   3.405 -0.5213 -0.4355  0.1944
  523MOL0     C70488   5.927   0.919   3.434  0.1174 -0.2622  0.2126
  523MOL0     C70489   5.969   0.968   3.314  0.4104  0.0179 -0.1431
  523MOL0     C70490   6.043   1.091   3.285  0.0363  0.3365 -0.4801
  523MOL0     C70491   6.139   1.121   3.403  0.6227  0.0095 -0.3729
  523MOL0     C70492   6.207   1.262   3.383 -0.0912  0.3255 -0.1965
  523MOL0     C70493   6.113   1.379   3.397  0.3946  0.0732  0.3008
  523MOL0     O70494   6.021   1.366   3.499 -0.3358  0.4228 -1.0005
  523MOL0     C70495   5.932   1.471   3.536 -0.4483  0.8101  1.0505
  523MOL0     C70496   5.884   1.565   3.449 -0.0106  0.2699  0.3842
  523MOL0     C70497   5.775   1.645   3.497  0.2807 -0.6988  0.0951
  523MOL0     C70498   5.725   1.760   3.402  0.5311  1.5323 -1.1579
  523MOL0     C70499   5.734   1.625   3.629  0.2887 -0.3897  0.6376
  523MOL0     C70500   5.626   1.710   3.685 -0.4557 -0.7485 -0.9124
  523MOL0     O70501   5.577   1.825   3.625  0.2143  0.4811 -0.5747
  523MOL0     C70502   5.493   1.897   3.709 -0.9311  0.2106  0.0413
  523MOL0     C70503   5.539   2.012   3.773  0.3123 -0.1650 -0.6357
  523MOL0     C70504   5.450   2.091   3.857 -0.0540  0.1288 -0.3753
  523MOL0     C70505   5.320   2.054   3.875 -0.1953 -0.6123 -0.3993
  523MOL0     O70506   5.239   2.137   3.951  0.7602 -0.2345  0.1609
  523MOL0     C70507   5.099   2.111   3.963  0.1714 -0.1897 -0.6613
  523MOL0     C70508   5.071   1.999   4.064  0.1701 -0.3067 -0.2876
  523MOL0     C70509   4.927   2.014   4.128 -0.5211  0.3335 -0.1408
  523MOL0     C70510   4.919   1.944   4.267  0.1540 -0.2683  0.0285
  523MOL0     C70511   4.779   1.961   4.328 -0.1420 -0.4488 -0.7898
  523MOL0     C70512   4.665   1.929   4.237  0.0234  0.5825  1.1007
  523MOL0     C70513   4.673   1.779   4.185 -0.2896 -0.5304 -0.4408
  523MOL0     C70514   4.531   1.729   4.162  0.5947  0.3498 -0.1246
  523MOL0    Cl70515   4.455   1.812   4.026  0.0444 -0.1495 -0.0998
  523MOL0     C70516   5.268   1.948   3.797  0.0477  0.7113 -0.3264
  523MOL0     C70517   5.358   1.864   3.720  0.4713  0.4419  0.8701
  523MOL0     O70518   5.589   1.671   3.802 -0.1600 -1.1265 -0.3441
  523MOL0     C70519   5.804   1.541   3.722  0.3656  0.1250  0.3576
  523MOL0     C70520   5.895   1.462   3.666  0.1580 -0.3231 -1.0475
  523MOL0     N70521   5.913   0.884   3.215 -0.2149  1.1285 -0.5011
  523MOL0     N70522   5.855   0.782   3.272  0.0976 -0.7789 -0.1375
  523MOL0     C70523   4.889   0.336   3.777  0.5576  0.4865 -0.4534
  523MOL0     C70524   4.766   0.275   3.762 -0.6717  0.1722 -0.2001
  523MOL0     C70525   4.361   0.151   3.524 -0.1361 -0.4644 -0.1161
  523MOL0     C70526   4.295   0.132   3.406  0.2493  0.1836  0.2249
  523MOL0     C70527   4.189   0.033   3.393  0.2342 -0.1419 -0.0731
  523MOL0     C70528   4.155  -0.055   3.494 -0.6155  0.2332  0.0238
  523MOL0     O70529   4.066  -0.165   3.493  0.1015  0.1192  0.4984
  523MOL0     C70530   4.011  -0.205   3.366 -0.0763 -0.3446 -0.2593
  523MOL0     C70531   4.100  -0.287   3.279  0.1085  0.1492 -0.4215
  523MOL0     C70532   4.028  -0.323   3.149  0.3551 -0.0695 -1.1977
  523MOL0     C70533   4.121  -0.392   3.045  1.0128  0.2011 -0.0103
  523MOL0     C70534   4.212  -0.309   2.975  0.4218 -0.0713 -0.6361
  523MOL0     C70535   4.302  -0.257   2.922  0.2251 -0.3401 -0.2772
  523MOL0     C70536   4.215  -0.023   3.617  1.1476  0.7985  0.8649
  523MOL0     C70537   4.320   0.068   3.635  0.3276 -0.8477  0.1468
  523MOL0     H70538   4.622   0.505   3.557  0.6586  0.0808 -0.9839
  523MOL0     H70539   4.850   0.610   3.608  3.4527 -0.9686 -1.2118
  523MOL0     H70540   5.119   0.466   3.915  0.2547 -1.3029 -0.3288
  523MOL0     H70541   5.169   0.391   3.772  1.5480 -1.3110  2.5711
  523MOL0     H70542   5.218   0.684   3.849 -2.3283 -0.2465 -0.3243
  523MOL0     H70543   5.339   0.564   3.877  0.0258  1.7322  1.2552
  523MOL0     H70544   5.384   0.547   3.648 -2.0920 -2.5506 -0.8189
  523MOL0     H70545   5.230   0.620   3.597  0.3484 -0.7838 -0.2699
  523MOL0     H70546   5.322   0.831   3.718  1.3895 -0.9158  2.6492
  523MOL0     H70547   5.466   0.758   3.742  1.2755 -1.9033 -0.0562
  523MOL0     H70548   5.358   0.768   3.456  0.8429 -1.1396  0.1898
  523MOL0     H70549   5.460   0.895   3.527  3.5259 -0.8955  1.0455
  523MOL0     H70550   5.544   0.611   3.488  1.2196 -0.4783  1.1541
  523MOL0     H70551   5.597   0.744   3.386 -0.6919 -1.5674 -0.2851
  523MOL0     H70552   5.679   0.860   3.593  4.0808  0.2411 -0.8421
  523MOL0     H70553   5.677   0.696   3.667  1.6432 -2.1973 -0.9210
  523MOL0     H70554   5.793   0.612   3.455 -1.3355  0.9425  0.3649
  523MOL0     H70555   5.898   0.684   3.576  0.9763  1.4305 -0.0018
  523MOL0     H70556   5.949   0.950   3.536 -2.6632 -2.0001  1.4698
  523MOL0     H70557   6.092   1.103   3.188 -0.9922  0.9096 -0.9503
  523MOL0     H70558   5.970   1.173   3.288 -3.6395 -2.7134 -0.2377
  523MOL0     H70559   6.220   1.049   3.413 -1.6655 -2.8341 -0.7739
  523MOL0     H70560   6.076   1.118   3.493  0.6168  0.9388 -0.3420
  523MOL0     H70561   6.253   1.263   3.284 -1.0074 -1.3208 -0.6843
  523MOL0     H70562   6.284   1.275   3.460 -0.6664 -2.3337  0.9729
  523MOL0     H70563   6.063   1.390   3.301 -0.8283 -1.6705  0.6835
  523MOL0     H70564   6.179   1.464   3.413 -0.7233  0.5971  2.5148
  523MOL0     H70565   5.915   1.566   3.345  0.2024  0.4307  0.4497
  523MOL0     H70566   5.620   1.734   3.386  0.7309 -0.6062  0.4597
  523MOL0     H70567   5.738   1.855   3.455  0.9719  0.5287  0.6182
  523MOL0     H70568   5.768   1.766   3.302  1.0222 -0.4678 -1.1145
  523MOL0     H70569   5.642   2.043   3.759  0.4516 -0.3941 -0.1386
  523MOL0     H70570   5.488   2.169   3.923  0.1777 -0.4760  0.2197
  523MOL0     H70571   5.054   2.198   4.010 -1.1915 -1.2946  0.1621
  523MOL0     H70572   5.046   2.093   3.869 -2.4207  2.0666  0.2282
  523MOL0     H70573   5.066   1.913   3.997 -0.9303  0.8415 -1.7338
  523MOL0     H70574   5.147   1.989   4.143  0.4752 -2.2396 -0.7741
  523MOL0     H70575   4.856   1.978   4.052 -1.6719  0.6323  0.7563
  523MOL0     H70576   4.894   2.117   4.144  1.1090  1.4753 -3.2344
  523MOL0     H70577   4.941   1.838   4.251  1.6651 -0.1460  1.0996
  523MOL0     H70578   4.990   1.980   4.342 -1.8873  1.6183  1.1966
  523MOL0     H70579   4.767   2.065   4.359 -3.1689 -1.3219  1.3669
  523MOL0     H70580   4.768   1.910   4.424  1.5644  2.5362  1.1585
  523MOL0     H70581   4.580   1.927   4.306 -0.7250 -2.8344  0.2840
  523MOL0     H70582   4.653   1.997   4.153  0.1765 -1.6306 -0.8217
  523MOL0     H70583   4.724   1.709   4.252 -0.1645 -0.0935 -0.0769
  523MOL0     H70584   4.729   1.780   4.091  0.1036  0.5033 -0.2085
  523MOL0     H70585   4.477   1.739   4.257 -0.4319 -0.9339 -0.5510
  523MOL0     H70586   4.533   1.621   4.145  0.7557 -0.1058  2.4072
  523MOL0     H70587   5.161   1.931   3.804  0.3613 -1.3526 -0.1368
  523MOL0     H70588   5.317   1.790   3.653  1.4037  0.4074  0.3193
  523MOL0     H70589   5.783   1.531   3.828  1.9391 -0.7413  0.6193
  523MOL0     H70590   5.937   1.400   3.745 -2.3133  1.9641  2.3329
  523MOL0     H70591   4.963   0.283   3.836  0.0992  1.9449  1.5346
  523MOL0     H70592   4.739   0.192   3.826  1.2916 -0.7383 -0.4822
  523MOL0     H70593   4.325   0.185   3.317 -0.3063  0.9152  0.4575
  523MOL0     H70594   4.172   0.013   3.288  1.4752  2.5571 -0.8733
  523MOL0     H70595   3.918  -0.262   3.374  0.0811 -0.6130 -0.3168
  523MOL0     H70596   3.978  -0.110   3.323 -1.5462 -1.5909 -2.0323
  523MOL0     H70597   4.130  -0.373   3.340  2.0606  1.0095 -0.0900
  523MOL0     H70598   4.187  -0.225   3.259  2.9297 -4.1768 -3.2852
  523MOL0     H70599   3.975  -0.235   3.111 -3.2146 -1.2624  0.5882
  523MOL0     H70600   3.950  -0.392   3.180 -1.4156  3.3139  2.8870
  523MOL0     H70601   4.047  -0.439   2.979 -1.9859 -0.6815  3.6043
  523MOL0     H70602   4.179  -0.474   3.089  1.1266  0.5274  0.4596
  523MOL0     H70603   4.378  -0.197   2.876 -0.4414  0.5061 -0.3104
  523MOL0     H70604   4.190  -0.085   3.702  3.0061 -1.1134  0.1260
  523MOL0     H70605   4.367   0.083   3.732 -0.4936 -1.9057  0.7198
  524MOL0     O70606   9.479   6.028   9.294  0.3798 -0.0914  0.3388
  524MOL0     C70607   9.445   5.915   9.279 -0.0689  0.0654  1.0967
  524MOL0     O70608   9.336   5.852   9.330  0.5484 -0.4523  0.4216
  524MOL0     C70609   9.230   5.933   9.361  0.1831  0.3772  0.2226
  524MOL0     C70610   9.102   5.905   9.308 -0.8826  0.2009 -0.0254
  524MOL0     C70611   8.991   5.978   9.356 -0.7982 -0.7759 -0.8076
  524MOL0     C70612   9.006   6.086   9.440 -0.0098  0.5913 -0.7441
  524MOL0     O70613   8.900   6.171   9.491  0.5483 -0.4046 -0.4847
  524MOL0     C70614   8.769   6.110   9.508 -0.1281  0.1344 -0.0722
  524MOL0     C70615   8.658   6.208   9.446 -0.7011  0.2469  0.5989
  524MOL0     C70616   8.513   6.144   9.438 -0.8155  0.2086 -0.1076
  524MOL0     C70617   8.511   6.064   9.307 -0.6939  0.0658  0.5198
  524MOL0     C70618   8.379   6.003   9.287  0.0269 -0.1233  0.4721
  524MOL0     C70619   8.363   5.941   9.149 -0.1649 -0.4983  0.1500
  524MOL0     C70620   8.232   5.869   9.147  0.0922 -0.4750  0.0061
  524MOL0     C70621   8.239   5.727   9.211 -0.5585  0.4343 -0.6531
  524MOL0     N70622   8.124   5.646   9.167 -0.6804 -1.4171  0.0035
  524MOL0     C70623   7.999   5.662   9.218 -0.0886  1.0603  0.3235
  524MOL0     C70624   7.922   5.610   9.118  1.2525  0.7120  0.2713
  524MOL0     C70625   7.768   5.598   9.127 -0.2742  0.0806 -0.1974
  524MOL0     C70626   7.710   5.576   8.992  0.3953 -0.2912  0.0862
  524MOL0     C70627   7.557   5.614   8.983 -0.3375  1.0768  0.5340
  524MOL0     C70628   7.466   5.525   9.062  0.0261  0.2451 -0.1087
  524MOL0     O70629   7.327   5.547   9.032  0.4116  0.1399 -0.2014
  524MOL0     C70630   7.232   5.503   9.125 -0.1392 -0.5402  0.3541
  524MOL0     C70631   7.257   5.433   9.240 -0.1051  0.0135  0.4062
  524MOL0     C70632   7.156   5.384   9.322 -0.8463  0.2519 -0.0448
  524MOL0     C70633   7.195   5.307   9.444  0.1877  0.6391 -0.4525
  524MOL0     C70634   7.023   5.419   9.293  0.2054 -0.4652  0.6074
  524MOL0     C70635   6.900   5.378   9.372 -0.3995  0.2716  0.0298
  524MOL0     O70636   6.923   5.292   9.475  0.6876  0.3865  0.0896
  524MOL0     C70637   6.814   5.230   9.538 -0.0949 -0.5608 -0.3129
  524MOL0     C70638   6.726   5.150   9.474 -0.7429  0.1711  0.8418
  524MOL0     C70639   6.618   5.092   9.528  0.3046  0.4685  0.9674
  524MOL0     C70640   6.586   5.109   9.668 -0.3378 -0.5712  0.4702
  524MOL0     O70641   6.493   5.038   9.724 -0.1506  0.4193 -0.6270
  524MOL0     C70642   6.494   4.893   9.711  0.8983  0.9764  0.3041
  524MOL0     C70643   6.630   4.826   9.748 -1.2604 -0.0343 -0.5789
  524MOL0     C70644   6.682   4.869   9.887  0.2053 -0.1009  0.1629
  524MOL0     C70645   6.793   4.786   9.940 -0.3698 -0.2205 -0.3753
  524MOL0     C70646   6.859   4.848  10.064 -0.4376  0.1229 -0.4160
  524MOL0     C70647   6.948   4.962  10.041 -0.5456 -0.0055 -0.0837
  524MOL0     C70648   7.022   5.001  10.169  0.9547  1.0005 -0.1375
  524MOL0     C70649   7.123   5.117  10.151 -0.0587  0.4007  0.5104
  524MOL0    Cl70650   7.053   5.264  10.080  0.0931  0.1550 -0.4972
  524MOL0     C70651   6.672   5.195   9.736  1.1221 -0.5933  1.0769
  524MOL0     C70652   6.786   5.254   9.679 -0.5212 -0.0602  0.4776
  524MOL0     O70653   6.791   5.409   9.325  0.1814  0.5450 -0.3630
  524MOL0     C70654   7.000   5.502   9.175  0.4114  0.3543 -0.5866
  524MOL0     C70655   7.105   5.533   9.090 -0.8703  0.2600  0.8211
  524MOL0     N70656   8.003   5.553   9.024 -0.7915 -0.0845 -0.8564
  524MOL0     N70657   8.122   5.577   9.049  0.3285 -0.3339  1.2442
  524MOL0     C70658   9.128   6.125   9.478 -0.1244 -0.2125  0.2011
  524MOL0     C70659   9.238   6.047   9.452  0.3796  0.9038 -0.6169
  524MOL0     C70660   9.547   5.828   9.217 -0.3556 -0.9777 -0.4102
  524MOL0     C70661   9.564   5.703   9.262 -1.3652  1.1361  0.1950
  524MOL0     C70662   9.669   5.629   9.218 -0.6739 -0.4672  0.0875
  524MOL0     C70663   9.766   5.684   9.133  0.0863  0.1779  0.0175
  524MOL0     O70664   9.870   5.601   9.084  0.4723 -0.5705 -0.0832
  524MOL0     C70665   9.995   5.650   9.131 -0.4820  0.3658 -0.5650
  524MOL0     C70666  10.108   5.635   9.035 -0.6263 -0.3895 -0.5990
  524MOL0     C70667  10.067   5.688   8.901  0.2776  0.0636  0.7980
  524MOL0     C70668  10.177   5.659   8.798  0.4570 -0.2350  0.0488
  524MOL0     C70669  10.150   5.718   8.665 -0.4398  0.1199 -0.0187
  524MOL0     C70670  10.135   5.737   8.546 -0.1956  0.1184  0.3336
  524MOL0     C70671   9.737   5.801   9.060  1.0676  0.6224 -0.6686
  524MOL0     C70672   9.627   5.879   9.111  0.0583 -0.3610 -0.5594
  524MOL0     H70673   9.093   5.816   9.246 -0.2330 -0.5531  0.9355
  524MOL0     H70674   8.897   5.938   9.320 -1.1631 -1.4039  0.7647
  524MOL0     H70675   8.766   6.010   9.463  2.1414  0.4987 -1.1518
  524MOL0     H70676   8.761   6.092   9.615  2.7060  1.1651  0.3952
  524MOL0     H70677   8.646   6.294   9.513 -0.7301  1.2607 -0.6758
  524MOL0     H70678   8.700   6.247   9.353  0.7985 -2.4423  0.0459
  524MOL0     H70679   8.482   6.087   9.525  1.8460  0.5604  1.1658
  524MOL0     H70680   8.436   6.221   9.427  1.5889  2.9476  0.8094
  524MOL0     H70681   8.543   6.131   9.227  3.4097 -2.7241 -0.4905
  524MOL0     H70682   8.587   5.985   9.309  0.6192  1.1451  4.8171
  524MOL0     H70683   8.368   5.924   9.361 -1.3538 -0.9241 -0.5293
  524MOL0     H70684   8.306   6.081   9.309 -3.8748 -3.0350 -0.8700
  524MOL0     H70685   8.370   6.023   9.077  3.2410  0.2243  1.1382
  524MOL0     H70686   8.451   5.884   9.120  0.7010  1.5785 -1.5588
  524MOL0     H70687   8.158   5.932   9.197  1.3943  0.1743  1.2140
  524MOL0     H70688   8.184   5.871   9.049 -2.2628  2.1758  1.0701
  524MOL0     H70689   8.239   5.738   9.320  1.2408 -0.9736 -0.4641
  524MOL0     H70690   8.325   5.676   9.165 -0.2858 -0.9556  1.2863
  524MOL0     H70691   7.971   5.705   9.314 -1.1811 -1.8144  1.3911
  524MOL0     H70692   7.731   5.517   9.190  1.0024  0.7397  1.4853
  524MOL0     H70693   7.736   5.692   9.175 -0.5798  0.6857 -1.5501
  524MOL0     H70694   7.731   5.479   8.947  2.4425 -0.7860  1.9504
  524MOL0     H70695   7.761   5.655   8.936  0.6957  0.5484  1.4799
  524MOL0     H70696   7.527   5.603   8.878 -0.2444 -1.6035  0.7198
  524MOL0     H70697   7.542   5.719   9.012 -0.5518  0.4189  3.0431
  524MOL0     H70698   7.482   5.539   9.169 -3.0775 -2.2438  0.8531
  524MOL0     H70699   7.486   5.421   9.033  1.8918  1.1910 -2.6096
  524MOL0     H70700   7.356   5.402   9.273 -0.3857 -0.1013  1.1556
  524MOL0     H70701   7.167   5.202   9.431  1.1971  0.0920  1.4241
  524MOL0     H70702   7.302   5.310   9.469 -0.3832  2.5968  2.3156
  524MOL0     H70703   7.140   5.343   9.532 -0.2304 -1.2819  0.1168
  524MOL0     H70704   6.741   5.123   9.370 -0.8398 -0.5640  1.0131
  524MOL0     H70705   6.546   5.027   9.480 -2.3672  2.4260  2.1094
  524MOL0     H70706   6.422   4.844   9.777 -0.6614  1.2473 -1.1188
  524MOL0     H70707   6.464   4.871   9.608 -1.6350  0.9308  0.9786
  524MOL0     H70708   6.629   4.717   9.751 -0.0074 -0.0337  0.5610
  524MOL0     H70709   6.715   4.858   9.688  0.4217 -0.0615  1.6594
  524MOL0     H70710   6.599   4.861   9.958 -0.4945  0.2355 -0.6033
  524MOL0     H70711   6.713   4.974   9.890 -0.5975  0.1348  1.1045
  524MOL0     H70712   6.750   4.691   9.973  0.3321 -0.3124  0.2878
  524MOL0     H70713   6.875   4.789   9.868  0.1237  0.1138  0.1873
  524MOL0     H70714   6.921   4.782  10.125  0.1362  0.1484 -0.9521
  524MOL0     H70715   6.781   4.884  10.131  2.9744  2.9840  2.4509
  524MOL0     H70716   7.029   4.943   9.970  2.1501  4.9355  1.1684
  524MOL0     H70717   6.887   5.041   9.996  0.2883  1.1246  0.7331
  524MOL0     H70718   7.070   4.915  10.216 -0.8180  0.1981  0.2834
  524MOL0     H70719   6.945   5.039  10.236 -1.6009 -0.1065 -2.2886
  524MOL0     H70720   7.203   5.084  10.085 -1.6378  0.0101 -1.3127
  524MOL0     H70721   7.176   5.138  10.244 -1.3436 -2.1167  1.8986
  524MOL0     H70722   6.652   5.222   9.839 -1.1783  3.1292 -0.1311
  524MOL0     H70723   6.845   5.329   9.730 -2.1566  2.6511 -1.3382
  524MOL0     H70724   6.903   5.544   9.151  0.5302  1.0172  0.0740
  524MOL0     H70725   7.093   5.590   8.999  2.3502  2.5453  1.6630
  524MOL0     H70726   9.148   6.204   9.550  1.4472 -1.9190  1.7575
  524MOL0     H70727   9.329   6.078   9.502  0.5452  1.0516 -1.0105
  524MOL0     H70728   9.491   5.665   9.333  0.3203 -2.0967  0.4170
  524MOL0     H70729   9.687   5.531   9.262 -1.6286 -0.3977  0.6476
  524MOL0     H70730   9.990   5.756   9.159  0.2155  1.0149 -2.7453
  524MOL0     H70731  10.011   5.587   9.219 -0.6253 -1.7215 -1.9815
  524MOL0     H70732  10.118   5.526   9.028  0.7403 -0.3063 -0.3187
  524MOL0     H70733  10.199   5.682   9.075 -2.3917  1.2537  1.7084
  524MOL0     H70734  10.063   5.796   8.917  1.1408 -0.0744  2.1067
  524MOL0     H70735   9.975   5.641   8.866  1.2205  0.3751 -2.4542
  524MOL0     H70736  10.182   5.550   8.790 -2.5450 -0.3558 -1.4487
  524MOL0     H70737  10.275   5.697   8.830  0.9034 -1.4438  0.1971
  524MOL0     H70738  10.109   5.744   8.442  0.9632  0.7416  0.0638
  524MOL0     H70739   9.801   5.826   8.976  2.3806  0.1646  0.1617
  524MOL0     H70740   9.602   5.968   9.055 -1.0913  1.4240  2.5540
  525MOL0     O70741   5.294   6.847   3.022 -0.3647 -0.4880 -0.2230
  525MOL0     C70742   5.315   6.828   3.139 -0.1850 -0.1386  0.6254
  525MOL0     O70743   5.304   6.701   3.193 -0.3727 -0.0924 -0.3690
  525MOL0     C70744   5.277   6.593   3.117  0.4491  0.2198  0.1481
  525MOL0     C70745   5.358   6.481   3.139 -0.4135  0.3490 -0.0902
  525MOL0     C70746   5.344   6.369   3.063 -0.0556  0.1732  0.3480
  525MOL0     C70747   5.248   6.358   2.964  0.8417 -0.7624  0.1091
  525MOL0     O70748   5.219   6.251   2.888  0.7617  0.9878 -0.0780
  525MOL0     C70749   5.254   6.126   2.942 -0.0344  0.0287 -0.4164
  525MOL0     C70750   5.203   6.013   2.855 -0.0506  0.1042 -0.1788
  525MOL0     C70751   5.060   6.035   2.806  0.4817  0.3928  0.3838
  525MOL0     C70752   4.961   6.036   2.920  0.6211  0.4367  0.6122
  525MOL0     C70753   4.811   6.036   2.889 -0.2600  0.2334  0.1233
  525MOL0     C70754   4.773   6.125   2.762  0.2728 -0.0328 -0.5258
  525MOL0     C70755   4.626   6.119   2.726  0.1155  0.7689  0.4144
  525MOL0     C70756   4.569   5.972   2.722  0.1745  0.3539  0.3586
  525MOL0     N70757   4.428   5.976   2.673  0.5602 -0.3059  0.1750
  525MOL0     C70758   4.313   5.993   2.742 -0.1329  0.6153  0.6542
  525MOL0     C70759   4.225   5.994   2.636  0.2112  0.2488  0.1882
  525MOL0     C70760   4.078   6.006   2.658 -0.0672 -0.1019  0.2347
  525MOL0     C70761   3.993   5.935   2.551 -0.0024  0.0776 -0.1709
  525MOL0     C70762   3.841   5.947   2.595  0.1129 -0.5136  0.0265
  525MOL0     C70763   3.751   5.848   2.522  1.1027  0.1878  1.0726
  525MOL0     O70764   3.804   5.724   2.577 -0.1539  0.0120  0.2204
  525MOL0     C70765   3.735   5.610   2.544  0.1244  0.5528  0.5734
  525MOL0     C70766   3.633   5.606   2.436 -0.0925 -0.2051 -1.3119
  525MOL0     C70767   3.556   5.493   2.416 -0.1437  0.7070  0.2838
  525MOL0     C70768   3.475   5.484   2.293 -0.3779  0.1529  0.3781
  525MOL0     C70769   3.573   5.385   2.504 -0.1093 -0.6915  0.2975
  525MOL0     C70770   3.494   5.268   2.495  0.7399 -0.5623  0.2238
  525MOL0     O70771   3.558   5.150   2.471 -0.1807  0.6045  0.0976
  525MOL0     C70772   3.473   5.043   2.474 -0.5758 -0.3110 -0.8934
  525MOL0     C70773   3.437   4.985   2.596 -0.5555  1.4376  0.0876
  525MOL0     C70774   3.347   4.877   2.609  0.4850 -0.5510  0.7531
  525MOL0     C70775   3.285   4.825   2.495 -0.2578  0.1309  0.8053
  525MOL0     O70776   3.185   4.730   2.525  0.2227  0.2077 -0.3520
  525MOL0     C70777   3.155   4.635   2.423  0.1704 -0.3015  0.5216
  525MOL0     C70778   3.066   4.526   2.464 -0.0367 -0.4556 -0.2727
  525MOL0     C70779   2.938   4.581   2.504 -0.1660 -0.0883 -0.1879
  525MOL0     C70780   2.835   4.471   2.538 -0.7607  0.1379  0.7701
  525MOL0     C70781   2.723   4.544   2.613  0.4824  0.1103 -0.5401
  525MOL0     C70782   2.647   4.452   2.713  1.5600  1.1325  1.0975
  525MOL0     C70783   2.512   4.511   2.758 -0.5298 -0.6191  0.9405
  525MOL0     C70784   2.529   4.638   2.837  0.8261 -0.7359 -0.4985
  525MOL0    Cl70785   2.361   4.694   2.902 -0.0931  0.1560 -0.4125
  525MOL0     C70786   3.325   4.874   2.370  0.3418  0.8670 -0.7775
  525MOL0     C70787   3.423   4.976   2.361 -0.0221 -0.1027 -0.6611
  525MOL0     O70788   3.374   5.282   2.525 -0.1317  0.4181  0.2231
  525MOL0     C70789   3.684   5.383   2.598  0.3265 -0.3573  0.1602
  525MOL0     C70790   3.759   5.496   2.628 -0.0380  0.9799  0.4541
  525MOL0     N70791   4.282   5.977   2.513 -0.1066 -0.1305  0.1961
  525MOL0     N70792   4.402   5.970   2.538 -1.0720 -0.3557  0.0747
  525MOL0     C70793   5.161   6.469   2.946 -0.1547  0.7191  0.2084
  525MOL0     C70794   5.180   6.586   3.015 -0.1278  0.6070  0.0484
  525MOL0     C70795   5.323   6.939   3.238  0.2011  0.0884 -1.0047
  525MOL0     C70796   5.284   7.072   3.218 -0.1857 -0.0996  0.3142
  525MOL0     C70797   5.275   7.161   3.323  0.8692 -0.5846 -0.5374
  525MOL0     C70798   5.329   7.144   3.451 -0.0898  1.0822 -0.4660
  525MOL0     O70799   5.329   7.258   3.527 -0.6980 -0.4592  0.0718
  525MOL0     C70800   5.369   7.245   3.664  0.7823  0.2568  0.2544
  525MOL0     C70801   5.356   7.368   3.755 -1.4863  0.8777  0.6275
  525MOL0     C70802   5.442   7.490   3.718  0.0172 -0.4483 -0.4759
  525MOL0     C70803   5.409   7.614   3.811  0.1152  0.8360  0.2265
  525MOL0     C70804   5.456   7.587   3.943  0.7632  0.5411 -0.5387
  525MOL0     C70805   5.479   7.580   4.059 -0.5914  0.3300 -0.5590
  525MOL0     C70806   5.364   7.005   3.472 -0.5702  0.1911  0.1393
  525MOL0     C70807   5.362   6.908   3.371  0.4980 -0.3906  1.0498
  525MOL0     H70808   5.440   6.491   3.208 -0.3884  1.6409 -0.2698
  525MOL0     H70809   5.419   6.293   3.079 -0.2431  0.0866  0.8372
  525MOL0     H70810   5.363   6.117   2.943  0.2320  2.0574  2.6069
  525MOL0     H70811   5.214   6.105   3.041 -0.6566 -0.7452 -0.8202
  525MOL0     H70812   5.272   6.007   2.770 -0.2025 -1.3463 -0.2269
  525MOL0     H70813   5.208   5.915   2.903 -2.3327  1.3464  2.9711
  525MOL0     H70814   5.055   6.124   2.743  2.3098 -0.2407 -0.7212
  525MOL0     H70815   5.037   5.956   2.735  0.8804 -0.2914  0.9974
  525MOL0     H70816   4.978   5.954   2.990 -0.7535 -0.9961 -0.6507
  525MOL0     H70817   4.975   6.130   2.974 -1.7587  1.2271 -0.0125
  525MOL0     H70818   4.778   5.936   2.856 -1.4410  1.1918 -1.8190
  525MOL0     H70819   4.746   6.062   2.973 -0.3654  1.4480 -0.3220
  525MOL0     H70820   4.798   6.229   2.786  0.6922  0.1317 -1.6065
  525MOL0     H70821   4.824   6.093   2.671  1.9152 -0.0416  0.3537
  525MOL0     H70822   4.570   6.182   2.795  1.7576  0.4698  2.1083
  525MOL0     H70823   4.607   6.164   2.629  4.1745 -1.7138 -1.7983
  525MOL0     H70824   4.573   5.920   2.818  2.4442  1.0031  0.6618
  525MOL0     H70825   4.636   5.922   2.651 -0.0372  1.1080 -0.3832
  525MOL0     H70826   4.288   5.996   2.847 -1.5633  0.4166  0.3492
  525MOL0     H70827   4.057   5.983   2.762  0.4142  0.7058  0.5245
  525MOL0     H70828   4.051   6.112   2.663  1.1594  0.2504 -0.2647
  525MOL0     H70829   4.036   5.835   2.542 -1.2131 -0.4899  0.1475
  525MOL0     H70830   4.010   5.982   2.453  0.0599 -1.7130 -1.0670
  525MOL0     H70831   3.820   6.048   2.557 -1.8156 -0.8151  0.2273
  525MOL0     H70832   3.833   5.944   2.704 -0.6264  2.9379  0.1955
  525MOL0     H70833   3.769   5.846   2.414  4.9455 -0.3861  1.5820
  525MOL0     H70834   3.643   5.859   2.533  1.0970  1.2892  0.1110
  525MOL0     H70835   3.631   5.694   2.373 -1.2635  2.3451  2.0065
  525MOL0     H70836   3.485   5.389   2.238 -1.7692 -0.0132  0.3955
  525MOL0     H70837   3.373   5.482   2.331 -0.3232  1.6255  0.6561
  525MOL0     H70838   3.492   5.570   2.227 -4.9077  0.6657 -0.4405
  525MOL0     H70839   3.490   5.023   2.683  1.4857  0.4033 -0.6368
  525MOL0     H70840   3.345   4.832   2.708  1.9588  2.6492  2.3987
  525MOL0     H70841   3.112   4.683   2.335  0.6208 -0.8550 -0.0059
  525MOL0     H70842   3.246   4.590   2.383 -0.4690  0.2534 -1.7152
  525MOL0     H70843   3.055   4.454   2.382 -2.5549 -1.5183  0.9050
  525MOL0     H70844   3.118   4.477   2.547  1.0670  2.5933  0.9679
  525MOL0     H70845   2.902   4.644   2.421 -3.6969  0.0915  1.2821
  525MOL0     H70846   2.952   4.649   2.589  0.4370  0.2562 -0.5586
  525MOL0     H70847   2.799   4.417   2.450 -1.2180  0.4038  0.7879
  525MOL0     H70848   2.882   4.398   2.604  0.3726  1.4122  1.4262
  525MOL0     H70849   2.652   4.592   2.546  2.8582  1.5976 -2.1614
  525MOL0     H70850   2.757   4.616   2.688 -0.5213 -1.5546  1.6282
  525MOL0     H70851   2.640   4.356   2.660  0.4924  2.2065 -0.8293
  525MOL0     H70852   2.719   4.429   2.792  2.7906 -0.7133 -0.4531
  525MOL0     H70853   2.456   4.433   2.811 -1.5541  0.0349  0.8473
  525MOL0     H70854   2.448   4.541   2.675 -2.4727  1.0000  2.9234
  525MOL0     H70855   2.572   4.730   2.795 -0.1133  0.5133  1.1448
  525MOL0     H70856   2.590   4.618   2.925  0.0929 -1.9342 -0.2332
  525MOL0     H70857   3.285   4.834   2.277  2.9137 -0.2932 -1.4849
  525MOL0     H70858   3.462   5.013   2.267  1.6051 -3.1175 -1.3084
  525MOL0     H70859   3.709   5.299   2.662 -0.0443 -0.3700  0.2963
  525MOL0     H70860   3.825   5.494   2.714 -0.8781 -1.1325  1.1040
  525MOL0     H70861   5.093   6.460   2.863  1.2028  0.8407 -0.9491
  525MOL0     H70862   5.105   6.663   2.995 -1.4358 -1.1865 -2.6202
  525MOL0     H70863   5.241   7.108   3.125 -0.1846  5.0732  1.9633
  525MOL0     H70864   5.229   7.260   3.321  3.1273  1.1172  6.2447
  525MOL0     H70865   5.318   7.156   3.704 -1.1327  1.0175 -0.3689
  525MOL0     H70866   5.474   7.217   3.667  0.6533 -0.4581 -1.1137
  525MOL0     H70867   5.391   7.328   3.851 -2.3049  0.1789  0.6457
  525MOL0     H70868   5.251   7.397   3.765 -3.0357 -3.0731 -1.6658
  525MOL0     H70869   5.429   7.527   3.616  3.1240  1.0712 -0.4379
  525MOL0     H70870   5.549   7.469   3.725  0.0644  0.2162  1.4309
  525MOL0     H70871   5.301   7.632   3.800  0.2355  2.0584  0.9035
  525MOL0     H70872   5.474   7.697   3.781  1.5940  1.2441  4.0197
  525MOL0     H70873   5.518   7.563   4.158 -1.1955  4.9870  0.6997
  525MOL0     H70874   5.378   6.970   3.574 -1.8005  0.2944  0.3603
  525MOL0     H70875   5.387   6.804   3.394  0.5978 -1.7289 -3.9068
  526MOL0     O70876   4.308   5.027   2.851  1.0994  0.1213 -0.3535
  526MOL0     C70877   4.342   5.101   2.946  0.8576 -0.2685  0.6134
  526MOL0     O70878   4.257   5.184   3.015 -0.2973 -0.2400 -0.5137
  526MOL0     C70879   4.122   5.181   2.983 -0.2523 -1.2719  0.1068
  526MOL0     C70880   4.029   5.119   3.076 -0.4856  0.6462  0.7420
  526MOL0     C70881   3.896   5.114   3.036  0.2383 -0.4122  0.6343
  526MOL0     C70882   3.855   5.181   2.925 -0.2715 -0.1047  0.7044
  526MOL0     O70883   3.729   5.184   2.871  0.1657 -0.4687  0.1783
  526MOL0     C70884   3.625   5.119   2.941  0.1249 -0.5067  0.0341
  526MOL0     C70885   3.534   5.219   3.006  0.2228 -0.3799 -0.4481
  526MOL0     C70886   3.465   5.314   2.916  0.3555  0.1701 -0.8466
  526MOL0     C70887   3.527   5.449   2.915  0.1528 -0.4344  0.6779
  526MOL0     C70888   3.448   5.536   2.825  0.6880  0.4180  0.6851
  526MOL0     C70889   3.488   5.678   2.857 -0.0216 -0.6168 -0.5640
  526MOL0     C70890   3.436   5.788   2.763 -1.7694  0.7557  0.0176
  526MOL0     C70891   3.486   5.923   2.814 -0.4776 -0.3650 -0.2556
  526MOL0     N70892   3.449   6.027   2.731  0.1043 -0.4608  0.1885
  526MOL0     C70893   3.315   6.056   2.690 -0.0377  0.5119 -0.3463
  526MOL0     C70894   3.326   6.125   2.579 -0.6507 -0.6531 -0.7940
  526MOL0     C70895   3.216   6.183   2.499 -0.1378  0.1934  0.4749
  526MOL0     C70896   3.134   6.082   2.426 -0.2099 -0.5497 -0.2564
  526MOL0     C70897   3.032   6.141   2.340  0.4367 -0.1403  0.8903
  526MOL0     C70898   3.065   6.127   2.187 -0.5266 -0.0061  0.3664
  526MOL0     O70899   2.957   6.188   2.116 -0.6674  0.0596  0.5847
  526MOL0     C70900   2.836   6.126   2.124 -0.2513 -0.6273 -0.5586
  526MOL0     C70901   2.721   6.215   2.115  0.4692  0.2519 -0.8643
  526MOL0     C70902   2.592   6.161   2.135 -0.1482 -0.1308 -0.3863
  526MOL0     C70903   2.479   6.268   2.121 -0.3486  0.1562  1.0468
  526MOL0     C70904   2.579   6.017   2.143  0.8730  0.6153 -0.1036
  526MOL0     C70905   2.446   5.947   2.157  0.1958  0.5928 -0.1010
  526MOL0     O70906   2.444   5.810   2.157  0.0643  0.0577 -0.4862
  526MOL0     C70907   2.321   5.748   2.182 -0.2533 -0.5131 -0.6224
  526MOL0     C70908   2.239   5.709   2.073  0.1285 -0.3335  0.3877
  526MOL0     C70909   2.113   5.651   2.103 -0.7696  0.2833 -0.0456
  526MOL0     C70910   2.066   5.624   2.228  0.3717 -0.2772 -0.2428
  526MOL0     O70911   1.945   5.562   2.255  0.5021 -0.5276 -0.5369
  526MOL0     C70912   1.834   5.580   2.159 -0.9445 -0.6304 -0.4692
  526MOL0     C70913   1.700   5.571   2.240 -0.2371  0.0820 -0.0539
  526MOL0     C70914   1.578   5.565   2.142 -1.0370 -0.3330 -0.2276
  526MOL0     C70915   1.456   5.605   2.225  0.8987 -0.2405 -1.4332
  526MOL0     C70916   1.390   5.481   2.299 -0.4483 -0.4161 -0.1052
  526MOL0     C70917   1.261   5.501   2.368  0.4159  0.1851 -0.0274
  526MOL0     C70918   1.134   5.528   2.283  0.7281 -0.0213 -0.4641
  526MOL0     C70919   1.096   5.406   2.198  0.8582 -0.5263  0.4415
  526MOL0    Cl70920   0.993   5.477   2.066 -0.2481  0.2381 -0.4822
  526MOL0     C70921   2.161   5.646   2.327  0.0165 -0.4424 -0.5141
  526MOL0     C70922   2.282   5.714   2.308 -0.6623  0.2645 -0.3591
  526MOL0     O70923   2.340   6.013   2.172  0.1046 -0.2797 -0.6895
  526MOL0     C70924   2.700   5.928   2.139  0.6030 -1.1929 -1.0848
  526MOL0     C70925   2.826   5.986   2.134  0.1822  0.1296  0.5341
  526MOL0     N70926   3.466   6.149   2.549  0.4798  0.1323 -0.1713
  526MOL0     N70927   3.533   6.085   2.637  0.4193 -0.4004  0.2501
  526MOL0     C70928   3.944   5.252   2.846 -0.1585 -0.0810 -0.3204
  526MOL0     C70929   4.086   5.253   2.872 -1.4570 -0.3203  0.8415
  526MOL0     C70930   4.487   5.112   2.984  0.6355 -0.6795 -0.1621
  526MOL0     C70931   4.525   5.203   3.084 -0.0916  0.1173  0.4540
  526MOL0     C70932   4.659   5.209   3.124 -1.3478 -1.2731  0.3491
  526MOL0     C70933   4.758   5.127   3.070  0.5171 -0.6104 -0.6996
  526MOL0     O70934   4.891   5.153   3.115 -0.0930  0.1188 -0.9845
  526MOL0     C70935   4.983   5.044   3.093 -0.1536  0.3535  0.0872
  526MOL0     C70936   5.105   5.064   3.177  0.2098 -0.4717  0.6629
  526MOL0     C70937   5.198   4.950   3.114  0.5383  0.4778 -1.1050
  526MOL0     C70938   5.238   4.867   3.233  0.1301  0.3581  0.6206
  526MOL0     C70939   5.350   4.781   3.192  0.2176  0.3103  0.4377
  526MOL0     C70940   5.448   4.714   3.170  0.7434  0.0877  0.2722
  526MOL0     C70941   4.723   5.039   2.966  0.2857  0.9446 -0.9302
  526MOL0     C70942   4.586   5.027   2.930 -0.3196 -0.1720  0.3948
  526MOL0     H70943   4.062   5.076   3.170 -0.1978 -0.8477 -0.0018
  526MOL0     H70944   3.831   5.054   3.099 -1.3166  0.6795  0.1183
  526MOL0     H70945   3.567   5.072   2.862  2.7157  0.9235 -2.9383
  526MOL0     H70946   3.652   5.037   3.009 -0.8183 -1.8963 -1.2212
  526MOL0     H70947   3.452   5.158   3.047 -1.4017  1.8542 -0.1644
  526MOL0     H70948   3.578   5.277   3.088 -1.3082 -0.3903  0.4268
  526MOL0     H70949   3.452   5.279   2.813 -1.3140  3.5812 -1.9410
  526MOL0     H70950   3.362   5.324   2.950  1.0812  1.6152  1.0959
  526MOL0     H70951   3.529   5.493   3.015  1.2478  1.1315  0.0146
  526MOL0     H70952   3.630   5.449   2.877  0.7632 -2.1187  2.2054
  526MOL0     H70953   3.485   5.498   2.729 -0.4647  1.3707 -0.1613
  526MOL0     H70954   3.342   5.524   2.848  0.1714 -4.1319 -2.6595
  526MOL0     H70955   3.444   5.695   2.956  3.1365  2.3628  0.5330
  526MOL0     H70956   3.594   5.698   2.876 -0.7641  3.4440  0.0972
  526MOL0     H70957   3.477   5.767   2.664  1.5044  2.5153  0.8306
  526MOL0     H70958   3.328   5.783   2.778 -1.5944  0.5900  1.3289
  526MOL0     H70959   3.593   5.919   2.836 -0.7105 -2.9974  0.7186
  526MOL0     H70960   3.432   5.936   2.908 -0.6556 -1.0051 -0.2661
  526MOL0     H70961   3.227   6.016   2.740 -0.4233 -0.3824 -1.6973
  526MOL0     H70962   3.153   6.237   2.570  1.7587  1.1075  1.5483
  526MOL0     H70963   3.256   6.257   2.429  2.2777 -0.6714  0.8357
  526MOL0     H70964   3.082   6.031   2.508  1.5775 -0.5066  0.9642
  526MOL0     H70965   3.194   6.008   2.372 -0.9978  1.2494 -3.9158
  526MOL0     H70966   3.001   6.239   2.376 -0.0323  0.2956 -0.6320
  526MOL0     H70967   2.937   6.089   2.359  0.0255  1.0094  2.1975
  526MOL0     H70968   3.077   6.023   2.156 -1.9622 -0.0920  0.0177
  526MOL0     H70969   3.149   6.187   2.149 -1.7068  2.6524  1.6906
  526MOL0     H70970   2.734   6.319   2.086  4.2926 -0.5583 -2.7338
  526MOL0     H70971   2.511   6.373   2.125 -3.2266  1.1292  1.2852
  526MOL0     H70972   2.438   6.256   2.020  0.9563 -1.8553  0.7005
  526MOL0     H70973   2.407   6.248   2.201 -0.7104  0.4598  0.7995
  526MOL0     H70974   2.266   5.738   1.972  1.9625 -0.7499  0.7185
  526MOL0     H70975   2.050   5.625   2.018 -1.0309 -0.7754  0.4592
  526MOL0     H70976   1.837   5.681   2.117 -0.1146 -0.1274  0.7550
  526MOL0     H70977   1.842   5.502   2.082 -0.7432 -1.4186  0.3315
  526MOL0     H70978   1.701   5.484   2.306 -1.7951  0.0739 -0.0089
  526MOL0     H70979   1.698   5.659   2.305  1.4184  0.8699 -0.9976
  526MOL0     H70980   1.572   5.461   2.108 -0.0211 -0.4462 -0.0929
  526MOL0     H70981   1.583   5.632   2.055 -0.4914  0.4220  0.3769
  526MOL0     H70982   1.469   5.687   2.296  0.0957  0.4101 -2.0164
  526MOL0     H70983   1.378   5.644   2.159 -1.1178  1.0828  1.5279
  526MOL0     H70984   1.464   5.452   2.374 -2.0330 -3.2092  0.5247
  526MOL0     H70985   1.373   5.399   2.229 -2.4048 -0.9770  0.9428
  526MOL0     H70986   1.239   5.414   2.429  1.0148  0.8762  1.2078
  526MOL0     H70987   1.269   5.577   2.446  0.3055  0.3864 -0.2078
  526MOL0     H70988   1.146   5.626   2.236 -0.4463  0.1359 -0.4686
  526MOL0     H70989   1.047   5.538   2.349 -0.2774 -2.7808 -1.2232
  526MOL0     H70990   1.033   5.345   2.264 -0.5141  2.5444  2.1754
  526MOL0     H70991   1.190   5.354   2.173  0.8793 -0.2913  0.0339
  526MOL0     H70992   2.130   5.623   2.428 -1.8879  0.7422 -0.7786
  526MOL0     H70993   2.356   5.716   2.388 -0.2356 -0.7224 -0.7071
  526MOL0     H70994   2.699   5.819   2.145  1.8336 -1.1763 -0.2277
  526MOL0     H70995   2.916   5.926   2.127  0.6328  0.7602  0.7868
  526MOL0     H70996   3.891   5.297   2.763 -4.1445 -3.4037  0.0885
  526MOL0     H70997   4.156   5.317   2.819 -0.8238  0.0144  2.0396
  526MOL0     H70998   4.458   5.273   3.135 -0.0167  1.0575 -0.6977
  526MOL0     H70999   4.687   5.287   3.195 -0.6027 -0.9189 -0.3170
  526MOL0     H71000   4.937   4.947   3.112 -0.8173  0.3380 -1.4272
  526MOL0     H71001   5.019   5.049   2.989 -2.2007  1.1318 -0.6450
  526MOL0     H71002   5.082   5.056   3.284 -0.7573 -1.4318  0.3993
  526MOL0     H71003   5.141   5.165   3.154  0.5591 -0.5564  0.8373
  526MOL0     H71004   5.284   4.999   3.066  0.1971  2.3608  0.1171
  526MOL0     H71005   5.149   4.885   3.040  0.1956 -2.9400  1.8672
  526MOL0     H71006   5.155   4.807   3.272 -0.8808  1.4404  0.1706
  526MOL0     H71007   5.265   4.929   3.319 -2.0502 -0.4964  2.0284
  526MOL0     H71008   5.531   4.650   3.147 -0.2706 -0.8727 -0.8975
  526MOL0     H71009   4.786   4.966   2.917 -2.2915 -1.1067 -1.4156
  526MOL0     H71010   4.565   4.949   2.857 -1.3239  2.1897 -1.9828
  527MOL0     O71011   9.951  10.044   7.561  0.5363  0.5440  0.2635
  527MOL0     C71012  10.007  10.013   7.664  0.3421 -0.2664  0.2588
  527MOL0     O71013   9.958  10.033   7.791  0.1388  0.1797  0.8180
  527MOL0     C71014   9.831  10.075   7.815 -0.6630 -1.3450 -0.6316
  527MOL0     C71015   9.723  10.116   7.730  0.7427  0.0465 -0.7965
  527MOL0     C71016   9.596  10.159   7.783  0.2424  0.5854 -0.5657
  527MOL0     C71017   9.583  10.171   7.919  0.5874 -0.1046  0.3511
  527MOL0     O71018   9.459  10.222   7.958 -0.4807  0.7911 -0.0504
  527MOL0     C71019   9.438  10.300   8.077 -0.9792 -0.7186  0.1523
  527MOL0     C71020   9.308  10.365   8.065  0.3511  0.2285 -0.6129
  527MOL0     C71021   9.264  10.425   8.199 -0.2591  0.3321 -0.2625
  527MOL0     C71022   9.146  10.524   8.164 -0.5195 -0.7807  0.1667
  527MOL0     C71023   9.095  10.608   8.291 -0.4354 -0.6111 -0.7756
  527MOL0     C71024   8.981  10.703   8.247  0.2337  1.0186 -0.1254
  527MOL0     C71025   8.941  10.808   8.352  0.3697  0.7241  0.8483
  527MOL0     C71026   8.853  10.759   8.471  0.6330 -0.2890 -0.4238
  527MOL0     N71027   8.756  10.661   8.416  0.7956  0.0420  0.2575
  527MOL0     C71028   8.659  10.697   8.327  0.6446  0.1300 -0.5154
  527MOL0     C71029   8.580  10.589   8.320  0.4434  0.7571  0.3533
  527MOL0     C71030   8.479  10.562   8.209 -0.0428 -0.3509 -0.6791
  527MOL0     C71031   8.338  10.549   8.273 -0.9100 -0.4545 -0.1126
  527MOL0     C71032   8.227  10.523   8.170 -0.1876  0.4318  0.3098
  527MOL0     C71033   8.088  10.562   8.235 -0.5798 -0.1362 -0.0217
  527MOL0     O71034   8.085  10.704   8.220 -0.5484 -0.7553 -0.3043
  527MOL0     C71035   7.977  10.781   8.276 -0.0205 -0.0519 -0.3542
  527MOL0     C71036   7.976  10.916   8.256  0.3301  0.7347  0.4015
  527MOL0     C71037   7.874  11.002   8.305  0.2481  0.1669 -0.3546
  527MOL0     C71038   7.914  11.147   8.315  0.1331 -0.0011 -0.4468
  527MOL0     C71039   7.770  10.941   8.382 -0.4592  0.4039 -1.0878
  527MOL0     C71040   7.661  11.020   8.448 -0.2357  0.5531  0.1462
  527MOL0     O71041   7.592  10.975   8.555  0.8798 -0.0738 -0.0690
  527MOL0     C71042   7.490  11.055   8.615  0.2377  0.1847  0.7951
  527MOL0     C71043   7.503  11.123   8.731 -0.2301  0.8379 -0.3088
  527MOL0     C71044   7.393  11.184   8.788 -0.2418  1.0998  0.4268
  527MOL0     C71045   7.258  11.167   8.747  0.4162  0.8805  0.1806
  527MOL0     O71046   7.140  11.215   8.799  0.0428  1.0913 -0.3024
  527MOL0     C71047   7.164  11.308   8.904  0.7292 -0.0851 -0.0746
  527MOL0     C71048   7.023  11.374   8.936  0.2048  0.3923 -0.1349
  527MOL0     C71049   6.946  11.457   8.831 -0.4028  0.3232  0.2288
  527MOL0     C71050   6.824  11.537   8.900 -0.2915 -0.2007 -0.6111
  527MOL0     C71051   6.722  11.603   8.803 -0.3140  0.3995  0.6161
  527MOL0     C71052   6.779  11.717   8.727  0.1802 -0.3114  0.1589
  527MOL0     C71053   6.690  11.776   8.619 -0.0869 -1.0154 -0.4405
  527MOL0     C71054   6.651  11.685   8.511  1.0789  0.3869  0.4009
  527MOL0    Cl71055   6.793  11.612   8.440  0.4701  0.2880  0.4868
  527MOL0     C71056   7.249  11.089   8.629 -0.2596 -0.8094  0.6172
  527MOL0     C71057   7.364  11.051   8.559  0.2214 -0.5841  0.2673
  527MOL0     O71058   7.641  11.128   8.390 -0.1439 -0.1553 -0.0101
  527MOL0     C71059   7.759  10.800   8.391  0.0220 -0.6550 -1.1832
  527MOL0     C71060   7.865  10.724   8.339  0.9660 -0.0757  0.1683
  527MOL0     N71061   8.644  10.480   8.383  0.1217 -1.2472 -0.4006
  527MOL0     N71062   8.747  10.530   8.450  0.4904  0.0904  0.2645
  527MOL0     C71063   9.685  10.133   8.006  0.5321 -0.1600 -0.0941
  527MOL0     C71064   9.803  10.079   7.953 -0.4031  0.2344  0.4868
  527MOL0     C71065  10.150   9.973   7.650  0.8804  0.0262 -0.1846
  527MOL0     C71066  10.186   9.884   7.552 -0.5991 -0.5280  1.4149
  527MOL0     C71067  10.315   9.838   7.537  0.0964  0.2826 -0.8097
  527MOL0     C71068  10.412   9.880   7.631  0.3076  0.7795  0.4690
  527MOL0     O71069  10.540   9.853   7.617  0.3515  0.3672  0.1387
  527MOL0     C71070  10.593   9.804   7.491  0.1350  0.2996 -0.0527
  527MOL0     C71071  10.746   9.787   7.489 -0.0109 -0.2321  0.3644
  527MOL0     C71072  10.827   9.922   7.481  0.4843 -0.0690 -0.3371
  527MOL0     C71073  10.802  10.009   7.342 -0.0924 -0.2097 -0.1589
  527MOL0     C71074  10.809   9.925   7.221 -0.1876 -0.1591  0.2565
  527MOL0     C71075  10.819   9.843   7.138  0.7803  0.4695 -0.0108
  527MOL0     C71076  10.369   9.957   7.741 -0.2672  0.5260 -0.1757
  527MOL0     C71077  10.242  10.008   7.753  0.1856 -0.4546  0.0683
  527MOL0     H71078   9.730  10.126   7.622 -4.4190 -1.0733 -1.4781
  527MOL0     H71079   9.511  10.183   7.720  0.4312  0.1321 -0.9936
  527MOL0     H71080   9.448  10.234   8.163  3.6927  1.0397  1.2339
  527MOL0     H71081   9.516  10.376   8.085 -0.5435 -1.1069 -0.3001
  527MOL0     H71082   9.306  10.442   7.988 -0.7565 -0.9157 -1.7639
  527MOL0     H71083   9.231  10.298   8.027 -0.9125 -0.0746  2.2658
  527MOL0     H71084   9.226  10.355   8.273 -2.1597  0.2079 -1.2987
  527MOL0     H71085   9.353  10.474   8.241  0.8102  0.7867 -2.8438
  527MOL0     H71086   9.172  10.593   8.084  0.5180 -0.2832  0.9003
  527MOL0     H71087   9.062  10.460   8.134 -2.0871  0.1822  2.2132
  527MOL0     H71088   9.064  10.535   8.367 -0.1671  0.0026 -0.0599
  527MOL0     H71089   9.181  10.664   8.327 -1.1943 -0.6209  1.2014
  527MOL0     H71090   9.030  10.742   8.157  4.7136 -1.5589  0.8620
  527MOL0     H71091   8.897  10.642   8.213 -2.1659  3.3993  1.1711
  527MOL0     H71092   9.034  10.853   8.386  0.8639 -2.1594  3.8977
  527MOL0     H71093   8.889  10.883   8.292  0.1641 -2.2215 -3.0374
  527MOL0     H71094   8.799  10.842   8.518 -1.6701 -1.5525 -0.6712
  527MOL0     H71095   8.917  10.727   8.554 -0.9388  1.6400  1.6651
  527MOL0     H71096   8.649  10.788   8.269  0.2561  1.2654  1.2735
  527MOL0     H71097   8.481  10.643   8.137  0.1505  1.8328  1.6262
  527MOL0     H71098   8.486  10.465   8.159 -2.0699 -1.7804  1.5502
  527MOL0     H71099   8.321  10.642   8.327 -1.6031  0.9286 -2.5309
  527MOL0     H71100   8.336  10.473   8.351 -2.8756  0.7646  1.1257
  527MOL0     H71101   8.238  10.418   8.143  3.2959 -0.6631  4.7855
  527MOL0     H71102   8.237  10.579   8.077  1.7875 -0.1115  0.1598
  527MOL0     H71103   8.077  10.543   8.342 -0.0144 -1.2054 -0.1472
  527MOL0     H71104   8.020  10.492   8.184 -0.8232  0.0072  0.1025
  527MOL0     H71105   8.060  10.961   8.204 -0.9595  3.2754  0.3960
  527MOL0     H71106   7.832  11.220   8.317  1.2817  1.3564 -1.3704
  527MOL0     H71107   7.972  11.150   8.407  1.5997  1.0693 -1.3740
  527MOL0     H71108   7.982  11.171   8.233  3.0932  0.9015  2.1053
  527MOL0     H71109   7.596  11.136   8.785 -1.0422  0.1859  1.3145
  527MOL0     H71110   7.412  11.243   8.877  0.4078  2.0070 -0.2980
  527MOL0     H71111   7.198  11.256   8.993 -0.7871  1.1525  1.3014
  527MOL0     H71112   7.227  11.392   8.874 -0.5234 -0.2146 -3.4783
  527MOL0     H71113   6.966  11.282   8.954 -1.6914  1.2944 -1.1838
  527MOL0     H71114   7.017  11.421   9.034  0.0098 -0.8052  0.4501
  527MOL0     H71115   6.905  11.387   8.757  0.0747  1.6378 -1.3669
  527MOL0     H71116   7.013  11.528   8.782 -2.3370  2.6248  0.7051
  527MOL0     H71117   6.768  11.464   8.960 -1.6335  0.7126 -0.6927
  527MOL0     H71118   6.859  11.609   8.975  1.0618 -1.2528 -0.1918
  527MOL0     H71119   6.628  11.639   8.845 -1.3741 -0.4965 -0.8958
  527MOL0     H71120   6.691  11.530   8.728 -1.3019  0.3862  1.0224
  527MOL0     H71121   6.801  11.792   8.804 -2.8368  0.8279  0.0401
  527MOL0     H71122   6.872  11.681   8.683 -0.4181 -2.9503  0.8710
  527MOL0     H71123   6.735  11.864   8.573 -1.1124  1.0388  2.2319
  527MOL0     H71124   6.599  11.807   8.671  0.5965 -0.2897  0.3640
  527MOL0     H71125   6.589  11.736   8.436  0.7880 -3.5847 -2.3477
  527MOL0     H71126   6.593  11.602   8.551 -2.9964  1.8977 -1.7427
  527MOL0     H71127   7.149  11.066   8.594 -0.2495 -4.1172  2.3111
  527MOL0     H71128   7.363  11.006   8.461 -1.4177  0.5397 -0.2667
  527MOL0     H71129   7.674  10.746   8.432 -1.2011  1.1123 -1.2424
  527MOL0     H71130   7.859  10.617   8.351 -1.1526  0.2357  2.9517
  527MOL0     H71131   9.669  10.125   8.113 -2.5689  0.0412 -0.4415
  527MOL0     H71132   9.881  10.059   8.026  1.9565  4.6899 -0.4690
  527MOL0     H71133  10.103   9.852   7.490 -1.9303  0.9868  2.3380
  527MOL0     H71134  10.327   9.775   7.450 -2.4293 -1.1575 -0.2322
  527MOL0     H71135  10.543   9.709   7.469  0.0953  0.0596  0.9962
  527MOL0     H71136  10.571   9.876   7.411 -0.3886  1.4050  1.0541
  527MOL0     H71137  10.773   9.728   7.401  0.1082  1.0870 -0.5041
  527MOL0     H71138  10.767   9.728   7.579 -1.2602 -0.8344  0.2896
  527MOL0     H71139  10.932   9.905   7.507  1.2905 -1.2239 -3.8571
  527MOL0     H71140  10.789   9.979   7.566 -0.7064 -0.6844 -0.4356
  527MOL0     H71141  10.878  10.087   7.338 -1.9335  1.7820  1.2484
  527MOL0     H71142  10.711  10.066   7.365  0.6250  0.3419  1.4533
  527MOL0     H71143  10.837   9.772   7.060 -1.4609 -0.8712  0.5798
  527MOL0     H71144  10.444   9.981   7.816 -1.3903  0.5391  0.9842
  527MOL0     H71145  10.221  10.075   7.836  0.4491 -1.0919  0.6664
  528MOL0     O71146   7.843  10.351   5.981  0.1750 -0.3082 -0.1188
  528MOL0     C71147   7.858  10.381   5.867  0.4620  0.8380  0.2179
  528MOL0     O71148   7.770  10.346   5.764  0.3187  0.6530 -0.8583
  528MOL0     C71149   7.643  10.302   5.788 -0.2345 -0.2397  0.4991
  528MOL0     C71150   7.594  10.212   5.693 -0.0754 -0.8297 -0.1274
  528MOL0     C71151   7.455  10.189   5.692  0.0485  0.1565  0.4225
  528MOL0     C71152   7.368  10.241   5.795 -0.2939  0.2131  0.5948
  528MOL0     O71153   7.231  10.233   5.803 -0.3238  0.1818 -0.1078
  528MOL0     C71154   7.173  10.173   5.688  0.0334  0.0006  0.1697
  528MOL0     C71155   7.020  10.168   5.713  0.8516 -0.1955 -0.2733
  528MOL0     C71156   6.938  10.139   5.588  0.7355 -0.4611 -0.0093
  528MOL0     C71157   6.803  10.104   5.624 -0.1612 -0.0802 -0.2043
  528MOL0     C71158   6.713  10.204   5.698 -1.0100 -0.0815 -0.6072
  528MOL0     C71159   6.579  10.140   5.743 -0.2278  0.3846 -0.7372
  528MOL0     C71160   6.597  10.058   5.861 -0.0149 -0.1517 -0.6869
  528MOL0     C71161   6.462  10.032   5.934 -1.1652 -0.1541 -0.0188
  528MOL0     N71162   6.368   9.971   5.846  0.0674 -0.1117  0.2531
  528MOL0     C71163   6.380   9.857   5.771 -0.7414 -0.1650  0.2128
  528MOL0     C71164   6.257   9.842   5.724  0.4000  0.2967  0.5708
  528MOL0     C71165   6.219   9.726   5.626 -0.4147  0.2371  0.7385
  528MOL0     C71166   6.181   9.591   5.705  0.6634  0.3901  0.0204
  528MOL0     C71167   6.042   9.585   5.775  0.7474  0.6574  0.4148
  528MOL0     C71168   5.926   9.617   5.686 -0.2403  1.0524  0.2572
  528MOL0     O71169   5.901   9.523   5.577 -0.3315 -0.9560 -0.2548
  528MOL0     C71170   5.780   9.531   5.517 -0.4047  0.3496  0.2137
  528MOL0     C71171   5.715   9.652   5.489 -0.1280 -0.5422  0.8650
  528MOL0     C71172   5.589   9.654   5.416 -0.1888 -0.1148 -0.0592
  528MOL0     C71173   5.529   9.789   5.381  0.1242  0.2142  0.2450
  528MOL0     C71174   5.535   9.529   5.373 -0.5881 -0.6697  0.1190
  528MOL0     C71175   5.408   9.513   5.287 -0.5286  0.4906 -0.3813
  528MOL0     O71176   5.364   9.389   5.250  0.6047  0.3414 -0.2532
  528MOL0     C71177   5.284   9.361   5.138 -1.3466 -1.1235 -0.1072
  528MOL0     C71178   5.141   9.365   5.152 -0.1461 -0.3183 -0.2196
  528MOL0     C71179   5.053   9.320   5.050 -0.9563  0.9188 -0.2488
  528MOL0     C71180   5.107   9.305   4.920  0.7676  1.1132  0.2559
  528MOL0     O71181   5.029   9.290   4.811 -0.1340  0.6471  0.3743
  528MOL0     C71182   4.899   9.350   4.799  0.1406  0.3832  0.1320
  528MOL0     C71183   4.839   9.307   4.668  0.2421 -0.3070 -0.0747
  528MOL0     C71184   4.778   9.165   4.661 -0.3913 -0.4558  0.0656
  528MOL0     C71185   4.732   9.135   4.517  0.2191 -0.4136  0.0576
  528MOL0     C71186   4.652   9.002   4.526  0.1728  0.6579 -0.5915
  528MOL0     C71187   4.620   8.970   4.383 -0.0213  0.3484  0.6920
  528MOL0     C71188   4.543   8.841   4.367  0.2078 -0.9161 -0.1976
  528MOL0     C71189   4.554   8.804   4.216 -0.3779 -0.0749 -1.0045
  528MOL0    Cl71190   4.462   8.664   4.183 -0.0518  0.0419  0.1303
  528MOL0     C71191   5.243   9.316   4.899  0.3563  0.1655  1.0391
  528MOL0     C71192   5.334   9.337   5.004 -0.2086 -0.2502 -0.9121
  528MOL0     O71193   5.352   9.613   5.243 -0.6663 -0.4428  0.9716
  528MOL0     C71194   5.604   9.406   5.386 -0.6332 -0.0468  0.1232
  528MOL0     C71195   5.719   9.408   5.463  0.0093 -0.3163  0.3755
  528MOL0     N71196   6.171   9.933   5.776 -1.6625  0.3309 -0.2651
  528MOL0     N71197   6.241  10.004   5.864 -0.9739  0.1869 -0.7966
  528MOL0     C71198   7.435  10.317   5.891 -0.3887 -0.6437 -0.2730
  528MOL0     C71199   7.563  10.350   5.881 -0.3444 -0.2928 -0.2714
  528MOL0     C71200   7.993  10.423   5.819  0.2598  0.7081 -0.6287
  528MOL0     C71201   8.029  10.416   5.683  0.2149  0.3680  0.8718
  528MOL0     C71202   8.153  10.456   5.651 -0.1772 -0.0704 -0.3996
  528MOL0     C71203   8.240  10.499   5.749  0.2532  0.3258 -0.2657
  528MOL0     O71204   8.366  10.524   5.703  0.0703  1.0427 -0.5176
  528MOL0     C71205   8.450  10.615   5.785 -0.3091  0.7683  0.2848
  528MOL0     C71206   8.394  10.753   5.799  0.5962 -0.2494 -0.3544
  528MOL0     C71207   8.357  10.816   5.672 -0.0106  0.0950 -0.1928
  528MOL0     C71208   8.321  10.970   5.704 -0.5003 -0.9110  1.2166
  528MOL0     C71209   8.297  11.045   5.578 -0.6528 -0.6848  0.6367
  528MOL0     C71210   8.271  11.084   5.469  0.0217 -0.8871  0.2138
  528MOL0     C71211   8.201  10.510   5.886 -0.4586  0.9338  0.5790
  528MOL0     C71212   8.073  10.486   5.914 -0.5219 -0.2963 -0.0728
  528MOL0     H71213   7.670  10.176   5.624  0.1425  1.0110 -0.9118
  528MOL0     H71214   7.423  10.115   5.620  4.7915  0.2452 -2.2108
  528MOL0     H71215   7.187  10.227   5.594  2.1474 -0.8633 -0.0689
  528MOL0     H71216   7.222  10.076   5.680  1.3412  0.5377  1.1504
  528MOL0     H71217   6.984  10.109   5.798 -2.9124  0.5878 -1.1447
  528MOL0     H71218   6.995  10.268   5.747  0.8409 -0.9945  2.2922
  528MOL0     H71219   6.935  10.232   5.532 -0.2702  0.1603  1.0149
  528MOL0     H71220   6.982  10.060   5.526  1.0916  1.6138 -2.5407
  528MOL0     H71221   6.753  10.087   5.527 -1.2938 -2.1879  0.6889
  528MOL0     H71222   6.796  10.002   5.661  2.6854 -0.0760  0.5118
  528MOL0     H71223   6.765  10.239   5.788 -0.4368 -0.8434 -0.6294
  528MOL0     H71224   6.698  10.294   5.639  1.2739  1.0386  0.4174
  528MOL0     H71225   6.505  10.216   5.771 -1.3392 -1.3734  1.4177
  528MOL0     H71226   6.533  10.077   5.666 -0.0351 -0.0687 -0.4840
  528MOL0     H71227   6.646   9.962   5.844 -0.5405 -0.5353 -0.0915
  528MOL0     H71228   6.664  10.105   5.934  0.6278 -1.1785 -0.6063
  528MOL0     H71229   6.434  10.130   5.974  2.0895 -0.0291  2.4370
  528MOL0     H71230   6.477   9.976   6.027  0.2349  0.4445  0.1575
  528MOL0     H71231   6.466   9.795   5.747 -0.5535  0.0828  0.2431
  528MOL0     H71232   6.143   9.755   5.553  0.7196  0.1913 -0.4887
  528MOL0     H71233   6.305   9.696   5.565 -0.5501 -1.2357  1.2130
  528MOL0     H71234   6.261   9.564   5.774  0.3518  0.3586  0.3762
  528MOL0     H71235   6.188   9.506   5.638  1.1248 -1.3814  2.1875
  528MOL0     H71236   6.039   9.672   5.842 -1.6880 -0.0261  1.2856
  528MOL0     H71237   6.021   9.499   5.839  0.7606 -0.2374 -0.7451
  528MOL0     H71238   5.940   9.714   5.637 -1.9505  0.0353 -2.5186
  528MOL0     H71239   5.835   9.625   5.746  0.5251 -0.9800  1.7972
  528MOL0     H71240   5.745   9.755   5.508 -3.1484  0.7464 -0.5978
  528MOL0     H71241   5.532   9.830   5.280 -0.6607  1.5943  0.7515
  528MOL0     H71242   5.425   9.808   5.411  0.4940  3.7873 -0.3176
  528MOL0     H71243   5.588   9.850   5.450  0.9538 -1.3923  1.0147
  528MOL0     H71244   5.091   9.402   5.241 -1.3097 -0.6477 -0.7113
  528MOL0     H71245   4.945   9.321   5.062 -0.9709  0.7695 -0.3685
  528MOL0     H71246   4.830   9.327   4.881 -1.0932  0.4929 -0.8458
  528MOL0     H71247   4.914   9.459   4.796  0.7414  0.3642  1.5834
  528MOL0     H71248   4.769   9.384   4.636 -0.5100 -0.0521  2.0178
  528MOL0     H71249   4.925   9.308   4.600  1.2474  2.4059  1.0960
  528MOL0     H71250   4.703   9.153   4.739 -1.0411  3.7309  0.3232
  528MOL0     H71251   4.857   9.091   4.674  1.0416  1.2284  1.3439
  528MOL0     H71252   4.680   9.219   4.469  1.9005  0.4229 -0.4064
  528MOL0     H71253   4.827   9.121   4.465 -0.3911 -0.1134 -1.1918
  528MOL0     H71254   4.557   9.006   4.581 -0.0685 -2.0573 -0.7093
  528MOL0     H71255   4.714   8.923   4.568  1.0970  1.6085 -0.1034
  528MOL0     H71256   4.555   9.049   4.342 -2.3900  1.1486  5.3555
  528MOL0     H71257   4.710   8.952   4.323 -0.3937  1.1347 -0.1405
  528MOL0     H71258   4.442   8.860   4.406  0.8877 -0.5170  1.4552
  528MOL0     H71259   4.587   8.759   4.424  0.6455 -1.3221 -1.0911
  528MOL0     H71260   4.660   8.779   4.204  0.9715  1.1321  5.0425
  528MOL0     H71261   4.526   8.886   4.150 -1.7233 -1.0933 -1.7671
  528MOL0     H71262   5.278   9.298   4.798  1.9268  1.9518  1.2036
  528MOL0     H71263   5.441   9.352   4.993 -0.2760  2.7465  1.2378
  528MOL0     H71264   5.577   9.316   5.333 -4.1886 -0.5963  2.5129
  528MOL0     H71265   5.766   9.310   5.467 -0.7160 -0.7495 -1.0125
  528MOL0     H71266   7.367  10.341   5.973  1.4528 -3.5494  2.3426
  528MOL0     H71267   7.610  10.426   5.943  2.0576  0.5772 -2.9679
  528MOL0     H71268   7.968  10.373   5.605 -0.7422 -0.1729  1.8993
  528MOL0     H71269   8.188  10.440   5.550  0.6458  1.9564 -0.4918
  528MOL0     H71270   8.481  10.576   5.883 -2.0837 -2.9520 -0.4254
  528MOL0     H71271   8.543  10.609   5.729 -1.0302 -0.4311 -0.8443
  528MOL0     H71272   8.464  10.822   5.846  0.8669 -1.1946  0.6900
  528MOL0     H71273   8.306  10.756   5.864  1.8889  3.6227  1.5204
  528MOL0     H71274   8.272  10.764   5.626  0.3104 -0.6189  0.0066
  528MOL0     H71275   8.439  10.802   5.601 -0.7314 -2.5314 -0.6500
  528MOL0     H71276   8.408  11.014   5.753  2.1652 -1.4033 -2.6916
  528MOL0     H71277   8.234  10.986   5.769 -2.9248 -4.5764 -0.7600
  528MOL0     H71278   8.243  11.108   5.369  0.1693 -0.5129  0.2595
  528MOL0     H71279   8.270  10.552   5.959  0.5502  0.1130  0.1353
  528MOL0     H71280   8.045  10.501   6.018 -2.4174  1.1613 -0.7490
  529MOL0     O71281   9.002   5.941   1.711  0.8276  0.5004  0.5115
  529MOL0     C71282   9.019   6.033   1.791  0.5768  0.2801  0.3308
  529MOL0     O71283   8.927   6.078   1.879  0.3158 -0.4052  0.9336
  529MOL0     C71284   8.802   6.032   1.888  0.4550  0.8332  0.4974
  529MOL0     C71285   8.754   6.029   2.024  0.0311  0.4909 -0.4390
  529MOL0     C71286   8.614   5.990   2.043 -0.2889  0.4076  0.8035
  529MOL0     C71287   8.525   5.958   1.935 -1.1183  0.7281  0.3531
  529MOL0     O71288   8.397   5.922   1.942 -0.2267 -0.2859  0.7906
  529MOL0     C71289   8.332   5.920   2.070  0.1319 -0.3863  0.2059
  529MOL0     C71290   8.286   6.064   2.108 -0.1801 -0.3242 -0.7852
  529MOL0     C71291   8.192   6.061   2.230  0.0286 -1.0438  0.3754
  529MOL0     C71292   8.240   6.042   2.367 -0.2018  0.6953 -0.5906
  529MOL0     C71293   8.157   5.962   2.459 -0.7188  0.1269  0.5602
  529MOL0     C71294   8.007   5.994   2.468 -0.3109 -0.9150 -0.1337
  529MOL0     C71295   7.972   6.146   2.489 -0.2639 -0.3800 -0.4725
  529MOL0     C71296   8.043   6.202   2.619  0.2063 -0.6399  0.6221
  529MOL0     N71297   7.987   6.155   2.746  0.1503 -0.1307  0.3790
  529MOL0     C71298   7.895   6.211   2.825  0.1610 -0.2249 -0.8175
  529MOL0     C71299   7.894   6.123   2.934  0.3495 -1.1461 -1.1984
  529MOL0     C71300   7.788   6.123   3.043  0.3120 -0.4707 -0.7565
  529MOL0     C71301   7.665   6.029   3.013  0.0664 -0.2022  0.2063
  529MOL0     C71302   7.611   6.046   2.871  0.4974 -1.3862 -0.4540
  529MOL0     C71303   7.490   5.956   2.845  0.0609  0.1158  0.2534
  529MOL0     O71304   7.398   5.976   2.958 -0.6317 -0.2020  0.1113
  529MOL0     C71305   7.314   5.885   3.004  0.4705 -0.5554 -0.9119
  529MOL0     C71306   7.257   5.918   3.129  0.3581 -0.0813  0.2416
  529MOL0     C71307   7.154   5.846   3.180  0.1111 -0.2442 -0.2711
  529MOL0     C71308   7.091   5.907   3.300  0.8092 -0.1483 -0.2353
  529MOL0     C71309   7.110   5.721   3.125 -0.0078  0.4476 -1.3150
  529MOL0     C71310   7.009   5.626   3.179 -0.1030  0.1674 -0.2334
  529MOL0     O71311   7.013   5.494   3.136  0.6325 -0.7300  0.2038
  529MOL0     C71312   6.907   5.417   3.174  0.6371 -0.5326 -1.9897
  529MOL0     C71313   6.789   5.409   3.101  0.7607 -0.0667  0.9321
  529MOL0     C71314   6.679   5.322   3.139  1.0464 -0.0683 -0.3248
  529MOL0     C71315   6.680   5.259   3.264  0.0118 -0.6156  0.5036
  529MOL0     O71316   6.570   5.194   3.306 -0.2555  0.2979  0.3025
  529MOL0     C71317   6.587   5.088   3.400 -0.1962  0.0696  0.7508
  529MOL0     C71318   6.474   4.981   3.397 -0.4287  0.7124 -0.1742
  529MOL0     C71319   6.365   5.001   3.503 -1.0019  0.1136  0.3421
  529MOL0     C71320   6.313   5.148   3.516  0.1390  0.1218 -0.2179
  529MOL0     C71321   6.159   5.145   3.553  0.4854 -0.0243  0.5103
  529MOL0     C71322   6.074   5.154   3.423 -0.5060 -0.3280  0.1183
  529MOL0     C71323   5.925   5.170   3.461  0.8397 -0.1896  0.9677
  529MOL0     C71324   5.841   5.148   3.335 -0.1289 -0.2884 -0.1431
  529MOL0    Cl71325   5.800   5.304   3.264  0.5393 -0.3344 -0.1077
  529MOL0     C71326   6.797   5.273   3.347  0.4452 -0.0015  0.9152
  529MOL0     C71327   6.914   5.345   3.298  0.0831  0.2124 -0.7003
  529MOL0     O71328   6.922   5.667   3.260  0.5703 -0.0511 -0.1664
  529MOL0     C71329   7.175   5.679   3.004  0.2720 -0.4515  0.2312
  529MOL0     C71330   7.267   5.763   2.940  0.0520  0.3569  0.5145
  529MOL0     N71331   8.001   6.036   2.928  0.0593 -0.5625 -0.1536
  529MOL0     N71332   8.059   6.060   2.812 -0.6284 -0.5015 -0.9877
  529MOL0     C71333   8.578   5.958   1.807 -0.4128 -0.6176  0.6067
  529MOL0     C71334   8.714   5.988   1.784  0.3297  0.2075 -0.4784
  529MOL0     C71335   9.157   6.083   1.809  0.4781 -0.0726 -0.6988
  529MOL0     C71336   9.273   6.011   1.761 -0.0112  0.1865  0.2065
  529MOL0     C71337   9.404   6.055   1.798 -0.9818 -0.1925 -0.4384
  529MOL0     C71338   9.419   6.167   1.878 -0.5846 -0.2464  0.4757
  529MOL0     O71339   9.543   6.207   1.918 -0.2848 -0.5473 -0.2687
  529MOL0     C71340   9.576   6.236   2.057 -0.4751  0.1163  0.2350
  529MOL0     C71341   9.638   6.374   2.074  0.5396  0.4591  0.2902
  529MOL0     C71342   9.539   6.494   2.043 -0.5976 -0.0230  0.1676
  529MOL0     C71343   9.423   6.506   2.142 -0.7330 -0.2866  0.1313
  529MOL0     C71344   9.310   6.592   2.093  0.5320 -0.2823 -0.1703
  529MOL0     C71345   9.229   6.670   2.037 -1.4885 -0.0293  0.6223
  529MOL0     C71346   9.309   6.239   1.925 -0.9959  0.3031  0.5373
  529MOL0     C71347   9.189   6.196   1.886  0.1922  1.0641 -0.3107
  529MOL0     H71348   8.820   6.051   2.107  0.6275  1.6197 -1.1918
  529MOL0     H71349   8.575   5.991   2.144 -0.8782  2.3548  0.6083
  529MOL0     H71350   8.240   5.861   2.066  0.8906 -1.5131 -2.2025
  529MOL0     H71351   8.399   5.873   2.143  0.9627 -1.3549 -1.1361
  529MOL0     H71352   8.377   6.125   2.113  1.0425 -2.0395 -1.2014
  529MOL0     H71353   8.239   6.096   2.015  0.2459 -1.7442 -1.5291
  529MOL0     H71354   8.141   6.157   2.223  1.5411 -0.2770 -0.6215
  529MOL0     H71355   8.119   5.980   2.218 -0.7772 -0.3741  0.6422
  529MOL0     H71356   8.342   6.004   2.365 -0.1622  0.7357  0.2231
  529MOL0     H71357   8.261   6.142   2.406  0.2023  1.0692 -1.7304
  529MOL0     H71358   8.178   5.860   2.427  0.0810  0.5169 -0.2020
  529MOL0     H71359   8.201   5.965   2.559 -0.2350 -0.8055  0.3845
  529MOL0     H71360   7.952   5.952   2.383 -0.1700  0.3485 -0.8702
  529MOL0     H71361   7.960   5.932   2.545 -0.2289 -0.6933  0.0953
  529MOL0     H71362   8.005   6.210   2.407 -0.0239 -0.5615 -0.5196
  529MOL0     H71363   7.868   6.165   2.517  0.5058  3.1852  0.5655
  529MOL0     H71364   8.049   6.311   2.611  0.2124 -0.8052 -2.8637
  529MOL0     H71365   8.147   6.171   2.621  1.2229  2.4656  1.7640
  529MOL0     H71366   7.829   6.294   2.799 -1.5853 -0.3939  2.4385
  529MOL0     H71367   7.830   6.100   3.141 -1.8681  2.1271  0.9505
  529MOL0     H71368   7.751   6.223   3.067 -2.5492 -1.8706  1.1607
  529MOL0     H71369   7.584   6.055   3.081  1.2480  0.8694  1.2738
  529MOL0     H71370   7.709   5.929   3.018  0.7431  0.1179  0.9356
  529MOL0     H71371   7.685   6.025   2.793 -1.1382 -2.6957 -1.7280
  529MOL0     H71372   7.594   6.153   2.857  2.2854 -0.5123  3.0014
  529MOL0     H71373   7.513   5.852   2.823  1.4216  0.7035 -1.2833
  529MOL0     H71374   7.444   5.987   2.751 -0.3400 -0.5812  0.2169
  529MOL0     H71375   7.276   6.012   3.181 -1.4856  0.9966 -0.9102
  529MOL0     H71376   7.032   5.838   3.361  1.6213  0.4917  1.3233
  529MOL0     H71377   7.164   5.951   3.368  1.4129 -1.6198  0.1023
  529MOL0     H71378   7.031   5.992   3.265  0.1776 -1.2178 -1.8467
  529MOL0     H71379   6.791   5.465   3.008 -2.4966 -1.6747 -0.2739
  529MOL0     H71380   6.599   5.305   3.067  0.3807 -1.7628  0.7617
  529MOL0     H71381   6.682   5.034   3.385 -0.4935  0.1771 -2.2666
  529MOL0     H71382   6.594   5.144   3.494  3.7830  0.9735  0.1097
  529MOL0     H71383   6.435   4.989   3.295 -1.6180 -2.9985 -0.1384
  529MOL0     H71384   6.511   4.879   3.413  2.0904  1.2918 -1.7475
  529MOL0     H71385   6.400   4.959   3.598 -2.1342 -2.4138 -0.2815
  529MOL0     H71386   6.280   4.942   3.468 -2.4592  2.5134 -0.3852
  529MOL0     H71387   6.362   5.203   3.598 -0.3809 -1.0294  0.9050
  529MOL0     H71388   6.329   5.205   3.424  0.2337  1.6303  0.6908
  529MOL0     H71389   6.130   5.233   3.612 -0.3854  0.1331 -0.1407
  529MOL0     H71390   6.122   5.060   3.612  0.6034 -1.6836 -1.6967
  529MOL0     H71391   6.099   5.242   3.362 -2.1276  1.6588  2.1358
  529MOL0     H71392   6.098   5.063   3.368  1.3556  0.6702 -0.8387
  529MOL0     H71393   5.886   5.253   3.521 -2.0980 -0.9348  0.2643
  529MOL0     H71394   5.903   5.084   3.525  0.4290 -1.5856 -0.9613
  529MOL0     H71395   5.751   5.091   3.360 -0.7145 -0.0252 -1.5161
  529MOL0     H71396   5.905   5.092   3.265  1.7375 -0.8835  1.9124
  529MOL0     H71397   6.793   5.232   3.447  3.3401  0.8832  1.5064
  529MOL0     H71398   7.009   5.338   3.350  1.5080  3.5754 -2.5205
  529MOL0     H71399   7.147   5.586   2.956  0.8041 -1.6029  2.0285
  529MOL0     H71400   7.300   5.735   2.840 -0.4200  1.3783  0.0472
  529MOL0     H71401   8.519   5.929   1.721  2.4759  0.6821 -1.9714
  529MOL0     H71402   8.746   6.001   1.682  0.0364  0.2905 -0.5601
  529MOL0     H71403   9.258   5.919   1.705 -1.4471  0.2021  0.5327
  529MOL0     H71404   9.489   5.994   1.767 -0.3807 -0.1627  1.0939
  529MOL0     H71405   9.502   6.209   2.132 -1.6197  0.7118 -0.6507
  529MOL0     H71406   9.656   6.164   2.076 -0.4028  0.3705  0.9101
  529MOL0     H71407   9.726   6.383   2.010  2.1518  0.8647  2.4615
  529MOL0     H71408   9.662   6.384   2.180 -1.0989 -0.7174  0.8231
  529MOL0     H71409   9.503   6.471   1.942  1.4413  0.6494 -0.7483
  529MOL0     H71410   9.597   6.586   2.040 -0.3084 -0.1764  0.9319
  529MOL0     H71411   9.458   6.545   2.238 -0.1560  0.7563 -0.4905
  529MOL0     H71412   9.386   6.406   2.166 -1.1832 -0.5984 -1.6888
  529MOL0     H71413   9.166   6.748   2.000 -0.6990  0.1335 -0.4088
  529MOL0     H71414   9.313   6.322   1.995 -0.1390 -0.7876  1.8327
  529MOL0     H71415   9.098   6.244   1.921 -0.5018 -0.2395 -0.2623
  530MOL0     O71416   1.978   9.754   4.866 -0.2460  0.3051 -0.3852
  530MOL0     C71417   2.022   9.833   4.781 -0.2567 -0.1934 -0.3410
  530MOL0     O71418   2.115   9.804   4.681  0.9018 -0.0993  0.2675
  530MOL0     C71419   2.179   9.680   4.684 -0.1461  0.3406  0.6845
  530MOL0     C71420   2.312   9.664   4.714 -1.1276 -0.0082  0.0801
  530MOL0     C71421   2.362   9.530   4.716 -1.0425  0.6830  0.3868
  530MOL0     C71422   2.288   9.421   4.670 -0.2546 -0.3682  0.2225
  530MOL0     O71423   2.332   9.298   4.645 -0.5479  0.3826 -0.2152
  530MOL0     C71424   2.473   9.271   4.647 -0.1973 -0.9234 -0.1133
  530MOL0     C71425   2.507   9.131   4.595  0.0729 -0.1006 -0.7397
  530MOL0     C71426   2.657   9.126   4.596 -0.5716 -0.3650  0.1534
  530MOL0     C71427   2.707   9.006   4.527  0.0304  0.5693  0.5038
  530MOL0     C71428   2.860   9.022   4.479  0.2799  0.8908  0.0888
  530MOL0     C71429   2.886   9.139   4.381 -1.0162 -0.3753 -0.3071
  530MOL0     C71430   3.030   9.130   4.323  0.0691 -0.2008  0.3031
  530MOL0     C71431   3.062   9.251   4.233 -1.0269  1.4266  0.5201
  530MOL0     N71432   3.203   9.252   4.191 -0.0466  0.0107 -0.1121
  530MOL0     C71433   3.307   9.287   4.267 -0.4693  0.0057 -0.2739
  530MOL0     C71434   3.418   9.254   4.197  0.3275  0.2991  0.5559
  530MOL0     C71435   3.555   9.250   4.256 -0.0786  0.4900 -0.3841
  530MOL0     C71436   3.618   9.108   4.262 -0.0170 -0.1856 -0.0949
  530MOL0     C71437   3.768   9.111   4.312 -0.5978 -0.2217  0.2658
  530MOL0     C71438   3.852   9.185   4.215 -0.6521 -0.4175 -0.1494
  530MOL0     O71439   3.988   9.203   4.263 -0.7539 -0.6497 -0.1136
  530MOL0     C71440   4.076   9.134   4.183  0.1327 -0.1880 -1.1252
  530MOL0     C71441   4.063   8.993   4.172 -0.5732  0.3027  0.6486
  530MOL0     C71442   4.146   8.922   4.087 -0.1469  0.5495  0.9034
  530MOL0     C71443   4.130   8.779   4.095 -0.6446  0.1171 -0.1561
  530MOL0     C71444   4.246   8.990   4.006  0.4138  0.1979 -0.4694
  530MOL0     C71445   4.328   8.919   3.903 -0.0401 -0.3797 -0.8448
  530MOL0     O71446   4.412   8.997   3.828 -0.4623 -0.4320 -0.1206
  530MOL0     C71447   4.497   8.932   3.746 -0.4590  0.2451 -0.1789
  530MOL0     C71448   4.460   8.878   3.620  0.5301 -0.4802 -0.4556
  530MOL0     C71449   4.548   8.794   3.549  0.6837  0.0179 -0.1291
  530MOL0     C71450   4.680   8.772   3.603 -0.4265  0.4168  0.3204
  530MOL0     O71451   4.764   8.699   3.522  0.7360 -0.7655 -0.3541
  530MOL0     C71452   4.854   8.781   3.450  0.4469 -0.3032  0.0862
  530MOL0     C71453   4.937   8.695   3.368  0.2861  0.6084 -0.1490
  530MOL0     C71454   5.026   8.766   3.258  1.0033  0.1350 -0.2861
  530MOL0     C71455   5.116   8.657   3.195 -0.3498 -0.0811 -0.3287
  530MOL0     C71456   5.146   8.688   3.050  0.7562 -0.3886 -0.0932
  530MOL0     C71457   5.216   8.571   2.988 -0.2323 -0.3248 -0.6554
  530MOL0     C71458   5.109   8.473   2.951 -0.3885  0.0220 -0.0247
  530MOL0     C71459   5.143   8.376   2.840  0.1162 -0.2238 -0.1758
  530MOL0    Cl71460   5.275   8.273   2.894  0.0937  0.3049  0.6293
  530MOL0     C71461   4.717   8.832   3.718 -0.2353 -0.3834 -0.8110
  530MOL0     C71462   4.626   8.908   3.789 -0.1038  0.7768  0.1435
  530MOL0     O71463   4.325   8.798   3.891 -0.2365 -0.0626 -0.1786
  530MOL0     C71464   4.256   9.126   4.030 -0.3706 -0.8000  0.3177
  530MOL0     C71465   4.172   9.198   4.110 -0.2797  0.4723 -0.3046
  530MOL0     N71466   3.381   9.208   4.073  0.7699  0.1063 -0.0838
  530MOL0     N71467   3.254   9.201   4.077 -0.4815 -0.1503  0.3823
  530MOL0     C71468   2.156   9.442   4.625 -1.5044  0.4890 -0.1235
  530MOL0     C71469   2.106   9.573   4.633 -0.9422 -0.2828  0.2591
  530MOL0     C71470   1.980   9.979   4.777 -0.1355 -0.2941  0.0475
  530MOL0     C71471   2.005  10.062   4.663 -0.6409 -0.5498 -1.5370
  530MOL0     C71472   1.974  10.198   4.663 -0.1708  0.2988 -0.1179
  530MOL0     C71473   1.939  10.257   4.785 -0.1772  0.7149 -0.3550
  530MOL0     O71474   1.919  10.401   4.804 -0.0569 -0.6088  0.0016
  530MOL0     C71475   1.976  10.487   4.707 -0.3865 -0.6235  0.2585
  530MOL0     C71476   1.941  10.626   4.748 -0.4466 -0.5432 -0.1939
  530MOL0     C71477   1.959  10.722   4.629  0.8890  0.1210  0.9389
  530MOL0     C71478   1.905  10.857   4.674 -0.2070  0.1938  0.0059
  530MOL0     C71479   1.959  10.965   4.592  1.0223 -0.1348  0.5596
  530MOL0     C71480   2.000  11.041   4.500  0.4672  1.6509 -0.8370
  530MOL0     C71481   1.911  10.175   4.897  0.2741 -0.6311 -0.4871
  530MOL0     C71482   1.926  10.039   4.890  1.0731  0.6443  0.4852
  530MOL0     H71483   2.369   9.742   4.763 -0.2838 -0.5408 -0.0421
  530MOL0     H71484   2.466   9.510   4.739 -0.4167 -1.5389 -3.4728
  530MOL0     H71485   2.532   9.337   4.583 -0.9731 -0.1203 -0.0126
  530MOL0     H71486   2.505   9.276   4.751  0.8224  0.5865 -0.4651
  530MOL0     H71487   2.463   9.058   4.663  0.6282 -1.2593 -1.5858
  530MOL0     H71488   2.474   9.104   4.494  0.0408 -1.9868 -0.2676
  530MOL0     H71489   2.701   9.213   4.547 -1.3834  1.8154  3.0278
  530MOL0     H71490   2.693   9.129   4.699 -2.0185 -0.8011  0.6884
  530MOL0     H71491   2.724   8.928   4.602  0.6208  0.9367  0.7620
  530MOL0     H71492   2.652   8.973   4.439 -1.0364 -2.0773  2.0499
  530MOL0     H71493   2.922   9.024   4.569  1.2056  0.6860 -0.5319
  530MOL0     H71494   2.881   8.924   4.434 -1.9201 -1.5372  3.7405
  530MOL0     H71495   2.804   9.128   4.310 -3.1838  3.1384  1.3800
  530MOL0     H71496   2.865   9.238   4.423 -2.8754 -0.2170 -1.4790
  530MOL0     H71497   3.108   9.107   4.397  2.5295 -1.9866 -2.5965
  530MOL0     H71498   3.027   9.047   4.252 -1.3812  0.9380 -1.0111
  530MOL0     H71499   3.040   9.350   4.274  0.9012  2.9602 -1.8631
  530MOL0     H71500   3.007   9.238   4.140 -0.5715 -1.0012  0.5244
  530MOL0     H71501   3.302   9.314   4.372 -1.6318  0.7298 -0.4963
  530MOL0     H71502   3.607   9.307   4.179  0.0953 -0.1766 -0.7618
  530MOL0     H71503   3.559   9.308   4.349 -1.4302  0.3250 -0.2081
  530MOL0     H71504   3.612   9.059   4.165  1.1023  0.8605 -0.7356
  530MOL0     H71505   3.557   9.051   4.331 -0.0508 -0.7014 -0.5495
  530MOL0     H71506   3.813   9.011   4.316  0.3482  0.1497 -0.6107
  530MOL0     H71507   3.775   9.151   4.413  0.0450 -1.2284  0.6268
  530MOL0     H71508   3.815   9.283   4.185  1.5008 -0.6113 -4.0256
  530MOL0     H71509   3.853   9.130   4.121 -1.1215  0.2178 -0.5275
  530MOL0     H71510   3.992   8.938   4.232  0.8592 -0.0720  2.0607
  530MOL0     H71511   4.088   8.741   4.001 -0.5549  1.8343 -0.9196
  530MOL0     H71512   4.226   8.728   4.105 -0.5252  0.4161  0.1889
  530MOL0     H71513   4.065   8.745   4.176 -0.2514 -1.0651 -0.3183
  530MOL0     H71514   4.360   8.893   3.582 -0.8624 -5.7258  0.3035
  530MOL0     H71515   4.517   8.759   3.451 -2.2499  0.2521  0.6419
  530MOL0     H71516   4.798   8.845   3.380  1.4789  1.0914  0.4867
  530MOL0     H71517   4.911   8.848   3.515 -3.0937  1.9415  1.1485
  530MOL0     H71518   5.001   8.634   3.433 -1.1320 -1.5060 -0.6333
  530MOL0     H71519   4.869   8.623   3.322 -1.1088  0.4304  2.0690
  530MOL0     H71520   5.089   8.845   3.300  1.1469 -0.2472  0.2290
  530MOL0     H71521   4.954   8.800   3.182  1.0656  2.1400  0.5110
  530MOL0     H71522   5.202   8.657   3.262 -0.4116 -1.9268 -0.2078
  530MOL0     H71523   5.061   8.563   3.204 -0.4822  0.0954  0.9845
  530MOL0     H71524   5.214   8.773   3.038 -0.7792  0.5908 -2.6158
  530MOL0     H71525   5.055   8.718   2.998  0.4277 -2.9162 -1.1203
  530MOL0     H71526   5.257   8.597   2.889  0.1406 -0.2604 -0.4854
  530MOL0     H71527   5.294   8.519   3.045  0.8675 -0.3119 -2.0865
  530MOL0     H71528   5.023   8.528   2.913 -1.9010 -0.4074  2.5420
  530MOL0     H71529   5.075   8.411   3.035 -2.9795 -1.4969 -2.0424
  530MOL0     H71530   5.168   8.432   2.749 -2.2864 -1.1770 -1.5373
  530MOL0     H71531   5.054   8.318   2.814 -0.6338  2.1002 -3.4659
  530MOL0     H71532   4.814   8.841   3.767 -1.8442 -0.6793  2.7140
  530MOL0     H71533   4.654   8.947   3.887 -0.0249 -1.7492  1.1911
  530MOL0     H71534   4.338   9.170   3.975 -0.0029 -0.9870  0.7089
  530MOL0     H71535   4.187   9.305   4.125  0.4501  0.3184  0.1275
  530MOL0     H71536   2.093   9.359   4.597 -1.3989 -0.8513  3.1009
  530MOL0     H71537   2.006   9.598   4.599 -0.7680  1.9239  1.2239
  530MOL0     H71538   2.050  10.018   4.575 -0.2886 -0.6326 -1.3178
  530MOL0     H71539   2.001  10.259   4.578 -2.0401  2.5543  0.8131
  530MOL0     H71540   2.084  10.470   4.700 -0.5113 -1.3395 -0.0007
  530MOL0     H71541   1.929  10.475   4.609 -0.7128 -0.0676  0.3422
  530MOL0     H71542   2.001  10.668   4.829  1.4515  1.7559 -2.5869
  530MOL0     H71543   1.835  10.628   4.775 -0.1710  0.2654  0.8727
  530MOL0     H71544   1.899  10.686   4.545  2.2928  0.9941 -0.4899
  530MOL0     H71545   2.064  10.733   4.604  0.8933  4.6540  2.1412
  530MOL0     H71546   1.940  10.880   4.776  1.8856  1.5390 -0.9528
  530MOL0     H71547   1.796  10.863   4.678 -0.1634  0.7203  2.3604
  530MOL0     H71548   2.033  11.115   4.430  1.5057 -0.0021 -2.1480
  530MOL0     H71549   1.878  10.227   4.986  0.0330 -1.8241  0.1446
  530MOL0     H71550   1.912   9.975   4.977 -0.8698 -1.8618 -1.4806
  531MOL0     O71551   4.167   0.592   5.340 -0.0081  0.6257  0.1637
  531MOL0     C71552   4.267   0.659   5.354 -1.0549  0.1924  0.5273
  531MOL0     O71553   4.314   0.706   5.475  0.4138 -0.4346 -0.3967
  531MOL0     C71554   4.231   0.702   5.584  0.0488 -0.2990  0.5917
  531MOL0     C71555   4.113   0.767   5.579  0.9450 -0.3522  0.0918
  531MOL0     C71556   4.033   0.786   5.691  0.6503  0.0009 -0.4143
  531MOL0     C71557   4.058   0.706   5.807  0.6694  0.4445  0.0662
  531MOL0     O71558   3.966   0.698   5.912  0.1006  0.4549 -0.1012
  531MOL0     C71559   3.836   0.757   5.887 -1.0975 -0.4906 -0.4221
  531MOL0     C71560   3.748   0.746   6.017  0.7017  0.1050  0.4144
  531MOL0     C71561   3.604   0.786   5.990 -0.2519 -1.1520  0.2122
  531MOL0     C71562   3.495   0.711   6.054 -0.4217  0.0674 -0.4037
  531MOL0     C71563   3.368   0.783   6.100 -0.2244  0.0822  0.8083
  531MOL0     C71564   3.279   0.834   5.985  1.3208  0.3595  0.4304
  531MOL0     C71565   3.142   0.883   6.028  0.1652  0.5248 -0.5113
  531MOL0     C71566   3.043   0.899   5.917  0.8875 -0.1268 -0.1975
  531MOL0     N71567   2.929   0.974   5.974  0.4191  0.1751 -1.0600
  531MOL0     C71568   2.828   0.915   6.045  0.7735 -0.3820  0.4761
  531MOL0     C71569   2.747   1.022   6.068 -0.2073 -0.1091  0.1531
  531MOL0     C71570   2.608   1.024   6.115 -0.1715  0.5997 -1.0741
  531MOL0     C71571   2.546   1.136   6.041  0.2212 -0.0798 -0.2244
  531MOL0     C71572   2.402   1.147   6.070  0.0297  0.3139 -0.1388
  531MOL0     C71573   2.309   1.045   5.998 -0.1484  0.2309  0.0958
  531MOL0     O71574   2.245   0.971   6.108 -0.4492 -0.0723 -0.8982
  531MOL0     C71575   2.118   0.919   6.089  0.0340 -0.0149  0.3427
  531MOL0     C71576   2.066   0.900   5.958  0.0754  0.5032  0.2668
  531MOL0     C71577   1.941   0.859   5.940  0.0998  0.4889  0.8640
  531MOL0     C71578   1.885   0.876   5.799  0.3798  1.0527 -0.0249
  531MOL0     C71579   1.857   0.823   6.053  0.3058  0.6772 -0.9974
  531MOL0     C71580   1.728   0.758   6.045 -0.7078 -0.1460 -0.5180
  531MOL0     O71581   1.650   0.767   6.162  0.1961  0.1536  0.4713
  531MOL0     C71582   1.547   0.680   6.189 -0.2028  0.9504  0.5260
  531MOL0     C71583   1.470   0.613   6.096  0.1611  1.2245 -0.0578
  531MOL0     C71584   1.353   0.542   6.141 -0.4416 -1.1379 -0.9431
  531MOL0     C71585   1.308   0.532   6.276 -0.3478 -0.1472 -0.1312
  531MOL0     O71586   1.195   0.461   6.314  0.3194 -0.2330 -0.3824
  531MOL0     C71587   1.152   0.354   6.232  0.5599 -0.1937  0.4688
  531MOL0     C71588   1.027   0.298   6.294  0.7246 -0.1585 -0.2336
  531MOL0     C71589   0.907   0.401   6.309 -0.2647  0.2086 -0.5544
  531MOL0     C71590   0.791   0.326   6.363  0.2810 -0.6338 -0.0602
  531MOL0     C71591   0.668   0.425   6.362 -0.5994 -0.7391 -0.2010
  531MOL0     C71592   0.667   0.518   6.483 -0.0511 -0.6100 -0.2424
  531MOL0     C71593   0.648   0.433   6.605  1.3020  0.6128  1.0060
  531MOL0     C71594   0.641   0.512   6.740 -1.1555 -0.3366  0.2819
  531MOL0    Cl71595   0.597   0.412   6.870 -0.1495 -0.2208 -0.0811
  531MOL0     C71596   1.396   0.596   6.364 -0.0484 -0.8798 -0.5108
  531MOL0     C71597   1.501   0.675   6.323  0.3124  0.1914  0.1307
  531MOL0     O71598   1.704   0.698   5.945  0.2664  0.2554 -0.0334
  531MOL0     C71599   1.912   0.834   6.185  0.8360 -0.8903  0.2003
  531MOL0     C71600   2.043   0.883   6.196 -0.0149  0.0935 -0.1871
  531MOL0     N71601   2.811   1.136   6.030 -0.2248 -0.1333  0.3534
  531MOL0     N71602   2.921   1.107   5.974  0.1424 -0.0778 -0.2957
  531MOL0     C71603   4.178   0.640   5.815 -0.1403 -0.2333 -0.3186
  531MOL0     C71604   4.262   0.638   5.701  0.8899 -0.0556 -0.2347
  531MOL0     C71605   4.360   0.676   5.242  0.6913 -0.7447 -0.1758
  531MOL0     C71606   4.464   0.773   5.244 -0.4228 -0.4306 -0.0201
  531MOL0     C71607   4.554   0.796   5.138 -0.5772 -0.3213  0.5133
  531MOL0     C71608   4.552   0.721   5.024 -0.5165 -0.4932 -0.4129
  531MOL0     O71609   4.622   0.751   4.907  0.0208  0.3261 -0.1415
  531MOL0     C71610   4.728   0.846   4.912  0.6134  0.1272 -0.2242
  531MOL0     C71611   4.851   0.796   5.002 -0.4334 -0.3709 -0.7224
  531MOL0     C71612   4.983   0.851   4.967  0.2049  0.9548 -0.0643
  531MOL0     C71613   5.007   0.996   5.015  0.2555  0.4715  0.0630
  531MOL0     C71614   4.925   1.093   4.949  0.4869 -0.3804 -0.5764
  531MOL0     C71615   4.858   1.176   4.887  0.0169 -0.3078 -0.4881
  531MOL0     C71616   4.470   0.609   5.032  0.2270 -0.4774 -0.1135
  531MOL0     C71617   4.370   0.592   5.129 -1.3016  0.5558 -0.0134
  531MOL0     H71618   4.100   0.823   5.488 -0.1064 -2.8323 -1.3959
  531MOL0     H71619   3.947   0.851   5.674 -0.6986 -0.3132  3.9808
  531MOL0     H71620   3.852   0.860   5.856  0.6811 -0.7876 -0.5966
  531MOL0     H71621   3.781   0.708   5.806  1.8041 -2.1121 -1.5614
  531MOL0     H71622   3.751   0.639   6.037  0.7772  0.0730  0.2309
  531MOL0     H71623   3.791   0.802   6.101  1.2234  0.5403 -0.1339
  531MOL0     H71624   3.596   0.892   6.016 -0.0116 -0.9829 -0.3788
  531MOL0     H71625   3.583   0.782   5.883 -2.5796  0.7032  0.4967
  531MOL0     H71626   3.464   0.639   5.977 -1.1367  0.8942 -0.9059
  531MOL0     H71627   3.541   0.654   6.135  0.2873 -0.5646 -1.2200
  531MOL0     H71628   3.317   0.714   6.169 -0.2700 -1.5479 -0.7911
  531MOL0     H71629   3.406   0.873   6.150 -0.5280  0.7633 -0.1663
  531MOL0     H71630   3.321   0.902   5.910 -1.9623 -0.3063 -2.2583
  531MOL0     H71631   3.250   0.748   5.925  2.1411 -0.1741  0.7897
  531MOL0     H71632   3.086   0.830   6.105  1.6780  0.8527  0.8450
  531MOL0     H71633   3.160   0.985   6.065 -4.2045  1.8804 -1.5042
  531MOL0     H71634   3.014   0.806   5.868  3.4255  0.1308 -2.3908
  531MOL0     H71635   3.079   0.965   5.837  0.8405 -0.5236 -0.5473
  531MOL0     H71636   2.798   0.812   6.056  0.8402 -0.7666 -2.2043
  531MOL0     H71637   2.561   0.926   6.105  1.1636 -0.0444 -1.1436
  531MOL0     H71638   2.601   1.039   6.223  1.9390  1.2125 -0.9740
  531MOL0     H71639   2.559   1.111   5.935  1.7006  1.0628 -0.3499
  531MOL0     H71640   2.597   1.230   6.064  3.5004 -0.9302 -3.1590
  531MOL0     H71641   2.376   1.249   6.042  1.5905  1.0365  0.8853
  531MOL0     H71642   2.394   1.143   6.179  0.9481  0.8796 -0.0422
  531MOL0     H71643   2.369   0.968   5.948  2.2631  0.1316  2.8272
  531MOL0     H71644   2.246   1.088   5.921 -2.3063 -1.2505  0.9500
  531MOL0     H71645   2.134   0.890   5.873 -1.2417 -2.3597 -0.5524
  531MOL0     H71646   1.863   0.779   5.752  0.1253  2.1953 -2.3875
  531MOL0     H71647   1.786   0.920   5.814 -0.0709 -0.8451  3.5810
  531MOL0     H71648   1.937   0.943   5.730  2.8401  1.0010  1.6396
  531MOL0     H71649   1.485   0.616   5.989 -2.0212 -0.1873 -0.4773
  531MOL0     H71650   1.298   0.491   6.062  0.5728 -0.7235 -1.9508
  531MOL0     H71651   1.140   0.376   6.125 -1.4386 -0.6242  0.5644
  531MOL0     H71652   1.224   0.272   6.235  0.7083 -0.0271  2.1568
  531MOL0     H71653   0.998   0.211   6.233  2.2177 -1.3996  0.7630
  531MOL0     H71654   1.041   0.279   6.400  1.7836  1.9435  0.0443
  531MOL0     H71655   0.879   0.451   6.216 -0.4860 -0.5625 -0.9176
  531MOL0     H71656   0.942   0.470   6.386  1.3755 -1.5167  0.3570
  531MOL0     H71657   0.767   0.244   6.295 -1.2820  0.6879 -1.1840
  531MOL0     H71658   0.823   0.295   6.463 -1.1474 -0.8842  0.3412
  531MOL0     H71659   0.581   0.358   6.362  0.3308 -2.0473  1.3928
  531MOL0     H71660   0.663   0.486   6.271 -0.8289 -0.3247  0.0879
  531MOL0     H71661   0.761   0.570   6.501 -1.0875  1.3436 -0.1701
  531MOL0     H71662   0.583   0.586   6.466  0.8334  0.5910  0.0784
  531MOL0     H71663   0.715   0.346   6.610 -1.2195 -1.5787 -0.4508
  531MOL0     H71664   0.558   0.371   6.598  0.9514  1.1055  1.1081
  531MOL0     H71665   0.559   0.582   6.721 -1.7109 -1.9034 -4.4760
  531MOL0     H71666   0.735   0.566   6.756  0.8709 -3.5937  0.1205
  531MOL0     H71667   1.385   0.593   6.472 -1.9485 -2.5967 -0.7150
  531MOL0     H71668   1.557   0.716   6.406 -0.2450  0.0165  0.5978
  531MOL0     H71669   1.848   0.808   6.269  2.0013 -3.4529  0.3753
  531MOL0     H71670   2.081   0.904   6.296  1.4133  2.6373 -1.1735
  531MOL0     H71671   4.200   0.571   5.896 -0.1629 -0.5938 -0.6143
  531MOL0     H71672   4.351   0.577   5.690  2.3021  1.7801  0.3760
  531MOL0     H71673   4.472   0.846   5.324 -0.4047 -2.4693  1.9808
  531MOL0     H71674   4.607   0.890   5.154 -3.7610  1.1374  4.2781
  531MOL0     H71675   4.764   0.863   4.810  2.1497 -0.5627  0.1771
  531MOL0     H71676   4.687   0.941   4.946  0.7575 -0.1614  0.7737
  531MOL0     H71677   4.857   0.690   4.977  1.8622 -0.5149  0.1764
  531MOL0     H71678   4.822   0.804   5.107  1.4068 -3.1220  0.1152
  531MOL0     H71679   5.006   0.842   4.861 -0.1134  2.7239 -0.3283
  531MOL0     H71680   5.057   0.793   5.022 -1.1300  1.1321  2.0570
  531MOL0     H71681   5.113   1.023   5.012  0.5535 -0.7144 -0.8816
  531MOL0     H71682   4.981   0.997   5.122 -2.4741  0.5050 -0.5466
  531MOL0     H71683   4.809   1.252   4.830 -2.1458 -1.5834 -0.4293
  531MOL0     H71684   4.447   0.543   4.950 -0.9428 -1.0553  0.6529
  531MOL0     H71685   4.307   0.503   5.135 -0.8800  0.2918  0.6090
  532MOL0     O71686   3.335  10.038   3.370 -0.5098  0.2405  0.3896
  532MOL0     C71687   3.405  10.136   3.365  0.1185 -0.9420  0.7584
  532MOL0     O71688   3.424  10.218   3.259 -0.4764 -0.0495  0.1476
  532MOL0     C71689   3.360  10.193   3.136 -0.1826 -0.5494 -0.8756
  532MOL0     C71690   3.224  10.236   3.114  1.0587 -0.6498  0.2624
  532MOL0     C71691   3.155  10.189   2.997  0.2221 -0.9917  0.6656
  532MOL0     C71692   3.217  10.128   2.893 -0.3600  0.5139  0.4712
  532MOL0     O71693   3.146  10.090   2.775 -0.3986 -0.3317  0.5898
  532MOL0     C71694   3.201  10.001   2.684 -0.0497 -1.1915  0.5805
  532MOL0     C71695   3.123   9.992   2.550  1.1611  0.0535  1.4234
  532MOL0     C71696   2.982   9.927   2.573 -1.0959  0.7698  0.4586
  532MOL0     C71697   2.872   9.994   2.502 -0.3077 -0.0658 -0.0973
  532MOL0     C71698   2.731   9.959   2.547  1.0962  1.1636  0.1477
  532MOL0     C71699   2.699   9.812   2.556  0.2601  0.0510 -0.4439
  532MOL0     C71700   2.553   9.779   2.596 -0.0270 -0.4716 -0.3030
  532MOL0     C71701   2.460   9.796   2.476  0.6443  0.3254 -0.0828
  532MOL0     N71702   2.331   9.729   2.496 -0.2599  0.2966  0.5708
  532MOL0     C71703   2.305   9.621   2.420  0.7027  0.1390 -0.0440
  532MOL0     C71704   2.202   9.567   2.483  0.3898  0.3117 -0.1466
  532MOL0     C71705   2.121   9.440   2.453  0.1131 -0.4127 -0.2028
  532MOL0     C71706   1.997   9.472   2.364 -0.8701 -0.2593 -0.2543
  532MOL0     C71707   1.892   9.518   2.459 -0.1461 -0.4563 -0.3047
  532MOL0     C71708   1.778   9.588   2.387  0.0757 -0.1003 -0.3800
  532MOL0     O71709   1.679   9.611   2.488  0.3860 -0.4006 -0.6665
  532MOL0     C71710   1.559   9.666   2.446 -0.7110  0.0883  0.1899
  532MOL0     C71711   1.462   9.681   2.555  0.2288 -0.2149  0.2420
  532MOL0     C71712   1.328   9.711   2.522 -0.4259 -0.6578 -0.1779
  532MOL0     C71713   1.219   9.718   2.634 -0.0552  1.1164  0.3892
  532MOL0     C71714   1.295   9.759   2.394  0.4606  0.1243  0.1428
  532MOL0     C71715   1.157   9.803   2.346 -0.1539 -0.0007 -0.0079
  532MOL0     O71716   1.140   9.899   2.256 -0.2554  0.0151  0.3568
  532MOL0     C71717   1.021   9.958   2.234  0.3663 -0.1835  0.0763
  532MOL0     C71718   0.992  10.096   2.265  0.2947 -1.3838 -1.0489
  532MOL0     C71719   0.866  10.154   2.251 -0.1358 -0.2535  1.2084
  532MOL0     C71720   0.762  10.071   2.212  0.4117 -1.4124  0.8318
  532MOL0     O71721   0.640  10.130   2.213 -0.1734  0.7091  0.4574
  532MOL0     C71722   0.552  10.087   2.318  0.8262 -0.7394  0.2321
  532MOL0     C71723   0.507  10.212   2.394  0.6142 -0.4461 -1.0390
  532MOL0     C71724   0.621  10.292   2.456  0.6113 -0.7616 -0.1557
  532MOL0     C71725   0.701  10.202   2.562 -0.4513 -0.0909  0.6908
  532MOL0     C71726   0.785  10.291   2.649 -0.8825  0.1603 -0.5018
  532MOL0     C71727   0.904  10.355   2.567  0.1250  0.4683 -0.5303
  532MOL0     C71728   1.016  10.422   2.659  0.0851 -0.0643  0.2071
  532MOL0     C71729   0.966  10.530   2.744 -0.4270  0.4657  0.1199
  532MOL0    Cl71730   0.878  10.650   2.655  0.1945  0.1834 -0.3075
  532MOL0     C71731   0.775   9.937   2.185 -0.0313  0.5881 -0.2095
  532MOL0     C71732   0.910   9.883   2.188 -0.3318  0.0671 -0.1760
  532MOL0     O71733   1.070   9.738   2.387  0.7022  0.1732  1.0782
  532MOL0     C71734   1.392   9.749   2.292  0.3421 -0.1664 -0.2939
  532MOL0     C71735   1.527   9.711   2.318  0.2434 -0.5163  0.2032
  532MOL0     N71736   2.174   9.653   2.590 -0.2945 -0.4751  0.0047
  532MOL0     N71737   2.259   9.744   2.607  0.3882  0.5347  0.7486
  532MOL0     C71738   3.344  10.072   2.917 -0.0695 -0.2480 -0.2689
  532MOL0     C71739   3.415  10.118   3.041  0.0585  1.0845  0.8142
  532MOL0     C71740   3.483  10.176   3.489  0.1161  0.0171  0.6520
  532MOL0     C71741   3.449  10.116   3.617 -0.6012  0.6839 -0.0500
  532MOL0     C71742   3.510  10.157   3.729  0.7609  0.1757  0.2120
  532MOL0     C71743   3.598  10.251   3.741  0.4465 -0.1823  0.2314
  532MOL0     O71744   3.665  10.293   3.856 -0.0694 -0.1438 -0.6221
  532MOL0     C71745   3.621  10.416   3.903  0.8285  0.7754 -0.4063
  532MOL0     C71746   3.472  10.463   3.915 -0.4699  0.3589  0.4687
  532MOL0     C71747   3.388  10.373   4.020 -0.7295  0.5910 -0.7615
  532MOL0     C71748   3.271  10.455   4.084 -0.3695  0.7063  0.4177
  532MOL0     C71749   3.180  10.352   4.146 -0.1066  0.2008 -0.4812
  532MOL0     C71750   3.109  10.283   4.214 -0.5546 -0.5614  1.0432
  532MOL0     C71751   3.626  10.319   3.622 -0.0015  0.1501  0.9745
  532MOL0     C71752   3.572  10.283   3.498  0.2617 -0.3415  0.5624
  532MOL0     H71753   3.179  10.289   3.198  0.5881 -1.0419  0.2624
  532MOL0     H71754   3.050  10.215   2.984  1.0706  2.5867 -0.2343
  532MOL0     H71755   3.304  10.028   2.657 -0.5118  1.2171  0.9262
  532MOL0     H71756   3.205   9.901   2.727  3.1494 -0.7034  1.6984
  532MOL0     H71757   3.110  10.091   2.505 -1.2805 -1.4775 -1.6651
  532MOL0     H71758   3.180   9.928   2.481 -1.2919 -0.5568 -0.1989
  532MOL0     H71759   2.983   9.820   2.548 -0.0763  0.4519  1.7469
  532MOL0     H71760   2.952   9.935   2.678 -4.9441 -1.0659 -0.3368
  532MOL0     H71761   2.886  10.102   2.513  2.1696 -0.3754  0.4783
  532MOL0     H71762   2.889   9.976   2.395 -1.8970 -1.8236 -0.1044
  532MOL0     H71763   2.711  10.017   2.638  1.6152 -2.8081  3.0347
  532MOL0     H71764   2.665   9.993   2.466  2.8866 -1.3484 -2.5737
  532MOL0     H71765   2.717   9.769   2.457 -3.9963  3.4140 -3.0548
  532MOL0     H71766   2.762   9.771   2.636  1.6645  0.5107 -1.2771
  532MOL0     H71767   2.542   9.672   2.618 -0.9855  0.0482  2.1395
  532MOL0     H71768   2.534   9.835   2.688 -0.0701  1.7962 -1.6326
  532MOL0     H71769   2.507   9.773   2.380  1.9758  0.1878  0.5894
  532MOL0     H71770   2.439   9.902   2.456  0.1355  0.0016 -1.3508
  532MOL0     H71771   2.351   9.577   2.332  0.4106 -0.6223  0.1791
  532MOL0     H71772   2.190   9.375   2.398  3.2708  1.0554  1.6714
  532MOL0     H71773   2.101   9.387   2.546  0.6856 -0.5913 -0.1781
  532MOL0     H71774   1.966   9.382   2.311 -4.2843  0.0242  1.0172
  532MOL0     H71775   2.020   9.553   2.295  1.7763  1.4327  2.3594
  532MOL0     H71776   1.940   9.594   2.521 -0.7062  1.5074 -2.1458
  532MOL0     H71777   1.861   9.439   2.528 -2.6374  0.2670 -0.4994
  532MOL0     H71778   1.723   9.530   2.312 -2.3285  0.9855  0.4292
  532MOL0     H71779   1.816   9.679   2.340 -0.6774  1.7725  2.3744
  532MOL0     H71780   1.495   9.639   2.649 -0.0306 -3.1845 -0.8633
  532MOL0     H71781   1.197   9.819   2.667 -4.1777  0.5811 -0.2265
  532MOL0     H71782   1.124   9.668   2.612  1.6748 -1.6805 -1.3885
  532MOL0     H71783   1.257   9.661   2.720 -0.9999 -2.6709 -1.4727
  532MOL0     H71784   1.071  10.167   2.286 -1.4927  0.2563  0.6080
  532MOL0     H71785   0.852  10.254   2.291 -1.4634  0.4429 -0.8590
  532MOL0     H71786   0.470  10.020   2.292  0.9841 -1.7636  2.1454
  532MOL0     H71787   0.598  10.028   2.398  0.0553 -0.4531  0.9012
  532MOL0     H71788   0.439  10.271   2.332 -0.0864  0.8751  0.9164
  532MOL0     H71789   0.438  10.185   2.474 -0.3435  5.6974  0.7175
  532MOL0     H71790   0.578  10.385   2.493  0.2100 -1.1241  0.3030
  532MOL0     H71791   0.687  10.323   2.375 -0.1522 -0.6431 -0.7473
  532MOL0     H71792   0.631  10.152   2.630 -2.3933 -0.1926 -1.2668
  532MOL0     H71793   0.764  10.124   2.520 -0.1038  0.9375 -0.7758
  532MOL0     H71794   0.827  10.232   2.732 -0.7851  1.8159  0.6716
  532MOL0     H71795   0.720  10.369   2.690  1.4759  1.1124  1.7340
  532MOL0     H71796   0.944  10.278   2.500  1.4171 -0.4679  1.2310
  532MOL0     H71797   0.859  10.429   2.499 -0.8399 -0.0544 -0.4856
  532MOL0     H71798   1.091  10.473   2.599 -0.9636  2.5962  1.0316
  532MOL0     H71799   1.066  10.346   2.720 -0.5561 -0.0591  0.7506
  532MOL0     H71800   1.054  10.572   2.794 -1.6661 -0.1729  2.9961
  532MOL0     H71801   0.899  10.483   2.816  2.0513  0.1907  2.3997
  532MOL0     H71802   0.695   9.867   2.164 -0.7894  0.7805  1.8062
  532MOL0     H71803   0.909   9.777   2.163  0.3751  0.5347 -2.3430
  532MOL0     H71804   1.365   9.775   2.190 -0.1308 -2.4297 -0.7944
  532MOL0     H71805   1.610   9.716   2.248 -0.2774 -1.9391 -0.5778
  532MOL0     H71806   3.409  10.023   2.846  2.7689  1.8096  0.7300
  532MOL0     H71807   3.522  10.102   3.038 -0.1258 -0.1429 -0.0336
  532MOL0     H71808   3.389  10.027   3.630  1.4111 -0.5801  1.2734
  532MOL0     H71809   3.479  10.116   3.825 -4.9441  1.9841 -0.5204
  532MOL0     H71810   3.675  10.426   3.997 -2.5850  1.1402  1.6773
  532MOL0     H71811   3.670  10.478   3.827  0.7347  0.0653 -1.0587
  532MOL0     H71812   3.434  10.461   3.813  1.9534 -0.1937 -0.4788
  532MOL0     H71813   3.458  10.567   3.948 -2.0545  0.9303 -1.7635
  532MOL0     H71814   3.451  10.337   4.102 -0.2530  2.5983 -0.1898
  532MOL0     H71815   3.355  10.282   3.970  2.4724 -0.4624 -1.1776
  532MOL0     H71816   3.215  10.517   4.013 -1.3331 -0.2961  0.2696
  532MOL0     H71817   3.310  10.519   4.163  0.0920  1.9281 -0.7699
  532MOL0     H71818   3.040  10.231   4.278 -1.1811 -2.8660 -1.3482
  532MOL0     H71819   3.685  10.409   3.620  0.7918 -0.3632 -1.1847
  532MOL0     H71820   3.587  10.345   3.410  4.5273 -1.4775  0.2559
  533MOL0     O71821   8.516   3.312   4.799  0.1491  0.0290 -0.1993
  533MOL0     C71822   8.392   3.300   4.805  0.7563 -0.3868  0.1350
  533MOL0     O71823   8.321   3.185   4.814  0.1770  0.2451 -0.8648
  533MOL0     C71824   8.392   3.067   4.800  0.1124  0.1428  0.6758
  533MOL0     C71825   8.346   2.961   4.877  0.3698  0.0267 -0.3209
  533MOL0     C71826   8.404   2.836   4.848  0.4180 -0.2756  0.5332
  533MOL0     C71827   8.504   2.813   4.755 -0.0205  0.0002 -0.7320
  533MOL0     O71828   8.550   2.685   4.731  0.8507  0.2383 -0.3312
  533MOL0     C71829   8.681   2.656   4.673  0.0464 -0.2502  1.0971
  533MOL0     C71830   8.681   2.511   4.661  0.0465 -0.0094  0.4787
  533MOL0     C71831   8.769   2.456   4.538  0.4183 -0.1455 -0.3685
  533MOL0     C71832   8.905   2.408   4.610 -0.2526  0.8636  0.5556
  533MOL0     C71833   9.010   2.368   4.507 -0.7892 -0.7984 -0.2170
  533MOL0     C71834   9.112   2.291   4.588 -0.2677 -0.0144  0.3969
  533MOL0     C71835   9.252   2.259   4.520  1.1594  0.5955  0.0496
  533MOL0     C71836   9.229   2.209   4.378  0.3527  0.4083 -0.0295
  533MOL0     N71837   9.360   2.200   4.316  0.1702 -0.2421 -0.2588
  533MOL0     C71838   9.446   2.094   4.334  0.2835  0.7480  1.2331
  533MOL0     C71839   9.542   2.118   4.233  0.6548  0.5467  0.8952
  533MOL0     C71840   9.669   2.038   4.194  0.3681  0.0710 -0.3931
  533MOL0     C71841   9.724   1.985   4.321 -0.5637 -0.0701 -0.0606
  533MOL0     C71842   9.842   1.885   4.290  0.5935  0.0486  0.3962
  533MOL0     C71843   9.930   1.857   4.414  0.2578 -0.7665 -0.0928
  533MOL0     O71844   9.995   1.989   4.434  0.0623  0.1602  0.5512
  533MOL0     C71845  10.123   1.998   4.386 -0.1461  0.4275 -0.2943
  533MOL0     C71846  10.199   2.102   4.439  0.4348 -0.0257  0.1249
  533MOL0     C71847  10.330   2.125   4.405 -0.0507  0.4078  0.5713
  533MOL0     C71848  10.401   2.222   4.500  0.2178 -0.7646 -1.3697
  533MOL0     C71849  10.393   2.038   4.317 -0.3093  1.0432  0.4815
  533MOL0     C71850  10.536   2.044   4.278  0.2318 -0.8724  0.9581
  533MOL0     O71851  10.596   1.922   4.247  0.0547 -0.6790  0.2002
  533MOL0     C71852  10.736   1.911   4.228  0.4519 -0.2908  0.4608
  533MOL0     C71853  10.778   1.795   4.161 -0.0232 -0.0063 -0.6725
  533MOL0     C71854  10.914   1.775   4.134  0.1910  0.4383  0.9038
  533MOL0     C71855  11.012   1.853   4.189 -0.7467  0.1784  0.1556
  533MOL0     O71856  11.143   1.812   4.171  0.1341  0.6846 -0.3093
  533MOL0     C71857  11.247   1.899   4.198  0.7948 -0.2352  0.3181
  533MOL0     C71858  11.375   1.829   4.151  0.2776  0.7772 -0.4455
  533MOL0     C71859  11.497   1.924   4.126 -0.3308 -0.1414 -0.3710
  533MOL0     C71860  11.592   1.871   4.018 -0.1216 -0.3223 -0.4448
  533MOL0     C71861  11.737   1.893   4.059 -0.8724 -0.4602 -0.0259
  533MOL0     C71862  11.836   1.834   3.954  0.2414  0.1238 -0.1124
  533MOL0     C71863  11.976   1.877   3.989  1.0307 -0.1368 -0.0959
  533MOL0     C71864  12.077   1.814   3.884 -0.5028 -0.1992  0.5574
  533MOL0    Cl71865  12.227   1.904   3.884 -0.0472  0.4794  0.0179
  533MOL0     C71866  10.971   1.965   4.252  0.9764 -1.0690  0.6234
  533MOL0     C71867  10.835   2.003   4.276  0.3265  0.6524 -0.3814
  533MOL0     O71868  10.590   2.154   4.274 -0.0396 -0.1521  0.0072
  533MOL0     C71869  10.317   1.937   4.258  0.3507  0.8419 -0.2618
  533MOL0     C71870  10.181   1.913   4.290  0.3386  0.4393 -0.8426
  533MOL0     N71871   9.510   2.239   4.164 -0.2812  0.5429 -0.4719
  533MOL0     N71872   9.401   2.282   4.215 -0.0160 -0.4525 -0.7840
  533MOL0     C71873   8.544   2.915   4.686  0.4621 -0.1166 -0.8996
  533MOL0     C71874   8.499   3.044   4.712 -0.1429  0.4222  0.1404
  533MOL0     C71875   8.320   3.425   4.822 -0.4599  0.6410  0.7760
  533MOL0     C71876   8.190   3.422   4.870  0.0397 -0.3159 -0.0378
  533MOL0     C71877   8.116   3.535   4.885 -0.1006  0.3429  0.4449
  533MOL0     C71878   8.173   3.659   4.866 -0.6933 -0.2963 -0.1224
  533MOL0     O71879   8.121   3.784   4.893 -0.2630  0.5222 -0.1806
  533MOL0     C71880   7.976   3.795   4.890 -0.4559  0.3292  0.4600
  533MOL0     C71881   7.934   3.933   4.847  0.4564 -0.4271  0.8084
  533MOL0     C71882   7.777   3.932   4.837  0.1755  1.0165  0.7721
  533MOL0     C71883   7.744   4.060   4.758  0.5593  1.0223 -0.3484
  533MOL0     C71884   7.600   4.087   4.771 -0.1664  0.4317 -0.2568
  533MOL0     C71885   7.481   4.109   4.781  0.0195  0.2488 -0.1060
  533MOL0     C71886   8.303   3.665   4.823 -0.0134  0.0129  0.3210
  533MOL0     C71887   8.372   3.551   4.789 -0.1094 -0.1238  0.4756
  533MOL0     H71888   8.264   2.963   4.947  1.9903 -0.5337  1.6931
  533MOL0     H71889   8.368   2.749   4.901 -0.6878  1.0232  2.0186
  533MOL0     H71890   8.681   2.704   4.575  1.1916  1.8426  2.0480
  533MOL0     H71891   8.761   2.701   4.733 -0.6494  0.1481  1.7659
  533MOL0     H71892   8.725   2.474   4.754  0.1222 -0.5845  0.2188
  533MOL0     H71893   8.583   2.463   4.655 -0.3292  0.8919 -1.4996
  533MOL0     H71894   8.714   2.371   4.497 -1.6183  0.4700  0.9458
  533MOL0     H71895   8.792   2.534   4.464 -1.6368  1.2337  0.3852
  533MOL0     H71896   8.943   2.482   4.680  0.6917 -0.4451  1.4633
  533MOL0     H71897   8.879   2.328   4.680  0.8964 -1.0119 -1.0299
  533MOL0     H71898   8.960   2.310   4.429 -0.7647 -1.6068  0.3605
  533MOL0     H71899   9.053   2.463   4.472 -2.1624 -0.4172 -0.9614
  533MOL0     H71900   9.140   2.338   4.683 -4.5809 -1.5023  2.6494
  533MOL0     H71901   9.059   2.198   4.608 -2.6584  0.9126 -1.2028
  533MOL0     H71902   9.319   2.345   4.527  0.0145  1.3692  3.5441
  533MOL0     H71903   9.292   2.182   4.585 -0.4551 -0.5629 -0.2714
  533MOL0     H71904   9.169   2.283   4.324  0.5762  1.3260  0.9443
  533MOL0     H71905   9.178   2.112   4.384  2.3841 -0.9760 -2.7773
  533MOL0     H71906   9.443   2.012   4.405 -1.4647  1.1105  1.6056
  533MOL0     H71907   9.644   1.950   4.135  0.2316 -0.4136  0.3748
  533MOL0     H71908   9.733   2.102   4.133  1.3144 -0.3695  0.1344
  533MOL0     H71909   9.649   1.927   4.375  0.3129 -0.1922  1.0672
  533MOL0     H71910   9.743   2.071   4.385 -1.7419  0.8464 -0.8942
  533MOL0     H71911   9.907   1.926   4.212  1.2572  2.1366  1.9533
  533MOL0     H71912   9.807   1.789   4.252 -0.5656 -0.2219  2.0296
  533MOL0     H71913  10.005   1.777   4.405  2.1217  0.9411 -0.6505
  533MOL0     H71914   9.857   1.830   4.491 -1.5075 -0.6380 -1.6482
  533MOL0     H71915  10.146   2.162   4.512 -2.4062 -3.5183  1.2610
  533MOL0     H71916  10.465   2.179   4.577  0.2029  0.6959 -0.5054
  533MOL0     H71917  10.451   2.284   4.424  0.3226 -0.2363 -0.8738
  533MOL0     H71918  10.340   2.298   4.549  4.1414  0.2460  2.5190
  533MOL0     H71919  10.710   1.722   4.116 -0.5086 -0.3592  0.6077
  533MOL0     H71920  10.963   1.688   4.091  1.1566  1.4819 -0.1796
  533MOL0     H71921  11.244   1.988   4.135 -1.7424  0.4165  1.2531
  533MOL0     H71922  11.250   1.922   4.305 -0.2407  3.6696 -0.3191
  533MOL0     H71923  11.410   1.758   4.227  1.2824 -1.7950 -3.1388
  533MOL0     H71924  11.359   1.772   4.059  3.9639 -1.1400 -0.0759
  533MOL0     H71925  11.534   1.947   4.226 -2.1080  0.8190  0.1100
  533MOL0     H71926  11.463   2.018   4.081  1.0104 -1.1113 -3.7516
  533MOL0     H71927  11.581   1.763   4.013 -0.9845 -0.3469  1.1342
  533MOL0     H71928  11.567   1.905   3.918 -1.0554 -1.5280 -0.6457
  533MOL0     H71929  11.764   1.856   4.159  0.5739  2.8010  0.9362
  533MOL0     H71930  11.752   2.000   4.046 -0.5355  0.0954  3.7867
  533MOL0     H71931  11.823   1.726   3.951 -0.1643  0.1847 -2.1932
  533MOL0     H71932  11.822   1.863   3.849 -0.7730 -0.9593 -0.2892
  533MOL0     H71933  12.001   1.843   4.089  0.6046 -2.7509 -0.7980
  533MOL0     H71934  11.981   1.985   3.973 -2.2988  0.1768  0.3298
  533MOL0     H71935  12.039   1.817   3.781 -1.3630 -0.7710  0.8419
  533MOL0     H71936  12.102   1.709   3.901  0.7118 -0.2063 -1.0567
  533MOL0     H71937  11.036   2.044   4.289 -1.8341  2.3257 -1.0637
  533MOL0     H71938  10.805   2.093   4.328 -0.8591 -0.6810  1.3915
  533MOL0     H71939  10.362   1.857   4.198 -2.0413 -2.1958  1.6871
  533MOL0     H71940  10.146   1.819   4.249 -1.9443  0.5835  0.5581
  533MOL0     H71941   8.624   2.914   4.613  1.6414  0.7261  0.3337
  533MOL0     H71942   8.532   3.124   4.647 -1.9587 -0.0610 -1.4524
  533MOL0     H71943   8.140   3.329   4.895 -1.9941  0.8995  0.6273
  533MOL0     H71944   8.016   3.522   4.925 -0.3365  0.1882 -0.1719
  533MOL0     H71945   7.935   3.709   4.836  1.1203 -2.0080  2.7384
  533MOL0     H71946   7.935   3.769   4.988 -0.3064 -3.6603 -0.3510
  533MOL0     H71947   7.977   3.957   4.750 -0.1561 -1.6284  0.2176
  533MOL0     H71948   7.959   4.012   4.918  0.2950  1.4199 -1.0820
  533MOL0     H71949   7.731   3.926   4.936 -0.0156  1.5125  0.7143
  533MOL0     H71950   7.743   3.856   4.766  2.3758  1.0393 -0.4009
  533MOL0     H71951   7.763   4.050   4.650  2.8851  0.7762  0.0221
  533MOL0     H71952   7.806   4.146   4.781  0.8621  0.6749  0.1488
  533MOL0     H71953   7.376   4.129   4.784  0.3372  1.9510  1.2924
  533MOL0     H71954   8.330   3.767   4.797 -1.8558 -0.5027 -4.7558
  533MOL0     H71955   8.473   3.554   4.751  0.0174  1.6490  0.8936
  534MOL0     O71956   7.579   7.115   5.199 -0.4699  0.0906 -0.3514
  534MOL0     C71957   7.637   7.206   5.141  0.0540  0.1074 -0.0546
  534MOL0     O71958   7.595   7.339   5.129 -0.2986 -0.2474  0.6252
  534MOL0     C71959   7.465   7.355   5.153  0.8550  0.6863 -0.0688
  534MOL0     C71960   7.372   7.355   5.049 -0.4407 -0.5428  0.6078
  534MOL0     C71961   7.237   7.359   5.070  0.6423  0.1483  0.3604
  534MOL0     C71962   7.181   7.378   5.196  0.1934 -1.0566 -0.2421
  534MOL0     O71963   7.050   7.410   5.195  0.1258 -1.0632 -0.0476
  534MOL0     C71964   6.986   7.431   5.328 -0.0823  0.2705  0.2371
  534MOL0     C71965   6.962   7.297   5.409  0.7700 -0.0727 -1.6247
  534MOL0     C71966   6.928   7.337   5.548  0.0586  0.3825 -0.3816
  534MOL0     C71967   6.880   7.207   5.635 -0.1097 -0.8877  1.0500
  534MOL0     C71968   6.879   7.242   5.778  0.3608  0.1109  0.2926
  534MOL0     C71969   6.747   7.283   5.848 -0.4714 -1.0976 -0.4619
  534MOL0     C71970   6.760   7.283   6.004  0.3220  0.0859 -1.0935
  534MOL0     C71971   6.628   7.321   6.073 -0.8432  0.6922 -0.3359
  534MOL0     N71972   6.533   7.207   6.069 -0.0010 -0.0826  0.1457
  534MOL0     C71973   6.540   7.075   6.107  0.6624  0.4765 -1.2837
  534MOL0     C71974   6.406   7.038   6.105 -1.1215  0.2758  0.3422
  534MOL0     C71975   6.351   6.902   6.125  0.8702  0.4267 -0.4864
  534MOL0     C71976   6.327   6.877   6.278 -0.1036 -0.0442  0.0648
  534MOL0     C71977   6.247   6.985   6.352 -0.1133 -1.7179  0.0853
  534MOL0     C71978   6.236   6.954   6.504 -0.6742  0.0935  0.1082
  534MOL0     O71979   6.197   6.817   6.526  0.0629  0.4609 -0.6481
  534MOL0     C71980   6.064   6.814   6.538  0.6236  0.1357 -1.3406
  534MOL0     C71981   5.997   6.808   6.658 -0.3725 -0.4472 -0.8199
  534MOL0     C71982   5.849   6.794   6.681 -0.5466  0.1436 -0.6182
  534MOL0     C71983   5.795   6.781   6.827 -0.8566  0.2498 -0.3441
  534MOL0     C71984   5.780   6.772   6.559 -0.2179  0.2082  0.2549
  534MOL0     C71985   5.635   6.742   6.563  0.1742  0.0987 -0.9786
  534MOL0     O71986   5.555   6.806   6.648 -0.5254  0.1250  0.1382
  534MOL0     C71987   5.425   6.782   6.663  0.2502  0.5640 -0.0157
  534MOL0     C71988   5.329   6.760   6.563 -0.4043  0.1232 -0.3017
  534MOL0     C71989   5.205   6.702   6.582 -0.4409  0.3569 -0.2023
  534MOL0     C71990   5.170   6.663   6.713  0.4564 -0.4018 -0.3681
  534MOL0     O71991   5.051   6.600   6.722 -0.7403 -0.4923 -0.1888
  534MOL0     C71992   5.004   6.529   6.841  0.3530  0.4893  0.7728
  534MOL0     C71993   4.923   6.629   6.926 -0.5619 -0.0549 -0.1138
  534MOL0     C71994   4.784   6.649   6.870 -0.5562  1.3347  0.3795
  534MOL0     C71995   4.716   6.757   6.956 -0.4947 -0.0044 -0.7924
  534MOL0     C71996   4.603   6.829   6.883  0.1562 -0.6101  0.5670
  534MOL0     C71997   4.495   6.734   6.841 -0.0906  0.5337 -0.0079
  534MOL0     C71998   4.382   6.819   6.781  0.5368 -0.4403  0.3002
  534MOL0     C71999   4.277   6.723   6.733 -0.4234  0.7024  0.0029
  534MOL0    Cl72000   4.178   6.695   6.880 -0.3928  0.3094  0.1107
  534MOL0     C72001   5.262   6.684   6.821  0.4992  0.0880  0.8776
  534MOL0     C72002   5.386   6.748   6.794 -0.1206  0.4991 -0.2158
  534MOL0     O72003   5.604   6.654   6.487 -0.3487  0.1344 -0.3956
  534MOL0     C72004   5.846   6.791   6.433  0.8978  0.0978  0.3753
  534MOL0     C72005   5.984   6.807   6.425  1.1735 -0.8398 -0.2324
  534MOL0     N72006   6.327   7.146   6.065  0.2181  0.6807 -0.6483
  534MOL0     N72007   6.402   7.248   6.046 -0.1112 -0.3510  0.8506
  534MOL0     C72008   7.272   7.392   5.303  0.5378 -0.6356  0.6021
  534MOL0     C72009   7.409   7.373   5.283 -0.1363 -1.4862 -0.1176
  534MOL0     C72010   7.780   7.189   5.088  0.8426 -0.5915 -0.0364
  534MOL0     C72011   7.855   7.078   5.118  0.3926  0.5289  0.4024
  534MOL0     C72012   7.973   7.055   5.053  0.2515 -0.2091  0.7595
  534MOL0     C72013   8.021   7.146   4.958 -0.8079  0.4409 -0.0216
  534MOL0     O72014   8.138   7.130   4.884 -0.3276  0.1205  0.2825
  534MOL0     C72015   8.260   7.162   4.951 -0.7454 -0.5007  0.5209
  534MOL0     C72016   8.348   7.035   4.974  0.6100  0.2133 -1.0618
  534MOL0     C72017   8.355   6.942   4.857 -0.1949  0.1292  0.4088
  534MOL0     C72018   8.414   7.022   4.731  0.2509  0.7554 -0.8681
  534MOL0     C72019   8.549   7.084   4.737  0.5676  0.5611 -0.5407
  534MOL0     C72020   8.664   7.117   4.748  0.4907 -1.1056 -0.3796
  534MOL0     C72021   7.945   7.263   4.927 -0.0528  1.0462 -0.0770
  534MOL0     C72022   7.823   7.286   4.991 -0.2628  0.7485  0.4434
  534MOL0     H72023   7.409   7.345   4.948 -2.0109 -1.7457  0.1206
  534MOL0     H72024   7.163   7.353   4.991  1.9876  1.2852 -1.0455
  534MOL0     H72025   7.046   7.504   5.383  1.5324  0.4617 -1.6993
  534MOL0     H72026   6.895   7.489   5.311 -0.0798  0.2759  0.2419
  534MOL0     H72027   6.874   7.242   5.376 -1.4023 -0.0016  3.2203
  534MOL0     H72028   7.051   7.233   5.405  1.6210  0.7918  1.3116
  534MOL0     H72029   7.013   7.393   5.587  1.2418  0.0837 -2.3686
  534MOL0     H72030   6.842   7.404   5.541 -0.0973  1.0318  4.6109
  534MOL0     H72031   6.779   7.178   5.606  0.5238 -0.8023 -1.5286
  534MOL0     H72032   6.957   7.130   5.625  0.7864  0.2562 -2.2832
  534MOL0     H72033   6.914   7.151   5.828  1.8018 -1.5314 -3.3540
  534MOL0     H72034   6.954   7.320   5.798 -2.0270  2.9774 -1.1012
  534MOL0     H72035   6.717   7.385   5.822  0.2324 -1.5522 -3.5176
  534MOL0     H72036   6.660   7.225   5.816 -1.5430 -0.5215  1.3004
  534MOL0     H72037   6.802   7.188   6.038  0.9236  0.8859  0.5281
  534MOL0     H72038   6.835   7.358   6.029  2.2707 -1.0335 -3.2296
  534MOL0     H72039   6.581   7.408   6.028 -1.5922  0.7464  0.5266
  534MOL0     H72040   6.656   7.335   6.178  1.5008  0.5352 -0.8730
  534MOL0     H72041   6.621   7.006   6.128 -0.6049 -0.7151 -0.0763
  534MOL0     H72042   6.257   6.891   6.069 -0.9094 -0.8420  2.4743
  534MOL0     H72043   6.418   6.827   6.081  1.3610 -0.3234  1.4075
  534MOL0     H72044   6.426   6.874   6.325 -0.8492 -0.9667  1.6665
  534MOL0     H72045   6.288   6.776   6.293  2.0045 -0.6663  1.8653
  534MOL0     H72046   6.150   7.006   6.307 -0.1739 -1.1054  0.4840
  534MOL0     H72047   6.307   7.076   6.349 -0.7278 -1.3324 -1.0076
  534MOL0     H72048   6.174   7.025   6.560  0.0088  1.9472 -1.3902
  534MOL0     H72049   6.334   6.965   6.550 -0.8018  0.0934  0.3842
  534MOL0     H72050   6.066   6.810   6.741 -1.6815  2.3672  0.3379
  534MOL0     H72051   5.721   6.701   6.841  0.9378 -2.0554 -3.0244
  534MOL0     H72052   5.883   6.770   6.890  0.0893 -1.4455 -1.8732
  534MOL0     H72053   5.744   6.876   6.846 -0.5045  0.3812 -0.0487
  534MOL0     H72054   5.374   6.788   6.468  2.1671 -1.6897  0.2690
  534MOL0     H72055   5.131   6.690   6.503 -3.2775  1.3393  2.1508
  534MOL0     H72056   4.936   6.451   6.805  0.5514  0.9891 -0.7718
  534MOL0     H72057   5.084   6.487   6.902  0.4506 -0.4432  0.0250
  534MOL0     H72058   4.917   6.593   7.028  3.1551 -1.6744 -0.2909
  534MOL0     H72059   4.979   6.722   6.939 -0.2033 -0.2234 -0.4117
  534MOL0     H72060   4.734   6.552   6.876  0.1366  0.6807 -2.7387
  534MOL0     H72061   4.797   6.666   6.763  2.3013  0.2750  0.4794
  534MOL0     H72062   4.674   6.714   7.047  0.4611 -1.3353 -0.9500
  534MOL0     H72063   4.789   6.834   6.984  0.1210 -1.4946  2.0088
  534MOL0     H72064   4.636   6.880   6.792  0.3561  2.1761  2.0896
  534MOL0     H72065   4.556   6.912   6.936  1.1170  2.2356 -2.6536
  534MOL0     H72066   4.527   6.660   6.767 -2.0246 -1.2150  0.7982
  534MOL0     H72067   4.455   6.678   6.926  0.2114  1.5587  0.8194
  534MOL0     H72068   4.415   6.876   6.694  0.5856  0.9308  1.1851
  534MOL0     H72069   4.332   6.883   6.855  0.2881  1.2173 -1.2453
  534MOL0     H72070   4.305   6.624   6.698 -0.3537  0.2340  1.3421
  534MOL0     H72071   4.218   6.762   6.649 -1.9962 -1.6245 -0.0449
  534MOL0     H72072   5.247   6.662   6.926  3.3575  2.6368  1.9977
  534MOL0     H72073   5.460   6.771   6.870  0.1775 -0.3404 -0.2387
  534MOL0     H72074   5.785   6.777   6.344 -1.7942  0.4832  2.0477
  534MOL0     H72075   6.032   6.822   6.329 -0.2510  2.3999 -0.5632
  534MOL0     H72076   7.248   7.415   5.406  0.3831 -1.2044  0.6975
  534MOL0     H72077   7.484   7.376   5.361  0.0917  1.5732 -0.3271
  534MOL0     H72078   7.812   6.998   5.178 -0.4932  0.3879 -0.4081
  534MOL0     H72079   8.024   6.960   5.056  0.7426 -0.2217 -3.1505
  534MOL0     H72080   8.320   7.228   4.888 -0.2029 -1.1818  0.3113
  534MOL0     H72081   8.240   7.215   5.044 -3.9126  1.5545 -1.1458
  534MOL0     H72082   8.304   6.972   5.052  0.8214  0.8738 -0.3888
  534MOL0     H72083   8.443   7.072   5.016  0.3315  0.6809 -0.8359
  534MOL0     H72084   8.252   6.914   4.833  0.4758 -0.3684 -2.1831
  534MOL0     H72085   8.412   6.851   4.878  1.6293  1.2987  0.8478
  534MOL0     H72086   8.336   7.096   4.712 -2.6349 -0.9262  3.0534
  534MOL0     H72087   8.430   6.944   4.656  3.0409  0.8483 -0.4722
  534MOL0     H72088   8.760   7.159   4.774 -0.6824  0.0276  2.5387
  534MOL0     H72089   7.992   7.333   4.858 -0.2660  3.2085  1.8365
  534MOL0     H72090   7.762   7.369   4.958 -0.5128 -0.0621 -1.2460
  535MOL0     O72091   1.262   8.760   7.491 -0.6114  0.5825  0.0098
  535MOL0     C72092   1.298   8.644   7.520 -0.0702 -0.8005  0.5045
  535MOL0     O72093   1.228   8.560   7.600  0.2482 -0.1686 -0.2271
  535MOL0     C72094   1.105   8.609   7.648  0.1147 -0.9436  0.4570
  535MOL0     C72095   0.982   8.581   7.596  0.2610 -0.4958  0.1122
  535MOL0     C72096   0.861   8.643   7.644 -0.7760 -0.4679  0.4075
  535MOL0     C72097   0.871   8.742   7.735  0.2236  0.0709  0.1792
  535MOL0     O72098   0.761   8.803   7.777  0.5199  0.3501  0.2833
  535MOL0     C72099   0.626   8.757   7.742 -0.3744 -0.4913 -0.8084
  535MOL0     C72100   0.545   8.878   7.789  0.5401 -0.3537  0.6126
  535MOL0     C72101   0.392   8.847   7.753  0.4557 -0.4440  0.2199
  535MOL0     C72102   0.313   8.975   7.769  0.8157 -0.4064  1.0288
  535MOL0     C72103   0.167   8.933   7.766  0.0611  1.0087  0.1292
  535MOL0     C72104   0.054   9.030   7.795 -0.1802 -0.5496 -0.6402
  535MOL0     C72105   0.041   9.065   7.941  0.9694  0.2748 -1.0185
  535MOL0     C72106  -0.010   8.943   8.031 -0.2619  0.5376 -0.5699
  535MOL0     N72107  -0.124   8.874   7.974 -0.1667 -0.2277  0.7967
  535MOL0     C72108  -0.257   8.915   7.967  1.2431  0.0171 -0.0092
  535MOL0     C72109  -0.306   8.843   7.872  0.2181  0.1686  0.5808
  535MOL0     C72110  -0.439   8.862   7.812  0.1777  0.4288  0.0487
  535MOL0     C72111  -0.444   8.988   7.723  0.5674  0.1957  0.3538
  535MOL0     C72112  -0.587   9.030   7.671 -0.5843  0.0212  0.0835
  535MOL0     C72113  -0.658   8.916   7.592  0.6406 -0.1307  0.6087
  535MOL0     O72114  -0.790   8.966   7.544 -0.2322  0.4781  0.4172
  535MOL0     C72115  -0.892   8.969   7.634  0.3617  0.0811  0.0093
  535MOL0     C72116  -0.998   9.048   7.595 -0.2432 -0.2635 -0.0817
  535MOL0     C72117  -1.102   9.082   7.680  0.4754 -0.2892 -1.0513
  535MOL0     C72118  -1.216   9.147   7.614  0.6351 -0.6395  0.1945
  535MOL0     C72119  -1.104   9.031   7.815 -0.2535  0.3520 -0.0113
  535MOL0     C72120  -1.201   9.064   7.926  0.2901  0.1945 -0.4567
  535MOL0     O72121  -1.166   9.045   8.051  0.1324 -0.3803  0.5702
  535MOL0     C72122  -1.247   9.082   8.158 -0.3388  0.0507  0.1343
  535MOL0     C72123  -1.185   9.151   8.256 -0.5149 -0.1239 -0.2478
  535MOL0     C72124  -1.260   9.189   8.367 -0.1971 -0.4066  0.4888
  535MOL0     C72125  -1.385   9.150   8.393  0.1263  1.0362 -0.8194
  535MOL0     O72126  -1.458   9.185   8.498  0.8348 -0.4111 -0.5937
  535MOL0     C72127  -1.408   9.251   8.615 -0.5450 -0.8117 -0.3859
  535MOL0     C72128  -1.331   9.148   8.706 -0.1152 -0.0052  0.0187
  535MOL0     C72129  -1.417   9.043   8.758 -0.0748  0.2239 -0.1301
  535MOL0     C72130  -1.332   8.934   8.826  0.3406  0.0875  0.5445
  535MOL0     C72131  -1.426   8.819   8.884  0.0807  0.4182  0.8879
  535MOL0     C72132  -1.333   8.707   8.929  0.4975  0.7609 -0.7398
  535MOL0     C72133  -1.406   8.569   8.960 -1.0044  0.0787  0.1061
  535MOL0     C72134  -1.307   8.467   9.032 -0.2893 -0.3488 -0.4512
  535MOL0    Cl72135  -1.208   8.404   8.906  0.1152  0.0795 -0.6712
  535MOL0     C72136  -1.448   9.076   8.300 -0.0304 -0.3619  0.0011
  535MOL0     C72137  -1.383   9.042   8.181 -0.0147  0.4037 -0.7364
  535MOL0     O72138  -1.313   9.099   7.886  0.5767 -0.3807  0.5682
  535MOL0     C72139  -1.001   8.951   7.848  0.2493  0.0151 -0.1983
  535MOL0     C72140  -0.890   8.917   7.759  1.1431  1.2222  0.6841
  535MOL0     N72141  -0.208   8.757   7.821 -0.4791 -0.5823  0.2569
  535MOL0     N72142  -0.098   8.775   7.883  0.0068 -0.2121 -0.0390
  535MOL0     C72143   0.993   8.770   7.799  0.2353  0.6007 -0.8260
  535MOL0     C72144   1.112   8.707   7.755  0.1765 -0.0444  0.0602
  535MOL0     C72145   1.414   8.585   7.455  0.4361 -0.5444  0.1287
  535MOL0     C72146   1.520   8.680   7.423  0.2172  0.5754  0.6319
  535MOL0     C72147   1.629   8.621   7.352  0.3053 -0.4076 -0.1968
  535MOL0     C72148   1.625   8.484   7.322 -1.1051 -0.3402 -0.4576
  535MOL0     O72149   1.720   8.417   7.252  0.4129  0.2159  0.4692
  535MOL0     C72150   1.843   8.482   7.213 -0.5493 -0.2631 -0.0515
  535MOL0     C72151   1.954   8.374   7.217 -0.2561  0.1940  0.2876
  535MOL0     C72152   2.069   8.418   7.132  0.5770  0.4111 -0.4652
  535MOL0     C72153   2.183   8.330   7.158  0.6175 -0.1690  0.1641
  535MOL0     C72154   2.173   8.193   7.097  1.0296  0.2656  0.0467
  535MOL0     C72155   2.163   8.079   7.050 -0.5935 -0.4114 -0.1515
  535MOL0     C72156   1.513   8.401   7.347 -0.1646  0.0985  0.1449
  535MOL0     C72157   1.406   8.452   7.412  0.1330  0.2589 -0.9386
  535MOL0     H72158   0.971   8.517   7.509  1.4034 -1.2398  0.5019
  535MOL0     H72159   0.770   8.611   7.594  0.4883 -0.2957 -2.1605
  535MOL0     H72160   0.604   8.740   7.636 -2.0477  2.7636 -1.1133
  535MOL0     H72161   0.603   8.672   7.806  1.7825  0.6510  1.7023
  535MOL0     H72162   0.559   8.893   7.896  1.9859 -0.2082  0.4218
  535MOL0     H72163   0.574   8.976   7.750  0.6423  0.2316  2.1195
  535MOL0     H72164   0.369   8.809   7.653 -0.7772  0.7878  0.0172
  535MOL0     H72165   0.358   8.777   7.830 -1.0519 -1.0791 -0.9549
  535MOL0     H72166   0.326   9.022   7.867 -3.6182  1.8161  0.7742
  535MOL0     H72167   0.341   9.053   7.698  1.7171 -0.7854  0.9493
  535MOL0     H72168   0.144   8.887   7.669  0.9225 -0.6287  0.6487
  535MOL0     H72169   0.156   8.846   7.832  0.4397 -0.3210 -1.4865
  535MOL0     H72170   0.066   9.122   7.737  0.7872  0.8232  1.6099
  535MOL0     H72171  -0.045   9.003   7.758 -1.8492  1.9179  1.6331
  535MOL0     H72172   0.127   9.117   7.984  0.2308 -0.0449  0.9470
  535MOL0     H72173  -0.041   9.138   7.941  1.3050  0.6591 -0.3237
  535MOL0     H72174  -0.034   8.966   8.135 -1.0456 -0.2885 -0.5646
  535MOL0     H72175   0.064   8.863   8.040 -1.0983 -0.3388 -1.2913
  535MOL0     H72176  -0.305   8.978   8.042  1.3801  0.8395 -0.6008
  535MOL0     H72177  -0.473   8.774   7.757 -0.5966  0.0470  1.1135
  535MOL0     H72178  -0.505   8.883   7.897  1.8788  2.2958  0.9915
  535MOL0     H72179  -0.371   8.977   7.643  0.1453 -0.1411  0.0118
  535MOL0     H72180  -0.411   9.068   7.790  1.6117 -1.2982  1.7058
  535MOL0     H72181  -0.580   9.128   7.622 -0.7988  0.8218  1.5860
  535MOL0     H72182  -0.649   9.039   7.760  1.4234 -0.9071  1.6499
  535MOL0     H72183  -0.665   8.822   7.648 -0.3549  1.3476  3.0720
  535MOL0     H72184  -0.590   8.901   7.507  0.2670 -0.0862  0.2983
  535MOL0     H72185  -1.000   9.086   7.493 -2.3698 -2.4157 -0.9434
  535MOL0     H72186  -1.246   9.234   7.674  0.2792 -1.2998  0.9937
  535MOL0     H72187  -1.186   9.180   7.514  2.7907  0.4233  1.1161
  535MOL0     H72188  -1.308   9.090   7.600 -1.8213  2.2809  2.8275
  535MOL0     H72189  -1.084   9.185   8.234 -0.1046  0.6233  2.5043
  535MOL0     H72190  -1.212   9.234   8.453  0.4395 -0.4451  0.1660
  535MOL0     H72191  -1.348   9.341   8.603  0.0954 -1.2109 -0.2733
  535MOL0     H72192  -1.496   9.284   8.671  0.9772  1.6778  0.6943
  535MOL0     H72193  -1.250   9.110   8.643  0.4844 -0.0547  0.8069
  535MOL0     H72194  -1.284   9.195   8.793 -1.6955  1.2207  0.2562
  535MOL0     H72195  -1.477   9.001   8.676 -0.3381 -1.0347  0.6814
  535MOL0     H72196  -1.486   9.082   8.833  0.3521  0.0695  0.3450
  535MOL0     H72197  -1.255   8.905   8.753  0.9636 -1.4482  1.7404
  535MOL0     H72198  -1.284   8.977   8.914  0.0762  1.5717 -0.0086
  535MOL0     H72199  -1.495   8.779   8.809  0.7602  0.2243  0.3510
  535MOL0     H72200  -1.473   8.865   8.971  1.1154  1.2522  1.0286
  535MOL0     H72201  -1.262   8.681   8.850  1.1990  0.6736 -0.0974
  535MOL0     H72202  -1.284   8.747   9.019  1.6127 -2.8540  0.4217
  535MOL0     H72203  -1.448   8.521   8.871 -0.3811  2.7796 -1.7919
  535MOL0     H72204  -1.492   8.593   9.023 -1.8799  1.8730 -1.6326
  535MOL0     H72205  -1.359   8.385   9.082  0.6454 -1.9451 -2.0055
  535MOL0     H72206  -1.236   8.516   9.099  1.9667 -2.7744 -0.9236
  535MOL0     H72207  -1.549   9.047   8.324 -1.6279  2.3527 -2.7118
  535MOL0     H72208  -1.436   8.976   8.113 -2.1648  0.6051  0.6251
  535MOL0     H72209  -0.985   8.931   7.954  2.7399  0.3734 -0.4335
  535MOL0     H72210  -0.812   8.853   7.798  0.0285 -1.8689 -1.7748
  535MOL0     H72211   1.007   8.844   7.878  2.2154 -1.1560  0.5503
  535MOL0     H72212   1.211   8.733   7.792  0.2197  0.8957 -0.6583
  535MOL0     H72213   1.508   8.784   7.448 -1.5483  1.1010 -1.9234
  535MOL0     H72214   1.706   8.688   7.316  0.1648 -0.3807 -0.4428
  535MOL0     H72215   1.841   8.523   7.111  2.2821  0.9254  0.2850
  535MOL0     H72216   1.885   8.560   7.277  0.2932 -1.4471  0.8686
  535MOL0     H72217   1.913   8.277   7.187  0.3804  0.2532 -0.8399
  535MOL0     H72218   1.977   8.363   7.323 -4.0419 -3.0348  1.0008
  535MOL0     H72219   2.110   8.517   7.152  2.2429  0.0530 -1.8265
  535MOL0     H72220   2.036   8.420   7.028 -4.0111 -1.2401  0.7145
  535MOL0     H72221   2.209   8.324   7.264  0.5956  2.0112  0.3190
  535MOL0     H72222   2.266   8.368   7.098  0.7382  0.3669  0.6675
  535MOL0     H72223   2.157   7.980   7.010  4.3108 -2.1314  2.4969
  535MOL0     H72224   1.514   8.295   7.324  0.2774  0.0546  0.3649
  535MOL0     H72225   1.317   8.394   7.436  0.1990  0.6850  0.4177
  536MOL0     O72226  11.065   7.884   1.834  0.2516  0.0053 -0.0133
  536MOL0     C72227  11.061   8.000   1.871  0.6281  0.3809  0.5077
  536MOL0     O72228  11.028   8.119   1.796 -0.4369  0.6974 -0.2484
  536MOL0     C72229  10.952   8.118   1.681  0.0221 -0.2331  0.0181
  536MOL0     C72230  10.973   8.216   1.589 -0.4197 -0.2391 -0.3470
  536MOL0     C72231  10.905   8.230   1.475  0.0719  0.5623 -0.0672
  536MOL0     C72232  10.806   8.131   1.453 -0.3914 -1.0163 -0.6367
  536MOL0     O72233  10.740   8.142   1.334  0.4290  0.1841 -0.5254
  536MOL0     C72234  10.629   8.054   1.324 -0.6144  0.0645 -0.0579
  536MOL0     C72235  10.539   8.085   1.203  0.0795 -0.2295  0.0705
  536MOL0     C72236  10.625   8.070   1.074  0.4029 -0.2877 -0.5134
  536MOL0     C72237  10.575   8.169   0.959 -0.3534 -0.2486 -0.5036
  536MOL0     C72238  10.423   8.147   0.915  0.1936 -0.5509 -0.2834
  536MOL0     C72239  10.401   8.244   0.806  0.8874 -0.3494 -0.2055
  536MOL0     C72240  10.249   8.264   0.781 -0.1076  0.0374  0.3431
  536MOL0     C72241  10.212   8.357   0.654  0.0557  0.0957 -0.9128
  536MOL0     N72242  10.070   8.379   0.607  0.0159 -0.4250  0.1186
  536MOL0     C72243   9.966   8.298   0.645  0.6958 -0.0390 -0.1757
  536MOL0     C72244   9.859   8.336   0.579  0.2936 -1.0182  0.4191
  536MOL0     C72245   9.726   8.269   0.590 -1.2425 -0.0892  0.3480
  536MOL0     C72246   9.636   8.340   0.688 -0.2863  0.1907 -0.5498
  536MOL0     C72247   9.501   8.274   0.715 -0.6878 -0.5938  0.5624
  536MOL0     C72248   9.427   8.241   0.590 -0.3351  0.0692  0.8482
  536MOL0     O72249   9.309   8.164   0.617  0.2245  0.1106  0.1060
  536MOL0     C72250   9.193   8.234   0.656 -0.7685  0.0225 -0.0593
  536MOL0     C72251   9.155   8.373   0.639  0.0146  0.7718 -0.7247
  536MOL0     C72252   9.046   8.433   0.684  0.1212  0.2140 -1.2654
  536MOL0     C72253   9.024   8.585   0.669  0.6118  1.1559 -0.3388
  536MOL0     C72254   8.950   8.359   0.748 -0.4684 -1.0088 -0.6439
  536MOL0     C72255   8.825   8.413   0.796  0.0658  0.0364  0.2565
  536MOL0     O72256   8.720   8.328   0.781  0.3418 -0.8274  1.0095
  536MOL0     C72257   8.604   8.334   0.854  0.3630  0.0023  0.7110
  536MOL0     C72258   8.552   8.223   0.918  0.3528 -0.0884  0.1957
  536MOL0     C72259   8.436   8.238   0.991  1.0880 -0.6962  0.6599
  536MOL0     C72260   8.355   8.349   0.996 -0.4507 -0.0466 -0.0631
  536MOL0     O72261   8.235   8.340   1.061 -0.8864  1.1075 -0.6774
  536MOL0     C72262   8.167   8.457   1.102 -0.2494  0.2321 -0.1092
  536MOL0     C72263   8.043   8.414   1.175 -0.1668  0.2243  0.2128
  536MOL0     C72264   7.956   8.528   1.213  0.7032  0.1522  0.0511
  536MOL0     C72265   7.825   8.475   1.286  0.2683 -0.4029  0.3173
  536MOL0     C72266   7.736   8.592   1.337  0.5550  1.4196  0.2390
  536MOL0     C72267   7.680   8.671   1.216  0.0962  0.2685 -0.0670
  536MOL0     C72268   7.598   8.792   1.256 -0.9438  0.2928  0.6513
  536MOL0     C72269   7.497   8.813   1.150  0.0291 -0.1116 -0.6726
  536MOL0    Cl72270   7.437   8.981   1.175  0.2813 -0.1943  0.6187
  536MOL0     C72271   8.409   8.461   0.938 -0.3808 -1.2239 -0.7120
  536MOL0     C72272   8.533   8.460   0.859 -0.4809  0.0898 -0.6128
  536MOL0     O72273   8.818   8.520   0.854  0.4837  0.0539  0.4276
  536MOL0     C72274   8.975   8.220   0.756  0.1523 -0.0526  0.6435
  536MOL0     C72275   9.089   8.159   0.712  0.3750 -0.1106 -0.6874
  536MOL0     N72276   9.906   8.434   0.491  0.2108 -0.1856 -0.3848
  536MOL0     N72277  10.032   8.459   0.503  0.6103  1.0636  0.6241
  536MOL0     C72278  10.783   8.028   1.548  0.1650 -0.3826  0.9994
  536MOL0     C72279  10.853   8.024   1.664 -0.0174  0.5672  0.5142
  536MOL0     C72280  11.105   8.026   2.009 -0.3275 -0.1299  0.7907
  536MOL0     C72281  11.121   8.155   2.061 -0.1690  0.2279 -1.8190
  536MOL0     C72282  11.128   8.184   2.205 -0.6395 -0.0750 -0.1470
  536MOL0     C72283  11.132   8.082   2.298  0.2329  0.5919  1.0224
  536MOL0     O72284  11.117   8.087   2.431  0.2818 -0.1041 -0.9203
  536MOL0     C72285  11.059   8.207   2.476  0.0926  0.8478 -0.1163
  536MOL0     C72286  11.000   8.187   2.626 -0.4217  0.1825 -0.0385
  536MOL0     C72287  10.978   8.326   2.691  0.7406  0.5632 -0.2694
  536MOL0     C72288  10.905   8.326   2.826 -0.3550  0.1914 -0.3105
  536MOL0     C72289  10.766   8.287   2.823  0.1645  0.6080 -0.0706
  536MOL0     C72290  10.646   8.263   2.799 -0.2794 -0.1398 -0.6855
  536MOL0     C72291  11.135   7.951   2.246 -0.1128  0.4841  0.6428
  536MOL0     C72292  11.121   7.926   2.110 -0.5725 -0.4697 -0.0188
  536MOL0     H72293  11.046   8.294   1.609 -2.0406  1.3124 -0.1914
  536MOL0     H72294  10.936   8.314   1.413  2.0403  0.4060  0.6359
  536MOL0     H72295  10.667   7.952   1.317  0.7503  0.6650 -4.3104
  536MOL0     H72296  10.568   8.064   1.414 -1.2097 -1.3199 -0.2834
  536MOL0     H72297  10.449   8.024   1.204 -0.1533  0.0849  1.5067
  536MOL0     H72298  10.514   8.191   1.215  3.0367  0.6207 -0.2206
  536MOL0     H72299  10.731   8.087   1.090  0.0585  2.5616 -0.7005
  536MOL0     H72300  10.598   7.973   1.029 -2.0391  0.4196 -0.7188
  536MOL0     H72301  10.595   8.273   0.986 -1.1141 -0.2007 -0.1195
  536MOL0     H72302  10.636   8.159   0.868 -0.0927  2.6569 -0.7282
  536MOL0     H72303  10.396   8.044   0.889  1.8225 -0.9751 -0.4020
  536MOL0     H72304  10.352   8.168   0.995 -1.4492 -1.4414 -1.4309
  536MOL0     H72305  10.439   8.340   0.842 -0.1322 -0.2026  0.5239
  536MOL0     H72306  10.450   8.217   0.712  0.2171  1.1029 -1.0179
  536MOL0     H72307  10.217   8.161   0.760 -0.8053 -0.0778  1.8897
  536MOL0     H72308  10.200   8.310   0.867 -1.1334  1.9428 -1.1757
  536MOL0     H72309  10.254   8.307   0.566  0.1477 -3.8606  1.1419
  536MOL0     H72310  10.260   8.455   0.667  0.0822  0.2036 -1.7456
  536MOL0     H72311   9.964   8.221   0.721 -0.1076 -2.1486 -2.2086
  536MOL0     H72312   9.691   8.257   0.488  0.7836  0.5198 -0.4696
  536MOL0     H72313   9.733   8.167   0.630  1.5239 -0.4830 -0.9023
  536MOL0     H72314   9.632   8.442   0.647 -0.9519  0.5707  0.4272
  536MOL0     H72315   9.687   8.338   0.785 -2.8208 -2.7197  0.8829
  536MOL0     H72316   9.444   8.328   0.791  0.2670 -2.0254  2.4043
  536MOL0     H72317   9.510   8.179   0.768  2.1232 -0.7889 -0.1104
  536MOL0     H72318   9.488   8.174   0.528  0.7555  0.4183  1.5156
  536MOL0     H72319   9.398   8.331   0.534  1.1673 -0.4470 -0.8693
  536MOL0     H72320   9.212   8.436   0.571  0.9056  0.7333 -0.0260
  536MOL0     H72321   9.102   8.633   0.609 -0.0595 -1.1083 -3.2894
  536MOL0     H72322   8.937   8.590   0.602  1.2147  0.5402 -1.1997
  536MOL0     H72323   9.000   8.639   0.761 -2.0042 -3.0525  1.7517
  536MOL0     H72324   8.605   8.129   0.907  1.3475  0.7024 -2.2754
  536MOL0     H72325   8.395   8.157   1.050 -0.7145 -1.4751 -1.5026
  536MOL0     H72326   8.229   8.517   1.169  1.8713 -1.8802 -0.0138
  536MOL0     H72327   8.130   8.509   1.013  0.6870  1.5055  0.2214
  536MOL0     H72328   7.985   8.349   1.109  1.4495  1.8590 -2.9986
  536MOL0     H72329   8.056   8.366   1.273  0.6057 -1.0467 -0.4902
  536MOL0     H72330   7.926   8.565   1.114 -2.0040 -4.3227 -1.0722
  536MOL0     H72331   8.016   8.601   1.268  4.3754 -2.7374  0.2405
  536MOL0     H72332   7.779   8.414   1.208  4.6064 -0.2863 -2.6745
  536MOL0     H72333   7.851   8.430   1.383  1.3610  1.0980  0.7663
  536MOL0     H72334   7.797   8.652   1.405  0.1651  2.4388 -0.2910
  536MOL0     H72335   7.653   8.554   1.398  1.4922  0.5072  0.9864
  536MOL0     H72336   7.770   8.715   1.172  1.0481  0.7475  2.2128
  536MOL0     H72337   7.626   8.616   1.138 -0.4290  1.7973 -0.8308
  536MOL0     H72338   7.656   8.885   1.251 -0.9333  0.2597  0.1427
  536MOL0     H72339   7.567   8.771   1.359 -0.2821 -2.3406  0.3880
  536MOL0     H72340   7.408   8.750   1.156 -1.3143  1.7961  1.3080
  536MOL0     H72341   7.541   8.805   1.051  0.5695 -2.5411 -0.3067
  536MOL0     H72342   8.353   8.553   0.951  0.5728 -0.5688 -1.1219
  536MOL0     H72343   8.580   8.548   0.816  1.1607  0.0733  1.0056
  536MOL0     H72344   8.889   8.163   0.791 -1.4490  0.8904 -1.4973
  536MOL0     H72345   9.109   8.054   0.729  1.1810  0.0319 -0.6829
  536MOL0     H72346  10.717   7.947   1.521 -0.4028  1.2791 -3.5391
  536MOL0     H72347  10.842   7.938   1.729 -0.3614 -0.0739 -0.3606
  536MOL0     H72348  11.100   8.235   1.991 -0.6874  0.9360 -0.8971
  536MOL0     H72349  11.143   8.282   2.249  3.3994 -1.0170  1.0483
  536MOL0     H72350  11.140   8.278   2.492  0.3205  0.8502 -1.2484
  536MOL0     H72351  10.983   8.243   2.406 -0.3925  0.9700  0.4602
  536MOL0     H72352  11.068   8.137   2.695  1.6023 -1.3075 -2.9425
  536MOL0     H72353  10.912   8.122   2.627  0.1224 -0.8925 -3.9859
  536MOL0     H72354  10.917   8.388   2.624 -1.8061 -0.1294  1.2397
  536MOL0     H72355  11.073   8.376   2.713  0.2365  1.9521 -1.0835
  536MOL0     H72356  10.908   8.427   2.866 -0.3159  0.1468 -0.2022
  536MOL0     H72357  10.965   8.256   2.884  1.9984  3.3254  1.3446
  536MOL0     H72358  10.543   8.234   2.793 -0.2576 -0.3189 -0.2725
  536MOL0     H72359  11.135   7.865   2.311  2.2960 -0.2558 -0.2565
  536MOL0     H72360  11.115   7.819   2.094  5.1024 -1.5844  2.9366
  537MOL0     O72361   4.322   3.899   2.785 -0.5864  0.3560  0.3036
  537MOL0     C72362   4.256   4.002   2.795  0.4266 -0.4478 -0.6875
  537MOL0     O72363   4.122   4.008   2.779  1.7157  0.1606 -0.0370
  537MOL0     C72364   4.060   3.894   2.771  0.0607  0.2219  0.2461
  537MOL0     C72365   4.039   3.812   2.887 -0.6053 -1.0475 -0.3008
  537MOL0     C72366   3.972   3.693   2.887  0.5037  0.4289  0.4047
  537MOL0     C72367   3.939   3.635   2.765  0.7467  0.2649  0.7353
  537MOL0     O72368   3.886   3.509   2.763 -0.0895 -0.0683 -0.3739
  537MOL0     C72369   3.969   3.409   2.711  0.0624  0.1892 -1.0202
  537MOL0     C72370   4.066   3.351   2.812 -0.0186  0.7317 -0.4809
  537MOL0     C72371   4.001   3.265   2.927  0.6577  0.0479 -0.3198
  537MOL0     C72372   4.091   3.227   3.053  0.4787  0.2815  0.8013
  537MOL0     C72373   4.031   3.261   3.184 -0.6260  0.8584 -0.5287
  537MOL0     C72374   3.891   3.200   3.214 -0.6026  1.1780 -0.2158
  537MOL0     C72375   3.890   3.049   3.182 -0.6411 -0.0609  0.8415
  537MOL0     C72376   3.756   2.990   3.225 -0.9066 -0.0735 -0.1086
  537MOL0     N72377   3.716   2.887   3.133 -0.0402  0.1598 -0.1765
  537MOL0     C72378   3.641   2.911   3.020  0.6523 -0.0764  0.2727
  537MOL0     C72379   3.609   2.785   2.976  0.5776 -0.2168 -0.5136
  537MOL0     C72380   3.527   2.761   2.860  0.9922  0.5047  0.6049
  537MOL0     C72381   3.601   2.662   2.777 -0.1887  0.0362 -0.0386
  537MOL0     C72382   3.519   2.579   2.677 -0.8453  0.1007 -0.4093
  537MOL0     C72383   3.463   2.680   2.581  0.8921  0.7766  0.2732
  537MOL0     O72384   3.402   2.599   2.474 -0.9582  0.0799 -0.0672
  537MOL0     C72385   3.300   2.512   2.504  0.4339 -0.9801  0.2652
  537MOL0     C72386   3.276   2.416   2.414  0.6804 -0.5828  1.0154
  537MOL0     C72387   3.164   2.332   2.424 -0.1827 -0.8987  0.0951
  537MOL0     C72388   3.165   2.215   2.322  0.4055  0.7193 -1.0164
  537MOL0     C72389   3.064   2.364   2.523 -0.2680  0.0338 -0.5214
  537MOL0     C72390   2.933   2.295   2.531  1.5741 -0.0115 -0.5131
  537MOL0     O72391   2.841   2.351   2.620 -0.9203 -0.3533 -0.4700
  537MOL0     C72392   2.706   2.315   2.617 -1.0544 -0.0594  0.4680
  537MOL0     C72393   2.675   2.179   2.656 -0.6704  0.1082  0.6186
  537MOL0     C72394   2.532   2.154   2.658 -0.2804  0.8456  0.7941
  537MOL0     C72395   2.441   2.261   2.617  0.2471  0.0916 -0.0404
  537MOL0     O72396   2.307   2.248   2.613  0.4026  0.0581  0.8711
  537MOL0     C72397   2.243   2.121   2.618  0.8676 -0.4774  0.4439
  537MOL0     C72398   2.229   2.065   2.759 -0.6749  0.3520 -0.1675
  537MOL0     C72399   2.227   1.911   2.744  0.0721  0.4739 -0.2640
  537MOL0     C72400   2.233   1.839   2.881 -0.7371  0.2094  0.4220
  537MOL0     C72401   2.200   1.692   2.868 -0.0675 -0.0964 -1.0128
  537MOL0     C72402   2.220   1.615   2.998 -0.5906 -0.3101 -0.2497
  537MOL0     C72403   2.139   1.488   3.008  0.6926 -0.8133  0.9108
  537MOL0     C72404   2.098   1.437   3.152  0.1910 -0.3664 -0.1976
  537MOL0    Cl72405   2.241   1.400   3.250 -0.5942 -0.2732  0.4552
  537MOL0     C72406   2.478   2.384   2.566 -0.4777  0.8071  0.1996
  537MOL0     C72407   2.619   2.412   2.570  0.3098 -1.2087 -0.8871
  537MOL0     O72408   2.913   2.202   2.462 -0.3267  0.0925 -0.6349
  537MOL0     C72409   3.085   2.465   2.619 -0.8728  0.6664 -0.1341
  537MOL0     C72410   3.206   2.536   2.606 -0.8620  0.0734 -0.0691
  537MOL0     N72411   3.672   2.697   3.064 -0.0047  0.1110  0.3274
  537MOL0     N72412   3.731   2.758   3.157  1.4195  0.8470 -0.3141
  537MOL0     C72413   3.946   3.719   2.650 -1.1274 -0.1708  0.4293
  537MOL0     C72414   3.993   3.852   2.653 -0.0135 -0.2821 -0.0832
  537MOL0     C72415   4.330   4.120   2.840 -0.4599 -0.4969 -0.3551
  537MOL0     C72416   4.265   4.225   2.921 -0.0144  0.1609 -0.2845
  537MOL0     C72417   4.345   4.323   2.983 -1.0003  0.0472  0.5309
  537MOL0     C72418   4.484   4.322   2.954  0.1059  0.3768 -0.8477
  537MOL0     O72419   4.560   4.425   2.998  0.5415 -0.4259  0.3251
  537MOL0     C72420   4.542   4.529   2.908 -0.1805 -0.4185  1.1351
  537MOL0     C72421   4.630   4.516   2.777 -0.7646 -0.5020  0.1303
  537MOL0     C72422   4.667   4.651   2.724  1.0865  1.0313 -0.5135
  537MOL0     C72423   4.810   4.694   2.765 -0.7365  0.8340  0.1120
  537MOL0     C72424   4.835   4.698   2.905  0.1278 -0.9290  0.4161
  537MOL0     C72425   4.870   4.696   3.023 -0.0493 -0.4671  0.7246
  537MOL0     C72426   4.540   4.217   2.891 -0.4993 -0.5432  0.0906
  537MOL0     C72427   4.465   4.116   2.844  0.0929 -0.1146  0.7555
  537MOL0     H72428   4.084   3.843   2.981 -2.8848 -2.5412  1.3786
  537MOL0     H72429   3.973   3.620   2.967 -2.0085 -1.5395 -1.2087
  537MOL0     H72430   3.897   3.333   2.680 -1.5869  2.2960 -2.6456
  537MOL0     H72431   4.018   3.460   2.627  0.2691  0.3182 -0.8193
  537MOL0     H72432   4.134   3.281   2.762  1.3775  1.5382  0.2342
  537MOL0     H72433   4.130   3.424   2.863  0.2110 -0.9755  1.8304
  537MOL0     H72434   3.918   3.329   2.960  0.2517 -1.3024  1.4194
  537MOL0     H72435   3.964   3.173   2.880  0.0771  1.3670 -2.6363
  537MOL0     H72436   4.111   3.120   3.048  3.0487  0.7389  0.0132
  537MOL0     H72437   4.186   3.281   3.064  1.5283 -1.1923 -0.5932
  537MOL0     H72438   4.105   3.219   3.253 -0.9106  0.2828 -0.5662
  537MOL0     H72439   4.029   3.369   3.204  1.6816  0.9983 -0.7625
  537MOL0     H72440   3.862   3.227   3.316  0.4051  3.9815 -0.5963
  537MOL0     H72441   3.804   3.241   3.161 -1.4609  2.7372  2.2220
  537MOL0     H72442   3.897   3.041   3.073  1.2152 -0.2104  0.9399
  537MOL0     H72443   3.970   3.008   3.245 -1.7158  0.9290  2.9451
  537MOL0     H72444   3.675   3.062   3.211 -1.6694 -1.0056 -0.5793
  537MOL0     H72445   3.761   2.947   3.325  1.6243 -1.5222 -0.7416
  537MOL0     H72446   3.608   3.008   2.984 -2.3103 -1.4219 -0.9632
  537MOL0     H72447   3.429   2.724   2.890 -0.9177  1.8264 -3.3152
  537MOL0     H72448   3.507   2.856   2.810  1.6507 -0.7480 -2.2084
  537MOL0     H72449   3.665   2.592   2.832  0.3940 -0.7421 -1.6256
  537MOL0     H72450   3.675   2.721   2.721  0.4876  0.1437  0.9333
  537MOL0     H72451   3.456   2.505   2.728 -0.1922 -0.6215 -0.6402
  537MOL0     H72452   3.591   2.514   2.628  1.5537  2.0293  0.3648
  537MOL0     H72453   3.529   2.758   2.541 -0.5402  1.6150 -0.5298
  537MOL0     H72454   3.383   2.734   2.632  1.6560  4.4181 -1.9798
  537MOL0     H72455   3.340   2.416   2.326 -0.9051  1.4395 -0.2388
  537MOL0     H72456   3.263   2.205   2.273  1.4861 -0.1146  1.1398
  537MOL0     H72457   3.143   2.124   2.380  3.3246  1.3084  1.2778
  537MOL0     H72458   3.087   2.239   2.250 -2.5685  1.9630  2.3231
  537MOL0     H72459   2.748   2.103   2.678 -1.3484  0.1925  3.6644
  537MOL0     H72460   2.487   2.060   2.688  1.6476 -0.7809 -0.9977
  537MOL0     H72461   2.141   2.138   2.581  0.6092  0.5051  1.5499
  537MOL0     H72462   2.291   2.061   2.540 -0.4559  0.0681 -0.8503
  537MOL0     H72463   2.314   2.083   2.825 -0.7987 -2.6462  0.9731
  537MOL0     H72464   2.138   2.100   2.808  0.2592  0.7309  1.3379
  537MOL0     H72465   2.304   1.868   2.679  0.6254  1.9494 -0.6161
  537MOL0     H72466   2.131   1.888   2.698  0.1681 -2.0371  0.6113
  537MOL0     H72467   2.333   1.837   2.926 -1.0595  0.2460  1.1423
  537MOL0     H72468   2.168   1.896   2.947 -2.6356  1.1315 -2.0931
  537MOL0     H72469   2.268   1.653   2.792  0.9620 -1.0120  0.3455
  537MOL0     H72470   2.098   1.694   2.828  0.0772  0.7250 -1.3859
  537MOL0     H72471   2.325   1.588   3.018 -0.2149 -4.1419 -5.3795
  537MOL0     H72472   2.171   1.684   3.068  0.9345  0.1590  0.4233
  537MOL0     H72473   2.198   1.402   2.975  1.1892 -1.4921  3.3807
  537MOL0     H72474   2.049   1.495   2.946  0.4828 -1.0211  1.1893
  537MOL0     H72475   2.042   1.343   3.158  2.9497 -2.1724 -0.9735
  537MOL0     H72476   2.037   1.513   3.202  0.8340  1.5298 -2.1429
  537MOL0     H72477   2.408   2.465   2.544 -4.6579 -2.3047  0.7660
  537MOL0     H72478   2.657   2.510   2.543  0.8846 -1.2549 -0.2533
  537MOL0     H72479   3.022   2.501   2.699 -0.4280 -0.4275  0.7297
  537MOL0     H72480   3.221   2.617   2.677 -0.6185 -0.0750  0.0503
  537MOL0     H72481   3.916   3.683   2.552  1.4922  1.0681 -0.9219
  537MOL0     H72482   4.001   3.929   2.578 -1.4248  0.1402  0.1728
  537MOL0     H72483   4.159   4.227   2.944  0.0032 -1.2378 -0.0230
  537MOL0     H72484   4.318   4.402   3.052 -0.4228 -0.4593  1.3701
  537MOL0     H72485   4.442   4.559   2.876  0.5084 -0.1988 -1.0000
  537MOL0     H72486   4.580   4.621   2.954  0.5256  1.8835 -3.4826
  537MOL0     H72487   4.577   4.460   2.699 -1.6272  0.3111  0.1213
  537MOL0     H72488   4.726   4.467   2.793 -0.1641  0.6202  0.0465
  537MOL0     H72489   4.613   4.735   2.768  2.0108  0.7351  1.2624
  537MOL0     H72490   4.646   4.651   2.616  2.2602 -0.9214 -0.7850
  537MOL0     H72491   4.831   4.787   2.713 -0.5895  0.2377 -0.9274
  537MOL0     H72492   4.877   4.614   2.732 -1.9190 -0.4390  0.6474
  537MOL0     H72493   4.908   4.702   3.122 -0.1930 -0.5277  0.7839
  537MOL0     H72494   4.645   4.222   2.863 -1.2960  2.6037 -3.1782
  537MOL0     H72495   4.514   4.037   2.788 -0.9981 -0.6831  0.5715
  538MOL0     O72496   0.114   6.749  11.188  0.0871 -1.1354  0.1469
  538MOL0     C72497   0.217   6.785  11.238 -0.6355  0.5785  0.2144
  538MOL0     O72498   0.227   6.827  11.368  0.8513 -1.0509 -0.5990
  538MOL0     C72499   0.123   6.849  11.456  0.6869  0.2046  1.3291
  538MOL0     C72500   0.133   6.797  11.579 -0.1409  0.6898  0.4371
  538MOL0     C72501   0.034   6.807  11.671 -1.2072  1.0146  0.0409
  538MOL0     C72502  -0.088   6.875  11.631  0.1497 -0.0471  0.1377
  538MOL0     O72503  -0.187   6.901  11.725  0.3774 -0.3327  0.6243
  538MOL0     C72504  -0.243   7.040  11.717  0.1755  0.7766 -0.0640
  538MOL0     C72505  -0.311   7.068  11.855  0.1892  0.0645  0.9606
  538MOL0     C72506  -0.434   6.977  11.884  0.0665 -0.3118 -0.4505
  538MOL0     C72507  -0.501   6.987  12.019 -0.2750  0.3100 -0.4690
  538MOL0     C72508  -0.552   7.128  12.053 -0.1315 -1.0759  0.8498
  538MOL0     C72509  -0.665   7.182  11.960 -1.0486 -0.4643  0.0059
  538MOL0     C72510  -0.776   7.076  11.944  0.2576  0.0951  0.7513
  538MOL0     C72511  -0.892   7.144  11.870 -0.3612 -0.4677 -0.0110
  538MOL0     N72512  -0.963   7.243  11.954  0.6170 -0.0649  0.2021
  538MOL0     C72513  -1.071   7.213  12.040 -0.3435  0.2798  1.0867
  538MOL0     C72514  -1.106   7.329  12.101  0.0456  0.2760  0.2864
  538MOL0     C72515  -1.216   7.361  12.195 -1.1522  0.1448 -0.5144
  538MOL0     C72516  -1.223   7.282  12.329 -0.0551  0.1903  0.7121
  538MOL0     C72517  -1.356   7.316  12.396 -0.4618  0.2562  0.3460
  538MOL0     C72518  -1.362   7.267  12.543  0.0485 -0.1321 -0.0601
  538MOL0     O72519  -1.374   7.119  12.552  0.1222  0.4750  0.0561
  538MOL0     C72520  -1.382   7.051  12.677 -0.6240 -0.8400  0.2855
  538MOL0     C72521  -1.400   6.918  12.678  0.5190  0.3582  0.2775
  538MOL0     C72522  -1.423   6.843  12.792 -0.7578  0.8322  0.5170
  538MOL0     C72523  -1.434   6.694  12.769 -0.7204 -0.0721  0.0810
  538MOL0     C72524  -1.429   6.910  12.918  0.3072  0.1708  0.0453
  538MOL0     C72525  -1.434   6.848  13.057 -0.7936 -0.1140  0.0725
  538MOL0     O72526  -1.346   6.741  13.089  0.3738  0.0943  0.3503
  538MOL0     C72527  -1.348   6.701  13.224 -0.7841 -0.5085 -0.2377
  538MOL0     C72528  -1.222   6.695  13.289  0.3370 -0.3867  0.0437
  538MOL0     C72529  -1.212   6.648  13.419 -0.1352  0.0819  0.0941
  538MOL0     C72530  -1.323   6.609  13.493  0.7459  0.8938  0.8452
  538MOL0     O72531  -1.306   6.567  13.620 -0.0691 -0.1306  0.1173
  538MOL0     C72532  -1.409   6.568  13.717 -0.3569 -0.2246  0.3191
  538MOL0     C72533  -1.512   6.688  13.723 -0.5181 -0.3305  0.4759
  538MOL0     C72534  -1.448   6.817  13.720 -0.0390 -0.9450  0.1206
  538MOL0     C72535  -1.538   6.941  13.762 -0.3901 -0.0216  0.7229
  538MOL0     C72536  -1.672   6.932  13.694  0.6049 -1.0719  0.6211
  538MOL0     C72537  -1.651   6.943  13.536  0.1340  0.4108  0.6436
  538MOL0     C72538  -1.792   6.931  13.467  0.0839  0.1950 -0.9571
  538MOL0     C72539  -1.773   6.894  13.322  0.0423 -0.2562  0.6956
  538MOL0    Cl72540  -1.936   6.859  13.250 -0.4008  0.5908  0.3621
  538MOL0     C72541  -1.448   6.608  13.427  0.2510  0.0977  0.1462
  538MOL0     C72542  -1.456   6.645  13.293 -0.1161  0.1460 -0.2794
  538MOL0     O72543  -1.509   6.903  13.140  0.1818 -0.5716  0.7615
  538MOL0     C72544  -1.397   7.049  12.922 -0.1387  0.2871  0.4323
  538MOL0     C72545  -1.372   7.121  12.799  0.1716  0.2695 -0.4531
  538MOL0     N72546  -1.021   7.425  12.047 -0.1597  1.1546  0.1328
  538MOL0     N72547  -0.937   7.376  11.968  0.2825  0.8031  0.3855
  538MOL0     C72548  -0.116   6.909  11.501 -0.6713  0.5076 -0.0232
  538MOL0     C72549  -0.002   6.894  11.412 -0.8360 -0.0664 -0.6420
  538MOL0     C72550   0.347   6.742  11.184  0.3599  0.3519  0.2397
  538MOL0     C72551   0.346   6.659  11.066 -0.8140 -0.1722  0.5313
  538MOL0     C72552   0.460   6.617  10.994 -0.7711  1.6559 -0.6924
  538MOL0     C72553   0.583   6.649  11.053 -0.0116  0.0122  0.0789
  538MOL0     O72554   0.707   6.615  11.002 -0.0599 -0.1183  0.2586
  538MOL0     C72555   0.708   6.527  10.887  0.3460 -0.6049 -0.3131
  538MOL0     C72556   0.836   6.461  10.864 -0.2331  0.1080 -0.3469
  538MOL0     C72557   0.889   6.398  10.993  0.2150  0.9062  0.5624
  538MOL0     C72558   0.800   6.279  11.053 -1.2016 -0.3748 -0.0577
  538MOL0     C72559   0.736   6.166  10.976  0.4345 -1.4999  0.9830
  538MOL0     C72560   0.688   6.077  10.901  0.4538  0.2989  0.5130
  538MOL0     C72561   0.587   6.722  11.179 -0.0465  0.3290  0.1150
  538MOL0     C72562   0.473   6.768  11.243 -0.0402 -0.3115  0.4384
  538MOL0     H72563   0.227   6.750  11.605 -0.3957 -0.9421 -1.3404
  538MOL0     H72564   0.048   6.769  11.771  0.6813 -1.8814 -1.1816
  538MOL0     H72565  -0.158   7.104  11.690  0.4992  0.4726  0.2244
  538MOL0     H72566  -0.320   7.039  11.640 -0.1039  1.4793  0.1939
  538MOL0     H72567  -0.233   7.049  11.929  1.8949 -0.2779 -0.8426
  538MOL0     H72568  -0.339   7.174  11.850  1.9716  0.5093 -0.5870
  538MOL0     H72569  -0.507   6.980  11.803 -0.5011 -2.1117 -0.0548
  538MOL0     H72570  -0.400   6.874  11.871 -1.1672 -0.7096 -0.6464
  538MOL0     H72571  -0.578   6.911  12.034 -0.5503  0.5426 -0.6969
  538MOL0     H72572  -0.422   6.954  12.087 -0.0416 -3.6383 -2.3781
  538MOL0     H72573  -0.585   7.135  12.157  1.0032  0.8187  1.1339
  538MOL0     H72574  -0.473   7.202  12.035  0.4638 -2.2502 -1.9779
  538MOL0     H72575  -0.704   7.270  12.012  0.3958 -1.3768  2.8537
  538MOL0     H72576  -0.643   7.206  11.856 -2.3663 -1.5312 -0.5455
  538MOL0     H72577  -0.745   7.007  11.866 -0.1684  1.2637 -0.4846
  538MOL0     H72578  -0.807   7.030  12.039 -0.6382  0.8236  0.8249
  538MOL0     H72579  -0.962   7.068  11.834 -0.3125  0.3420 -1.8902
  538MOL0     H72580  -0.861   7.188  11.775 -2.3429  0.0649 -0.4531
  538MOL0     H72581  -1.111   7.114  12.061 -1.2358  0.2118 -0.7376
  538MOL0     H72582  -1.188   7.464  12.221 -1.1839 -0.4949  2.4105
  538MOL0     H72583  -1.309   7.350  12.139  0.8684 -4.4977 -3.5696
  538MOL0     H72584  -1.132   7.307  12.384  0.7506 -0.6305 -0.1960
  538MOL0     H72585  -1.217   7.173  12.324 -0.2054  0.0767  2.4978
  538MOL0     H72586  -1.440   7.273  12.341 -1.4765  0.7123  1.4970
  538MOL0     H72587  -1.356   7.425  12.404  1.2745  0.3331 -0.2724
  538MOL0     H72588  -1.456   7.303  12.587 -0.2921 -1.0121 -0.0509
  538MOL0     H72589  -1.273   7.300  12.598  0.3230 -2.0849  0.7495
  538MOL0     H72590  -1.405   6.862  12.585 -1.7728 -2.7606  2.0611
  538MOL0     H72591  -1.487   6.663  12.678  1.9955 -2.7539 -0.7874
  538MOL0     H72592  -1.330   6.661  12.760 -1.2946 -2.0805  0.3552
  538MOL0     H72593  -1.465   6.634  12.855  0.1401 -4.5119 -2.3690
  538MOL0     H72594  -1.129   6.731  13.245  0.5249  1.0490  1.5530
  538MOL0     H72595  -1.116   6.665  13.467 -0.0355  0.7675 -0.3417
  538MOL0     H72596  -1.475   6.481  13.707 -0.8998  0.3024 -0.8030
  538MOL0     H72597  -1.354   6.547  13.809 -1.3197 -1.2116  0.6873
  538MOL0     H72598  -1.586   6.683  13.643  1.6090 -0.6899 -1.5798
  538MOL0     H72599  -1.565   6.677  13.818 -0.5514  1.3017  0.6810
  538MOL0     H72600  -1.403   6.839  13.622  3.0076 -1.4050  1.3373
  538MOL0     H72601  -1.362   6.807  13.785 -0.1301  0.2136  0.4460
  538MOL0     H72602  -1.552   6.943  13.871  1.6383 -1.1690  1.0503
  538MOL0     H72603  -1.487   7.033  13.732  1.7818 -0.4439  2.7742
  538MOL0     H72604  -1.721   7.021  13.733  0.1216 -1.4315  0.8312
  538MOL0     H72605  -1.718   6.840  13.730  1.4943 -2.1682 -0.9500
  538MOL0     H72606  -1.611   7.038  13.500  0.7324 -0.9733 -2.6714
  538MOL0     H72607  -1.591   6.861  13.496 -1.8662 -1.7934  1.9209
  538MOL0     H72608  -1.844   7.027  13.477  0.6368  0.2534  2.2084
  538MOL0     H72609  -1.858   6.851  13.502  1.2000 -1.4795 -2.4927
  538MOL0     H72610  -1.712   6.803  13.320 -1.9325 -1.6394  0.6426
  538MOL0     H72611  -1.713   6.969  13.270 -0.0294  0.6373  1.8495
  538MOL0     H72612  -1.528   6.556  13.476  1.9429 -1.6147  1.2190
  538MOL0     H72613  -1.539   6.617  13.228  1.0952 -2.1916 -0.9242
  538MOL0     H72614  -1.388   7.100  13.017  1.9881  0.5726  0.1358
  538MOL0     H72615  -1.346   7.225  12.810  1.6259  0.0340 -1.3699
  538MOL0     H72616  -0.213   6.939  11.462  0.9448  2.3130 -3.0928
  538MOL0     H72617  -0.018   6.929  11.310 -0.2247  2.3040  0.0102
  538MOL0     H72618   0.255   6.623  11.021  0.1931  1.7512 -3.4697
  538MOL0     H72619   0.446   6.560  10.903 -0.9909  0.9983 -0.2529
  538MOL0     H72620   0.633   6.449  10.907  1.2657 -1.8513 -1.5781
  538MOL0     H72621   0.674   6.584  10.800 -3.0522  0.5611  1.5886
  538MOL0     H72622   0.908   6.531  10.821 -0.1658 -0.6728 -1.5442
  538MOL0     H72623   0.824   6.381  10.790 -2.1609 -1.6827  1.7487
  538MOL0     H72624   0.908   6.458  11.083  2.7613 -0.8016  1.2919
  538MOL0     H72625   0.983   6.362  10.950  0.1146  2.0583 -0.6891
  538MOL0     H72626   0.721   6.330  11.108 -2.6266 -1.2132 -1.2363
  538MOL0     H72627   0.863   6.237  11.132 -0.0227  2.4110  0.5826
  538MOL0     H72628   0.644   6.015  10.825  0.9287  0.9786 -0.3284
  538MOL0     H72629   0.687   6.751  11.209  0.3866 -0.9651 -0.0190
  538MOL0     H72630   0.485   6.838  11.325 -1.8293 -1.2944  1.6103
  539MOL0     O72631   2.152   0.177   5.209 -0.0037 -0.0765  0.0308
  539MOL0     C72632   2.248   0.225   5.261 -0.6899 -0.2974 -0.5831
  539MOL0     O72633   2.297   0.180   5.392  0.3735 -0.0725  0.2233
  539MOL0     C72634   2.219   0.088   5.454  0.2503 -0.3541  0.6227
  539MOL0     C72635   2.290  -0.014   5.517 -0.6782  0.0597  0.8943
  539MOL0     C72636   2.220  -0.098   5.602 -0.0294  0.2374 -0.7406
  539MOL0     C72637   2.090  -0.070   5.637  0.6414 -0.0235 -0.1247
  539MOL0     O72638   2.036  -0.152   5.729 -0.1167 -0.9050 -0.4085
  539MOL0     C72639   1.923  -0.107   5.805 -0.5228 -0.4476  0.4847
  539MOL0     C72640   1.902  -0.180   5.935 -0.0523  0.1229  0.7094
  539MOL0     C72641   1.761  -0.136   5.984  0.4026 -0.1584 -0.0840
  539MOL0     C72642   1.727  -0.197   6.116  1.1011  0.0079  0.6422
  539MOL0     C72643   1.589  -0.153   6.156  0.3981 -0.1607  0.4532
  539MOL0     C72644   1.477  -0.207   6.062 -0.4535  0.0829  0.4880
  539MOL0     C72645   1.336  -0.196   6.122 -0.2107 -0.1017 -0.0258
  539MOL0     C72646   1.322  -0.309   6.230  1.1051 -0.7140 -0.4918
  539MOL0     N72647   1.186  -0.325   6.293  0.0824  0.3996  0.6283
  539MOL0     C72648   1.161  -0.376   6.417  0.5464  0.3938 -0.0805
  539MOL0     C72649   1.029  -0.399   6.428 -0.2108 -0.1475  0.0296
  539MOL0     C72650   0.944  -0.474   6.535  0.1508 -0.1144 -0.0858
  539MOL0     C72651   0.923  -0.615   6.490 -0.6241  0.5179  0.8229
  539MOL0     C72652   0.863  -0.710   6.595  0.1911  0.0345 -0.3359
  539MOL0     C72653   0.798  -0.837   6.545 -0.0603 -0.2045  0.7980
  539MOL0     O72654   0.672  -0.796   6.490 -0.2084 -0.3533  0.1651
  539MOL0     C72655   0.567  -0.876   6.462 -0.4103 -0.1247 -0.2296
  539MOL0     C72656   0.581  -1.009   6.426  0.2398 -0.1122 -0.3703
  539MOL0     C72657   0.476  -1.100   6.436  0.1853 -0.3060  0.4666
  539MOL0     C72658   0.496  -1.242   6.392  0.3574 -0.7133 -0.6896
  539MOL0     C72659   0.348  -1.056   6.471  0.0151  0.3777 -0.4575
  539MOL0     C72660   0.230  -1.144   6.484  0.1990  0.3974 -0.5738
  539MOL0     O72661   0.142  -1.112   6.582  0.8153 -0.1510  0.7974
  539MOL0     C72662   0.029  -1.178   6.608 -0.7847 -0.8012  0.6338
  539MOL0     C72663  -0.074  -1.105   6.661 -0.1471  0.1144 -1.3978
  539MOL0     C72664  -0.202  -1.158   6.675 -0.6560  0.2317  0.0216
  539MOL0     C72665  -0.216  -1.298   6.670 -0.1106  1.0795  0.0250
  539MOL0     O72666  -0.351  -1.331   6.694  0.3891 -0.9047 -0.8335
  539MOL0     C72667  -0.387  -1.467   6.695 -0.3189 -0.1728 -0.4615
  539MOL0     C72668  -0.531  -1.493   6.671  0.0476 -0.0921  0.5578
  539MOL0     C72669  -0.621  -1.491   6.793  0.1187  0.2005  0.0448
  539MOL0     C72670  -0.773  -1.458   6.760 -0.4396  0.2025  1.1098
  539MOL0     C72671  -0.870  -1.493   6.878 -0.2035  0.4553  0.3159
  539MOL0     C72672  -1.015  -1.467   6.852 -0.1552  0.7671  0.6801
  539MOL0     C72673  -1.104  -1.577   6.920 -0.0229 -0.8802 -0.1269
  539MOL0     C72674  -1.135  -1.537   7.065 -0.1275 -0.1125 -0.2375
  539MOL0    Cl72675  -1.000  -1.565   7.172  0.2002 -0.0333  0.3108
  539MOL0     C72676  -0.115  -1.378   6.613  0.4216  0.5746  0.6029
  539MOL0     C72677   0.012  -1.316   6.585  0.4642  0.1100  0.8208
  539MOL0     O72678   0.211  -1.230   6.395  0.0685  0.2983 -0.1847
  539MOL0     C72679   0.331  -0.921   6.499  0.0620  0.4120  0.3780
  539MOL0     C72680   0.438  -0.834   6.487 -0.4034 -0.3673 -0.1959
  539MOL0     N72681   0.981  -0.363   6.301  0.4787  0.3017 -1.0099
  539MOL0     N72682   1.067  -0.329   6.223 -0.4263 -0.0087 -0.0957
  539MOL0     C72683   2.016   0.029   5.575  0.0031 -0.2786  0.6561
  539MOL0     C72684   2.083   0.108   5.483  0.0602  0.3347 -0.4674
  539MOL0     C72685   2.311   0.336   5.193  0.9952 -0.4132 -0.6437
  539MOL0     C72686   2.244   0.413   5.092 -0.1236 -0.8317 -0.5537
  539MOL0     C72687   2.326   0.508   5.027 -0.6171 -0.2943  0.3983
  539MOL0     C72688   2.465   0.520   5.058  0.8189 -0.2967 -0.3867
  539MOL0     O72689   2.542   0.609   4.997 -0.5652 -0.0825  0.2628
  539MOL0     C72690   2.599   0.553   4.878  0.5782  0.7746  0.4443
  539MOL0     C72691   2.700   0.646   4.804 -0.7674  0.9092  0.4162
  539MOL0     C72692   2.807   0.696   4.890  0.6722 -0.5623 -0.8884
  539MOL0     C72693   2.897   0.800   4.823 -0.0247  0.3924  0.2489
  539MOL0     C72694   2.995   0.840   4.920 -0.2388  0.3517 -0.3529
  539MOL0     C72695   3.067   0.881   5.002  0.2086 -0.6213  0.1827
  539MOL0     C72696   2.509   0.451   5.164  0.0204 -0.6625  0.0033
  539MOL0     C72697   2.442   0.361   5.237 -0.3949  0.2825  0.1718
  539MOL0     H72698   2.388  -0.037   5.477 -1.1695  0.5196 -0.6419
  539MOL0     H72699   2.270  -0.189   5.633 -0.8483  0.5116  1.5543
  539MOL0     H72700   1.927  -0.002   5.837 -0.6500 -0.3843  0.2953
  539MOL0     H72701   1.840  -0.141   5.742 -1.8149  1.2114  1.2004
  539MOL0     H72702   1.914  -0.286   5.911  0.3863  0.5458 -1.1371
  539MOL0     H72703   1.988  -0.160   6.000  2.0085 -0.9114 -1.5252
  539MOL0     H72704   1.758  -0.027   5.991  0.6234  0.1101 -2.9835
  539MOL0     H72705   1.694  -0.172   5.905  0.9269  0.4381 -0.8104
  539MOL0     H72706   1.735  -0.304   6.096  2.7885 -0.5204  3.5977
  539MOL0     H72707   1.794  -0.175   6.200 -0.4255  0.2585  1.8538
  539MOL0     H72708   1.571  -0.181   6.260 -0.9594  1.6706  0.7476
  539MOL0     H72709   1.600  -0.044   6.155  0.7820 -0.1989  0.1396
  539MOL0     H72710   1.483  -0.175   5.957 -0.1259  1.5533  0.9311
  539MOL0     H72711   1.491  -0.315   6.060 -0.8218 -0.0864  3.2231
  539MOL0     H72712   1.327  -0.100   6.173  0.1030 -0.5815  0.9658
  539MOL0     H72713   1.261  -0.211   6.043 -0.1433 -1.6640  0.1672
  539MOL0     H72714   1.399  -0.310   6.307  1.7019 -0.5619 -1.0854
  539MOL0     H72715   1.356  -0.399   6.178  0.5472 -2.0396  1.3029
  539MOL0     H72716   1.237  -0.400   6.491  1.3370  4.2832  0.5884
  539MOL0     H72717   0.992  -0.454   6.631 -0.1570  0.7051 -0.0878
  539MOL0     H72718   0.848  -0.422   6.529 -0.5945 -1.5543 -1.2325
  539MOL0     H72719   1.017  -0.665   6.469 -0.5341  1.1574 -0.3776
  539MOL0     H72720   0.865  -0.616   6.397 -0.5751 -1.2949  0.7753
  539MOL0     H72721   0.790  -0.655   6.653  2.9905  1.7028  1.8597
  539MOL0     H72722   0.941  -0.737   6.666  1.1012  0.1631 -1.2528
  539MOL0     H72723   0.784  -0.905   6.630  1.5711 -2.0311 -0.2910
  539MOL0     H72724   0.864  -0.885   6.472 -0.4455  0.8586 -0.2730
  539MOL0     H72725   0.680  -1.045   6.400 -0.2264 -1.1131 -0.7812
  539MOL0     H72726   0.601  -1.262   6.372  0.1038 -2.1836 -0.6313
  539MOL0     H72727   0.447  -1.315   6.457 -0.4620 -1.7586 -2.3947
  539MOL0     H72728   0.442  -1.253   6.297  0.5086 -2.4744 -0.5972
  539MOL0     H72729  -0.064  -1.000   6.685  0.2669 -0.3219  0.4973
  539MOL0     H72730  -0.290  -1.109   6.718  0.4454  1.5379  0.8881
  539MOL0     H72731  -0.327  -1.510   6.614  2.8369  0.2745  1.4520
  539MOL0     H72732  -0.346  -1.516   6.784 -1.1479 -2.4426 -1.2446
  539MOL0     H72733  -0.569  -1.422   6.597 -1.5757 -3.1028 -1.7331
  539MOL0     H72734  -0.550  -1.582   6.610  1.0530  0.1229 -0.1029
  539MOL0     H72735  -0.585  -1.423   6.870 -0.0221  0.7078 -0.3357
  539MOL0     H72736  -0.613  -1.592   6.835  3.7233  0.5196  0.4272
  539MOL0     H72737  -0.783  -1.351   6.741  0.3102  0.2625  1.0089
  539MOL0     H72738  -0.793  -1.523   6.674  1.9554  0.3408  0.3578
  539MOL0     H72739  -0.846  -1.435   6.968 -2.7636  2.7871 -0.3601
  539MOL0     H72740  -0.854  -1.599   6.902  0.3026  0.4054 -0.2406
  539MOL0     H72741  -1.050  -1.369   6.887 -0.3287  1.0499 -0.2539
  539MOL0     H72742  -1.029  -1.457   6.744  0.7256  1.9796  0.6505
  539MOL0     H72743  -1.072  -1.681   6.914  1.4500 -0.4165 -0.7638
  539MOL0     H72744  -1.204  -1.568   6.878 -0.0713 -1.9487 -0.2533
  539MOL0     H72745  -1.221  -1.590   7.107 -2.0605  3.3233  0.4969
  539MOL0     H72746  -1.159  -1.431   7.073  0.1296 -0.1869  4.4140
  539MOL0     H72747  -0.124  -1.486   6.610  0.3699  0.5519  1.3184
  539MOL0     H72748   0.093  -1.377   6.544  1.7250 -0.0296  3.3171
  539MOL0     H72749   0.233  -0.881   6.525 -0.7667  1.2075 -3.3292
  539MOL0     H72750   0.423  -0.733   6.522 -1.1283 -0.7904  0.7744
  539MOL0     H72751   1.914   0.060   5.595 -0.3121  1.0697 -2.3628
  539MOL0     H72752   2.020   0.188   5.444 -3.9893 -3.1931 -1.9823
  539MOL0     H72753   2.141   0.395   5.062 -1.0478 -0.1190  1.9999
  539MOL0     H72754   2.273   0.562   4.949 -2.2859 -2.5563 -0.1522
  539MOL0     H72755   2.651   0.463   4.914  1.1831  2.2126  3.5207
  539MOL0     H72756   2.518   0.530   4.808 -0.1197  3.4677  0.2507
  539MOL0     H72757   2.648   0.732   4.761 -1.7655 -0.8109 -2.0640
  539MOL0     H72758   2.754   0.592   4.726  0.1098  0.6015  1.2214
  539MOL0     H72759   2.867   0.613   4.926 -0.9291 -0.6728  1.7754
  539MOL0     H72760   2.742   0.751   4.959 -1.2053 -3.7412  0.1215
  539MOL0     H72761   2.844   0.882   4.773 -0.9401 -0.9958 -1.1659
  539MOL0     H72762   2.963   0.759   4.746  0.9386  4.2828 -1.1951
  539MOL0     H72763   3.123   0.927   5.081 -0.6232  1.6527 -0.4922
  539MOL0     H72764   2.609   0.486   5.189  0.1470  0.3383 -1.7679
  539MOL0     H72765   2.498   0.324   5.323 -0.3161  3.1287  1.4515
  540MOL0     O72766   0.882   4.228   4.281  0.1913  0.2589 -0.4361
  540MOL0     C72767   0.873   4.117   4.312  0.3179  0.8351 -0.3810
  540MOL0     O72768   0.769   4.061   4.381 -0.4489 -0.2884  0.4107
  540MOL0     C72769   0.682   4.143   4.447  0.8389  0.2332 -0.7313
  540MOL0     C72770   0.542   4.127   4.438  0.0806  1.6599  0.2487
  540MOL0     C72771   0.443   4.205   4.498 -0.4641  0.8328 -0.6713
  540MOL0     C72772   0.494   4.324   4.558  0.1071  0.3478 -0.0245
  540MOL0     O72773   0.413   4.428   4.607  0.0077 -0.2500  0.0401
  540MOL0     C72774   0.274   4.432   4.566  0.5811  0.3389 -0.2495
  540MOL0     C72775   0.209   4.568   4.594 -0.1567  0.2256  0.2426
  540MOL0     C72776   0.070   4.597   4.527  0.1588  0.0502 -0.7635
  540MOL0     C72777  -0.047   4.495   4.569 -0.2190 -0.0662  0.4100
  540MOL0     C72778  -0.188   4.545   4.529 -0.8547 -0.3471  0.0891
  540MOL0     C72779  -0.283   4.434   4.567  0.1091 -0.0848 -0.5747
  540MOL0     C72780  -0.428   4.488   4.560 -0.1816 -0.2619  0.3308
  540MOL0     C72781  -0.479   4.506   4.420 -0.0991  0.0187  0.2959
  540MOL0     N72782  -0.613   4.579   4.427 -0.0995  0.1383  0.3528
  540MOL0     C72783  -0.741   4.526   4.453 -0.1786 -1.0053  0.1653
  540MOL0     C72784  -0.830   4.626   4.407  0.2725  1.1506  0.3968
  540MOL0     C72785  -0.975   4.611   4.433  0.0639 -0.1965  0.1768
  540MOL0     C72786  -1.018   4.716   4.538 -0.0412 -1.1424 -0.6169
  540MOL0     C72787  -1.177   4.728   4.566  0.3928  0.7141  0.5714
  540MOL0     C72788  -1.270   4.786   4.459  0.2534 -0.3039  0.1241
  540MOL0     O72789  -1.273   4.693   4.353  1.1617  0.3364  1.0978
  540MOL0     C72790  -1.381   4.605   4.338  0.6558 -0.2785 -0.1395
  540MOL0     C72791  -1.377   4.526   4.229  0.2650  0.4006 -0.3239
  540MOL0     C72792  -1.491   4.442   4.218  0.3925 -0.1926  0.3820
  540MOL0     C72793  -1.485   4.363   4.088  0.1893  0.2127 -0.4333
  540MOL0     C72794  -1.597   4.432   4.316  0.4839 -0.4259 -0.2019
  540MOL0     C72795  -1.707   4.332   4.312 -0.5694 -0.1837  1.3365
  540MOL0     O72796  -1.790   4.336   4.414 -0.5439  0.2168  0.0498
  540MOL0     C72797  -1.908   4.267   4.412 -1.0338 -0.1288  0.2336
  540MOL0     C72798  -2.027   4.331   4.381  0.2508 -0.5995  0.7833
  540MOL0     C72799  -2.154   4.262   4.387  0.4685  0.3427  0.0453
  540MOL0     C72800  -2.150   4.125   4.406 -0.5984  0.1751 -1.0522
  540MOL0     O72801  -2.266   4.058   4.405 -0.0907 -0.6701 -0.6041
  540MOL0     C72802  -2.271   3.936   4.329 -0.7844 -0.5370  0.1395
  540MOL0     C72803  -2.412   3.907   4.272 -0.0584  0.8041 -0.9444
  540MOL0     C72804  -2.455   3.980   4.155  0.6309 -0.4027 -0.0078
  540MOL0     C72805  -2.612   3.994   4.164 -0.3234 -0.1661  0.5650
  540MOL0     C72806  -2.680   4.061   4.043 -0.0919 -0.3687 -0.5235
  540MOL0     C72807  -2.831   4.071   4.051  0.5002  0.0732 -0.0686
  540MOL0     C72808  -2.887   4.172   3.946 -0.5682  0.3703 -0.4823
  540MOL0     C72809  -3.038   4.185   3.940  0.3423 -1.2180 -0.9577
  540MOL0    Cl72810  -3.119   4.224   4.100 -0.0427  0.4495  0.1706
  540MOL0     C72811  -2.029   4.058   4.426 -0.2046  0.8247 -0.3302
  540MOL0     C72812  -1.902   4.129   4.428 -0.3665 -0.0933  1.1092
  540MOL0     O72813  -1.713   4.250   4.226  0.2374 -0.0041 -0.3406
  540MOL0     C72814  -1.594   4.525   4.420  1.0231  0.2016  1.0415
  540MOL0     C72815  -1.483   4.599   4.442  0.2655 -0.0252  0.2420
  540MOL0     N72816  -0.758   4.731   4.357  0.8198 -0.4691 -0.2304
  540MOL0     N72817  -0.631   4.703   4.365  0.1963 -0.3121 -0.2159
  540MOL0     C72818   0.629   4.346   4.570  0.4070  0.5008 -0.4366
  540MOL0     C72819   0.719   4.258   4.512  0.0090  0.6603 -0.4393
  540MOL0     C72820   0.981   4.016   4.280 -0.0628 -0.0079 -0.9761
  540MOL0     C72821   1.099   4.056   4.204 -0.1808  0.0390 -1.0295
  540MOL0     C72822   1.202   3.962   4.188 -0.0036  0.6620 -0.9692
  540MOL0     C72823   1.194   3.831   4.241 -0.2674 -0.4161 -0.0041
  540MOL0     O72824   1.284   3.730   4.220  0.5771  0.2497 -0.5319
  540MOL0     C72825   1.413   3.758   4.163  0.4749  0.0706 -0.0011
  540MOL0     C72826   1.403   3.736   4.012 -0.1654  0.5426 -0.5687
  540MOL0     C72827   1.525   3.741   3.923  0.1493 -0.9847  0.4572
  540MOL0     C72828   1.577   3.874   3.883 -0.5398  0.7255 -1.1824
  540MOL0     C72829   1.484   3.931   3.786 -0.4625  0.2899  0.5381
  540MOL0     C72830   1.398   3.998   3.731  0.2513 -1.3407 -0.1796
  540MOL0     C72831   1.080   3.788   4.304  0.9423  0.4528  0.1389
  540MOL0     C72832   0.974   3.880   4.330 -0.0094  0.3938 -0.5051
  540MOL0     H72833   0.499   4.045   4.382 -2.5215  3.4036 -0.4999
  540MOL0     H72834   0.337   4.185   4.487 -0.6772  0.9492  0.8548
  540MOL0     H72835   0.268   4.398   4.463  1.0560  1.8660 -0.8072
  540MOL0     H72836   0.236   4.351   4.630 -0.1071 -0.8379 -2.0796
  540MOL0     H72837   0.190   4.576   4.702 -0.2182 -3.3492  0.6332
  540MOL0     H72838   0.278   4.645   4.560 -0.5608  0.0850 -0.9608
  540MOL0     H72839   0.034   4.695   4.557  1.9060  0.3318  0.5212
  540MOL0     H72840   0.073   4.600   4.417  0.2530  2.0668 -0.7447
  540MOL0     H72841  -0.020   4.397   4.530 -0.6445 -1.3673  3.2238
  540MOL0     H72842  -0.049   4.474   4.676 -0.1582  4.5221  1.5234
  540MOL0     H72843  -0.214   4.644   4.568 -0.9624 -0.8560  1.3644
  540MOL0     H72844  -0.184   4.560   4.421 -0.8063  2.0025  0.3558
  540MOL0     H72845  -0.273   4.341   4.510  0.2661  1.7149 -3.7298
  540MOL0     H72846  -0.256   4.398   4.666  2.6315 -0.5262 -1.3276
  540MOL0     H72847  -0.501   4.426   4.612 -1.3798  0.3596 -0.5451
  540MOL0     H72848  -0.433   4.587   4.605 -1.6371  0.5156 -1.4097
  540MOL0     H72849  -0.494   4.410   4.371 -1.9773  1.1107 -1.4075
  540MOL0     H72850  -0.407   4.556   4.354  0.0323 -1.5904 -0.8304
  540MOL0     H72851  -0.769   4.432   4.498  0.5742 -0.9150  0.8589
  540MOL0     H72852  -1.032   4.635   4.342 -1.1514 -3.2753 -0.0033
  540MOL0     H72853  -1.001   4.508   4.457 -2.7453  0.0921 -1.1423
  540MOL0     H72854  -0.976   4.816   4.528 -0.4759 -1.0030 -1.0828
  540MOL0     H72855  -0.974   4.674   4.629  0.5981 -2.0345 -1.3122
  540MOL0     H72856  -1.180   4.795   4.652 -2.1102  1.3322  0.0800
  540MOL0     H72857  -1.206   4.624   4.583  0.0784  0.5327 -0.9446
  540MOL0     H72858  -1.234   4.882   4.420  1.4465  0.6305  3.2439
  540MOL0     H72859  -1.367   4.813   4.502  1.0965  3.1170  0.2017
  540MOL0     H72860  -1.295   4.525   4.158 -0.2055 -2.5977 -0.9657
  540MOL0     H72861  -1.441   4.420   4.006  2.0524 -1.1246 -0.4380
  540MOL0     H72862  -1.424   4.274   4.106  1.5984  1.3827  0.8117
  540MOL0     H72863  -1.587   4.337   4.058 -0.5940  1.6363  0.8270
  540MOL0     H72864  -2.020   4.438   4.367  1.3625 -1.0629 -4.1143
  540MOL0     H72865  -2.250   4.308   4.370  0.2858  0.5533  1.5315
  540MOL0     H72866  -2.206   3.933   4.241 -2.0763 -1.1180 -0.8200
  540MOL0     H72867  -2.233   3.854   4.391  0.8889  0.0338 -0.0777
  540MOL0     H72868  -2.423   3.802   4.245  1.1289  0.1772  0.8013
  540MOL0     H72869  -2.482   3.924   4.355 -0.5265  2.5708 -1.6537
  540MOL0     H72870  -2.432   3.927   4.062 -1.2256  1.0664 -1.3781
  540MOL0     H72871  -2.417   4.083   4.150 -2.0565  0.6858  0.5746
  540MOL0     H72872  -2.655   3.897   4.189 -0.0778 -0.4378 -0.0509
  540MOL0     H72873  -2.642   4.068   4.239 -4.2157  0.0133 -0.9323
  540MOL0     H72874  -2.650   4.018   3.947  1.1010 -0.4051 -0.1534
  540MOL0     H72875  -2.644   4.164   4.034  2.7073 -1.4620 -3.7814
  540MOL0     H72876  -2.878   3.973   4.037 -2.1271  0.4777  4.1433
  540MOL0     H72877  -2.857   4.112   4.149  3.0121 -1.8404  1.5148
  540MOL0     H72878  -2.860   4.136   3.846  0.1021 -0.1419 -0.1286
  540MOL0     H72879  -2.844   4.268   3.975  1.1681 -1.2300  2.8679
  540MOL0     H72880  -3.088   4.097   3.898 -0.3027 -1.1321 -0.3749
  540MOL0     H72881  -3.062   4.268   3.873  1.7847 -1.0193 -1.2696
  540MOL0     H72882  -2.023   3.951   4.443  0.5919  0.8315 -0.5125
  540MOL0     H72883  -1.812   4.076   4.458 -0.7893 -2.4331 -1.3681
  540MOL0     H72884  -1.669   4.533   4.498  1.4120  1.2521  1.3333
  540MOL0     H72885  -1.498   4.651   4.536 -2.3327 -2.1578  1.1396
  540MOL0     H72886   0.660   4.433   4.626 -1.8122  1.8856 -1.2262
  540MOL0     H72887   0.822   4.280   4.536  0.7066 -1.2999 -1.5129
  540MOL0     H72888   1.121   4.157   4.168  0.6318  0.7416  1.2468
  540MOL0     H72889   1.284   4.001   4.129  0.6597  0.8818  0.0655
  540MOL0     H72890   1.449   3.860   4.177  1.2726  0.0989 -1.9996
  540MOL0     H72891   1.482   3.688   4.212 -1.9366 -0.3919  3.1088
  540MOL0     H72892   1.333   3.813   3.978  1.0439  2.5291  1.1906
  540MOL0     H72893   1.366   3.634   4.002  1.8887 -0.0976 -2.5841
  540MOL0     H72894   1.498   3.702   3.824  1.4560  0.9432 -0.7417
  540MOL0     H72895   1.607   3.674   3.953 -0.1078 -1.4497  0.1294
  540MOL0     H72896   1.677   3.868   3.839 -0.0349  1.8188 -0.2540
  540MOL0     H72897   1.601   3.932   3.973  0.7674 -1.6767  0.1268
  540MOL0     H72898   1.322   4.059   3.687 -1.3666 -1.1339  2.6875
  540MOL0     H72899   1.053   3.685   4.326 -2.2322  0.8266 -1.3872
  540MOL0     H72900   0.880   3.850   4.376 -0.8084 -0.1049 -2.3590
  541MOL0     O72901  10.584   3.273   6.794 -0.4485  0.2492 -0.2963
  541MOL0     C72902  10.507   3.365   6.763  0.4872 -0.0974  0.6982
  541MOL0     O72903  10.539   3.498   6.745 -0.0528 -0.6935  0.5046
  541MOL0     C72904  10.663   3.553   6.773 -0.5677  0.6859 -1.0954
  541MOL0     C72905  10.690   3.686   6.734  0.0521 -0.7905  0.0996
  541MOL0     C72906  10.818   3.745   6.746 -0.7530 -0.2841 -0.5075
  541MOL0     C72907  10.926   3.666   6.771 -0.2796  0.7459 -0.3103
  541MOL0     O72908  11.055   3.712   6.745  0.5801  0.6038 -0.0840
  541MOL0     C72909  11.165   3.684   6.834 -1.0476  0.4290  0.1204
  541MOL0     C72910  11.280   3.784   6.799  0.2401 -0.4643  0.1201
  541MOL0     C72911  11.240   3.926   6.852 -0.4118 -0.7204  0.3717
  541MOL0     C72912  11.332   4.036   6.800  0.2912  0.1772 -0.2170
  541MOL0     C72913  11.289   4.177   6.851 -0.0569 -0.7851  0.6318
  541MOL0     C72914  11.395   4.286   6.835 -0.4010  0.1023 -0.5850
  541MOL0     C72915  11.454   4.303   6.699 -0.1202  0.7495  0.2457
  541MOL0     C72916  11.502   4.436   6.662  0.4388  0.2156 -0.2589
  541MOL0     N72917  11.497   4.457   6.518 -0.1292 -0.5232 -0.2348
  541MOL0     C72918  11.381   4.510   6.450 -0.6062 -0.2059 -0.4219
  541MOL0     C72919  11.415   4.499   6.322  0.0019  0.6856  0.2466
  541MOL0     C72920  11.338   4.563   6.210 -0.2312  1.1432 -0.8423
  541MOL0     C72921  11.223   4.479   6.171 -0.9597  0.2841 -0.5723
  541MOL0     C72922  11.184   4.476   6.023 -0.0023 -0.3778 -0.2316
  541MOL0     C72923  11.030   4.469   6.003 -0.3347 -0.1727 -0.2217
  541MOL0     O72924  10.990   4.604   6.018 -0.2287  1.3315  0.3485
  541MOL0     C72925  10.908   4.640   6.116 -0.3753  0.0315  0.0408
  541MOL0     C72926  10.809   4.557   6.170  0.0997  0.0506  0.0239
  541MOL0     C72927  10.729   4.592   6.277  0.0576 -0.9659  0.4828
  541MOL0     C72928  10.631   4.484   6.323  0.1165 -0.3062  1.0222
  541MOL0     C72929  10.745   4.719   6.342 -0.1797  0.7246  0.0705
  541MOL0     C72930  10.651   4.779   6.440 -1.5179 -0.5294 -0.4541
  541MOL0     O72931  10.518   4.751   6.424 -0.9283 -0.1137 -0.5695
  541MOL0     C72932  10.424   4.745   6.533  0.5589 -0.9512 -0.2026
  541MOL0     C72933  10.437   4.799   6.668 -0.3115 -0.0359  0.3518
  541MOL0     C72934  10.339   4.781   6.765 -0.0397  0.4119 -0.4125
  541MOL0     C72935  10.223   4.713   6.733  0.2453 -0.3617 -0.8210
  541MOL0     O72936  10.139   4.680   6.839 -0.3266 -0.1298 -0.0520
  541MOL0     C72937  10.070   4.556   6.826  0.0823 -0.5511 -0.0317
  541MOL0     C72938  10.024   4.504   6.962 -0.6127  0.3097 -0.5496
  541MOL0     C72939  10.121   4.413   7.030  0.5132 -0.2808 -0.1370
  541MOL0     C72940  10.065   4.350   7.156 -0.9285 -0.0904 -0.3454
  541MOL0     C72941  10.180   4.303   7.249 -0.0064 -0.1612  0.2630
  541MOL0     C72942  10.241   4.157   7.225  0.2248 -0.1161 -0.2366
  541MOL0     C72943  10.327   4.113   7.342 -0.1957  0.5572 -0.8784
  541MOL0     C72944  10.458   4.186   7.358 -0.4176 -0.2496  0.1651
  541MOL0    Cl72945  10.506   4.169   7.525 -0.3093 -0.0878  0.3836
  541MOL0     C72946  10.208   4.660   6.609 -0.4598 -0.1715  0.4951
  541MOL0     C72947  10.307   4.682   6.508  0.2827  0.0527  0.5841
  541MOL0     O72948  10.704   4.842   6.532  0.1487  0.3700  0.2545
  541MOL0     C72949  10.844   4.800   6.284 -0.0452 -0.1993  1.2076
  541MOL0     C72950  10.926   4.763   6.178 -0.0078  0.4364  0.2272
  541MOL0     N72951  11.526   4.420   6.311  0.0827  0.0567  1.3210
  541MOL0     N72952  11.577   4.400   6.427 -0.3854 -0.5495  0.5560
  541MOL0     C72953  10.906   3.537   6.814 -0.1731  0.7793  1.1012
  541MOL0     C72954  10.779   3.482   6.819  0.6753 -0.0895 -0.4652
  541MOL0     C72955  10.377   3.324   6.732  0.0655  0.5926  0.3003
  541MOL0     C72956  10.332   3.190   6.725 -0.4324  0.1673 -0.6165
  541MOL0     C72957  10.192   3.167   6.698  0.4167  0.1373  0.3977
  541MOL0     C72958  10.110   3.277   6.668  0.1023 -0.0070 -0.2719
  541MOL0     O72959   9.980   3.266   6.629 -0.2763 -0.6464 -0.1424
  541MOL0     C72960   9.905   3.166   6.685 -0.0446  0.0542 -0.0038
  541MOL0     C72961   9.749   3.174   6.657 -0.1325  0.0724 -0.3926
  541MOL0     C72962   9.705   3.186   6.510  0.1177 -0.1621 -0.8034
  541MOL0     C72963   9.552   3.188   6.507  0.3790  0.5103  0.6574
  541MOL0     C72964   9.507   3.196   6.371  0.4595 -0.2393 -0.0236
  541MOL0     C72965   9.469   3.192   6.260 -0.1681 -1.1319  0.3087
  541MOL0     C72966  10.165   3.403   6.668  0.0407 -0.6919 -0.4674
  541MOL0     C72967  10.290   3.434   6.714  0.0212  0.0560 -0.1632
  541MOL0     H72968  10.607   3.744   6.695  0.1196 -0.7030  0.0866
  541MOL0     H72969  10.828   3.849   6.716 -1.6746 -0.2484 -0.7128
  541MOL0     H72970  11.154   3.695   6.943  3.2241  1.5406  0.6393
  541MOL0     H72971  11.197   3.580   6.818 -0.3793  0.1818  2.5447
  541MOL0     H72972  11.375   3.752   6.841 -1.2254 -2.4435  2.1667
  541MOL0     H72973  11.307   3.785   6.693  0.4621  1.3729  0.1666
  541MOL0     H72974  11.135   3.942   6.827 -0.1382 -1.2082 -1.1906
  541MOL0     H72975  11.229   3.922   6.961 -1.1402 -4.0506  0.2765
  541MOL0     H72976  11.435   4.011   6.828  0.6739  0.8452 -0.9567
  541MOL0     H72977  11.325   4.035   6.690  0.0618 -0.6113 -0.1975
  541MOL0     H72978  11.198   4.205   6.798 -0.3218 -1.6809  0.6005
  541MOL0     H72979  11.267   4.178   6.959  2.0025  0.7404  1.0970
  541MOL0     H72980  11.362   4.383   6.872  2.9209  1.5389 -1.0388
  541MOL0     H72981  11.475   4.265   6.907  0.4525  2.3465 -0.7965
  541MOL0     H72982  11.541   4.238   6.685  0.6385  1.9909 -1.1027
  541MOL0     H72983  11.380   4.266   6.628  0.2243 -0.1836  0.3605
  541MOL0     H72984  11.604   4.454   6.698  0.0609  0.2768  0.8425
  541MOL0     H72985  11.435   4.513   6.702  0.6716  1.9286 -2.9426
  541MOL0     H72986  11.296   4.571   6.478 -1.2620 -0.0850 -2.5131
  541MOL0     H72987  11.299   4.662   6.237  0.8148  1.9980 -2.3384
  541MOL0     H72988  11.418   4.584   6.139  2.5034  2.7604  2.4516
  541MOL0     H72989  11.140   4.509   6.235  2.2166  2.2757  3.0111
  541MOL0     H72990  11.253   4.375   6.188  1.4938  0.8540 -1.1250
  541MOL0     H72991  11.219   4.381   5.981 -2.4896 -1.5871  0.2729
  541MOL0     H72992  11.229   4.557   5.965  0.6298 -0.7951 -0.3370
  541MOL0     H72993  10.989   4.389   6.066  0.1466 -2.6988 -2.8640
  541MOL0     H72994  11.018   4.437   5.899  1.3659 -2.4746  0.2092
  541MOL0     H72995  10.787   4.456   6.136 -0.0025 -0.3525  1.2608
  541MOL0     H72996  10.671   4.434   6.411  0.8016 -1.1250  0.2655
  541MOL0     H72997  10.533   4.529   6.337 -0.7334 -1.2507 -1.3004
  541MOL0     H72998  10.628   4.409   6.243  0.5748  0.4277  0.2895
  541MOL0     H72999  10.531   4.843   6.698 -0.6189  0.7937  0.1485
  541MOL0     H73000  10.340   4.838   6.857  0.4856  0.8363 -0.6776
  541MOL0     H73001   9.978   4.585   6.773  0.6879  2.4578  0.3914
  541MOL0     H73002  10.130   4.484   6.769  0.4363  1.2110 -1.9807
  541MOL0     H73003  10.004   4.590   7.027  1.8184 -0.5890  1.5472
  541MOL0     H73004   9.933   4.446   6.943 -0.0251 -0.0324 -2.6330
  541MOL0     H73005  10.210   4.472   7.056 -1.4616  1.8845  2.2403
  541MOL0     H73006  10.154   4.338   6.957  1.2066  0.5876 -0.7344
  541MOL0     H73007  10.000   4.415   7.215 -1.4997 -1.8185  1.0139
  541MOL0     H73008  10.002   4.263   7.136 -1.9370  0.4761  0.2923
  541MOL0     H73009  10.132   4.301   7.347  1.7908 -2.6814  1.1776
  541MOL0     H73010  10.266   4.371   7.250 -0.5317  0.5111  1.1982
  541MOL0     H73011  10.154   4.091   7.233 -2.4101  3.2550  1.6174
  541MOL0     H73012  10.301   4.135   7.136  0.2812  1.5891 -0.6632
  541MOL0     H73013  10.347   4.006   7.331  0.0237  0.6980 -1.9623
  541MOL0     H73014  10.269   4.124   7.434  1.7668 -0.6377  0.5685
  541MOL0     H73015  10.449   4.293   7.333 -0.3334 -0.4631 -0.8336
  541MOL0     H73016  10.534   4.151   7.287 -2.4608  1.0026 -2.8669
  541MOL0     H73017  10.117   4.603   6.590 -1.4789 -0.0188  4.1044
  541MOL0     H73018  10.295   4.647   6.406  1.0980 -0.8648  0.7896
  541MOL0     H73019  10.871   4.900   6.316  1.7772  0.2648 -1.4135
  541MOL0     H73020  10.998   4.838   6.147  0.3229  1.6158  3.5196
  541MOL0     H73021  10.987   3.467   6.827  0.1092  0.9366  0.2706
  541MOL0     H73022  10.774   3.378   6.848  1.2130 -0.4945 -1.7722
  541MOL0     H73023  10.401   3.108   6.742 -3.5102 -2.6318 -0.6765
  541MOL0     H73024  10.143   3.072   6.715 -1.6227  0.4589 -2.9152
  541MOL0     H73025   9.934   3.073   6.635 -0.7353 -0.2231  0.1004
  541MOL0     H73026   9.934   3.163   6.790 -2.9517 -0.2114  0.8849
  541MOL0     H73027   9.725   3.258   6.722  0.2136 -1.2164  1.4928
  541MOL0     H73028   9.697   3.088   6.699  0.7498  0.6514  2.0425
  541MOL0     H73029   9.731   3.097   6.452 -0.2515 -0.0029 -1.2305
  541MOL0     H73030   9.748   3.278   6.468  2.7516 -1.5237 -1.2783
  541MOL0     H73031   9.514   3.281   6.550 -0.3011  1.9331 -2.6554
  541MOL0     H73032   9.507   3.103   6.559 -0.0885  0.3574  0.0192
  541MOL0     H73033   9.454   3.179   6.154  1.9487  2.1079 -0.5071
  541MOL0     H73034  10.089   3.479   6.652 -1.0489 -1.2268  1.7711
  541MOL0     H73035  10.321   3.538   6.706 -0.5369  0.2491  0.1087
  542MOL0     O73036   3.835   0.125   2.353 -0.6633  0.1020 -0.4640
  542MOL0     C73037   3.792   0.233   2.395 -0.8245  1.1858 -0.6722
  542MOL0     O73038   3.865   0.330   2.454 -0.3705  0.5119 -0.3419
  542MOL0     C73039   4.003   0.325   2.457 -0.3706 -0.3793 -0.0835
  542MOL0     C73040   4.083   0.271   2.355 -0.1574  0.2184 -0.5222
  542MOL0     C73041   4.223   0.273   2.356  0.7987  0.0132 -0.3606
  542MOL0     C73042   4.291   0.343   2.455 -0.3176 -0.2418 -0.5636
  542MOL0     O73043   4.428   0.339   2.471 -0.4963  0.4341 -0.2788
  542MOL0     C73044   4.506   0.447   2.514  0.4878 -0.3074  0.6200
  542MOL0     C73045   4.619   0.464   2.417 -0.2855 -0.2434 -0.9134
  542MOL0     C73046   4.730   0.364   2.440  0.6300 -0.2142  0.6964
  542MOL0     C73047   4.838   0.374   2.324  0.7046 -0.3524 -0.0044
  542MOL0     C73048   4.942   0.260   2.335  0.4622  0.0083 -0.2421
  542MOL0     C73049   5.073   0.281   2.258  0.5149 -0.0815  0.1442
  542MOL0     C73050   5.175   0.174   2.298 -0.2631  0.4103  0.0499
  542MOL0     C73051   5.297   0.189   2.205 -0.8382  0.8546 -0.6124
  542MOL0     N73052   5.410   0.263   2.265  0.3143 -0.5244  0.2089
  542MOL0     C73053   5.406   0.397   2.296 -0.2385  0.2152  0.1845
  542MOL0     C73054   5.508   0.409   2.386 -0.2875  0.4025 -0.6329
  542MOL0     C73055   5.540   0.538   2.452  0.0445 -0.3217 -0.2396
  542MOL0     C73056   5.419   0.588   2.540  1.1199 -0.9471  0.0920
  542MOL0     C73057   5.378   0.497   2.652  1.0635 -0.8726 -0.9508
  542MOL0     C73058   5.296   0.572   2.758 -0.7574 -0.3714  1.0300
  542MOL0     O73059   5.181   0.624   2.702 -0.0438  0.1824  0.0379
  542MOL0     C73060   5.061   0.598   2.766 -0.0615 -0.5000  0.4918
  542MOL0     C73061   5.006   0.697   2.838 -0.3709  0.2978  0.2353
  542MOL0     C73062   4.880   0.683   2.893  0.0107  0.7540 -0.3530
  542MOL0     C73063   4.827   0.803   2.961 -1.1142 -0.3881 -0.4489
  542MOL0     C73064   4.802   0.569   2.877  0.2276 -0.1009 -0.6126
  542MOL0     C73065   4.664   0.546   2.934 -0.8665  0.0289  0.4577
  542MOL0     O73066   4.630   0.413   2.959  0.2100  0.1629 -0.6160
  542MOL0     C73067   4.495   0.382   2.980  0.2230 -0.7155 -0.1760
  542MOL0     C73068   4.424   0.428   3.098  0.1932 -0.5619  0.2056
  542MOL0     C73069   4.294   0.374   3.120 -0.2696 -1.9579  0.6453
  542MOL0     C73070   4.225   0.295   3.033  0.3931 -0.2206  0.4323
  542MOL0     O73071   4.105   0.238   3.060  0.0850  0.5487  0.1846
  542MOL0     C73072   4.021   0.317   3.142 -0.1895  0.0493 -0.2708
  542MOL0     C73073   3.886   0.243   3.152 -0.5041 -0.4052  0.2209
  542MOL0     C73074   3.766   0.338   3.158 -0.1467  0.6894 -0.0094
  542MOL0     C73075   3.630   0.265   3.133 -0.0867 -1.0025 -0.2370
  542MOL0     C73076   3.551   0.331   3.017  0.9069 -1.3329  0.1571
  542MOL0     C73077   3.415   0.259   3.004  0.2541 -0.2008 -0.0006
  542MOL0     C73078   3.361   0.260   2.866 -0.3159  0.4522 -0.0152
  542MOL0     C73079   3.410   0.143   2.777 -0.5579  0.5417  0.4587
  542MOL0    Cl73080   3.325   0.001   2.845 -0.2567 -0.1438 -0.2110
  542MOL0     C73081   4.300   0.251   2.921 -0.1951 -0.0145 -0.0370
  542MOL0     C73082   4.430   0.300   2.890  0.4916  1.3564  0.7708
  542MOL0     O73083   4.577   0.639   2.937 -0.8776 -0.6494  0.1154
  542MOL0     C73084   4.864   0.466   2.802 -0.8727 -0.0841  0.0518
  542MOL0     C73085   4.985   0.480   2.740  0.2706 -0.1497  0.1507
  542MOL0     N73086   5.568   0.283   2.408 -0.6687  0.4777 -0.1952
  542MOL0     N73087   5.506   0.190   2.336  0.5256  0.2177 -0.3256
  542MOL0     C73088   4.215   0.403   2.558 -0.0932 -0.3866  0.1193
  542MOL0     C73089   4.073   0.400   2.558 -0.0803 -0.3910  0.5613
  542MOL0     C73090   3.647   0.231   2.401  0.3259  0.9476 -0.8350
  542MOL0     C73091   3.578   0.119   2.354  0.5009 -0.4172 -0.0966
  542MOL0     C73092   3.433   0.123   2.365 -0.3508  0.2187 -0.3074
  542MOL0     C73093   3.364   0.236   2.420 -0.0316  0.7128  0.2684
  542MOL0     O73094   3.230   0.237   2.420  0.6042 -0.4776  0.2890
  542MOL0     C73095   3.143   0.352   2.454 -0.5704  0.6980 -1.2343
  542MOL0     C73096   3.124   0.453   2.334 -0.3593 -0.6014  0.2021
  542MOL0     C73097   3.059   0.394   2.207 -0.9475 -0.9656 -0.5949
  542MOL0     C73098   2.919   0.342   2.235  0.1716 -0.1250  0.5740
  542MOL0     C73099   2.828   0.452   2.258  0.7190 -0.4962 -0.3662
  542MOL0     C73100   2.774   0.551   2.297 -1.1795 -0.5657  0.1900
  542MOL0     C73101   3.444   0.347   2.470  0.5705  1.4566  0.3416
  542MOL0     C73102   3.586   0.334   2.472  1.0745 -0.9853  0.8042
  542MOL0     H73103   4.042   0.236   2.261  0.7806  2.3863 -1.8192
  542MOL0     H73104   4.272   0.222   2.273  0.4318 -0.4996 -0.2640
  542MOL0     H73105   4.449   0.541   2.511  2.2652  0.8240  1.2004
  542MOL0     H73106   4.546   0.419   2.611 -0.3197 -1.6657  0.5892
  542MOL0     H73107   4.579   0.471   2.315 -1.9341  1.1650 -0.1993
  542MOL0     H73108   4.656   0.565   2.432  1.5252 -0.8544 -1.0037
  542MOL0     H73109   4.781   0.383   2.536  0.8766  0.0438  0.5151
  542MOL0     H73110   4.695   0.261   2.447  1.3565 -0.5177  0.0134
  542MOL0     H73111   4.793   0.376   2.224 -1.7197  0.6450  1.0019
  542MOL0     H73112   4.898   0.464   2.341  1.4244 -0.1351 -3.1420
  542MOL0     H73113   4.955   0.248   2.443 -2.3736 -0.5572  0.0937
  542MOL0     H73114   4.900   0.168   2.296  0.7121 -0.1512 -0.1375
  542MOL0     H73115   5.048   0.281   2.152 -0.7075  0.5705  0.4180
  542MOL0     H73116   5.118   0.373   2.297 -0.8301 -0.3814  2.6010
  542MOL0     H73117   5.202   0.182   2.403 -0.2471 -1.1718  0.2003
  542MOL0     H73118   5.132   0.073   2.296  1.5343 -0.4931  2.2650
  542MOL0     H73119   5.265   0.236   2.111 -0.1773 -2.1340 -2.4392
  542MOL0     H73120   5.335   0.088   2.189 -0.3495  1.3333 -2.8379
  542MOL0     H73121   5.341   0.478   2.261  0.5421  0.7969  0.0478
  542MOL0     H73122   5.629   0.519   2.513  3.7942 -0.9396 -5.1812
  542MOL0     H73123   5.561   0.618   2.380  0.2408  1.1719  1.4061
  542MOL0     H73124   5.337   0.604   2.470  0.2558 -1.8117  0.8835
  542MOL0     H73125   5.450   0.685   2.580 -1.1783  0.8929 -2.1967
  542MOL0     H73126   5.464   0.459   2.709  0.1649 -0.6824  0.6036
  542MOL0     H73127   5.318   0.416   2.610  0.2847 -0.4210 -0.7323
  542MOL0     H73128   5.341   0.650   2.819 -1.5868 -1.6909  3.4554
  542MOL0     H73129   5.266   0.486   2.817  2.7968 -2.6634 -0.1310
  542MOL0     H73130   5.069   0.783   2.859 -2.2363  1.6501  0.4793
  542MOL0     H73131   4.744   0.843   2.902 -2.0283 -2.1483 -0.4526
  542MOL0     H73132   4.777   0.770   3.053 -1.4045  0.9393 -0.1147
  542MOL0     H73133   4.899   0.882   2.982 -3.0611  1.6922 -1.1920
  542MOL0     H73134   4.478   0.497   3.162 -0.9104 -1.4243  2.1695
  542MOL0     H73135   4.238   0.422   3.200 -1.3769  0.5137 -1.4444
  542MOL0     H73136   4.070   0.332   3.239  1.0260  0.5245 -0.9417
  542MOL0     H73137   4.010   0.414   3.093 -0.7771 -0.5252 -1.3120
  542MOL0     H73138   3.877   0.182   3.061  0.2767  2.0954 -1.6381
  542MOL0     H73139   3.883   0.175   3.238 -0.9665  0.5746  0.9903
  542MOL0     H73140   3.783   0.425   3.094 -0.4337  1.6908  1.2219
  542MOL0     H73141   3.753   0.386   3.256  1.1603 -0.4379  0.7536
  542MOL0     H73142   3.632   0.159   3.110 -0.0874 -1.5723  2.1275
  542MOL0     H73143   3.571   0.282   3.223 -1.7875  1.3141 -1.6503
  542MOL0     H73144   3.605   0.340   2.923 -2.2502 -0.4241 -1.7324
  542MOL0     H73145   3.538   0.434   3.053 -0.1960 -1.1074 -0.8221
  542MOL0     H73146   3.427   0.154   3.033  0.2736  0.1492  1.3112
  542MOL0     H73147   3.340   0.304   3.069 -0.5508 -0.1471 -0.9339
  542MOL0     H73148   3.381   0.352   2.810  1.6133 -0.0107 -0.1438
  542MOL0     H73149   3.252   0.251   2.870 -0.2453 -0.0399  1.3967
  542MOL0     H73150   3.519   0.135   2.782 -0.7686 -4.0750  1.8682
  542MOL0     H73151   3.379   0.165   2.674  0.5987  1.5837  0.2983
  542MOL0     H73152   4.247   0.188   2.850 -0.1825  1.2102 -1.1974
  542MOL0     H73153   4.480   0.271   2.798  0.5835  1.3445  0.8240
  542MOL0     H73154   4.808   0.380   2.767  0.1481  0.2878 -2.7814
  542MOL0     H73155   5.020   0.400   2.676 -2.0944 -1.4555  0.3862
  542MOL0     H73156   4.258   0.464   2.637  0.3264 -0.8573  0.2544
  542MOL0     H73157   4.009   0.448   2.631  2.8875  0.0389  3.0910
  542MOL0     H73158   3.627   0.045   2.292  3.1378  2.7031 -2.0563
  542MOL0     H73159   3.388   0.036   2.320  2.6928 -1.0506 -1.1258
  542MOL0     H73160   3.048   0.309   2.488  1.0354 -2.3190 -0.2899
  542MOL0     H73161   3.183   0.414   2.535  0.5546  1.3865 -2.2763
  542MOL0     H73162   3.218   0.495   2.298 -1.2438  0.5983 -0.7980
  542MOL0     H73163   3.064   0.535   2.376  1.1261  0.0778  1.0743
  542MOL0     H73164   3.127   0.311   2.187  0.6906  0.2366 -0.1651
  542MOL0     H73165   3.066   0.465   2.123  0.9293  1.4496  1.4470
  542MOL0     H73166   2.921   0.277   2.322 -0.4680 -0.6433  0.2052
  542MOL0     H73167   2.882   0.282   2.152 -0.3693  2.0684 -0.8634
  542MOL0     H73168   2.711   0.635   2.320  0.4706  0.1414  2.4934
  542MOL0     H73169   3.385   0.429   2.511 -3.1138 -0.3859 -0.8843
  542MOL0     H73170   3.644   0.422   2.497  3.7827 -2.3925 -0.1364
  543MOL0     O73171   3.888   5.533   7.710  0.6879  0.7709 -0.6121
  543MOL0     C73172   3.805   5.553   7.622 -1.2666  0.4828 -0.0505
  543MOL0     O73173   3.667   5.540   7.628 -0.2917 -0.5908  0.5973
  543MOL0     C73174   3.609   5.494   7.737  0.6580  0.4675  0.6554
  543MOL0     C73175   3.654   5.389   7.817 -0.7984  0.7397 -1.3061
  543MOL0     C73176   3.582   5.333   7.919  0.6038 -0.2829  0.0386
  543MOL0     C73177   3.452   5.384   7.941 -0.3570  1.2373 -0.9987
  543MOL0     O73178   3.390   5.322   8.050  0.0162 -0.6975 -0.7177
  543MOL0     C73179   3.296   5.388   8.136  0.5512 -0.7199 -0.4569
  543MOL0     C73180   3.217   5.288   8.218  0.0440 -0.1079  0.4459
  543MOL0     C73181   3.304   5.212   8.321  0.4877  0.6344 -0.4104
  543MOL0     C73182   3.312   5.264   8.466  0.8468  0.5650  1.1359
  543MOL0     C73183   3.173   5.278   8.538  0.1172 -0.7540  0.2357
  543MOL0     C73184   3.084   5.146   8.553 -0.6086 -0.3749  0.4102
  543MOL0     C73185   2.962   5.183   8.639  0.0006  0.5358 -0.8298
  543MOL0     C73186   2.869   5.055   8.656  0.7853 -0.0398  0.0132
  543MOL0     N73187   2.764   5.089   8.755  0.2062  0.6287 -0.3110
  543MOL0     C73188   2.646   5.019   8.768 -0.5337  0.4710  0.1504
  543MOL0     C73189   2.575   5.088   8.865  0.5483 -0.0647 -0.2756
  543MOL0     C73190   2.438   5.054   8.910 -0.0284 -0.1152 -0.8224
  543MOL0     C73191   2.322   5.107   8.833 -0.3550 -0.3589 -0.0046
  543MOL0     C73192   2.351   5.249   8.799  0.6673  0.8832 -0.2003
  543MOL0     C73193   2.225   5.317   8.745  0.6396  0.2016  0.5175
  543MOL0     O73194   2.279   5.437   8.696  0.7229 -0.4151  0.4880
  543MOL0     C73195   2.183   5.534   8.689  0.8559 -0.5873 -0.1748
  543MOL0     C73196   2.072   5.511   8.600 -0.9321  0.1758 -1.1792
  543MOL0     C73197   1.972   5.608   8.579  0.6991 -0.4560 -0.3258
  543MOL0     C73198   1.864   5.577   8.473 -0.3570  0.3576  0.6936
  543MOL0     C73199   1.979   5.734   8.644 -0.7995 -0.2482  0.7709
  543MOL0     C73200   1.870   5.841   8.623 -0.4356 -0.6394 -0.0992
  543MOL0     O73201   1.873   5.939   8.717  0.4724  0.2887  0.4614
  543MOL0     C73202   1.768   6.029   8.722 -0.3509  0.7241 -0.3469
  543MOL0     C73203   1.638   5.988   8.752  1.2027 -0.2961  0.2274
  543MOL0     C73204   1.537   6.082   8.768  0.4323  0.5648  0.4896
  543MOL0     C73205   1.570   6.225   8.761 -0.4511  0.9930  0.1743
  543MOL0     O73206   1.483   6.333   8.784  0.3652  0.3529 -0.6234
  543MOL0     C73207   1.339   6.302   8.795  0.2028  0.4790 -0.3777
  543MOL0     C73208   1.254   6.428   8.766 -0.8060 -0.6868 -0.1703
  543MOL0     C73209   1.101   6.401   8.747 -0.2377 -0.4447 -0.1028
  543MOL0     C73210   1.034   6.399   8.890 -0.4365  0.9824 -0.5847
  543MOL0     C73211   0.887   6.364   8.880 -0.5521  0.4164  0.2825
  543MOL0     C73212   0.809   6.423   9.009  0.2277 -0.2222  0.9389
  543MOL0     C73213   0.666   6.422   8.969 -0.7184 -0.2192  0.4138
  543MOL0     C73214   0.561   6.453   9.077 -0.4328 -0.9828 -0.1454
  543MOL0    Cl73215   0.415   6.536   9.011  0.1799 -0.4163 -0.2523
  543MOL0     C73216   1.702   6.262   8.732  0.5336  0.4464  0.0745
  543MOL0     C73217   1.799   6.165   8.719 -0.6408 -0.1043 -0.0300
  543MOL0     O73218   1.784   5.827   8.538 -0.2519 -0.4924  0.2043
  543MOL0     C73219   2.086   5.754   8.744 -0.3159  0.4949 -0.2051
  543MOL0     C73220   2.184   5.651   8.767  0.0890  0.2228  0.0090
  543MOL0     N73221   2.651   5.198   8.904 -0.0375  0.2485  0.6084
  543MOL0     N73222   2.766   5.198   8.841  0.1252 -0.5113 -0.1450
  543MOL0     C73223   3.397   5.484   7.860 -0.6332  0.4986  0.3212
  543MOL0     C73224   3.479   5.532   7.752  0.5524  0.2122  0.3775
  543MOL0     C73225   3.858   5.600   7.488 -0.2473  0.1976  0.1419
  543MOL0     C73226   3.776   5.633   7.382 -0.8355 -0.1335  0.1897
  543MOL0     C73227   3.829   5.656   7.254 -0.7854 -0.5714 -0.5000
  543MOL0     C73228   3.966   5.671   7.244  0.2034 -0.4306  0.4714
  543MOL0     O73229   4.002   5.713   7.116  0.2291 -0.5530  0.1460
  543MOL0     C73230   4.130   5.686   7.053  0.9531 -0.0181  0.0406
  543MOL0     C73231   4.222   5.807   7.049 -0.3960  0.1666 -0.3409
  543MOL0     C73232   4.284   5.845   7.184 -0.3952  0.2016 -0.9131
  543MOL0     C73233   4.404   5.948   7.166  0.6369  0.6700  0.2490
  543MOL0     C73234   4.501   5.948   7.278 -0.2156  1.0389  0.5968
  543MOL0     C73235   4.586   5.948   7.370 -0.1150  0.3907  0.1636
  543MOL0     C73236   4.053   5.631   7.348 -0.9285  0.3344  0.1266
  543MOL0     C73237   3.995   5.601   7.470 -0.0532 -0.3608 -0.1317
  543MOL0     H73238   3.754   5.350   7.797 -0.3623  2.4553 -2.7739
  543MOL0     H73239   3.623   5.254   7.983  0.0865  0.5811  1.4792
  543MOL0     H73240   3.349   5.451   8.208  1.3458 -1.2048 -0.6007
  543MOL0     H73241   3.227   5.448   8.077  0.9827  0.1851 -0.0549
  543MOL0     H73242   3.131   5.339   8.263 -2.1894 -1.8438 -1.5651
  543MOL0     H73243   3.158   5.227   8.148 -4.0458  4.6949 -0.8901
  543MOL0     H73244   3.260   5.113   8.335 -1.2628  1.5656  1.1424
  543MOL0     H73245   3.405   5.203   8.279 -0.0241 -1.8691 -1.3138
  543MOL0     H73246   3.361   5.180   8.516  0.1423 -1.2167 -0.9930
  543MOL0     H73247   3.372   5.355   8.470 -0.7266  1.8166 -1.2680
  543MOL0     H73248   3.201   5.303   8.641  0.3116 -0.6038  0.1450
  543MOL0     H73249   3.112   5.349   8.481 -1.6323 -3.7590 -1.9298
  543MOL0     H73250   3.041   5.133   8.453  1.1673 -0.0228 -0.4452
  543MOL0     H73251   3.139   5.062   8.596  2.0420  0.8601 -0.3971
  543MOL0     H73252   3.007   5.213   8.733  0.0269  2.9468 -1.5493
  543MOL0     H73253   2.918   5.275   8.599  1.8724  0.2067 -3.9904
  543MOL0     H73254   2.917   4.971   8.706 -2.2453 -2.1181 -0.2537
  543MOL0     H73255   2.826   5.024   8.560 -0.2154  2.6195 -0.4730
  543MOL0     H73256   2.615   4.933   8.710  0.8844 -0.9112  1.3597
  543MOL0     H73257   2.424   4.945   8.909 -0.4331 -0.2997  3.5590
  543MOL0     H73258   2.430   5.084   9.015 -0.0303 -0.7101 -0.6462
  543MOL0     H73259   2.225   5.096   8.883 -0.1308  0.2226  0.5602
  543MOL0     H73260   2.331   5.047   8.742  1.9757 -1.0330  0.6050
  543MOL0     H73261   2.431   5.255   8.726  1.0132  3.3113  0.3160
  543MOL0     H73262   2.379   5.301   8.891  0.9895 -0.6184  0.5861
  543MOL0     H73263   2.151   5.332   8.824  0.8596 -1.9674  1.1896
  543MOL0     H73264   2.186   5.262   8.659  0.6886  0.8039  0.0985
  543MOL0     H73265   2.080   5.423   8.538 -1.5854 -2.2420  1.8859
  543MOL0     H73266   1.760   5.579   8.508 -1.3736 -1.2835 -1.9878
  543MOL0     H73267   1.865   5.646   8.388 -0.3240  1.9234  1.9139
  543MOL0     H73268   1.886   5.477   8.435  1.3275  0.9007  0.1573
  543MOL0     H73269   1.612   5.883   8.754 -0.0075 -0.1736 -2.8345
  543MOL0     H73270   1.437   6.043   8.785  1.1452 -1.6120  0.1088
  543MOL0     H73271   1.319   6.228   8.718  2.4119  0.4589 -0.9942
  543MOL0     H73272   1.316   6.260   8.894 -1.1529  0.5631 -0.6399
  543MOL0     H73273   1.250   6.506   8.842 -2.4569 -0.8269 -0.0865
  543MOL0     H73274   1.302   6.474   8.679  0.9789 -0.9063  0.6517
  543MOL0     H73275   1.081   6.308   8.693 -4.2424  0.1070  0.1638
  543MOL0     H73276   1.054   6.486   8.697  1.0693  0.3611 -0.0061
  543MOL0     H73277   1.088   6.320   8.943 -0.4725  2.2308  1.4027
  543MOL0     H73278   1.054   6.492   8.944 -0.2025 -1.5122  4.1607
  543MOL0     H73279   0.871   6.259   8.856  1.1452  0.1648  0.1280
  543MOL0     H73280   0.850   6.421   8.794  4.7974  2.2829 -1.1490
  543MOL0     H73281   0.821   6.356   9.095 -0.0282 -1.6961 -0.1163
  543MOL0     H73282   0.838   6.526   9.030  4.3110 -1.2164  1.0406
  543MOL0     H73283   0.649   6.328   8.914 -2.9218 -2.4829  4.4630
  543MOL0     H73284   0.652   6.491   8.886 -4.2507 -2.9010 -1.4937
  543MOL0     H73285   0.608   6.520   9.151 -2.3421 -1.0388  1.1934
  543MOL0     H73286   0.536   6.362   9.132 -1.4997  0.9566  2.8487
  543MOL0     H73287   1.722   6.369   8.724 -0.6329  0.5142 -2.9652
  543MOL0     H73288   1.899   6.190   8.684 -1.5407  0.5683 -2.3450
  543MOL0     H73289   2.096   5.840   8.809 -2.7197  0.3088  0.5054
  543MOL0     H73290   2.268   5.656   8.835  2.5269 -0.0320 -2.7782
  543MOL0     H73291   3.292   5.510   7.870 -0.0920  2.5081  1.4995
  543MOL0     H73292   3.428   5.593   7.679  0.3126 -0.3911  0.0271
  543MOL0     H73293   3.670   5.640   7.402 -0.8164 -0.6074  0.4722
  543MOL0     H73294   3.769   5.669   7.164  1.3595 -2.0391 -2.2500
  543MOL0     H73295   4.166   5.602   7.114 -0.4669 -0.4264  0.3647
  543MOL0     H73296   4.115   5.650   6.951  1.0484  1.9924 -0.7300
  543MOL0     H73297   4.166   5.886   6.999  1.6598  2.3601  0.6276
  543MOL0     H73298   4.307   5.786   6.983  1.0900 -2.6530  2.2067
  543MOL0     H73299   4.330   5.757   7.232 -0.6550  0.2465 -0.5731
  543MOL0     H73300   4.211   5.884   7.255 -1.1755  0.9871 -2.1189
  543MOL0     H73301   4.367   6.051   7.156 -0.5587  0.0380 -2.7747
  543MOL0     H73302   4.454   5.927   7.071  0.1951 -2.4507  0.6006
  543MOL0     H73303   4.654   5.934   7.452  0.1191 -1.5335 -0.3150
  543MOL0     H73304   4.161   5.622   7.337 -0.7026  1.8848  0.7918
  543MOL0     H73305   4.057   5.572   7.554  2.5738  4.9632  0.1490
  544MOL0     O73306   1.307   8.269   9.388 -0.3792 -0.2152 -0.9344
  544MOL0     C73307   1.285   8.257   9.266  0.8113 -0.2544 -0.8085
  544MOL0     O73308   1.163   8.229   9.212 -0.6488 -0.4343 -0.5892
  544MOL0     C73309   1.045   8.212   9.282 -0.2955 -0.0104  0.1102
  544MOL0     C73310   1.030   8.208   9.424 -0.0166 -0.3804 -0.4911
  544MOL0     C73311   0.904   8.176   9.480 -0.0151  0.6986  0.1224
  544MOL0     C73312   0.792   8.141   9.414  0.4460 -0.1254  0.1359
  544MOL0     O73313   0.685   8.115   9.494  0.2706  0.0500 -0.4445
  544MOL0     C73314   0.549   8.119   9.433  0.4587  0.2430  0.2157
  544MOL0     C73315   0.454   8.039   9.511  0.1936 -0.4118  0.6851
  544MOL0     C73316   0.462   7.884   9.467  0.8019 -0.6509 -0.2407
  544MOL0     C73317   0.362   7.803   9.562 -0.7824 -0.5803 -0.0378
  544MOL0     C73318   0.329   7.669   9.505  0.6561  0.6065 -0.6593
  544MOL0     C73319   0.439   7.574   9.461 -0.6454 -0.0186 -0.4495
  544MOL0     C73320   0.550   7.529   9.563 -0.2505  0.0884 -0.0268
  544MOL0     C73321   0.656   7.444   9.486  0.3219  0.8039  0.1590
  544MOL0     N73322   0.731   7.519   9.381  0.5571 -0.0522 -0.2710
  544MOL0     C73323   0.766   7.653   9.397 -0.2504  0.0448 -0.3499
  544MOL0     C73324   0.832   7.677   9.280 -0.6484  0.8791 -0.4881
  544MOL0     C73325   0.913   7.797   9.231  0.5819  0.0152  1.5838
  544MOL0     C73326   1.018   7.831   9.340  0.1653 -0.0036  0.6306
  544MOL0     C73327   1.128   7.737   9.378  0.0517  0.2105 -0.9992
  544MOL0     C73328   1.218   7.690   9.256 -0.1608 -0.5438  0.5412
  544MOL0     O73329   1.282   7.801   9.189  0.4151 -0.8337 -0.5101
  544MOL0     C73330   1.392   7.782   9.109  0.1370 -1.1106 -0.4903
  544MOL0     C73331   1.457   7.666   9.069  0.1289 -0.2670 -0.6702
  544MOL0     C73332   1.575   7.654   8.991 -0.6507 -0.2711  0.8229
  544MOL0     C73333   1.631   7.513   8.953 -0.0861  0.6080  0.4336
  544MOL0     C73334   1.653   7.776   8.970 -0.7527  0.2230  0.2177
  544MOL0     C73335   1.776   7.787   8.895 -0.3162  0.0490  0.3525
  544MOL0     O73336   1.867   7.880   8.935  0.4154  0.1235  0.1304
  544MOL0     C73337   1.991   7.904   8.875 -0.2047  0.8901 -0.5353
  544MOL0     C73338   2.008   7.935   8.738  0.0135 -0.8099  1.0465
  544MOL0     C73339   2.133   7.979   8.687  0.2973 -0.5119  0.8042
  544MOL0     C73340   2.236   8.000   8.772  0.0410  0.8149  0.0091
  544MOL0     O73341   2.359   8.047   8.738  1.0584 -0.1956 -0.4112
  544MOL0     C73342   2.450   8.107   8.837  0.3670  0.2667  0.9038
  544MOL0     C73343   2.531   8.224   8.781  1.0688  0.8673  0.2101
  544MOL0     C73344   2.638   8.252   8.878 -0.3257  1.0061 -0.9627
  544MOL0     C73345   2.692   8.390   8.847 -0.5609 -0.3474 -0.1603
  544MOL0     C73346   2.844   8.402   8.883  0.3210  0.3656  0.0609
  544MOL0     C73347   2.864   8.407   9.036  0.4603  0.1066 -0.1505
  544MOL0     C73348   3.018   8.437   9.065 -0.7748  0.0730 -0.0774
  544MOL0     C73349   3.047   8.579   9.115 -0.1197  0.0860  0.8788
  544MOL0    Cl73350   3.220   8.621   9.118 -0.4266 -0.0232 -0.0674
  544MOL0     C73351   2.216   7.943   8.906 -0.1642 -0.2660  0.4284
  544MOL0     C73352   2.096   7.910   8.961 -0.7625  0.7165 -0.8443
  544MOL0     O73353   1.789   7.704   8.802  0.3748  0.7628 -0.3300
  544MOL0     C73354   1.594   7.893   9.023  0.3671  0.4760  0.6596
  544MOL0     C73355   1.472   7.898   9.096  0.5166 -0.6774  0.1966
  544MOL0     N73356   0.836   7.557   9.204 -0.3912  0.3862  0.6951
  544MOL0     N73357   0.778   7.464   9.264 -0.4860  0.3671 -0.3002
  544MOL0     C73358   0.802   8.146   9.271 -0.3099 -0.0990 -0.4416
  544MOL0     C73359   0.924   8.186   9.208  0.6091  0.7869 -0.0281
  544MOL0     C73360   1.393   8.265   9.177  0.4469 -0.1640 -0.2114
  544MOL0     C73361   1.518   8.313   9.211 -0.4231  0.4514 -0.0307
  544MOL0     C73362   1.616   8.335   9.115  0.0912 -0.2686  0.5896
  544MOL0     C73363   1.597   8.293   8.985 -0.6357 -0.0297  0.5379
  544MOL0     O73364   1.692   8.319   8.884  0.5005 -0.5428  0.3920
  544MOL0     C73365   1.826   8.365   8.909 -0.0375  0.6380  0.1217
  544MOL0     C73366   1.931   8.269   8.966  0.0906 -0.5778  0.6697
  544MOL0     C73367   2.062   8.338   8.985  0.3239 -0.0899 -1.2321
  544MOL0     C73368   2.138   8.368   8.856  0.3001  0.4594 -0.1066
  544MOL0     C73369   2.233   8.470   8.886  0.4689 -0.0442 -0.4279
  544MOL0     C73370   2.320   8.546   8.924 -0.1578 -0.0436 -0.2325
  544MOL0     C73371   1.471   8.252   8.945 -0.4062 -0.4324  0.7807
  544MOL0     C73372   1.368   8.243   9.037  0.0997 -0.0927  0.1452
  544MOL0     H73373   1.108   8.212   9.499 -3.0162  2.4891  2.8191
  544MOL0     H73374   0.907   8.167   9.588 -0.8816 -2.9589 -0.0141
  544MOL0     H73375   0.503   8.218   9.433 -1.5648 -0.6301  1.3190
  544MOL0     H73376   0.551   8.088   9.329 -0.4403  1.3975 -0.1632
  544MOL0     H73377   0.484   8.043   9.616  0.1141  1.0923  0.6751
  544MOL0     H73378   0.353   8.079   9.497 -1.2032 -4.3386 -2.4865
  544MOL0     H73379   0.426   7.885   9.364 -0.5901  1.5020  0.2166
  544MOL0     H73380   0.567   7.854   9.472  1.0872 -0.7993 -4.0718
  544MOL0     H73381   0.414   7.801   9.658 -0.9198 -0.6262  0.0347
  544MOL0     H73382   0.272   7.861   9.580  1.3547  2.9779  0.0406
  544MOL0     H73383   0.282   7.619   9.590  1.1766  1.6325  0.2462
  544MOL0     H73384   0.264   7.686   9.418  2.7217  0.3189 -2.3443
  544MOL0     H73385   0.396   7.474   9.445  2.8220 -1.8484  0.5882
  544MOL0     H73386   0.489   7.616   9.373  0.9549 -0.4209  0.2305
  544MOL0     H73387   0.595   7.616   9.611 -1.0671 -0.3150  1.5219
  544MOL0     H73388   0.522   7.471   9.651  0.8038  0.5002  0.5985
  544MOL0     H73389   0.600   7.361   9.444 -0.2752  0.0042  2.3865
  544MOL0     H73390   0.741   7.401   9.540 -0.6994 -1.2517  0.2194
  544MOL0     H73391   0.743   7.726   9.474  0.7628  3.5629 -3.1342
  544MOL0     H73392   0.968   7.772   9.140 -0.3508 -0.8734  1.2416
  544MOL0     H73393   0.848   7.880   9.202  2.1558 -0.0359 -2.8333
  544MOL0     H73394   0.959   7.850   9.430 -0.8535  0.1468 -0.0549
  544MOL0     H73395   1.055   7.927   9.303  0.3440 -1.6358 -4.0362
  544MOL0     H73396   1.088   7.655   9.438 -1.6460 -0.6361 -3.1856
  544MOL0     H73397   1.201   7.789   9.442 -1.7449 -1.8821  3.1262
  544MOL0     H73398   1.157   7.641   9.181 -1.1884  2.8314 -1.0317
  544MOL0     H73399   1.295   7.620   9.290  2.0784  0.7782 -1.4813
  544MOL0     H73400   1.403   7.572   9.072 -0.8352  0.2919  0.4038
  544MOL0     H73401   1.634   7.497   8.845  0.0535 -2.5266  0.7815
  544MOL0     H73402   1.731   7.496   8.995  0.8869  0.8957 -1.6548
  544MOL0     H73403   1.553   7.441   8.979 -0.8323  0.5838 -1.6485
  544MOL0     H73404   1.924   7.924   8.671  0.8028 -2.1883  0.2275
  544MOL0     H73405   2.145   8.012   8.584 -0.1532  0.5222  1.0677
  544MOL0     H73406   2.388   8.139   8.921  0.6539  0.0101  1.2181
  544MOL0     H73407   2.516   8.028   8.874 -0.3805 -0.9029 -0.1688
  544MOL0     H73408   2.569   8.196   8.683 -0.9467 -3.2954  0.3657
  544MOL0     H73409   2.465   8.309   8.763  0.3852  0.3392  0.1507
  544MOL0     H73410   2.704   8.165   8.870 -2.8050 -0.8561 -2.5863
  544MOL0     H73411   2.601   8.248   8.980 -0.5906 -1.6202 -1.0805
  544MOL0     H73412   2.688   8.416   8.741 -0.3168 -2.6565 -0.7923
  544MOL0     H73413   2.636   8.473   8.891  0.3826  0.0739  0.2567
  544MOL0     H73414   2.871   8.501   8.845  0.8099  0.4885  0.7148
  544MOL0     H73415   2.897   8.323   8.828 -2.7876 -1.5449 -0.4349
  544MOL0     H73416   2.799   8.483   9.081  2.0092  1.9154 -0.8603
  544MOL0     H73417   2.837   8.312   9.083  1.0390  1.2913  2.8187
  544MOL0     H73418   3.073   8.416   8.973 -0.5844  1.0106 -0.1901
  544MOL0     H73419   3.051   8.372   9.146 -0.9680  1.9536  1.5945
  544MOL0     H73420   3.003   8.576   9.215 -1.3954 -1.6357  0.3330
  544MOL0     H73421   3.001   8.659   9.057 -1.0512 -1.9005 -1.3125
  544MOL0     H73422   2.304   7.929   8.967  1.4314  0.7314 -1.5070
  544MOL0     H73423   2.081   7.893   9.068  1.0537 -0.9344 -0.7994
  544MOL0     H73424   1.652   7.983   9.002  1.7777 -0.5664 -0.0211
  544MOL0     H73425   1.432   7.989   9.138  0.4992 -0.6058  0.0234
  544MOL0     H73426   0.710   8.131   9.216 -1.8613  3.4098  0.9087
  544MOL0     H73427   0.929   8.178   9.100 -2.4230 -1.5409 -0.1323
  544MOL0     H73428   1.556   8.330   9.311  1.6655 -0.2442 -0.6383
  544MOL0     H73429   1.707   8.380   9.154  1.4843 -1.2406 -1.3854
  544MOL0     H73430   1.869   8.410   8.818 -1.2923  1.9926  0.1570
  544MOL0     H73431   1.834   8.449   8.979  0.7916  1.3308 -0.7662
  544MOL0     H73432   1.954   8.201   8.884  1.2497 -0.0037  0.5050
  544MOL0     H73433   1.904   8.210   9.054  1.2265 -2.1328  0.0065
  544MOL0     H73434   2.123   8.266   9.040 -2.0775 -1.6057 -0.3778
  544MOL0     H73435   2.050   8.429   9.044 -4.6172 -0.8666 -0.5667
  544MOL0     H73436   2.081   8.412   8.774 -1.1065  1.8493  1.5317
  544MOL0     H73437   2.196   8.286   8.812  1.5814  2.3153 -2.0767
  544MOL0     H73438   2.391   8.602   8.981  0.2740 -1.0164  0.2230
  544MOL0     H73439   1.453   8.226   8.841 -2.6251  0.7612  0.7969
  544MOL0     H73440   1.270   8.210   9.004 -0.5036 -1.0870  2.6745
  545MOL0     O73441   6.676   6.229   9.573 -0.5645  0.5426  0.1096
  545MOL0     C73442   6.709   6.259   9.463  0.6548  0.3875 -0.3074
  545MOL0     O73443   6.627   6.252   9.356  0.3383  0.6634  0.8884
  545MOL0     C73444   6.496   6.209   9.369 -0.4351 -0.0072  0.4974
  545MOL0     C73445   6.394   6.311   9.372 -0.3675 -0.2700 -0.5501
  545MOL0     C73446   6.266   6.269   9.352  0.8008 -0.2345  0.0383
  545MOL0     C73447   6.218   6.136   9.349  0.0976  0.6391 -0.1185
  545MOL0     O73448   6.090   6.091   9.332 -0.6909  0.0516  0.3560
  545MOL0     C73449   5.991   6.189   9.323  0.9392  0.1937  0.2134
  545MOL0     C73450   5.857   6.130   9.285 -1.2511  0.7133  0.1943
  545MOL0     C73451   5.779   6.079   9.407  0.4741  0.4290 -0.3559
  545MOL0     C73452   5.632   6.044   9.345 -0.7470 -0.2176 -0.8741
  545MOL0     C73453   5.585   5.950   9.452 -0.2923  0.4788 -0.3865
  545MOL0     C73454   5.433   5.903   9.449 -0.4037  0.2133  1.1814
  545MOL0     C73455   5.403   5.826   9.583  0.2233 -0.1162  0.3574
  545MOL0     C73456   5.480   5.692   9.594 -0.5082  0.6263  0.1430
  545MOL0     N73457   5.491   5.648   9.732 -0.8207  0.1900  0.5242
  545MOL0     C73458   5.576   5.699   9.818 -0.7560 -0.0841 -0.5024
  545MOL0     C73459   5.546   5.630   9.931  0.3825 -1.1207 -0.7474
  545MOL0     C73460   5.623   5.632  10.059 -0.1838 -0.6168  0.3722
  545MOL0     C73461   5.628   5.503  10.140 -1.1610 -0.6374 -0.3233
  545MOL0     C73462   5.710   5.507  10.262  0.6041  0.5181 -0.6158
  545MOL0     C73463   5.857   5.521  10.232  0.0866 -0.5714  0.5947
  545MOL0     O73464   5.888   5.658  10.211 -0.0682 -0.6082  1.0764
  545MOL0     C73465   6.019   5.697  10.201  0.9524 -0.1437 -0.6737
  545MOL0     C73466   6.075   5.742  10.088  0.9017 -0.8688  0.4836
  545MOL0     C73467   6.208   5.794  10.089 -0.3043  0.3257 -0.6777
  545MOL0     C73468   6.262   5.862   9.964  0.8098  0.0798 -0.0752
  545MOL0     C73469   6.286   5.784  10.209  0.5631  0.2336  0.5436
  545MOL0     C73470   6.429   5.818  10.210  0.0289  0.8016  0.3421
  545MOL0     O73471   6.495   5.817  10.097  0.3812 -0.4274 -0.3801
  545MOL0     C73472   6.611   5.885  10.088  1.1237 -0.3789 -0.0483
  545MOL0     C73473   6.654   5.879   9.958  0.0577 -0.7610 -0.1257
  545MOL0     C73474   6.774   5.936   9.925 -0.4321 -0.1139  0.6236
  545MOL0     C73475   6.866   6.001  10.015 -1.0594  0.4024 -0.5048
  545MOL0     O73476   6.990   6.061   9.993  0.4354  0.1198  0.3421
  545MOL0     C73477   7.031   6.032   9.863  0.4244 -0.2149  0.1692
  545MOL0     C73478   7.171   6.080   9.846  0.8087  0.0027 -0.3755
  545MOL0     C73479   7.230   6.066   9.702 -0.0113  0.1702 -0.1189
  545MOL0     C73480   7.365   6.126   9.683  0.2661 -0.1441  0.0545
  545MOL0     C73481   7.445   6.084   9.557 -0.2877  0.6127  0.8614
  545MOL0     C73482   7.471   5.931   9.523  0.0633 -0.2064  0.0990
  545MOL0     C73483   7.580   5.901   9.424 -0.0700 -0.3238 -0.3086
  545MOL0     C73484   7.554   5.947   9.278  0.9767 -0.2553 -0.4515
  545MOL0    Cl73485   7.398   5.880   9.206 -0.3028 -0.1195  0.0378
  545MOL0     C73486   6.814   6.004  10.151  0.0448 -0.2338 -0.4372
  545MOL0     C73487   6.695   5.947  10.189  0.7406 -0.5393  0.3857
  545MOL0     O73488   6.472   5.853  10.320  0.7835 -0.1280  0.1460
  545MOL0     C73489   6.221   5.729  10.324 -0.5181  0.0664  0.3477
  545MOL0     C73490   6.091   5.687  10.316  0.2263  0.5035 -0.2535
  545MOL0     N73491   5.446   5.530   9.909 -0.0145  0.5767  0.6156
  545MOL0     N73492   5.410   5.547   9.788 -0.3307  0.1356 -0.1301
  545MOL0     C73493   6.317   6.034   9.368  0.4204  0.4202 -0.2275
  545MOL0     C73494   6.460   6.069   9.360  0.3920 -0.1335  0.3797
  545MOL0     C73495   6.853   6.307   9.447 -0.5231 -0.2066 -0.0950
  545MOL0     C73496   6.895   6.340   9.321 -0.5980 -0.4236 -0.2436
  545MOL0     C73497   7.025   6.382   9.304  0.1862 -0.2178  0.2459
  545MOL0     C73498   7.126   6.388   9.405  1.1698  0.9012  0.2855
  545MOL0     O73499   7.253   6.422   9.377 -0.2245 -0.2073  0.1032
  545MOL0     C73500   7.306   6.406   9.249  0.9164  0.2598  0.0973
  545MOL0     C73501   7.371   6.258   9.249 -0.0087 -0.4220  0.2470
  545MOL0     C73502   7.400   6.225   9.101  0.6985 -0.6463 -0.1027
  545MOL0     C73503   7.511   6.300   9.026  0.2458 -0.2568  0.2270
  545MOL0     C73504   7.643   6.289   9.090 -0.5352  1.0898 -1.2832
  545MOL0     C73505   7.757   6.280   9.140  0.4169 -0.0838 -0.9493
  545MOL0     C73506   7.082   6.358   9.537 -0.9950 -0.6307 -0.1736
  545MOL0     C73507   6.949   6.322   9.555 -0.0606  0.3835 -0.5673
  545MOL0     H73508   6.422   6.416   9.375 -2.3682  0.3045  2.4229
  545MOL0     H73509   6.200   6.356   9.350  0.8441 -0.1148 -3.7676
  545MOL0     H73510   5.993   6.235   9.423 -1.0569 -2.6639  1.7194
  545MOL0     H73511   6.006   6.266   9.247 -2.9477 -0.2894 -1.2200
  545MOL0     H73512   5.804   6.215   9.240 -2.2262 -0.2042 -0.4314
  545MOL0     H73513   5.877   6.055   9.208 -0.7528  1.8944 -0.8544
  545MOL0     H73514   5.828   5.989   9.447 -1.2877 -0.7659 -0.8043
  545MOL0     H73515   5.765   6.153   9.487  2.4261 -2.5597  3.0647
  545MOL0     H73516   5.577   6.134   9.321 -2.4016 -0.5504  1.3317
  545MOL0     H73517   5.643   5.988   9.251 -0.1581 -0.2618 -0.7875
  545MOL0     H73518   5.655   5.866   9.447 -1.7500 -1.1346  2.7840
  545MOL0     H73519   5.587   6.010   9.543 -0.5456 -0.8949  0.5685
  545MOL0     H73520   5.361   5.980   9.419  2.7821  2.2286 -2.0070
  545MOL0     H73521   5.419   5.833   9.367  1.4466  0.0186  0.9911
  545MOL0     H73522   5.443   5.888   9.664 -1.7452 -1.8275  2.8155
  545MOL0     H73523   5.295   5.808   9.585 -0.0036  0.5631 -2.2866
  545MOL0     H73524   5.587   5.696   9.568 -0.4451 -2.9452 -0.6429
  545MOL0     H73525   5.429   5.619   9.531 -1.3939  1.6782 -0.3981
  545MOL0     H73526   5.652   5.774   9.798  0.2936 -0.3958  1.9704
  545MOL0     H73527   5.727   5.643  10.026 -0.0532 -0.5530  0.7944
  545MOL0     H73528   5.599   5.717  10.124 -1.0718 -0.3745 -0.2552
  545MOL0     H73529   5.675   5.423  10.082 -0.2692 -1.1218  1.0203
  545MOL0     H73530   5.525   5.473  10.163 -2.0464  2.3860  0.0611
  545MOL0     H73531   5.696   5.418  10.325 -0.7608  1.2544  0.1479
  545MOL0     H73532   5.672   5.591  10.321 -0.7148  0.3323 -1.1728
  545MOL0     H73533   5.883   5.460  10.145  0.6282 -0.4431  0.6692
  545MOL0     H73534   5.918   5.474  10.309  4.7082 -2.1098 -3.4968
  545MOL0     H73535   6.011   5.763  10.003 -1.5518 -1.4531  2.0731
  545MOL0     H73536   6.329   5.946   9.984 -1.1928  1.1309  2.8809
  545MOL0     H73537   6.314   5.788   9.902  0.6662  2.5692 -3.4222
  545MOL0     H73538   6.178   5.902   9.906 -0.7263 -1.4078  1.0163
  545MOL0     H73539   6.592   5.826   9.886  0.3243  0.5175 -1.3504
  545MOL0     H73540   6.789   5.932   9.818 -3.2442  1.3402  0.0853
  545MOL0     H73541   7.035   5.923   9.866 -1.5602 -0.3099  3.2134
  545MOL0     H73542   6.968   6.069   9.782  2.9585  1.5506 -1.1349
  545MOL0     H73543   7.176   6.181   9.886  0.5383 -0.8560  1.9723
  545MOL0     H73544   7.230   6.014   9.911  2.2090  0.8173 -0.7729
  545MOL0     H73545   7.166   6.110   9.625 -2.0624 -0.1678  1.3060
  545MOL0     H73546   7.235   5.964   9.662  1.8940 -0.7515  2.2104
  545MOL0     H73547   7.355   6.234   9.681 -0.2151 -0.1291  1.5761
  545MOL0     H73548   7.427   6.113   9.772  0.7322  1.7101  0.0363
  545MOL0     H73549   7.539   6.139   9.574 -0.9758  2.1617 -0.1115
  545MOL0     H73550   7.393   6.133   9.474 -2.3286  0.9440  2.2594
  545MOL0     H73551   7.513   5.892   9.617 -0.3037  0.5140  0.5713
  545MOL0     H73552   7.376   5.879   9.505 -1.3992  2.9110 -2.0298
  545MOL0     H73553   7.596   5.795   9.405  1.4075 -0.4717  1.4420
  545MOL0     H73554   7.671   5.953   9.457 -0.0463 -1.7736  2.1547
  545MOL0     H73555   7.633   5.917   9.209  1.1776  0.7039 -0.6559
  545MOL0     H73556   7.547   6.056   9.273 -3.1990 -0.2425  1.5699
  545MOL0     H73557   6.875   6.042  10.232  0.6473  1.4319 -1.6167
  545MOL0     H73558   6.678   5.960  10.295 -0.8552 -0.2366  0.1107
  545MOL0     H73559   6.284   5.718  10.412  0.5322 -1.5372 -0.5427
  545MOL0     H73560   6.057   5.636  10.405  3.2724  0.5396  1.0421
  545MOL0     H73561   6.279   5.932   9.368 -0.0370  0.5852  0.1695
  545MOL0     H73562   6.529   5.986   9.374 -0.7173 -1.2794 -0.6323
  545MOL0     H73563   6.831   6.327   9.234  1.2284 -2.4984 -1.3848
  545MOL0     H73564   7.040   6.422   9.204  1.8310 -3.5386 -0.9956
  545MOL0     H73565   7.235   6.419   9.166  3.0887  2.8041 -1.5180
  545MOL0     H73566   7.371   6.490   9.227 -0.6588  0.6475 -4.0352
  545MOL0     H73567   7.297   6.185   9.284  1.9849 -2.5946  0.1965
  545MOL0     H73568   7.462   6.255   9.311 -0.3936 -2.6238  0.7936
  545MOL0     H73569   7.308   6.232   9.042  0.1541  1.5158  0.9228
  545MOL0     H73570   7.430   6.120   9.096 -1.3567 -1.2635 -0.3341
  545MOL0     H73571   7.479   6.402   9.003 -2.2148 -1.4102 -2.0085
  545MOL0     H73572   7.518   6.250   8.929 -1.6272 -0.9202  0.3863
  545MOL0     H73573   7.849   6.271   9.194 -0.1840  0.3888  0.2005
  545MOL0     H73574   7.146   6.361   9.625 -0.6754 -0.8944 -0.3984
  545MOL0     H73575   6.916   6.303   9.657  0.7541  1.3909 -0.0965
  546MOL0     O73576   9.647  10.193   6.302  0.6263  0.4953 -0.7769
  546MOL0     C73577   9.753  10.227   6.351  0.0520  0.2423  0.3095
  546MOL0     O73578   9.763  10.318   6.452 -0.2311  0.7012  1.0430
  546MOL0     C73579   9.644  10.366   6.516 -1.2484  0.1508  0.2381
  546MOL0     C73580   9.648  10.497   6.573  0.3754  0.2985 -0.2045
  546MOL0     C73581   9.550  10.538   6.667 -0.5956  0.1582  0.3151
  546MOL0     C73582   9.427  10.467   6.680 -0.0982 -0.0561 -0.2636
  546MOL0     O73583   9.324  10.519   6.763  0.1250 -0.1214 -0.9216
  546MOL0     C73584   9.229  10.442   6.839  0.1788 -0.5113 -0.7545
  546MOL0     C73585   9.274  10.325   6.929 -0.1927 -0.4702 -0.8048
  546MOL0     C73586   9.148  10.262   7.002 -0.6234 -0.4753  0.3469
  546MOL0     C73587   9.147  10.102   6.982 -1.1969 -0.4183 -1.1293
  546MOL0     C73588   9.065  10.049   7.106 -0.2612  0.8626 -0.1064
  546MOL0     C73589   9.075   9.892   7.097 -0.7675  0.1139 -0.3013
  546MOL0     C73590   8.974   9.816   7.184  1.1561  0.3472 -0.4121
  546MOL0     C73591   8.990   9.667   7.150  0.0830 -0.0710  1.0714
  546MOL0     N73592   8.879   9.584   7.204 -0.2294 -0.6027 -0.3956
  546MOL0     C73593   8.752   9.619   7.197  0.5043  0.8961 -0.6830
  546MOL0     C73594   8.685   9.516   7.253 -0.0058  0.1856 -0.5204
  546MOL0     C73595   8.548   9.513   7.287  0.0616 -0.3348  0.3589
  546MOL0     C73596   8.506   9.619   7.388 -0.2579  0.3982 -0.2296
  546MOL0     C73597   8.352   9.616   7.386  0.3950  0.3189 -0.3976
  546MOL0     C73598   8.282   9.664   7.516  0.1273 -0.2045  0.3813
  546MOL0     O73599   8.339   9.798   7.548 -0.0685  0.3608 -0.3499
  546MOL0     C73600   8.276   9.880   7.643  0.6040 -0.0044  0.5282
  546MOL0     C73601   8.349   9.988   7.682  0.6182 -0.5745 -0.3744
  546MOL0     C73602   8.298  10.080   7.777  0.7640 -0.4305 -0.7232
  546MOL0     C73603   8.385  10.192   7.828 -0.4315  0.0317  0.8501
  546MOL0     C73604   8.171  10.055   7.834 -0.4038  0.8094  0.2377
  546MOL0     C73605   8.095  10.138   7.927 -0.8712 -0.2064  0.2394
  546MOL0     O73606   7.963  10.112   7.948 -0.2980  0.4731  0.0599
  546MOL0     C73607   7.901  10.180   8.055 -0.0864  0.0678  0.4163
  546MOL0     C73608   7.766  10.210   8.038 -0.1841  0.1862 -0.1321
  546MOL0     C73609   7.694  10.273   8.141 -0.0242  0.7242  0.5326
  546MOL0     C73610   7.746  10.289   8.268 -0.2335 -0.0137  0.4009
  546MOL0     O73611   7.674  10.351   8.369 -0.2177  0.4127  0.4073
  546MOL0     C73612   7.683  10.297   8.505 -0.5765 -1.0633 -0.0582
  546MOL0     C73613   7.555  10.341   8.577 -0.6791  0.0440  0.1750
  546MOL0     C73614   7.537  10.495   8.578  0.4502  0.3518 -0.4094
  546MOL0     C73615   7.420  10.524   8.664 -1.1591 -0.0035  0.3229
  546MOL0     C73616   7.415  10.668   8.706 -0.4882  0.6884  0.0722
  546MOL0     C73617   7.300  10.693   8.804  0.1237  0.6000  0.9192
  546MOL0     C73618   7.305  10.823   8.883 -0.5515 -0.7457  0.1552
  546MOL0     C73619   7.218  10.805   9.001 -0.6952  0.5445 -0.1111
  546MOL0    Cl73620   7.220  10.964   9.087 -0.0802  0.0601  0.3005
  546MOL0     C73621   7.883  10.246   8.283  0.3146  0.1918 -0.1805
  546MOL0     C73622   7.958  10.185   8.181  0.0988 -0.1268  0.2731
  546MOL0     O73623   8.152  10.229   7.987  0.0940  1.1255  0.3321
  546MOL0     C73624   8.105   9.937   7.804  0.4153  0.0645  0.3684
  546MOL0     C73625   8.157   9.856   7.707 -0.4047 -0.3612 -0.2006
  546MOL0     N73626   8.775   9.427   7.307 -0.6245 -0.8679 -0.1952
  546MOL0     N73627   8.895   9.466   7.274 -0.4475  0.1348  0.0493
  546MOL0     C73628   9.425  10.344   6.622 -0.2124  0.2064 -0.0779
  546MOL0     C73629   9.526  10.295   6.537 -0.7151 -0.0801  0.3372
  546MOL0     C73630   9.886  10.174   6.304  0.0084 -0.4842 -0.2619
  546MOL0     C73631   9.910  10.044   6.279 -0.4447  1.2836  0.4702
  546MOL0     C73632  10.033   9.996   6.222 -0.2896 -0.5025 -0.5803
  546MOL0     C73633  10.144  10.089   6.198  0.8582 -0.6440 -0.1099
  546MOL0     O73634  10.252  10.021   6.149  0.3190  0.3176  0.6806
  546MOL0     C73635  10.347  10.115   6.101 -0.0966 -0.6332 -0.2437
  546MOL0     C73636  10.477  10.049   6.045  0.1383  1.0479  0.5619
  546MOL0     C73637  10.578  10.151   6.006 -0.1601  0.5088  0.4784
  546MOL0     C73638  10.719  10.096   5.972  0.0154  0.0216  0.4704
  546MOL0     C73639  10.705  10.033   5.841  0.1390 -1.5997 -0.5105
  546MOL0     C73640  10.702   9.979   5.732 -0.8437 -0.3098  0.0263
  546MOL0     C73641  10.123  10.222   6.248 -0.6958  0.9083  0.3052
  546MOL0     C73642  10.000  10.263   6.301 -0.1404 -0.2087  0.3689
  546MOL0     H73643   9.732  10.563   6.556  0.0820  1.0599  1.1821
  546MOL0     H73644   9.561  10.636   6.711 -0.5439 -0.4540  1.7181
  546MOL0     H73645   9.172  10.516   6.896 -1.5989 -0.1336 -2.8777
  546MOL0     H73646   9.155  10.399   6.770 -2.0470  3.3608 -1.0926
  546MOL0     H73647   9.324  10.251   6.866  0.5950  0.0547 -0.8050
  546MOL0     H73648   9.341  10.361   7.007 -1.5964  0.1510  0.1620
  546MOL0     H73649   9.149  10.273   7.111 -0.2322  1.8483  0.1671
  546MOL0     H73650   9.057  10.311   6.969  0.2871  2.8315  2.2915
  546MOL0     H73651   9.110  10.072   6.883 -0.8434 -0.6374 -1.1954
  546MOL0     H73652   9.249  10.063   6.983 -0.6078  1.0283 -2.3076
  546MOL0     H73653   9.102  10.070   7.207 -2.1328  1.2035  0.5510
  546MOL0     H73654   8.957  10.067   7.098 -0.6245 -0.8745  0.4697
  546MOL0     H73655   9.066   9.855   6.995  0.3810 -0.7995 -0.0913
  546MOL0     H73656   9.175   9.862   7.129 -0.1070  1.3626 -1.1285
  546MOL0     H73657   8.992   9.835   7.290  0.9334  1.1668 -0.5109
  546MOL0     H73658   8.873   9.852   7.161  1.6948  1.5442 -0.9670
  546MOL0     H73659   9.086   9.638   7.194 -0.1371 -0.2304  1.4607
  546MOL0     H73660   8.987   9.655   7.042 -1.0396  0.6688  1.0012
  546MOL0     H73661   8.719   9.710   7.149  2.1674  2.0526  0.2833
  546MOL0     H73662   8.482   9.536   7.203 -0.6077  1.8648  1.4046
  546MOL0     H73663   8.524   9.415   7.330  1.0753  0.3418  2.6610
  546MOL0     H73664   8.546   9.716   7.355  1.2150 -0.0164  0.2716
  546MOL0     H73665   8.542   9.586   7.486 -0.6573 -2.4284 -0.9413
  546MOL0     H73666   8.317   9.515   7.368  1.2067 -0.2704  1.1087
  546MOL0     H73667   8.331   9.675   7.297  5.7660  2.0388 -0.9452
  546MOL0     H73668   8.288   9.591   7.596 -1.3925  0.0737  0.7812
  546MOL0     H73669   8.176   9.678   7.492  0.1903 -2.1645 -1.3084
  546MOL0     H73670   8.454  10.010   7.662  1.1277  1.3615  3.4321
  546MOL0     H73671   8.382  10.197   7.937 -0.5807 -0.9601  0.8953
  546MOL0     H73672   8.485  10.170   7.790 -0.8437 -0.2131 -0.1224
  546MOL0     H73673   8.364  10.293   7.791 -1.3955 -0.7244 -0.7956
  546MOL0     H73674   7.734  10.186   7.937  1.2401 -0.3244 -0.4834
  546MOL0     H73675   7.592  10.305   8.127  0.0766  0.9530  0.3068
  546MOL0     H73676   7.679  10.188   8.503 -0.1677 -1.0789 -0.0950
  546MOL0     H73677   7.770  10.336   8.559 -1.5996 -0.9324  1.5454
  546MOL0     H73678   7.480  10.275   8.532 -1.3480  1.5914 -1.0451
  546MOL0     H73679   7.574  10.298   8.676 -1.4754 -2.8933 -0.8549
  546MOL0     H73680   7.519  10.545   8.483  0.3854  0.6922 -0.2239
  546MOL0     H73681   7.625  10.543   8.624 -0.4747 -1.3409  3.5954
  546MOL0     H73682   7.327  10.494   8.614  0.4553 -1.6009 -1.8802
  546MOL0     H73683   7.438  10.465   8.754 -0.1299  1.8779  1.4166
  546MOL0     H73684   7.403  10.736   8.620  1.4775  0.9466 -0.0382
  546MOL0     H73685   7.513  10.693   8.748 -0.9832 -0.0099  1.7136
  546MOL0     H73686   7.204  10.693   8.751 -0.9128 -1.2120  2.6592
  546MOL0     H73687   7.294  10.606   8.870 -0.5645 -1.1584 -1.2879
  546MOL0     H73688   7.269  10.900   8.815  1.4505  0.5534  0.4812
  546MOL0     H73689   7.409  10.843   8.910 -0.4145  0.3226 -1.0807
  546MOL0     H73690   7.248  10.726   9.070  1.9561  0.8480 -0.8005
  546MOL0     H73691   7.120  10.769   8.968 -1.0681  0.4711  1.0168
  546MOL0     H73692   7.929  10.264   8.380 -1.1928 -0.0947  0.6169
  546MOL0     H73693   8.055  10.144   8.208 -0.2204 -0.1322  1.4904
  546MOL0     H73694   8.007   9.918   7.847  0.5565  0.4559  0.8830
  546MOL0     H73695   8.091   9.774   7.682 -0.4451  0.3291 -2.5991
  546MOL0     H73696   9.340  10.281   6.641 -1.5842  1.1074 -2.7891
  546MOL0     H73697   9.521  10.196   6.494  1.5308 -0.6863  1.2820
  546MOL0     H73698   9.837   9.965   6.289 -0.3840  0.8824 -1.6652
  546MOL0     H73699  10.046   9.894   6.189  3.0108  0.0369 -1.3503
  546MOL0     H73700  10.299  10.177   6.025 -0.4823 -1.9842 -1.1408
  546MOL0     H73701  10.380  10.177   6.185 -2.4564  2.7147 -1.5836
  546MOL0     H73702  10.450   9.985   5.961  3.6418 -1.1684  0.9648
  546MOL0     H73703  10.522   9.978   6.114  1.1902 -0.2472 -1.3793
  546MOL0     H73704  10.589  10.225   6.086 -0.9655 -0.4891  1.5490
  546MOL0     H73705  10.531  10.204   5.923  0.7921 -0.7804 -0.9455
  546MOL0     H73706  10.757  10.030   6.051  1.3751  2.9868  2.5140
  546MOL0     H73707  10.771  10.192   5.962  0.0917  0.1211  1.6089
  546MOL0     H73708  10.693   9.928   5.638 -3.2405  0.7973 -0.4127
  546MOL0     H73709  10.193  10.305   6.253 -0.7515  0.8761  2.3799
  546MOL0     H73710  10.002  10.359   6.352  0.3227 -0.4631  0.8404
  547MOL0     O73711   5.604   0.155   2.967 -0.2645  0.7690 -0.5701
  547MOL0     C73712   5.597   0.274   2.980 -0.5427 -0.6640 -0.2009
  547MOL0     O73713   5.487   0.352   2.991  0.6737 -0.1283  0.6279
  547MOL0     C73714   5.363   0.303   2.973 -0.1122 -0.5489  0.3568
  547MOL0     C73715   5.268   0.332   3.077  0.5374 -1.1600  0.0237
  547MOL0     C73716   5.140   0.277   3.068  0.5472  0.0285  1.0993
  547MOL0     C73717   5.100   0.196   2.961 -0.3275 -0.3278  1.6179
  547MOL0     O73718   4.978   0.146   2.945 -0.3060 -0.0854  0.4918
  547MOL0     C73719   4.908   0.110   3.069 -0.5064  0.2818 -0.8867
  547MOL0     C73720   4.791   0.021   3.051  0.3911 -0.4223 -0.7179
  547MOL0     C73721   4.803  -0.092   2.953 -0.0154  0.1501 -0.3418
  547MOL0     C73722   4.672  -0.159   2.950  0.8465  0.1102  0.0264
  547MOL0     C73723   4.673  -0.305   2.970 -0.4727 -0.3515  0.5841
  547MOL0     C73724   4.650  -0.345   3.119  0.1077  0.8260 -0.3092
  547MOL0     C73725   4.723  -0.478   3.158 -0.2178  0.6852 -0.2977
  547MOL0     C73726   4.693  -0.513   3.306  0.2822  0.3363 -0.7361
  547MOL0     N73727   4.715  -0.654   3.343 -0.7439 -0.8387 -0.2241
  547MOL0     C73728   4.631  -0.759   3.321  0.5433  0.4521 -0.1380
  547MOL0     C73729   4.713  -0.867   3.342 -0.4684  0.4542 -0.0909
  547MOL0     C73730   4.655  -1.008   3.333 -0.3747 -0.1578 -0.3238
  547MOL0     C73731   4.524  -1.019   3.414  0.3837 -0.2328  0.3182
  547MOL0     C73732   4.531  -0.969   3.560 -0.1212  0.1126  0.2457
  547MOL0     C73733   4.647  -1.026   3.647  0.6382 -0.2677  0.2881
  547MOL0     O73734   4.639  -0.971   3.785  0.0410 -1.3956 -0.4667
  547MOL0     C73735   4.669  -0.841   3.822 -0.8341 -0.5745 -0.3855
  547MOL0     C73736   4.604  -0.783   3.932  0.7590  0.3927  0.6510
  547MOL0     C73737   4.616  -0.648   3.970  0.0630  0.8229  0.8142
  547MOL0     C73738   4.509  -0.598   4.055 -0.2370 -0.2154  0.4572
  547MOL0     C73739   4.710  -0.560   3.909 -0.2660 -0.0783 -0.1975
  547MOL0     C73740   4.733  -0.421   3.943 -0.2489 -0.2071 -0.3665
  547MOL0     O73741   4.866  -0.392   3.963  0.4222  0.3913 -0.0285
  547MOL0     C73742   4.886  -0.252   3.988 -0.3473 -0.4254 -0.0962
  547MOL0     C73743   4.934  -0.171   3.881  0.3549 -0.2370 -0.1728
  547MOL0     C73744   4.976  -0.042   3.921 -0.5615 -0.6907  0.2052
  547MOL0     C73745   4.980   0.003   4.052 -0.5290  0.0837  0.4693
  547MOL0     O73746   5.020   0.133   4.075 -0.5807  0.4152  0.0557
  547MOL0     C73747   4.973   0.202   4.194 -0.6431 -0.1714 -0.3653
  547MOL0     C73748   5.068   0.327   4.210 -0.2929 -0.0964  0.3256
  547MOL0     C73749   5.223   0.308   4.220  0.4280  0.6085  0.8965
  547MOL0     C73750   5.254   0.197   4.320  0.2718  0.6299  0.0915
  547MOL0     C73751   5.391   0.220   4.391  0.4971  0.4229 -0.4477
  547MOL0     C73752   5.419   0.116   4.496  1.4680  0.3822  0.8379
  547MOL0     C73753   5.409   0.165   4.634  0.6632  0.2912 -0.6966
  547MOL0     C73754   5.414   0.051   4.736 -0.9023  0.3905 -0.6704
  547MOL0    Cl73755   5.591   0.018   4.793  0.2650  0.4339 -0.0457
  547MOL0     C73756   4.928  -0.082   4.155  0.3107 -0.1624 -0.3302
  547MOL0     C73757   4.878  -0.206   4.119  0.5129  0.4394 -0.0898
  547MOL0     O73758   4.637  -0.344   3.953 -0.4680  0.0190 -0.5011
  547MOL0     C73759   4.790  -0.624   3.809 -0.8384 -1.3544 -0.0454
  547MOL0     C73760   4.775  -0.760   3.766  0.6464 -0.7670 -0.2721
  547MOL0     N73761   4.842  -0.828   3.374  0.1766 -0.2911 -0.0600
  547MOL0     N73762   4.842  -0.705   3.376  0.3289 -0.0055 -1.0482
  547MOL0     C73763   5.193   0.168   2.855 -0.3499 -0.3395  0.6038
  547MOL0     C73764   5.327   0.224   2.858  0.6029  0.6830  0.3658
  547MOL0     C73765   5.737   0.337   3.006  1.5096  0.5281  0.5487
  547MOL0     C73766   5.845   0.258   3.030 -0.1712 -0.0268 -0.5188
  547MOL0     C73767   5.969   0.318   3.052  0.2024  0.1402  0.7652
  547MOL0     C73768   5.988   0.457   3.037  0.1527  0.3215  0.4148
  547MOL0     O73769   6.118   0.502   3.054  0.2482  1.4034  0.3633
  547MOL0     C73770   6.142   0.641   3.048 -0.0794  0.1153  0.2691
  547MOL0     C73771   6.296   0.656   3.070  0.0973  0.1896 -0.3391
  547MOL0     C73772   6.324   0.595   3.211 -0.0493 -0.1815  0.7865
  547MOL0     C73773   6.444   0.657   3.274 -0.0982  0.5903 -0.2024
  547MOL0     C73774   6.562   0.627   3.190  0.1513 -0.8504 -0.0592
  547MOL0     C73775   6.654   0.592   3.120  0.2953  0.1503  0.0505
  547MOL0     C73776   5.876   0.542   3.016 -0.0857  0.8589  0.3386
  547MOL0     C73777   5.752   0.480   2.994  0.4062 -1.4771 -0.1296
  547MOL0     H73778   5.283   0.391   3.167 -3.5527  0.5077 -0.1586
  547MOL0     H73779   5.073   0.291   3.152 -0.7506  0.1821  0.0639
  547MOL0     H73780   4.975   0.073   3.147 -0.8334 -0.0480 -0.7587
  547MOL0     H73781   4.864   0.202   3.110 -0.3039 -1.0670  2.7283
  547MOL0     H73782   4.749  -0.015   3.145 -2.8488 -0.2351 -1.9830
  547MOL0     H73783   4.715   0.094   3.021  0.4052 -0.0550  0.0913
  547MOL0     H73784   4.842  -0.070   2.854  0.6378 -0.4582 -0.2224
  547MOL0     H73785   4.882  -0.161   2.983  0.7242  1.3937  0.6796
  547MOL0     H73786   4.597  -0.112   3.015  1.4439 -0.5992  1.2706
  547MOL0     H73787   4.636  -0.147   2.848 -2.2710 -0.1880  0.9770
  547MOL0     H73788   4.595  -0.354   2.911 -1.2653 -0.2974  1.5587
  547MOL0     H73789   4.766  -0.352   2.936 -0.6373 -0.6239  0.5091
  547MOL0     H73790   4.697  -0.273   3.187  1.3708 -1.7473  1.6985
  547MOL0     H73791   4.544  -0.355   3.141  0.1651  0.0009 -0.3731
  547MOL0     H73792   4.681  -0.566   3.107  3.0464 -1.0020 -0.3090
  547MOL0     H73793   4.829  -0.482   3.131  0.5575  0.9249  2.4394
  547MOL0     H73794   4.591  -0.485   3.335 -0.0148  0.2092 -1.6486
  547MOL0     H73795   4.762  -0.469   3.380  1.6631 -2.6504 -0.1200
  547MOL0     H73796   4.527  -0.755   3.288  1.1741 -0.1602 -2.3851
  547MOL0     H73797   4.630  -1.022   3.228 -0.7379 -1.7885 -0.0421
  547MOL0     H73798   4.729  -1.085   3.358  1.9862  2.2989  0.8394
  547MOL0     H73799   4.483  -1.120   3.411 -0.6598  0.1064  1.7558
  547MOL0     H73800   4.448  -0.969   3.352 -1.8060 -2.3783  1.1168
  547MOL0     H73801   4.435  -0.979   3.611  0.3563  0.9620  1.3405
  547MOL0     H73802   4.531  -0.861   3.544 -0.9331  0.1316  0.3097
  547MOL0     H73803   4.747  -0.998   3.611  0.2407  0.1440 -0.5408
  547MOL0     H73804   4.638  -1.135   3.646  0.0948 -0.2616 -2.2203
  547MOL0     H73805   4.530  -0.851   3.972  0.9298 -0.2216 -0.0380
  547MOL0     H73806   4.540  -0.577   4.157 -0.4584 -3.6238  1.3484
  547MOL0     H73807   4.463  -0.513   4.003  3.1171 -0.0060 -2.5599
  547MOL0     H73808   4.423  -0.665   4.055 -2.0537  1.9682  0.1342
  547MOL0     H73809   4.950  -0.205   3.779  0.3172  1.4492 -0.7696
  547MOL0     H73810   5.019   0.025   3.847  0.6534 -3.6698 -1.9772
  547MOL0     H73811   4.867   0.228   4.189 -0.7488 -0.4203  0.4443
  547MOL0     H73812   4.986   0.140   4.282 -2.0067  2.6354  2.0000
  547MOL0     H73813   5.066   0.387   4.119  2.0138  0.3753  0.5135
  547MOL0     H73814   5.028   0.397   4.284  0.4830  0.7608 -0.0397
  547MOL0     H73815   5.277   0.398   4.254  0.2032  2.3286 -2.8576
  547MOL0     H73816   5.253   0.280   4.119  1.2012 -1.3015  1.6087
  547MOL0     H73817   5.172   0.173   4.389 -0.6972  0.7340 -0.9857
  547MOL0     H73818   5.270   0.105   4.263 -1.5861  1.7879 -2.4955
  547MOL0     H73819   5.371   0.313   4.444  0.0649  0.9930 -1.5692
  547MOL0     H73820   5.475   0.230   4.321  0.8743 -0.0051 -0.0618
  547MOL0     H73821   5.352   0.030   4.488  2.9805 -0.7257 -0.8815
  547MOL0     H73822   5.512   0.058   4.489  0.1369 -1.7390 -0.6366
  547MOL0     H73823   5.309   0.204   4.654  0.7811  0.1827  0.1200
  547MOL0     H73824   5.479   0.248   4.650 -1.1876  2.4564 -2.9644
  547MOL0     H73825   5.362  -0.037   4.698 -1.8471  0.4521  0.4122
  547MOL0     H73826   5.362   0.085   4.826  0.6903 -0.7164  0.7357
  547MOL0     H73827   4.930  -0.058   4.261 -1.3063 -0.9617 -0.0846
  547MOL0     H73828   4.853  -0.268   4.204  1.7547  1.0334  0.7251
  547MOL0     H73829   4.857  -0.557   3.755  0.0101 -2.6560 -0.6679
  547MOL0     H73830   4.850  -0.796   3.696  2.8381 -0.2642  1.6657
  547MOL0     H73831   5.164   0.096   2.780 -0.9969 -0.9176  1.3925
  547MOL0     H73832   5.393   0.199   2.775 -0.6597  0.6266 -0.6467
  547MOL0     H73833   5.836   0.152   3.051  1.1609  0.0798  0.7323
  547MOL0     H73834   6.055   0.266   3.093  0.9801  1.7883  1.3222
  547MOL0     H73835   6.106   0.692   2.958 -1.5631 -3.2529 -1.2275
  547MOL0     H73836   6.095   0.686   3.136  1.1381 -3.4210  2.9487
  547MOL0     H73837   6.321   0.763   3.069  2.0779 -0.1760  2.0175
  547MOL0     H73838   6.356   0.613   2.989  1.6922  1.7706 -0.0639
  547MOL0     H73839   6.323   0.485   3.214 -1.2550 -0.2253 -0.2669
  547MOL0     H73840   6.231   0.615   3.265 -2.1441 -1.3213 -2.1539
  547MOL0     H73841   6.449   0.613   3.375 -0.9904  0.6019 -0.1406
  547MOL0     H73842   6.426   0.764   3.290 -1.5960  0.1194  1.7230
  547MOL0     H73843   6.735   0.563   3.056 -0.5330 -0.1284 -0.8834
  547MOL0     H73844   5.885   0.650   3.026  3.5927  0.7852 -0.7478
  547MOL0     H73845   5.668   0.543   2.965  3.5933  2.4765 -1.7396
  548MOL0     O73846   9.139   0.938   1.177 -1.0065 -0.1751 -0.1796
  548MOL0     C73847   9.148   0.848   1.256 -0.0129 -0.3708 -0.4871
  548MOL0     O73848   9.055   0.807   1.345  0.0567  0.1029  0.3092
  548MOL0     C73849   8.930   0.844   1.317 -0.7222  0.4815  0.2997
  548MOL0     C73850   8.875   0.966   1.372 -0.4337 -0.3588  0.6525
  548MOL0     C73851   8.742   1.000   1.359 -0.3600 -0.0375 -0.4947
  548MOL0     C73852   8.657   0.905   1.303 -0.3800 -0.0866 -0.0454
  548MOL0     O73853   8.523   0.932   1.313 -0.7811  0.5937 -0.5729
  548MOL0     C73854   8.443   0.865   1.216  0.0214 -0.4296 -0.9065
  548MOL0     C73855   8.298   0.928   1.221 -0.5459 -0.0964  0.6729
  548MOL0     C73856   8.217   0.910   1.090 -0.9809 -0.4496 -0.0810
  548MOL0     C73857   8.239   1.004   0.975 -0.0367 -0.1436 -0.3063
  548MOL0     C73858   8.299   1.145   0.996 -0.6700 -0.0272 -0.3081
  548MOL0     C73859   8.307   1.217   0.860 -0.3811 -0.4730  0.6854
  548MOL0     C73860   8.333   1.369   0.882  0.3292  0.7715 -0.2976
  548MOL0     C73861   8.369   1.451   0.757  0.3756  1.0684  0.1791
  548MOL0     N73862   8.254   1.457   0.665 -0.3151 -0.5745 -0.7987
  548MOL0     C73863   8.220   1.374   0.559  0.1428  0.4859 -0.5888
  548MOL0     C73864   8.119   1.441   0.497 -0.8299  0.2223  0.1601
  548MOL0     C73865   8.045   1.388   0.377  1.1433  0.3193 -0.3241
  548MOL0     C73866   7.977   1.491   0.284 -0.4216  0.3648 -0.2412
  548MOL0     C73867   8.079   1.569   0.197  0.9578  0.2581 -1.4737
  548MOL0     C73868   7.998   1.655   0.106 -0.3231 -0.3216  0.0574
  548MOL0     O73869   8.063   1.781   0.068 -0.1958  0.5591 -0.5917
  548MOL0     C73870   7.986   1.867   0.001 -0.2081  0.1449  0.6935
  548MOL0     C73871   8.002   2.003   0.034  0.4201 -0.5731 -0.4817
  548MOL0     C73872   7.932   2.107  -0.033 -0.7189 -0.3390  0.3711
  548MOL0     C73873   7.941   2.251   0.018  0.8791 -0.0007  0.3226
  548MOL0     C73874   7.856   2.071  -0.147 -0.7474  0.5086 -0.5258
  548MOL0     C73875   7.776   2.167  -0.217  0.4449 -1.3956  0.2938
  548MOL0     O73876   7.647   2.190  -0.174  0.7145  0.8161  0.3208
  548MOL0     C73877   7.580   2.294  -0.235 -0.2335 -0.2561 -0.1210
  548MOL0     C73878   7.496   2.259  -0.341 -0.3323  0.4773  0.0793
  548MOL0     C73879   7.422   2.358  -0.402 -0.3447 -0.3707 -0.0118
  548MOL0     C73880   7.426   2.487  -0.369  0.6136 -0.2657 -0.5076
  548MOL0     O73881   7.346   2.577  -0.443  0.2667  0.4573 -1.2332
  548MOL0     C73882   7.343   2.716  -0.416 -0.0848  0.4275 -1.0077
  548MOL0     C73883   7.245   2.788  -0.511  0.2851  0.2313  0.2647
  548MOL0     C73884   7.225   2.936  -0.489  0.2311 -0.0912 -0.4411
  548MOL0     C73885   7.351   3.021  -0.519 -0.4362  0.3065  1.3300
  548MOL0     C73886   7.352   3.162  -0.452 -0.9768 -0.2238 -1.1337
  548MOL0     C73887   7.350   3.165  -0.297  0.9115 -0.1744 -0.1471
  548MOL0     C73888   7.385   3.308  -0.257  0.7363 -0.0446  0.0176
  548MOL0     C73889   7.348   3.333  -0.111 -0.1832 -0.1121 -0.8227
  548MOL0    Cl73890   7.415   3.496  -0.071  0.4255  0.1491  0.0038
  548MOL0     C73891   7.521   2.521  -0.270 -0.0066 -0.3137  0.0177
  548MOL0     C73892   7.588   2.426  -0.192 -0.7682  0.0102  0.7911
  548MOL0     O73893   7.821   2.215  -0.314 -0.7392  0.6712  0.0594
  548MOL0     C73894   7.842   1.934  -0.176  0.0253  0.7225 -0.6450
  548MOL0     C73895   7.910   1.829  -0.111 -0.1312 -1.7715  0.3053
  548MOL0     N73896   8.093   1.558   0.565 -0.4998 -0.3428 -0.5885
  548MOL0     N73897   8.175   1.567   0.660 -0.0161 -0.0738  0.0035
  548MOL0     C73898   8.707   0.787   1.255  0.4632 -0.0844  0.2922
  548MOL0     C73899   8.845   0.758   1.258 -0.0389 -0.5909 -0.4294
  548MOL0     C73900   9.284   0.771   1.252 -0.2417  0.6160  0.0776
  548MOL0     C73901   9.378   0.809   1.154  0.7720 -0.3054  0.6256
  548MOL0     C73902   9.500   0.745   1.151  0.3210  0.4280 -0.1422
  548MOL0     C73903   9.543   0.657   1.248  0.2484  0.9936  0.2731
  548MOL0     O73904   9.668   0.606   1.228  0.0303 -0.4993  0.1743
  548MOL0     C73905   9.694   0.468   1.270 -0.7354  0.3592 -0.7363
  548MOL0     C73906   9.826   0.415   1.208  0.0604  0.9405 -0.8160
  548MOL0     C73907   9.947   0.460   1.295  0.4731  0.0652 -0.1232
  548MOL0     C73908   9.957   0.366   1.417 -0.0359 -0.4069  0.5623
  548MOL0     C73909  10.063   0.428   1.498  0.7209 -0.2566  0.6812
  548MOL0     C73910  10.153   0.476   1.566  0.8822 -0.5555  0.9383
  548MOL0     C73911   9.453   0.627   1.352 -0.0127 -0.5706 -1.2774
  548MOL0     C73912   9.324   0.681   1.353 -0.0739  0.1340  0.0610
  548MOL0     H73913   8.945   1.036   1.416 -0.1864 -0.6687  0.7571
  548MOL0     H73914   8.692   1.089   1.396  1.4437  0.4445  0.9662
  548MOL0     H73915   8.490   0.883   1.119  4.6060  0.1009  1.1248
  548MOL0     H73916   8.438   0.758   1.237 -1.1281 -0.4565 -1.2418
  548MOL0     H73917   8.234   0.867   1.286  0.7356 -1.4848  0.6901
  548MOL0     H73918   8.301   1.035   1.245  1.4020  0.4035 -1.4251
  548MOL0     H73919   8.224   0.803   1.067 -1.2744 -0.1808 -1.5841
  548MOL0     H73920   8.111   0.919   1.116 -0.5539 -2.3789  2.6877
  548MOL0     H73921   8.311   0.968   0.900  0.4245 -0.6596  0.3724
  548MOL0     H73922   8.143   1.016   0.924 -0.7221 -0.2629  0.9153
  548MOL0     H73923   8.234   1.195   1.069  2.9617  2.4187  1.5531
  548MOL0     H73924   8.399   1.138   1.041 -2.1151 -2.5261  3.0313
  548MOL0     H73925   8.384   1.182   0.791 -0.2540  0.4504  0.3330
  548MOL0     H73926   8.210   1.224   0.809  0.7391 -0.3181 -1.5473
  548MOL0     H73927   8.234   1.402   0.916  0.4648 -0.1906  1.1465
  548MOL0     H73928   8.402   1.383   0.966 -1.3357  1.6914  0.9942
  548MOL0     H73929   8.454   1.412   0.701 -1.4993 -1.0273 -1.3894
  548MOL0     H73930   8.396   1.552   0.789  1.5808  0.5397  0.8995
  548MOL0     H73931   8.272   1.280   0.542 -1.7841 -0.4389 -1.7371
  548MOL0     H73932   8.104   1.320   0.315  0.9777 -0.6784  0.5976
  548MOL0     H73933   7.963   1.324   0.408 -1.4509  2.4604 -2.2705
  548MOL0     H73934   7.924   1.560   0.350  0.8970 -0.7278  2.1082
  548MOL0     H73935   7.910   1.441   0.213  2.7622 -2.2098 -1.7343
  548MOL0     H73936   8.155   1.507   0.148  1.6670 -0.5057  0.4923
  548MOL0     H73937   8.140   1.631   0.263 -0.7384  0.5279 -0.0719
  548MOL0     H73938   7.906   1.684   0.157 -0.9920  0.1596 -1.3608
  548MOL0     H73939   7.971   1.601   0.015  3.1024 -1.1655 -0.5996
  548MOL0     H73940   8.071   2.024   0.115 -0.9619  2.6807 -0.0042
  548MOL0     H73941   7.845   2.303   0.025  0.8365  0.1359 -0.9742
  548MOL0     H73942   7.978   2.249   0.120 -1.3095  1.3548  1.2127
  548MOL0     H73943   8.003   2.305  -0.055 -0.0965 -1.4620 -1.7082
  548MOL0     H73944   7.481   2.154  -0.366 -1.4872  0.7907 -0.6242
  548MOL0     H73945   7.358   2.324  -0.483 -0.5749 -0.8507  0.3689
  548MOL0     H73946   7.326   2.746  -0.312  1.5074 -0.1896 -0.5428
  548MOL0     H73947   7.444   2.751  -0.439  1.3410 -2.4834  0.3268
  548MOL0     H73948   7.290   2.783  -0.610 -1.3898 -1.3914 -0.4825
  548MOL0     H73949   7.145   2.744  -0.506 -0.7927  2.5842  0.4960
  548MOL0     H73950   7.192   2.949  -0.385 -2.2839  3.8583 -1.4849
  548MOL0     H73951   7.142   2.972  -0.550 -0.7509 -1.0926  0.2422
  548MOL0     H73952   7.444   2.974  -0.487 -1.0177 -0.8859  1.3035
  548MOL0     H73953   7.353   3.016  -0.629  0.3479  0.2160  1.3446
  548MOL0     H73954   7.262   3.216  -0.484 -1.3631 -0.2670 -0.1661
  548MOL0     H73955   7.447   3.213  -0.473  0.3168 -1.0354  2.1333
  548MOL0     H73956   7.245   3.157  -0.269  0.4115  2.1606 -1.1404
  548MOL0     H73957   7.408   3.087  -0.247 -0.5651 -1.1582  0.0795
  548MOL0     H73958   7.312   3.376  -0.302  1.0927  0.8719  0.7734
  548MOL0     H73959   7.489   3.328  -0.284  1.0430 -1.9103 -0.2979
  548MOL0     H73960   7.400   3.256  -0.053  2.3310  1.9390 -0.1913
  548MOL0     H73961   7.240   3.330  -0.089  0.4775 -1.5390  3.1688
  548MOL0     H73962   7.512   2.624  -0.235  2.3411  1.1926 -3.2077
  548MOL0     H73963   7.643   2.450  -0.102 -0.2216 -1.8951  0.9912
  548MOL0     H73964   7.798   1.895  -0.267  1.3033  0.6448 -1.2470
  548MOL0     H73965   7.913   1.726  -0.145 -0.1479 -1.2608 -1.3215
  548MOL0     H73966   8.641   0.710   1.216 -1.9431  3.2715 -2.9151
  548MOL0     H73967   8.880   0.661   1.222  2.0204 -0.2992  0.6009
  548MOL0     H73968   9.352   0.893   1.090  1.0442 -0.7366 -0.0598
  548MOL0     H73969   9.566   0.774   1.071  0.1491 -0.4953 -0.6371
  548MOL0     H73970   9.702   0.473   1.379 -1.1465  2.7407 -0.7579
  548MOL0     H73971   9.609   0.409   1.234 -1.4806 -0.2318  1.7765
  548MOL0     H73972   9.838   0.453   1.106 -0.1474  1.9338 -0.4838
  548MOL0     H73973   9.826   0.306   1.201  0.8281  0.8848 -0.0329
  548MOL0     H73974   9.929   0.561   1.332 -0.3184 -0.4121  0.8228
  548MOL0     H73975  10.038   0.470   1.235 -1.9562 -0.7640 -4.3407
  548MOL0     H73976   9.986   0.264   1.391  1.1681  0.1873 -0.6032
  548MOL0     H73977   9.868   0.361   1.479  0.9430  2.6593  2.4215
  548MOL0     H73978  10.222   0.524   1.632  0.6319 -0.4217  1.1070
  548MOL0     H73979   9.472   0.559   1.434 -1.0760  1.7438  0.9906
  548MOL0     H73980   9.247   0.650   1.422  0.7443 -0.5771  0.6711
  549MOL0     O73981   6.106   5.560   7.665 -0.0681 -0.2059 -0.5024
  549MOL0     C73982   6.124   5.685   7.687 -1.3939  0.6629 -0.7341
  549MOL0     O73983   6.040   5.779   7.734  0.2289 -0.4931 -0.4926
  549MOL0     C73984   5.904   5.751   7.770 -0.1393  0.0489 -0.3123
  549MOL0     C73985   5.818   5.860   7.782 -0.4399  0.1427  0.1560
  549MOL0     C73986   5.690   5.840   7.813  0.0430  0.1756  0.0649
  549MOL0     C73987   5.639   5.717   7.830  0.0646  0.9453 -0.8998
  549MOL0     O73988   5.499   5.695   7.845 -0.1666 -0.1618  0.2072
  549MOL0     C73989   5.453   5.619   7.961 -1.0130  0.9567 -0.4105
  549MOL0     C73990   5.336   5.675   8.026 -0.9953 -0.4633 -0.2184
  549MOL0     C73991   5.211   5.659   7.935 -0.2534 -0.1123 -0.2348
  549MOL0     C73992   5.084   5.712   8.005 -0.7898 -0.7973  0.5390
  549MOL0     C73993   4.975   5.605   7.990 -0.3930 -0.3390  0.3704
  549MOL0     C73994   4.851   5.661   8.053 -0.4541 -0.5017 -0.4584
  549MOL0     C73995   4.722   5.576   8.054 -0.5484  0.7414  0.6452
  549MOL0     C73996   4.593   5.654   8.097 -0.7491 -0.2863  0.4799
  549MOL0     N73997   4.563   5.646   8.237 -0.2185  0.3401  0.4109
  549MOL0     C73998   4.463   5.564   8.284 -0.1309 -0.3072 -0.5195
  549MOL0     C73999   4.444   5.623   8.409  0.7417  0.1763  0.2439
  549MOL0     C74000   4.359   5.575   8.522 -0.1637 -0.2579  0.7675
  549MOL0     C74001   4.234   5.508   8.480 -0.0765  0.1652 -0.3790
  549MOL0     C74002   4.185   5.421   8.585  0.3636 -0.6453  0.2514
  549MOL0     C74003   4.091   5.492   8.681 -0.2395  0.2855 -0.5033
  549MOL0     O74004   4.072   5.410   8.802  0.0217  0.8072  0.1208
  549MOL0     C74005   3.954   5.445   8.875 -0.0686  0.4596  0.5452
  549MOL0     C74006   3.907   5.344   8.960  0.3232 -0.0692 -0.8256
  549MOL0     C74007   3.795   5.365   9.040 -0.2532  0.7062  0.3935
  549MOL0     C74008   3.751   5.242   9.113 -1.2923 -0.5160  0.4398
  549MOL0     C74009   3.726   5.493   9.044 -0.2288  0.4804  0.2277
  549MOL0     C74010   3.594   5.515   9.105 -0.2174  0.2828  1.1624
  549MOL0     O74011   3.547   5.415   9.180 -0.3555 -0.3420 -0.6082
  549MOL0     C74012   3.415   5.415   9.214 -1.1522  0.0461 -0.9025
  549MOL0     C74013   3.352   5.301   9.171  0.0351 -0.4754 -0.8304
  549MOL0     C74014   3.217   5.279   9.218  0.2665  0.1594  0.0322
  549MOL0     C74015   3.146   5.377   9.294  0.5260 -0.1241 -0.2802
  549MOL0     O74016   3.007   5.361   9.315  0.2138 -0.7423  0.4719
  549MOL0     C74017   2.939   5.332   9.193  0.4692 -0.6083 -0.4747
  549MOL0     C74018   2.799   5.388   9.197 -0.3268  0.0194  0.6290
  549MOL0     C74019   2.711   5.364   9.318 -0.0060  0.4309 -0.7367
  549MOL0     C74020   2.651   5.489   9.379 -0.0821  0.0965  0.3635
  549MOL0     C74021   2.571   5.574   9.273  0.1751 -0.8166  0.3113
  549MOL0     C74022   2.459   5.490   9.199 -0.0357  0.4642 -0.3114
  549MOL0     C74023   2.371   5.577   9.115 -0.3020  0.0564  0.0114
  549MOL0     C74024   2.318   5.708   9.169  0.4320 -0.1072 -0.3760
  549MOL0    Cl74025   2.192   5.785   9.063 -0.5995  0.5482 -0.0584
  549MOL0     C74026   3.211   5.496   9.330  0.7025  0.1792  0.0407
  549MOL0     C74027   3.346   5.510   9.292  0.8204 -0.0855  0.1213
  549MOL0     O74028   3.537   5.626   9.085  0.0391  0.3030 -0.2440
  549MOL0     C74029   3.787   5.598   8.962  0.4864 -0.3190  0.7033
  549MOL0     C74030   3.892   5.568   8.874  0.1083 -0.0494 -0.1034
  549MOL0     N74031   4.541   5.726   8.429  0.7682 -0.8328  0.4640
  549MOL0     N74032   4.606   5.741   8.324 -0.2082  0.7909  0.8475
  549MOL0     C74033   5.720   5.600   7.831  0.0568  1.0540  0.3738
  549MOL0     C74034   5.851   5.629   7.793  0.2405  0.2553  0.1440
  549MOL0     C74035   6.267   5.729   7.651  0.3939 -0.1916 -0.3290
  549MOL0     C74036   6.378   5.647   7.675 -0.4286  0.5029 -0.8819
  549MOL0     C74037   6.512   5.689   7.657 -0.0540 -0.5826  1.3505
  549MOL0     C74038   6.540   5.825   7.612  0.4953  0.4568 -0.1212
  549MOL0     O74039   6.661   5.866   7.578 -0.5573 -0.0347  0.9156
  549MOL0     C74040   6.763   5.764   7.540  0.0979 -0.2300  0.0893
  549MOL0     C74041   6.882   5.838   7.489  0.2026 -0.1119  0.9393
  549MOL0     C74042   6.865   5.880   7.342  0.2759  0.4818  0.6233
  549MOL0     C74043   6.978   5.980   7.288 -0.0869 -0.1208  0.3458
  549MOL0     C74044   7.109   5.910   7.276  0.2399  0.1176 -0.2968
  549MOL0     C74045   7.214   5.854   7.262 -0.0191  0.1863 -0.1482
  549MOL0     C74046   6.427   5.900   7.571 -0.3087 -0.2373 -0.1353
  549MOL0     C74047   6.294   5.856   7.589  1.5291  0.4459  0.4400
  549MOL0     H74048   5.848   5.960   7.753 -0.5857  0.1372 -0.0200
  549MOL0     H74049   5.626   5.928   7.818 -1.7920 -1.1647  1.4662
  549MOL0     H74050   5.424   5.521   7.923  1.9165  0.2565 -1.0839
  549MOL0     H74051   5.539   5.600   8.026 -0.5914 -0.0732 -1.2351
  549MOL0     H74052   5.314   5.628   8.122 -2.0610  0.1304 -0.1500
  549MOL0     H74053   5.357   5.776   8.062  0.1171 -1.0509  0.8351
  549MOL0     H74054   5.225   5.717   7.843  1.1317  1.5766  0.9668
  549MOL0     H74055   5.202   5.555   7.903 -2.4898  0.4763 -1.7612
  549MOL0     H74056   5.098   5.740   8.109  1.6883 -2.4847  0.7325
  549MOL0     H74057   5.055   5.802   7.951  1.9966  1.1031  1.9887
  549MOL0     H74058   4.949   5.576   7.887  0.9791 -0.0332 -0.0835
  549MOL0     H74059   5.015   5.516   8.040  0.6774  0.7633  1.5439
  549MOL0     H74060   4.871   5.670   8.160 -0.3796  2.8714 -0.6582
  549MOL0     H74061   4.835   5.758   8.007 -0.5695 -1.4506 -2.5431
  549MOL0     H74062   4.707   5.564   7.946 -2.8644  3.0106  0.6058
  549MOL0     H74063   4.732   5.481   8.106  2.7542 -0.4258 -1.7956
  549MOL0     H74064   4.505   5.633   8.037 -0.7126 -1.3396  0.7792
  549MOL0     H74065   4.615   5.756   8.063 -2.7453 -0.4980 -1.7110
  549MOL0     H74066   4.419   5.469   8.257  0.7483 -1.4400  1.8430
  549MOL0     H74067   4.428   5.510   8.576  0.2574  0.5346  1.2135
  549MOL0     H74068   4.352   5.656   8.596  0.7903 -1.8078  2.6512
  549MOL0     H74069   4.263   5.444   8.396 -1.3642 -1.4461  0.3252
  549MOL0     H74070   4.163   5.587   8.453  1.8311  2.1970  0.2797
  549MOL0     H74071   4.270   5.377   8.639 -0.9786 -3.1956  0.4059
  549MOL0     H74072   4.136   5.334   8.540  0.0502 -0.4379  0.1874
  549MOL0     H74073   3.998   5.499   8.624  0.2153  1.5032 -1.1518
  549MOL0     H74074   4.130   5.592   8.703  0.2020  0.1570 -0.6748
  549MOL0     H74075   3.958   5.248   8.965 -0.6434 -0.7381 -2.7380
  549MOL0     H74076   3.716   5.249   9.217 -4.5646 -1.7321 -0.4700
  549MOL0     H74077   3.672   5.194   9.055 -1.2418  0.1451 -0.1804
  549MOL0     H74078   3.830   5.166   9.110 -1.9058 -1.1467  0.0660
  549MOL0     H74079   3.398   5.222   9.113  0.9996 -0.4299 -0.1430
  549MOL0     H74080   3.167   5.190   9.181  0.6527 -0.0208 -0.0532
  549MOL0     H74081   2.989   5.365   9.102  1.9445 -0.7819  0.2434
  549MOL0     H74082   2.926   5.224   9.182  0.6175 -0.5498 -1.2932
  549MOL0     H74083   2.802   5.496   9.180 -1.1757 -0.0531 -0.0222
  549MOL0     H74084   2.742   5.347   9.113 -0.8790  2.1706 -0.1350
  549MOL0     H74085   2.777   5.316   9.391  0.2478  0.6105 -0.8481
  549MOL0     H74086   2.639   5.289   9.284  1.6539 -1.8065  0.3910
  549MOL0     H74087   2.578   5.466   9.458 -1.3810  2.0364 -0.1918
  549MOL0     H74088   2.734   5.553   9.408  0.3107  0.0476 -0.6419
  549MOL0     H74089   2.643   5.610   9.199 -0.6634  1.1132  0.3769
  549MOL0     H74090   2.518   5.658   9.320 -0.5630 -0.0781 -1.7434
  549MOL0     H74091   2.509   5.416   9.137 -2.0446  0.3873 -1.9711
  549MOL0     H74092   2.410   5.428   9.275  1.4530  0.2832  0.5268
  549MOL0     H74093   2.287   5.512   9.089 -1.9468  2.8203 -2.2022
  549MOL0     H74094   2.423   5.609   9.024 -0.1933  0.9038  0.3578
  549MOL0     H74095   2.390   5.788   9.186 -0.0907  0.1138  0.8140
  549MOL0     H74096   2.266   5.679   9.261 -0.5454  0.6342 -0.6793
  549MOL0     H74097   3.162   5.582   9.374 -2.1980  0.0135 -2.4995
  549MOL0     H74098   3.401   5.600   9.320  1.4354 -0.8257  1.3832
  549MOL0     H74099   3.733   5.691   8.949 -1.3982 -1.2240  1.6164
  549MOL0     H74100   3.929   5.648   8.809 -1.9261 -0.6661 -2.1659
  549MOL0     H74101   5.680   5.501   7.855  1.0676  0.4574 -0.3317
  549MOL0     H74102   5.911   5.538   7.784 -1.0706 -0.7150  0.8724
  549MOL0     H74103   6.355   5.547   7.708 -0.5018  1.1679  1.2265
  549MOL0     H74104   6.588   5.612   7.666 -0.4770 -1.0108  1.3190
  549MOL0     H74105   6.800   5.716   7.631 -1.2673 -0.0345  0.7652
  549MOL0     H74106   6.736   5.691   7.463  2.8300 -0.3480 -0.8944
  549MOL0     H74107   6.974   5.781   7.499  0.6938  0.8151  2.0471
  549MOL0     H74108   6.901   5.931   7.543 -0.4956  1.9467 -2.1395
  549MOL0     H74109   6.769   5.917   7.306  0.6506  0.9511  0.0911
  549MOL0     H74110   6.879   5.793   7.277  0.8450  2.2577 -1.7998
  549MOL0     H74111   6.982   6.062   7.361 -1.3340  0.3030 -0.0286
  549MOL0     H74112   6.938   6.023   7.196 -0.3868 -0.2710  0.4048
  549MOL0     H74113   7.303   5.795   7.261  1.3141  2.0067  1.6616
  549MOL0     H74114   6.456   5.999   7.534  0.8552 -0.5073  0.0111
  549MOL0     H74115   6.208   5.917   7.562 -1.1379 -3.1019  0.1887
  550MOL0     O74116   2.462   2.165   7.709  0.1203 -0.4867 -0.6370
  550MOL0     C74117   2.545   2.161   7.617 -0.1530  0.8535 -0.6695
  550MOL0     O74118   2.602   2.273   7.556 -0.0500  0.5924  0.0915
  550MOL0     C74119   2.537   2.389   7.579  0.5773 -0.6650  0.3866
  550MOL0     C74120   2.611   2.498   7.619 -0.6598  0.6093  0.1306
  550MOL0     C74121   2.558   2.622   7.640 -0.3915  0.8024  0.2350
  550MOL0     C74122   2.420   2.639   7.612 -0.3784 -0.4069  0.6088
  550MOL0     O74123   2.369   2.758   7.662 -0.0149 -0.2107 -0.0830
  550MOL0     C74124   2.249   2.801   7.587  0.0686 -0.5221 -0.1764
  550MOL0     C74125   2.228   2.951   7.597 -0.2986  0.1081 -0.4469
  550MOL0     C74126   2.096   2.993   7.540 -0.6780  0.1302 -0.7510
  550MOL0     C74127   2.050   3.119   7.615  0.5053 -0.0673 -0.1134
  550MOL0     C74128   1.897   3.122   7.602 -0.1371 -0.3232 -0.1050
  550MOL0     C74129   1.844   3.243   7.681  0.8508  0.2214  0.1098
  550MOL0     C74130   1.698   3.257   7.668 -0.5109 -0.3115 -0.5599
  550MOL0     C74131   1.664   3.402   7.681 -0.3678 -0.5505 -0.8804
  550MOL0     N74132   1.530   3.431   7.728  0.3928  0.6239  0.2997
  550MOL0     C74133   1.416   3.406   7.655 -1.0775 -0.0122 -0.3331
  550MOL0     C74134   1.314   3.421   7.745 -0.8941  1.2031  0.0579
  550MOL0     C74135   1.167   3.405   7.722 -0.2548  1.0909 -0.1962
  550MOL0     C74136   1.087   3.518   7.663  0.0936  0.7174  0.0900
  550MOL0     C74137   1.089   3.646   7.761  0.1267  0.1562  0.5729
  550MOL0     C74138   1.031   3.774   7.709 -0.2628 -0.3080  0.2116
  550MOL0     O74139   0.890   3.766   7.681  0.1117 -0.1595  0.1691
  550MOL0     C74140   0.798   3.735   7.783  0.4155  0.8175 -0.0057
  550MOL0     C74141   0.810   3.791   7.913 -0.8092 -0.2704 -0.2661
  550MOL0     C74142   0.716   3.772   8.017  0.8860 -0.1591  0.3978
  550MOL0     C74143   0.745   3.847   8.136 -0.6766  0.6704  0.1752
  550MOL0     C74144   0.599   3.690   7.993  0.0265  0.4569 -0.2728
  550MOL0     C74145   0.486   3.666   8.088  0.4901  0.4567 -0.2893
  550MOL0     O74146   0.414   3.552   8.073 -0.1962 -0.3125  0.5644
  550MOL0     C74147   0.326   3.501   8.165 -0.4428  0.2415  0.5624
  550MOL0     C74148   0.234   3.407   8.119 -1.3214  0.3422  0.4987
  550MOL0     C74149   0.187   3.317   8.212 -0.3918  0.1224  0.3930
  550MOL0     C74150   0.180   3.341   8.350 -0.1718 -0.3222 -0.6247
  550MOL0     O74151   0.126   3.256   8.442 -0.7638 -0.0940  0.2705
  550MOL0     C74152   0.064   3.131   8.405  0.0311 -0.9763  0.3949
  550MOL0     C74153  -0.083   3.164   8.343  0.0956 -0.1016  0.1503
  550MOL0     C74154  -0.176   3.231   8.449 -0.9171 -0.8042  0.1209
  550MOL0     C74155  -0.324   3.226   8.419  0.1202  1.4610 -0.9492
  550MOL0     C74156  -0.406   3.305   8.524  0.6204 -0.2094  0.1313
  550MOL0     C74157  -0.552   3.285   8.483 -0.5088 -1.3380  0.1160
  550MOL0     C74158  -0.649   3.362   8.575 -0.2677  0.8321  0.4399
  550MOL0     C74159  -0.788   3.290   8.554 -0.1390  0.3337  0.3459
  550MOL0    Cl74160  -0.921   3.389   8.636 -0.1900  0.5709  0.1415
  550MOL0     C74161   0.264   3.440   8.396 -1.0362  0.6402 -0.1486
  550MOL0     C74162   0.335   3.516   8.307  0.9675 -0.6044  0.3741
  550MOL0     O74163   0.466   3.745   8.179 -0.4146  0.7896  0.4894
  550MOL0     C74164   0.582   3.640   7.865  0.4874 -0.1221  0.2918
  550MOL0     C74165   0.682   3.663   7.761 -0.3734  0.6914  0.1926
  550MOL0     N74166   1.374   3.446   7.863  0.3304 -0.1505 -0.3974
  550MOL0     N74167   1.498   3.460   7.853 -0.3934  0.2419 -0.3976
  550MOL0     C74168   2.345   2.527   7.560  0.0143 -0.5549 -0.4016
  550MOL0     C74169   2.400   2.403   7.551 -0.3061  0.7736 -0.0388
  550MOL0     C74170   2.591   2.027   7.578 -0.6982  0.5734 -0.0475
  550MOL0     C74171   2.706   2.003   7.504 -0.3608  0.1132 -0.4329
  550MOL0     C74172   2.763   1.880   7.479 -0.4308 -0.0650  0.6531
  550MOL0     C74173   2.697   1.760   7.511 -0.5394 -0.5128 -0.2564
  550MOL0     O74174   2.735   1.636   7.466 -0.2812 -0.1069  0.2594
  550MOL0     C74175   2.840   1.618   7.375  0.0855  0.2622 -0.1953
  550MOL0     C74176   2.976   1.619   7.447 -0.1968  0.8088 -0.3750
  550MOL0     C74177   3.085   1.696   7.378  0.3951  0.7270  1.0283
  550MOL0     C74178   3.137   1.620   7.247 -0.7193 -0.2433  0.1736
  550MOL0     C74179   3.235   1.515   7.299 -0.4498 -0.5797  0.2055
  550MOL0     C74180   3.290   1.417   7.349  0.3987 -0.6113 -0.6202
  550MOL0     C74181   2.580   1.781   7.585  0.3976  0.4162 -0.0517
  550MOL0     C74182   2.529   1.904   7.622 -0.1682  0.1342  0.7203
  550MOL0     H74183   2.714   2.477   7.647 -0.4358  0.5461 -0.6944
  550MOL0     H74184   2.629   2.696   7.677  0.9148  0.0745 -0.7254
  550MOL0     H74185   2.256   2.779   7.480  0.8881  2.4064 -0.8026
  550MOL0     H74186   2.168   2.742   7.630  0.2555  0.1414  1.1293
  550MOL0     H74187   2.226   2.961   7.706  0.9898 -2.7362 -0.0840
  550MOL0     H74188   2.312   3.007   7.556  1.1402 -1.6497 -0.0532
  550MOL0     H74189   2.105   3.014   7.433  2.7043 -3.6908 -1.4804
  550MOL0     H74190   2.031   2.905   7.546  0.7693 -1.1605 -2.5832
  550MOL0     H74191   2.080   3.124   7.720 -2.0903  0.3535  0.6852
  550MOL0     H74192   2.092   3.206   7.564  2.6686  0.1768  1.9196
  550MOL0     H74193   1.860   3.123   7.499 -4.7503  0.3407  1.2964
  550MOL0     H74194   1.853   3.032   7.645  1.2317 -0.9531  0.0140
  550MOL0     H74195   1.865   3.227   7.787 -0.1241  1.0903  0.4389
  550MOL0     H74196   1.887   3.336   7.642 -0.3840 -0.2976 -2.7607
  550MOL0     H74197   1.671   3.226   7.567  2.9487 -0.5284 -1.5468
  550MOL0     H74198   1.633   3.202   7.738 -0.0279  0.6033  0.6409
  550MOL0     H74199   1.674   3.450   7.583 -0.4948  1.7521  0.1664
  550MOL0     H74200   1.731   3.452   7.752 -0.5147 -0.8012 -0.5615
  550MOL0     H74201   1.422   3.367   7.554  3.8698  0.2560 -0.3726
  550MOL0     H74202   1.155   3.328   7.646  0.3708  1.5740 -0.7965
  550MOL0     H74203   1.113   3.380   7.814 -3.2692  3.9463 -1.0077
  550MOL0     H74204   0.988   3.499   7.621  0.8299  0.7850 -1.7718
  550MOL0     H74205   1.142   3.550   7.575  0.7169 -2.1833 -0.6823
  550MOL0     H74206   1.193   3.657   7.792  1.2421  0.0816 -2.7260
  550MOL0     H74207   1.028   3.620   7.848  1.3350 -2.0397  0.8496
  550MOL0     H74208   1.081   3.808   7.617 -1.9935 -0.4539 -0.8254
  550MOL0     H74209   1.044   3.848   7.788  0.4910  2.9873 -2.7653
  550MOL0     H74210   0.898   3.851   7.934 -1.1754  0.9299 -2.0021
  550MOL0     H74211   0.837   3.810   8.181 -1.4354 -0.9870  0.4572
  550MOL0     H74212   0.760   3.953   8.113 -1.5376  1.3757  2.5267
  550MOL0     H74213   0.671   3.845   8.217 -1.8070  0.3659 -0.8426
  550MOL0     H74214   0.237   3.390   8.012  2.7848  3.8901 -0.2245
  550MOL0     H74215   0.152   3.225   8.168  0.0367  0.4762 -0.7304
  550MOL0     H74216   0.121   3.064   8.340  1.6783 -0.9139  1.6832
  550MOL0     H74217   0.043   3.068   8.492  0.1818 -1.7335 -0.1062
  550MOL0     H74218  -0.072   3.237   8.262 -0.2135  0.4803  0.6191
  550MOL0     H74219  -0.129   3.077   8.297 -0.8947 -1.1530  2.8984
  550MOL0     H74220  -0.137   3.334   8.447  1.4852 -1.3187  5.2071
  550MOL0     H74221  -0.160   3.184   8.546 -1.3236 -2.2316 -0.4784
  550MOL0     H74222  -0.341   3.265   8.319  0.7761 -0.2717 -1.7737
  550MOL0     H74223  -0.361   3.123   8.426  0.6245  1.3617  1.2114
  550MOL0     H74224  -0.378   3.411   8.523 -0.3570  0.1262  2.4768
  550MOL0     H74225  -0.398   3.272   8.628 -0.8893 -1.3855 -0.0987
  550MOL0     H74226  -0.573   3.320   8.381 -0.3037 -0.1413  0.4690
  550MOL0     H74227  -0.580   3.180   8.479 -2.6926 -0.7971  0.3245
  550MOL0     H74228  -0.639   3.468   8.549  0.9693  0.3881 -1.0225
  550MOL0     H74229  -0.616   3.337   8.677 -0.8956  0.9969  0.6871
  550MOL0     H74230  -0.770   3.187   8.589  2.4175  0.2318 -1.0357
  550MOL0     H74231  -0.816   3.274   8.450  1.8894  2.2889 -0.5884
  550MOL0     H74232   0.270   3.457   8.503 -1.3526 -0.4569  0.0592
  550MOL0     H74233   0.399   3.592   8.352 -0.6247 -0.2264  2.1199
  550MOL0     H74234   0.495   3.585   7.832 -0.3727  0.8399  0.9098
  550MOL0     H74235   0.666   3.633   7.657  4.2849 -1.7923 -0.0715
  550MOL0     H74236   2.238   2.538   7.543 -0.3169 -0.4056  1.5205
  550MOL0     H74237   2.347   2.316   7.511  2.7230 -0.8976 -0.7162
  550MOL0     H74238   2.756   2.093   7.470  0.3588  0.5567  1.6369
  550MOL0     H74239   2.849   1.867   7.413 -2.1928  0.0206 -1.7890
  550MOL0     H74240   2.839   1.515   7.338  4.4426 -0.7442  1.7934
  550MOL0     H74241   2.842   1.688   7.291 -0.2358  0.7059  0.1615
  550MOL0     H74242   2.999   1.513   7.459  1.3403  1.1300 -0.2092
  550MOL0     H74243   2.963   1.668   7.544 -1.6530 -0.8295  0.2981
  550MOL0     H74244   3.172   1.712   7.443  1.3285  1.6852 -0.3807
  550MOL0     H74245   3.046   1.795   7.354 -0.5128  0.3552  0.9600
  550MOL0     H74246   3.193   1.698   7.194  0.1821 -0.2906  1.0188
  550MOL0     H74247   3.061   1.572   7.185  1.0060 -3.9984  0.6615
  550MOL0     H74248   3.328   1.324   7.387  1.4296  0.0176 -0.0723
  550MOL0     H74249   2.523   1.696   7.622  1.8014 -1.4794 -1.9790
  550MOL0     H74250   2.443   1.922   7.687 -1.0545 -0.1997 -0.3290
  551MOL0     O74251   0.669   3.095   3.021 -0.6189  0.2323 -0.2847
  551MOL0     C74252   0.732   3.003   3.082  1.1360 -0.0915 -0.6888
  551MOL0     O74253   0.690   2.945   3.202 -0.4081 -0.2350 -0.0407
  551MOL0     C74254   0.557   2.970   3.238  0.0252 -0.5309  0.3274
  551MOL0     C74255   0.445   2.934   3.161 -0.1847  0.5150 -0.1506
  551MOL0     C74256   0.323   2.987   3.187  0.7756  0.2239  0.0411
  551MOL0     C74257   0.304   3.081   3.287 -0.0682  0.5424 -0.1722
  551MOL0     O74258   0.170   3.130   3.294 -0.0823 -0.0017 -0.0888
  551MOL0     C74259   0.124   3.189   3.417 -0.4496 -0.9779  0.6465
  551MOL0     C74260  -0.009   3.253   3.392 -0.0427  0.4233 -0.3796
  551MOL0     C74261  -0.121   3.156   3.351 -0.0528  0.9651  0.0445
  551MOL0     C74262  -0.239   3.248   3.316 -0.3016  1.0666  0.1325
  551MOL0     C74263  -0.376   3.183   3.282  0.8003  0.1510 -0.0524
  551MOL0     C74264  -0.481   3.287   3.246 -0.1347  0.3525  0.1713
  551MOL0     C74265  -0.622   3.234   3.271  0.5825  1.0728 -0.7454
  551MOL0     C74266  -0.652   3.239   3.425  0.7952 -0.1498 -0.0874
  551MOL0     N74267  -0.794   3.198   3.431 -1.0260 -0.1521  0.7249
  551MOL0     C74268  -0.894   3.284   3.409 -0.1027  0.8340 -0.3250
  551MOL0     C74269  -1.009   3.210   3.419  0.1380  0.4553  0.3815
  551MOL0     C74270  -1.141   3.260   3.363 -0.9508  0.3770 -0.3452
  551MOL0     C74271  -1.143   3.252   3.217 -0.0221  0.3699 -0.3235
  551MOL0     C74272  -1.264   3.302   3.154  0.6579  0.1946 -0.1856
  551MOL0     C74273  -1.242   3.300   2.998  0.6926 -1.1824 -0.4525
  551MOL0     O74274  -1.342   3.372   2.927 -0.3525 -0.0653 -0.6444
  551MOL0     C74275  -1.467   3.316   2.928  0.1415 -0.0809  0.3647
  551MOL0     C74276  -1.498   3.175   2.934  0.4474 -0.3816 -0.1594
  551MOL0     C74277  -1.629   3.127   2.939  0.7154  0.4084 -0.2348
  551MOL0     C74278  -1.647   2.983   2.951  0.0372 -0.2129 -0.1254
  551MOL0     C74279  -1.737   3.220   2.948  0.0094  0.1359  0.0257
  551MOL0     C74280  -1.878   3.183   2.965 -0.6003 -1.3282  0.4240
  551MOL0     O74281  -1.914   3.051   2.971  0.3813 -0.2879 -0.8324
  551MOL0     C74282  -2.032   3.006   3.033  0.8997 -1.1038 -0.0172
  551MOL0     C74283  -2.149   3.086   3.037  0.1691  0.5955 -0.1477
  551MOL0     C74284  -2.271   3.049   3.094 -0.6356  0.1665 -0.1098
  551MOL0     C74285  -2.275   2.923   3.160  0.3445 -0.2427  1.0313
  551MOL0     O74286  -2.386   2.890   3.226 -0.5415  0.3619  0.4871
  551MOL0     C74287  -2.412   2.754   3.268 -0.5880 -0.2858 -0.0052
  551MOL0     C74288  -2.558   2.742   3.313  0.0302  0.2318  0.2442
  551MOL0     C74289  -2.651   2.801   3.214 -0.1735  0.5173 -0.4016
  551MOL0     C74290  -2.799   2.745   3.244  0.0209  0.1754  0.2170
  551MOL0     C74291  -2.847   2.680   3.119  0.8406  0.5661  0.6175
  551MOL0     C74292  -2.978   2.604   3.142  1.2611  0.7506  0.3165
  551MOL0     C74293  -3.104   2.683   3.163  0.6791  0.1466 -0.5228
  551MOL0     C74294  -3.136   2.773   3.048  0.6142 -0.7935 -0.2467
  551MOL0    Cl74295  -3.197   2.653   2.931 -0.1553 -0.1889  0.8177
  551MOL0     C74296  -2.160   2.844   3.160  0.0258 -0.4519 -0.4151
  551MOL0     C74297  -2.044   2.881   3.098 -0.2333 -0.2388  0.5813
  551MOL0     O74298  -1.953   3.283   2.986  0.0156 -0.1221  0.7760
  551MOL0     C74299  -1.706   3.356   2.924  0.4130  0.9833 -0.3136
  551MOL0     C74300  -1.576   3.406   2.918 -0.1426  0.1342 -0.7703
  551MOL0     N74301  -0.975   3.085   3.446 -0.4293  0.1158 -0.2444
  551MOL0     N74302  -0.845   3.078   3.453 -0.8768  0.2214 -0.4073
  551MOL0     C74303   0.414   3.115   3.369 -0.0823 -0.0030  0.0414
  551MOL0     C74304   0.540   3.061   3.343 -0.0918 -0.0423  0.1777
  551MOL0     C74305   0.861   2.973   3.032 -0.4969 -0.0267  0.4577
  551MOL0     C74306   0.955   2.906   3.100 -0.5543  0.7578  0.7332
  551MOL0     C74307   1.077   2.864   3.052 -0.0913  0.0299 -0.1155
  551MOL0     C74308   1.100   2.874   2.915  0.5791  0.2241  0.0846
  551MOL0     O74309   1.202   2.811   2.847  0.1153 -0.1093  0.3550
  551MOL0     C74310   1.292   2.725   2.922 -1.4249  0.5170  0.4639
  551MOL0     C74311   1.356   2.622   2.827 -1.0707  0.1823  0.1035
  551MOL0     C74312   1.279   2.505   2.790  0.6571 -0.5264 -0.0506
  551MOL0     C74313   1.354   2.419   2.697 -0.8435  0.4026 -0.1142
  551MOL0     C74314   1.398   2.492   2.577 -0.1406  0.1105  0.3965
  551MOL0     C74315   1.427   2.563   2.481  0.0568  0.2572  0.4068
  551MOL0     C74316   1.012   2.940   2.840  0.3673  0.0509 -0.0368
  551MOL0     C74317   0.894   2.998   2.896 -0.2199  0.3485 -0.5549
  551MOL0     H74318   0.461   2.866   3.078 -2.4677 -0.2647 -0.0339
  551MOL0     H74319   0.239   2.959   3.125 -0.0896 -1.0310  1.6959
  551MOL0     H74320   0.107   3.113   3.494  0.0690 -0.8650  0.8818
  551MOL0     H74321   0.203   3.256   3.453  0.8069 -1.9310 -0.2976
  551MOL0     H74322  -0.033   3.312   3.481  2.3193  1.1097 -0.1385
  551MOL0     H74323   0.006   3.324   3.309  0.6183  0.5758 -0.1291
  551MOL0     H74324  -0.099   3.089   3.267  1.7643  1.4912  0.0669
  551MOL0     H74325  -0.157   3.091   3.432  0.6146 -0.2447 -0.5937
  551MOL0     H74326  -0.262   3.301   3.409 -0.2685 -1.2022  1.5147
  551MOL0     H74327  -0.217   3.301   3.223 -3.3994  0.3264 -1.1722
  551MOL0     H74328  -0.362   3.122   3.193  0.2596 -1.0134  0.6373
  551MOL0     H74329  -0.413   3.121   3.364  1.8081 -1.5489 -0.8304
  551MOL0     H74330  -0.468   3.381   3.301  0.4354  0.0226  0.6136
  551MOL0     H74331  -0.465   3.309   3.140 -0.8971  0.5338  0.0830
  551MOL0     H74332  -0.688   3.302   3.217  0.5754  0.9478 -0.8957
  551MOL0     H74333  -0.640   3.133   3.234  1.8724 -0.1266  1.6482
  551MOL0     H74334  -0.641   3.344   3.457  1.0051  0.9755 -3.4991
  551MOL0     H74335  -0.581   3.179   3.482 -0.2829 -1.7619 -0.3828
  551MOL0     H74336  -0.893   3.385   3.372 -1.3634  0.3947 -1.6477
  551MOL0     H74337  -1.221   3.204   3.413 -0.0471 -1.1287 -0.5371
  551MOL0     H74338  -1.141   3.363   3.400  4.9874  0.5479  0.1378
  551MOL0     H74339  -1.144   3.148   3.181  0.5026  1.5818 -4.3805
  551MOL0     H74340  -1.051   3.298   3.181  0.3994  2.3181  2.8777
  551MOL0     H74341  -1.275   3.407   3.184 -1.9298 -0.2138  0.5049
  551MOL0     H74342  -1.350   3.245   3.189 -0.3883  2.2355  0.7828
  551MOL0     H74343  -1.232   3.203   2.950  0.9892 -1.1524 -0.4574
  551MOL0     H74344  -1.146   3.352   2.989 -0.2334  1.0984  1.5428
  551MOL0     H74345  -1.421   3.099   2.939  0.9181  0.0795  4.8153
  551MOL0     H74346  -1.704   2.945   2.866  3.6137  0.5423 -3.0841
  551MOL0     H74347  -1.550   2.935   2.939 -0.2574 -0.4155 -1.8389
  551MOL0     H74348  -1.692   2.962   3.049 -0.0077  4.4990  1.0713
  551MOL0     H74349  -2.154   3.172   2.970 -1.0192  1.0429  0.4904
  551MOL0     H74350  -2.350   3.124   3.096 -0.7775  0.0390 -0.8129
  551MOL0     H74351  -2.400   2.697   3.175  1.7463  0.8892 -0.5020
  551MOL0     H74352  -2.349   2.734   3.355 -1.0593  2.0344  0.9594
  551MOL0     H74353  -2.572   2.634   3.323  2.7436 -0.1441  0.6189
  551MOL0     H74354  -2.573   2.785   3.413  0.5895  2.1060 -0.4339
  551MOL0     H74355  -2.614   2.784   3.112  0.9344  2.0782 -0.2917
  551MOL0     H74356  -2.661   2.909   3.219 -2.0526  0.3768 -0.3758
  551MOL0     H74357  -2.811   2.674   3.326 -1.1666  1.4556  1.1985
  551MOL0     H74358  -2.865   2.826   3.276 -2.1134 -1.1416 -0.6607
  551MOL0     H74359  -2.773   2.602   3.097 -1.0293 -1.3795  0.8977
  551MOL0     H74360  -2.853   2.749   3.035  0.0080 -1.2595 -0.9020
  551MOL0     H74361  -2.987   2.538   3.055  2.9844  1.1938 -0.2319
  551MOL0     H74362  -2.973   2.530   3.222 -0.4088 -1.1970 -1.2446
  551MOL0     H74363  -3.090   2.734   3.259 -0.1220 -1.2788  0.3820
  551MOL0     H74364  -3.183   2.610   3.179  0.1245 -0.4655 -4.8515
  551MOL0     H74365  -3.053   2.832   3.008 -1.0400  3.5569  2.0678
  551MOL0     H74366  -3.214   2.848   3.063 -0.0693 -1.0197 -2.3454
  551MOL0     H74367  -2.170   2.746   3.204  0.7114 -0.6782 -0.7549
  551MOL0     H74368  -1.953   2.825   3.079  0.9915  1.1565  2.0454
  551MOL0     H74369  -1.781   3.434   2.930 -0.9132 -0.3601  2.1153
  551MOL0     H74370  -1.552   3.510   2.897 -0.0616 -0.4581 -4.2097
  551MOL0     H74371   0.395   3.167   3.462 -1.1075 -0.3107  0.0208
  551MOL0     H74372   0.620   3.082   3.414 -0.5591 -0.8267  0.9596
  551MOL0     H74373   0.940   2.876   3.204 -1.0402 -2.4467 -0.1395
  551MOL0     H74374   1.150   2.808   3.110  1.7728  1.7180 -0.7087
  551MOL0     H74375   1.366   2.793   2.964  0.0136 -1.7191  1.7170
  551MOL0     H74376   1.242   2.664   2.998  0.0254 -1.0941  0.1728
  551MOL0     H74377   1.449   2.585   2.871 -2.2486 -1.8392  1.0360
  551MOL0     H74378   1.369   2.683   2.737  2.6658  1.4052  1.2489
  551MOL0     H74379   1.185   2.530   2.740  0.2857  0.4094  1.0565
  551MOL0     H74380   1.263   2.446   2.880  1.0686 -0.5810 -0.0138
  551MOL0     H74381   1.294   2.330   2.673 -1.1769  1.2950 -2.9558
  551MOL0     H74382   1.439   2.378   2.751  1.2033 -1.0559 -4.0401
  551MOL0     H74383   1.475   2.636   2.418  0.8027  0.1520  0.8379
  551MOL0     H74384   1.023   2.957   2.733  1.4086  4.3702  0.5295
  551MOL0     H74385   0.829   3.056   2.832 -0.1158  2.1029  0.8549
  552MOL0     O74386   8.900   4.431   4.049  0.5614 -0.5401  0.1481
  552MOL0     C74387   9.012   4.456   4.089 -0.1461  0.3179  0.6927
  552MOL0     O74388   9.050   4.559   4.168 -0.0328  0.3736  0.9532
  552MOL0     C74389   8.957   4.642   4.216 -0.9039  0.0753  0.7298
  552MOL0     C74390   8.988   4.677   4.343 -0.5151  0.1838 -0.2948
  552MOL0     C74391   8.911   4.750   4.428  0.0263 -0.2895  0.2512
  552MOL0     C74392   8.798   4.813   4.371  1.2857 -0.0779 -0.6741
  552MOL0     O74393   8.711   4.886   4.448 -0.0872  0.5915 -0.6075
  552MOL0     C74394   8.725   5.028   4.414  0.3143  0.5168  0.1778
  552MOL0     C74395   8.820   5.089   4.524 -0.6241 -0.0305 -0.4918
  552MOL0     C74396   8.764   5.106   4.665  0.7967 -0.4780 -0.0920
  552MOL0     C74397   8.663   5.224   4.679 -0.2986  0.0244  0.5028
  552MOL0     C74398   8.597   5.243   4.819  0.5992  0.5196 -0.5866
  552MOL0     C74399   8.504   5.366   4.820  0.0282 -0.1979  0.7595
  552MOL0     C74400   8.435   5.343   4.956 -0.2978  0.3246 -0.0335
  552MOL0     C74401   8.357   5.463   4.994 -0.9148 -0.0066 -0.5264
  552MOL0     N74402   8.296   5.457   5.118  1.4123  0.5131 -0.0577
  552MOL0     C74403   8.357   5.480   5.233 -0.6538  0.0011  0.2603
  552MOL0     C74404   8.271   5.454   5.331  0.4684 -0.0089 -0.4500
  552MOL0     C74405   8.304   5.456   5.473  0.1147  0.5836  0.1993
  552MOL0     C74406   8.249   5.574   5.554  0.2125 -0.4018 -0.1900
  552MOL0     C74407   8.093   5.599   5.519 -0.6662 -0.1297 -0.7062
  552MOL0     C74408   8.033   5.721   5.598 -0.3670  0.0714 -0.6263
  552MOL0     O74409   7.952   5.685   5.720  0.2164  0.2146 -0.1823
  552MOL0     C74410   8.007   5.669   5.835 -0.1157 -1.4442 -1.7881
  552MOL0     C74411   7.933   5.599   5.928  0.1317 -0.7379  0.3178
  552MOL0     C74412   7.978   5.568   6.055  0.0190  0.9005 -0.1611
  552MOL0     C74413   7.887   5.493   6.139 -0.3919  0.0344 -0.3473
  552MOL0     C74414   8.103   5.609   6.099  0.3274  0.2518  0.4294
  552MOL0     C74415   8.167   5.568   6.225  0.1163 -0.2700 -0.1325
  552MOL0     O74416   8.096   5.567   6.348 -0.4776 -0.3130  0.4660
  552MOL0     C74417   8.150   5.505   6.465  0.3143 -0.1212 -0.1051
  552MOL0     C74418   8.167   5.574   6.587 -0.3812 -0.1969 -0.3129
  552MOL0     C74419   8.170   5.511   6.710  0.0059 -0.1359 -0.3543
  552MOL0     C74420   8.165   5.374   6.716  0.2687 -0.8336  1.0179
  552MOL0     O74421   8.164   5.298   6.826  0.3848  0.1318 -1.4686
  552MOL0     C74422   8.225   5.340   6.943 -0.7993  0.0278 -0.2973
  552MOL0     C74423   8.224   5.231   7.041  0.4508  0.1654  0.1149
  552MOL0     C74424   8.077   5.218   7.095  0.4224  0.1661  0.4097
  552MOL0     C74425   8.050   5.072   7.128 -0.1425  0.2757  0.7933
  552MOL0     C74426   7.909   5.044   7.186  0.2497  0.6641 -0.1203
  552MOL0     C74427   7.890   4.892   7.242 -0.7348 -0.1955 -0.4141
  552MOL0     C74428   8.005   4.846   7.329 -0.1387 -0.5913  0.3608
  552MOL0     C74429   7.974   4.716   7.405  0.0645  0.5385 -0.0002
  552MOL0    Cl74430   7.937   4.577   7.289 -0.0100 -0.2422  0.0942
  552MOL0     C74431   8.155   5.302   6.595 -0.4828 -0.5306  0.0876
  552MOL0     C74432   8.140   5.367   6.472 -0.4405  0.5203  0.1235
  552MOL0     O74433   8.283   5.537   6.204 -0.6514 -0.5357 -0.1652
  552MOL0     C74434   8.174   5.697   6.016  0.2217  0.3333  0.0095
  552MOL0     C74435   8.124   5.721   5.886 -0.8324 -0.8238 -0.7312
  552MOL0     N74436   8.159   5.398   5.277 -0.1739 -0.3368  0.6874
  552MOL0     N74437   8.174   5.402   5.148  0.0633 -0.0098  0.8537
  552MOL0     C74438   8.761   4.788   4.236 -0.1847 -0.5973  0.5151
  552MOL0     C74439   8.846   4.701   4.153 -0.5565 -0.3429  0.1885
  552MOL0     C74440   9.123   4.385   4.028 -0.3955 -0.1692  0.2573
  552MOL0     C74441   9.259   4.417   4.059 -0.4135 -0.3059  0.3120
  552MOL0     C74442   9.371   4.352   4.006 -0.7699  0.0939  0.3191
  552MOL0     C74443   9.357   4.244   3.922  0.4653 -0.3121 -0.2040
  552MOL0     O74444   9.462   4.173   3.871 -0.9384 -0.2442 -0.3251
  552MOL0     C74445   9.602   4.216   3.876  0.0123 -0.5906  0.2063
  552MOL0     C74446   9.673   4.131   3.779  0.1239  0.4464 -0.5159
  552MOL0     C74447   9.611   4.103   3.639 -0.6337 -0.2143 -0.1404
  552MOL0     C74448   9.704   4.011   3.562  0.1817  0.1019  0.0395
  552MOL0     C74449   9.717   3.878   3.623 -0.2473 -0.3017 -0.0277
  552MOL0     C74450   9.720   3.774   3.678 -0.9416  0.0352  0.1033
  552MOL0     C74451   9.218   4.202   3.900  0.2849 -0.6081  0.1937
  552MOL0     C74452   9.107   4.274   3.949  0.6100  0.1000 -0.1077
  552MOL0     H74453   9.072   4.633   4.396 -0.3958 -0.1711 -0.7770
  552MOL0     H74454   8.950   4.777   4.525  2.4392 -1.2618 -0.3804
  552MOL0     H74455   8.753   5.051   4.311 -0.4479 -0.2508 -0.2012
  552MOL0     H74456   8.626   5.074   4.421 -0.5879 -0.1693 -4.7069
  552MOL0     H74457   8.905   5.020   4.532 -0.3341  0.4443  0.9139
  552MOL0     H74458   8.866   5.184   4.494 -1.1990  1.6196  3.2558
  552MOL0     H74459   8.718   5.011   4.692 -0.5922 -0.4152 -2.0111
  552MOL0     H74460   8.845   5.122   4.736  0.1646 -1.9100  1.0084
  552MOL0     H74461   8.713   5.315   4.646 -0.8864  1.1800  2.6276
  552MOL0     H74462   8.574   5.203   4.619  0.6441  0.4963 -1.1153
  552MOL0     H74463   8.539   5.152   4.837  0.2943  0.9976  0.9516
  552MOL0     H74464   8.677   5.265   4.889  1.2045 -0.3640 -0.9825
  552MOL0     H74465   8.570   5.453   4.816 -0.9625  0.5966  1.3033
  552MOL0     H74466   8.440   5.368   4.731  3.5503  1.8215 -2.0396
  552MOL0     H74467   8.374   5.253   4.962 -0.6051  0.5301 -0.0398
  552MOL0     H74468   8.517   5.325   5.027  0.1815 -2.1813 -1.1050
  552MOL0     H74469   8.276   5.493   4.927  0.5205  0.1828 -2.2760
  552MOL0     H74470   8.419   5.554   4.991 -1.1190  0.4619  3.3398
  552MOL0     H74471   8.457   5.523   5.238 -0.6386 -0.0858  0.7715
  552MOL0     H74472   8.278   5.369   5.534  0.0187 -1.3881 -2.4659
  552MOL0     H74473   8.413   5.445   5.482 -0.0314  0.9565  5.0971
  552MOL0     H74474   8.313   5.660   5.528 -0.0802 -0.1492 -0.0777
  552MOL0     H74475   8.248   5.565   5.663 -2.5378  0.1719 -0.1103
  552MOL0     H74476   8.041   5.506   5.545  1.5656 -1.3652 -0.3800
  552MOL0     H74477   8.077   5.621   5.414 -0.5980  0.2486 -0.6383
  552MOL0     H74478   7.966   5.778   5.532  0.5374  0.9128 -0.8348
  552MOL0     H74479   8.107   5.796   5.626  0.6941 -0.2888 -2.3133
  552MOL0     H74480   7.836   5.573   5.887 -1.2996  1.7585  1.8276
  552MOL0     H74481   7.888   5.537   6.239 -1.3405  0.5530 -0.5534
  552MOL0     H74482   7.785   5.507   6.102  0.0211 -2.5157 -2.8243
  552MOL0     H74483   7.908   5.386   6.134  1.8963  0.4775 -1.3713
  552MOL0     H74484   8.165   5.682   6.575 -0.0108  0.1393  2.1068
  552MOL0     H74485   8.191   5.570   6.798 -0.7161 -1.0811  0.4663
  552MOL0     H74486   8.333   5.348   6.932 -0.8967 -0.5913 -1.8978
  552MOL0     H74487   8.190   5.435   6.984  1.2327  0.6154  0.1764
  552MOL0     H74488   8.244   5.135   6.991 -1.7563  0.0728 -0.6725
  552MOL0     H74489   8.294   5.241   7.125  0.0227  1.2454  0.3543
  552MOL0     H74490   8.007   5.262   7.023  1.2012 -1.9880 -1.7864
  552MOL0     H74491   8.082   5.266   7.193  2.4732 -1.6840  1.2811
  552MOL0     H74492   8.053   5.019   7.032 -3.7269 -0.1367  0.7784
  552MOL0     H74493   8.135   5.043   7.190 -0.1823 -2.7608 -0.3997
  552MOL0     H74494   7.822   5.074   7.128  0.6409 -0.2526 -1.2196
  552MOL0     H74495   7.890   5.108   7.272  0.8202  2.9145 -1.5731
  552MOL0     H74496   7.796   4.889   7.299  0.2068  2.0252  1.4004
  552MOL0     H74497   7.880   4.823   7.158 -0.9876  0.2245 -0.7355
  552MOL0     H74498   8.034   4.932   7.391 -2.7264  0.1150  0.6955
  552MOL0     H74499   8.091   4.820   7.267  0.9254  1.0610  1.0514
  552MOL0     H74500   7.887   4.736   7.468  0.2133 -0.0479  0.3986
  552MOL0     H74501   8.054   4.701   7.478  1.5920 -1.0034 -1.8787
  552MOL0     H74502   8.155   5.194   6.597 -1.7087 -0.5740 -0.8339
  552MOL0     H74503   8.121   5.305   6.385 -0.4354 -1.5214  1.5174
  552MOL0     H74504   8.271   5.731   6.052  0.7892 -1.3215  0.1495
  552MOL0     H74505   8.193   5.786   5.833 -0.2661  0.0341  0.9618
  552MOL0     H74506   8.678   4.845   4.196  0.5746  0.1679  0.0127
  552MOL0     H74507   8.817   4.679   4.050 -0.1897  1.5925 -0.3610
  552MOL0     H74508   9.267   4.500   4.129 -0.5180  0.7637 -0.9230
  552MOL0     H74509   9.472   4.383   4.030 -1.4724  3.1497 -0.2072
  552MOL0     H74510   9.612   4.323   3.856 -2.3083 -0.1969  0.8473
  552MOL0     H74511   9.654   4.201   3.972  1.1853  2.1425  0.1074
  552MOL0     H74512   9.688   4.039   3.837  0.2501  0.8472  0.1023
  552MOL0     H74513   9.774   4.173   3.770  1.6261 -2.5287  0.9591
  552MOL0     H74514   9.599   4.200   3.590  2.4585 -1.2982 -3.4733
  552MOL0     H74515   9.513   4.059   3.659 -1.0505 -0.0037 -1.5861
  552MOL0     H74516   9.802   4.054   3.543 -0.7181  1.6861 -1.3311
  552MOL0     H74517   9.658   4.005   3.463  0.6042  4.3722 -0.6370
  552MOL0     H74518   9.732   3.682   3.732 -0.0406 -1.4925 -2.4693
  552MOL0     H74519   9.195   4.124   3.828 -3.6673 -1.7381  2.3861
  552MOL0     H74520   9.008   4.239   3.921 -0.9950  2.2667  2.2991
  553MOL0     O74521   2.753   6.296   6.460 -0.1437 -0.1023 -0.0961
  553MOL0     C74522   2.687   6.363   6.377 -0.4578  0.4019  0.4445
  553MOL0     O74523   2.544   6.358   6.359 -0.1889 -0.1593 -0.4315
  553MOL0     C74524   2.456   6.262   6.417 -0.9940  0.3029  0.3643
  553MOL0     C74525   2.321   6.300   6.412  0.2022 -0.8631 -0.0911
  553MOL0     C74526   2.221   6.207   6.456 -0.4806 -0.1925 -0.3145
  553MOL0     C74527   2.264   6.087   6.511  0.6135 -0.3794 -0.4616
  553MOL0     O74528   2.177   5.996   6.564  0.4615  0.4792 -0.4337
  553MOL0     C74529   2.062   5.968   6.484 -0.3182  0.2373 -0.1229
  553MOL0     C74530   1.927   6.008   6.540  0.4623 -0.6495  0.2015
  553MOL0     C74531   1.827   5.905   6.495 -0.0960 -0.2799  0.2463
  553MOL0     C74532   1.701   5.934   6.574  0.8448  0.7468  0.0794
  553MOL0     C74533   1.608   5.817   6.547  0.4489  0.5946 -0.9483
  553MOL0     C74534   1.524   5.783   6.674 -0.0561  1.3497  0.1156
  553MOL0     C74535   1.406   5.699   6.614 -0.3426  0.6682  0.7702
  553MOL0     C74536   1.348   5.613   6.729  0.3253  0.7945 -0.2205
  553MOL0     N74537   1.254   5.520   6.668 -0.0509 -0.2057  0.1911
  553MOL0     C74538   1.127   5.497   6.725  1.0918  0.2094  1.0419
  553MOL0     C74539   1.098   5.378   6.672 -0.2517 -0.3695 -0.4744
  553MOL0     C74540   0.975   5.293   6.704 -1.2117 -0.4312  0.2196
  553MOL0     C74541   0.850   5.373   6.701 -0.0312 -0.6441 -0.4139
  553MOL0     C74542   0.816   5.411   6.548  0.0930 -0.1440  0.1685
  553MOL0     C74543   0.664   5.394   6.501 -0.5415 -0.0887 -0.5806
  553MOL0     O74544   0.572   5.470   6.586 -0.6127  0.1188  0.0252
  553MOL0     C74545   0.436   5.478   6.545  0.1140 -0.0785 -0.2374
  553MOL0     C74546   0.387   5.411   6.437 -0.8917  0.4465  1.0799
  553MOL0     C74547   0.256   5.415   6.404 -0.0535  0.1551  0.7201
  553MOL0     C74548   0.222   5.343   6.283  0.5966 -0.7290 -0.0250
  553MOL0     C74549   0.166   5.492   6.476 -0.1170 -0.2532  0.9963
  553MOL0     C74550   0.030   5.520   6.431 -0.8160 -0.3896  0.1549
  553MOL0     O74551  -0.029   5.618   6.506  0.3891  0.2437 -0.1918
  553MOL0     C74552  -0.169   5.617   6.534 -0.3070 -0.0564 -0.3635
  553MOL0     C74553  -0.265   5.522   6.495 -1.0936 -0.3099 -0.1731
  553MOL0     C74554  -0.404   5.523   6.523 -0.2228  0.7173  0.7483
  553MOL0     C74555  -0.448   5.632   6.593  0.0543  0.3870  0.6063
  553MOL0     O74556  -0.570   5.638   6.647  0.5916  1.6428  0.0845
  553MOL0     C74557  -0.669   5.613   6.558  0.2300  0.0788 -0.4377
  553MOL0     C74558  -0.814   5.633   6.624 -0.0505 -0.2572  0.4311
  553MOL0     C74559  -0.845   5.774   6.667  0.2106  0.1920  0.0951
  553MOL0     C74560  -0.947   5.774   6.779 -0.4866 -0.2082 -0.0608
  553MOL0     C74561  -1.074   5.696   6.741  0.5219 -0.4886 -0.0627
  553MOL0     C74562  -1.129   5.758   6.612  0.0280  0.3322 -0.1110
  553MOL0     C74563  -1.271   5.723   6.582 -0.0709 -0.6325  0.3838
  553MOL0     C74564  -1.283   5.662   6.445  0.0832 -0.4834 -0.3318
  553MOL0    Cl74565  -1.193   5.507   6.435  0.5484 -0.0098  0.3916
  553MOL0     C74566  -0.367   5.735   6.632  0.0368  0.4769 -0.3531
  553MOL0     C74567  -0.233   5.735   6.596  0.4294  0.3248  0.0243
  553MOL0     O74568  -0.011   5.469   6.330  0.7936  0.0303 -0.0909
  553MOL0     C74569   0.207   5.551   6.592  0.1424 -0.3582 -0.9244
  553MOL0     C74570   0.348   5.548   6.630  0.8315 -0.6536  0.3362
  553MOL0     N74571   1.200   5.323   6.594  0.4861 -0.6932 -0.0012
  553MOL0     N74572   1.291   5.408   6.597 -0.0040 -0.6696 -0.3800
  553MOL0     C74573   2.402   6.052   6.505  0.1344 -0.2984  0.2866
  553MOL0     C74574   2.501   6.139   6.464  0.6535  0.2682  0.6059
  553MOL0     C74575   2.763   6.471   6.317 -0.3010 -0.6431  0.9443
  553MOL0     C74576   2.701   6.580   6.259 -0.1775 -0.6190  0.2312
  553MOL0     C74577   2.782   6.684   6.199  0.5965  0.5006 -1.2966
  553MOL0     C74578   2.917   6.678   6.207 -0.4168  0.4843  0.2131
  553MOL0     O74579   2.981   6.794   6.161  0.7986 -0.2948 -0.0187
  553MOL0     C74580   3.116   6.789   6.110  0.0258 -0.0699 -0.3859
  553MOL0     C74581   3.126   6.722   5.981 -0.6663 -0.2837 -0.6068
  553MOL0     C74582   3.238   6.763   5.889 -0.0557 -0.3782 -0.8241
  553MOL0     C74583   3.387   6.760   5.945 -0.6664 -0.5724  1.1035
  553MOL0     C74584   3.411   6.619   5.977 -0.6265 -0.5081 -0.4714
  553MOL0     C74585   3.430   6.506   5.999 -1.2211  0.4875  0.4094
  553MOL0     C74586   2.972   6.574   6.265  0.0718  0.9923 -0.4404
  553MOL0     C74587   2.898   6.471   6.316  0.7088 -0.2496 -0.7090
  553MOL0     H74588   2.297   6.399   6.372 -0.9571 -0.7452  0.8710
  553MOL0     H74589   2.118   6.240   6.455 -0.6058 -0.5834 -1.3285
  553MOL0     H74590   2.071   5.994   6.378 -1.2586  0.9638 -0.0354
  553MOL0     H74591   2.061   5.859   6.481  2.1431  0.1058  1.1581
  553MOL0     H74592   1.938   6.022   6.648  2.0301  0.7332 -0.0941
  553MOL0     H74593   1.897   6.106   6.501  1.3578  0.0559  1.2025
  553MOL0     H74594   1.804   5.920   6.389  0.0212  0.5821  0.3311
  553MOL0     H74595   1.867   5.806   6.515 -0.4867 -0.6332 -0.6808
  553MOL0     H74596   1.726   5.948   6.679  1.0164 -1.0204  0.3031
  553MOL0     H74597   1.652   6.025   6.539  1.0417  1.1039  0.7323
  553MOL0     H74598   1.548   5.844   6.459 -0.9438  0.8714  0.0506
  553MOL0     H74599   1.659   5.726   6.514 -1.7048  0.0531 -3.1009
  553MOL0     H74600   1.581   5.717   6.741 -2.2493 -2.1893 -1.2057
  553MOL0     H74601   1.498   5.873   6.730  0.8963  0.4699  2.0692
  553MOL0     H74602   1.341   5.770   6.564  1.8493  0.8573 -2.0708
  553MOL0     H74603   1.442   5.642   6.528 -2.6677 -0.6418  0.5755
  553MOL0     H74604   1.288   5.666   6.804 -1.1369 -0.7385 -0.2640
  553MOL0     H74605   1.420   5.550   6.783  0.1793  0.8281  0.0134
  553MOL0     H74606   1.064   5.561   6.786 -1.4008  0.7747 -1.8879
  553MOL0     H74607   0.952   5.201   6.649 -1.2048 -1.0683  1.2601
  553MOL0     H74608   0.993   5.272   6.810  1.4981 -0.2916 -0.1497
  553MOL0     H74609   0.856   5.462   6.765  0.7139 -0.0710 -1.2601
  553MOL0     H74610   0.766   5.316   6.741  0.1392 -1.0903 -0.6830
  553MOL0     H74611   0.878   5.354   6.479 -1.0255  1.1446 -1.9917
  553MOL0     H74612   0.850   5.513   6.533  2.3542 -1.1224 -1.9873
  553MOL0     H74613   0.632   5.290   6.516  1.3561 -0.8204 -1.3090
  553MOL0     H74614   0.660   5.413   6.394  1.6753 -0.7475 -0.8315
  553MOL0     H74615   0.455   5.349   6.378  2.2155  1.7575  3.0360
  553MOL0     H74616   0.136   5.276   6.291  0.4504 -0.6659 -0.9714
  553MOL0     H74617   0.217   5.410   6.197 -0.7504 -2.1653 -1.1037
  553MOL0     H74618   0.301   5.269   6.269  1.0935 -0.0648 -0.8218
  553MOL0     H74619  -0.222   5.439   6.439  2.0605  0.6740  0.5649
  553MOL0     H74620  -0.463   5.443   6.481  1.9232 -0.0598 -0.9566
  553MOL0     H74621  -0.666   5.680   6.471 -2.2047  0.9560  0.0705
  553MOL0     H74622  -0.669   5.511   6.519 -1.0979  0.5420 -1.7641
  553MOL0     H74623  -0.893   5.603   6.554 -1.3275  0.9810  1.2789
  553MOL0     H74624  -0.810   5.564   6.708  0.0398 -2.2720 -1.1606
  553MOL0     H74625  -0.883   5.823   6.577 -1.2560 -0.3024  0.4174
  553MOL0     H74626  -0.755   5.824   6.704 -0.0088  2.0187 -1.6759
  553MOL0     H74627  -0.896   5.726   6.863 -3.3771 -0.9866  1.4104
  553MOL0     H74628  -0.965   5.878   6.810  2.2852  0.4979 -0.5968
  553MOL0     H74629  -1.142   5.710   6.826 -0.4493 -0.5838 -0.8035
  553MOL0     H74630  -1.053   5.588   6.740  0.9447 -0.4255  0.8729
  553MOL0     H74631  -1.128   5.867   6.609 -1.8015  0.3696 -1.2759
  553MOL0     H74632  -1.058   5.719   6.538  0.7529  0.6782  0.3933
  553MOL0     H74633  -1.333   5.812   6.590 -1.7199 -1.6483 -0.5773
  553MOL0     H74634  -1.313   5.638   6.638 -1.8954  0.6088  0.9907
  553MOL0     H74635  -1.239   5.730   6.371  0.1987 -0.6839 -0.4505
  553MOL0     H74636  -1.388   5.649   6.418  0.0184 -0.2272 -0.2023
  553MOL0     H74637  -0.407   5.823   6.681  0.2687  0.0507  0.6154
  553MOL0     H74638  -0.174   5.825   6.612  1.0870  0.1526 -1.2920
  553MOL0     H74639   0.145   5.590   6.672  1.5723  0.3533 -0.1081
  553MOL0     H74640   0.395   5.587   6.719 -0.5585 -0.0157  0.8212
  553MOL0     H74641   2.429   5.950   6.530 -1.7575 -0.5485  1.5285
  553MOL0     H74642   2.605   6.111   6.452  0.5100  0.8226 -2.7317
  553MOL0     H74643   2.593   6.585   6.266 -0.1772 -2.3045  2.8121
  553MOL0     H74644   2.741   6.773   6.153 -0.6909 -0.0870 -1.3290
  553MOL0     H74645   3.153   6.891   6.114  1.8462 -0.6459 -1.2912
  553MOL0     H74646   3.190   6.740   6.173 -2.0389 -2.2655  0.5114
  553MOL0     H74647   3.040   6.739   5.916  0.1439 -0.2142 -1.6961
  553MOL0     H74648   3.136   6.615   6.003  0.6402  0.3446  2.2710
  553MOL0     H74649   3.223   6.870   5.870  0.5743 -0.2342 -0.5021
  553MOL0     H74650   3.239   6.714   5.791  2.3523 -1.0032 -0.5406
  553MOL0     H74651   3.409   6.824   6.030  0.8342  4.1023 -2.3837
  553MOL0     H74652   3.455   6.792   5.865 -1.7550 -1.3160 -0.1734
  553MOL0     H74653   3.450   6.402   6.015 -0.0610  0.2477 -1.9888
  553MOL0     H74654   3.079   6.557   6.270  0.2331  2.1750  1.5678
  553MOL0     H74655   2.948   6.398   6.378  0.9601 -0.8642 -1.6353
  554MOL0     O74656   6.507   9.622   3.986 -0.4817  0.3089  0.0620
  554MOL0     C74657   6.573   9.715   4.001  0.4848 -0.5379  0.8976
  554MOL0     O74658   6.525   9.843   3.969  0.0316 -0.0191 -1.1276
  554MOL0     C74659   6.391   9.881   3.950 -0.5584  0.1322 -0.5393
  554MOL0     C74660   6.288   9.808   4.013  0.3628 -0.5256 -0.0179
  554MOL0     C74661   6.156   9.830   3.980 -1.7487  0.5966 -0.1616
  554MOL0     C74662   6.121   9.933   3.889  0.4549 -0.4231  1.2948
  554MOL0     O74663   5.992   9.970   3.859 -1.6692  0.3273  0.4550
  554MOL0     C74664   5.883   9.892   3.900  0.8060  0.1963  0.3790
  554MOL0     C74665   5.766   9.911   3.802  0.6611 -0.2059 -0.4067
  554MOL0     C74666   5.698  10.038   3.842  0.5504 -0.0597  0.0751
  554MOL0     C74667   5.614  10.107   3.731  0.0722 -1.5776 -0.1702
  554MOL0     C74668   5.533  10.231   3.786  0.2517  1.1330  0.4038
  554MOL0     C74669   5.452  10.309   3.687 -0.6031 -0.0114  0.7480
  554MOL0     C74670   5.359  10.223   3.593  0.2699 -0.4379 -0.1125
  554MOL0     C74671   5.251  10.306   3.516  0.2337 -0.6734  0.1709
  554MOL0     N74672   5.283  10.345   3.382 -0.4133 -0.7631  0.3409
  554MOL0     C74673   5.408  10.403   3.336 -0.6796 -0.2682 -0.2172
  554MOL0     C74674   5.374  10.448   3.220 -0.9935 -0.3069 -0.3486
  554MOL0     C74675   5.470  10.518   3.125  0.6197 -0.1472 -0.2536
  554MOL0     C74676   5.530  10.427   3.015 -0.0870  0.3053  0.2127
  554MOL0     C74677   5.659  10.358   3.059  0.3171  0.7487 -0.3041
  554MOL0     C74678   5.725  10.286   2.937  0.3279  0.0448 -1.4515
  554MOL0     O74679   5.754  10.374   2.827 -0.1715  0.4150 -0.7605
  554MOL0     C74680   5.752  10.317   2.702  0.0179 -0.6992  0.1393
  554MOL0     C74681   5.735  10.406   2.595 -0.0007  0.2665 -0.0016
  554MOL0     C74682   5.753  10.364   2.461 -0.3596 -0.7035  1.1220
  554MOL0     C74683   5.720  10.464   2.351  0.5165 -0.4758 -0.2839
  554MOL0     C74684   5.797  10.225   2.437 -0.1953  0.0870 -1.3812
  554MOL0     C74685   5.813  10.169   2.303  0.5836 -0.4520  0.3897
  554MOL0     O74686   5.782  10.035   2.288 -0.1980  0.6061  0.3791
  554MOL0     C74687   5.839   9.987   2.171 -0.2151  0.5093  0.5234
  554MOL0     C74688   5.968   9.945   2.153 -0.4348  0.2240 -0.2174
  554MOL0     C74689   6.021   9.896   2.036 -0.0814 -0.3644 -0.2209
  554MOL0     C74690   5.938   9.890   1.928  0.8990  1.3262 -0.1377
  554MOL0     O74691   5.990   9.837   1.808  0.3760  0.0698  0.6892
  554MOL0     C74692   6.111   9.760   1.821  0.1897  0.3217  1.6656
  554MOL0     C74693   6.141   9.691   1.679  0.0278  0.9658  0.2752
  554MOL0     C74694   6.289   9.655   1.652  0.3697 -1.0790 -0.0555
  554MOL0     C74695   6.313   9.572   1.519  0.2289  0.6315  0.5023
  554MOL0     C74696   6.454   9.607   1.468  0.5568  0.7435 -0.2421
  554MOL0     C74697   6.493   9.482   1.384 -0.3955  0.3957  0.8109
  554MOL0     C74698   6.641   9.488   1.339  0.4823 -0.8731 -0.1118
  554MOL0     C74699   6.672   9.391   1.235 -0.9271 -0.3178 -0.2368
  554MOL0    Cl74700   6.597   9.228   1.255  0.0120  0.0860  0.3719
  554MOL0     C74701   5.807   9.938   1.939  0.1163  0.7940  0.6159
  554MOL0     C74702   5.757   9.978   2.060  0.4705  0.0818 -0.7827
  554MOL0     O74703   5.846  10.246   2.218  0.0802 -0.8122 -0.3505
  554MOL0     C74704   5.816  10.138   2.546  0.6254 -0.0666  0.4832
  554MOL0     C74705   5.799  10.185   2.674 -0.1287 -0.4956 -0.5726
  554MOL0     N74706   5.251  10.416   3.188 -0.2647  0.0433 -0.1408
  554MOL0     N74707   5.194  10.359   3.281 -0.0223  0.4365 -0.1310
  554MOL0     C74708   6.224  10.006   3.824 -0.3242  0.3661 -0.7759
  554MOL0     C74709   6.359   9.978   3.861  0.0781 -0.9414  0.2372
  554MOL0     C74710   6.714   9.708   4.043  0.4219  0.3664  0.6399
  554MOL0     C74711   6.786   9.824   4.039 -0.2265 -0.0456  0.0319
  554MOL0     C74712   6.923   9.814   4.077  0.0291 -0.8611 -0.1151
  554MOL0     C74713   6.984   9.705   4.127 -0.1331 -1.0061  0.2622
  554MOL0     O74714   7.120   9.705   4.155  0.0467  0.6349  0.0581
  554MOL0     C74715   7.189   9.583   4.185  0.5233 -0.4915  0.3927
  554MOL0     C74716   7.337   9.623   4.202  0.9377 -0.0816  0.3156
  554MOL0     C74717   7.368   9.699   4.329  0.7418 -0.0952  0.4772
  554MOL0     C74718   7.519   9.722   4.352  0.2371  0.5734  0.6768
  554MOL0     C74719   7.583   9.599   4.396  0.1954 -0.6701 -0.7101
  554MOL0     C74720   7.625   9.485   4.418  1.2351 -0.1821 -0.6119
  554MOL0     C74721   6.906   9.584   4.138  0.2370 -0.0966  0.3418
  554MOL0     C74722   6.768   9.590   4.100 -0.3464 -0.0860 -0.9005
  554MOL0     H74723   6.301   9.743   4.099 -1.1392 -2.9810 -1.5216
  554MOL0     H74724   6.083   9.774   4.037 -1.7008 -4.7565 -4.4636
  554MOL0     H74725   5.913   9.788   3.889  0.5137  0.2376 -0.9376
  554MOL0     H74726   5.858   9.900   4.007 -0.6577  0.8793  0.0142
  554MOL0     H74727   5.798   9.917   3.698 -2.5916  0.1689 -1.4830
  554MOL0     H74728   5.706   9.820   3.810 -1.6212  1.2321 -0.1263
  554MOL0     H74729   5.636  10.018   3.930  0.4415 -1.1741 -0.2428
  554MOL0     H74730   5.780  10.101   3.878  2.4083 -1.4004 -1.6158
  554MOL0     H74731   5.676  10.146   3.650  0.3793  2.1416  1.6418
  554MOL0     H74732   5.536  10.042   3.690 -1.3441 -2.9552  4.2080
  554MOL0     H74733   5.469  10.175   3.855  0.3957  0.7327  0.2197
  554MOL0     H74734   5.598  10.295   3.846 -0.3234  1.1492  1.0173
  554MOL0     H74735   5.388  10.376   3.746  0.7551  2.6750 -0.6340
  554MOL0     H74736   5.516  10.376   3.628  1.3953 -2.4047  0.0625
  554MOL0     H74737   5.426  10.167   3.527  0.5751 -1.5460  1.0965
  554MOL0     H74738   5.316  10.148   3.659 -0.0916  0.9691  1.3127
  554MOL0     H74739   5.225  10.395   3.573 -2.0193 -1.8765  1.1705
  554MOL0     H74740   5.158  10.247   3.518  1.1003 -2.3453 -2.6822
  554MOL0     H74741   5.504  10.410   3.385 -1.2557  0.7871  0.8270
  554MOL0     H74742   5.419  10.606   3.088  1.3966  1.2054  1.7114
  554MOL0     H74743   5.548  10.570   3.182  0.0391 -0.7618  1.1609
  554MOL0     H74744   5.562  10.489   2.931  0.9300  0.4879  0.7266
  554MOL0     H74745   5.448  10.362   2.981  1.2033 -1.6685  0.7213
  554MOL0     H74746   5.650  10.289   3.144  2.3737 -1.3132 -1.6477
  554MOL0     H74747   5.722  10.438   3.099  0.1568  0.4512  0.5878
  554MOL0     H74748   5.669  10.200   2.899 -2.4909  1.3463 -0.5221
  554MOL0     H74749   5.822  10.251   2.974 -0.3161  1.3417  1.7284
  554MOL0     H74750   5.717  10.512   2.610  3.2541  1.0612 -0.9198
  554MOL0     H74751   5.809  10.518   2.318 -0.2233  0.5879 -0.5853
  554MOL0     H74752   5.676  10.427   2.258 -0.8242 -0.9491  0.5176
  554MOL0     H74753   5.652  10.538   2.393  0.9575  3.0403 -4.9680
  554MOL0     H74754   6.026   9.959   2.244  0.5320  2.7765 -1.1223
  554MOL0     H74755   6.126   9.876   2.052 -0.2908  0.2501  2.5339
  554MOL0     H74756   6.185   9.839   1.838 -1.8227  4.5722 -5.3315
  554MOL0     H74757   6.117   9.678   1.893  3.3900 -1.5075 -0.4224
  554MOL0     H74758   6.085   9.597   1.676  1.7787 -0.1116 -0.1512
  554MOL0     H74759   6.115   9.754   1.594  2.0634  1.2727 -0.1816
  554MOL0     H74760   6.334   9.595   1.732  0.2859 -0.9739  0.0701
  554MOL0     H74761   6.355   9.742   1.649 -1.6695  0.5097 -0.8563
  554MOL0     H74762   6.317   9.469   1.554 -1.1556  0.2753 -0.3253
  554MOL0     H74763   6.240   9.585   1.439  0.6824  0.0169 -0.0157
  554MOL0     H74764   6.528   9.614   1.547 -2.6447 -1.0547  3.2581
  554MOL0     H74765   6.455   9.702   1.414 -0.6452  0.5036 -0.7243
  554MOL0     H74766   6.481   9.388   1.439  0.1747  1.0304  2.0494
  554MOL0     H74767   6.431   9.480   1.294 -0.7849  0.8625  1.0703
  554MOL0     H74768   6.703   9.476   1.428 -1.0846  2.9275  1.7282
  554MOL0     H74769   6.660   9.589   1.300 -1.8152 -0.7870 -1.1323
  554MOL0     H74770   6.780   9.381   1.234 -0.4954  3.1884 -0.9851
  554MOL0     H74771   6.624   9.429   1.144 -1.9987 -0.3004  0.3123
  554MOL0     H74772   5.749   9.949   1.848 -0.9795  2.1020  1.4578
  554MOL0     H74773   5.656  10.017   2.071  0.4157 -0.1275 -0.5392
  554MOL0     H74774   5.845  10.037   2.518  0.3456  0.0014 -0.0713
  554MOL0     H74775   5.824  10.114   2.752 -2.3919 -1.8870 -1.0206
  554MOL0     H74776   6.198  10.083   3.751 -0.4919 -0.6474 -1.8157
  554MOL0     H74777   6.426  10.050   3.814 -0.4556 -0.0524  0.8134
  554MOL0     H74778   6.761   9.921   3.997 -1.1962  0.6192  2.0135
  554MOL0     H74779   6.994   9.896   4.075 -0.3646 -0.5108  0.0149
  554MOL0     H74780   7.167   9.543   4.285  2.2019 -2.7931 -0.0880
  554MOL0     H74781   7.174   9.493   4.124 -3.5184  0.2191  0.0286
  554MOL0     H74782   7.366   9.679   4.113 -0.7745 -0.2967 -0.4239
  554MOL0     H74783   7.388   9.526   4.193 -1.3274 -1.2048 -1.5157
  554MOL0     H74784   7.320   9.647   4.413 -1.1755  0.3418 -0.2891
  554MOL0     H74785   7.325   9.799   4.320  0.7290  0.0563  1.9816
  554MOL0     H74786   7.529   9.806   4.422 -1.0306  1.2153  0.1405
  554MOL0     H74787   7.564   9.748   4.256 -2.1248 -0.3503 -0.7840
  554MOL0     H74788   7.655   9.388   4.452 -1.2829 -1.1106 -0.7926
  554MOL0     H74789   6.947   9.492   4.179  1.9046  0.8215  0.8243
  554MOL0     H74790   6.711   9.498   4.101 -0.6220  0.0853 -0.4197
  555MOL0     O74791   2.408  10.624   2.230  0.2469  0.8693  0.7081
  555MOL0     C74792   2.307  10.563   2.174 -0.4810  0.5349 -0.4682
  555MOL0     O74793   2.323  10.462   2.081 -0.0680  0.5124  0.4384
  555MOL0     C74794   2.445  10.451   2.020  0.2280 -1.1384  1.2730
  555MOL0     C74795   2.477  10.320   1.977  0.2331 -0.1685 -0.3729
  555MOL0     C74796   2.609  10.289   1.931  1.3615  0.0016  0.4555
  555MOL0     C74797   2.700  10.387   1.906  0.4730 -1.1537  0.4647
  555MOL0     O74798   2.820  10.350   1.860  0.0538  0.1030  0.5738
  555MOL0     C74799   2.927  10.448   1.851 -1.2726 -0.0058  0.3238
  555MOL0     C74800   3.064  10.373   1.823 -0.3151  0.0296 -0.0023
  555MOL0     C74801   3.094  10.273   1.944 -0.0575 -0.9124 -0.0210
  555MOL0     C74802   3.206  10.174   1.904  0.7533 -0.1962 -0.2643
  555MOL0     C74803   3.251  10.065   2.001 -0.0506  0.5520 -0.8545
  555MOL0     C74804   3.335  10.114   2.111  0.1891 -0.5473  0.4723
  555MOL0     C74805   3.378  10.017   2.221 -0.0436 -0.0910  0.1606
  555MOL0     C74806   3.449  10.089   2.326  0.0153 -0.5794 -0.1521
  555MOL0     N74807   3.542   9.999   2.399  0.4131 -0.5773  0.1083
  555MOL0     C74808   3.668   9.961   2.346  0.5053  0.4561 -0.1735
  555MOL0     C74809   3.708   9.850   2.421  0.0363 -0.0175  0.2393
  555MOL0     C74810   3.839   9.777   2.393 -0.4359  0.4885 -0.1797
  555MOL0     C74811   3.829   9.643   2.454  0.2803 -0.1235  0.5215
  555MOL0     C74812   3.957   9.551   2.412 -0.5710  0.7783 -0.0378
  555MOL0     C74813   3.959   9.495   2.274 -0.6155 -0.1133  0.3335
  555MOL0     O74814   4.048   9.383   2.278  0.2237  0.0555  0.0170
  555MOL0     C74815   4.027   9.266   2.203 -0.2501 -0.6116  0.8085
  555MOL0     C74816   4.113   9.165   2.211 -0.2257 -0.6526  0.5718
  555MOL0     C74817   4.104   9.053   2.125  0.5450 -0.5043  0.2702
  555MOL0     C74818   4.189   8.941   2.166 -0.5798  0.2046 -0.3227
  555MOL0     C74819   4.009   9.046   2.020 -0.1727 -0.3139  0.5950
  555MOL0     C74820   3.989   8.938   1.921 -0.4021  0.0104 -0.0025
  555MOL0     O74821   3.879   8.923   1.852  0.3412  0.6339 -0.0214
  555MOL0     C74822   3.850   8.808   1.779  0.4261  0.3733 -0.0129
  555MOL0     C74823   3.709   8.772   1.774  1.1158  0.2510  0.5843
  555MOL0     C74824   3.668   8.663   1.682 -0.0163 -1.0957  0.2649
  555MOL0     C74825   3.765   8.570   1.632  0.4377 -1.1350 -0.1039
  555MOL0     O74826   3.742   8.442   1.581 -0.5407 -0.6029  0.0875
  555MOL0     C74827   3.619   8.369   1.570 -1.0932  0.3506 -0.1587
  555MOL0     C74828   3.564   8.379   1.431 -0.4167  0.4392  0.1591
  555MOL0     C74829   3.421   8.312   1.439  0.9114  0.4183  0.2050
  555MOL0     C74830   3.347   8.310   1.305 -0.4239 -0.4542 -0.3346
  555MOL0     C74831   3.207   8.261   1.331 -0.4050 -0.2842  0.2798
  555MOL0     C74832   3.109   8.261   1.209  0.4618  0.0084 -0.0390
  555MOL0     C74833   3.041   8.393   1.174 -0.2177  0.0028  0.4830
  555MOL0     C74834   3.132   8.511   1.151 -0.0819  0.3841  0.6117
  555MOL0    Cl74835   3.027   8.632   1.065  0.3216  0.1584 -0.0916
  555MOL0     C74836   3.900   8.613   1.638  0.1564 -0.1877  0.9882
  555MOL0     C74837   3.939   8.735   1.701  0.1630 -0.0969 -0.1237
  555MOL0     O74838   4.088   8.864   1.909 -0.1249  0.4942 -0.3512
  555MOL0     C74839   3.924   9.156   2.009 -0.1212  0.0474 -0.0898
  555MOL0     C74840   3.930   9.266   2.098 -0.2877  1.0850 -0.1384
  555MOL0     N74841   3.606   9.820   2.507 -0.7556  0.1964 -0.7751
  555MOL0     N74842   3.513   9.912   2.496 -0.2405 -0.2312  0.7217
  555MOL0     C74843   2.663  10.525   1.933 -0.0918  0.7672 -0.5297
  555MOL0     C74844   2.537  10.554   1.986 -0.1271  0.8641 -0.1863
  555MOL0     C74845   2.170  10.588   2.216  0.4773 -0.1786  0.5875
  555MOL0     C74846   2.144  10.692   2.299  1.6846 -0.2339 -0.2978
  555MOL0     C74847   2.016  10.706   2.348 -0.0928  0.0870 -0.5591
  555MOL0     C74848   1.908  10.627   2.315 -0.5920  0.6685  0.3787
  555MOL0     O74849   1.797  10.659   2.388 -0.1266 -0.4728 -0.7389
  555MOL0     C74850   1.686  10.574   2.365 -0.1129  0.3941  0.1432
  555MOL0     C74851   1.602  10.616   2.244  0.4754  0.2724  0.2285
  555MOL0     C74852   1.464  10.551   2.225 -0.1390 -0.3592  0.1244
  555MOL0     C74853   1.375  10.580   2.339  0.2901  0.9566 -0.2341
  555MOL0     C74854   1.231  10.543   2.321  1.2266 -0.7810  0.6695
  555MOL0     C74855   1.120  10.498   2.309 -0.1809  0.6546 -0.5844
  555MOL0     C74856   1.937  10.514   2.232 -0.6368 -0.1886  0.5627
  555MOL0     C74857   2.067  10.492   2.182 -1.1475  0.0548  0.6413
  555MOL0     H74858   2.406  10.241   2.001  0.6046  0.2547  2.5156
  555MOL0     H74859   2.647  10.190   1.907  1.6189 -0.0181  0.9364
  555MOL0     H74860   2.914  10.509   1.761  1.1420 -0.0939 -0.1465
  555MOL0     H74861   2.927  10.495   1.950 -1.5797 -2.2821  1.4575
  555MOL0     H74862   3.045  10.315   1.731 -2.6064 -0.3148  0.6305
  555MOL0     H74863   3.159  10.426   1.812  1.5050 -2.9905  0.0233
  555MOL0     H74864   3.130  10.333   2.028  0.7350  0.9113 -1.6022
  555MOL0     H74865   3.006  10.213   1.971 -0.6735 -1.6542 -3.2774
  555MOL0     H74866   3.160  10.127   1.817  1.2234  2.0056 -1.7724
  555MOL0     H74867   3.285  10.235   1.860  0.1320 -0.7625 -2.2859
  555MOL0     H74868   3.165  10.030   2.059  1.7862 -0.5224  1.3641
  555MOL0     H74869   3.288   9.977   1.948 -1.2936  0.3785 -1.4745
  555MOL0     H74870   3.426  10.156   2.067  0.1757 -1.0018 -0.0062
  555MOL0     H74871   3.279  10.195   2.158 -0.2011 -0.6565  0.2100
  555MOL0     H74872   3.298   9.957   2.265  1.7924 -3.3461 -0.5681
  555MOL0     H74873   3.450   9.945   2.181  2.5186  2.1300  0.4419
  555MOL0     H74874   3.371  10.124   2.394  3.1604  0.6202  3.1747
  555MOL0     H74875   3.514  10.168   2.286 -1.2818  0.4666 -0.2420
  555MOL0     H74876   3.714  10.012   2.262  0.8541  0.9547  0.3131
  555MOL0     H74877   3.855   9.767   2.285  1.7991 -1.2828  0.2314
  555MOL0     H74878   3.918   9.833   2.444 -1.0662  0.3985  0.9115
  555MOL0     H74879   3.735   9.599   2.420 -0.1184  0.9411  0.2099
  555MOL0     H74880   3.822   9.652   2.563 -1.5002 -4.5076  1.0074
  555MOL0     H74881   3.978   9.472   2.485  2.3644  1.6290  0.1757
  555MOL0     H74882   4.046   9.614   2.414  1.6975 -2.1175 -1.3904
  555MOL0     H74883   4.002   9.566   2.203  4.3286  2.0695  4.8339
  555MOL0     H74884   3.857   9.463   2.248 -0.3974  0.1674 -0.8812
  555MOL0     H74885   4.187   9.171   2.290 -1.5151 -1.7305  1.9164
  555MOL0     H74886   4.211   8.952   2.272 -2.9986  0.6438  0.1814
  555MOL0     H74887   4.130   8.849   2.164 -0.7476  0.3008  0.2211
  555MOL0     H74888   4.281   8.952   2.107 -1.1362  2.5271 -0.8431
  555MOL0     H74889   3.638   8.833   1.829 -0.7003 -1.2131 -0.0278
  555MOL0     H74890   3.563   8.640   1.671 -0.1418 -0.6145  0.4604
  555MOL0     H74891   3.644   8.265   1.594  0.2674  0.7157  0.0647
  555MOL0     H74892   3.545   8.394   1.647  1.9049  0.5203  2.9307
  555MOL0     H74893   3.560   8.484   1.404 -1.7862 -0.0103 -1.5175
  555MOL0     H74894   3.633   8.325   1.366  2.5997  2.7017  1.2389
  555MOL0     H74895   3.361   8.377   1.504  0.9056 -0.6968  1.3634
  555MOL0     H74896   3.423   8.204   1.457  0.2777  0.2643 -0.6021
  555MOL0     H74897   3.361   8.411   1.266 -2.7217 -0.8304 -2.3843
  555MOL0     H74898   3.396   8.236   1.241  0.3059 -0.2820  0.0184
  555MOL0     H74899   3.160   8.321   1.409  0.4878  0.6792  0.1061
  555MOL0     H74900   3.222   8.159   1.368  1.1909 -0.5066 -0.8459
  555MOL0     H74901   3.166   8.220   1.125  1.3385 -0.1898  0.6504
  555MOL0     H74902   3.030   8.185   1.217 -0.4645  0.8918 -0.4457
  555MOL0     H74903   2.968   8.417   1.252  0.6845  0.0484  1.3174
  555MOL0     H74904   2.989   8.363   1.082  2.1833 -1.3699 -0.5183
  555MOL0     H74905   3.209   8.476   1.082 -2.5689 -0.7546 -1.7800
  555MOL0     H74906   3.172   8.536   1.250 -0.4895  0.7118  0.6957
  555MOL0     H74907   3.977   8.547   1.600  0.0346 -0.4629  1.2149
  555MOL0     H74908   4.045   8.761   1.695  0.8359 -2.4021  0.7616
  555MOL0     H74909   3.838   9.161   1.944  0.5750 -0.9833 -1.1360
  555MOL0     H74910   3.845   9.333   2.089 -1.4568 -0.2108  0.8147
  555MOL0     H74911   2.730  10.606   1.906 -0.5952  0.8517 -1.5857
  555MOL0     H74912   2.505  10.655   2.010  1.2181  1.3320 -0.2629
  555MOL0     H74913   2.220  10.758   2.340  1.7154  0.3974 -1.3263
  555MOL0     H74914   2.007  10.787   2.420  1.4878  0.2076 -0.4586
  555MOL0     H74915   1.717  10.469   2.364  3.3563  1.2740  0.5436
  555MOL0     H74916   1.630  10.580   2.458  0.5514  1.8838  0.4827
  555MOL0     H74917   1.664  10.604   2.155 -0.5468 -3.1051 -0.1417
  555MOL0     H74918   1.576  10.722   2.239  0.2652  0.1730 -1.1625
  555MOL0     H74919   1.459  10.441   2.230 -3.0225 -0.6174 -3.5816
  555MOL0     H74920   1.426  10.566   2.123  0.2516  0.0992  0.0474
  555MOL0     H74921   1.385  10.684   2.373 -2.0161  0.6334  1.6123
  555MOL0     H74922   1.397  10.507   2.417 -0.8941  1.3363  0.4823
  555MOL0     H74923   1.029  10.442   2.316  1.1612 -1.4966  1.0638
  555MOL0     H74924   1.857  10.451   2.196 -0.1146 -1.1296  1.0143
  555MOL0     H74925   2.086  10.404   2.121  0.8008  0.3000  0.8157
  556MOL0     O74926  10.911  10.657   6.366 -0.3556  0.5104  0.7201
  556MOL0     C74927  10.913  10.686   6.488  0.0918  0.8675  0.0036
  556MOL0     O74928  11.023  10.690   6.559 -0.0604  0.2742 -0.0834
  556MOL0     C74929  11.142  10.646   6.500  0.6895  0.2231 -0.7652
  556MOL0     C74930  11.168  10.524   6.446 -0.1531 -0.4138 -0.5925
  556MOL0     C74931  11.287  10.499   6.380  0.3375 -0.1702  0.4211
  556MOL0     C74932  11.388  10.592   6.388 -0.1393  0.2273  0.7332
  556MOL0     O74933  11.514  10.563   6.335 -0.6759 -0.1514 -0.4831
  556MOL0     C74934  11.516  10.579   6.189  0.6888 -0.7757 -0.7636
  556MOL0     C74935  11.646  10.536   6.139 -1.0379 -1.6395  0.1214
  556MOL0     C74936  11.738  10.654   6.141  0.0180 -0.1125  0.6948
  556MOL0     C74937  11.876  10.610   6.091 -0.0203 -0.0016 -0.3340
  556MOL0     C74938  11.962  10.733   6.049  0.5090  0.5887  0.2095
  556MOL0     C74939  12.117  10.713   6.051  0.8563  0.2803 -1.2484
  556MOL0     C74940  12.189  10.830   5.977  0.1509 -0.3338  0.3439
  556MOL0     C74941  12.198  10.812   5.830 -0.0299  0.4145  0.2118
  556MOL0     N74942  12.291  10.912   5.791  0.5519  0.2817 -0.1479
  556MOL0     C74943  12.423  10.897   5.793  0.6020  0.3209 -0.1591
  556MOL0     C74944  12.467  10.969   5.696 -0.1927  0.0158  1.0537
  556MOL0     C74945  12.601  10.965   5.629  0.1006 -0.0753 -0.5570
  556MOL0     C74946  12.616  10.926   5.484  0.1419 -0.1774  1.2874
  556MOL0     C74947  12.585  11.042   5.385  0.3004 -0.1437 -0.8965
  556MOL0     C74948  12.648  11.026   5.249  0.2669 -0.1985  1.0421
  556MOL0     O74949  12.601  10.905   5.200  0.4567  0.2002  0.4290
  556MOL0     C74950  12.662  10.832   5.097 -0.7642  1.0300 -1.1912
  556MOL0     C74951  12.786  10.861   5.041  0.0351 -0.4692 -0.8117
  556MOL0     C74952  12.849  10.769   4.959 -0.8199  0.7559 -0.1664
  556MOL0     C74953  12.992  10.798   4.920  1.0546  0.8006 -0.7250
  556MOL0     C74954  12.776  10.653   4.915  0.5790  0.8536 -0.2165
  556MOL0     C74955  12.830  10.540   4.834  0.1390  0.5620  0.7895
  556MOL0     O74956  12.765  10.438   4.805 -0.2585  0.8308 -0.1737
  556MOL0     C74957  12.817  10.339   4.723  0.3912 -0.2553  0.0603
  556MOL0     C74958  12.918  10.249   4.771  0.3043 -0.4966 -0.2612
  556MOL0     C74959  12.961  10.153   4.683 -0.0896  0.2261  0.1339
  556MOL0     C74960  12.913  10.135   4.553  0.2202  0.3197  0.2232
  556MOL0     O74961  12.943  10.023   4.478 -0.0448 -0.5869 -0.2470
  556MOL0     C74962  13.070   9.952   4.514 -0.2652 -0.0350  0.8941
  556MOL0     C74963  13.110   9.859   4.398 -0.0172  0.7929 -0.5414
  556MOL0     C74964  13.245   9.789   4.432 -0.2711 -1.0915  0.0401
  556MOL0     C74965  13.291   9.683   4.334  0.3955 -0.9481  0.1128
  556MOL0     C74966  13.202   9.560   4.331  0.5791 -0.1015 -0.0407
  556MOL0     C74967  13.234   9.465   4.210 -0.4237  0.9486 -0.2461
  556MOL0     C74968  13.390   9.431   4.204  0.3929  0.7385  0.5452
  556MOL0     C74969  13.414   9.331   4.091 -0.2273  0.5476 -0.1739
  556MOL0    Cl74970  13.476   9.402   3.951  0.0644  0.5181  0.5197
  556MOL0     C74971  12.807  10.214   4.518 -0.5794 -0.6392 -1.2147
  556MOL0     C74972  12.756  10.316   4.601 -0.6583  0.3673 -0.1233
  556MOL0     O74973  12.941  10.560   4.785  0.2351  0.1308 -0.2849
  556MOL0     C74974  12.642  10.639   4.971  0.1344 -0.3770 -0.6007
  556MOL0     C74975  12.588  10.721   5.059  0.1925 -0.9033 -0.0305
  556MOL0     N74976  12.360  11.042   5.644 -0.4704  1.0374 -0.0232
  556MOL0     N74977  12.253  11.009   5.706 -0.2640 -0.2823 -0.3437
  556MOL0     C74978  11.367  10.708   6.449  0.2167 -0.3530  0.2539
  556MOL0     C74979  11.241  10.732   6.509  0.1612 -0.7909 -0.6750
  556MOL0     C74980  10.787  10.710   6.559 -0.3331  0.1067 -0.0855
  556MOL0     C74981  10.659  10.699   6.500 -0.7883 -0.6553  0.2281
  556MOL0     C74982  10.557  10.723   6.590  0.1584  1.0150  0.5224
  556MOL0     C74983  10.564  10.749   6.727  0.2938  0.1626  0.2590
  556MOL0     O74984  10.457  10.752   6.811  0.4047  0.6938  0.7945
  556MOL0     C74985  10.339  10.824   6.776 -0.7425 -0.2289  0.3230
  556MOL0     C74986  10.234  10.800   6.869  0.6215  0.1329  0.4575
  556MOL0     C74987  10.126  10.913   6.869  0.3147 -0.2779 -0.1393
  556MOL0     C74988  10.017  10.889   6.766 -1.0407  0.4984 -0.2719
  556MOL0     C74989   9.931  10.768   6.788  0.0274  0.1033 -0.4366
  556MOL0     C74990   9.868  10.659   6.805  0.2820 -0.6548  0.7440
  556MOL0     C74991  10.694  10.758   6.772  0.1010  0.3008  0.0688
  556MOL0     C74992  10.800  10.741   6.693 -0.2074 -0.0407 -0.1429
  556MOL0     H74993  11.094  10.445   6.446 -0.6014 -0.0092 -1.8293
  556MOL0     H74994  11.297  10.397   6.344  1.7692  0.3539 -0.7460
  556MOL0     H74995  11.432  10.519   6.152 -0.2103  0.2842 -0.5185
  556MOL0     H74996  11.501  10.683   6.160  0.5946 -0.5593  0.0447
  556MOL0     H74997  11.693  10.451   6.191 -0.0299 -1.3094 -0.2127
  556MOL0     H74998  11.617  10.519   6.035 -2.2975 -0.5268  0.2724
  556MOL0     H74999  11.702  10.742   6.087 -2.2728 -0.7842  1.0433
  556MOL0     H75000  11.756  10.691   6.242  1.1674 -0.6006  0.6851
  556MOL0     H75001  11.926  10.562   6.175  0.5414 -0.3950 -0.8883
  556MOL0     H75002  11.861  10.537   6.010  2.2849  0.0972 -0.8968
  556MOL0     H75003  11.945  10.743   5.941 -0.0984 -2.8223 -0.1321
  556MOL0     H75004  11.928  10.820   6.104 -1.2561 -1.9517  3.5128
  556MOL0     H75005  12.157  10.699   6.152 -0.2176 -0.4486 -0.9111
  556MOL0     H75006  12.147  10.622   5.999 -1.6659 -0.3157 -1.7669
  556MOL0     H75007  12.147  10.930   5.992  1.2882  0.7124 -2.7217
  556MOL0     H75008  12.290  10.831   6.019  0.4339 -1.5167 -0.2979
  556MOL0     H75009  12.095  10.830   5.799 -1.2319 -0.9070  3.0294
  556MOL0     H75010  12.233  10.712   5.804  3.0462  0.0756  4.6144
  556MOL0     H75011  12.484  10.824   5.846  1.1755  0.0180 -1.2014
  556MOL0     H75012  12.643  11.065   5.646  0.2744 -0.5347  2.3786
  556MOL0     H75013  12.666  10.898   5.687 -0.8450 -0.5623 -0.0257
  556MOL0     H75014  12.550  10.842   5.458  1.1825 -0.3997 -0.8317
  556MOL0     H75015  12.716  10.886   5.463 -0.7415 -2.4522  1.0795
  556MOL0     H75016  12.628  11.129   5.436 -0.8987  0.1141 -0.2913
  556MOL0     H75017  12.477  11.061   5.380 -0.2051 -2.5622 -0.4508
  556MOL0     H75018  12.755  11.022   5.270 -0.0015 -2.0673  2.2364
  556MOL0     H75019  12.627  11.110   5.181  1.4906  1.4396  2.5948
  556MOL0     H75020  12.833  10.958   5.056 -0.4222 -0.2884 -0.5330
  556MOL0     H75021  13.051  10.706   4.915  0.6437  0.6092 -2.8896
  556MOL0     H75022  13.008  10.840   4.820  1.8521  3.7352  0.5279
  556MOL0     H75023  13.030  10.868   4.995 -2.6708  2.4298 -0.1330
  556MOL0     H75024  12.969  10.265   4.866  1.2074  0.7897 -0.9263
  556MOL0     H75025  13.036  10.083   4.720 -0.6159 -2.0629 -2.7678
  556MOL0     H75026  13.148  10.021   4.548 -1.6388  1.2285  1.5892
  556MOL0     H75027  13.043   9.893   4.603 -0.9281 -0.2313  0.5683
  556MOL0     H75028  13.043   9.773   4.389  2.0218 -0.7694 -1.5437
  556MOL0     H75029  13.114   9.922   4.308  2.5231 -0.3608 -1.3427
  556MOL0     H75030  13.241   9.732   4.525 -1.7395 -2.8233 -1.0307
  556MOL0     H75031  13.319   9.870   4.432  3.1822 -3.9155  2.5664
  556MOL0     H75032  13.281   9.738   4.240 -1.0768  2.2731  1.9807
  556MOL0     H75033  13.392   9.654   4.365  0.8388 -1.3907 -1.6415
  556MOL0     H75034  13.099   9.590   4.311  0.7884  0.0105 -0.9741
  556MOL0     H75035  13.216   9.506   4.425  1.8125 -1.4325 -0.9439
  556MOL0     H75036  13.172   9.375   4.217 -0.4509  1.0714  2.1634
  556MOL0     H75037  13.218   9.506   4.110 -1.3111  0.4940 -0.3042
  556MOL0     H75038  13.410   9.384   4.300  2.3133 -0.6640 -0.4827
  556MOL0     H75039  13.465   9.509   4.186  2.8572 -1.7853 -0.9237
  556MOL0     H75040  13.330   9.263   4.072 -0.5171  0.1753  2.0480
  556MOL0     H75041  13.499   9.266   4.113 -2.0313 -3.2840 -3.2998
  556MOL0     H75042  12.748  10.187   4.431 -0.0421 -0.0470 -1.7681
  556MOL0     H75043  12.672  10.373   4.562  1.3786  2.4229 -1.8177
  556MOL0     H75044  12.584  10.548   4.962 -0.0982 -0.4457  1.2328
  556MOL0     H75045  12.487  10.700   5.093 -0.3601  2.2812  0.6049
  556MOL0     H75046  11.444  10.784   6.449  1.5874 -1.6862  0.3174
  556MOL0     H75047  11.227  10.829   6.558  0.8331 -0.9563 -0.1434
  556MOL0     H75048  10.632  10.703   6.395  0.2018 -0.0700 -0.0233
  556MOL0     H75049  10.463  10.721   6.534  1.1505  1.9540 -1.2838
  556MOL0     H75050  10.374  10.928   6.780  3.0544 -1.3235 -0.5273
  556MOL0     H75051  10.307  10.808   6.673  0.4008  1.4306 -0.3285
  556MOL0     H75052  10.277  10.791   6.969  2.8167 -2.5269 -0.6123
  556MOL0     H75053  10.187  10.702   6.858  1.5802 -0.2527 -0.2416
  556MOL0     H75054  10.169  11.013   6.855  3.4316 -1.7813 -2.6061
  556MOL0     H75055  10.082  10.915   6.969  0.7132  3.1155  0.1059
  556MOL0     H75056  10.066  10.884   6.668  3.1623  0.6431  1.6183
  556MOL0     H75057   9.948  10.974   6.758 -3.0075 -1.0030 -0.0142
  556MOL0     H75058   9.821  10.567   6.834 -2.3540  0.9645  2.0555
  556MOL0     H75059  10.728  10.776   6.874 -1.4588 -0.4855  0.7709
  556MOL0     H75060  10.895  10.740   6.744 -0.0836  0.0833 -0.3691
  557MOL0     O75061   5.214   7.782   8.628  1.1328  0.5195  0.0189
  557MOL0     C75062   5.240   7.771   8.508 -0.0160 -0.1180 -1.3140
  557MOL0     O75063   5.174   7.694   8.421  0.6677 -0.6055  0.6825
  557MOL0     C75064   5.037   7.661   8.446 -0.0478 -0.6609 -0.2246
  557MOL0     C75065   4.954   7.759   8.503  1.2562 -0.6041  0.0327
  557MOL0     C75066   4.816   7.746   8.513 -0.1516  0.4219  0.0116
  557MOL0     C75067   4.762   7.620   8.479  0.0669 -0.0038 -0.1136
  557MOL0     O75068   4.637   7.583   8.525  0.2254 -0.1126 -0.1376
  557MOL0     C75069   4.536   7.670   8.463 -0.0333  0.3718  0.4601
  557MOL0     C75070   4.403   7.615   8.461  0.0176  0.0470 -0.4039
  557MOL0     C75071   4.386   7.513   8.352  0.3548  0.1374  0.5862
  557MOL0     C75072   4.240   7.477   8.362 -0.7399 -0.7558 -0.1181
  557MOL0     C75073   4.212   7.362   8.273  0.6854  0.2618 -0.2149
  557MOL0     C75074   4.067   7.313   8.300 -0.7348  0.0406  0.0974
  557MOL0     C75075   4.016   7.198   8.208 -0.6629 -0.7356 -0.7926
  557MOL0     C75076   3.933   7.089   8.274  0.8314 -0.4833  0.1374
  557MOL0     N75077   3.813   7.135   8.342 -0.0895  0.1756 -0.4043
  557MOL0     C75078   3.690   7.081   8.311 -0.8517  0.3350 -0.6662
  557MOL0     C75079   3.596   7.163   8.364  0.2525 -0.8346  0.3532
  557MOL0     C75080   3.447   7.159   8.359  0.7007 -0.1240  0.0435
  557MOL0     C75081   3.399   7.014   8.363 -0.1086 -1.0332  0.7520
  557MOL0     C75082   3.428   6.947   8.499 -0.5129 -0.3479 -0.3943
  557MOL0     C75083   3.382   6.802   8.515 -0.1771  0.1563  0.2771
  557MOL0     O75084   3.235   6.801   8.540  0.5030  0.4741 -0.3452
  557MOL0     C75085   3.185   6.822   8.670 -0.1637  0.0026 -0.3037
  557MOL0     C75086   3.258   6.836   8.792 -0.4316 -0.2351 -0.3901
  557MOL0     C75087   3.188   6.859   8.920 -0.2963 -0.0485  0.5299
  557MOL0     C75088   3.286   6.879   9.033 -0.0827 -0.7320 -1.3657
  557MOL0     C75089   3.048   6.873   8.928  0.5971 -0.5166 -0.1458
  557MOL0     C75090   2.962   6.900   9.052  0.0608  0.6873 -0.9317
  557MOL0     O75091   2.828   6.921   9.030  0.4666  0.4827  0.3434
  557MOL0     C75092   2.737   6.969   9.119  0.7834  0.6216  0.5651
  557MOL0     C75093   2.658   7.080   9.089  0.3151 -0.8421 -0.1674
  557MOL0     C75094   2.563   7.129   9.179  0.2765 -0.1908  0.5256
  557MOL0     C75095   2.544   7.071   9.302 -0.0805 -0.4328  0.0694
  557MOL0     O75096   2.437   7.117   9.370  0.1022  0.3997  0.6777
  557MOL0     C75097   2.440   7.090   9.515  1.4435 -0.7715  0.9574
  557MOL0     C75098   2.314   7.131   9.592  0.6502  0.0748  0.1179
  557MOL0     C75099   2.191   7.052   9.547  0.0439 -0.1171 -0.2742
  557MOL0     C75100   2.054   7.111   9.589  0.1894 -0.4703 -0.0804
  557MOL0     C75101   1.933   7.020   9.564  0.2322  0.3510  0.8289
  557MOL0     C75102   1.805   7.100   9.613  0.5562  0.5422  0.7329
  557MOL0     C75103   1.667   7.038   9.559 -0.5981  0.0186  0.3382
  557MOL0     C75104   1.545   7.112   9.613  0.1068  0.1228 -0.4229
  557MOL0    Cl75105   1.535   7.111   9.793 -0.2564 -0.5109  0.5314
  557MOL0     C75106   2.636   6.968   9.345 -1.3215  0.1193  0.1378
  557MOL0     C75107   2.733   6.919   9.254 -0.8734  0.1276  0.9390
  557MOL0     O75108   3.015   6.933   9.159  0.4498  0.0976 -0.7814
  557MOL0     C75109   2.982   6.851   8.806 -0.0855  0.1549 -0.1631
  557MOL0     C75110   3.054   6.822   8.678  0.9791 -0.0488  0.2822
  557MOL0     N75111   3.669   7.265   8.434 -0.8160  0.6672  0.1467
  557MOL0     N75112   3.796   7.250   8.409 -0.2720 -0.0545 -0.0740
  557MOL0     C75113   4.840   7.517   8.423 -0.0387 -0.0776  0.8322
  557MOL0     C75114   4.981   7.546   8.406 -0.2222 -0.0868 -0.3254
  557MOL0     C75115   5.334   7.865   8.454 -0.5497  0.6392 -0.2845
  557MOL0     C75116   5.398   7.960   8.533 -0.7881  0.0476  0.1436
  557MOL0     C75117   5.485   8.058   8.477 -0.8592  0.2314  0.3544
  557MOL0     C75118   5.509   8.056   8.338 -0.3346  0.5032 -0.1527
  557MOL0     O75119   5.608   8.156   8.299 -0.0937  0.0178  0.3269
  557MOL0     C75120   5.683   8.141   8.173  0.3151 -0.1933 -0.2027
  557MOL0     C75121   5.781   8.031   8.190 -0.6792 -0.0916 -0.3841
  557MOL0     C75122   5.897   8.047   8.093  0.4250  0.1587  0.5463
  557MOL0     C75123   5.992   7.934   8.104  0.7072  0.0600 -1.1226
  557MOL0     C75124   6.107   7.964   8.024  0.1437  0.0054  0.1524
  557MOL0     C75125   6.196   7.988   7.949 -0.2730 -0.4542  0.0331
  557MOL0     C75126   5.439   7.961   8.255  0.0298 -0.1878  0.4518
  557MOL0     C75127   5.352   7.873   8.322  0.2185  0.9311  0.7802
  557MOL0     H75128   4.990   7.861   8.516 -2.4574  0.8226  0.3189
  557MOL0     H75129   4.757   7.822   8.563 -1.1813  1.7788 -3.0130
  557MOL0     H75130   4.528   7.758   8.528  2.0861 -0.1471  1.5393
  557MOL0     H75131   4.571   7.699   8.364 -2.3521 -2.3239 -1.2708
  557MOL0     H75132   4.378   7.570   8.557 -1.0793  1.8537  0.2002
  557MOL0     H75133   4.339   7.702   8.446  2.3109  2.0847  1.0212
  557MOL0     H75134   4.401   7.555   8.252 -0.3173 -3.4408 -1.1602
  557MOL0     H75135   4.442   7.421   8.368  0.1838  0.2420  1.9691
  557MOL0     H75136   4.224   7.454   8.468  2.7350  1.1048  0.9414
  557MOL0     H75137   4.183   7.565   8.329  1.2099  0.2328 -1.0084
  557MOL0     H75138   4.218   7.382   8.166  0.7580 -2.1465 -0.7113
  557MOL0     H75139   4.280   7.278   8.294  1.7446  1.4950  1.5593
  557MOL0     H75140   4.058   7.281   8.404  1.8752  0.1801  0.4342
  557MOL0     H75141   4.000   7.399   8.293 -2.8817 -1.4312  1.3831
  557MOL0     H75142   3.970   7.244   8.120  1.1698  1.9441 -0.4783
  557MOL0     H75143   4.096   7.141   8.159  1.5857 -0.1602  1.9635
  557MOL0     H75144   4.003   7.051   8.348  1.0071  0.1801  0.3201
  557MOL0     H75145   3.904   7.010   8.204  1.2032  1.1065 -1.9087
  557MOL0     H75146   3.686   6.990   8.252  3.1078 -0.9449  0.7729
  557MOL0     H75147   3.396   7.215   8.437 -3.3802 -1.0636 -1.7064
  557MOL0     H75148   3.439   7.211   8.262  2.7731  3.9934  1.8108
  557MOL0     H75149   3.453   6.967   8.280  1.1912 -0.6723  1.3768
  557MOL0     H75150   3.294   7.005   8.332 -0.0105  1.2340 -0.3990
  557MOL0     H75151   3.387   7.007   8.581  0.2027  1.2332 -1.1429
  557MOL0     H75152   3.534   6.943   8.524 -0.8293 -0.9474  0.9758
  557MOL0     H75153   3.441   6.762   8.598 -0.4421 -0.4534  0.1771
  557MOL0     H75154   3.403   6.742   8.426 -0.6832  0.7015 -0.2141
  557MOL0     H75155   3.367   6.839   8.787 -0.2082 -2.8139  1.2269
  557MOL0     H75156   3.385   6.907   8.996  0.4673  0.4870  0.8498
  557MOL0     H75157   3.268   6.967   9.095 -0.0270 -1.0288 -0.9193
  557MOL0     H75158   3.292   6.803   9.111  0.6865  1.8951  1.3063
  557MOL0     H75159   2.676   7.127   8.993 -1.3431 -0.9578 -0.5673
  557MOL0     H75160   2.492   7.205   9.150  0.8684 -0.7533 -2.8930
  557MOL0     H75161   2.458   6.984   9.536 -2.2984 -1.5346  0.9223
  557MOL0     H75162   2.519   7.152   9.558  0.7408  1.4310 -0.7066
  557MOL0     H75163   2.329   7.125   9.700 -0.6492 -0.3052  0.2969
  557MOL0     H75164   2.311   7.234   9.557  2.6657  0.0843 -0.1497
  557MOL0     H75165   2.184   6.950   9.588 -1.9318  0.4473  0.9465
  557MOL0     H75166   2.189   7.053   9.438 -0.6994  3.3725 -0.3195
  557MOL0     H75167   2.049   7.126   9.697  0.7480 -1.2400  0.0597
  557MOL0     H75168   2.029   7.199   9.529 -0.3960  0.4222  1.4208
  557MOL0     H75169   1.940   6.921   9.609  0.3728  0.0636  0.1762
  557MOL0     H75170   1.943   7.004   9.456 -1.9582  0.1508  0.6057
  557MOL0     H75171   1.817   7.104   9.721 -0.9375  0.1936  0.9359
  557MOL0     H75172   1.805   7.202   9.573  2.3247  0.0643 -0.6436
  557MOL0     H75173   1.655   6.933   9.589 -0.8891 -0.1719 -0.4204
  557MOL0     H75174   1.665   7.055   9.451  2.0625 -0.4168  0.1618
  557MOL0     H75175   1.450   7.074   9.575 -0.0471 -0.0642  0.1370
  557MOL0     H75176   1.543   7.218   9.583  1.4331  2.1004  5.1394
  557MOL0     H75177   2.636   6.922   9.444 -0.4595 -3.0047 -1.1718
  557MOL0     H75178   2.795   6.837   9.285 -2.0655 -1.3931 -0.5137
  557MOL0     H75179   2.873   6.843   8.810  0.0426 -2.5574 -0.0628
  557MOL0     H75180   2.999   6.789   8.590 -1.9245  0.0896  1.9038
  557MOL0     H75181   4.801   7.415   8.423  3.1011 -1.4021  1.2567
  557MOL0     H75182   5.054   7.475   8.370  1.3720  0.8610  0.8951
  557MOL0     H75183   5.371   7.958   8.637 -0.6838  1.6113  0.2308
  557MOL0     H75184   5.539   8.121   8.547  0.1269 -2.7733  2.5483
  557MOL0     H75185   5.612   8.123   8.092 -0.1328  1.6868 -0.2884
  557MOL0     H75186   5.737   8.236   8.160 -1.9144  1.0138 -1.2719
  557MOL0     H75187   5.740   7.933   8.166  3.6813 -2.2223 -0.0181
  557MOL0     H75188   5.815   8.031   8.294 -2.3195 -1.0102  0.1870
  557MOL0     H75189   5.947   8.141   8.119 -0.7003  1.7603 -2.5769
  557MOL0     H75190   5.862   8.060   7.990 -2.5057  1.1983  1.5834
  557MOL0     H75191   5.946   7.839   8.077 -1.8343  1.7079 -3.0419
  557MOL0     H75192   6.008   7.938   8.212 -0.2611 -0.1514 -0.9567
  557MOL0     H75193   6.271   8.022   7.881 -1.3713  2.6847  0.2278
  557MOL0     H75194   5.445   7.958   8.147 -1.5599  0.8768  0.3006
  557MOL0     H75195   5.315   7.786   8.268  0.0402  0.8273  1.0687
  558MOL0     O75196   6.955   2.399   9.079  0.3021 -0.0376  0.3170
  558MOL0     C75197   7.040   2.348   9.004  0.0764  0.1079  0.3245
  558MOL0     O75198   7.031   2.359   8.869 -0.2074  0.0526 -0.1402
  558MOL0     C75199   6.933   2.439   8.810  0.5567  0.2804 -0.3795
  558MOL0     C75200   6.906   2.573   8.825  0.1135  0.0757 -0.6784
  558MOL0     C75201   6.827   2.642   8.737 -0.7424  0.1505 -0.1471
  558MOL0     C75202   6.772   2.571   8.627 -0.6939 -0.0697 -1.0729
  558MOL0     O75203   6.681   2.636   8.546  0.3809 -0.0364  0.6836
  558MOL0     C75204   6.677   2.782   8.533  0.6241  0.0864  0.9078
  558MOL0     C75205   6.561   2.814   8.439  0.1488 -1.1491  0.2720
  558MOL0     C75206   6.422   2.815   8.502 -0.2171 -1.0403 -0.5675
  558MOL0     C75207   6.315   2.831   8.400  0.7567 -0.4506 -0.2515
  558MOL0     C75208   6.170   2.857   8.457  0.0535 -0.2951  0.5415
  558MOL0     C75209   6.058   2.862   8.349 -0.2126 -0.0408 -0.4889
  558MOL0     C75210   6.053   3.002   8.277  0.3281 -0.7314  0.0762
  558MOL0     C75211   5.949   3.010   8.160 -0.8719 -0.9423 -0.7603
  558MOL0     N75212   5.812   2.965   8.192 -0.2106  0.4662 -0.3193
  558MOL0     C75213   5.701   3.038   8.164  0.3068  0.4566  0.6161
  558MOL0     C75214   5.596   2.957   8.182 -0.5615  0.8704 -0.4907
  558MOL0     C75215   5.452   2.994   8.178  0.4070  0.4287 -0.2452
  558MOL0     C75216   5.359   2.866   8.165 -0.1521  0.0016  0.6974
  558MOL0     C75217   5.209   2.885   8.156 -0.0919 -0.0600 -0.6761
  558MOL0     C75218   5.175   2.934   8.017  0.0824 -0.1434 -0.5686
  558MOL0     O75219   5.060   3.024   8.018  0.4228  0.7127 -0.6442
  558MOL0     C75220   4.935   2.973   8.031 -0.3399 -0.1379 -0.3731
  558MOL0     C75221   4.888   2.840   8.040  0.1314 -0.1909  0.7543
  558MOL0     C75222   4.755   2.809   8.051  0.0412  0.1823  0.6366
  558MOL0     C75223   4.718   2.653   8.045  0.0475  0.5419 -0.2586
  558MOL0     C75224   4.652   2.903   8.033  0.0607 -0.2826 -0.8195
  558MOL0     C75225   4.502   2.881   8.018 -0.4455  0.3145  0.1449
  558MOL0     O75226   4.440   2.777   8.086  0.8119 -0.2404 -0.0361
  558MOL0     C75227   4.304   2.771   8.090 -0.2557  0.5609 -0.7352
  558MOL0     C75228   4.238   2.809   8.203 -0.7162  0.5505  0.0219
  558MOL0     C75229   4.102   2.837   8.200  0.7771  1.0745 -0.7404
  558MOL0     C75230   4.030   2.808   8.087 -0.5250  0.3790 -0.5346
  558MOL0     O75231   3.899   2.831   8.110  0.2739 -1.2955  1.0105
  558MOL0     C75232   3.807   2.807   7.995  0.3007 -0.3318  0.1541
  558MOL0     C75233   3.654   2.844   8.022  0.3661  0.6666 -0.0078
  558MOL0     C75234   3.591   2.765   8.132 -0.9134 -0.8535  0.6690
  558MOL0     C75235   3.438   2.806   8.154  0.5282  0.2325 -0.1298
  558MOL0     C75236   3.341   2.805   8.036 -0.4381 -0.2740 -0.1295
  558MOL0     C75237   3.198   2.864   8.076 -0.3319 -0.2912  0.1025
  558MOL0     C75238   3.183   3.021   8.077 -0.8569 -0.0559  0.0767
  558MOL0     C75239   3.280   3.110   7.991  0.9779  0.4897 -0.7568
  558MOL0    Cl75240   3.260   3.279   8.037 -0.3897  0.2912 -0.1367
  558MOL0     C75241   4.097   2.762   7.972 -0.2846 -0.4046  0.0299
  558MOL0     C75242   4.235   2.739   7.972  0.3175  0.5937 -0.5152
  558MOL0     O75243   4.443   2.975   7.967 -0.3615  0.2098 -0.0640
  558MOL0     C75244   4.697   3.034   8.017  0.2517  0.4536 -0.1166
  558MOL0     C75245   4.830   3.067   8.024 -0.6731 -0.4305  0.0564
  558MOL0     N75246   5.648   2.829   8.200  0.3360  0.0651 -0.0055
  558MOL0     N75247   5.779   2.835   8.203  0.9679  1.0325  0.4662
  558MOL0     C75248   6.788   2.431   8.625  0.8697  0.6364  0.7495
  558MOL0     C75249   6.869   2.366   8.712  0.3516  0.1719  0.0426
  558MOL0     C75250   7.149   2.280   9.058  0.1371  0.9646 -0.4365
  558MOL0     C75251   7.181   2.284   9.195  0.7740 -0.5386 -0.4338
  558MOL0     C75252   7.285   2.225   9.258 -0.0267  0.2279 -0.1427
  558MOL0     C75253   7.380   2.154   9.188 -0.6756  0.4720  0.0778
  558MOL0     O75254   7.479   2.100   9.256  0.1763  0.3341  0.4946
  558MOL0     C75255   7.580   2.019   9.181 -0.1442 -0.5957  0.2653
  558MOL0     C75256   7.691   1.998   9.283  0.3328  1.3092  0.3243
  558MOL0     C75257   7.645   1.891   9.380 -0.4121 -0.5069 -0.6678
  558MOL0     C75258   7.650   1.753   9.322 -0.3165 -0.7293 -0.4791
  558MOL0     C75259   7.792   1.711   9.294 -0.0832 -1.1230  0.4599
  558MOL0     C75260   7.905   1.682   9.275 -0.1213  0.4671 -0.0107
  558MOL0     C75261   7.361   2.146   9.045  0.1465 -0.7479  0.5351
  558MOL0     C75262   7.248   2.211   8.986  0.7015 -0.0565  0.0541
  558MOL0     H75263   6.960   2.642   8.890  2.7148 -1.8654 -0.6271
  558MOL0     H75264   6.813   2.748   8.755 -3.2243 -0.1726  0.2274
  558MOL0     H75265   6.654   2.816   8.635  1.6312 -2.3763  2.0532
  558MOL0     H75266   6.767   2.830   8.494 -1.2015  1.3505 -2.0949
  558MOL0     H75267   6.580   2.916   8.405 -1.0699 -1.6125 -2.0400
  558MOL0     H75268   6.569   2.746   8.354 -0.5958 -0.0624 -0.7048
  558MOL0     H75269   6.398   2.738   8.576 -0.3645  1.0072  1.6419
  558MOL0     H75270   6.419   2.898   8.574 -0.1030 -3.3238  2.2202
  558MOL0     H75271   6.351   2.911   8.334  0.1051  0.1859  0.1416
  558MOL0     H75272   6.312   2.736   8.346 -2.4704 -0.7632  0.2943
  558MOL0     H75273   6.147   2.776   8.527  2.2073 -1.6274 -0.2225
  558MOL0     H75274   6.161   2.951   8.513  1.9734  0.6229 -0.6064
  558MOL0     H75275   6.068   2.777   8.280 -2.0831  0.1910 -1.0897
  558MOL0     H75276   5.969   2.848   8.411  0.4385 -0.2120  0.4286
  558MOL0     H75277   6.035   3.077   8.353  2.3714  1.1870 -1.2105
  558MOL0     H75278   6.149   3.026   8.231  1.4185 -0.4610  2.3815
  558MOL0     H75279   5.994   2.963   8.072 -0.3436 -1.8182 -0.0500
  558MOL0     H75280   5.947   3.119   8.150 -0.6736 -0.6625  1.6158
  558MOL0     H75281   5.705   3.144   8.138  0.4167 -0.2270 -2.6933
  558MOL0     H75282   5.425   3.042   8.272 -0.8789 -1.4815  0.4317
  558MOL0     H75283   5.432   3.049   8.086 -2.7584 -0.4812 -0.2118
  558MOL0     H75284   5.367   2.796   8.249  1.4589 -1.3890 -0.5555
  558MOL0     H75285   5.387   2.816   8.072  0.1037  2.0298 -0.3741
  558MOL0     H75286   5.174   2.966   8.221  0.4994  1.1214 -1.7839
  558MOL0     H75287   5.154   2.791   8.171 -2.3356  1.2354 -0.3218
  558MOL0     H75288   5.169   2.851   7.945  1.1930  1.1825 -2.3026
  558MOL0     H75289   5.261   2.989   7.976 -2.0717  3.1011 -1.0768
  558MOL0     H75290   4.968   2.769   8.024 -0.9100 -1.2622  0.0708
  558MOL0     H75291   4.793   2.582   8.008  0.5079  0.5000  0.7118
  558MOL0     H75292   4.694   2.630   8.149 -0.0369  1.3677 -0.0944
  558MOL0     H75293   4.628   2.647   7.984  0.6750  2.0367 -1.3779
  558MOL0     H75294   4.297   2.811   8.295  0.5601  1.1619 -0.7779
  558MOL0     H75295   4.055   2.874   8.290  1.6546  1.6788 -0.5104
  558MOL0     H75296   3.841   2.858   7.905 -1.3148  0.3369 -0.1052
  558MOL0     H75297   3.811   2.700   7.970  0.7002 -0.4089  0.5263
  558MOL0     H75298   3.638   2.951   8.037 -4.0404  0.4376 -1.7523
  558MOL0     H75299   3.603   2.827   7.928 -1.3112 -0.5891  1.0700
  558MOL0     H75300   3.647   2.783   8.224  1.2323  2.3376 -1.0694
  558MOL0     H75301   3.592   2.659   8.105 -0.7633 -0.7599  0.3062
  558MOL0     H75302   3.411   2.721   8.218  0.1010  0.7344  0.3705
  558MOL0     H75303   3.418   2.899   8.208 -1.7756 -1.1128  1.5512
  558MOL0     H75304   3.330   2.701   8.004 -0.3821 -0.5366  0.6845
  558MOL0     H75305   3.373   2.859   7.946 -1.2540 -2.8643 -2.0879
  558MOL0     H75306   3.115   2.831   8.013 -0.9662 -0.9893  1.2729
  558MOL0     H75307   3.175   2.818   8.172  1.2867 -0.3365  0.4942
  558MOL0     H75308   3.197   3.065   8.176  1.6175 -1.2345  0.3336
  558MOL0     H75309   3.086   3.048   8.034 -0.8826 -2.8176 -1.9051
  558MOL0     H75310   3.254   3.103   7.885  0.2199  0.3449 -0.5720
  558MOL0     H75311   3.382   3.079   8.013  1.1526 -0.6826 -2.9784
  558MOL0     H75312   4.033   2.736   7.889 -0.9194  2.2212 -0.3737
  558MOL0     H75313   4.281   2.692   7.885 -1.9036 -1.2126 -0.8399
  558MOL0     H75314   4.635   3.119   7.990  0.5475  1.2239  1.5123
  558MOL0     H75315   4.863   3.170   8.020  2.5553 -1.2942  1.1206
  558MOL0     H75316   6.740   2.372   8.548  2.0706  2.2101 -1.3167
  558MOL0     H75317   6.873   2.263   8.677  0.1120  1.4090 -4.1119
  558MOL0     H75318   7.126   2.356   9.254  2.5031  0.9535 -0.5817
  558MOL0     H75319   7.296   2.227   9.366 -1.0841 -0.1056 -0.0250
  558MOL0     H75320   7.526   1.932   9.143  1.1080 -0.6322 -1.5492
  558MOL0     H75321   7.618   2.075   9.095 -3.5593 -1.6396 -2.1525
  558MOL0     H75322   7.700   2.095   9.332 -2.9196  0.7538  2.3549
  558MOL0     H75323   7.779   1.955   9.234 -0.5346 -2.9956  2.0483
  558MOL0     H75324   7.541   1.916   9.406 -0.7515 -2.7296  0.3280
  558MOL0     H75325   7.705   1.899   9.471  0.7324 -1.2267 -1.3391
  558MOL0     H75326   7.593   1.759   9.228 -0.1913 -0.0801 -0.5206
  558MOL0     H75327   7.602   1.687   9.394 -0.7333  1.6755  1.6051
  558MOL0     H75328   8.008   1.655   9.264  0.6758  2.9872  0.5962
  558MOL0     H75329   7.429   2.080   8.991  0.9973 -0.1369  0.8341
  558MOL0     H75330   7.233   2.207   8.878 -0.8385  1.2639  0.1744
  559MOL0     O75331   4.605   8.013   3.620 -0.9541  0.1156 -0.2019
  559MOL0     C75332   4.631   8.010   3.742  0.2604  0.1940  0.0066
  559MOL0     O75333   4.537   7.977   3.837 -0.1261  0.2702  0.3210
  559MOL0     C75334   4.408   7.955   3.797 -0.5589 -0.4053  0.3322
  559MOL0     C75335   4.303   8.033   3.859 -0.5416  0.0507 -0.5703
  559MOL0     C75336   4.171   8.024   3.823 -0.2275  0.4951  0.1023
  559MOL0     C75337   4.134   7.917   3.735 -0.3247 -0.0100 -0.1509
  559MOL0     O75338   4.010   7.901   3.686  0.1742 -0.5466 -0.3288
  559MOL0     C75339   3.906   7.894   3.791  0.0491  0.5219 -0.0894
  559MOL0     C75340   3.786   7.838   3.717  0.3165 -0.1486 -0.6003
  559MOL0     C75341   3.653   7.900   3.756  0.1528 -0.7303 -0.4945
  559MOL0     C75342   3.524   7.808   3.733  1.0054 -0.0929  0.4846
  559MOL0     C75343   3.386   7.869   3.786 -0.1121  0.3298 -0.2541
  559MOL0     C75344   3.275   7.791   3.717  0.1259 -0.2888  0.3442
  559MOL0     C75345   3.146   7.800   3.801 -0.6437 -0.3835 -0.2609
  559MOL0     C75346   3.025   7.728   3.745 -0.1942  0.1619  0.6361
  559MOL0     N75347   2.909   7.751   3.831 -0.1065 -0.0050  0.3480
  559MOL0     C75348   2.893   7.676   3.941 -1.0353  0.5905  0.8578
  559MOL0     C75349   2.807   7.743   4.016  0.4545  0.3609  0.3484
  559MOL0     C75350   2.734   7.694   4.135 -0.0362  0.2727 -0.0008
  559MOL0     C75351   2.649   7.573   4.107  0.5663 -0.2114  0.4895
  559MOL0     C75352   2.695   7.444   4.156 -0.1916  0.2657  0.4601
  559MOL0     C75353   2.649   7.422   4.300  0.2495  0.0554  0.3463
  559MOL0     O75354   2.507   7.403   4.307  0.2074 -0.3667 -0.6447
  559MOL0     C75355   2.443   7.391   4.424 -0.0654  0.2830 -0.9379
  559MOL0     C75356   2.301   7.382   4.419 -0.9121 -0.2520  0.7650
  559MOL0     C75357   2.222   7.357   4.528  0.5837 -0.8241 -0.0207
  559MOL0     C75358   2.071   7.364   4.492 -0.2131  0.4656  0.2388
  559MOL0     C75359   2.283   7.363   4.657 -0.6039  0.2862 -0.2301
  559MOL0     C75360   2.203   7.351   4.782  0.4071 -0.5788  1.0125
  559MOL0     O75361   2.070   7.319   4.754  0.4030  0.5580 -0.6342
  559MOL0     C75362   1.970   7.340   4.844  0.1922 -0.1365 -0.5888
  559MOL0     C75363   1.982   7.405   4.971 -0.4843 -0.4224 -0.4509
  559MOL0     C75364   1.865   7.415   5.053  0.1890 -0.8017 -0.1746
  559MOL0     C75365   1.739   7.370   5.011  0.5125  0.0871  0.1701
  559MOL0     O75366   1.632   7.407   5.085 -0.4819 -0.1050  0.6850
  559MOL0     C75367   1.529   7.310   5.112  0.8988 -0.5891 -0.4827
  559MOL0     C75368   1.407   7.388   5.067 -0.3546 -0.4483 -0.3730
  559MOL0     C75369   1.283   7.310   5.097  0.3158  0.1614  0.3202
  559MOL0     C75370   1.154   7.382   5.064 -0.9582 -0.8146  0.5200
  559MOL0     C75371   1.023   7.334   5.115  0.0835  1.1131  0.0185
  559MOL0     C75372   0.989   7.192   5.052  0.3569  0.7030  0.2918
  559MOL0     C75373   0.873   7.127   5.126 -0.2091 -0.9958 -0.2422
  559MOL0     C75374   0.923   7.051   5.248 -0.8065 -0.2097  1.4895
  559MOL0    Cl75375   0.966   6.880   5.179  0.0929 -0.0556  0.1236
  559MOL0     C75376   1.740   7.310   4.886  0.0036 -0.3781 -0.7212
  559MOL0     C75377   1.849   7.288   4.801 -0.0116 -0.8757  0.0591
  559MOL0     O75378   2.255   7.389   4.889 -0.4864 -0.6833 -0.3534
  559MOL0     C75379   2.424   7.365   4.657 -0.9359 -0.1082 -0.4665
  559MOL0     C75380   2.511   7.376   4.547  0.2830  0.2511  0.5151
  559MOL0     N75381   2.770   7.871   3.961  0.4291  1.0888 -0.1539
  559MOL0     N75382   2.832   7.867   3.846  0.7177  0.1487  0.0716
  559MOL0     C75383   4.232   7.832   3.677  0.6003 -0.4864 -0.2731
  559MOL0     C75384   4.361   7.859   3.708  0.0649  0.0280  0.0071
  559MOL0     C75385   4.777   8.026   3.777 -0.5314  0.2697  0.1093
  559MOL0     C75386   4.810   8.033   3.910 -0.9126 -0.1304 -0.5463
  559MOL0     C75387   4.941   8.048   3.956 -0.2924 -0.1894  0.0348
  559MOL0     C75388   5.046   8.052   3.865 -0.3612 -0.1898  0.3910
  559MOL0     O75389   5.169   8.039   3.918 -0.2888 -0.1816  0.1071
  559MOL0     C75390   5.277   7.976   3.845  0.4552 -0.2005  0.5990
  559MOL0     C75391   5.415   8.001   3.907 -0.4259 -0.1261  0.2618
  559MOL0     C75392   5.429   8.161   3.939 -0.3937 -0.2806 -0.0855
  559MOL0     C75393   5.405   8.257   3.822  0.9954  0.0221  0.7967
  559MOL0     C75394   5.504   8.252   3.717  1.1017 -0.2359 -0.4246
  559MOL0     C75395   5.591   8.256   3.636  0.2435 -0.7534  0.2349
  559MOL0     C75396   5.014   8.038   3.724 -0.8125  0.5432  0.0915
  559MOL0     C75397   4.879   8.022   3.684  0.5590 -0.4799 -0.5965
  559MOL0     H75398   4.333   8.111   3.927  1.9677 -2.9605  2.1291
  559MOL0     H75399   4.091   8.084   3.865 -1.8559 -2.6887  1.9854
  559MOL0     H75400   3.928   7.821   3.870 -0.6915  2.0233  1.5686
  559MOL0     H75401   3.876   7.993   3.826  1.4458  1.1847 -0.6793
  559MOL0     H75402   3.796   7.843   3.608  0.4553 -0.0598 -0.5836
  559MOL0     H75403   3.776   7.729   3.725 -2.4084  0.1063  0.6191
  559MOL0     H75404   3.647   7.921   3.863 -0.5243 -4.1654  0.2439
  559MOL0     H75405   3.640   7.990   3.694 -0.9356 -1.0861 -0.7998
  559MOL0     H75406   3.522   7.796   3.624  0.1988  1.5067  0.2879
  559MOL0     H75407   3.527   7.704   3.767 -3.5860 -0.8127 -0.5965
  559MOL0     H75408   3.371   7.861   3.894  0.4096  0.4420 -0.1700
  559MOL0     H75409   3.381   7.976   3.762 -0.7336  0.7526  1.5806
  559MOL0     H75410   3.263   7.830   3.615  1.0867  0.3467  0.4650
  559MOL0     H75411   3.298   7.685   3.703 -0.2662 -0.4082  0.5807
  559MOL0     H75412   3.168   7.755   3.897  2.8113 -0.6227 -1.0343
  559MOL0     H75413   3.122   7.904   3.825 -1.7755 -1.1454  2.1803
  559MOL0     H75414   3.035   7.621   3.728  0.5613  0.4253 -0.7834
  559MOL0     H75415   2.990   7.780   3.655 -1.0273 -2.0879 -0.4199
  559MOL0     H75416   2.933   7.577   3.955 -0.9451  0.0792 -2.3224
  559MOL0     H75417   2.797   7.673   4.222 -1.0273  1.3454  1.0189
  559MOL0     H75418   2.672   7.774   4.175  1.8019  1.8497 -0.1202
  559MOL0     H75419   2.642   7.559   3.998 -0.4218 -1.9913  0.7409
  559MOL0     H75420   2.543   7.577   4.133  0.9384 -0.5841  2.1299
  559MOL0     H75421   2.802   7.440   4.136 -0.1960  0.4229  0.4074
  559MOL0     H75422   2.651   7.363   4.097  0.5005 -1.1008  1.7613
  559MOL0     H75423   2.690   7.494   4.371  0.9655  1.5383 -1.4859
  559MOL0     H75424   2.679   7.321   4.329 -1.9319 -0.5878  0.5743
  559MOL0     H75425   2.261   7.390   4.319  0.0508 -1.2562  0.2828
  559MOL0     H75426   2.016   7.274   4.519  0.3581  1.2057  4.5000
  559MOL0     H75427   2.025   7.441   4.554  0.5893  2.0909 -1.0939
  559MOL0     H75428   2.053   7.403   4.391 -0.6935 -4.7867 -2.0059
  559MOL0     H75429   2.068   7.446   5.022 -2.4727  2.4585  0.8407
  559MOL0     H75430   1.868   7.454   5.154  0.1352 -1.7387  0.2081
  559MOL0     H75431   1.547   7.218   5.056  0.1427 -1.4453  0.6455
  559MOL0     H75432   1.522   7.288   5.219 -1.6328 -0.5909 -0.5992
  559MOL0     H75433   1.399   7.480   5.127  0.9118 -1.1910  1.0183
  559MOL0     H75434   1.410   7.416   4.962  1.7957  0.3622 -0.1452
  559MOL0     H75435   1.287   7.283   5.203 -2.6966 -2.5803 -0.1017
  559MOL0     H75436   1.290   7.212   5.049 -1.3501 -0.1629  0.6743
  559MOL0     H75437   1.169   7.486   5.095  2.0918 -0.8997 -0.3130
  559MOL0     H75438   1.148   7.377   4.955  1.1017 -0.3902  0.3406
  559MOL0     H75439   0.947   7.406   5.086 -2.7098 -1.0575  1.4165
  559MOL0     H75440   1.032   7.318   5.223  0.2848  2.6469  0.2442
  559MOL0     H75441   0.962   7.228   4.952 -0.9470 -0.7534  0.0752
  559MOL0     H75442   1.068   7.117   5.053 -1.1378 -1.0115  3.4457
  559MOL0     H75443   0.828   7.066   5.047  0.2430  1.1648 -2.3046
  559MOL0     H75444   0.794   7.197   5.154  0.1474 -1.0659  1.0078
  559MOL0     H75445   0.847   7.041   5.325 -2.8828  0.1587 -0.4180
  559MOL0     H75446   1.007   7.103   5.295  1.1800 -0.3073 -1.6379
  559MOL0     H75447   1.649   7.269   4.844 -1.2322  1.6721 -0.1606
  559MOL0     H75448   1.835   7.233   4.708  0.2148 -0.7306 -0.0605
  559MOL0     H75449   2.470   7.365   4.756  1.5397 -0.9012 -1.5390
  559MOL0     H75450   2.617   7.382   4.567  0.3042 -1.1235  0.8936
  559MOL0     H75451   4.216   7.750   3.608 -0.1665 -2.4568  2.1450
  559MOL0     H75452   4.452   7.810   3.673  1.5322 -0.2202  3.6958
  559MOL0     H75453   4.733   8.019   3.986  2.1984 -0.3299  2.8113
  559MOL0     H75454   4.967   8.037   4.061  0.6678 -0.7919 -0.2612
  559MOL0     H75455   5.244   7.872   3.856 -0.5278 -0.0202 -0.4680
  559MOL0     H75456   5.278   8.009   3.741  0.3965 -0.2009  0.5982
  559MOL0     H75457   5.496   7.957   3.848 -0.6352  0.6639 -0.6435
  559MOL0     H75458   5.422   7.949   4.003  2.2663 -2.6165 -1.0984
  559MOL0     H75459   5.530   8.186   3.972 -0.6870  0.6472  0.1274
  559MOL0     H75460   5.376   8.198   4.027  3.9753  0.4044  2.5347
  559MOL0     H75461   5.406   8.358   3.864  1.2197 -0.4248  1.9089
  559MOL0     H75462   5.309   8.235   3.775  0.0725  0.2955  2.4883
  559MOL0     H75463   5.669   8.259   3.563 -0.7823  0.6319 -0.8647
  559MOL0     H75464   5.095   8.032   3.651 -0.0529  0.2725  0.9430
  559MOL0     H75465   4.861   8.012   3.577 -1.8489 -0.4640 -0.2493
  560MOL0     O75466   1.955   5.391   9.057  0.4901  0.0466 -0.5417
  560MOL0     C75467   1.939   5.288   9.000 -0.3174 -0.6569  0.1664
  560MOL0     O75468   1.866   5.270   8.886 -0.1140  0.6400  0.0012
  560MOL0     C75469   1.775   5.360   8.832  0.2066 -0.0337 -1.2095
  560MOL0     C75470   1.671   5.296   8.774  0.2595  0.3942 -0.5240
  560MOL0     C75471   1.557   5.380   8.737  0.5128  0.3244  0.1392
  560MOL0     C75472   1.557   5.524   8.763 -0.6260 -0.0489  0.3413
  560MOL0     O75473   1.452   5.611   8.744 -0.6941 -0.0826 -0.9576
  560MOL0     C75474   1.324   5.565   8.720 -0.3598 -0.6622 -1.1245
  560MOL0     C75475   1.251   5.515   8.836  0.2216  0.2029  0.2012
  560MOL0     C75476   1.116   5.444   8.790  0.4649 -0.0699 -0.3958
  560MOL0     C75477   1.030   5.449   8.917  0.8607 -0.0150  0.3232
  560MOL0     C75478   0.889   5.374   8.902  0.3733 -0.1330 -0.5604
  560MOL0     C75479   0.782   5.467   8.830  0.3265 -0.3680 -0.6923
  560MOL0     C75480   0.640   5.420   8.847 -0.4343  0.1362 -0.6909
  560MOL0     C75481   0.591   5.306   8.748  0.1535  0.2643 -0.0206
  560MOL0     N75482   0.456   5.267   8.766 -1.0447 -0.3881  0.6235
  560MOL0     C75483   0.355   5.351   8.761  0.5391 -0.0556 -0.4773
  560MOL0     C75484   0.250   5.270   8.776  0.1851 -0.2585  0.9423
  560MOL0     C75485   0.113   5.327   8.771  0.4257 -0.6039  0.9527
  560MOL0     C75486   0.088   5.389   8.911 -0.7517 -0.2324 -0.6352
  560MOL0     C75487  -0.039   5.473   8.912 -0.1105  0.4109 -0.1225
  560MOL0     C75488  -0.160   5.386   8.928  0.4042 -0.4212 -1.0834
  560MOL0     O75489  -0.271   5.468   8.983 -0.0964  0.0026  0.4035
  560MOL0     C75490  -0.397   5.433   8.938 -0.5927 -0.1691  0.1945
  560MOL0     C75491  -0.492   5.535   8.959  0.8930 -0.9163  0.1700
  560MOL0     C75492  -0.620   5.525   8.896  0.3269  0.1298  0.3976
  560MOL0     C75493  -0.723   5.643   8.905 -0.8652  1.3801  0.0256
  560MOL0     C75494  -0.656   5.410   8.821 -1.0566  0.7814 -0.1149
  560MOL0     C75495  -0.776   5.394   8.727 -0.9028 -0.2262  0.4142
  560MOL0     O75496  -0.793   5.276   8.662 -0.4345 -0.1064  0.0800
  560MOL0     C75497  -0.920   5.242   8.625 -0.5797  0.8664 -0.6853
  560MOL0     C75498  -0.938   5.160   8.520 -0.1668 -0.5875 -0.0491
  560MOL0     C75499  -1.074   5.131   8.480  1.0107  0.7497  0.1359
  560MOL0     C75500  -1.191   5.171   8.544  0.3706 -0.3073  0.3900
  560MOL0     O75501  -1.316   5.126   8.505  0.7013  0.1707 -0.6590
  560MOL0     C75502  -1.439   5.136   8.580 -0.6393  0.5721  0.7465
  560MOL0     C75503  -1.499   5.269   8.547  0.3878 -0.0467  0.7762
  560MOL0     C75504  -1.567   5.263   8.410 -0.4312  0.6583 -0.5244
  560MOL0     C75505  -1.722   5.234   8.426  0.2133 -0.8118 -0.1178
  560MOL0     C75506  -1.810   5.209   8.312  0.9041  0.5914 -0.3664
  560MOL0     C75507  -1.760   5.091   8.229 -0.2793  0.2264  0.0437
  560MOL0     C75508  -1.781   4.957   8.294 -1.0192 -0.1057 -0.3623
  560MOL0     C75509  -1.722   4.860   8.190 -0.1241 -0.7036 -0.0209
  560MOL0    Cl75510  -1.718   4.688   8.252 -0.0265  0.3505 -0.1714
  560MOL0     C75511  -1.171   5.250   8.651 -0.0029  0.7656  0.1346
  560MOL0     C75512  -1.039   5.284   8.694 -0.3330  0.0239 -0.0977
  560MOL0     O75513  -0.843   5.494   8.704 -0.0350 -0.5536  0.4841
  560MOL0     C75514  -0.565   5.300   8.823  0.6964  0.1487  1.1854
  560MOL0     C75515  -0.436   5.317   8.873 -0.0783  0.8065  0.6919
  560MOL0     N75516   0.293   5.139   8.796  1.1940 -0.5009 -0.1800
  560MOL0     N75517   0.419   5.140   8.780  0.1100 -0.0234  0.0012
  560MOL0     C75518   1.670   5.580   8.816 -0.4857  0.6067 -0.0356
  560MOL0     C75519   1.780   5.496   8.849  0.6061 -0.1130 -0.1577
  560MOL0     C75520   2.035   5.185   9.051  1.0406  0.1489  0.4742
  560MOL0     C75521   2.148   5.211   9.127 -0.0451 -1.0151 -0.0491
  560MOL0     C75522   2.216   5.108   9.185 -0.4788  0.7593  0.7553
  560MOL0     C75523   2.187   4.970   9.155 -0.4258  0.2460 -0.3855
  560MOL0     O75524   2.257   4.866   9.200  0.2324 -0.3346  0.4340
  560MOL0     C75525   2.182   4.763   9.260 -0.3077 -0.2380  0.0599
  560MOL0     C75526   2.243   4.733   9.398  0.8977  0.8644 -0.1356
  560MOL0     C75527   2.380   4.669   9.376  1.0272  0.5268 -0.4944
  560MOL0     C75528   2.486   4.703   9.490  1.0201  0.3946 -0.3691
  560MOL0     C75529   2.610   4.639   9.444 -0.6138 -0.3468  0.2251
  560MOL0     C75530   2.705   4.576   9.406 -0.4201  0.0599 -0.3622
  560MOL0     C75531   2.091   4.944   9.058  0.0847  1.0582  0.3458
  560MOL0     C75532   2.004   5.048   9.016  1.0552 -0.2553 -0.3969
  560MOL0     H75533   1.667   5.189   8.755  2.0629  0.1164  0.4869
  560MOL0     H75534   1.473   5.327   8.695 -0.5065  0.5942  1.7311
  560MOL0     H75535   1.274   5.639   8.656  0.4745 -0.0736 -1.1158
  560MOL0     H75536   1.339   5.480   8.652  1.8010 -1.0392 -0.2579
  560MOL0     H75537   1.303   5.453   8.910 -0.5266  1.2891  1.7138
  560MOL0     H75538   1.224   5.603   8.896 -1.4544 -0.3539  0.3341
  560MOL0     H75539   1.061   5.504   8.718 -0.1500  2.4625  2.0287
  560MOL0     H75540   1.140   5.344   8.752  0.6495 -1.3486  2.7465
  560MOL0     H75541   1.081   5.404   9.003 -1.7905  1.2591  2.7400
  560MOL0     H75542   1.013   5.552   8.950 -0.5341  0.3047 -1.2590
  560MOL0     H75543   0.910   5.299   8.824 -0.8155  2.8325 -4.0139
  560MOL0     H75544   0.850   5.332   8.995  0.2771 -1.5852 -1.2209
  560MOL0     H75545   0.781   5.555   8.894 -0.2782  0.2003 -1.4574
  560MOL0     H75546   0.801   5.492   8.725  0.8679 -2.9935 -1.2970
  560MOL0     H75547   0.611   5.387   8.947 -0.1760  3.1289  0.4844
  560MOL0     H75548   0.580   5.509   8.828 -1.7211 -1.0229 -2.3768
  560MOL0     H75549   0.650   5.215   8.764 -2.0038 -0.7999  2.4862
  560MOL0     H75550   0.603   5.322   8.640 -2.2010  1.7709 -0.1122
  560MOL0     H75551   0.371   5.458   8.765 -0.0124 -0.0025  2.4476
  560MOL0     H75552   0.112   5.400   8.690  1.2522 -3.4156 -1.7797
  560MOL0     H75553   0.035   5.253   8.749  0.8000 -2.7882  5.6015
  560MOL0     H75554   0.179   5.450   8.913 -1.1189  0.3384 -1.1120
  560MOL0     H75555   0.088   5.306   8.981  3.9765 -1.4366 -1.7045
  560MOL0     H75556  -0.048   5.538   8.825  0.5412 -0.5536 -0.9404
  560MOL0     H75557  -0.017   5.531   9.002  4.9243  1.3284 -1.6450
  560MOL0     H75558  -0.139   5.300   8.992 -1.4610 -0.1310 -0.0148
  560MOL0     H75559  -0.184   5.351   8.827  0.6897 -7.0347  0.6881
  560MOL0     H75560  -0.474   5.633   9.003  0.8128  1.0682 -3.7605
  560MOL0     H75561  -0.742   5.693   8.810 -0.5509 -1.9687 -1.9475
  560MOL0     H75562  -0.822   5.612   8.940 -0.9630  2.1804  0.4879
  560MOL0     H75563  -0.673   5.712   8.974 -0.2838  2.5008 -1.4795
  560MOL0     H75564  -0.859   5.109   8.464 -0.4846  0.6610 -1.7120
  560MOL0     H75565  -1.081   5.079   8.385 -0.2842 -1.7016  1.4835
  560MOL0     H75566  -1.503   5.058   8.536 -1.4230  2.2485 -1.2902
  560MOL0     H75567  -1.417   5.127   8.686  0.1377  2.7547  0.8210
  560MOL0     H75568  -1.580   5.302   8.613  0.4878 -1.0916  1.4409
  560MOL0     H75569  -1.424   5.348   8.553  2.7058 -2.1152  0.6900
  560MOL0     H75570  -1.519   5.192   8.343  3.6931  1.8499  0.8661
  560MOL0     H75571  -1.555   5.362   8.365  0.6870  1.6479  1.7781
  560MOL0     H75572  -1.744   5.170   8.511 -0.1052  0.3096  0.6661
  560MOL0     H75573  -1.763   5.323   8.474  1.9627 -1.2483  2.3547
  560MOL0     H75574  -1.820   5.292   8.242  2.0762  0.1062 -1.1325
  560MOL0     H75575  -1.914   5.193   8.345  2.0093 -1.2958  2.6846
  560MOL0     H75576  -1.830   5.090   8.144  0.2450  3.8372 -0.5874
  560MOL0     H75577  -1.663   5.118   8.188 -0.7659  2.2686  0.1075
  560MOL0     H75578  -1.887   4.932   8.305 -0.7305 -0.5420  1.9412
  560MOL0     H75579  -1.746   4.955   8.397 -2.4353 -4.4516  0.2433
  560MOL0     H75580  -1.618   4.885   8.166  0.1171 -2.0232 -0.4598
  560MOL0     H75581  -1.784   4.852   8.100 -2.3461 -1.3718  1.5079
  560MOL0     H75582  -1.256   5.287   8.706 -0.4389 -3.2212  2.4981
  560MOL0     H75583  -1.026   5.347   8.782 -0.0959  0.3727 -0.3835
  560MOL0     H75584  -0.610   5.212   8.777  0.2342  0.1380  1.6502
  560MOL0     H75585  -0.369   5.234   8.852 -1.7632  0.0123 -2.0974
  560MOL0     H75586   1.676   5.686   8.840 -2.9525  0.7097  0.3572
  560MOL0     H75587   1.870   5.543   8.887 -0.7950  1.9307  0.7958
  560MOL0     H75588   2.178   5.311   9.158  0.4039 -1.3198  0.5099
  560MOL0     H75589   2.299   5.141   9.247 -1.2802  0.5565  1.9785
  560MOL0     H75590   2.078   4.790   9.279 -0.3517 -0.0236 -0.4684
  560MOL0     H75591   2.179   4.673   9.197 -0.8279 -0.4552  0.3887
  560MOL0     H75592   2.186   4.663   9.459  2.6639 -1.5310 -1.1044
  560MOL0     H75593   2.249   4.830   9.450 -3.0015 -0.1223  2.5492
  560MOL0     H75594   2.425   4.696   9.280 -0.9612 -0.9182 -1.9240
  560MOL0     H75595   2.368   4.561   9.366 -0.6399  0.4200  1.7256
  560MOL0     H75596   2.453   4.675   9.590 -0.5327  2.0956 -0.3518
  560MOL0     H75597   2.503   4.811   9.499  1.8449  0.0988  3.9856
  560MOL0     H75598   2.798   4.543   9.366 -1.7623 -1.9771 -2.0147
  560MOL0     H75599   2.083   4.845   9.014  1.0705  1.4189 -0.6832
  560MOL0     H75600   1.922   5.025   8.950  2.2485  0.3917 -2.1758
  561MOL0     O75601  10.825   1.106   4.490  0.5433  0.3905 -0.1078
  561MOL0     C75602  10.913   1.053   4.558  0.3229  0.0756 -0.5930
  561MOL0     O75603  10.927   1.069   4.691 -0.1432 -0.4426  0.4321
  561MOL0     C75604  10.822   1.116   4.767 -0.2436  0.4094  0.4163
  561MOL0     C75605  10.737   1.026   4.838 -0.2543 -0.2299  0.7296
  561MOL0     C75606  10.638   1.062   4.923  0.0450 -0.6065 -0.9219
  561MOL0     C75607  10.625   1.203   4.942  1.0922 -0.1070 -0.6278
  561MOL0     O75608  10.529   1.254   5.026 -0.3796  0.4878 -0.0442
  561MOL0     C75609  10.481   1.174   5.134 -0.4864 -0.5737 -0.4765
  561MOL0     C75610  10.488   1.260   5.262  0.4021  0.8209  0.7341
  561MOL0     C75611  10.417   1.185   5.372  0.2492  0.1267  0.0190
  561MOL0     C75612  10.434   1.257   5.509  0.4514  0.2906  0.2163
  561MOL0     C75613  10.359   1.169   5.610 -0.6096  0.4487 -0.2142
  561MOL0     C75614  10.206   1.179   5.611  0.0410  0.1320  0.5707
  561MOL0     C75615  10.159   1.323   5.627 -0.8190 -1.1996  0.2714
  561MOL0     C75616  10.219   1.413   5.740 -0.3134  0.5048 -0.5498
  561MOL0     N75617  10.224   1.348   5.872  0.8426 -0.1918 -0.3484
  561MOL0     C75618  10.107   1.311   5.935 -0.0542 -0.0359 -0.6995
  561MOL0     C75619  10.149   1.238   6.038  0.5704  0.8488 -0.4510
  561MOL0     C75620  10.059   1.178   6.147 -0.1500  0.1786  0.7109
  561MOL0     C75621   9.977   1.290   6.212  0.3318 -0.1215 -0.2628
  561MOL0     C75622   9.878   1.224   6.319  0.1514  0.6547  0.1821
  561MOL0     C75623   9.732   1.252   6.272 -1.3095 -0.0849  0.8536
  561MOL0     O75624   9.632   1.172   6.334  0.2927  0.3785 -0.2339
  561MOL0     C75625   9.501   1.182   6.307 -0.4962  0.7036 -0.5848
  561MOL0     C75626   9.430   1.086   6.378 -0.6681 -0.0544  0.0199
  561MOL0     C75627   9.289   1.081   6.382  0.2360  0.4707  0.3759
  561MOL0     C75628   9.238   0.974   6.474 -0.8327  0.4404  0.2447
  561MOL0     C75629   9.222   1.182   6.312  0.0722 -0.2331 -0.2430
  561MOL0     C75630   9.069   1.197   6.316  0.3675 -0.1006 -0.7102
  561MOL0     O75631   9.016   1.309   6.262  0.2439  0.3362 -0.1474
  561MOL0     C75632   8.884   1.331   6.237  1.0527  0.6601 -0.4249
  561MOL0     C75633   8.790   1.227   6.229  0.1988  0.2784  0.5800
  561MOL0     C75634   8.659   1.255   6.197  0.1128  0.0583  0.6077
  561MOL0     C75635   8.617   1.388   6.190  0.8436  0.5339  0.3687
  561MOL0     O75636   8.486   1.418   6.153 -0.1398 -0.4001 -0.5986
  561MOL0     C75637   8.436   1.555   6.171  0.1972  0.3288 -0.4276
  561MOL0     C75638   8.282   1.549   6.165 -0.2104 -0.6162 -0.6035
  561MOL0     C75639   8.200   1.680   6.154  0.3161 -0.6003  0.5169
  561MOL0     C75640   8.046   1.660   6.143  0.8698  0.5127  0.1768
  561MOL0     C75641   7.976   1.799   6.147  0.2672  0.0550 -0.1563
  561MOL0     C75642   7.825   1.791   6.119  0.3135  0.5186  0.8514
  561MOL0     C75643   7.788   1.745   5.972  0.9801  0.4618  0.2753
  561MOL0     C75644   7.636   1.749   5.973 -0.3079  0.0697  0.1213
  561MOL0    Cl75645   7.544   1.695   5.822  0.5175 -0.4039 -0.4647
  561MOL0     C75646   8.710   1.485   6.201 -0.5769  0.3300  0.8939
  561MOL0     C75647   8.842   1.465   6.220  0.7090 -0.1104 -0.4192
  561MOL0     O75648   9.008   1.116   6.385 -0.9196  0.0158 -0.3110
  561MOL0     C75649   9.288   1.279   6.241 -0.1095  0.4598  0.0497
  561MOL0     C75650   9.432   1.285   6.242 -0.0903  0.1791  0.0447
  561MOL0     N75651  10.282   1.221   6.040 -0.3190  0.7933 -0.9809
  561MOL0     N75652  10.329   1.287   5.933  0.1937 -0.3873 -0.0758
  561MOL0     C75653  10.685   1.298   4.865  0.8613  1.1893 -0.6054
  561MOL0     C75654  10.792   1.251   4.784 -0.0485 -0.5300  0.1764
  561MOL0     C75655  11.023   0.982   4.490  0.2661 -0.3972  0.1880
  561MOL0     C75656  11.125   0.914   4.558 -0.2591  0.1099 -0.1703
  561MOL0     C75657  11.230   0.851   4.489 -0.6525 -0.0621 -0.3173
  561MOL0     C75658  11.240   0.865   4.347 -0.1757 -0.4860 -0.2021
  561MOL0     O75659  11.339   0.814   4.269 -0.1450  0.1133  0.0521
  561MOL0     C75660  11.464   0.779   4.339 -0.0188  0.4151 -0.4383
  561MOL0     C75661  11.595   0.772   4.255 -0.3701  0.5090 -0.3538
  561MOL0     C75662  11.715   0.748   4.358 -0.2033  0.1885 -0.1263
  561MOL0     C75663  11.857   0.764   4.288  0.1729 -0.4091  0.0497
  561MOL0     C75664  11.893   0.907   4.266  0.0121 -0.5556  0.6863
  561MOL0     C75665  11.909   1.024   4.249  0.2106 -0.2755 -1.4104
  561MOL0     C75666  11.130   0.927   4.283 -0.3708 -0.0296 -0.0043
  561MOL0     C75667  11.032   0.991   4.351  0.3235 -0.1051 -0.8077
  561MOL0     H75668  10.755   0.919   4.832  0.8551 -0.0366  0.3194
  561MOL0     H75669  10.580   0.979   4.961  1.6425 -1.6002 -0.5852
  561MOL0     H75670  10.377   1.143   5.120 -0.7820 -0.0657  0.4996
  561MOL0     H75671  10.553   1.097   5.161  1.4882  0.6335 -2.0643
  561MOL0     H75672  10.593   1.282   5.285  0.8142 -1.3892  1.1808
  561MOL0     H75673  10.435   1.352   5.238  1.3028  0.8917 -1.2041
  561MOL0     H75674  10.311   1.189   5.348  0.1191  1.2580  0.6977
  561MOL0     H75675  10.457   1.083   5.379  1.3317  0.5688  0.6914
  561MOL0     H75676  10.539   1.266   5.539  0.9646 -1.1375 -1.0397
  561MOL0     H75677  10.402   1.362   5.512  1.9379  0.7869  3.8642
  561MOL0     H75678  10.381   1.062   5.601 -0.6920 -0.4299  5.6507
  561MOL0     H75679  10.395   1.196   5.710  1.1737 -0.4206 -0.5850
  561MOL0     H75680  10.168   1.130   5.522  2.6384 -0.6164 -0.2206
  561MOL0     H75681  10.175   1.110   5.691  2.8358 -0.4164  1.3049
  561MOL0     H75682  10.179   1.367   5.529 -1.7291  2.0522  1.4227
  561MOL0     H75683  10.050   1.319   5.630 -1.2074  2.5540 -1.9866
  561MOL0     H75684  10.153   1.500   5.742 -1.0462  0.1444  4.2138
  561MOL0     H75685  10.321   1.449   5.720 -0.3066 -0.1298 -1.7162
  561MOL0     H75686  10.006   1.343   5.909  1.1755  4.7926 -0.5340
  561MOL0     H75687   9.996   1.105   6.096 -0.8779  0.9268  0.5249
  561MOL0     H75688  10.125   1.121   6.212 -1.9213 -2.8862  0.0187
  561MOL0     H75689   9.922   1.348   6.137  3.6586  0.7781 -2.2201
  561MOL0     H75690  10.038   1.365   6.264 -0.1004  0.0310  0.0287
  561MOL0     H75691   9.899   1.265   6.418 -1.8082 -0.9395  1.3194
  561MOL0     H75692   9.895   1.117   6.333  1.6295  0.7985 -0.2396
  561MOL0     H75693   9.730   1.241   6.163  1.3858  0.5819  0.6828
  561MOL0     H75694   9.720   1.354   6.311 -1.6083 -0.2331  1.1596
  561MOL0     H75695   9.495   1.016   6.430 -1.3071  0.5171  1.6344
  561MOL0     H75696   9.151   0.924   6.430 -0.5478 -0.4531  0.6919
  561MOL0     H75697   9.307   0.894   6.499  0.0874  0.8013 -1.0482
  561MOL0     H75698   9.200   1.019   6.566  2.0337  5.3360 -0.6273
  561MOL0     H75699   8.828   1.126   6.217  2.1024  1.1638 -1.4739
  561MOL0     H75700   8.582   1.183   6.169 -2.5158  2.7654  0.2855
  561MOL0     H75701   8.463   1.594   6.269 -0.1558  3.1867 -1.3619
  561MOL0     H75702   8.453   1.622   6.086 -0.7693 -2.4265 -2.9546
  561MOL0     H75703   8.250   1.476   6.090  2.4337 -2.1970 -0.2843
  561MOL0     H75704   8.254   1.504   6.261  0.6768  1.3360  0.6402
  561MOL0     H75705   8.222   1.739   6.065 -1.4950 -0.9337 -0.2057
  561MOL0     H75706   8.210   1.739   6.246 -2.3225  2.9549 -1.2015
  561MOL0     H75707   8.023   1.613   6.047  2.5365 -0.3845  0.1836
  561MOL0     H75708   8.011   1.609   6.234 -1.8404  2.7500  0.5414
  561MOL0     H75709   8.026   1.858   6.070 -1.0217  0.8494 -0.4112
  561MOL0     H75710   7.981   1.849   6.245 -0.8483 -0.1443  0.0190
  561MOL0     H75711   7.791   1.721   6.195  5.2473 -0.3116  2.6240
  561MOL0     H75712   7.787   1.891   6.140 -0.6898 -0.1486  2.4342
  561MOL0     H75713   7.828   1.645   5.955  3.7037  1.5880 -0.6740
  561MOL0     H75714   7.830   1.819   5.902 -0.2682  2.3297  1.4012
  561MOL0     H75715   7.613   1.851   6.006  2.2622  1.8862 -3.0927
  561MOL0     H75716   7.599   1.680   6.049 -0.0946 -0.0856  0.0849
  561MOL0     H75717   8.683   1.588   6.178 -2.3414 -0.4787 -0.9660
  561MOL0     H75718   8.909   1.550   6.221 -0.0840  0.5431  1.4461
  561MOL0     H75719   9.241   1.360   6.187  1.7254  1.7077  0.2072
  561MOL0     H75720   9.490   1.365   6.197  0.1119  1.9607  3.1391
  561MOL0     H75721  10.635   1.394   4.859 -2.9578 -0.7116 -2.3527
  561MOL0     H75722  10.845   1.330   4.732 -0.0007  1.9037  3.5485
  561MOL0     H75723  11.112   0.877   4.659  2.9732 -2.0245 -0.3940
  561MOL0     H75724  11.291   0.779   4.542  0.0593 -1.1432 -2.4686
  561MOL0     H75725  11.479   0.840   4.429 -1.8656 -0.3947  0.4825
  561MOL0     H75726  11.441   0.680   4.380  2.3430 -0.0779 -0.1569
  561MOL0     H75727  11.613   0.861   4.194 -0.9692  0.9760  0.1411
  561MOL0     H75728  11.604   0.688   4.185  3.5808 -1.4075  2.0723
  561MOL0     H75729  11.713   0.643   4.390  2.4483 -0.1685 -0.8943
  561MOL0     H75730  11.702   0.820   4.440 -2.0273  0.6388 -0.7618
  561MOL0     H75731  11.864   0.702   4.199  0.1202 -0.0117 -0.2308
  561MOL0     H75732  11.937   0.727   4.353 -0.6103 -5.0130 -1.2432
  561MOL0     H75733  11.916   1.131   4.244  0.9313  0.2300  4.1863
  561MOL0     H75734  11.134   0.950   4.177  0.8657 -0.5801 -0.1006
  561MOL0     H75735  10.963   1.050   4.292  1.5138  2.0061 -0.2253
  562MOL0     O75736   4.763   2.231   3.113 -0.1116 -0.2657 -0.4498
  562MOL0     C75737   4.838   2.220   3.015  0.7054 -0.3300 -0.6929
  562MOL0     O75738   4.804   2.160   2.896 -0.4215 -0.1325  0.3246
  562MOL0     C75739   4.676   2.125   2.865 -0.4391  0.1831 -0.0816
  562MOL0     C75740   4.602   2.040   2.949  0.1656  0.2428  0.4399
  562MOL0     C75741   4.480   1.984   2.906  0.2062  0.8625  0.9624
  562MOL0     C75742   4.432   2.032   2.777 -0.0463  0.8253 -0.6491
  562MOL0     O75743   4.312   1.967   2.743  0.3019 -1.0684 -0.5724
  562MOL0     C75744   4.265   1.993   2.608  0.1241 -0.0470 -0.9450
  562MOL0     C75745   4.129   1.929   2.599 -0.4861  0.1946 -0.5406
  562MOL0     C75746   4.087   1.922   2.453 -0.5145 -0.2072  0.2193
  562MOL0     C75747   3.947   1.872   2.452 -0.2283  0.1352  1.3964
  562MOL0     C75748   3.883   1.889   2.309  0.2025  0.2219 -0.3523
  562MOL0     C75749   3.771   1.778   2.268  0.1228 -0.7378  0.6310
  562MOL0     C75750   3.682   1.843   2.162  0.1100  0.5362 -0.1507
  562MOL0     C75751   3.574   1.757   2.103 -1.0470 -1.3076  0.8218
  562MOL0     N75752   3.456   1.749   2.179  0.3693  0.0261 -0.0800
  562MOL0     C75753   3.355   1.847   2.168  0.0500 -0.2573 -0.3473
  562MOL0     C75754   3.249   1.790   2.225  0.7108  0.1676  0.8025
  562MOL0     C75755   3.117   1.866   2.251  0.7533  0.5570 -0.3715
  562MOL0     C75756   2.994   1.775   2.232 -0.1757 -0.4174  0.6925
  562MOL0     C75757   2.901   1.765   2.358 -0.8549  0.5679  0.3595
  562MOL0     C75758   2.780   1.672   2.314 -0.5543 -0.7189 -0.5114
  562MOL0     O75759   2.807   1.533   2.331 -0.3959  0.2498 -0.0220
  562MOL0     C75760   2.710   1.453   2.287 -0.2176 -0.6712  0.9076
  562MOL0     C75761   2.736   1.319   2.259 -0.1231  0.2828  0.6646
  562MOL0     C75762   2.634   1.229   2.214 -0.6163 -0.5915  0.4974
  562MOL0     C75763   2.685   1.090   2.198  0.4262 -0.0581 -0.1651
  562MOL0     C75764   2.505   1.275   2.179 -0.1209 -0.3152 -0.0033
  562MOL0     C75765   2.383   1.198   2.133 -1.0657  1.1474 -0.6947
  562MOL0     O75766   2.270   1.261   2.091  0.5627 -0.0654  0.1670
  562MOL0     C75767   2.156   1.185   2.070 -0.5480  0.4796 -0.3065
  562MOL0     C75768   2.102   1.102   2.169  0.0869 -0.4711  0.0664
  562MOL0     C75769   1.983   1.023   2.135  0.2577  0.3978  0.7327
  562MOL0     C75770   1.918   1.033   2.014 -0.3304 -1.4132 -0.0178
  562MOL0     O75771   1.798   0.966   1.980  0.0952 -1.0694 -0.6671
  562MOL0     C75772   1.692   0.995   2.076  0.1979 -0.3513  0.2420
  562MOL0     C75773   1.569   1.041   2.011 -0.5772 -0.9859 -0.3945
  562MOL0     C75774   1.469   1.040   2.126  0.2583 -0.3194 -0.1170
  562MOL0     C75775   1.349   1.117   2.058  0.2050 -0.0413  0.1397
  562MOL0     C75776   1.230   1.131   2.153 -0.8003  0.0425 -0.5099
  562MOL0     C75777   1.129   1.235   2.098 -0.2758  0.3327  0.0805
  562MOL0     C75778   1.037   1.287   2.200 -0.2272  0.0829  0.2137
  562MOL0     C75779   0.946   1.179   2.262 -0.4448  0.6220 -0.9559
  562MOL0    Cl75780   0.766   1.220   2.262 -0.4018  0.0827  0.0547
  562MOL0     C75781   1.972   1.118   1.922 -0.1827  0.6862 -0.3954
  562MOL0     C75782   2.087   1.191   1.947  0.0648 -0.2026 -0.7268
  562MOL0     O75783   2.390   1.081   2.166 -0.3330 -0.3402 -0.0755
  562MOL0     C75784   2.480   1.410   2.198 -0.5469 -0.7204 -0.4011
  562MOL0     C75785   2.582   1.494   2.256  0.7508 -0.0374 -0.7598
  562MOL0     N75786   3.288   1.669   2.279  0.2847  0.2247 -0.1115
  562MOL0     N75787   3.407   1.646   2.247 -0.6434  0.5549  0.4707
  562MOL0     C75788   4.501   2.117   2.702  0.2961  0.0554  0.2521
  562MOL0     C75789   4.615   2.173   2.747 -1.3357 -0.7979 -0.6956
  562MOL0     C75790   4.972   2.285   3.028  0.1371  0.2287 -0.5293
  562MOL0     C75791   5.072   2.288   2.927  0.7076 -0.3975 -0.0496
  562MOL0     C75792   5.192   2.350   2.950 -0.0549  0.2565 -0.1322
  562MOL0     C75793   5.217   2.431   3.065  0.6904 -0.9314  0.3582
  562MOL0     O75794   5.326   2.509   3.076  0.0577  0.5961 -0.0615
  562MOL0     C75795   5.438   2.487   2.975 -0.2062 -0.0397  0.5506
  562MOL0     C75796   5.562   2.569   3.024 -0.2430 -0.2323  0.0772
  562MOL0     C75797   5.695   2.517   2.973  0.3308  1.0203 -0.1938
  562MOL0     C75798   5.770   2.634   2.901 -0.1636  0.3629 -0.5752
  562MOL0     C75799   5.896   2.581   2.860 -0.0065 -0.8736  0.4934
  562MOL0     C75800   6.010   2.557   2.824  0.5181 -0.6119  0.1795
  562MOL0     C75801   5.122   2.426   3.169  0.5668  0.4207  0.8374
  562MOL0     C75802   5.012   2.345   3.150  0.0629  0.9574  0.4382
  562MOL0     H75803   4.645   2.006   3.042  2.0071  1.4789  0.1004
  562MOL0     H75804   4.414   1.915   2.958 -1.7339  2.7465  1.1485
  562MOL0     H75805   4.249   2.100   2.599  0.0244 -0.0274 -0.5298
  562MOL0     H75806   4.335   1.949   2.536  1.0844  0.4397 -0.3263
  562MOL0     H75807   4.135   1.823   2.626 -2.0802 -0.8688 -3.7311
  562MOL0     H75808   4.050   1.979   2.656 -1.5894  0.0477 -1.8731
  562MOL0     H75809   4.103   2.022   2.412 -2.4008  1.3960  3.0246
  562MOL0     H75810   4.141   1.846   2.396  1.5283  2.0457 -1.0347
  562MOL0     H75811   3.948   1.771   2.493  3.6570 -0.5452  0.0924
  562MOL0     H75812   3.884   1.935   2.515 -1.6186  2.3726 -1.9211
  562MOL0     H75813   3.831   1.985   2.309 -2.4935 -1.1336  0.3838
  562MOL0     H75814   3.965   1.895   2.236  1.3176 -2.4310  0.5635
  562MOL0     H75815   3.817   1.683   2.239  0.7512 -1.1480  2.7628
  562MOL0     H75816   3.721   1.752   2.361 -1.1941  2.1646  0.8437
  562MOL0     H75817   3.641   1.936   2.201  0.9896  0.3577  1.2509
  562MOL0     H75818   3.752   1.868   2.082  2.2936  2.3654  2.1986
  562MOL0     H75819   3.609   1.654   2.092 -0.7853 -1.2755  1.3280
  562MOL0     H75820   3.551   1.796   2.003  0.5738  0.3139  1.0036
  562MOL0     H75821   3.355   1.950   2.135 -1.4617 -0.2829 -0.4982
  562MOL0     H75822   3.120   1.883   2.359  0.1429  0.0127 -0.2600
  562MOL0     H75823   3.093   1.957   2.195 -2.1954  1.5141  2.1785
  562MOL0     H75824   3.038   1.681   2.199  0.5892  0.1235  0.1187
  562MOL0     H75825   2.936   1.819   2.150  0.3413  0.8097  0.9591
  562MOL0     H75826   2.872   1.862   2.399 -0.8423  1.2474 -1.1699
  562MOL0     H75827   2.956   1.713   2.436  2.3049  2.5654 -0.3670
  562MOL0     H75828   2.758   1.688   2.208  2.5005 -2.3844 -1.5324
  562MOL0     H75829   2.698   1.695   2.382 -0.4667 -1.1766 -0.2423
  562MOL0     H75830   2.834   1.283   2.285 -0.8947 -1.2455  1.6099
  562MOL0     H75831   2.694   1.062   2.093 -4.2479  1.0153 -1.1103
  562MOL0     H75832   2.785   1.089   2.242 -1.0985  0.8888  3.7752
  562MOL0     H75833   2.622   1.033   2.267 -0.7661  0.1815 -1.0091
  562MOL0     H75834   2.128   1.090   2.274 -0.7848  0.9705  0.4772
  562MOL0     H75835   1.947   0.954   2.211  1.1462 -0.8667  0.0505
  562MOL0     H75836   1.683   0.898   2.126 -0.3863 -1.1742 -1.3537
  562MOL0     H75837   1.721   1.076   2.143  0.3783 -0.4775  0.3159
  562MOL0     H75838   1.586   1.144   1.976  0.0100 -1.3137 -1.0813
  562MOL0     H75839   1.534   0.983   1.925 -0.8079 -0.8145 -0.4190
  562MOL0     H75840   1.512   1.083   2.216  3.7234 -1.5692 -0.9893
  562MOL0     H75841   1.445   0.934   2.142 -1.5200  0.0081 -0.3870
  562MOL0     H75842   1.396   1.214   2.037 -0.3652 -0.1856 -2.0621
  562MOL0     H75843   1.305   1.062   1.975 -0.5503 -1.1347  1.2387
  562MOL0     H75844   1.268   1.167   2.249 -0.7907 -0.9129 -0.1429
  562MOL0     H75845   1.182   1.035   2.176 -0.5143  0.0482  0.1356
  562MOL0     H75846   1.183   1.322   2.059 -1.5359  0.6994 -0.9121
  562MOL0     H75847   1.075   1.190   2.015 -1.6817 -0.7710  1.5494
  562MOL0     H75848   0.976   1.360   2.146  1.8382 -0.8622 -3.7981
  562MOL0     H75849   1.094   1.336   2.279 -0.4060  0.1111  0.3234
  562MOL0     H75850   0.963   1.164   2.369  0.1452  0.3625 -1.0807
  562MOL0     H75851   0.961   1.087   2.204  2.7338 -0.2428  0.9507
  562MOL0     H75852   1.928   1.122   1.823 -0.8553 -2.6213 -0.3505
  562MOL0     H75853   2.116   1.276   1.887 -0.8291  0.0596 -0.8155
  562MOL0     H75854   2.393   1.465   2.163  0.4617  0.8476 -0.5602
  562MOL0     H75855   2.555   1.597   2.280  1.1114 -0.1217  0.0167
  562MOL0     H75856   4.468   2.159   2.607  2.1469  3.0174  0.7965
  562MOL0     H75857   4.679   2.231   2.682 -0.4749 -0.3591  0.5149
  562MOL0     H75858   5.051   2.246   2.829  0.4970  1.2320 -0.7425
  562MOL0     H75859   5.255   2.354   2.861  0.2737 -3.7098 -0.2452
  562MOL0     H75860   5.467   2.382   2.968  0.0668  0.0355  0.5414
  562MOL0     H75861   5.400   2.523   2.879 -0.7885  0.0682  0.8166
  562MOL0     H75862   5.563   2.570   3.133 -0.8264 -1.1747  0.1104
  562MOL0     H75863   5.558   2.674   2.994  0.2949 -0.2487 -0.0536
  562MOL0     H75864   5.687   2.427   2.911 -0.1901 -0.7474  2.2966
  562MOL0     H75865   5.750   2.480   3.060 -0.4585 -1.9206 -0.8245
  562MOL0     H75866   5.784   2.705   2.983 -3.9455  0.0097  0.5739
  562MOL0     H75867   5.718   2.685   2.820  0.4263  1.7992 -0.0807
  562MOL0     H75868   6.107   2.524   2.792  1.1759  0.2962  1.1680
  562MOL0     H75869   5.141   2.478   3.263  0.7146 -3.0592  2.9131
  562MOL0     H75870   4.937   2.348   3.228  0.3180  2.5658  0.6703
  563MOL0     O75871   2.465   6.212   3.918 -0.4828 -1.2633 -0.1603
  563MOL0     C75872   2.513   6.273   3.826 -0.2775  0.0124  0.4754
  563MOL0     O75873   2.442   6.346   3.730 -0.1360 -0.5315 -0.2273
  563MOL0     C75874   2.309   6.374   3.734 -0.9192 -1.2135  0.5101
  563MOL0     C75875   2.252   6.503   3.735  0.7806  0.4290 -1.1763
  563MOL0     C75876   2.114   6.524   3.740 -0.6260 -0.2074 -0.0649
  563MOL0     C75877   2.029   6.415   3.737 -0.6343  0.4477  0.2319
  563MOL0     O75878   1.902   6.440   3.717  0.0812  0.0965  0.0776
  563MOL0     C75879   1.810   6.343   3.785 -0.4962 -0.2380 -1.0465
  563MOL0     C75880   1.676   6.414   3.782 -0.0969 -0.8079 -0.3587
  563MOL0     C75881   1.682   6.532   3.886 -0.5958 -0.2032  0.0701
  563MOL0     C75882   1.551   6.600   3.882  0.9846  0.4646 -0.5661
  563MOL0     C75883   1.528   6.681   4.007  0.6073 -0.0411 -0.4179
  563MOL0     C75884   1.412   6.787   4.012 -0.4982 -0.9906  0.5640
  563MOL0     C75885   1.388   6.830   4.163 -0.7318  0.6352  0.2612
  563MOL0     C75886   1.328   6.710   4.246  0.5318 -0.6972 -0.1747
  563MOL0     N75887   1.202   6.669   4.187 -0.2837  0.0738 -0.3607
  563MOL0     C75888   1.105   6.757   4.148  0.2385  0.3120  0.4593
  563MOL0     C75889   1.006   6.681   4.097 -0.0923 -0.9397  0.8550
  563MOL0     C75890   0.860   6.724   4.071  0.5291 -0.7225  0.2199
  563MOL0     C75891   0.837   6.845   3.979 -0.7906  0.3672 -0.0409
  563MOL0     C75892   0.853   6.786   3.832 -0.7394  0.6142  0.8520
  563MOL0     C75893   0.835   6.901   3.733  0.4104  0.4297  0.2954
  563MOL0     O75894   0.914   7.022   3.752 -0.6876 -0.5881 -0.3424
  563MOL0     C75895   0.907   7.116   3.659 -0.0104 -0.9536  0.2997
  563MOL0     C75896   0.836   7.231   3.686  0.8000 -0.3930 -0.3372
  563MOL0     C75897   0.796   7.325   3.580  0.4674 -0.1143  0.3930
  563MOL0     C75898   0.693   7.429   3.602 -0.1420 -0.5710  0.5543
  563MOL0     C75899   0.868   7.319   3.456 -0.7146  0.5208 -0.3168
  563MOL0     C75900   0.843   7.417   3.345 -0.9650 -0.3438  0.2715
  563MOL0     O75901   0.813   7.370   3.221  0.3238 -0.0457  0.0430
  563MOL0     C75902   0.774   7.468   3.127 -0.6761 -0.0389  0.6858
  563MOL0     C75903   0.644   7.523   3.124 -0.5116 -0.3491 -0.8866
  563MOL0     C75904   0.597   7.615   3.017  0.4056  0.0401 -0.5451
  563MOL0     C75905   0.685   7.636   2.904  0.3984  0.0858 -0.5094
  563MOL0     O75906   0.631   7.707   2.796  0.0706 -0.3316 -0.3547
  563MOL0     C75907   0.677   7.662   2.669 -0.4819 -0.0190  0.6169
  563MOL0     C75908   0.602   7.713   2.550  1.0040  0.0498  0.5612
  563MOL0     C75909   0.457   7.669   2.556  0.2916 -0.3693 -1.0077
  563MOL0     C75910   0.389   7.691   2.426 -0.8382 -0.2398 -0.5919
  563MOL0     C75911   0.236   7.636   2.419 -0.0926 -0.6714 -1.0180
  563MOL0     C75912   0.182   7.604   2.281  0.1951 -0.6415  0.0686
  563MOL0     C75913   0.198   7.734   2.200 -0.1318  0.3654 -0.0244
  563MOL0     C75914   0.145   7.746   2.058  0.9969 -0.1371  0.3984
  563MOL0    Cl75915  -0.011   7.672   2.035 -0.3075 -0.8574  0.4250
  563MOL0     C75916   0.819   7.584   2.907  0.0075  0.2358  0.2399
  563MOL0     C75917   0.861   7.509   3.019 -0.6361 -0.4612 -0.4980
  563MOL0     O75918   0.858   7.538   3.363 -0.1313 -0.2624  0.2267
  563MOL0     C75919   0.948   7.207   3.436  0.1637 -0.2590 -0.4121
  563MOL0     C75920   0.959   7.100   3.532 -0.9729 -0.6036 -0.4083
  563MOL0     N75921   1.056   6.548   4.089  0.9723  0.6636  0.4604
  563MOL0     N75922   1.173   6.547   4.138  0.3368  0.1232 -0.0265
  563MOL0     C75923   2.084   6.291   3.736 -0.3490  0.8049  0.5730
  563MOL0     C75924   2.224   6.271   3.729  0.6783  0.5094 -0.5042
  563MOL0     C75925   2.651   6.288   3.816 -0.2633  0.5508  0.7783
  563MOL0     C75926   2.741   6.201   3.873  0.2847  0.2938 -0.7775
  563MOL0     C75927   2.886   6.223   3.875  0.4065 -0.6974  0.2176
  563MOL0     C75928   2.940   6.333   3.808 -0.2551 -0.1101 -0.6408
  563MOL0     O75929   3.074   6.358   3.811  0.0941 -0.2561  0.1420
  563MOL0     C75930   3.114   6.493   3.847  0.4668  0.8290  0.1072
  563MOL0     C75931   3.269   6.525   3.819  0.5420 -0.6226 -0.5937
  563MOL0     C75932   3.356   6.451   3.917  0.1208 -0.1036 -0.7478
  563MOL0     C75933   3.473   6.529   3.975  0.4947 -0.3786  0.2729
  563MOL0     C75934   3.461   6.646   4.059  0.3105 -0.1142 -0.5201
  563MOL0     C75935   3.450   6.739   4.138  0.1186 -0.4611  0.1030
  563MOL0     C75936   2.854   6.425   3.748  0.1689  0.6273  0.6830
  563MOL0     C75937   2.712   6.404   3.752 -0.6768 -0.8568  0.8986
  563MOL0     H75938   2.309   6.595   3.751 -0.7588  1.0458  1.3803
  563MOL0     H75939   2.085   6.628   3.756  1.2505  0.3373  0.0489
  563MOL0     H75940   1.804   6.247   3.732 -0.4960 -1.3200  0.8530
  563MOL0     H75941   1.835   6.312   3.886  0.6613 -0.5500 -1.4192
  563MOL0     H75942   1.645   6.457   3.686  0.4591  2.5814  0.8726
  563MOL0     H75943   1.606   6.341   3.823  1.3729 -1.6558  0.7503
  563MOL0     H75944   1.707   6.492   3.985 -0.1404  1.0673  0.4872
  563MOL0     H75945   1.760   6.600   3.851  1.1148 -2.3121 -0.4939
  563MOL0     H75946   1.550   6.666   3.795 -1.0535 -0.4482 -1.2845
  563MOL0     H75947   1.468   6.534   3.856  0.1225  1.5879 -0.7144
  563MOL0     H75948   1.509   6.602   4.081 -0.2688  1.3861  0.9475
  563MOL0     H75949   1.619   6.738   4.025  2.1103 -2.3838 -0.1564
  563MOL0     H75950   1.428   6.867   3.939 -0.4980 -2.2486 -0.8632
  563MOL0     H75951   1.320   6.744   3.971 -0.6112 -0.5071  0.3034
  563MOL0     H75952   1.482   6.858   4.212 -0.7302  0.5923  0.2822
  563MOL0     H75953   1.322   6.917   4.156  1.1162  2.5874  3.8869
  563MOL0     H75954   1.317   6.738   4.352 -0.1589  2.9435 -1.0608
  563MOL0     H75955   1.396   6.625   4.238  2.7156  1.1209 -3.4497
  563MOL0     H75956   1.100   6.864   4.169  0.9600  0.3028  0.6871
  563MOL0     H75957   0.811   6.636   4.026 -2.3467 -0.3607  2.3804
  563MOL0     H75958   0.807   6.727   4.166  2.0592 -1.8288  1.1577
  563MOL0     H75959   0.912   6.922   4.000  0.2018 -1.1052  2.3152
  563MOL0     H75960   0.743   6.900   3.976  0.5317  2.7275 -0.2682
  563MOL0     H75961   0.775   6.711   3.810 -1.0853  1.6421 -1.8304
  563MOL0     H75962   0.955   6.751   3.816 -1.2269 -0.2767 -0.5434
  563MOL0     H75963   0.728   6.922   3.735 -0.0609 -1.7994  0.5582
  563MOL0     H75964   0.856   6.867   3.631  0.4454  0.4723  0.2880
  563MOL0     H75965   0.789   7.237   3.784 -0.4888  0.1856 -0.9634
  563MOL0     H75966   0.605   7.390   3.655 -1.0595  0.6980  0.0142
  563MOL0     H75967   0.742   7.516   3.645  3.3929 -2.1803  0.1323
  563MOL0     H75968   0.651   7.457   3.505  1.2745 -2.2514 -0.6219
  563MOL0     H75969   0.580   7.509   3.210 -0.8594  0.3526 -1.0201
  563MOL0     H75970   0.497   7.655   3.012 -1.2828 -3.8835 -2.6295
  563MOL0     H75971   0.783   7.675   2.650 -0.8000 -0.5621 -1.8647
  563MOL0     H75972   0.666   7.554   2.656 -1.0313  0.1638 -0.5348
  563MOL0     H75973   0.607   7.822   2.537 -1.7677  0.0310 -1.4123
  563MOL0     H75974   0.647   7.677   2.457 -0.7004  2.7081 -1.4427
  563MOL0     H75975   0.401   7.722   2.634 -1.1336 -0.3791 -1.9747
  563MOL0     H75976   0.452   7.565   2.591 -1.8063 -0.0089 -0.1010
  563MOL0     H75977   0.385   7.798   2.406  1.5391  0.1838  0.8849
  563MOL0     H75978   0.446   7.648   2.343 -1.6039  0.7686 -1.6830
  563MOL0     H75979   0.161   7.704   2.461  0.7522  0.1813 -0.8478
  563MOL0     H75980   0.233   7.544   2.477  1.8947  1.0989  2.1526
  563MOL0     H75981   0.234   7.522   2.231  2.0620 -0.3813  1.4758
  563MOL0     H75982   0.076   7.582   2.291 -0.3822  2.4552  2.0068
  563MOL0     H75983   0.306   7.753   2.195 -0.2536  0.6810 -2.8135
  563MOL0     H75984   0.142   7.813   2.250  0.3002  0.3955  0.4190
  563MOL0     H75985   0.211   7.705   1.980 -1.7540 -1.5708 -1.3305
  563MOL0     H75986   0.134   7.851   2.032  0.4731 -0.1834  0.4353
  563MOL0     H75987   0.895   7.614   2.836  0.8510 -0.6839  0.7407
  563MOL0     H75988   0.965   7.481   3.019 -0.4075  0.2386 -2.5726
  563MOL0     H75989   1.006   7.191   3.346 -1.5464 -1.9642 -1.2976
  563MOL0     H75990   1.022   7.012   3.521  2.0697  1.4328 -0.5400
  563MOL0     H75991   2.028   6.200   3.716  0.1445  0.5011  0.5474
  563MOL0     H75992   2.251   6.167   3.724 -2.6725 -0.4967 -0.4958
  563MOL0     H75993   2.710   6.104   3.909 -1.8267  0.1649 -2.6994
  563MOL0     H75994   2.947   6.148   3.924  1.3888  0.2780  0.5191
  563MOL0     H75995   3.054   6.572   3.801 -0.0786  0.5680  0.3659
  563MOL0     H75996   3.111   6.500   3.956  0.5649  0.1685  0.1594
  563MOL0     H75997   3.289   6.633   3.820 -0.1021 -0.4825  0.9002
  563MOL0     H75998   3.291   6.488   3.719 -1.3116  0.5169 -1.4880
  563MOL0     H75999   3.415   6.374   3.865  0.3160  0.0801 -0.8034
  563MOL0     H76000   3.290   6.409   3.992 -1.7681  1.8536 -1.2083
  563MOL0     H76001   3.540   6.555   3.892 -1.9043  1.2937 -1.2692
  563MOL0     H76002   3.524   6.459   4.041  2.7236  0.8614 -0.0536
  563MOL0     H76003   3.426   6.824   4.199 -0.1806  1.5869 -2.6908
  563MOL0     H76004   2.890   6.507   3.686 -0.6307 -0.0678 -0.7674
  563MOL0     H76005   2.657   6.478   3.694  0.4783 -1.5595 -1.2071
  564MOL0     O76006   3.583   6.856   0.854 -0.7475  0.2337  0.1405
  564MOL0     C76007   3.620   6.827   0.967  0.4528  0.2634 -0.6800
  564MOL0     O76008   3.540   6.767   1.065 -0.2240 -0.6483  0.0713
  564MOL0     C76009   3.408   6.750   1.033 -0.3233 -0.3299 -0.0820
  564MOL0     C76010   3.369   6.634   0.958  0.8550 -0.2488  0.9474
  564MOL0     C76011   3.237   6.621   0.920  0.0490  0.7749  0.2171
  564MOL0     C76012   3.136   6.719   0.955  0.3026  0.3541 -0.1574
  564MOL0     O76013   3.005   6.725   0.911 -0.0236 -0.7146 -0.6247
  564MOL0     C76014   2.938   6.597   0.896 -0.2114  0.6361 -0.1094
  564MOL0     C76015   2.798   6.611   0.847 -0.2068 -0.1180  0.0020
  564MOL0     C76016   2.722   6.492   0.864 -0.0708  1.1184  0.7778
  564MOL0     C76017   2.587   6.502   0.786 -0.5462 -0.6679  0.1210
  564MOL0     C76018   2.516   6.375   0.781  0.3174  0.5748 -0.3777
  564MOL0     C76019   2.475   6.318   0.917  0.3919  0.2021  0.7004
  564MOL0     C76020   2.385   6.187   0.893 -0.5363  1.3535 -0.3677
  564MOL0     C76021   2.437   6.072   0.808  0.3005 -0.7814  0.0054
  564MOL0     N76022   2.568   6.040   0.855 -0.1408  0.4820 -0.1991
  564MOL0     C76023   2.697   6.063   0.795  1.3453 -0.2210 -0.3139
  564MOL0     C76024   2.783   6.020   0.892 -0.1278 -1.0035  0.3129
  564MOL0     C76025   2.935   6.041   0.886 -0.7069  0.7000 -0.5614
  564MOL0     C76026   2.969   6.193   0.923 -0.4451 -0.0407 -0.3569
  564MOL0     C76027   2.994   6.194   1.073 -0.1979 -1.2684 -0.5632
  564MOL0     C76028   2.889   6.203   1.185  0.2900  0.5066  0.6580
  564MOL0     O76029   2.811   6.326   1.187 -0.5451  0.0702  0.6772
  564MOL0     C76030   2.726   6.324   1.290  0.2124 -0.5161 -0.3620
  564MOL0     C76031   2.614   6.237   1.282 -0.4051  0.2683  0.0129
  564MOL0     C76032   2.519   6.239   1.385  1.1611  0.0133  0.0725
  564MOL0     C76033   2.401   6.136   1.387  0.6517  0.5737  0.0611
  564MOL0     C76034   2.532   6.337   1.482 -0.4327  0.0610  0.3287
  564MOL0     C76035   2.426   6.363   1.585 -0.2076 -0.0044 -0.7833
  564MOL0     O76036   2.298   6.366   1.538 -0.0728 -0.4529 -0.7625
  564MOL0     C76037   2.187   6.357   1.628  0.1856 -1.3824  0.1482
  564MOL0     C76038   2.195   6.313   1.760 -0.1987  0.0721  0.0182
  564MOL0     C76039   2.079   6.301   1.836  1.0757 -0.6447  0.4717
  564MOL0     C76040   1.949   6.321   1.788  0.5520 -1.1924  0.4647
  564MOL0     O76041   1.838   6.308   1.868  0.3369 -0.5951 -0.1776
  564MOL0     C76042   1.710   6.355   1.812 -1.1637 -0.7587  0.1568
  564MOL0     C76043   1.597   6.352   1.917 -0.4912 -0.7697 -0.2002
  564MOL0     C76044   1.624   6.423   2.051 -0.3275  0.2830 -0.7517
  564MOL0     C76045   1.498   6.401   2.133  0.6872 -0.2804  1.2126
  564MOL0     C76046   1.526   6.459   2.271 -0.4543 -0.5382 -0.0162
  564MOL0     C76047   1.414   6.462   2.375 -0.3027  0.3906 -0.0586
  564MOL0     C76048   1.290   6.546   2.344  0.6243  0.6596  0.5743
  564MOL0     C76049   1.178   6.472   2.268  0.5483  0.4594  0.1797
  564MOL0    Cl76050   1.026   6.557   2.283  0.0676 -0.3449 -0.0732
  564MOL0     C76051   1.943   6.369   1.652  0.3447 -0.1288  0.0789
  564MOL0     C76052   2.060   6.390   1.575 -0.2679 -0.1762  1.2979
  564MOL0     O76053   2.465   6.404   1.694 -0.0729 -0.6554  0.2400
  564MOL0     C76054   2.639   6.424   1.484 -0.5936 -0.5054 -0.8112
  564MOL0     C76055   2.747   6.404   1.395 -0.3230  0.4730  0.7232
  564MOL0     N76056   2.712   5.968   1.002  0.4170 -0.7646 -0.5936
  564MOL0     N76057   2.589   5.977   0.974 -0.4257  0.4389  0.4075
  564MOL0     C76058   3.184   6.824   1.036 -0.5587  0.6423 -0.4739
  564MOL0     C76059   3.315   6.844   1.071 -0.2338 -0.0157 -0.2745
  564MOL0     C76060   3.756   6.854   1.000 -0.2918 -0.9933  0.8671
  564MOL0     C76061   3.807   6.826   1.127  0.2370 -0.7101  0.1796
  564MOL0     C76062   3.942   6.845   1.154 -0.4301  0.8071 -0.4593
  564MOL0     C76063   4.032   6.886   1.058  0.5995 -1.1038  0.6261
  564MOL0     O76064   4.171   6.885   1.068 -0.7069 -0.3062 -0.3521
  564MOL0     C76065   4.250   6.860   1.187 -0.7853 -0.2787 -0.9239
  564MOL0     C76066   4.295   6.994   1.252 -0.5979  0.1554  0.4640
  564MOL0     C76067   4.189   7.043   1.356  0.7341 -0.3352  1.3685
  564MOL0     C76068   4.093   7.148   1.293 -0.4095 -0.3314 -0.0846
  564MOL0     C76069   3.967   7.164   1.366 -0.2516  0.1690  0.2033
  564MOL0     C76070   3.868   7.158   1.436 -0.1537  0.9957 -0.6618
  564MOL0     C76071   3.981   6.913   0.930 -0.4582  0.1077 -0.3825
  564MOL0     C76072   3.842   6.902   0.900  0.2339 -0.3579 -0.6050
  564MOL0     H76073   3.444   6.578   0.904  0.1582  0.2961 -0.6534
  564MOL0     H76074   3.221   6.555   0.835  2.0284  3.3968 -2.4228
  564MOL0     H76075   2.988   6.524   0.832 -0.0026 -0.2817  1.0671
  564MOL0     H76076   2.938   6.554   0.997  2.1150  2.3288  0.6938
  564MOL0     H76077   2.747   6.695   0.894 -0.8632  0.5371 -1.8103
  564MOL0     H76078   2.809   6.649   0.745  0.9478 -0.4633 -0.0208
  564MOL0     H76079   2.782   6.408   0.828  0.0203  0.5851  2.0941
  564MOL0     H76080   2.704   6.469   0.970 -1.8715 -2.2526 -0.1096
  564MOL0     H76081   2.524   6.569   0.845 -1.9299 -1.8410  0.0144
  564MOL0     H76082   2.618   6.538   0.688  2.7166  1.5802  1.7930
  564MOL0     H76083   2.428   6.380   0.715 -1.5157  0.7861  1.9627
  564MOL0     H76084   2.588   6.302   0.741  0.9758  2.0732 -2.0478
  564MOL0     H76085   2.566   6.290   0.970 -0.0560 -2.0570  0.3862
  564MOL0     H76086   2.421   6.387   0.983  2.6346  2.7057  0.1075
  564MOL0     H76087   2.377   6.137   0.990  1.1438 -0.2504 -1.0090
  564MOL0     H76088   2.286   6.218   0.858 -1.9192 -0.5947  1.5618
  564MOL0     H76089   2.438   6.095   0.701 -2.5753 -0.3172 -0.0022
  564MOL0     H76090   2.382   5.978   0.820  1.0032 -1.1108  0.7463
  564MOL0     H76091   2.710   6.128   0.709  2.1865  4.2380  2.7760
  564MOL0     H76092   2.976   5.964   0.951 -0.0419  1.5012 -0.0049
  564MOL0     H76093   2.975   6.021   0.786  1.6417 -2.2827  0.8262
  564MOL0     H76094   2.885   6.260   0.905 -0.5737 -0.3797 -1.0351
  564MOL0     H76095   3.058   6.225   0.867  0.3040 -1.2112  0.1070
  564MOL0     H76096   3.054   6.282   1.097  0.8503 -1.3118 -2.7836
  564MOL0     H76097   3.057   6.107   1.093  1.9702  0.3659  0.1379
  564MOL0     H76098   2.945   6.190   1.278 -0.4313 -0.6911  0.9323
  564MOL0     H76099   2.820   6.118   1.181 -0.6303  1.2670 -0.1502
  564MOL0     H76100   2.594   6.167   1.201  0.7266 -1.3590  1.0834
  564MOL0     H76101   2.433   6.043   1.340 -0.1258  1.0980 -1.5673
  564MOL0     H76102   2.377   6.112   1.491  2.2994  2.3033  0.8885
  564MOL0     H76103   2.306   6.167   1.342  0.2501  0.6722  0.9469
  564MOL0     H76104   2.287   6.294   1.815  0.8822  1.3135 -1.2612
  564MOL0     H76105   2.096   6.269   1.938  0.7992  2.4476  1.5808
  564MOL0     H76106   1.712   6.456   1.771  0.7972 -2.7922 -5.7550
  564MOL0     H76107   1.683   6.283   1.734  1.1165 -0.8776 -0.5752
  564MOL0     H76108   1.517   6.409   1.870  0.9771  3.8563  2.2615
  564MOL0     H76109   1.555   6.251   1.926 -0.9125 -0.6144 -0.3899
  564MOL0     H76110   1.625   6.529   2.025 -3.4449  1.0185  1.5073
  564MOL0     H76111   1.714   6.408   2.111 -1.0880  2.3047  1.0152
  564MOL0     H76112   1.422   6.455   2.075  0.6218 -2.3084 -0.7314
  564MOL0     H76113   1.481   6.294   2.140  1.7535 -0.6288 -0.6650
  564MOL0     H76114   1.565   6.560   2.260  0.1737 -0.8551 -0.8650
  564MOL0     H76115   1.609   6.398   2.310  0.0908 -1.9286 -2.9907
  564MOL0     H76116   1.383   6.357   2.379  1.1003 -0.5906 -5.6619
  564MOL0     H76117   1.456   6.480   2.474 -1.6358  0.8259  0.4448
  564MOL0     H76118   1.317   6.635   2.286 -1.2772  0.4434 -0.7454
  564MOL0     H76119   1.247   6.570   2.441  0.8490  0.1833  0.7973
  564MOL0     H76120   1.172   6.373   2.315  1.9025  0.0557 -0.4141
  564MOL0     H76121   1.209   6.460   2.163 -0.3378 -0.4241 -0.0029
  564MOL0     H76122   1.850   6.379   1.597 -1.7663  0.2762  3.4434
  564MOL0     H76123   2.051   6.425   1.473  0.2535 -3.6927 -0.1249
  564MOL0     H76124   2.640   6.502   1.559 -1.0862  0.4059 -1.7203
  564MOL0     H76125   2.837   6.463   1.383  1.1821 -2.2654 -3.6788
  564MOL0     H76126   3.125   6.907   1.073  1.0313  1.8348 -0.5100
  564MOL0     H76127   3.349   6.928   1.131  1.4656 -1.2429  0.5585
  564MOL0     H76128   3.735   6.788   1.199 -1.4392  2.0800  0.1307
  564MOL0     H76129   3.969   6.813   1.255  0.7702  1.6402 -0.4939
  564MOL0     H76130   4.207   6.789   1.259 -0.5126 -1.2278 -1.6792
  564MOL0     H76131   4.342   6.818   1.145 -0.0940  0.5939 -0.3267
  564MOL0     H76132   4.324   7.073   1.182  2.8734  0.2158  1.7610
  564MOL0     H76133   4.385   6.962   1.306 -0.4068  0.5533  0.3836
  564MOL0     H76134   4.232   7.083   1.449  4.2595 -3.4789  1.3377
  564MOL0     H76135   4.135   6.956   1.395 -1.6645  0.3104 -0.2831
  564MOL0     H76136   4.067   7.120   1.191 -0.9601 -1.2338  0.2992
  564MOL0     H76137   4.146   7.243   1.276 -0.5241  0.2823  2.5498
  564MOL0     H76138   3.780   7.149   1.496  0.7653  4.2386  1.4215
  564MOL0     H76139   4.043   6.931   0.843  0.1926 -3.1265 -0.6867
  564MOL0     H76140   3.808   6.916   0.798  0.6966  0.5908 -0.6399
  565MOL0     O76141  10.646   3.684   6.055  0.1526 -0.6456  0.0275
  565MOL0     C76142  10.732   3.638   6.126 -0.2509 -0.3729  1.1991
  565MOL0     O76143  10.724   3.542   6.220  0.2623  0.0072  0.2780
  565MOL0     C76144  10.609   3.479   6.239 -0.4443 -0.6373 -0.3576
  565MOL0     C76145  10.585   3.377   6.147  0.0873  0.3194  0.0862
  565MOL0     C76146  10.463   3.302   6.156 -0.7311  0.6441  0.1720
  565MOL0     C76147  10.373   3.328   6.263  0.8984 -0.6585 -0.0451
  565MOL0     O76148  10.256   3.263   6.292 -0.0099  1.0064  0.0290
  565MOL0     C76149  10.202   3.162   6.199  1.1912  0.7826  0.0925
  565MOL0     C76150  10.049   3.128   6.234 -0.2953 -0.4617  0.0368
  565MOL0     C76151   9.977   3.035   6.128 -0.4014  0.1521 -0.0607
  565MOL0     C76152   9.970   3.111   5.990 -0.5152  0.5137 -1.2925
  565MOL0     C76153   9.866   3.071   5.890 -0.1813 -0.1715 -0.3864
  565MOL0     C76154   9.726   3.060   5.943  0.2588  0.0318 -0.5447
  565MOL0     C76155   9.625   3.051   5.832 -0.4860 -0.4842  0.0670
  565MOL0     C76156   9.634   2.904   5.768  0.6662 -0.6464 -0.0120
  565MOL0     N76157   9.528   2.814   5.816  0.4254  0.8603  1.0600
  565MOL0     C76158   9.402   2.845   5.782 -0.3551  0.2454 -0.2719
  565MOL0     C76159   9.328   2.729   5.798 -0.0454  0.8040 -0.9558
  565MOL0     C76160   9.190   2.673   5.757 -0.2369  0.1070 -0.5295
  565MOL0     C76161   9.145   2.694   5.612 -1.2645  0.7078 -0.1227
  565MOL0     C76162   9.083   2.832   5.601  0.5163  0.0198 -0.3286
  565MOL0     C76163   9.039   2.849   5.440 -0.1509  1.2526 -0.1173
  565MOL0     O76164   9.145   2.813   5.350 -0.5858 -0.1030 -0.3034
  565MOL0     C76165   9.262   2.885   5.356 -0.0456 -0.2971 -0.1660
  565MOL0     C76166   9.279   3.010   5.426 -0.1622  0.2519  0.4764
  565MOL0     C76167   9.400   3.082   5.429 -0.6412  0.2710 -0.6118
  565MOL0     C76168   9.404   3.208   5.512 -0.0463 -0.1203  0.1746
  565MOL0     C76169   9.499   3.048   5.338 -0.1717  0.7485  0.4105
  565MOL0     C76170   9.630   3.117   5.325  0.5389  0.5272  0.1646
  565MOL0     O76171   9.705   3.105   5.206  0.2839  0.5782  0.0087
  565MOL0     C76172   9.820   3.173   5.197 -0.3753 -0.1421  0.2438
  565MOL0     C76173   9.942   3.105   5.195 -0.1217  0.6453 -0.3266
  565MOL0     C76174  10.064   3.182   5.177 -0.1962  0.8529  0.4302
  565MOL0     C76175  10.059   3.318   5.155  0.2464  0.1819 -0.3599
  565MOL0     O76176  10.160   3.397   5.130  0.1387 -0.5820  0.5935
  565MOL0     C76177  10.287   3.348   5.157  0.0017  0.8126  0.0564
  565MOL0     C76178  10.385   3.452   5.124  0.0005  0.3634 -0.1070
  565MOL0     C76179  10.523   3.392   5.133  1.3234 -0.2122 -0.0944
  565MOL0     C76180  10.642   3.485   5.087 -0.1485 -0.5842  0.0971
  565MOL0     C76181  10.776   3.420   5.102  0.4485 -0.0742  0.2514
  565MOL0     C76182  10.876   3.506   5.013 -0.4286 -0.0200 -0.1597
  565MOL0     C76183  11.022   3.457   5.029 -0.4625 -0.6075  0.0568
  565MOL0     C76184  11.124   3.566   5.003 -0.4733 -0.1594 -0.4818
  565MOL0    Cl76185  11.288   3.518   5.047  0.4399 -0.3218  0.2541
  565MOL0     C76186   9.928   3.383   5.155  0.0304  0.6615  0.1919
  565MOL0     C76187   9.808   3.310   5.178  0.0182 -1.3335  0.4822
  565MOL0     O76188   9.663   3.179   5.423 -0.8186 -1.0139 -0.9618
  565MOL0     C76189   9.483   2.928   5.262  0.3373 -0.9553  0.0930
  565MOL0     C76190   9.363   2.855   5.266 -0.0552  0.0345 -0.6071
  565MOL0     N76191   9.415   2.629   5.841  1.2570  0.6276  0.4207
  565MOL0     N76192   9.534   2.679   5.841 -0.7851 -0.0401 -0.2849
  565MOL0     C76193  10.402   3.431   6.357 -0.1198  1.0549  0.0395
  565MOL0     C76194  10.524   3.499   6.353  0.5821 -0.0993 -0.8874
  565MOL0     C76195  10.869   3.687   6.099 -0.2677 -0.2530 -0.0894
  565MOL0     C76196  10.993   3.626   6.145  0.6622 -0.3073  0.7919
  565MOL0     C76197  11.121   3.687   6.117 -0.0596  0.8040  1.1854
  565MOL0     C76198  11.129   3.800   6.041  0.4643 -0.5080 -0.3650
  565MOL0     O76199  11.253   3.846   6.016  0.0024 -0.2612  0.3871
  565MOL0     C76200  11.295   3.832   5.876  0.1150  0.3302  0.1059
  565MOL0     C76201  11.431   3.903   5.857 -0.1725 -0.0513 -0.6198
  565MOL0     C76202  11.433   4.056   5.889  0.1703  0.9930 -0.0583
  565MOL0     C76203  11.581   4.110   5.904 -0.1991 -0.8306 -0.2184
  565MOL0     C76204  11.572   4.266   5.925 -0.1283 -0.6167 -0.3950
  565MOL0     C76205  11.578   4.380   5.941 -0.0433  0.4571 -0.8584
  565MOL0     C76206  11.010   3.866   6.012  0.5251  0.0692  0.2000
  565MOL0     C76207  10.877   3.805   6.027  0.2573  0.0990  0.8164
  565MOL0     H76208  10.658   3.357   6.069  0.1046  0.9116 -0.0546
  565MOL0     H76209  10.438   3.223   6.085 -1.8864  1.5116 -0.4210
  565MOL0     H76210  10.215   3.213   6.104  2.1442  2.0452  0.8589
  565MOL0     H76211  10.256   3.067   6.192  1.1209  0.6819  0.7672
  565MOL0     H76212  10.032   3.081   6.332 -1.3953 -2.6184 -1.1132
  565MOL0     H76213  10.003   3.226   6.251  0.4413 -0.5111  2.9525
  565MOL0     H76214  10.033   2.942   6.116  0.9964  0.5579  2.6600
  565MOL0     H76215   9.875   3.015   6.164 -0.5641  0.9871 -0.0330
  565MOL0     H76216   9.952   3.217   6.010  1.0164  1.8365 -5.7453
  565MOL0     H76217  10.065   3.098   5.937 -0.8245  0.1337 -1.7683
  565MOL0     H76218   9.868   3.150   5.814  0.8760 -1.5265 -1.8106
  565MOL0     H76219   9.902   2.981   5.841  2.2114 -0.1739  1.2202
  565MOL0     H76220   9.737   2.966   5.998  4.0000  0.0401 -0.9903
  565MOL0     H76221   9.702   3.147   6.004 -1.6864 -1.1715  0.5020
  565MOL0     H76222   9.528   3.075   5.876  1.3195  2.7908  2.7219
  565MOL0     H76223   9.643   3.133   5.761  1.2638  1.0060  2.0797
  565MOL0     H76224   9.733   2.864   5.791  0.8680 -0.1427 -0.0082
  565MOL0     H76225   9.621   2.927   5.662  1.4608  0.9505  0.2049
  565MOL0     H76226   9.355   2.936   5.747 -0.4751  0.7271  1.0726
  565MOL0     H76227   9.193   2.565   5.774 -1.6150  0.1965  0.3918
  565MOL0     H76228   9.108   2.708   5.820 -2.0208 -0.7297 -2.2750
  565MOL0     H76229   9.081   2.610   5.583  1.3977 -1.2956 -0.6396
  565MOL0     H76230   9.225   2.687   5.537 -2.4417  1.4500 -1.5150
  565MOL0     H76231   9.134   2.920   5.642 -1.4591  1.1557 -0.1940
  565MOL0     H76232   8.989   2.819   5.656  1.7024 -1.5854  1.4717
  565MOL0     H76233   9.011   2.954   5.423  1.0194  1.7969  1.1482
  565MOL0     H76234   8.957   2.782   5.415 -0.5635  0.7837  2.2578
  565MOL0     H76235   9.200   3.060   5.483 -0.3055 -0.9708  1.3836
  565MOL0     H76236   9.303   3.237   5.544  0.3067  1.1722  0.1629
  565MOL0     H76237   9.471   3.190   5.596  1.3212 -0.0727 -0.8818
  565MOL0     H76238   9.445   3.296   5.461 -1.8964  1.6523  1.5560
  565MOL0     H76239   9.942   2.999   5.217 -1.4248  0.6908 -0.0036
  565MOL0     H76240  10.155   3.125   5.159 -1.0885 -0.1791 -1.1384
  565MOL0     H76241  10.301   3.317   5.260  1.2344  0.9226 -0.0649
  565MOL0     H76242  10.297   3.259   5.093 -0.2404  0.8023  0.0291
  565MOL0     H76243  10.368   3.486   5.021 -1.7232 -0.8628 -0.2846
  565MOL0     H76244  10.369   3.535   5.192 -0.1843 -2.1574  3.2013
  565MOL0     H76245  10.513   3.294   5.085 -4.4854 -0.8303  1.5882
  565MOL0     H76246  10.539   3.376   5.240  5.2719  2.4976 -0.0584
  565MOL0     H76247  10.622   3.515   4.983 -0.1431 -2.1177 -0.3740
  565MOL0     H76248  10.640   3.575   5.150  3.6560  1.0476 -1.7813
  565MOL0     H76249  10.767   3.320   5.059 -3.0185 -1.0444  2.8152
  565MOL0     H76250  10.809   3.417   5.206  0.8522  2.8210  0.2863
  565MOL0     H76251  10.850   3.495   4.907 -1.8447 -1.9049  0.3306
  565MOL0     H76252  10.858   3.612   5.030  1.0442  0.0371  1.3138
  565MOL0     H76253  11.042   3.375   4.960 -1.3900 -1.0185  0.2541
  565MOL0     H76254  11.031   3.413   5.129  1.0825 -3.4367 -1.1947
  565MOL0     H76255  11.109   3.653   5.067 -1.1099 -0.3407 -0.3799
  565MOL0     H76256  11.110   3.620   4.909 -0.4171  0.5403 -0.0952
  565MOL0     H76257   9.939   3.491   5.158  0.6980  0.6247 -0.6358
  565MOL0     H76258   9.709   3.348   5.199  1.2452  1.4423  1.8420
  565MOL0     H76259   9.563   2.904   5.193  1.4311  2.5427 -0.0899
  565MOL0     H76260   9.351   2.763   5.210 -1.1476 -0.5400  0.5222
  565MOL0     H76261  10.330   3.453   6.435  0.4876 -1.2101  1.3186
  565MOL0     H76262  10.555   3.561   6.436 -0.3614 -2.5089  1.4084
  565MOL0     H76263  10.984   3.539   6.210 -0.1684 -0.9786 -0.1939
  565MOL0     H76264  11.213   3.645   6.157  1.2378  1.7259 -0.7012
  565MOL0     H76265  11.283   3.733   5.831  0.1236  0.6058 -0.5048
  565MOL0     H76266  11.221   3.899   5.829 -0.9827 -0.3901  0.7561
  565MOL0     H76267  11.459   3.886   5.752  0.2667  1.2664 -0.7274
  565MOL0     H76268  11.504   3.845   5.915  0.4812 -0.4762 -1.8170
  565MOL0     H76269  11.376   4.076   5.979 -0.8247  2.6816 -1.0087
  565MOL0     H76270  11.385   4.115   5.810  0.8905  0.9878 -0.5187
  565MOL0     H76271  11.633   4.091   5.810 -0.5945  0.3849 -0.6953
  565MOL0     H76272  11.644   4.053   5.973  4.0810 -2.0788 -4.6383
  565MOL0     H76273  11.587   4.485   5.961 -0.1748  0.1228  1.2348
  565MOL0     H76274  11.014   3.965   5.969 -4.8493  0.9781  1.1190
  565MOL0     H76275  10.792   3.868   6.005 -0.7206 -1.1964  0.7722
  566MOL0     O76276   1.722   1.964   1.679 -0.1855 -0.2123 -0.0974
  566MOL0     C76277   1.771   1.956   1.792  0.2835  0.0689 -0.2683
  566MOL0     O76278   1.704   1.946   1.911 -0.5765  0.0197  0.2574
  566MOL0     C76279   1.570   1.923   1.920  0.4610 -0.4911  0.5446
  566MOL0     C76280   1.485   2.021   1.887 -0.5281  0.4162  0.0421
  566MOL0     C76281   1.349   2.006   1.898 -0.4096 -0.5296  1.1414
  566MOL0     C76282   1.292   1.885   1.919 -0.7951 -0.2475 -0.5691
  566MOL0     O76283   1.160   1.868   1.919  0.7462 -0.2913  0.4441
  566MOL0     C76284   1.072   1.972   1.879  0.0819  0.3607  0.4684
  566MOL0     C76285   0.924   1.922   1.860 -0.1306 -0.1263  0.8216
  566MOL0     C76286   0.866   1.882   1.997 -0.1196 -0.0582  0.2463
  566MOL0     C76287   0.913   1.737   2.027 -0.3772  0.8160  0.4395
  566MOL0     C76288   0.823   1.668   2.131  0.5456  0.0008  0.3519
  566MOL0     C76289   0.785   1.749   2.260  0.3623  0.3361  0.6429
  566MOL0     C76290   0.692   1.670   2.347 -0.1623 -1.3258 -0.2805
  566MOL0     C76291   0.545   1.668   2.289  0.0717  0.0614  0.4267
  566MOL0     N76292   0.455   1.582   2.372 -0.4294 -0.2657  0.2728
  566MOL0     C76293   0.471   1.446   2.384 -0.3598 -0.2870  0.5856
  566MOL0     C76294   0.358   1.408   2.448 -0.2619  0.6971  0.5016
  566MOL0     C76295   0.306   1.270   2.472  0.5980 -0.4348  0.5283
  566MOL0     C76296   0.266   1.206   2.334  0.8596 -0.6620  0.0430
  566MOL0     C76297   0.113   1.170   2.337 -0.2420 -0.5032  0.0063
  566MOL0     C76298   0.008   1.283   2.330 -1.2097 -0.2318 -0.4775
  566MOL0     O76299  -0.021   1.313   2.190 -0.4045  0.1244  0.3489
  566MOL0     C76300   0.083   1.367   2.115  0.0196 -1.2839 -0.1955
  566MOL0     C76301   0.140   1.304   2.011 -0.0906  0.2067  0.6775
  566MOL0     C76302   0.252   1.337   1.939  0.6958  0.1266 -0.2051
  566MOL0     C76303   0.297   1.253   1.822 -0.7287  0.2873 -0.2027
  566MOL0     C76304   0.326   1.453   1.985 -0.1820 -0.1643  0.4837
  566MOL0     C76305   0.449   1.502   1.925 -0.1689 -0.1986 -0.2934
  566MOL0     O76306   0.540   1.404   1.893 -0.2384 -0.9578 -1.0497
  566MOL0     C76307   0.649   1.442   1.829  0.5777 -0.5181  0.3097
  566MOL0     C76308   0.763   1.398   1.895 -0.7742  0.2296  0.3116
  566MOL0     C76309   0.890   1.418   1.830 -0.4846 -0.0329 -0.2804
  566MOL0     C76310   0.901   1.474   1.698 -0.2139  0.0080  0.2116
  566MOL0     O76311   1.018   1.488   1.621 -0.8531 -0.2358 -0.1656
  566MOL0     C76312   1.139   1.505   1.702  0.3881  0.1935 -1.5259
  566MOL0     C76313   1.258   1.531   1.608  0.1850  0.2569  0.3248
  566MOL0     C76314   1.400   1.532   1.661  0.4982  0.2882  0.6656
  566MOL0     C76315   1.431   1.423   1.765  0.6138 -0.2613 -0.0560
  566MOL0     C76316   1.575   1.430   1.825  0.0174 -0.6584  0.6456
  566MOL0     C76317   1.678   1.373   1.726  0.9322  0.3148 -0.2114
  566MOL0     C76318   1.722   1.465   1.606 -0.4792 -0.0263 -0.7159
  566MOL0     C76319   1.821   1.396   1.508  0.2261  0.4297 -0.0334
  566MOL0    Cl76320   1.935   1.268   1.590  0.2272 -0.4988  0.1870
  566MOL0     C76321   0.781   1.511   1.632 -1.3020 -0.3582 -0.3742
  566MOL0     C76322   0.663   1.496   1.700  0.6599  0.1986  0.2117
  566MOL0     O76323   0.467   1.619   1.912  0.0811  0.0733 -0.0171
  566MOL0     C76324   0.267   1.528   2.094 -1.0696 -0.1917 -0.8909
  566MOL0     C76325   0.149   1.488   2.160  0.7953 -0.7751 -0.0384
  566MOL0     N76326   0.272   1.521   2.468  0.5064 -0.6096 -0.6888
  566MOL0     N76327   0.335   1.620   2.418 -0.0832 -0.3106  0.3385
  566MOL0     C76328   1.381   1.781   1.947 -0.7028 -0.2897 -0.0256
  566MOL0     C76329   1.518   1.798   1.949  0.1353  0.5490  0.5835
  566MOL0     C76330   1.921   1.990   1.800  0.0823 -0.2404 -0.0741
  566MOL0     C76331   1.991   2.016   1.688  1.2519 -0.1747 -0.7952
  566MOL0     C76332   2.111   2.071   1.684  0.0420 -0.3479 -0.5497
  566MOL0     C76333   2.173   2.100   1.800 -1.3297 -0.1180  1.2943
  566MOL0     O76334   2.297   2.161   1.791 -0.2478  0.3681 -0.2839
  566MOL0     C76335   2.358   2.211   1.912 -0.7344 -0.1878 -0.7613
  566MOL0     C76336   2.510   2.245   1.887 -0.8877 -0.0500 -0.0161
  566MOL0     C76337   2.545   2.323   1.760 -0.3262 -0.7493 -0.2694
  566MOL0     C76338   2.553   2.469   1.781 -0.0163 -0.0413 -0.4632
  566MOL0     C76339   2.569   2.557   1.659 -0.1102  0.1916  0.2560
  566MOL0     C76340   2.579   2.633   1.564  0.6664 -0.2540  0.4536
  566MOL0     C76341   2.110   2.066   1.925 -0.3746  0.1001 -0.5492
  566MOL0     C76342   1.981   2.015   1.922 -0.4322 -0.5116  0.7764
  566MOL0     H76343   1.524   2.121   1.869  0.2248  0.7657  3.0867
  566MOL0     H76344   1.289   2.087   1.859  1.4150  0.4567  0.2536
  566MOL0     H76345   1.092   2.056   1.946  1.3249 -1.1826  2.1382
  566MOL0     H76346   1.103   2.001   1.778 -2.6641  0.2850 -0.4747
  566MOL0     H76347   0.861   1.999   1.814  2.0805  0.3902 -1.5431
  566MOL0     H76348   0.930   1.837   1.792  1.6114 -0.6400  1.5818
  566MOL0     H76349   0.904   1.943   2.079 -0.8189  0.4838  0.1768
  566MOL0     H76350   0.756   1.887   1.993 -0.0973 -0.1198 -2.7841
  566MOL0     H76351   0.922   1.678   1.935 -0.6717 -0.2761  1.0950
  566MOL0     H76352   1.007   1.743   2.082 -0.8998 -0.0285  1.4601
  566MOL0     H76353   0.741   1.622   2.075  1.2815 -0.6649 -0.1930
  566MOL0     H76354   0.879   1.580   2.161  3.1295  1.0491 -1.0847
  566MOL0     H76355   0.884   1.766   2.303  1.6356 -1.1134 -1.5305
  566MOL0     H76356   0.730   1.840   2.235 -1.1802 -0.9823 -1.0805
  566MOL0     H76357   0.717   1.564   2.364 -0.6517 -1.7909 -2.2322
  566MOL0     H76358   0.685   1.715   2.447  2.1278 -0.4775 -0.4273
  566MOL0     H76359   0.543   1.636   2.185 -0.3896  1.8585 -0.1518
  566MOL0     H76360   0.501   1.768   2.294 -0.3347 -0.0425 -0.7210
  566MOL0     H76361   0.549   1.385   2.340  1.2411  0.8233  1.7647
  566MOL0     H76362   0.389   1.218   2.521  1.2363 -0.8673 -0.9459
  566MOL0     H76363   0.221   1.278   2.540  0.1947 -0.8552  0.0697
  566MOL0     H76364   0.325   1.116   2.313  0.5842 -1.3191  1.8609
  566MOL0     H76365   0.282   1.276   2.252 -2.6918 -0.3629 -0.5382
  566MOL0     H76366   0.097   1.108   2.426 -2.4710  1.2658  0.9356
  566MOL0     H76367   0.093   1.103   2.252  3.0428 -2.5458  0.6731
  566MOL0     H76368   0.034   1.372   2.386 -1.1838  0.7613 -1.9991
  566MOL0     H76369  -0.085   1.238   2.366 -1.4287 -0.6508 -1.5122
  566MOL0     H76370   0.092   1.212   1.979 -2.9105  2.0815 -0.9245
  566MOL0     H76371   0.230   1.168   1.805 -2.7130  1.5489  0.8604
  566MOL0     H76372   0.299   1.310   1.729 -0.3479  2.0965  0.8729
  566MOL0     H76373   0.395   1.209   1.843  0.9490  3.6214 -0.4356
  566MOL0     H76374   0.752   1.363   1.997 -1.0014  0.7478  0.4685
  566MOL0     H76375   0.975   1.373   1.881 -1.7280 -1.6314  0.4879
  566MOL0     H76376   1.125   1.593   1.766  0.8520 -0.2675 -0.7840
  566MOL0     H76377   1.158   1.414   1.759  2.3877  0.7424 -1.2512
  566MOL0     H76378   1.241   1.452   1.534 -1.1502  0.4085  0.4545
  566MOL0     H76379   1.252   1.628   1.559 -1.2982  1.3746  2.5508
  566MOL0     H76380   1.423   1.633   1.696  1.0301  1.1498 -1.9615
  566MOL0     H76381   1.463   1.524   1.572  0.0235  0.5727  0.2972
  566MOL0     H76382   1.355   1.413   1.843 -1.0533 -0.9526 -1.7036
  566MOL0     H76383   1.415   1.327   1.715 -0.6121  0.2090 -0.6211
  566MOL0     H76384   1.586   1.372   1.918 -1.5335 -0.0060  1.2700
  566MOL0     H76385   1.599   1.532   1.856 -0.8192 -0.4450  0.6196
  566MOL0     H76386   1.770   1.336   1.773  0.8010 -0.0362 -0.2231
  566MOL0     H76387   1.640   1.279   1.684  4.0240 -1.4059  0.5339
  566MOL0     H76388   1.779   1.546   1.653  0.8696 -1.0831 -0.4687
  566MOL0     H76389   1.638   1.505   1.550  0.4473  2.2700 -0.5943
  566MOL0     H76390   1.896   1.467   1.474 -0.0347  0.3454 -0.8076
  566MOL0     H76391   1.773   1.350   1.422  0.9479  2.8850 -1.8538
  566MOL0     H76392   0.771   1.543   1.529 -0.9560 -0.2082 -0.3647
  566MOL0     H76393   0.573   1.524   1.646 -1.4534  3.3195  4.7004
  566MOL0     H76394   0.305   1.623   2.131 -1.2319  0.1047 -1.4907
  566MOL0     H76395   0.107   1.552   2.237 -1.8922 -1.0189 -1.2270
  566MOL0     H76396   1.345   1.680   1.967 -2.1217 -0.2048 -1.8841
  566MOL0     H76397   1.570   1.709   1.983 -0.3729  0.8526  2.2419
  566MOL0     H76398   1.946   1.995   1.591 -1.5792  0.6243  0.2730
  566MOL0     H76399   2.149   2.091   1.584  0.6167  1.2028 -0.0595
  566MOL0     H76400   2.300   2.299   1.939 -2.0046 -0.4339 -2.4622
  566MOL0     H76401   2.364   2.133   1.989 -2.1956  2.0463  1.7703
  566MOL0     H76402   2.574   2.156   1.886 -2.7508 -1.5043  1.7890
  566MOL0     H76403   2.542   2.294   1.979  0.7282 -3.1011  1.1978
  566MOL0     H76404   2.463   2.309   1.688  0.8282 -1.0611 -1.5732
  566MOL0     H76405   2.635   2.291   1.707 -1.7101 -1.0204 -2.6346
  566MOL0     H76406   2.635   2.481   1.852  1.2028  1.8755 -2.1015
  566MOL0     H76407   2.462   2.497   1.835  1.0959  3.1571 -0.0604
  566MOL0     H76408   2.599   2.715   1.498  4.2793 -1.3351 -0.0130
  566MOL0     H76409   2.165   2.073   2.018 -0.0310 -0.4111 -0.7071
  566MOL0     H76410   1.936   1.992   2.017  1.8197  0.0894  2.0719
  567MOL0     O76411   3.298   4.907   1.011  0.1741  0.2271 -0.4790
  567MOL0     C76412   3.330   4.981   0.922  0.5922  0.3591  0.0671
  567MOL0     O76413   3.262   5.091   0.895 -0.3766 -0.7617  0.1172
  567MOL0     C76414   3.145   5.122   0.964 -0.7078 -0.6779  0.7106
  567MOL0     C76415   3.153   5.183   1.092  0.2686 -1.0502 -0.3555
  567MOL0     C76416   3.036   5.238   1.152  0.1093  0.8021 -0.6618
  567MOL0     C76417   2.914   5.229   1.077  0.0020 -0.4951 -0.1197
  567MOL0     O76418   2.797   5.266   1.137 -0.7260  0.1141 -0.3628
  567MOL0     C76419   2.742   5.161   1.217  0.2527  1.1745 -0.3109
  567MOL0     C76420   2.601   5.110   1.161 -0.5414 -0.3854  0.2170
  567MOL0     C76421   2.547   4.987   1.234 -0.0054  0.9809 -0.3251
  567MOL0     C76422   2.399   4.944   1.209  1.1204  0.4521  0.3218
  567MOL0     C76423   2.381   4.807   1.278  0.1969 -0.5793 -0.3928
  567MOL0     C76424   2.389   4.806   1.430  0.0484  1.5445  0.1322
  567MOL0     C76425   2.402   4.673   1.504  0.1155 -0.7006 -0.4771
  567MOL0     C76426   2.521   4.588   1.479  0.0392 -0.1453 -0.3733
  567MOL0     N76427   2.643   4.650   1.536  1.3048 -0.2900 -0.5894
  567MOL0     C76428   2.728   4.728   1.465  0.0193  0.2743 -1.3557
  567MOL0     C76429   2.813   4.785   1.564 -0.7815  0.1636 -0.4385
  567MOL0     C76430   2.924   4.891   1.543  0.5335  0.1216 -0.3558
  567MOL0     C76431   2.874   5.032   1.516  0.0698 -0.2647  0.3007
  567MOL0     C76432   2.857   5.120   1.657  0.0772  1.1218  0.2568
  567MOL0     C76433   2.737   5.074   1.738 -0.0025 -0.5433 -0.1281
  567MOL0     O76434   2.623   5.052   1.649  1.1351 -0.4157 -0.4959
  567MOL0     C76435   2.509   5.050   1.721  0.4177 -0.2065  1.1173
  567MOL0     C76436   2.442   5.163   1.770 -0.3405 -0.0031  1.1201
  567MOL0     C76437   2.320   5.151   1.847 -0.1401  0.1680  0.8291
  567MOL0     C76438   2.261   5.283   1.897 -0.2700 -0.6823  0.0393
  567MOL0     C76439   2.278   5.023   1.887 -0.3084 -0.8464 -0.4060
  567MOL0     C76440   2.154   4.999   1.955  1.0221 -0.5129 -1.1438
  567MOL0     O76441   2.056   5.081   1.918  0.6729  0.5379  0.0616
  567MOL0     C76442   1.927   5.063   1.977  0.3989  0.0761  0.0505
  567MOL0     C76443   1.859   4.936   1.968  0.3158 -0.3050 -0.1559
  567MOL0     C76444   1.731   4.928   2.022  0.8989  0.2363  0.1761
  567MOL0     C76445   1.669   5.034   2.081  0.1954 -0.0284 -0.6970
  567MOL0     O76446   1.541   5.015   2.134 -0.1723 -0.7505 -0.2312
  567MOL0     C76447   1.510   5.081   2.257 -1.0528 -0.1113  1.6225
  567MOL0     C76448   1.387   5.026   2.328 -0.4310 -0.1529  0.4305
  567MOL0     C76449   1.272   5.009   2.241  0.8663  0.0165 -0.1095
  567MOL0     C76450   1.151   4.962   2.323 -0.4701  0.6588 -0.4602
  567MOL0     C76451   1.028   4.936   2.236  0.3801 -0.2127 -0.1814
  567MOL0     C76452   0.913   4.869   2.317  0.8041  0.0197 -0.1715
  567MOL0     C76453   0.907   4.720   2.296  0.7517 -0.6365  0.0335
  567MOL0     C76454   0.793   4.660   2.377 -0.0834  0.5053 -0.4599
  567MOL0    Cl76455   0.835   4.697   2.549 -0.3020  0.0617  0.0708
  567MOL0     C76456   1.733   5.155   2.099  0.1498  0.3786 -0.1789
  567MOL0     C76457   1.861   5.167   2.049  0.7233 -0.4619  0.3948
  567MOL0     O76458   2.147   4.910   2.036  0.4039  0.3504  0.4856
  567MOL0     C76459   2.351   4.909   1.838  0.0124 -0.1885 -0.8888
  567MOL0     C76460   2.471   4.919   1.762  0.5191 -0.0550 -0.1622
  567MOL0     N76461   2.784   4.726   1.689  0.2035  0.3029 -0.2022
  567MOL0     N76462   2.684   4.642   1.668  0.4290  0.1520 -0.8567
  567MOL0     C76463   2.912   5.186   0.933  0.6264  0.0443 -0.9234
  567MOL0     C76464   3.030   5.117   0.890 -0.2201  0.2099 -0.0154
  567MOL0     C76465   3.447   4.951   0.844  0.1262  0.5059  0.7320
  567MOL0     C76466   3.544   4.861   0.886  0.7574  0.5707  0.4676
  567MOL0     C76467   3.663   4.830   0.817  0.6847  0.8398  0.3760
  567MOL0     C76468   3.687   4.901   0.694  0.2091 -0.7722 -0.5202
  567MOL0     O76469   3.804   4.886   0.620  0.2004  0.6221 -0.5602
  567MOL0     C76470   3.889   4.995   0.585 -0.3815  0.5488 -0.9706
  567MOL0     C76471   4.026   4.954   0.624 -0.4038 -0.0528  0.2733
  567MOL0     C76472   4.045   4.914   0.776  0.6825 -0.1565  0.3952
  567MOL0     C76473   4.074   4.764   0.798  0.4098  0.7694 -0.8803
  567MOL0     C76474   4.194   4.704   0.735 -0.7638 -0.5634  0.0733
  567MOL0     C76475   4.300   4.651   0.698 -0.4782  0.6238 -0.1421
  567MOL0     C76476   3.595   5.006   0.663 -0.0941  0.3572 -0.7631
  567MOL0     C76477   3.470   5.020   0.728 -0.4725  0.1292 -0.7178
  567MOL0     H76478   3.242   5.200   1.151  0.3092  1.1455 -0.9733
  567MOL0     H76479   3.040   5.281   1.252  1.1241  4.6901 -2.1752
  567MOL0     H76480   2.801   5.070   1.226 -0.2451  0.9615  0.9136
  567MOL0     H76481   2.741   5.193   1.321 -1.3360 -0.5572  0.2535
  567MOL0     H76482   2.531   5.192   1.178  1.1278  0.7979  1.7109
  567MOL0     H76483   2.615   5.092   1.054  1.0253  0.8595  0.1869
  567MOL0     H76484   2.609   4.899   1.210  1.0131  1.0559  1.7602
  567MOL0     H76485   2.558   5.009   1.340 -0.9752 -1.7546  0.4523
  567MOL0     H76486   2.331   5.023   1.243  0.3639 -0.1151  0.1595
  567MOL0     H76487   2.392   4.941   1.100  1.9908  0.8059  0.2470
  567MOL0     H76488   2.278   4.782   1.251 -0.4534  2.5244 -1.1244
  567MOL0     H76489   2.451   4.728   1.246 -0.1216 -2.1264  2.3887
  567MOL0     H76490   2.468   4.873   1.465  1.0949  0.7448 -0.6040
  567MOL0     H76491   2.297   4.841   1.478 -1.9356 -3.7761  0.8534
  567MOL0     H76492   2.388   4.689   1.612 -3.8298 -3.0896 -0.4087
  567MOL0     H76493   2.316   4.608   1.484  0.9389 -1.9098 -0.1914
  567MOL0     H76494   2.539   4.582   1.372  0.0398  1.9967 -0.5436
  567MOL0     H76495   2.514   4.488   1.521 -0.2149 -0.1284 -0.3722
  567MOL0     H76496   2.709   4.756   1.362 -0.8551 -0.3660 -1.3770
  567MOL0     H76497   2.983   4.906   1.634  1.6698 -0.2237 -1.0092
  567MOL0     H76498   3.001   4.852   1.476  0.8116  1.8246 -1.0598
  567MOL0     H76499   2.786   5.032   1.451 -1.4988  0.3304  2.3149
  567MOL0     H76500   2.950   5.087   1.459 -1.0007 -1.0631 -2.0477
  567MOL0     H76501   2.836   5.224   1.630 -2.7337  1.0383  1.6809
  567MOL0     H76502   2.952   5.127   1.710 -0.1578 -1.3960  1.1560
  567MOL0     H76503   2.713   5.153   1.810 -0.3702 -2.4316  1.9384
  567MOL0     H76504   2.748   4.979   1.792 -2.9429 -1.7545 -1.4031
  567MOL0     H76505   2.480   5.257   1.732  0.1035 -1.3412 -2.0130
  567MOL0     H76506   2.234   5.274   2.002 -2.0596  2.4347 -0.0213
  567MOL0     H76507   2.333   5.366   1.886  0.4262 -0.6843  3.4129
  567MOL0     H76508   2.169   5.309   1.844  0.4129  0.1520 -0.7930
  567MOL0     H76509   1.906   4.853   1.917 -0.0932 -2.2935  2.5212
  567MOL0     H76510   1.678   4.833   2.027  2.5262 -0.6928  0.4816
  567MOL0     H76511   1.596   5.068   2.324 -1.4558 -2.4136  1.7839
  567MOL0     H76512   1.495   5.187   2.237 -5.4573 -0.8598 -0.0702
  567MOL0     H76513   1.413   4.936   2.384 -0.8362 -1.2057 -1.0340
  567MOL0     H76514   1.371   5.107   2.400 -0.5362  0.7706 -0.6127
  567MOL0     H76515   1.285   4.939   2.158  1.5422  1.8437 -1.6287
  567MOL0     H76516   1.244   5.103   2.192 -0.8649 -1.3733 -1.9302
  567MOL0     H76517   1.183   4.869   2.371  1.6598  2.6449  2.2937
  567MOL0     H76518   1.127   5.034   2.402  1.4642  2.5706 -1.5195
  567MOL0     H76519   1.051   4.870   2.152 -2.8743  0.1915 -1.5520
  567MOL0     H76520   0.995   5.032   2.194 -0.9704  1.2048  3.6459
  567MOL0     H76521   0.918   4.903   2.421  1.0465  0.8906 -0.4648
  567MOL0     H76522   0.816   4.911   2.287  0.9725  1.6815  1.4204
  567MOL0     H76523   1.005   4.681   2.326  0.4400 -1.7346 -0.3393
  567MOL0     H76524   0.905   4.701   2.188  1.2444 -1.5126  0.1634
  567MOL0     H76525   0.776   4.554   2.355  1.5473  0.3991 -1.3751
  567MOL0     H76526   0.695   4.705   2.359 -0.3288  0.0788 -0.2057
  567MOL0     H76527   1.689   5.238   2.153  2.3588 -0.2505  2.8650
  567MOL0     H76528   1.912   5.261   2.071 -1.1726  1.2901 -2.0783
  567MOL0     H76529   2.321   4.815   1.882  1.8404  0.3323  1.7021
  567MOL0     H76530   2.525   4.827   1.741 -0.0235 -1.4418  3.6884
  567MOL0     H76531   2.825   5.189   0.869 -0.0118 -0.6816 -0.1146
  567MOL0     H76532   3.042   5.068   0.794  0.7036 -1.1907  0.7836
  567MOL0     H76533   3.515   4.803   0.972  3.3237 -1.0072  0.3645
  567MOL0     H76534   3.727   4.749   0.850 -0.8146  0.2520  1.9746
  567MOL0     H76535   3.875   5.011   0.478 -2.0283 -0.5359 -0.9598
  567MOL0     H76536   3.864   5.087   0.637 -1.0371 -0.9161  1.4485
  567MOL0     H76537   4.084   5.046   0.614  0.1274 -0.0862  2.5696
  567MOL0     H76538   4.060   4.880   0.551  0.2079  1.2835 -0.8514
  567MOL0     H76539   3.961   4.938   0.841  1.3874 -1.3195  1.8027
  567MOL0     H76540   4.119   4.979   0.824  0.1091 -0.7515  2.1545
  567MOL0     H76541   3.984   4.717   0.758 -0.2128  1.6976 -0.5977
  567MOL0     H76542   4.083   4.750   0.906  0.4242  0.6895 -0.8917
  567MOL0     H76543   4.395   4.620   0.662 -0.6654 -0.2663  0.1235
  567MOL0     H76544   3.610   5.057   0.568  1.6273 -0.3537 -0.9149
  567MOL0     H76545   3.394   5.088   0.690 -2.2276 -0.9242  0.7517
  568MOL0     O76546   7.013   8.366   3.176 -0.3282 -0.6948  0.1838
  568MOL0     C76547   7.027   8.394   3.062  0.0400 -0.5729  0.1622
  568MOL0     O76548   6.956   8.339   2.960  0.0095 -0.4948  0.2420
  568MOL0     C76549   6.842   8.273   2.991  0.1104 -0.4622 -0.0174
  568MOL0     C76550   6.757   8.322   3.087  1.1585  0.8280  0.1383
  568MOL0     C76551   6.631   8.262   3.111  1.1665 -0.3224  0.0884
  568MOL0     C76552   6.597   8.144   3.040 -0.3517 -0.7225 -0.9101
  568MOL0     O76553   6.481   8.073   3.070  0.2638 -0.9855 -0.1164
  568MOL0     C76554   6.410   8.021   2.964  0.6934  0.8495 -0.0593
  568MOL0     C76555   6.257   8.042   2.983 -0.7625  0.1958 -0.4540
  568MOL0     C76556   6.209   8.001   3.120  0.3365 -0.0075 -0.2666
  568MOL0     C76557   6.267   7.865   3.165 -0.0593 -0.4234 -0.1922
  568MOL0     C76558   6.212   7.822   3.307 -0.8996  0.2400  0.4751
  568MOL0     C76559   6.075   7.759   3.299 -1.5174  0.2034 -0.0189
  568MOL0     C76560   5.999   7.752   3.432 -0.1816  1.0684 -0.6186
  568MOL0     C76561   5.945   7.884   3.499 -1.0324  0.3267 -0.0022
  568MOL0     N76562   5.850   7.969   3.431 -0.0305  0.1920 -0.0932
  568MOL0     C76563   5.886   8.054   3.332 -1.0629  0.3616 -0.3317
  568MOL0     C76564   5.774   8.094   3.277  0.1611  0.3336 -0.7467
  568MOL0     C76565   5.753   8.193   3.164 -0.5249  0.7685 -0.3087
  568MOL0     C76566   5.731   8.122   3.028 -0.2587  0.2890 -0.2343
  568MOL0     C76567   5.655   8.221   2.934 -0.5016  0.1961  0.6742
  568MOL0     C76568   5.707   8.367   2.932 -0.4668 -0.5968  0.2239
  568MOL0     O76569   5.847   8.359   2.892 -0.5836 -0.3356  0.4095
  568MOL0     C76570   5.880   8.346   2.755 -0.4416  1.0534 -0.0752
  568MOL0     C76571   5.850   8.444   2.660  0.3739  0.1839  0.2449
  568MOL0     C76572   5.883   8.438   2.526  0.7922 -0.1842 -0.0204
  568MOL0     C76573   5.857   8.561   2.440  0.4708 -0.3495 -0.3760
  568MOL0     C76574   5.938   8.320   2.474  0.0648  0.4276 -0.2504
  568MOL0     C76575   5.983   8.294   2.331  0.3571 -0.6472  0.0903
  568MOL0     O76576   6.052   8.182   2.311 -0.1312  0.2119 -0.1227
  568MOL0     C76577   6.136   8.186   2.202 -0.1094 -0.2247 -1.0363
  568MOL0     C76578   6.088   8.176   2.067 -0.3659 -0.2111  0.0991
  568MOL0     C76579   6.180   8.183   1.956  0.9936  0.6213  0.2382
  568MOL0     C76580   6.316   8.206   1.975 -0.2961  0.2916 -1.4144
  568MOL0     O76581   6.412   8.187   1.883 -0.2926 -1.0173  0.3356
  568MOL0     C76582   6.414   8.069   1.804 -0.3187 -0.1615  0.2133
  568MOL0     C76583   6.493   7.961   1.876 -0.1358  0.4863  0.1664
  568MOL0     C76584   6.498   7.831   1.778 -0.5119 -0.2074 -1.1234
  568MOL0     C76585   6.473   7.709   1.863  0.4032 -0.4177 -0.4683
  568MOL0     C76586   6.521   7.581   1.800 -0.1339  0.0407  0.3384
  568MOL0     C76587   6.495   7.456   1.888  0.5436  0.1642 -0.7844
  568MOL0     C76588   6.536   7.334   1.825  0.1579  0.1994  0.1274
  568MOL0     C76589   6.459   7.203   1.862 -0.9640 -0.1899  0.2916
  568MOL0    Cl76590   6.510   7.146   2.022  0.1275  0.3273  0.0987
  568MOL0     C76591   6.360   8.230   2.102  0.9775 -0.4583 -0.7397
  568MOL0     C76592   6.271   8.217   2.218  0.0122 -1.0246 -0.3041
  568MOL0     O76593   5.969   8.386   2.250  0.0181 -0.7569  0.4768
  568MOL0     C76594   5.970   8.226   2.567  0.3135  0.9960 -0.1666
  568MOL0     C76595   5.945   8.233   2.709  0.6365 -0.0671 -0.8412
  568MOL0     N76596   5.670   8.046   3.348  0.0615  0.6909  0.4512
  568MOL0     N76597   5.715   7.969   3.439 -0.2400  0.4072 -0.2003
  568MOL0     C76598   6.684   8.104   2.943 -0.8472  0.3259 -0.3852
  568MOL0     C76599   6.810   8.160   2.922  0.1515 -0.5394 -0.1737
  568MOL0     C76600   7.142   8.470   3.030 -0.0400  0.0791 -0.4397
  568MOL0     C76601   7.187   8.486   2.902 -0.6539  0.2246  0.1903
  568MOL0     C76602   7.303   8.562   2.872 -0.9187 -0.3716 -0.4270
  568MOL0     C76603   7.366   8.643   2.968 -0.3567 -0.2180 -0.1390
  568MOL0     O76604   7.462   8.733   2.929 -0.2568 -0.8657  0.1065
  568MOL0     C76605   7.548   8.791   3.033 -0.5419  0.3701 -0.2446
  568MOL0     C76606   7.664   8.872   2.981 -0.7427 -0.2377 -0.5079
  568MOL0     C76607   7.751   8.782   2.885  0.7305  0.3771 -0.7952
  568MOL0     C76608   7.811   8.652   2.944  0.5737  0.3613 -0.0181
  568MOL0     C76609   7.895   8.683   3.059 -0.0855  0.8038  0.2448
  568MOL0     C76610   7.963   8.695   3.164  0.1309 -0.6212 -0.9125
  568MOL0     C76611   7.323   8.625   3.096  0.8577 -0.2401  0.0221
  568MOL0     C76612   7.213   8.547   3.128 -0.4370 -0.1958  0.5549
  568MOL0     H76613   6.772   8.413   3.144 -0.7231 -0.1237  2.3720
  568MOL0     H76614   6.583   8.310   3.196 -0.5519  2.1355 -2.1401
  568MOL0     H76615   6.425   8.063   2.864  1.6675  0.4027 -0.1234
  568MOL0     H76616   6.429   7.913   2.967 -0.4626  0.6173 -0.6080
  568MOL0     H76617   6.229   8.147   2.968 -1.1757 -0.2399 -3.3166
  568MOL0     H76618   6.200   7.998   2.900 -1.2352  3.0847 -1.7982
  568MOL0     H76619   6.239   8.077   3.193  3.7142 -1.0923 -0.3926
  568MOL0     H76620   6.101   8.006   3.105  0.6690  2.1824 -2.5837
  568MOL0     H76621   6.251   7.790   3.087 -1.1291 -0.0064 -0.4000
  568MOL0     H76622   6.374   7.874   3.184 -0.0890  0.5280 -0.4115
  568MOL0     H76623   6.282   7.755   3.358  0.4423  0.3687 -1.1265
  568MOL0     H76624   6.217   7.911   3.370  2.1174 -0.0247  0.7464
  568MOL0     H76625   6.017   7.822   3.231 -0.0038  2.5854  0.7316
  568MOL0     H76626   6.083   7.659   3.257  1.1543  0.6945 -0.8703
  568MOL0     H76627   5.914   7.685   3.417  0.2775 -0.1493  1.6270
  568MOL0     H76628   6.058   7.701   3.509 -0.8563  1.3484  0.0968
  568MOL0     H76629   6.025   7.946   3.539 -0.6147 -1.9879  3.1522
  568MOL0     H76630   5.899   7.860   3.596  0.5796 -0.2449  0.6463
  568MOL0     H76631   5.987   8.087   3.307 -0.3334 -1.9832 -0.7526
  568MOL0     H76632   5.663   8.247   3.194 -0.9606 -0.3514  0.4477
  568MOL0     H76633   5.840   8.260   3.154  1.1564 -1.1188  0.9185
  568MOL0     H76634   5.677   8.027   3.030  2.5563 -1.4171  1.2786
  568MOL0     H76635   5.831   8.098   2.994  0.5107  0.4282  1.7909
  568MOL0     H76636   5.552   8.228   2.971 -0.0482  3.1839  1.6066
  568MOL0     H76637   5.651   8.182   2.831  3.2916  0.2409  0.3894
  568MOL0     H76638   5.694   8.402   3.035  3.0415 -0.6387  0.8151
  568MOL0     H76639   5.656   8.432   2.861 -0.2629  0.3224  0.9089
  568MOL0     H76640   5.790   8.525   2.701 -0.5973 -0.9113  1.0852
  568MOL0     H76641   5.945   8.613   2.403  0.5799  0.1796  0.5929
  568MOL0     H76642   5.800   8.533   2.351  3.2185 -0.9189 -2.0444
  568MOL0     H76643   5.791   8.630   2.495  0.0194  0.1935 -1.5549
  568MOL0     H76644   5.985   8.143   2.056  0.4202 -3.3026  1.0719
  568MOL0     H76645   6.149   8.164   1.854  0.6557 -2.1870  0.8051
  568MOL0     H76646   6.316   8.051   1.759  0.1759  2.3064 -2.1735
  568MOL0     H76647   6.480   8.093   1.721  0.6941  2.6331  1.6670
  568MOL0     H76648   6.595   7.994   1.894  0.0239  2.2130 -3.1843
  568MOL0     H76649   6.447   7.944   1.974 -0.2593  0.7575  0.1576
  568MOL0     H76650   6.600   7.827   1.739 -0.4608  0.9159 -1.1344
  568MOL0     H76651   6.434   7.843   1.690  0.7608 -1.5042 -2.2706
  568MOL0     H76652   6.516   7.720   1.964  0.1050 -0.4478 -0.3375
  568MOL0     H76653   6.364   7.702   1.873  0.4337 -0.2040  0.0453
  568MOL0     H76654   6.628   7.591   1.780 -0.2321  0.6125  0.0803
  568MOL0     H76655   6.474   7.580   1.701  2.3197 -1.8161 -0.9031
  568MOL0     H76656   6.554   7.478   1.977 -0.2500  0.5595 -0.3429
  568MOL0     H76657   6.390   7.465   1.917  0.9657  0.8397  0.6353
  568MOL0     H76658   6.644   7.323   1.843 -0.1848 -3.6866  0.4724
  568MOL0     H76659   6.530   7.343   1.716  0.0969 -0.0609  0.1084
  568MOL0     H76660   6.478   7.123   1.791 -1.3168 -1.6395  1.7859
  568MOL0     H76661   6.352   7.223   1.875 -0.5842  0.6986  2.7068
  568MOL0     H76662   6.466   8.245   2.115  0.6458  1.5002  0.1454
  568MOL0     H76663   6.323   8.215   2.313  1.0019  2.7768 -0.5851
  568MOL0     H76664   6.005   8.128   2.535  0.5610  0.8801  0.4436
  568MOL0     H76665   5.964   8.148   2.774 -2.9751 -1.8770 -1.9285
  568MOL0     H76666   6.670   8.010   2.890  0.2416  0.9827 -1.8991
  568MOL0     H76667   6.888   8.123   2.856  0.4483  2.2175 -1.5099
  568MOL0     H76668   7.134   8.421   2.832 -0.3628  1.0510 -0.8282
  568MOL0     H76669   7.334   8.559   2.768  0.4134  3.2325 -0.2813
  568MOL0     H76670   7.490   8.849   3.107  0.9610  0.3144  1.0333
  568MOL0     H76671   7.577   8.705   3.094 -1.9642  0.0341  0.0034
  568MOL0     H76672   7.732   8.919   3.052  0.2032  0.3921 -1.7924
  568MOL0     H76673   7.616   8.953   2.925 -3.4423 -1.0566  0.4185
  568MOL0     H76674   7.834   8.841   2.845  1.4639  0.6508  1.0102
  568MOL0     H76675   7.687   8.754   2.801 -0.0922  0.0597 -0.0819
  568MOL0     H76676   7.859   8.594   2.865 -2.3701 -2.5932  0.1839
  568MOL0     H76677   7.736   8.582   2.980 -0.6069 -0.8183 -4.2210
  568MOL0     H76678   8.026   8.699   3.250 -3.0446 -0.7491  1.5685
  568MOL0     H76679   7.355   8.692   3.175 -2.5986  2.1757 -0.3911
  568MOL0     H76680   7.180   8.555   3.231 -1.7135 -1.9585  0.3177
  569MOL0     O76681   1.150   0.051   4.964 -0.1878  0.5565 -0.0748
  569MOL0     C76682   1.124   0.151   4.904 -0.5595  0.0539  0.8694
  569MOL0     O76683   1.008   0.219   4.893  0.8287 -0.0401 -0.6602
  569MOL0     C76684   0.904   0.164   4.963  0.3934  0.4749 -1.2114
  569MOL0     C76685   0.828   0.262   5.033  0.2646  0.1534  0.2669
  569MOL0     C76686   0.700   0.237   5.087  0.1509 -0.0146 -0.4890
  569MOL0     C76687   0.651   0.104   5.078  0.6555 -0.1504 -0.6384
  569MOL0     O76688   0.546   0.073   5.154  0.0214  0.4858 -0.1819
  569MOL0     C76689   0.425   0.057   5.079 -0.5593 -0.0170 -0.1583
  569MOL0     C76690   0.314   0.012   5.175  0.5584  0.1262 -0.6571
  569MOL0     C76691   0.278   0.101   5.296 -0.3870  0.4794  0.1326
  569MOL0     C76692   0.132   0.068   5.336 -0.2951 -0.1913 -0.1594
  569MOL0     C76693   0.085   0.174   5.430  0.4283 -0.5441 -0.0909
  569MOL0     C76694   0.134   0.148   5.567  0.9279  0.1404 -0.8090
  569MOL0     C76695   0.055   0.232   5.674 -0.2509  0.3054  0.1455
  569MOL0     C76696   0.114   0.229   5.820  0.2803  0.7468  0.3565
  569MOL0     N76697   0.019   0.282   5.915  1.2243  0.3686 -0.6630
  569MOL0     C76698   0.027   0.399   5.986 -0.6940 -1.0130 -0.3638
  569MOL0     C76699  -0.068   0.392   6.080  0.9292 -0.8912 -0.2897
  569MOL0     C76700  -0.099   0.501   6.184  0.5619  0.8580 -0.5220
  569MOL0     C76701  -0.133   0.445   6.325  0.5514  0.4420  0.3577
  569MOL0     C76702  -0.190   0.547   6.419  0.0828 -0.1527  0.3595
  569MOL0     C76703  -0.220   0.493   6.561  1.0497  0.0407  1.0836
  569MOL0     O76704  -0.344   0.420   6.548 -0.8209  0.5823 -0.1273
  569MOL0     C76705  -0.468   0.474   6.577 -0.0357 -0.2782  0.6078
  569MOL0     C76706  -0.502   0.607   6.579  1.2361  0.0801  0.2171
  569MOL0     C76707  -0.629   0.641   6.633  0.5478 -0.0781 -0.9126
  569MOL0     C76708  -0.651   0.788   6.638 -0.1210  0.5292 -0.3271
  569MOL0     C76709  -0.724   0.553   6.666  0.1066  0.2906  0.0176
  569MOL0     C76710  -0.866   0.582   6.710  0.0710  0.1320 -0.3700
  569MOL0     O76711  -0.923   0.488   6.796  0.5743  0.5866 -0.0728
  569MOL0     C76712  -1.061   0.482   6.788  0.2325 -0.1373 -0.3752
  569MOL0     C76713  -1.132   0.461   6.670  0.8502  0.0081 -0.1837
  569MOL0     C76714  -1.274   0.459   6.670  0.3784  0.4266 -0.2153
  569MOL0     C76715  -1.340   0.472   6.791  0.0148 -0.1981 -0.1584
  569MOL0     O76716  -1.478   0.457   6.801  0.6438  0.1707 -0.1330
  569MOL0     C76717  -1.559   0.497   6.688  0.1095 -0.2567 -0.2210
  569MOL0     C76718  -1.580   0.379   6.592  0.7488  0.6581 -0.1818
  569MOL0     C76719  -1.692   0.282   6.637  0.8625 -0.0426 -0.2564
  569MOL0     C76720  -1.828   0.336   6.579  0.2005  0.3217  0.5197
  569MOL0     C76721  -1.943   0.264   6.641  0.7320  0.5242  0.8825
  569MOL0     C76722  -2.093   0.304   6.619 -1.0878 -0.2217  0.0751
  569MOL0     C76723  -2.111   0.451   6.617 -0.2269 -0.0404  0.4349
  569MOL0     C76724  -2.259   0.474   6.591  0.2281 -0.2024  0.5631
  569MOL0    Cl76725  -2.279   0.629   6.504 -0.3369  0.1614  0.1612
  569MOL0     C76726  -1.267   0.479   6.911 -0.2028  0.5556 -0.2540
  569MOL0     C76727  -1.131   0.492   6.911 -0.3725  0.0864  0.5931
  569MOL0     O76728  -0.920   0.686   6.658  0.3506  0.1340 -0.3428
  569MOL0     C76729  -0.692   0.422   6.658  0.6878  0.6200  0.2489
  569MOL0     C76730  -0.566   0.379   6.614 -0.2422 -0.0737 -0.9206
  569MOL0     N76731  -0.121   0.256   6.073 -0.5749  0.2408 -0.6898
  569MOL0     N76732  -0.071   0.199   5.972 -0.3716  0.3581 -0.0816
  569MOL0     C76733   0.728   0.011   5.016  0.2483  0.3553 -0.3224
  569MOL0     C76734   0.849   0.042   4.958 -0.0133  0.4568  0.0542
  569MOL0     C76735   1.245   0.223   4.849 -0.2587 -0.3344  0.0595
  569MOL0     C76736   1.222   0.311   4.739 -0.3170 -0.2425  0.5090
  569MOL0     C76737   1.323   0.365   4.670 -0.5884  0.0032  0.4707
  569MOL0     C76738   1.456   0.335   4.700 -0.3398 -0.7691 -0.4180
  569MOL0     O76739   1.551   0.381   4.611  0.0289  0.4580 -0.0363
  569MOL0     C76740   1.678   0.417   4.663 -0.7901 -1.1237  0.1804
  569MOL0     C76741   1.727   0.539   4.587  0.1382 -1.1555  0.5404
  569MOL0     C76742   1.647   0.670   4.623  0.0918  0.2367 -0.3126
  569MOL0     C76743   1.682   0.794   4.533 -0.3935  0.3151 -0.0723
  569MOL0     C76744   1.617   0.910   4.594 -0.1233 -0.3539  0.4165
  569MOL0     C76745   1.565   1.012   4.648  0.5013  0.8094  0.0776
  569MOL0     C76746   1.487   0.256   4.817 -0.0625  0.2966  0.0981
  569MOL0     C76747   1.380   0.200   4.883  0.2484  0.3176  0.4870
  569MOL0     H76748   0.860   0.366   5.028 -0.1869  0.2859  0.1057
  569MOL0     H76749   0.648   0.327   5.118 -0.1184  0.6621 -2.7029
  569MOL0     H76750   0.397   0.151   5.032  1.0061  0.2600 -0.5667
  569MOL0     H76751   0.437  -0.014   4.997 -1.9711  0.6654 -0.9958
  569MOL0     H76752   0.224   0.002   5.114  0.7891  0.9228 -1.1509
  569MOL0     H76753   0.331  -0.086   5.221 -2.3936 -0.0418  0.2990
  569MOL0     H76754   0.345   0.089   5.382 -2.6154 -0.6464  1.8116
  569MOL0     H76755   0.283   0.207   5.268  0.9548  0.2248 -0.6608
  569MOL0     H76756   0.067   0.061   5.248 -0.4324 -2.7797  0.0741
  569MOL0     H76757   0.131  -0.027   5.389  0.6780 -1.1539 -1.7823
  569MOL0     H76758   0.119   0.274   5.400 -1.4849 -0.1675 -1.1816
  569MOL0     H76759  -0.024   0.166   5.428  0.3163  0.0721  1.5601
  569MOL0     H76760   0.126   0.040   5.586 -4.2138  0.4395  0.1753
  569MOL0     H76761   0.238   0.183   5.578  0.8587 -0.5058  3.3648
  569MOL0     H76762   0.065   0.338   5.650  1.0330  1.0232  3.4017
  569MOL0     H76763  -0.050   0.203   5.669 -0.0367 -0.7115  1.1754
  569MOL0     H76764   0.208   0.285   5.830  0.8680  0.1857 -1.5858
  569MOL0     H76765   0.146   0.127   5.845  3.6787  0.8462 -2.7020
  569MOL0     H76766   0.094   0.481   5.963  0.5429 -1.6739  0.7208
  569MOL0     H76767  -0.008   0.559   6.200  1.5808 -0.6421 -0.6366
  569MOL0     H76768  -0.178   0.558   6.135  0.3083  1.1766  0.2419
  569MOL0     H76769  -0.053   0.388   6.374  0.1554 -1.3152 -0.9415
  569MOL0     H76770  -0.209   0.371   6.297 -0.6747  0.9004  2.3043
  569MOL0     H76771  -0.283   0.580   6.372 -0.1171  3.9362  3.0323
  569MOL0     H76772  -0.109   0.621   6.417 -0.2476  0.2045 -2.1664
  569MOL0     H76773  -0.235   0.579   6.628 -1.3272  0.6341 -0.0691
  569MOL0     H76774  -0.139   0.426   6.590  1.1934 -0.2402  0.0826
  569MOL0     H76775  -0.432   0.688   6.561  0.5691  0.5688 -0.2197
  569MOL0     H76776  -0.559   0.833   6.678  0.5198  0.6324 -1.8497
  569MOL0     H76777  -0.657   0.836   6.540 -0.1128 -0.0160 -0.5981
  569MOL0     H76778  -0.732   0.826   6.701 -2.0002  1.0467 -2.8938
  569MOL0     H76779  -1.076   0.436   6.581 -2.0997  1.0320 -2.4736
  569MOL0     H76780  -1.324   0.444   6.575 -1.3855  1.9005  0.4184
  569MOL0     H76781  -1.658   0.532   6.721 -1.1423 -1.5976 -2.2722
  569MOL0     H76782  -1.510   0.574   6.628  3.3470 -0.9081  1.4082
  569MOL0     H76783  -1.592   0.406   6.486 -0.7663  0.9811  0.0457
  569MOL0     H76784  -1.488   0.321   6.579  0.2286  0.0068 -1.0811
  569MOL0     H76785  -1.702   0.272   6.745  0.8362 -2.1190 -0.4104
  569MOL0     H76786  -1.668   0.182   6.599 -0.8510 -0.2334 -0.9369
  569MOL0     H76787  -1.836   0.443   6.601  1.8504  0.1486  2.1257
  569MOL0     H76788  -1.836   0.326   6.470  1.2866  1.5252  0.3162
  569MOL0     H76789  -1.921   0.275   6.748  1.5435  2.7447  0.5335
  569MOL0     H76790  -1.931   0.162   6.603 -1.0542  1.3386 -2.2255
  569MOL0     H76791  -2.122   0.266   6.520  0.8543  0.3355 -0.7514
  569MOL0     H76792  -2.144   0.255   6.703 -1.8847  0.2699 -0.1015
  569MOL0     H76793  -2.050   0.492   6.537  0.3177 -1.2691  0.2085
  569MOL0     H76794  -2.079   0.496   6.712 -2.4839  0.6127  0.9659
  569MOL0     H76795  -2.308   0.479   6.689  0.6424  1.8985  0.7196
  569MOL0     H76796  -2.293   0.391   6.529  2.1223 -0.0573 -0.7580
  569MOL0     H76797  -1.329   0.481   7.000 -2.3296 -1.8149 -1.5462
  569MOL0     H76798  -1.078   0.493   7.005 -1.4940  0.0746  1.2473
  569MOL0     H76799  -0.764   0.343   6.676 -2.4191  2.1474 -3.7240
  569MOL0     H76800  -0.536   0.274   6.613  1.1462  0.2840 -0.0435
  569MOL0     H76801   0.687  -0.090   5.015 -1.2471  0.8700  1.9576
  569MOL0     H76802   0.898  -0.038   4.904 -1.3254 -0.4868  0.1939
  569MOL0     H76803   1.121   0.325   4.702 -0.6151  0.7787  1.6219
  569MOL0     H76804   1.301   0.430   4.586  3.9414  0.0209 -1.0118
  569MOL0     H76805   1.673   0.439   4.771  2.9035  1.8453 -0.0277
  569MOL0     H76806   1.745   0.334   4.639  1.3685  0.3979  0.5673
  569MOL0     H76807   1.714   0.515   4.481  0.3695 -0.6648  0.3983
  569MOL0     H76808   1.831   0.569   4.598 -0.5069  1.9603 -0.7660
  569MOL0     H76809   1.673   0.689   4.728  1.4931 -0.0468 -0.5846
  569MOL0     H76810   1.539   0.653   4.612  0.2986 -0.7753 -0.9376
  569MOL0     H76811   1.647   0.784   4.430 -4.1103 -0.0757  1.0776
  569MOL0     H76812   1.790   0.814   4.530 -0.2425 -0.3611  0.5546
  569MOL0     H76813   1.512   1.089   4.701 -0.2497  0.8635 -0.7248
  569MOL0     H76814   1.587   0.245   4.858  0.3100  1.3851 -0.4693
  569MOL0     H76815   1.412   0.135   4.964  0.6634 -0.8181 -0.5592
  570MOL0     O76816   9.962   9.971   4.278 -0.3112 -0.2870  0.0456
  570MOL0     C76817  10.067  10.016   4.325 -0.2844  0.0492  0.1370
  570MOL0     O76818  10.096  10.147   4.355 -0.0241  0.3907  1.1196
  570MOL0     C76819  10.001  10.249   4.360 -0.7257  0.1705  0.0536
  570MOL0     C76820  10.031  10.372   4.323  0.5433  0.3848 -0.1899
  570MOL0     C76821   9.931  10.476   4.322 -1.1275  0.1109  0.2272
  570MOL0     C76822   9.803  10.455   4.381 -1.1655 -0.3684 -0.1517
  570MOL0     O76823   9.703  10.537   4.392 -0.1373  0.2936  0.6023
  570MOL0     C76824   9.701  10.676   4.335  0.1084 -0.4030 -0.4538
  570MOL0     C76825   9.569  10.743   4.364 -0.2839 -0.2756 -0.4486
  570MOL0     C76826   9.448  10.655   4.339 -1.5974 -0.2497  0.8672
  570MOL0     C76827   9.327  10.713   4.417 -0.1362 -0.0030 -0.0391
  570MOL0     C76828   9.189  10.655   4.394 -0.0132  0.4358 -0.9351
  570MOL0     C76829   9.100  10.731   4.491  0.6016  1.0832  1.0304
  570MOL0     C76830   8.954  10.678   4.470  0.1551 -0.4789 -0.1709
  570MOL0     C76831   8.928  10.538   4.516  0.3085 -0.0990 -0.1349
  570MOL0     N76832   8.791  10.524   4.564 -0.3489  0.1747  0.5194
  570MOL0     C76833   8.683  10.569   4.486  0.1494  0.8958 -0.1497
  570MOL0     C76834   8.578  10.553   4.577  0.2024  0.3041 -1.2789
  570MOL0     C76835   8.428  10.562   4.545 -0.3597 -0.3570 -0.7222
  570MOL0     C76836   8.363  10.448   4.455  0.2695  0.7642  0.4902
  570MOL0     C76837   8.303  10.339   4.554  0.2974  0.4115  0.4378
  570MOL0     C76838   8.229  10.227   4.480  0.2902  0.3680 -0.2452
  570MOL0     O76839   8.150  10.160   4.582 -0.3534  0.4243  0.6641
  570MOL0     C76840   8.021  10.166   4.537  0.2851 -1.0565 -0.8162
  570MOL0     C76841   7.965  10.064   4.455  0.3339  0.2051 -0.0809
  570MOL0     C76842   7.839  10.086   4.397 -0.5277 -0.2429  0.4805
  570MOL0     C76843   7.792   9.987   4.303  0.6753  0.5980 -0.0347
  570MOL0     C76844   7.766  10.202   4.423 -0.0203  0.4442  0.3070
  570MOL0     C76845   7.627  10.226   4.378  0.5050 -0.3924 -0.2762
  570MOL0     O76846   7.540  10.128   4.332 -0.3020 -0.9068 -0.4060
  570MOL0     C76847   7.412  10.164   4.286 -0.6661 -0.0656 -0.3141
  570MOL0     C76848   7.385  10.201   4.156 -0.4084 -0.3301  0.2260
  570MOL0     C76849   7.252  10.228   4.117 -0.4759 -0.3646  0.0953
  570MOL0     C76850   7.145  10.224   4.218 -0.1522  0.0299 -0.4679
  570MOL0     O76851   7.018  10.265   4.177 -0.5427  0.0761 -0.4463
  570MOL0     C76852   6.916  10.273   4.287  0.1040  0.9050 -0.2976
  570MOL0     C76853   6.771  10.309   4.237  0.2672  0.4884  1.0832
  570MOL0     C76854   6.729  10.226   4.111 -0.7368  0.1912 -1.0684
  570MOL0     C76855   6.582  10.211   4.082  0.3520  0.1209  0.4047
  570MOL0     C76856   6.506  10.344   4.069 -0.1358 -0.2360 -0.0571
  570MOL0     C76857   6.360  10.333   4.039  0.6732 -0.2724 -0.0738
  570MOL0     C76858   6.280  10.234   4.125  0.2820 -0.8172  0.3593
  570MOL0     C76859   6.132  10.236   4.088 -0.1774 -0.5713  0.0290
  570MOL0    Cl76860   6.051  10.391   4.130  0.5779 -0.2304  0.1991
  570MOL0     C76861   7.173  10.175   4.342 -0.1052  0.1497  0.0911
  570MOL0     C76862   7.308  10.154   4.370 -0.1577 -0.1844  0.1778
  570MOL0     O76863   7.594  10.346   4.378  0.6213  0.4096 -0.0167
  570MOL0     C76864   7.817  10.294   4.515 -0.6748  0.6180 -0.1726
  570MOL0     C76865   7.946  10.281   4.568 -0.2636  0.0904  0.4360
  570MOL0     N76866   8.630  10.528   4.700 -0.4004 -0.1754 -0.6116
  570MOL0     N76867   8.761  10.503   4.690  0.5224  0.3979  0.7778
  570MOL0     C76868   9.775  10.320   4.420 -0.4587 -0.0784 -0.4007
  570MOL0     C76869   9.872  10.220   4.409  0.3614 -0.9745  0.2979
  570MOL0     C76870  10.162   9.910   4.371 -0.4561  0.1247  0.0501
  570MOL0     C76871  10.163   9.780   4.311  1.0581 -0.3203 -0.9060
  570MOL0     C76872  10.266   9.685   4.349 -0.0760 -0.3749  0.7440
  570MOL0     C76873  10.365   9.723   4.440 -0.1594 -0.0464  0.5714
  570MOL0     O76874  10.461   9.625   4.460  0.4510 -0.9861  0.7589
  570MOL0     C76875  10.556   9.647   4.564  1.4004  0.3637 -0.3192
  570MOL0     C76876  10.666   9.544   4.538  0.7365 -0.1394 -0.6088
  570MOL0     C76877  10.758   9.590   4.424 -0.4314 -0.5626  0.0771
  570MOL0     C76878  10.889   9.512   4.425  0.1756  1.0706  0.9282
  570MOL0     C76879  10.996   9.612   4.397 -0.5927  0.0253  0.1223
  570MOL0     C76880  11.093   9.682   4.365 -0.4923 -0.3634  0.6281
  570MOL0     C76881  10.364   9.848   4.495 -0.6872 -0.9016  0.5535
  570MOL0     C76882  10.259   9.938   4.469  0.1091  0.1846 -0.2363
  570MOL0     H76883  10.125  10.410   4.284 -0.6873  3.4617 -0.4272
  570MOL0     H76884   9.951  10.575   4.284  0.0391 -1.6884 -4.5526
  570MOL0     H76885   9.787  10.726   4.380  0.3020  0.1600 -1.4173
  570MOL0     H76886   9.713  10.672   4.227  0.3721 -0.5962 -0.4184
  570MOL0     H76887   9.577  10.774   4.468  0.5568  1.1118 -0.9033
  570MOL0     H76888   9.561  10.834   4.304 -0.8628  0.4594  0.7251
  570MOL0     H76889   9.430  10.647   4.231  2.3046 -1.1887  0.1368
  570MOL0     H76890   9.466  10.553   4.373 -1.6357 -0.1336  1.2453
  570MOL0     H76891   9.347  10.706   4.524 -1.7136  0.8937  0.3573
  570MOL0     H76892   9.316  10.822   4.407 -0.5447  0.0143  0.5032
  570MOL0     H76893   9.155  10.666   4.291 -0.1852 -0.2936 -0.9559
  570MOL0     H76894   9.199  10.549   4.416 -0.9636  0.5321  0.0734
  570MOL0     H76895   9.127  10.699   4.592  1.2932 -1.4744  0.1280
  570MOL0     H76896   9.103  10.839   4.471 -0.6164  0.9063 -0.3197
  570MOL0     H76897   8.885  10.740   4.529  0.5100 -0.0015 -0.2521
  570MOL0     H76898   8.922  10.682   4.366  0.1162 -2.8395 -0.3119
  570MOL0     H76899   8.991  10.527   4.605  1.9574 -0.5912 -1.3102
  570MOL0     H76900   8.950  10.460   4.442 -0.8035 -2.6656  2.0704
  570MOL0     H76901   8.688  10.603   4.383  1.6086 -0.9462 -0.7648
  570MOL0     H76902   8.374  10.557   4.640  0.2400  1.6772 -0.2186
  570MOL0     H76903   8.430  10.659   4.494 -1.0779  0.6914  1.1194
  570MOL0     H76904   8.440  10.406   4.390  0.2172  2.3033 -0.6296
  570MOL0     H76905   8.287  10.490   4.388  1.7689 -0.2772 -2.0053
  570MOL0     H76906   8.228  10.384   4.621  0.9140  0.2558  1.2512
  570MOL0     H76907   8.384  10.302   4.616  1.3606  1.9639  0.0372
  570MOL0     H76908   8.306  10.158   4.444  1.0155  0.8124  0.4268
  570MOL0     H76909   8.171  10.276   4.401  2.8086  1.0550 -1.7871
  570MOL0     H76910   8.037   9.985   4.436  1.6304  0.3871  3.3238
  570MOL0     H76911   7.843   9.890   4.301 -0.1045  0.1909 -2.2707
  570MOL0     H76912   7.688   9.961   4.323  0.8004  0.1853  0.1044
  570MOL0     H76913   7.803  10.032   4.204  3.5731 -2.7493 -1.4562
  570MOL0     H76914   7.464  10.215   4.084  0.0474  1.2324  0.9821
  570MOL0     H76915   7.226  10.240   4.012  1.8474 -3.0877 -0.9367
  570MOL0     H76916   6.907  10.171   4.327 -0.1167  0.9790 -0.1516
  570MOL0     H76917   6.952  10.330   4.373  1.0386 -3.5223  2.5673
  570MOL0     H76918   6.696  10.289   4.314 -1.7136 -1.2020 -1.1356
  570MOL0     H76919   6.762  10.417   4.219 -1.2851  0.1104 -0.7379
  570MOL0     H76920   6.795  10.139   4.113 -0.8183  0.0884  2.0564
  570MOL0     H76921   6.776  10.279   4.027  2.4028 -1.6934 -0.6391
  570MOL0     H76922   6.562  10.151   3.993  0.3185 -2.6972  2.2015
  570MOL0     H76923   6.537  10.146   4.157 -1.3832 -0.2806 -0.9246
  570MOL0     H76924   6.550  10.400   3.985 -2.7276  1.0242 -0.6716
  570MOL0     H76925   6.517  10.404   4.159 -0.8963  2.0659 -1.4062
  570MOL0     H76926   6.317  10.434   4.046 -0.3614 -0.6005 -1.3864
  570MOL0     H76927   6.339  10.294   3.939 -3.1833  0.8808  0.1392
  570MOL0     H76928   6.278  10.253   4.233 -1.5412 -0.0773  0.2345
  570MOL0     H76929   6.317  10.133   4.104 -1.3501 -1.3146 -0.3037
  570MOL0     H76930   6.096  10.161   4.159  1.5740 -1.0661  0.4398
  570MOL0     H76931   6.112  10.215   3.982  0.5035  0.5719 -0.3451
  570MOL0     H76932   7.102  10.174   4.425 -2.9369 -0.5031 -2.1975
  570MOL0     H76933   7.337  10.109   4.465  0.5916 -0.7609 -0.3158
  570MOL0     H76934   7.761  10.380   4.550 -3.8057 -1.7446  1.1485
  570MOL0     H76935   7.999  10.349   4.635  0.3897  0.7805 -0.7551
  570MOL0     H76936   9.678  10.297   4.462 -2.1641  2.4675 -2.5332
  570MOL0     H76937   9.848  10.120   4.446 -0.7958 -0.5771  0.6776
  570MOL0     H76938  10.082   9.757   4.242 -0.1759  0.3297  0.2848
  570MOL0     H76939  10.278   9.591   4.296  2.2557 -1.6410  3.2862
  570MOL0     H76940  10.592   9.750   4.570  1.7711  0.3071 -1.4273
  570MOL0     H76941  10.498   9.634   4.656  1.3816  1.3555 -0.1775
  570MOL0     H76942  10.616   9.454   4.499 -1.7526  1.1373 -0.5402
  570MOL0     H76943  10.715   9.519   4.633 -1.5153 -0.0137  0.6383
  570MOL0     H76944  10.792   9.693   4.435  0.7318 -0.9437  0.2075
  570MOL0     H76945  10.702   9.581   4.331  0.3811  2.9266 -0.8971
  570MOL0     H76946  10.897   9.436   4.347 -1.3322  0.5295  1.2615
  570MOL0     H76947  10.904   9.465   4.522  2.9494  2.4008  1.2189
  570MOL0     H76948  11.183   9.735   4.341 -1.1253  0.3300 -0.2870
  570MOL0     H76949  10.440   9.877   4.568 -2.0145 -0.0548  1.6500
  570MOL0     H76950  10.260  10.035   4.518  1.7698 -0.4063  0.9920
  571MOL0     O76951   3.060  10.718   5.309  0.5948  0.0999  0.6466
  571MOL0     C76952   3.045  10.788   5.206 -0.0299 -0.2884 -0.1147
  571MOL0     O76953   3.130  10.791   5.102 -0.0254  0.0487 -0.5147
  571MOL0     C76954   3.245  10.714   5.108  0.7203  0.1581  0.1173
  571MOL0     C76955   3.348  10.742   5.199 -0.6538  0.6783  0.1866
  571MOL0     C76956   3.461  10.665   5.202  0.2238  0.0320  0.2637
  571MOL0     C76957   3.489  10.556   5.114 -1.0184 -0.2527 -0.3782
  571MOL0     O76958   3.618  10.492   5.118  1.0783 -0.0977 -0.0404
  571MOL0     C76959   3.654  10.397   5.013 -0.3974  0.0123 -0.2897
  571MOL0     C76960   3.738  10.468   4.910 -0.0466 -0.3601 -0.2757
  571MOL0     C76961   3.758  10.371   4.792 -0.1541  0.2042  1.1085
  571MOL0     C76962   3.883  10.418   4.708 -0.0738  0.3216 -0.0363
  571MOL0     C76963   3.913  10.319   4.592  0.3421 -0.1041 -0.0286
  571MOL0     C76964   4.050  10.341   4.532 -0.5284 -0.6144 -1.0030
  571MOL0     C76965   4.076  10.249   4.415 -0.7766  0.1305  0.3462
  571MOL0     C76966   4.094  10.097   4.442  0.0720 -0.1639 -0.0819
  571MOL0     N76967   4.084  10.022   4.317  0.2011  0.3804  0.0512
  571MOL0     C76968   4.003  10.060   4.212  0.5753 -0.2048 -0.0260
  571MOL0     C76969   4.060   9.986   4.110 -1.1407  0.0254 -0.7114
  571MOL0     C76970   4.005   9.984   3.965 -0.8659 -0.3327  0.0768
  571MOL0     C76971   4.118  10.016   3.863 -0.1227 -0.5495 -0.2901
  571MOL0     C76972   4.075   9.979   3.718 -0.3804  0.7117 -0.2546
  571MOL0     C76973   4.179  10.030   3.617 -0.0227  0.0276 -0.3479
  571MOL0     O76974   4.171  10.169   3.590  0.3534 -0.1337  0.5058
  571MOL0     C76975   4.088  10.223   3.491 -0.2238 -0.7906  0.6242
  571MOL0     C76976   3.979  10.159   3.434  0.9948  0.0770  0.0909
  571MOL0     C76977   3.904  10.226   3.334  0.2790 -0.5467  0.3817
  571MOL0     C76978   3.781  10.155   3.296  0.2740 -0.1632  0.7702
  571MOL0     C76979   3.946  10.358   3.283  0.1056  0.5801 -0.1761
  571MOL0     C76980   3.870  10.442   3.180  0.1290  0.6847 -0.5213
  571MOL0     O76981   3.938  10.554   3.143 -0.0747  1.0462 -0.9581
  571MOL0     C76982   3.873  10.629   3.065 -0.1255  0.0628  0.4014
  571MOL0     C76983   3.922  10.667   2.943 -0.8848  0.5051 -0.5825
  571MOL0     C76984   3.856  10.750   2.849  0.2431 -0.0599  0.0425
  571MOL0     C76985   3.736  10.810   2.892 -0.1309 -0.8241 -0.1642
  571MOL0     O76986   3.688  10.907   2.801 -0.2080  0.3241 -0.2363
  571MOL0     C76987   3.611  11.016   2.860  0.4285 -0.7836 -0.5251
  571MOL0     C76988   3.463  10.997   2.852  0.4149 -0.0640  0.2211
  571MOL0     C76989   3.419  11.006   2.703 -0.3000 -0.4161  0.3302
  571MOL0     C76990   3.282  10.972   2.673  0.5062 -0.5493 -0.7380
  571MOL0     C76991   3.253  10.828   2.715  1.0059  0.0791 -0.0623
  571MOL0     C76992   3.121  10.771   2.656  0.0428 -0.2527 -0.6854
  571MOL0     C76993   2.998  10.847   2.702  0.2443  0.0942 -0.1493
  571MOL0     C76994   2.874  10.797   2.631  0.1111  0.0720  0.4251
  571MOL0    Cl76995   2.839  10.626   2.675  0.4158  0.1838  0.1942
  571MOL0     C76996   3.685  10.782   3.025 -0.4489  0.0068  0.6004
  571MOL0     C76997   3.752  10.687   3.098 -0.3297 -0.1236 -0.4461
  571MOL0     O76998   3.766  10.395   3.132 -0.1553 -0.7594 -0.4223
  571MOL0     C76999   4.056  10.412   3.344 -0.3414 -0.2348  0.9784
  571MOL0     C77000   4.117  10.356   3.454 -0.8738 -0.4387  0.2146
  571MOL0     N77001   4.160   9.905   4.160  0.3504 -0.2695 -0.0136
  571MOL0     N77002   4.178   9.931   4.284 -0.0749  0.1016 -0.0287
  571MOL0     C77003   3.389  10.532   5.026  0.1274 -0.1614  0.4219
  571MOL0     C77004   3.267  10.604   5.032  0.4022 -0.2918  0.0912
  571MOL0     C77005   2.929  10.880   5.185  0.1608  0.8952 -0.6093
  571MOL0     C77006   2.932  10.962   5.074  0.0691 -0.1393 -0.2761
  571MOL0     C77007   2.819  11.046   5.035  0.5820  0.2964  0.0429
  571MOL0     C77008   2.710  11.036   5.121 -0.4085 -1.4658  0.1101
  571MOL0     O77009   2.609  11.101   5.078 -0.0265  0.3253 -0.2989
  571MOL0     C77010   2.559  11.214   5.148 -0.8108  0.0515  0.3163
  571MOL0     C77011   2.433  11.276   5.073  0.5763 -0.0568  0.4849
  571MOL0     C77012   2.479  11.358   4.952 -0.0955  0.7097 -1.2559
  571MOL0     C77013   2.513  11.505   4.981 -0.0774 -0.1247  0.5730
  571MOL0     C77014   2.499  11.586   4.863 -0.4284 -0.2173 -0.1421
  571MOL0     C77015   2.500  11.640   4.753 -0.5995  0.2989  0.4973
  571MOL0     C77016   2.714  10.969   5.241 -0.8258  0.6100 -0.3990
  571MOL0     C77017   2.824  10.887   5.272  0.0864  1.4845  0.2096
  571MOL0     H77018   3.352  10.831   5.261  1.1525  0.8352 -0.0924
  571MOL0     H77019   3.537  10.692   5.274 -0.4518 -1.5213  1.6241
  571MOL0     H77020   3.705  10.309   5.054 -0.0252 -0.0180 -0.8140
  571MOL0     H77021   3.569  10.357   4.957 -2.6639  2.1578  1.3867
  571MOL0     H77022   3.684  10.556   4.873 -0.7020 -1.1393 -1.2084
  571MOL0     H77023   3.838  10.496   4.946  0.1028 -2.0925  0.7701
  571MOL0     H77024   3.765  10.269   4.830 -1.1766 -0.2837  0.0579
  571MOL0     H77025   3.662  10.370   4.740  0.0706  0.9528  0.6508
  571MOL0     H77026   3.864  10.521   4.675 -3.6839  0.0672  0.8808
  571MOL0     H77027   3.975  10.419   4.768  0.1265 -0.2910 -0.3234
  571MOL0     H77028   3.912  10.216   4.629 -2.7902 -0.0068  0.4551
  571MOL0     H77029   3.831  10.330   4.520 -2.9679  1.5994  3.5911
  571MOL0     H77030   4.067  10.445   4.504  2.4881 -0.2111  1.6457
  571MOL0     H77031   4.127  10.320   4.608 -1.0171  0.9860 -0.0216
  571MOL0     H77032   3.996  10.269   4.343 -0.4178 -2.0279 -0.7515
  571MOL0     H77033   4.165  10.293   4.370 -1.1009 -1.9728 -2.6700
  571MOL0     H77034   4.027  10.063   4.522  0.9464  1.2335  1.2966
  571MOL0     H77035   4.195  10.083   4.482  1.2629  0.4789 -2.6363
  571MOL0     H77036   3.918  10.126   4.198  0.2504 -1.1066 -2.7101
  571MOL0     H77037   3.968   9.883   3.946 -0.9657 -0.1803 -0.5527
  571MOL0     H77038   3.927  10.059   3.950  1.2868  2.4117  1.6201
  571MOL0     H77039   4.218   9.974   3.877  0.1000  0.5123  1.8044
  571MOL0     H77040   4.131  10.124   3.878 -1.3957 -0.7933  3.7251
  571MOL0     H77041   3.982  10.034   3.700  1.4588  3.7668 -1.0362
  571MOL0     H77042   4.055   9.872   3.714 -1.6355  0.9452 -0.5962
  571MOL0     H77043   4.159   9.979   3.522 -0.9668  4.3784 -2.7693
  571MOL0     H77044   4.284  10.006   3.640  0.0132  1.0379  0.6510
  571MOL0     H77045   3.945  10.060   3.464 -3.6718  0.9449 -1.5805
  571MOL0     H77046   3.799  10.102   3.202  0.2950  1.5622 -0.2407
  571MOL0     H77047   3.761  10.082   3.374 -1.8717  0.0328  0.4759
  571MOL0     H77048   3.694  10.215   3.268  0.0221 -0.7739  0.2088
  571MOL0     H77049   4.023  10.642   2.912  0.1681  2.5613  1.0090
  571MOL0     H77050   3.913  10.784   2.763  0.7924  3.9702  1.7736
  571MOL0     H77051   3.641  11.033   2.964  4.5149 -1.8790 -1.3442
  571MOL0     H77052   3.634  11.104   2.799  0.1815 -0.9457 -0.8559
  571MOL0     H77053   3.437  10.901   2.896  0.7985 -0.2155  0.1211
  571MOL0     H77054   3.420  11.084   2.902 -0.7337  1.7709 -3.5519
  571MOL0     H77055   3.481  10.940   2.642  1.3009  0.0567  1.3803
  571MOL0     H77056   3.438  11.111   2.679 -0.9537 -0.6113 -1.1403
  571MOL0     H77057   3.215  11.036   2.732  0.1318 -3.2624  2.0105
  571MOL0     H77058   3.263  10.991   2.567  0.6664  0.9444 -0.5313
  571MOL0     H77059   3.235  10.832   2.822  1.7674  0.6228  0.0543
  571MOL0     H77060   3.341  10.768   2.689  0.4957 -0.7918  0.2122
  571MOL0     H77061   3.122  10.758   2.548  0.4622  0.4573 -0.7701
  571MOL0     H77062   3.120  10.666   2.688  0.8081 -0.1042 -0.1428
  571MOL0     H77063   3.014  10.952   2.676  1.1346  1.1769  3.9662
  571MOL0     H77064   2.989  10.848   2.811 -2.2362 -1.1070 -0.2792
  571MOL0     H77065   2.876  10.806   2.522 -0.8195  0.1418  0.4052
  571MOL0     H77066   2.787  10.859   2.655 -0.5289 -0.1889 -1.1259
  571MOL0     H77067   3.608  10.843   3.069 -0.1482  0.6084  0.3008
  571MOL0     H77068   3.702  10.663   3.192  1.9684 -0.7510  0.6902
  571MOL0     H77069   4.100  10.508   3.318  0.1510 -0.3065  1.5424
  571MOL0     H77070   4.199  10.414   3.495 -0.0742 -2.6180  1.8763
  571MOL0     H77071   3.383  10.446   4.960 -2.5095  1.1947 -1.2908
  571MOL0     H77072   3.184  10.575   4.968  1.5760  1.8912 -2.6396
  571MOL0     H77073   3.018  10.956   5.008  1.2702 -2.6760  1.3617
  571MOL0     H77074   2.793  11.095   4.941 -2.8935  0.3839  0.9024
  571MOL0     H77075   2.543  11.201   5.255 -2.9784  0.1520  0.0516
  571MOL0     H77076   2.642  11.284   5.160 -2.1174  1.9504 -1.1325
  571MOL0     H77077   2.378  11.341   5.142 -1.2588 -1.3698  0.3226
  571MOL0     H77078   2.374  11.188   5.046 -1.0541 -0.8270  5.4558
  571MOL0     H77079   2.402  11.345   4.875 -1.3217  0.0173  0.0460
  571MOL0     H77080   2.570  11.316   4.908 -0.3433 -0.2078 -0.8965
  571MOL0     H77081   2.621  11.515   4.998  0.0484  0.2120 -0.3555
  571MOL0     H77082   2.453  11.545   5.062 -2.7388 -2.7156  0.0571
  571MOL0     H77083   2.492  11.670   4.651  0.2750 -1.3272 -0.0932
  571MOL0     H77084   2.629  10.959   5.307  0.3802 -2.0013  0.9097
  571MOL0     H77085   2.829  10.817   5.355 -1.0261  1.2101  0.0515
  572MOL0     O77086   4.709   5.439   0.417  0.5377 -0.2921 -0.4521
  572MOL0     C77087   4.684   5.381   0.523  0.6930  0.1983 -0.1528
  572MOL0     O77088   4.579   5.392   0.603 -0.1941 -0.4429 -0.5891
  572MOL0     C77089   4.472   5.472   0.575 -0.3530 -0.1670  1.0903
  572MOL0     C77090   4.495   5.608   0.540 -0.1778  1.0398  0.5086
  572MOL0     C77091   4.382   5.691   0.515  0.8191  0.4565  0.4131
  572MOL0     C77092   4.257   5.642   0.524  0.6719 -0.6266 -0.2726
  572MOL0     O77093   4.164   5.743   0.494 -0.1727 -0.0441 -0.2559
  572MOL0     C77094   4.024   5.718   0.514  0.1587 -0.2412 -0.3028
  572MOL0     C77095   3.961   5.654   0.396  0.1144  1.2811 -0.1054
  572MOL0     C77096   3.804   5.648   0.400  0.2192  0.2634  0.2575
  572MOL0     C77097   3.741   5.781   0.370  1.2982  0.0458 -0.5949
  572MOL0     C77098   3.595   5.782   0.370  0.4069 -0.7379 -0.7238
  572MOL0     C77099   3.512   5.750   0.502  0.4505 -1.3645  0.6756
  572MOL0     C77100   3.523   5.870   0.598  0.2645  0.4593  0.8686
  572MOL0     C77101   3.418   5.875   0.710  0.1382 -0.1999  0.2213
  572MOL0     N77102   3.429   6.010   0.775  0.7766  0.3121 -0.5347
  572MOL0     C77103   3.345   6.057   0.873 -0.8708 -0.7035 -0.0705
  572MOL0     C77104   3.399   6.180   0.907  0.0685  0.2322 -0.3974
  572MOL0     C77105   3.371   6.264   1.031  0.0936  0.1128  0.2642
  572MOL0     C77106   3.400   6.191   1.162  0.5652 -0.7612 -0.1830
  572MOL0     C77107   3.365   6.279   1.274  0.2919 -0.2369  0.2247
  572MOL0     C77108   3.335   6.189   1.398  0.1045 -0.1826 -0.4170
  572MOL0     O77109   3.225   6.094   1.370 -0.0626  0.1618 -0.6491
  572MOL0     C77110   3.191   6.004   1.477  0.1364  0.2219 -0.1715
  572MOL0     C77111   3.227   6.027   1.616  0.9333  0.0974  0.0212
  572MOL0     C77112   3.168   5.954   1.721 -0.7855 -0.5881 -0.0801
  572MOL0     C77113   3.201   6.004   1.859  0.1637 -0.3088  0.1697
  572MOL0     C77114   3.089   5.837   1.696 -0.0204  0.6284  0.3036
  572MOL0     C77115   3.016   5.750   1.799 -1.0060  0.1200 -0.4529
  572MOL0     O77116   2.957   5.630   1.749 -0.8468 -0.2154 -0.0296
  572MOL0     C77117   2.870   5.565   1.834 -0.0440 -0.4727  0.6733
  572MOL0     C77118   2.761   5.635   1.896  0.0073 -0.6812 -0.0601
  572MOL0     C77119   2.674   5.570   1.978  0.4278  0.3941  1.1772
  572MOL0     C77120   2.696   5.438   2.016  0.2175 -0.0641  0.6459
  572MOL0     O77121   2.615   5.361   2.099 -0.0386  0.0840  0.5175
  572MOL0     C77122   2.506   5.426   2.156  0.1391 -0.1200 -0.1148
  572MOL0     C77123   2.435   5.308   2.209 -0.4109 -0.0610  0.2870
  572MOL0     C77124   2.308   5.354   2.275 -0.0749 -1.2832  0.5918
  572MOL0     C77125   2.230   5.238   2.330  0.2294  0.4412  0.3603
  572MOL0     C77126   2.089   5.293   2.381 -0.7082 -0.0110  0.6577
  572MOL0     C77127   2.017   5.165   2.416  0.5359 -0.0001 -0.2232
  572MOL0     C77128   1.871   5.199   2.457 -0.2927  0.5924 -0.1050
  572MOL0     C77129   1.814   5.100   2.570 -0.0582 -0.0178 -0.5782
  572MOL0    Cl77130   1.632   5.121   2.588  0.3465  0.1027  0.4524
  572MOL0     C77131   2.799   5.369   1.955 -0.1040  0.6025  0.0131
  572MOL0     C77132   2.890   5.431   1.860  0.0122  0.2298 -0.3309
  572MOL0     O77133   2.994   5.801   1.910  0.2754 -0.3355  0.0796
  572MOL0     C77134   3.059   5.815   1.563 -0.6129 -0.0905  0.9025
  572MOL0     C77135   3.113   5.892   1.454  1.0225  0.0244 -0.9195
  572MOL0     N77136   3.506   6.215   0.832 -0.7741 -0.3086 -1.3806
  572MOL0     N77137   3.524   6.119   0.756 -0.2371  0.8546 -0.3510
  572MOL0     C77138   4.233   5.507   0.557 -0.9705  0.7223 -0.2437
  572MOL0     C77139   4.339   5.424   0.592  0.0786  1.0442 -0.7962
  572MOL0     C77140   4.785   5.288   0.570 -0.2572 -0.1219  0.2853
  572MOL0     C77141   4.903   5.291   0.500 -0.1414  0.5434  0.3761
  572MOL0     C77142   5.004   5.197   0.541  0.2050 -0.0008 -0.6972
  572MOL0     C77143   4.981   5.104   0.640  0.4324 -0.6897  0.2678
  572MOL0     O77144   5.060   4.998   0.682 -0.3093 -0.1909 -1.0455
  572MOL0     C77145   5.114   4.927   0.570 -0.0055  0.7533 -0.6004
  572MOL0     C77146   5.017   4.818   0.503 -0.3424 -0.2888 -0.1127
  572MOL0     C77147   4.932   4.741   0.609 -0.5872 -0.7054  0.7836
  572MOL0     C77148   4.828   4.667   0.532 -0.2578  0.6168 -1.1306
  572MOL0     C77149   4.764   4.580   0.629 -0.1992 -0.0660 -0.5471
  572MOL0     C77150   4.700   4.500   0.680 -0.1431  0.1230  0.3642
  572MOL0     C77151   4.862   5.114   0.712  0.4868  0.1557 -0.5941
  572MOL0     C77152   4.763   5.199   0.673 -0.6145  0.4475 -0.0748
  572MOL0     H77153   4.594   5.650   0.554  0.3388  0.4155 -1.0352
  572MOL0     H77154   4.398   5.795   0.488  1.2396 -0.1534 -1.9268
  572MOL0     H77155   4.006   5.652   0.600 -1.7020  1.3992  0.6627
  572MOL0     H77156   3.983   5.815   0.543  0.2687 -0.9059  2.3062
  572MOL0     H77157   3.993   5.697   0.301  1.6183  0.2805 -0.0864
  572MOL0     H77158   4.003   5.553   0.393 -0.8694  0.8636 -0.2414
  572MOL0     H77159   3.763   5.570   0.335 -3.4646  1.3010  1.1346
  572MOL0     H77160   3.771   5.613   0.498 -3.9816 -0.9477 -1.3866
  572MOL0     H77161   3.777   5.853   0.445  1.1036  0.2469 -0.6922
  572MOL0     H77162   3.763   5.824   0.272  2.4463 -5.0860 -2.9241
  572MOL0     H77163   3.568   5.881   0.333  0.5915 -1.3444 -2.5642
  572MOL0     H77164   3.566   5.715   0.288  0.1519 -3.7173  1.6243
  572MOL0     H77165   3.405   5.745   0.477  0.4319 -0.2467  0.4907
  572MOL0     H77166   3.545   5.657   0.549  3.2105 -1.3407 -0.9965
  572MOL0     H77167   3.623   5.865   0.642  0.9724 -2.7599 -0.8048
  572MOL0     H77168   3.508   5.957   0.534 -3.4070 -0.8025 -0.2464
  572MOL0     H77169   3.427   5.802   0.791  2.9424 -0.8614 -0.5824
  572MOL0     H77170   3.315   5.867   0.675 -0.2132  0.7799  0.9883
  572MOL0     H77171   3.268   6.001   0.926 -0.6202 -1.5760 -0.5908
  572MOL0     H77172   3.424   6.359   1.017  1.1491 -0.7631 -2.1407
  572MOL0     H77173   3.266   6.289   1.050 -0.0351  1.8615 -2.2786
  572MOL0     H77174   3.507   6.169   1.170  0.4975 -0.4917  1.9142
  572MOL0     H77175   3.350   6.094   1.155 -0.4851 -0.1824 -0.9624
  572MOL0     H77176   3.279   6.344   1.254 -1.5167 -1.5770  2.9503
  572MOL0     H77177   3.446   6.347   1.301  0.1904  1.2195 -2.7299
  572MOL0     H77178   3.310   6.256   1.481  2.2377 -0.4763  0.5249
  572MOL0     H77179   3.421   6.133   1.435 -0.3929  0.1725  1.3764
  572MOL0     H77180   3.291   6.112   1.634  0.7790 -0.0272  1.3184
  572MOL0     H77181   3.237   6.107   1.858 -0.9432  0.1057  0.9629
  572MOL0     H77182   3.117   6.006   1.928  1.2522 -0.3410  1.5360
  572MOL0     H77183   3.263   5.924   1.900 -0.3871 -1.5462 -1.3145
  572MOL0     H77184   2.744   5.741   1.887 -0.6912 -0.7427  0.4791
  572MOL0     H77185   2.590   5.625   2.017 -0.7797 -0.7834  0.3351
  572MOL0     H77186   2.536   5.490   2.239  0.0619 -0.9749  0.5951
  572MOL0     H77187   2.440   5.483   2.089  0.5196  0.7284  0.2237
  572MOL0     H77188   2.414   5.231   2.134  0.9702  0.3865 -0.5853
  572MOL0     H77189   2.489   5.262   2.293  0.7050  0.4598 -0.1267
  572MOL0     H77190   2.261   5.424   2.205  2.5725  1.1300  1.0378
  572MOL0     H77191   2.340   5.425   2.352  1.6730  0.1861 -1.3717
  572MOL0     H77192   2.208   5.176   2.243  1.6672  1.0538 -0.4750
  572MOL0     H77193   2.283   5.175   2.402 -0.4588  0.2383  0.7009
  572MOL0     H77194   2.042   5.339   2.293 -0.5322 -3.2140 -1.2756
  572MOL0     H77195   2.110   5.361   2.465  1.7414  0.9063 -0.5806
  572MOL0     H77196   2.005   5.101   2.327 -1.2656 -0.4409  0.2989
  572MOL0     H77197   2.053   5.109   2.503  1.2621  1.7540  0.6497
  572MOL0     H77198   1.796   5.219   2.380 -3.1772 -1.2752  1.9970
  572MOL0     H77199   1.872   5.285   2.525 -2.0365  1.0590 -0.6110
  572MOL0     H77200   1.867   5.094   2.665  1.0759 -0.8558 -1.2263
  572MOL0     H77201   1.832   4.996   2.540  2.0752  0.8664 -2.8037
  572MOL0     H77202   2.795   5.262   1.973  2.6073  0.6900  1.6892
  572MOL0     H77203   2.975   5.378   1.820 -1.0855 -2.6641  0.9125
  572MOL0     H77204   2.979   5.752   1.527 -1.6825  1.0873  1.1392
  572MOL0     H77205   3.083   5.878   1.351  0.2623 -0.1372 -0.6856
  572MOL0     H77206   4.133   5.467   0.565 -0.7734  0.4242  0.9499
  572MOL0     H77207   4.336   5.323   0.630  2.0585 -0.3918 -4.0629
  572MOL0     H77208   4.928   5.357   0.418 -0.4553 -1.0213 -1.0613
  572MOL0     H77209   5.101   5.196   0.492  0.1897  0.6006 -0.7407
  572MOL0     H77210   5.152   4.992   0.490  3.1600  1.0350  0.9603
  572MOL0     H77211   5.206   4.877   0.602  0.2335 -0.0437 -2.3860
  572MOL0     H77212   5.087   4.755   0.447 -0.2705  0.3467 -0.7482
  572MOL0     H77213   4.951   4.867   0.431  1.8048  2.0149 -0.6877
  572MOL0     H77214   4.873   4.815   0.664 -0.8878 -0.7544  0.5317
  572MOL0     H77215   4.989   4.675   0.674  0.7856 -2.5376 -2.0648
  572MOL0     H77216   4.869   4.617   0.443  0.8298  1.5847 -1.1968
  572MOL0     H77217   4.758   4.743   0.497 -0.7064  0.6593 -0.1568
  572MOL0     H77218   4.644   4.419   0.724  0.0623 -0.8914 -1.1716
  572MOL0     H77219   4.852   5.044   0.794 -1.2005 -2.0544 -2.5460
  572MOL0     H77220   4.677   5.207   0.739 -0.2137 -2.5308  0.9854
  573MOL0     O77221  11.007   3.829   4.804 -0.2174 -0.2561 -0.4430
  573MOL0     C77222  10.925   3.873   4.891 -0.7579 -0.5944  0.6388
  573MOL0     O77223  10.956   3.978   4.979  0.3796  0.2071  0.3884
  573MOL0     C77224  11.092   4.012   4.974 -0.0607 -0.4686  0.0604
  573MOL0     C77225  11.190   3.966   5.057 -0.0891 -0.1957  0.1429
  573MOL0     C77226  11.324   4.013   5.048 -0.2914  0.4641 -0.9289
  573MOL0     C77227  11.360   4.106   4.954 -0.0106  0.0322  0.9514
  573MOL0     O77228  11.484   4.157   4.965  0.2692  0.1495  0.4974
  573MOL0     C77229  11.528   4.224   4.851  0.8789 -0.4378  0.0307
  573MOL0     C77230  11.664   4.282   4.896  0.1568  1.1701 -0.4147
  573MOL0     C77231  11.782   4.192   4.881  0.3855 -1.4905 -0.1794
  573MOL0     C77232  11.764   4.057   4.936  0.0405  0.3779 -0.2609
  573MOL0     C77233  11.907   3.976   4.939 -0.0868 -1.0591  0.9046
  573MOL0     C77234  11.979   3.955   4.796  0.8717 -0.2944  0.7623
  573MOL0     C77235  12.071   3.836   4.818 -0.9888  0.0257  0.4557
  573MOL0     C77236  12.187   3.847   4.713 -0.0805  0.1322 -0.7596
  573MOL0     N77237  12.275   3.730   4.700  0.8433 -0.3910 -0.3187
  573MOL0     C77238  12.233   3.599   4.722 -0.5433 -0.5371 -0.2515
  573MOL0     C77239  12.326   3.525   4.656 -0.3275 -0.2205 -0.2796
  573MOL0     C77240  12.313   3.378   4.647  0.3673 -0.4430  0.3947
  573MOL0     C77241  12.235   3.321   4.528  0.7197  0.7719 -0.1573
  573MOL0     C77242  12.290   3.369   4.394 -1.1770 -0.3419  0.3462
  573MOL0     C77243  12.205   3.487   4.341  0.2921  1.1633 -0.2999
  573MOL0     O77244  12.064   3.469   4.367  0.0704 -0.0666  0.3234
  573MOL0     C77245  11.982   3.573   4.327  0.4977 -0.1136 -0.4178
  573MOL0     C77246  12.014   3.672   4.231  0.4190 -0.4237 -0.2986
  573MOL0     C77247  11.925   3.772   4.188 -0.3972  1.5846  0.1306
  573MOL0     C77248  11.975   3.874   4.080 -0.1784 -0.0289  0.2634
  573MOL0     C77249  11.796   3.767   4.245  0.1345  0.1755  0.5874
  573MOL0     C77250  11.688   3.857   4.195 -0.7430  0.3863  0.3105
  573MOL0     O77251  11.574   3.793   4.199 -0.3583 -0.3182  0.1199
  573MOL0     C77252  11.473   3.835   4.119 -0.1943  0.3322 -0.7554
  573MOL0     C77253  11.340   3.803   4.164 -0.0130 -0.0490  0.4608
  573MOL0     C77254  11.231   3.825   4.080 -1.3448 -0.2416 -0.2915
  573MOL0     C77255  11.247   3.903   3.964  0.3416 -1.0652  0.2070
  573MOL0     O77256  11.135   3.946   3.892  0.3133 -0.4142 -0.3704
  573MOL0     C77257  11.007   3.899   3.946 -0.3668 -0.2771  0.4992
  573MOL0     C77258  10.886   3.946   3.867 -0.2644  0.6495 -0.2027
  573MOL0     C77259  10.755   3.874   3.900 -0.2139 -0.1573 -0.6420
  573MOL0     C77260  10.624   3.954   3.867  0.9343  0.2106  0.8292
  573MOL0     C77261  10.496   3.888   3.921 -0.6362  1.2395  0.2756
  573MOL0     C77262  10.366   3.973   3.909  0.1908 -0.2449  0.8876
  573MOL0     C77263  10.323   4.037   3.774 -0.1103 -0.5329  0.1425
  573MOL0     C77264  10.176   4.078   3.758  0.3811 -0.2601  0.5219
  573MOL0    Cl77265  10.065   3.932   3.732 -0.0109 -0.3403 -0.0417
  573MOL0     C77266  11.373   3.937   3.924 -0.6470 -0.8764 -1.0753
  573MOL0     C77267  11.490   3.899   4.003  1.0912  0.3417  0.6387
  573MOL0     O77268  11.713   3.979   4.174 -0.4471  0.1958 -0.2775
  573MOL0     C77269  11.766   3.669   4.347 -0.2950  0.0606 -0.5612
  573MOL0     C77270  11.861   3.575   4.388 -0.3726  0.8021  0.5970
  573MOL0     N77271  12.420   3.603   4.608  0.1340  0.3507  0.2662
  573MOL0     N77272  12.395   3.727   4.625 -1.1148 -0.3102 -0.3321
  573MOL0     C77273  11.264   4.145   4.862  0.2027 -0.3170  0.1528
  573MOL0     C77274  11.132   4.109   4.881  0.5891  0.0519  0.2742
  573MOL0     C77275  10.781   3.826   4.892 -0.7910  0.0892 -0.2247
  573MOL0     C77276  10.720   3.746   4.789  0.0574 -0.3083  0.4191
  573MOL0     C77277  10.589   3.723   4.790  0.9739 -0.4394  0.2383
  573MOL0     C77278  10.504   3.776   4.884  0.1472  0.5023  0.3017
  573MOL0     O77279  10.371   3.748   4.858 -0.2583 -0.3296 -0.3971
  573MOL0     C77280  10.279   3.804   4.958 -0.0525 -0.3311  0.5084
  573MOL0     C77281  10.140   3.745   4.933 -0.6501 -0.8657  0.3979
  573MOL0     C77282  10.085   3.820   4.807 -0.8924 -0.6357 -0.6942
  573MOL0     C77283   9.935   3.829   4.799  0.7160  0.3436 -0.3956
  573MOL0     C77284   9.854   3.708   4.819 -0.6875 -0.0732  0.2910
  573MOL0     C77285   9.806   3.600   4.823  0.6124 -0.2746 -0.8210
  573MOL0     C77286  10.561   3.843   4.992  0.0120  0.2648  0.8311
  573MOL0     C77287  10.701   3.861   5.001 -0.6428 -0.5041  0.1367
  573MOL0     H77288  11.163   3.906   5.143  3.0123 -0.0438  1.3527
  573MOL0     H77289  11.403   3.984   5.118 -1.5618 -0.2938  0.2395
  573MOL0     H77290  11.541   4.142   4.781 -1.3561  0.4887 -1.5831
  573MOL0     H77291  11.466   4.305   4.811 -2.2365 -2.7275 -0.1150
  573MOL0     H77292  11.679   4.373   4.837  0.3112  0.5651 -1.3347
  573MOL0     H77293  11.656   4.319   4.998 -0.5453 -0.8142  0.2909
  573MOL0     H77294  11.809   4.175   4.776 -1.7807 -1.0939 -0.8557
  573MOL0     H77295  11.866   4.251   4.918  0.5381 -3.3954  2.8471
  573MOL0     H77296  11.719   4.071   5.035  0.1530 -1.2777  0.0636
  573MOL0     H77297  11.691   4.006   4.873  2.6212 -0.4781 -2.8024
  573MOL0     H77298  11.979   4.030   5.001 -1.5136  0.6405  1.1662
  573MOL0     H77299  11.897   3.875   4.979 -0.7735 -1.1572  0.4969
  573MOL0     H77300  11.908   3.944   4.714 -1.2530  1.3627  2.2436
  573MOL0     H77301  12.032   4.049   4.777  1.4867 -1.0574 -1.6074
  573MOL0     H77302  12.115   3.846   4.918  0.4810 -2.3258  0.1314
  573MOL0     H77303  12.023   3.739   4.805  1.5618 -1.3721  0.7843
  573MOL0     H77304  12.242   3.936   4.745 -0.2947 -1.2254  4.0760
  573MOL0     H77305  12.143   3.866   4.614 -1.2647  2.6977  0.1750
  573MOL0     H77306  12.142   3.559   4.766 -0.6735  1.8253  1.8547
  573MOL0     H77307  12.417   3.344   4.651  1.5477  2.6539 -0.8394
  573MOL0     H77308  12.265   3.359   4.743 -0.0454  1.0950  0.5197
  573MOL0     H77309  12.127   3.328   4.542  0.4714 -0.8281 -1.0342
  573MOL0     H77310  12.262   3.215   4.532 -0.3888  0.3914 -1.7195
  573MOL0     H77311  12.281   3.288   4.321  0.1148 -0.6277  0.4803
  573MOL0     H77312  12.395   3.399   4.401 -0.7730 -1.8431  1.0990
  573MOL0     H77313  12.214   3.500   4.233  1.5255 -2.9577 -0.8657
  573MOL0     H77314  12.235   3.579   4.393 -2.1122  0.9670  1.6402
  573MOL0     H77315  12.116   3.680   4.193  0.4291  2.8966  0.1179
  573MOL0     H77316  11.984   3.977   4.115 -0.8775 -0.1513  0.8255
  573MOL0     H77317  12.073   3.846   4.040 -0.7029  2.0350 -2.8527
  573MOL0     H77318  11.910   3.874   3.991  1.0416 -0.2803 -0.6574
  573MOL0     H77319  11.323   3.737   4.249  0.7822 -0.3810  0.3686
  573MOL0     H77320  11.135   3.783   4.110 -2.1971 -1.3048 -4.0234
  573MOL0     H77321  10.999   3.791   3.931 -0.6113 -0.5788  2.5461
  573MOL0     H77322  10.992   3.911   4.053  1.7572 -1.5261  0.9785
  573MOL0     H77323  10.884   4.052   3.892  2.7206  0.5377  0.8770
  573MOL0     H77324  10.909   3.947   3.761 -1.5265  0.3993 -0.4949
  573MOL0     H77325  10.763   3.874   4.009  1.6475 -2.5741 -0.6958
  573MOL0     H77326  10.760   3.771   3.863 -2.1877 -1.0700  1.3511
  573MOL0     H77327  10.618   4.055   3.908 -1.8342 -0.3631  2.0077
  573MOL0     H77328  10.623   3.963   3.758  1.3960  0.9353  0.8749
  573MOL0     H77329  10.515   3.840   4.017 -2.6031  2.7738  1.5180
  573MOL0     H77330  10.490   3.805   3.851  4.4487  0.4388  0.4381
  573MOL0     H77331  10.284   3.902   3.920  0.9013 -0.9865  1.5170
  573MOL0     H77332  10.347   4.049   3.985 -0.3487  0.3811  0.1424
  573MOL0     H77333  10.359   3.968   3.696  1.9671 -0.8152  1.2862
  573MOL0     H77334  10.376   4.132   3.768  0.8661 -1.1015 -0.5859
  573MOL0     H77335  10.155   4.146   3.675 -0.1540 -1.3285 -0.2342
  573MOL0     H77336  10.129   4.132   3.841 -2.5553  2.0675 -2.3799
  573MOL0     H77337  11.386   3.990   3.830  1.6216 -0.2704 -0.4836
  573MOL0     H77338  11.583   3.926   3.955  0.5463 -0.7123 -1.0919
  573MOL0     H77339  11.673   3.649   4.397  0.0647 -0.7133 -0.1801
  573MOL0     H77340  11.827   3.504   4.462  0.4115 -2.4529 -1.9455
  573MOL0     H77341  11.299   4.212   4.784  2.3632  0.5566  1.7689
  573MOL0     H77342  11.064   4.157   4.812 -1.3273 -0.5105  1.6951
  573MOL0     H77343  10.778   3.714   4.703  0.5822  1.1784  0.1870
  573MOL0     H77344  10.552   3.668   4.704 -2.6959 -0.7023  1.7942
  573MOL0     H77345  10.321   3.763   5.051 -1.5653 -0.2575  1.2440
  573MOL0     H77346  10.282   3.913   4.959 -0.6161 -0.3168  0.5482
  573MOL0     H77347  10.079   3.758   5.024 -0.7705 -0.5034  0.2662
  573MOL0     H77348  10.151   3.638   4.917  1.1550 -0.7599  0.6606
  573MOL0     H77349  10.118   3.777   4.711 -2.9724  2.1445 -2.8030
  573MOL0     H77350  10.125   3.922   4.812 -1.5508 -0.4483  3.1787
  573MOL0     H77351   9.902   3.882   4.709 -0.4389  3.0534  1.4765
  573MOL0     H77352   9.912   3.900   4.879  2.8460  2.6076 -1.6232
  573MOL0     H77353   9.770   3.499   4.822  1.4610 -0.5743 -1.8358
  573MOL0     H77354  10.501   3.885   5.072  0.0136  0.5987  0.6551
  573MOL0     H77355  10.757   3.902   5.084  0.9431 -0.1033 -1.0848
  574MOL0     O77356   5.796   8.481   1.109 -0.1211 -0.1233 -0.1536
  574MOL0     C77357   5.674   8.496   1.107  0.0099 -0.6581 -0.1145
  574MOL0     O77358   5.584   8.399   1.113 -0.0940 -0.2686  0.4436
  574MOL0     C77359   5.619   8.268   1.135  0.5101 -0.5466  0.2259
  574MOL0     C77360   5.733   8.228   1.200  0.9231 -0.2890 -0.0741
  574MOL0     C77361   5.759   8.096   1.226  0.3815 -0.6433  0.1593
  574MOL0     C77362   5.665   7.999   1.183 -0.3068 -0.7277 -0.8444
  574MOL0     O77363   5.699   7.865   1.186  0.0469 -0.1959 -0.2698
  574MOL0     C77364   5.780   7.820   1.078  0.0522  0.2782 -0.6122
  574MOL0     C77365   5.876   7.707   1.126 -0.1946  0.5544 -0.8509
  574MOL0     C77366   5.822   7.562   1.134 -0.2276 -0.9212  0.3412
  574MOL0     C77367   5.941   7.494   1.206  1.1767  0.9522 -0.0287
  574MOL0     C77368   5.883   7.351   1.223 -0.3287 -0.3203  0.3569
  574MOL0     C77369   5.990   7.263   1.295 -0.6104  0.3442 -0.1861
  574MOL0     C77370   6.109   7.219   1.193 -0.2256  0.2898 -0.3850
  574MOL0     C77371   6.239   7.178   1.259  0.6099 -0.2577  0.1374
  574MOL0     N77372   6.229   7.096   1.379 -0.5028  0.2736 -1.0873
  574MOL0     C77373   6.191   6.965   1.382 -0.0283 -0.9043 -0.2878
  574MOL0     C77374   6.186   6.923   1.511  0.4805 -0.3621 -0.3242
  574MOL0     C77375   6.137   6.792   1.546 -0.6003  0.8108 -0.5394
  574MOL0     C77376   5.990   6.769   1.524 -0.6095 -0.8634  0.4118
  574MOL0     C77377   5.911   6.803   1.650 -0.0989  0.4677  0.0933
  574MOL0     C77378   5.876   6.947   1.671 -0.3038  0.9626 -0.5363
  574MOL0     O77379   5.788   6.977   1.565  0.2870 -0.0309  0.1354
  574MOL0     C77380   5.717   7.091   1.575 -1.0467 -0.7469  0.5687
  574MOL0     C77381   5.626   7.121   1.477  0.0585 -0.4797  0.3889
  574MOL0     C77382   5.545   7.240   1.475  0.2801  0.4638  0.3752
  574MOL0     C77383   5.480   7.262   1.340  0.8163  0.3021  0.0508
  574MOL0     C77384   5.550   7.324   1.587  0.4244  0.3953 -0.2782
  574MOL0     C77385   5.458   7.440   1.606 -0.3432  0.1450  0.7351
  574MOL0     O77386   5.475   7.518   1.721  0.8828  0.2757  0.2195
  574MOL0     C77387   5.380   7.618   1.732 -0.1874  0.6198 -0.6325
  574MOL0     C77388   5.400   7.738   1.679 -0.6597  0.8277  0.8301
  574MOL0     C77389   5.303   7.845   1.678 -0.4991  0.3580  0.6627
  574MOL0     C77390   5.183   7.831   1.750 -0.2849  0.0655  0.3459
  574MOL0     O77391   5.100   7.935   1.753  1.1227 -0.4234  0.5272
  574MOL0     C77392   5.013   7.954   1.864 -0.5290 -0.1083 -0.9037
  574MOL0     C77393   5.101   7.986   1.982  0.3419 -1.0105  0.2247
  574MOL0     C77394   5.013   8.019   2.102  0.2606  0.3684  0.3589
  574MOL0     C77395   5.088   8.045   2.234  0.1037 -0.0566  0.2457
  574MOL0     C77396   5.120   8.199   2.245 -0.0361  0.1917 -0.1261
  574MOL0     C77397   5.197   8.223   2.378 -0.4276 -0.1033 -0.1803
  574MOL0     C77398   5.224   8.378   2.375 -0.2301 -0.2076 -0.2797
  574MOL0     C77399   5.303   8.413   2.491 -0.0256 -0.2932 -0.1490
  574MOL0    Cl77400   5.318   8.598   2.512 -0.0960  0.0193 -0.3905
  574MOL0     C77401   5.157   7.697   1.798  0.3362 -0.3805  0.1140
  574MOL0     C77402   5.255   7.596   1.793  0.0454  1.0240  0.9356
  574MOL0     O77403   5.374   7.467   1.519  0.3270 -0.1899 -0.2972
  574MOL0     C77404   5.647   7.291   1.689  0.1585  0.8739  0.6309
  574MOL0     C77405   5.731   7.185   1.672  0.0885 -0.0183 -0.9149
  574MOL0     N77406   6.219   7.040   1.580 -0.1285 -0.1681  0.6923
  574MOL0     N77407   6.255   7.133   1.503 -0.6737  0.0740  0.3360
  574MOL0     C77408   5.547   8.036   1.118 -1.4859 -0.3994 -0.4098
  574MOL0     C77409   5.519   8.175   1.103  0.0718  0.3797 -0.0181
  574MOL0     C77410   5.622   8.634   1.091  0.4297 -0.3025  0.0157
  574MOL0     C77411   5.697   8.745   1.100 -0.4977  0.3941 -0.0058
  574MOL0     C77412   5.636   8.870   1.086 -0.6438  0.3656  0.3530
  574MOL0     C77413   5.503   8.887   1.055  0.4290 -0.3910 -0.4449
  574MOL0     O77414   5.455   9.005   1.018 -0.5761  0.9989  0.1954
  574MOL0     C77415   5.503   9.113   1.113 -0.4779  0.6985  0.4516
  574MOL0     C77416   5.392   9.218   1.119  0.2060  0.0049  0.0141
  574MOL0     C77417   5.338   9.269   0.980 -0.6725 -0.2427 -0.1172
  574MOL0     C77418   5.264   9.402   1.004  0.1389 -0.1200  0.0805
  574MOL0     C77419   5.354   9.517   1.015 -0.1155  0.3243 -0.1378
  574MOL0     C77420   5.418   9.620   1.023  0.1172  0.3740  0.4751
  574MOL0     C77421   5.435   8.769   1.040  0.2108  0.0814 -0.1584
  574MOL0     C77422   5.491   8.649   1.052  0.4946  0.8621 -0.3921
  574MOL0     H77423   5.802   8.301   1.241  1.4351 -1.7624  1.8762
  574MOL0     H77424   5.845   8.066   1.285  0.7040  0.9127  0.5121
  574MOL0     H77425   5.725   7.795   0.986 -1.4382  1.3703 -0.0570
  574MOL0     H77426   5.847   7.901   1.048 -2.4873  2.6759 -0.1443
  574MOL0     H77427   5.958   7.692   1.056  1.7368  2.3308  0.9177
  574MOL0     H77428   5.917   7.734   1.223  1.4201 -2.0641 -0.7246
  574MOL0     H77429   5.734   7.557   1.198 -0.5529  1.9580  0.2378
  574MOL0     H77430   5.798   7.524   1.034 -0.2155  0.0157 -0.0235
  574MOL0     H77431   6.032   7.499   1.146  0.7481 -0.4602 -0.8602
  574MOL0     H77432   5.949   7.544   1.302 -1.2397  3.2843 -0.9152
  574MOL0     H77433   5.795   7.349   1.287  0.1695 -0.6577  1.0468
  574MOL0     H77434   5.863   7.302   1.127  1.2316 -0.6918  0.1912
  574MOL0     H77435   6.013   7.331   1.377 -0.0598  4.4170 -3.3915
  574MOL0     H77436   5.940   7.174   1.335 -5.5814  2.8328 -0.1179
  574MOL0     H77437   6.076   7.140   1.125 -1.2276  0.1017  0.2968
  574MOL0     H77438   6.129   7.301   1.124  3.1417 -0.0597  0.0091
  574MOL0     H77439   6.290   7.271   1.285 -0.1914  0.1428  0.2888
  574MOL0     H77440   6.281   7.120   1.176 -2.0025  0.4309 -1.7828
  574MOL0     H77441   6.176   6.906   1.291  0.7042  0.6344 -1.4488
  574MOL0     H77442   6.192   6.728   1.477 -2.5292  0.5840 -1.9334
  574MOL0     H77443   6.166   6.765   1.648  1.4407 -3.4795 -2.0334
  574MOL0     H77444   5.985   6.662   1.504 -2.7614 -0.6822 -0.3360
  574MOL0     H77445   5.952   6.817   1.434  2.1007 -1.3732 -1.0870
  574MOL0     H77446   5.955   6.763   1.742  1.0074 -2.1790 -1.4771
  574MOL0     H77447   5.811   6.757   1.646 -0.9047  2.1199  0.3295
  574MOL0     H77448   5.957   7.021   1.666 -0.1605  0.9803  1.3160
  574MOL0     H77449   5.826   6.964   1.767 -0.1941  0.4626 -0.3854
  574MOL0     H77450   5.612   7.055   1.392 -1.6409 -0.1821  0.3950
  574MOL0     H77451   5.501   7.364   1.307 -0.9791  1.0483  1.0646
  574MOL0     H77452   5.512   7.189   1.266 -1.4233  1.7439 -2.5079
  574MOL0     H77453   5.371   7.254   1.337  0.8366 -0.8375  1.2845
  574MOL0     H77454   5.492   7.745   1.622 -0.6802  0.1047  0.6945
  574MOL0     H77455   5.328   7.943   1.639 -0.3915 -0.3673 -1.1719
  574MOL0     H77456   4.957   8.042   1.829 -2.4687 -0.9579 -0.0545
  574MOL0     H77457   4.943   7.880   1.903 -0.0050 -0.2184 -0.1657
  574MOL0     H77458   5.182   7.917   2.007  3.2613  1.7577 -0.8794
  574MOL0     H77459   5.151   8.082   1.962 -1.2260 -0.3473 -0.7246
  574MOL0     H77460   4.947   7.933   2.121  2.3860 -0.8961  2.6817
  574MOL0     H77461   4.956   8.108   2.075 -1.1277 -0.1535  1.4006
  574MOL0     H77462   5.031   8.014   2.322 -1.1824  1.7776  0.0990
  574MOL0     H77463   5.172   7.974   2.229 -0.0615 -0.2015 -0.7219
  574MOL0     H77464   5.024   8.250   2.238  0.1142  0.2747 -2.1323
  574MOL0     H77465   5.193   8.221   2.166  1.0898 -2.7952 -0.0836
  574MOL0     H77466   5.149   8.203   2.474 -0.1810  3.2182  0.7835
  574MOL0     H77467   5.293   8.172   2.370 -0.7576 -1.2409  2.2527
  574MOL0     H77468   5.132   8.437   2.381 -0.2035 -0.2544  1.0487
  574MOL0     H77469   5.274   8.414   2.285  2.3311 -0.5996  0.8825
  574MOL0     H77470   5.399   8.362   2.477  0.0495  0.2764 -2.0636
  574MOL0     H77471   5.256   8.377   2.583 -3.1508  2.6768 -0.3576
  574MOL0     H77472   5.065   7.665   1.848  0.9195 -2.5178 -0.0542
  574MOL0     H77473   5.234   7.495   1.826  4.1054 -0.2363  0.2943
  574MOL0     H77474   5.647   7.354   1.778  1.5023 -0.6251  1.7401
  574MOL0     H77475   5.789   7.178   1.763 -0.8077  0.5623 -0.2727
  574MOL0     H77476   5.489   7.955   1.074  0.1048 -3.0453  1.9878
  574MOL0     H77477   5.430   8.198   1.045  1.1045  0.7500 -1.5270
  574MOL0     H77478   5.805   8.742   1.115 -0.2910  2.7460 -0.5375
  574MOL0     H77479   5.701   8.957   1.080 -1.5647  1.3970  3.2649
  574MOL0     H77480   5.526   9.061   1.206 -0.1465 -0.4769 -0.2616
  574MOL0     H77481   5.592   9.163   1.074  0.6737 -1.6591 -0.1530
  574MOL0     H77482   5.432   9.299   1.182  1.5043 -0.4329 -0.2309
  574MOL0     H77483   5.314   9.157   1.167  2.3860 -2.0144  1.1669
  574MOL0     H77484   5.261   9.203   0.938 -1.2602 -0.5207  1.3451
  574MOL0     H77485   5.417   9.275   0.904 -1.3512 -0.4727 -0.8580
  574MOL0     H77486   5.205   9.392   1.095 -3.3467 -3.9719 -2.2421
  574MOL0     H77487   5.194   9.413   0.921  0.4647  1.1262 -0.0488
  574MOL0     H77488   5.483   9.703   1.036  1.4590 -0.8479  2.0654
  574MOL0     H77489   5.331   8.775   1.009 -0.6779 -1.8911  2.1381
  574MOL0     H77490   5.441   8.553   1.044  2.4275 -0.3534  1.2076
  575MOL0     O77491   9.800   4.696   7.243 -0.6077 -0.0431 -0.7114
  575MOL0     C77492   9.836   4.780   7.163  0.2159  0.1895 -0.8661
  575MOL0     O77493   9.960   4.841   7.160 -0.4092 -0.0096  0.0821
  575MOL0     C77494  10.059   4.792   7.244  0.7515 -0.2231  1.3931
  575MOL0     C77495  10.184   4.768   7.181  0.2557  0.1536  0.8480
  575MOL0     C77496  10.287   4.726   7.264 -0.0726 -0.0291  0.0727
  575MOL0     C77497  10.270   4.702   7.401 -1.2026  0.2444 -0.0382
  575MOL0     O77498  10.378   4.662   7.477  0.1949 -0.4610  0.3058
  575MOL0     C77499  10.355   4.581   7.595 -1.0052  0.4183 -1.1923
  575MOL0     C77500  10.491   4.538   7.656  0.5486 -0.5117  0.6729
  575MOL0     C77501  10.470   4.424   7.755 -0.1168 -0.5485  0.3446
  575MOL0     C77502  10.464   4.470   7.898 -0.1176  0.2950 -0.5610
  575MOL0     C77503  10.438   4.338   7.982 -0.4831  0.3273 -0.2919
  575MOL0     C77504  10.480   4.346   8.134 -0.2123  0.3898  0.4926
  575MOL0     C77505  10.399   4.269   8.232  0.0170 -0.1617  0.4815
  575MOL0     C77506  10.443   4.266   8.377  0.0059  0.2397 -1.0259
  575MOL0     N77507  10.398   4.386   8.458  0.8255  0.6826  0.3100
  575MOL0     C77508  10.266   4.428   8.451 -0.7698 -0.5507 -0.1404
  575MOL0     C77509  10.267   4.558   8.488  0.1705  0.2841  0.4006
  575MOL0     C77510  10.153   4.656   8.487 -0.3181  0.8484 -0.3487
  575MOL0     C77511  10.070   4.613   8.599 -0.0180 -0.0613  0.1246
  575MOL0     C77512   9.948   4.704   8.603 -0.1771 -0.3100 -0.0009
  575MOL0     C77513   9.863   4.675   8.735 -0.6724 -0.0658  0.0915
  575MOL0     O77514   9.765   4.784   8.760  0.0208  0.4813 -0.5417
  575MOL0     C77515   9.647   4.782   8.687  0.4371  0.0095 -0.6182
  575MOL0     C77516   9.576   4.901   8.703  0.0916 -0.6081 -0.3478
  575MOL0     C77517   9.458   4.924   8.638  0.5499  0.5740  0.5100
  575MOL0     C77518   9.387   5.064   8.661 -0.2275  0.2603 -0.1021
  575MOL0     C77519   9.399   4.816   8.560 -0.2884 -0.3093  0.2928
  575MOL0     C77520   9.275   4.845   8.481  0.9734  0.6971  0.4936
  575MOL0     O77521   9.205   4.738   8.445 -0.3035 -0.0352 -0.1541
  575MOL0     C77522   9.081   4.748   8.393  0.3713  0.8378  1.5763
  575MOL0     C77523   9.035   4.650   8.302 -0.3481 -0.3265  0.4624
  575MOL0     C77524   8.905   4.655   8.248 -0.2600  0.5331  0.4406
  575MOL0     C77525   8.809   4.742   8.305 -0.7426  0.2469 -1.0130
  575MOL0     O77526   8.675   4.738   8.278 -0.4174 -1.0615  0.0561
  575MOL0     C77527   8.616   4.641   8.192  0.1177  0.1103  0.4598
  575MOL0     C77528   8.463   4.664   8.192  0.0463  0.0482  0.0752
  575MOL0     C77529   8.423   4.782   8.120 -0.0371 -0.1573 -0.3823
  575MOL0     C77530   8.266   4.803   8.123  0.2798  0.7505 -0.4353
  575MOL0     C77531   8.234   4.936   8.068 -0.1565 -1.0591 -0.2729
  575MOL0     C77532   8.230   5.046   8.179 -0.6963  0.6251 -0.0412
  575MOL0     C77533   8.176   5.168   8.114  0.1360 -0.9998 -0.2340
  575MOL0     C77534   8.126   5.269   8.224  0.2237 -0.5262 -0.0035
  575MOL0    Cl77535   8.263   5.356   8.296  0.3581 -0.5087 -0.4903
  575MOL0     C77536   8.852   4.838   8.404 -0.2426 -0.0903  0.6726
  575MOL0     C77537   8.988   4.837   8.449 -0.3099  0.6764  0.4009
  575MOL0     O77538   9.259   4.957   8.444  0.8096 -0.5271  0.4594
  575MOL0     C77539   9.465   4.701   8.545  0.7163 -0.3858 -0.1969
  575MOL0     C77540   9.592   4.689   8.602  0.2981  0.9690  0.4648
  575MOL0     N77541  10.399   4.591   8.519  0.5382 -0.8563  0.7820
  575MOL0     N77542  10.476   4.484   8.516 -0.6173  0.9419  0.1031
  575MOL0     C77543  10.146   4.715   7.453  1.0015  0.4413  0.1807
  575MOL0     C77544  10.046   4.775   7.377  0.3957 -0.3600  0.0046
  575MOL0     C77545   9.737   4.825   7.061  0.4931  0.0268 -0.6027
  575MOL0     C77546   9.781   4.902   6.945  0.0820 -0.0906 -0.4593
  575MOL0     C77547   9.694   4.965   6.858  0.7620  0.1920 -0.6838
  575MOL0     C77548   9.555   4.935   6.876 -0.5919 -1.0953 -0.2401
  575MOL0     O77549   9.458   4.978   6.791 -0.4838  0.3831 -0.0897
  575MOL0     C77550   9.450   4.903   6.669 -0.5140 -0.3324  1.0693
  575MOL0     C77551   9.331   4.939   6.590 -0.2483  0.5230  0.4686
  575MOL0     C77552   9.198   4.909   6.667 -0.6653  0.6679 -0.2357
  575MOL0     C77553   9.176   4.769   6.739  0.4790 -0.5849  0.5047
  575MOL0     C77554   9.210   4.662   6.645  1.2578 -0.8337 -0.3434
  575MOL0     C77555   9.249   4.584   6.566  0.3186 -0.2708 -0.0158
  575MOL0     C77556   9.515   4.861   6.979 -0.3447 -0.0312  0.9399
  575MOL0     C77557   9.598   4.805   7.080 -0.4566 -0.2325 -0.1058
  575MOL0     H77558  10.205   4.785   7.076  0.6908  1.3402  1.0992
  575MOL0     H77559  10.381   4.715   7.211 -1.1731  0.5562 -2.1256
  575MOL0     H77560  10.295   4.635   7.669 -0.7268 -1.0125  0.1168
  575MOL0     H77561  10.302   4.489   7.570  0.5366 -0.8105 -0.1170
  575MOL0     H77562  10.558   4.502   7.577 -0.0636  1.2639 -0.7355
  575MOL0     H77563  10.527   4.629   7.705  2.0512 -1.8966  2.2237
  575MOL0     H77564  10.369   4.392   7.728 -0.5621  1.5182 -0.6338
  575MOL0     H77565  10.541   4.343   7.737  1.2010  0.9311 -1.3860
  575MOL0     H77566  10.562   4.502   7.933 -0.4885 -1.6263  2.6871
  575MOL0     H77567  10.393   4.548   7.926  0.0215 -0.3402  1.8403
  575MOL0     H77568  10.329   4.330   7.986 -0.5117  1.1741  1.9758
  575MOL0     H77569  10.480   4.251   7.932  1.0702  2.1255 -2.3124
  575MOL0     H77570  10.582   4.306   8.142 -0.3629  0.0897  0.9081
  575MOL0     H77571  10.499   4.452   8.154  0.0977  0.0326  2.1846
  575MOL0     H77572  10.294   4.299   8.223 -0.6739 -2.8250 -1.8205
  575MOL0     H77573  10.400   4.163   8.205  2.7734  0.1096 -0.8523
  575MOL0     H77574  10.550   4.258   8.397  0.0548  1.0146 -0.9200
  575MOL0     H77575  10.395   4.179   8.422 -1.4504  1.2809 -0.4839
  575MOL0     H77576  10.182   4.372   8.413  0.0821 -0.0581 -2.9462
  575MOL0     H77577  10.191   4.757   8.502  0.9478  0.0294  2.7751
  575MOL0     H77578  10.086   4.654   8.400 -0.7071  1.2272 -0.0642
  575MOL0     H77579  10.141   4.615   8.683  0.9710 -0.0092 -0.6945
  575MOL0     H77580  10.028   4.513   8.581  0.4834 -0.2211 -0.1731
  575MOL0     H77581   9.890   4.685   8.513 -0.0084  0.3528 -0.2544
  575MOL0     H77582   9.978   4.809   8.599 -1.2273 -0.0330 -2.4433
  575MOL0     H77583   9.929   4.661   8.821  0.9012 -2.4830 -1.3678
  575MOL0     H77584   9.809   4.580   8.734 -0.0003 -0.4564 -0.1620
  575MOL0     H77585   9.599   4.970   8.783  3.9145 -1.2215 -0.7420
  575MOL0     H77586   9.288   5.045   8.702 -1.3572 -0.7540 -2.9983
  575MOL0     H77587   9.445   5.127   8.728  0.0213 -1.1284  1.0222
  575MOL0     H77588   9.370   5.128   8.573 -0.2124 -1.4179 -1.3875
  575MOL0     H77589   9.093   4.561   8.278 -0.7345 -0.3112 -0.5513
  575MOL0     H77590   8.889   4.581   8.170  1.3326 -1.0453  1.5269
  575MOL0     H77591   8.662   4.640   8.093 -0.6003 -4.1309 -0.0122
  575MOL0     H77592   8.657   4.550   8.237  1.5893  0.2935 -0.4184
  575MOL0     H77593   8.402   4.581   8.153  0.5218  0.8363 -2.5335
  575MOL0     H77594   8.426   4.675   8.295 -2.7986 -0.0383 -0.8392
  575MOL0     H77595   8.450   4.771   8.015 -0.6175 -1.2531 -0.4283
  575MOL0     H77596   8.472   4.871   8.160  0.0325  0.4395 -1.7478
  575MOL0     H77597   8.202   4.730   8.073  0.2154  1.6277 -1.6944
  575MOL0     H77598   8.234   4.804   8.228 -0.5430 -0.8175 -0.6327
  575MOL0     H77599   8.137   4.934   8.018  0.3240  0.2149 -1.3165
  575MOL0     H77600   8.306   4.962   7.989 -1.0965  0.3293 -0.7124
  575MOL0     H77601   8.183   5.015   8.273  1.8465 -0.7743  0.8580
  575MOL0     H77602   8.337   5.058   8.194 -0.4923 -2.6202  2.1488
  575MOL0     H77603   8.085   5.137   8.062  0.5209 -0.6503 -1.1396
  575MOL0     H77604   8.250   5.203   8.041  1.0797 -2.3059  0.0644
  575MOL0     H77605   8.066   5.214   8.296  0.6241  1.8704  2.3170
  575MOL0     H77606   8.056   5.340   8.179 -1.5472 -2.5263 -0.5365
  575MOL0     H77607   8.771   4.885   8.458  0.3541  2.7752 -0.7291
  575MOL0     H77608   9.011   4.915   8.522 -2.6567 -1.2692  3.5032
  575MOL0     H77609   9.419   4.627   8.480  2.1143 -0.8649 -0.6839
  575MOL0     H77610   9.645   4.598   8.577 -0.1038  0.6243  0.8602
  575MOL0     H77611  10.124   4.697   7.558 -0.2520  1.1402  0.0629
  575MOL0     H77612   9.948   4.803   7.413 -0.1063 -2.2568  0.2024
  575MOL0     H77613   9.889   4.895   6.931  0.3445  0.2703  1.1938
  575MOL0     H77614   9.723   5.007   6.761 -3.5109 -1.2108 -2.7954
  575MOL0     H77615   9.537   4.937   6.612 -1.6225  1.0375  0.1347
  575MOL0     H77616   9.456   4.794   6.678 -1.8233 -0.5352 -0.1769
  575MOL0     H77617   9.348   4.874   6.504  0.3207  2.4003 -0.9210
  575MOL0     H77618   9.337   5.044   6.559 -3.5261  1.2063  1.6520
  575MOL0     H77619   9.122   4.926   6.590  0.5181  0.2997 -1.5264
  575MOL0     H77620   9.176   4.982   6.745  0.0242 -0.1213  0.7057
  575MOL0     H77621   9.070   4.756   6.761 -0.4160  0.3544 -2.6730
  575MOL0     H77622   9.245   4.773   6.823  2.4724  2.0732 -1.0897
  575MOL0     H77623   9.282   4.511   6.495  3.4738  1.5068 -0.5251
  575MOL0     H77624   9.412   4.827   6.985 -0.3650  0.2290  2.2966
  575MOL0     H77625   9.565   4.751   7.168  4.0990 -0.0660  2.0006
  576MOL0     O77626   1.574   1.179   4.917 -0.4278  1.0522  0.9332
  576MOL0     C77627   1.551   1.296   4.924  0.9838 -0.0321  0.8159
  576MOL0     O77628   1.447   1.366   4.858  0.5563  0.2668  0.0961
  576MOL0     C77629   1.373   1.286   4.773  0.5443  0.6092 -1.1054
  576MOL0     C77630   1.278   1.197   4.826 -0.9139  0.6699 -0.8752
  576MOL0     C77631   1.185   1.132   4.747  0.6516  0.4728  0.3277
  576MOL0     C77632   1.186   1.146   4.610  0.7717  0.8740  0.1822
  576MOL0     O77633   1.100   1.096   4.517 -0.2151  0.4402 -0.7557
  576MOL0     C77634   0.966   1.063   4.557 -0.0128 -0.0979  0.2671
  576MOL0     C77635   0.954   0.914   4.584  0.0230  0.0578  1.3412
  576MOL0     C77636   0.814   0.864   4.580  0.5225 -0.5689 -0.4714
  576MOL0     C77637   0.722   0.914   4.696 -0.6247 -0.0023 -0.2484
  576MOL0     C77638   0.580   0.863   4.665 -0.1126 -0.4928 -0.1500
  576MOL0     C77639   0.483   0.915   4.766  0.9041 -0.8799  0.0397
  576MOL0     C77640   0.350   0.842   4.740 -0.0313 -0.4307  1.3882
  576MOL0     C77641   0.253   0.892   4.849  1.3783 -0.5006 -1.0710
  576MOL0     N77642   0.116   0.869   4.815 -0.3186 -0.7104  0.1957
  576MOL0     C77643   0.020   0.931   4.897 -1.2206 -0.5572  0.1559
  576MOL0     C77644  -0.086   0.854   4.884 -0.0547 -0.3830 -0.1511
  576MOL0     C77645  -0.219   0.865   4.955  0.5373 -0.5019  0.5011
  576MOL0     C77646  -0.250   1.015   4.987  0.0803 -0.3320  0.5642
  576MOL0     C77647  -0.363   1.046   5.076  0.5499 -0.3735  0.0776
  576MOL0     C77648  -0.382   1.199   5.083  0.2250 -0.1081  0.3214
  576MOL0     O77649  -0.321   1.252   5.200 -0.0068 -0.2730 -0.2944
  576MOL0     C77650  -0.207   1.331   5.192  0.2100 -0.6075 -0.7773
  576MOL0     C77651  -0.131   1.362   5.077  0.3643 -0.2649 -0.8887
  576MOL0     C77652  -0.012   1.447   5.089  0.2576 -0.2921  0.9128
  576MOL0     C77653   0.047   1.502   4.956  0.4198  0.2233  0.5991
  576MOL0     C77654   0.027   1.501   5.217  0.8104 -0.3398  0.3101
  576MOL0     C77655   0.133   1.609   5.227 -0.6088  0.1237 -0.4483
  576MOL0     O77656   0.149   1.677   5.350  0.7637 -0.2625  0.5206
  576MOL0     C77657   0.235   1.778   5.353  0.3946 -1.6669  0.5407
  576MOL0     C77658   0.377   1.791   5.345 -0.3358  0.6227  0.7642
  576MOL0     C77659   0.442   1.913   5.344 -0.1952 -0.1969  0.0167
  576MOL0     C77660   0.365   2.031   5.355  0.5226  0.3116 -0.5293
  576MOL0     O77661   0.418   2.153   5.378 -0.1194  0.2182 -0.3836
  576MOL0     C77662   0.559   2.178   5.356  0.1279  0.7325 -0.0645
  576MOL0     C77663   0.573   2.324   5.320 -0.6552  0.0444 -0.2410
  576MOL0     C77664   0.565   2.343   5.168  0.1967 -0.7405  1.0768
  576MOL0     C77665   0.494   2.479   5.126  0.5919 -0.2193  0.1551
  576MOL0     C77666   0.461   2.505   4.977 -0.0606 -0.4123  0.9734
  576MOL0     C77667   0.587   2.551   4.900 -0.0704 -1.0520  0.3031
  576MOL0     C77668   0.554   2.572   4.757 -0.4360  0.6618  0.2107
  576MOL0     C77669   0.685   2.596   4.671 -0.3480 -0.2380  0.1574
  576MOL0    Cl77670   0.785   2.452   4.674 -0.0212 -0.2144  0.5774
  576MOL0     C77671   0.226   2.023   5.355 -0.0191 -0.6834  0.1119
  576MOL0     C77672   0.167   1.903   5.350  0.3358  0.3096 -0.0923
  576MOL0     O77673   0.213   1.625   5.138 -0.5609  0.1188  0.4673
  576MOL0     C77674  -0.057   1.463   5.330  0.2631  0.3441 -0.3470
  576MOL0     C77675  -0.168   1.387   5.318  0.1924  0.5804  0.6400
  576MOL0     N77676  -0.052   0.756   4.794  0.7504 -0.0569 -0.4894
  576MOL0     N77677   0.076   0.757   4.758 -0.3567  0.1567 -0.1528
  576MOL0     C77678   1.287   1.230   4.555 -0.1415  0.1052  0.0552
  576MOL0     C77679   1.372   1.304   4.638 -0.4100 -0.7609  0.4392
  576MOL0     C77680   1.640   1.364   5.009  0.4392  0.2012  0.2968
  576MOL0     C77681   1.642   1.505   5.004  0.8948 -0.1179 -0.3847
  576MOL0     C77682   1.721   1.578   5.100  0.1855  0.3622 -0.0756
  576MOL0     C77683   1.795   1.504   5.196 -0.2123  1.0678  0.3214
  576MOL0     O77684   1.873   1.576   5.286 -0.4294 -0.0147 -0.5058
  576MOL0     C77685   1.893   1.720   5.272  0.4016  0.1034 -0.4970
  576MOL0     C77686   2.015   1.758   5.354  0.3048 -0.1188 -0.5094
  576MOL0     C77687   2.017   1.898   5.413  0.0329  0.0422  0.3385
  576MOL0     C77688   2.148   1.927   5.476 -0.0431 -0.4010 -0.3347
  576MOL0     C77689   2.264   1.925   5.380 -0.4783  0.5798  0.1153
  576MOL0     C77690   2.354   1.933   5.298  0.2469 -1.1522  0.2380
  576MOL0     C77691   1.790   1.358   5.198 -0.5551 -0.1624  0.2641
  576MOL0     C77692   1.701   1.296   5.112 -0.5700 -0.3017  0.9435
  576MOL0     H77693   1.270   1.177   4.932  0.1424 -0.9376 -1.0707
  576MOL0     H77694   1.110   1.071   4.797  0.4887 -0.0301 -0.5203
  576MOL0     H77695   0.924   1.126   4.636 -0.1432 -0.2840  0.3476
  576MOL0     H77696   0.891   1.085   4.481 -1.6558 -1.6423  1.3498
  576MOL0     H77697   1.010   0.870   4.501  0.8588  4.3698 -0.6652
  576MOL0     H77698   1.007   0.890   4.676  1.1476  3.4664  1.7298
  576MOL0     H77699   0.760   0.890   4.489 -1.5682 -0.5256  0.7167
  576MOL0     H77700   0.824   0.755   4.577  1.3768 -0.5154  0.0411
  576MOL0     H77701   0.761   0.884   4.794 -0.3532 -1.0464 -0.6666
  576MOL0     H77702   0.720   1.023   4.687 -0.7777  0.0199  0.0565
  576MOL0     H77703   0.557   0.880   4.559  2.0494  0.0177 -0.5898
  576MOL0     H77704   0.595   0.755   4.675  4.4061  0.0379  0.7282
  576MOL0     H77705   0.523   0.913   4.868 -1.9012 -0.0262  1.2756
  576MOL0     H77706   0.470   1.022   4.743 -0.7208 -1.3907 -1.6422
  576MOL0     H77707   0.304   0.865   4.644 -1.9795 -1.1390  2.0902
  576MOL0     H77708   0.366   0.734   4.752 -0.5923 -0.5493  1.1038
  576MOL0     H77709   0.256   1.000   4.862  0.5455 -0.4466 -1.3136
  576MOL0     H77710   0.279   0.853   4.948  2.6450  1.9518 -0.3792
  576MOL0     H77711   0.050   1.009   4.965 -2.9083 -0.1748  0.5232
  576MOL0     H77712  -0.301   0.833   4.890  1.7693 -1.5161 -0.5897
  576MOL0     H77713  -0.238   0.800   5.041 -2.5725  1.9581  1.9001
  576MOL0     H77714  -0.265   1.064   4.890  0.3539 -1.2697  0.0283
  576MOL0     H77715  -0.164   1.057   5.041  2.1366 -2.4407 -0.8600
  576MOL0     H77716  -0.354   0.992   5.171  1.5154 -1.2267 -0.4785
  576MOL0     H77717  -0.453   1.012   5.024  1.3258 -0.5247 -1.1946
  576MOL0     H77718  -0.488   1.222   5.097  0.0799 -0.6463  0.1355
  576MOL0     H77719  -0.359   1.250   4.989 -0.1681 -1.8718 -0.7785
  576MOL0     H77720  -0.157   1.316   4.982  0.3157  1.4530 -1.7604
  576MOL0     H77721   0.009   1.433   4.880 -0.4201  1.6799 -0.3535
  576MOL0     H77722   0.013   1.604   4.938 -2.5173 -0.9185 -1.0063
  576MOL0     H77723   0.156   1.504   4.951  0.4536 -0.6922  0.8054
  576MOL0     H77724   0.421   1.692   5.335 -1.8459 -0.0884  0.7958
  576MOL0     H77725   0.550   1.901   5.347 -0.1905 -0.4201 -0.7107
  576MOL0     H77726   0.614   2.153   5.448  0.0375 -0.3792 -0.2949
  576MOL0     H77727   0.588   2.124   5.265 -0.4309  1.3743 -0.6325
  576MOL0     H77728   0.491   2.379   5.366  0.0437  0.9705 -0.0548
  576MOL0     H77729   0.670   2.356   5.360  0.9642 -2.2269 -2.0946
  576MOL0     H77730   0.499   2.266   5.127  2.6000 -2.4196  0.1557
  576MOL0     H77731   0.668   2.342   5.131 -0.5876  1.4202 -1.4890
  576MOL0     H77732   0.401   2.490   5.182  1.1486 -1.8614  1.4808
  576MOL0     H77733   0.567   2.558   5.145  1.8047 -1.8786  2.8612
  576MOL0     H77734   0.396   2.592   4.974  1.6535  0.9064  0.3878
  576MOL0     H77735   0.403   2.428   4.925 -0.1734  0.8946 -0.9028
  576MOL0     H77736   0.641   2.634   4.946  0.3540 -0.3909 -1.2861
  576MOL0     H77737   0.664   2.473   4.905  1.3552  0.3995  3.1999
  576MOL0     H77738   0.490   2.660   4.749 -1.8418 -0.2402  1.0748
  576MOL0     H77739   0.500   2.490   4.707 -0.4588 -1.0839  2.8871
  576MOL0     H77740   0.747   2.677   4.709  1.9443 -1.7656 -0.1642
  576MOL0     H77741   0.654   2.630   4.571  0.2584 -2.1802 -0.7472
  576MOL0     H77742   0.179   2.118   5.379 -0.1359 -0.9654  1.0591
  576MOL0     H77743   0.059   1.908   5.360  0.1745 -1.5150 -0.6022
  576MOL0     H77744  -0.037   1.492   5.432 -1.5432 -0.7143  0.3516
  576MOL0     H77745  -0.245   1.374   5.394  0.7766 -1.1663  0.9638
  576MOL0     H77746   1.280   1.242   4.447 -0.6224 -1.7730 -0.1532
  576MOL0     H77747   1.439   1.380   4.598 -0.2334 -1.0030  0.2695
  576MOL0     H77748   1.593   1.553   4.920 -0.1372 -2.4295 -1.1970
  576MOL0     H77749   1.739   1.685   5.104 -0.8194  0.5204  0.7872
  576MOL0     H77750   1.911   1.746   5.167 -0.4026  0.2216 -0.6058
  576MOL0     H77751   1.806   1.774   5.309 -0.6068 -1.3255 -0.7144
  576MOL0     H77752   2.107   1.723   5.307  0.3295 -2.8637  1.3429
  576MOL0     H77753   2.024   1.686   5.436  0.1141 -2.4213 -2.3843
  576MOL0     H77754   1.941   1.916   5.489  0.0555  1.0611  0.1285
  576MOL0     H77755   1.997   1.972   5.335  1.0318 -0.6357 -0.5880
  576MOL0     H77756   2.162   1.858   5.559  2.1457 -1.5587 -1.5690
  576MOL0     H77757   2.143   2.030   5.513 -2.1826 -0.3447 -0.6851
  576MOL0     H77758   2.443   1.933   5.239  1.6399  3.5866  1.8812
  576MOL0     H77759   1.843   1.295   5.269  2.1203 -2.5179 -3.4067
  576MOL0     H77760   1.683   1.189   5.124  0.6137 -0.5107  0.9892
  577MOL0     O77761  10.327   5.820   3.557  0.1188 -0.7625 -0.5473
  577MOL0     C77762  10.397   5.895   3.497  0.5986  0.1299 -0.0353
  577MOL0     O77763  10.354   5.992   3.417 -0.0592 -0.9578 -0.3032
  577MOL0     C77764  10.223   5.997   3.384 -0.3825 -0.7518  0.3477
  577MOL0     C77765  10.187   5.980   3.250 -0.3596  0.4236 -0.2949
  577MOL0     C77766  10.057   5.977   3.211  0.6739  0.0444 -0.1106
  577MOL0     C77767   9.957   6.008   3.293  0.1367 -0.3724 -0.0529
  577MOL0     O77768   9.816   6.008   3.266 -0.1920  0.2219  0.3224
  577MOL0     C77769   9.771   6.003   3.136 -0.6111  0.3949  0.0459
  577MOL0     C77770   9.617   6.018   3.137 -0.3765 -0.4400 -0.4335
  577MOL0     C77771   9.546   5.905   3.195  0.2602 -0.6537  0.1284
  577MOL0     C77772   9.391   5.916   3.197  1.5123 -0.0356 -0.6085
  577MOL0     C77773   9.327   5.931   3.057 -0.7391  0.3179 -0.0900
  577MOL0     C77774   9.361   5.814   2.966 -0.7987  0.7186 -0.5472
  577MOL0     C77775   9.291   5.684   3.011  0.3981 -0.0901  0.5674
  577MOL0     C77776   9.346   5.543   2.957  0.3532  0.2314 -0.0614
  577MOL0     N77777   9.481   5.516   3.000  0.3911 -0.5279 -0.3541
  577MOL0     C77778   9.520   5.539   3.130 -0.8958  0.8688 -0.0337
  577MOL0     C77779   9.654   5.515   3.119  0.3348  0.5754 -0.0278
  577MOL0     C77780   9.748   5.519   3.235  1.1168  0.0052  0.9548
  577MOL0     C77781   9.883   5.543   3.192  0.5892  0.0153  0.4255
  577MOL0     C77782   9.967   5.575   3.310  0.2125 -0.2187 -0.1219
  577MOL0     C77783  10.099   5.639   3.273 -0.0715 -0.1674  0.0020
  577MOL0     O77784  10.190   5.554   3.202 -0.0775  0.1889 -0.0801
  577MOL0     C77785  10.306   5.516   3.267  0.4290 -0.1006 -0.2554
  577MOL0     C77786  10.398   5.446   3.195  0.6237  0.6413  0.7886
  577MOL0     C77787  10.518   5.394   3.257 -0.3430  1.0643 -0.2643
  577MOL0     C77788  10.607   5.318   3.172 -0.1484 -0.1148  0.5057
  577MOL0     C77789  10.536   5.414   3.400 -0.1891 -0.1364  0.0303
  577MOL0     C77790  10.646   5.349   3.462  0.3280  0.6263  0.3842
  577MOL0     O77791  10.618   5.273   3.573  0.0505  0.6726  0.2242
  577MOL0     C77792  10.717   5.233   3.663 -0.0826 -0.5638  0.2446
  577MOL0     C77793  10.710   5.256   3.798  0.5752  0.5611  0.0903
  577MOL0     C77794  10.805   5.200   3.886  0.2047 -0.1992  0.6907
  577MOL0     C77795  10.906   5.114   3.839 -0.6540  0.2897  0.2860
  577MOL0     O77796  11.002   5.081   3.930  1.0216 -0.0113  0.2125
  577MOL0     C77797  11.121   5.022   3.873 -0.4206 -0.2500 -0.2199
  577MOL0     C77798  11.231   5.017   3.982  1.0721  0.1992 -0.2125
  577MOL0     C77799  11.365   4.973   3.916  1.1851  0.6938  0.7540
  577MOL0     C77800  11.477   5.001   4.010 -0.0368  0.4644  0.2877
  577MOL0     C77801  11.609   4.968   3.955 -0.0078  0.1769  1.0465
  577MOL0     C77802  11.712   5.013   4.048 -0.3039 -0.3493  0.6265
  577MOL0     C77803  11.848   4.978   3.991 -0.0419  0.4695 -0.4339
  577MOL0     C77804  11.952   5.004   4.092 -1.6046 -0.7154  0.1712
  577MOL0    Cl77805  12.115   5.002   4.023  0.4091 -0.1947 -0.6446
  577MOL0     C77806  10.889   5.078   3.700  0.1203 -0.4778  0.0341
  577MOL0     C77807  10.800   5.139   3.614 -0.4941  0.1524  0.6520
  577MOL0     O77808  10.759   5.372   3.414  0.1378  0.3011  0.2334
  577MOL0     C77809  10.442   5.471   3.473  0.8381  0.1953  0.5622
  577MOL0     C77810  10.325   5.527   3.409  0.4205 -0.2525  0.4299
  577MOL0     N77811   9.693   5.495   2.990 -0.6907  0.1323 -0.0397
  577MOL0     N77812   9.583   5.480   2.917 -0.1781  0.3810  0.1525
  577MOL0     C77813   9.981   6.008   3.432 -0.0695  0.1598  0.0331
  577MOL0     C77814  10.113   6.004   3.480  0.4968  0.0520 -0.1757
  577MOL0     C77815  10.538   5.880   3.522 -0.3483 -0.1510 -0.1269
  577MOL0     C77816  10.589   5.811   3.634  0.9323  0.8390 -0.7612
  577MOL0     C77817  10.727   5.793   3.655  0.4576 -0.3988  0.3088
  577MOL0     C77818  10.821   5.849   3.567  0.5174 -0.9551  0.2307
  577MOL0     O77819  10.959   5.845   3.581  0.5477  0.6639  0.7608
  577MOL0     C77820  11.025   5.731   3.625 -0.1297 -0.2508  0.0578
  577MOL0     C77821  10.962   5.591   3.565  0.2444  0.4671 -0.2332
  577MOL0     C77822  11.049   5.474   3.617  0.3191 -0.2597 -0.0478
  577MOL0     C77823  11.195   5.485   3.608 -0.3023  1.0596 -0.2019
  577MOL0     C77824  11.266   5.358   3.626 -0.4233  0.5837 -0.0847
  577MOL0     C77825  11.342   5.266   3.626  0.1936  0.4718  0.6275
  577MOL0     C77826  10.769   5.920   3.462  0.1398 -0.1867  0.5973
  577MOL0     C77827  10.634   5.942   3.442  0.0832  0.1220  0.7995
  577MOL0     H77828  10.264   5.974   3.174  1.8055  1.3108  1.7087
  577MOL0     H77829  10.033   5.954   3.108 -1.0699 -0.1979  0.3264
  577MOL0     H77830   9.811   6.084   3.074 -0.9826 -1.5321 -2.8943
  577MOL0     H77831   9.804   5.912   3.086 -4.1282 -0.8299 -0.3020
  577MOL0     H77832   9.588   6.107   3.194 -1.5243 -2.2187  1.9360
  577MOL0     H77833   9.584   6.030   3.033 -3.3626  1.0187  0.5661
  577MOL0     H77834   9.581   5.819   3.137  1.1922 -0.8125  0.9126
  577MOL0     H77835   9.583   5.883   3.295  1.3950  0.7320  0.0365
  577MOL0     H77836   9.351   5.835   3.259  2.1279  1.3617  1.7426
  577MOL0     H77837   9.360   6.003   3.255  1.0406  0.6710 -1.8832
  577MOL0     H77838   9.219   5.927   3.075 -0.5505 -2.9613  1.0542
  577MOL0     H77839   9.353   6.025   3.008  1.2199 -0.4350 -0.5845
  577MOL0     H77840   9.334   5.840   2.863  0.1867  1.0310 -0.7367
  577MOL0     H77841   9.469   5.800   2.961 -0.6144  0.9141  1.9226
  577MOL0     H77842   9.287   5.684   3.120  3.3481  3.1671  0.8546
  577MOL0     H77843   9.186   5.685   2.978 -0.0464  0.6834  1.9107
  577MOL0     H77844   9.358   5.544   2.849  1.8770  0.2031  0.0903
  577MOL0     H77845   9.283   5.466   3.004 -2.0524  2.2986  0.3059
  577MOL0     H77846   9.460   5.547   3.220 -0.5698  1.7808  0.1167
  577MOL0     H77847   9.717   5.605   3.295  3.9248  0.7699  1.4501
  577MOL0     H77848   9.744   5.430   3.300  1.2231  0.6626  1.8867
  577MOL0     H77849   9.889   5.622   3.117 -1.4335  0.3495  0.5620
  577MOL0     H77850   9.922   5.456   3.139 -0.3900 -0.5946  0.6843
  577MOL0     H77851   9.993   5.482   3.362 -2.3720 -1.6885 -1.2194
  577MOL0     H77852   9.918   5.625   3.394 -2.0911 -2.4109 -0.0168
  577MOL0     H77853  10.141   5.692   3.359 -0.1592  0.2110 -0.1836
  577MOL0     H77854  10.074   5.722   3.205  0.4209 -1.6832 -2.1221
  577MOL0     H77855  10.382   5.439   3.088 -1.0572  0.6016  1.0179
  577MOL0     H77856  10.546   5.260   3.102  1.8120 -1.7466  0.0406
  577MOL0     H77857  10.666   5.394   3.121 -1.2159  0.7012  0.4400
  577MOL0     H77858  10.675   5.252   3.227 -0.8477  0.1857  1.7962
  577MOL0     H77859  10.630   5.315   3.840  2.2601  1.0829  2.7888
  577MOL0     H77860  10.805   5.219   3.993 -4.7130  1.6890  0.6220
  577MOL0     H77861  11.104   4.920   3.836  0.5723 -0.1720 -0.9325
  577MOL0     H77862  11.152   5.083   3.787 -1.6327  0.7495  0.0311
  577MOL0     H77863  11.244   5.117   4.025  3.8271 -1.3086  2.8643
  577MOL0     H77864  11.210   4.942   4.059  2.0152 -0.7574 -0.8614
  577MOL0     H77865  11.376   5.005   3.812  0.7593 -0.7125  0.2557
  577MOL0     H77866  11.355   4.865   3.903  0.1282  1.0187 -1.5315
  577MOL0     H77867  11.471   5.104   4.048  0.4103  0.9907 -1.0018
  577MOL0     H77868  11.460   4.934   4.095 -0.9455 -1.3240 -1.2364
  577MOL0     H77869  11.624   4.998   3.851 -1.0836  0.1225  0.8585
  577MOL0     H77870  11.597   4.859   3.956 -2.1875  0.3578  1.0179
  577MOL0     H77871  11.694   5.121   4.046  0.0801 -0.2467  1.7754
  577MOL0     H77872  11.699   4.993   4.155 -3.5223  0.0314  0.3900
  577MOL0     H77873  11.881   5.039   3.907  1.8784 -0.9783 -0.8079
  577MOL0     H77874  11.848   4.871   3.967 -3.8800  0.6053 -1.7790
  577MOL0     H77875  11.963   4.932   4.173 -2.9327 -1.1554 -0.0203
  577MOL0     H77876  11.937   5.106   4.128 -1.0127 -0.0851 -1.2741
  577MOL0     H77877  10.952   4.998   3.661 -1.3581 -1.9592  0.5711
  577MOL0     H77878  10.807   5.113   3.508  2.2640  2.5426  0.1169
  577MOL0     H77879  10.442   5.483   3.581 -1.3786  0.4046  0.5840
  577MOL0     H77880  10.246   5.558   3.477 -1.7866 -2.9096 -0.7310
  577MOL0     H77881   9.895   6.020   3.497 -0.2726  1.2572 -0.4066
  577MOL0     H77882  10.135   6.017   3.585 -2.5831  3.4958  0.2738
  577MOL0     H77883  10.519   5.762   3.700  0.9588  1.3865 -0.3252
  577MOL0     H77884  10.750   5.732   3.742 -1.1850 -2.1311 -0.4107
  577MOL0     H77885  11.128   5.732   3.588  1.2737  0.8882  3.5609
  577MOL0     H77886  11.014   5.727   3.734 -1.7619  0.1739 -0.0579
  577MOL0     H77887  10.962   5.577   3.456 -0.5822 -0.9646 -0.0684
  577MOL0     H77888  10.858   5.569   3.590  1.3432 -3.9577  1.2287
  577MOL0     H77889  11.018   5.389   3.555  0.8286 -0.7752  0.3951
  577MOL0     H77890  11.011   5.443   3.716 -3.3331  0.7797 -0.9610
  577MOL0     H77891  11.230   5.552   3.688  1.7905 -2.5983  2.2732
  577MOL0     H77892  11.218   5.526   3.509 -1.7861 -1.4933 -1.7182
  577MOL0     H77893  11.422   5.195   3.630 -0.8272 -0.7129  0.8047
  577MOL0     H77894  10.836   5.971   3.394 -0.3326  0.3455  0.5202
  577MOL0     H77895  10.608   5.982   3.344 -0.0675 -1.7668  0.0296
  578MOL0     O77896   0.435   0.466   4.626 -0.7824  0.1150 -0.5506
  578MOL0     C77897   0.530   0.473   4.703  0.6495 -0.4134  0.9198
  578MOL0     O77898   0.526   0.470   4.833 -1.0103 -0.4162 -0.7481
  578MOL0     C77899   0.413   0.470   4.915  0.3690  0.5647  1.2518
  578MOL0     C77900   0.283   0.426   4.878 -0.2843 -1.0087  0.3688
  578MOL0     C77901   0.177   0.421   4.970 -0.4333 -0.1933 -0.2765
  578MOL0     C77902   0.198   0.474   5.097 -0.2703  0.4959 -0.8927
  578MOL0     O77903   0.100   0.491   5.190  0.1145  0.0818  0.2946
  578MOL0     C77904  -0.023   0.435   5.164  0.2584  0.0262  1.0563
  578MOL0     C77905  -0.127   0.462   5.278 -0.2043 -0.2214 -1.2019
  578MOL0     C77906  -0.267   0.392   5.249  0.6763 -0.0159 -0.1483
  578MOL0     C77907  -0.285   0.268   5.336  0.4506 -0.1661 -0.5222
  578MOL0     C77908  -0.433   0.216   5.338  0.1909  0.1075  0.3299
  578MOL0     C77909  -0.522   0.310   5.436 -0.8613 -0.5067  0.1184
  578MOL0     C77910  -0.669   0.281   5.398 -0.0690 -0.1468 -0.0975
  578MOL0     C77911  -0.728   0.353   5.272 -0.3447  0.2828  0.6738
  578MOL0     N77912  -0.876   0.329   5.271  0.6597  0.2598  0.6069
  578MOL0     C77913  -0.968   0.420   5.319 -0.3462  0.2033 -0.9952
  578MOL0     C77914  -1.089   0.366   5.275 -0.7135 -0.8567  0.3315
  578MOL0     C77915  -1.223   0.431   5.307  0.7699 -0.6655  0.6965
  578MOL0     C77916  -1.335   0.326   5.292 -0.3911  0.1527 -0.1871
  578MOL0     C77917  -1.466   0.355   5.362 -0.2024 -0.2284  0.0055
  578MOL0     C77918  -1.539   0.226   5.403 -0.0127  0.1028  0.3478
  578MOL0     O77919  -1.554   0.135   5.291  0.4762 -0.2422  0.3815
  578MOL0     C77920  -1.684   0.088   5.254  0.1022  0.3693 -0.0732
  578MOL0     C77921  -1.709  -0.044   5.276 -0.1398  0.4038 -0.2322
  578MOL0     C77922  -1.830  -0.102   5.260 -0.5290 -0.2012  0.1622
  578MOL0     C77923  -1.847  -0.247   5.309  1.0521 -0.6334 -0.3581
  578MOL0     C77924  -1.942  -0.024   5.230 -0.6592 -0.2188  0.6014
  578MOL0     C77925  -2.087  -0.063   5.221 -0.0103 -0.1321 -0.4054
  578MOL0     O77926  -2.164   0.032   5.176  0.2410  0.2237  0.1399
  578MOL0     C77927  -2.297   0.005   5.156 -0.1455  0.8328 -0.4000
  578MOL0     C77928  -2.391   0.046   5.249  1.0550 -0.6588  0.1449
  578MOL0     C77929  -2.534   0.025   5.217  0.2613  0.8915 -0.1039
  578MOL0     C77930  -2.572  -0.039   5.102 -0.0617  0.6741 -0.2042
  578MOL0     O77931  -2.704  -0.048   5.075 -0.7803 -0.1062  0.2883
  578MOL0     C77932  -2.744  -0.035   4.937  0.0105 -0.2026 -0.7079
  578MOL0     C77933  -2.878   0.034   4.916  0.1042 -0.1656  0.6406
  578MOL0     C77934  -2.992  -0.038   4.989 -0.0021 -1.3236 -0.4575
  578MOL0     C77935  -3.126   0.014   4.940 -0.7857 -0.3717  0.3164
  578MOL0     C77936  -3.238  -0.086   4.973 -0.2223  0.0056 -0.3047
  578MOL0     C77937  -3.279  -0.084   5.117  0.2165 -0.4578 -0.0707
  578MOL0     C77938  -3.432  -0.107   5.119  0.4211 -1.0568  0.3447
  578MOL0     C77939  -3.484  -0.246   5.179  0.1582 -0.3948 -0.0316
  578MOL0    Cl77940  -3.380  -0.385   5.118 -0.0190 -0.1594 -0.0387
  578MOL0     C77941  -2.479  -0.099   5.022  0.3723  0.1690  0.1480
  578MOL0     C77942  -2.344  -0.077   5.053  0.0989 -0.2046 -0.0831
  578MOL0     O77943  -2.123  -0.171   5.252 -0.3173  0.0241 -0.1073
  578MOL0     C77944  -1.910   0.110   5.201  0.6186 -0.1832  0.6592
  578MOL0     C77945  -1.786   0.170   5.220  0.7688  1.1323  0.1074
  578MOL0     N77946  -1.059   0.245   5.215  0.2099 -0.0880  0.1537
  578MOL0     N77947  -0.936   0.221   5.205 -0.2304 -0.1632  0.6151
  578MOL0     C77948   0.321   0.526   5.123 -0.6250 -0.3153  0.2330
  578MOL0     C77949   0.432   0.521   5.039 -0.3204 -0.1791 -1.3485
  578MOL0     C77950   0.664   0.489   4.637 -0.3188 -0.2734  0.2236
  578MOL0     C77951   0.695   0.466   4.505  0.9840 -0.6099  0.1661
  578MOL0     C77952   0.820   0.478   4.445  0.1303 -0.6580 -0.6780
  578MOL0     C77953   0.929   0.495   4.532 -1.1029  0.3164  0.4865
  578MOL0     O77954   1.053   0.505   4.476 -0.4897  0.3206  0.5087
  578MOL0     C77955   1.072   0.469   4.332 -0.0288 -0.8137 -0.0945
  578MOL0     C77956   1.219   0.472   4.285 -0.4592  0.5042  0.7339
  578MOL0     C77957   1.243   0.441   4.136 -0.7221  0.3053  0.2427
  578MOL0     C77958   1.148   0.518   4.037  0.5762  0.2498 -0.4327
  578MOL0     C77959   1.167   0.664   4.034 -0.5155  0.4624  0.0882
  578MOL0     C77960   1.187   0.780   4.054  0.5035  0.0298  0.3081
  578MOL0     C77961   0.911   0.520   4.663  0.5665  0.8130  0.4090
  578MOL0     C77962   0.779   0.518   4.717 -0.0159  0.3151  0.6381
  578MOL0     H77963   0.262   0.399   4.775  0.4821  0.1724 -0.1272
  578MOL0     H77964   0.087   0.383   4.924  0.5242 -0.6301 -1.8783
  578MOL0     H77965  -0.070   0.481   5.076 -2.1275 -1.7756  1.2973
  578MOL0     H77966  -0.009   0.329   5.143  4.1037  0.8171 -1.4128
  578MOL0     H77967  -0.090   0.419   5.371 -0.5316  2.4078  0.2548
  578MOL0     H77968  -0.124   0.569   5.300  2.3851 -0.6936  1.2710
  578MOL0     H77969  -0.353   0.457   5.266 -0.2135 -1.5424  1.5964
  578MOL0     H77970  -0.285   0.354   5.148 -1.8242  1.3177 -0.2914
  578MOL0     H77971  -0.231   0.180   5.300 -0.4262 -0.6137 -0.7536
  578MOL0     H77972  -0.254   0.291   5.439 -2.1305 -2.3775  0.8554
  578MOL0     H77973  -0.483   0.200   5.242 -1.5054  2.0982  0.8045
  578MOL0     H77974  -0.437   0.122   5.393 -0.1040  1.4960  2.8400
  578MOL0     H77975  -0.507   0.280   5.540 -2.8360  0.9440  0.8727
  578MOL0     H77976  -0.493   0.415   5.429  1.6738 -1.2522 -2.8508
  578MOL0     H77977  -0.683   0.176   5.373 -1.0390  0.1901 -1.0763
  578MOL0     H77978  -0.730   0.300   5.488  0.8032 -0.2286  0.5248
  578MOL0     H77979  -0.680   0.326   5.178  0.3885 -1.7959  1.5798
  578MOL0     H77980  -0.724   0.461   5.289  1.5626  0.7504 -2.0466
  578MOL0     H77981  -0.957   0.511   5.377  2.0588  0.0676 -1.1354
  578MOL0     H77982  -1.222   0.477   5.407 -2.3565 -1.1279  1.0487
  578MOL0     H77983  -1.233   0.517   5.240 -0.1803  1.8429  3.7744
  578MOL0     H77984  -1.283   0.233   5.316  2.2189  1.1449 -1.5568
  578MOL0     H77985  -1.352   0.318   5.184  1.9081 -1.9435 -0.4919
  578MOL0     H77986  -1.524   0.410   5.288 -0.0401 -4.0823 -3.2729
  578MOL0     H77987  -1.445   0.424   5.445 -0.1183 -1.7318  1.2892
  578MOL0     H77988  -1.636   0.247   5.450  0.3433  2.4879  0.1124
  578MOL0     H77989  -1.489   0.180   5.489 -1.7493  0.0325  1.3787
  578MOL0     H77990  -1.622  -0.102   5.305 -1.4209 -0.2089  2.7224
  578MOL0     H77991  -1.839  -0.316   5.225 -1.6908 -0.5195 -0.8008
  578MOL0     H77992  -1.766  -0.246   5.382  0.1022  2.7935  0.8296
  578MOL0     H77993  -1.942  -0.270   5.358 -1.0027  2.5032 -2.4327
  578MOL0     H77994  -2.375   0.097   5.344  0.2171  0.9828 -0.5488
  578MOL0     H77995  -2.604   0.061   5.292 -1.4839  0.4765 -1.4793
  578MOL0     H77996  -2.676   0.035   4.887 -1.3003 -0.2506 -2.6581
  578MOL0     H77997  -2.741  -0.135   4.892 -3.1492 -1.6632  1.8707
  578MOL0     H77998  -2.854   0.129   4.963  2.6342 -0.4063 -0.0172
  578MOL0     H77999  -2.895   0.043   4.808 -1.9898 -0.9678  0.8680
  578MOL0     H78000  -2.971  -0.025   5.096 -0.8703 -1.3774 -0.2742
  578MOL0     H78001  -2.982  -0.147   4.976 -1.0286 -1.9935  3.1744
  578MOL0     H78002  -3.140   0.114   4.984 -1.4158  0.0203 -0.7304
  578MOL0     H78003  -3.120   0.021   4.831 -1.8855 -1.1878  0.1831
  578MOL0     H78004  -3.202  -0.189   4.960 -2.7955 -0.8061 -1.6492
  578MOL0     H78005  -3.312  -0.058   4.898 -0.6986  0.3032  0.2634
  578MOL0     H78006  -3.233  -0.158   5.183 -4.1901 -1.3982  2.3324
  578MOL0     H78007  -3.259   0.012   5.165 -2.2456  0.0133  0.1623
  578MOL0     H78008  -3.472  -0.093   5.018 -2.0828 -0.5576  1.3577
  578MOL0     H78009  -3.480  -0.027   5.175 -0.1664 -1.9745  1.1925
  578MOL0     H78010  -3.590  -0.256   5.153  0.1485 -1.0700  0.2513
  578MOL0     H78011  -3.475  -0.250   5.288 -0.5769  0.2412  0.0662
  578MOL0     H78012  -2.511  -0.160   4.937 -1.5445  2.9556 -1.3013
  578MOL0     H78013  -2.268  -0.116   4.986  1.3204  0.6128  0.7909
  578MOL0     H78014  -1.987   0.178   5.165  1.3405  0.1916 -0.2041
  578MOL0     H78015  -1.764   0.275   5.206  0.4040  1.1604 -0.2715
  578MOL0     H78016   0.349   0.570   5.218  3.4977  0.3176 -1.0838
  578MOL0     H78017   0.529   0.559   5.069 -0.7265  2.6948 -3.2684
  578MOL0     H78018   0.613   0.447   4.436  0.5907  0.0735  0.4356
  578MOL0     H78019   0.828   0.476   4.336  2.6982 -0.6421 -0.5402
  578MOL0     H78020   1.033   0.369   4.311  1.0263 -0.8819 -1.9188
  578MOL0     H78021   1.024   0.552   4.280  0.2313  0.6786  1.9083
  578MOL0     H78022   1.267   0.398   4.350  0.8499  0.6254 -0.0683
  578MOL0     H78023   1.262   0.567   4.316  0.9345 -0.0678  0.6348
  578MOL0     H78024   1.221   0.334   4.122 -1.2417  0.4188  0.1465
  578MOL0     H78025   1.347   0.461   4.112 -1.0528  0.1396 -1.4274
  578MOL0     H78026   1.046   0.483   4.056 -0.1061  2.3027 -0.0464
  578MOL0     H78027   1.161   0.465   3.942  0.4119 -3.6655  1.5274
  578MOL0     H78028   1.197   0.884   4.080 -2.1222  0.6439 -0.8750
  578MOL0     H78029   0.995   0.560   4.719 -0.5394  2.7510  0.7550
  578MOL0     H78030   0.776   0.553   4.819 -1.5058  0.2277  0.6450
  579MOL0     O78031   2.394   0.919   5.618 -1.1406 -0.2732  0.2755
  579MOL0     C78032   2.495   0.847   5.584  0.7123 -0.1230 -0.4668
  579MOL0     O78033   2.485   0.717   5.540  0.3870  0.4012 -0.6655
  579MOL0     C78034   2.359   0.658   5.552 -0.0585 -0.4153  0.4380
  579MOL0     C78035   2.304   0.618   5.677  0.5214 -0.4108  0.6450
  579MOL0     C78036   2.178   0.562   5.702 -0.4082  0.1185  0.4508
  579MOL0     C78037   2.090   0.541   5.590  0.5343  0.2529  0.2599
  579MOL0     O78038   1.966   0.492   5.619  0.4695  0.2885 -0.1981
  579MOL0     C78039   1.859   0.520   5.527 -0.9277  0.6714  0.7077
  579MOL0     C78040   1.729   0.475   5.584 -0.0392  0.7653  1.4937
  579MOL0     C78041   1.743   0.324   5.588  0.9968 -0.8478  0.1825
  579MOL0     C78042   1.631   0.248   5.662  0.2671 -0.1374 -1.1876
  579MOL0     C78043   1.633   0.275   5.811 -0.5848  0.3415  0.1213
  579MOL0     C78044   1.521   0.191   5.886 -0.8222  0.8210 -0.2991
  579MOL0     C78045   1.379   0.209   5.847  0.8409  0.4952 -0.0377
  579MOL0     C78046   1.288   0.126   5.934  0.2030 -0.2207 -0.3856
  579MOL0     N78047   1.153   0.133   5.877 -0.1734  0.6854 -0.0920
  579MOL0     C78048   1.089   0.030   5.808 -0.4205 -1.2574  0.1180
  579MOL0     C78049   0.962   0.065   5.826 -0.7449 -0.4328 -0.2018
  579MOL0     C78050   0.845  -0.028   5.825  0.8304 -0.3116  0.8340
  579MOL0     C78051   0.825  -0.119   5.945 -0.1800 -0.2280  0.1597
  579MOL0     C78052   0.780  -0.039   6.064 -0.2276 -0.0979  0.0141
  579MOL0     C78053   0.705  -0.127   6.157 -1.2967 -0.0260  0.1830
  579MOL0     O78054   0.647  -0.059   6.267  0.3435 -0.7334  0.0636
  579MOL0     C78055   0.559  -0.143   6.337  0.2213 -0.1161 -0.0929
  579MOL0     C78056   0.579  -0.276   6.375  0.6578  0.2101  0.1400
  579MOL0     C78057   0.483  -0.340   6.458  0.7942  0.1008  0.0514
  579MOL0     C78058   0.514  -0.481   6.490  0.0930 -0.1563 -0.9445
  579MOL0     C78059   0.361  -0.271   6.502 -0.3364 -0.1384  0.4877
  579MOL0     C78060   0.257  -0.335   6.583  0.3051 -0.1952  1.1813
  579MOL0     O78061   0.180  -0.246   6.650 -0.7675 -0.1658  0.4023
  579MOL0     C78062   0.061  -0.293   6.700 -0.6330  0.1505  0.1428
  579MOL0     C78063  -0.054  -0.244   6.651 -0.0219  0.2303 -0.2654
  579MOL0     C78064  -0.182  -0.269   6.700 -0.6298  0.1764  0.4443
  579MOL0     C78065  -0.198  -0.351   6.818 -0.3101  0.6788 -0.2822
  579MOL0     O78066  -0.324  -0.393   6.869  0.1275  0.0970  1.2617
  579MOL0     C78067  -0.438  -0.299   6.846  0.0784  0.6099 -0.3266
  579MOL0     C78068  -0.527  -0.323   6.964  0.1694 -0.8215  0.3850
  579MOL0     C78069  -0.662  -0.264   6.934 -0.4366  0.4557  0.1479
  579MOL0     C78070  -0.774  -0.316   7.032 -0.1884 -0.0071 -0.3002
  579MOL0     C78071  -0.912  -0.261   7.007 -0.3292 -0.2664 -0.0832
  579MOL0     C78072  -1.016  -0.324   7.109  0.5237 -0.8438  0.0338
  579MOL0     C78073  -1.117  -0.212   7.155  0.3951 -0.4830  0.5830
  579MOL0     C78074  -1.232  -0.260   7.250  0.2371  0.2440 -0.3564
  579MOL0    Cl78075  -1.304  -0.124   7.345 -0.0340 -0.2149 -0.5008
  579MOL0     C78076  -0.082  -0.401   6.869  0.1862 -1.0161  0.0997
  579MOL0     C78077   0.048  -0.376   6.819  0.0325 -0.5611  0.7345
  579MOL0     O78078   0.240  -0.459   6.573  0.1171 -0.1154 -0.3817
  579MOL0     C78079   0.348  -0.136   6.455 -0.0187  0.3740 -0.3374
  579MOL0     C78080   0.453  -0.073   6.386  0.1283 -0.3885  0.4058
  579MOL0     N78081   0.950   0.198   5.855  0.2637  1.0303 -0.4676
  579MOL0     N78082   1.068   0.234   5.895  0.7190  0.3095 -0.1703
  579MOL0     C78083   2.144   0.579   5.462  0.2450 -0.3612 -0.6449
  579MOL0     C78084   2.269   0.629   5.443 -0.4989  0.3975  0.8880
  579MOL0     C78085   2.632   0.903   5.575  0.6633  1.4936 -1.4544
  579MOL0     C78086   2.681   1.005   5.661 -0.5018  0.0346  0.5029
  579MOL0     C78087   2.813   1.045   5.657  0.3652  0.2722 -0.0192
  579MOL0     C78088   2.892   0.992   5.551  0.0258 -0.1141  0.1206
  579MOL0     O78089   3.023   1.020   5.538  0.7665 -0.3220  0.7739
  579MOL0     C78090   3.071   1.156   5.574  0.8775  0.2937 -0.3821
  579MOL0     C78091   3.229   1.155   5.565  0.2994  0.9290 -0.0019
  579MOL0     C78092   3.283   1.119   5.427 -0.1659  0.3025 -0.0932
  579MOL0     C78093   3.422   1.172   5.417  0.0924  0.8115  0.0819
  579MOL0     C78094   3.421   1.317   5.403  0.4613  0.5987 -0.0340
  579MOL0     C78095   3.428   1.435   5.381  0.1186  0.0985 -0.7780
  579MOL0     C78096   2.844   0.887   5.468  0.1997  0.3282  0.3656
  579MOL0     C78097   2.718   0.843   5.474  1.3108  0.2107 -0.3808
  579MOL0     H78098   2.366   0.649   5.760  2.0400  1.9785 -1.2066
  579MOL0     H78099   2.147   0.536   5.803  0.6986  1.6386  1.2213
  579MOL0     H78100   1.858   0.627   5.505 -0.0849  1.1130  2.6231
  579MOL0     H78101   1.876   0.463   5.435  0.4649  3.2428 -0.7438
  579MOL0     H78102   1.721   0.514   5.685 -1.0289  1.7152  1.0699
  579MOL0     H78103   1.656   0.513   5.512  1.4280  1.6696  0.4146
  579MOL0     H78104   1.746   0.282   5.487 -1.9230  1.0936 -0.8419
  579MOL0     H78105   1.833   0.290   5.640 -0.3398 -4.8112  0.2032
  579MOL0     H78106   1.538   0.277   5.612 -0.6323  1.7841  1.4326
  579MOL0     H78107   1.641   0.141   5.643  1.6819 -0.3458  0.5358
  579MOL0     H78108   1.732   0.252   5.852  0.4507 -1.0061 -2.8447
  579MOL0     H78109   1.616   0.382   5.825 -1.2087 -0.1508  4.1427
  579MOL0     H78110   1.546   0.085   5.875 -2.3286  0.4759 -0.5062
  579MOL0     H78111   1.542   0.233   5.985  0.9647 -0.7288  0.0426
  579MOL0     H78112   1.366   0.316   5.864  1.2430  0.0908  3.8090
  579MOL0     H78113   1.363   0.170   5.746 -0.3328  2.0439 -0.4843
  579MOL0     H78114   1.281   0.151   6.040  0.9034  0.7673 -0.5653
  579MOL0     H78115   1.320   0.021   5.934  0.0471 -0.2680 -0.2045
  579MOL0     H78116   1.123  -0.064   5.766  1.8056 -1.0733  1.3381
  579MOL0     H78117   0.755   0.029   5.802 -1.1036 -3.9431 -1.6107
  579MOL0     H78118   0.866  -0.092   5.739  0.6859  0.5364  0.1587
  579MOL0     H78119   0.907  -0.186   5.972 -0.3697 -1.2155 -1.5465
  579MOL0     H78120   0.746  -0.194   5.931  1.1939 -1.6815 -0.0736
  579MOL0     H78121   0.712   0.041   6.033 -2.6991 -1.7434  0.8585
  579MOL0     H78122   0.873  -0.004   6.111  1.0944 -1.4491 -1.4839
  579MOL0     H78123   0.775  -0.201   6.195  1.4602  1.0858 -2.3467
  579MOL0     H78124   0.635  -0.189   6.101 -1.4752  1.7612 -1.6842
  579MOL0     H78125   0.662  -0.340   6.347  0.1879 -0.6680  0.6741
  579MOL0     H78126   0.480  -0.499   6.593 -1.3786  1.5947 -1.0604
  579MOL0     H78127   0.458  -0.541   6.418  1.0216 -4.7684  1.8028
  579MOL0     H78128   0.619  -0.509   6.491  0.7873  2.2069 -0.6015
  579MOL0     H78129  -0.036  -0.170   6.574 -0.1538  2.4592  1.7439
  579MOL0     H78130  -0.267  -0.215   6.659 -0.3031  0.6016  0.3199
  579MOL0     H78131  -0.394  -0.198   6.847  0.3533  0.5135  1.4372
  579MOL0     H78132  -0.486  -0.321   6.751 -1.4974 -2.1808  0.9879
  579MOL0     H78133  -0.530  -0.428   6.995  1.3259 -0.6134  1.2578
  579MOL0     H78134  -0.484  -0.273   7.050 -3.6053  2.7839  0.5023
  579MOL0     H78135  -0.686  -0.311   6.838 -2.6761 -0.3094  1.0077
  579MOL0     H78136  -0.660  -0.155   6.933  0.6458  0.6617  4.6867
  579MOL0     H78137  -0.777  -0.425   7.028 -2.2224  0.0640 -2.5238
  579MOL0     H78138  -0.750  -0.304   7.138 -1.2068  1.0502 -0.1800
  579MOL0     H78139  -0.932  -0.284   6.902 -1.1518 -0.3628  0.0929
  579MOL0     H78140  -0.900  -0.156   7.035  0.9323 -0.0748 -1.2242
  579MOL0     H78141  -1.083  -0.396   7.063 -2.6349  2.0475 -0.2540
  579MOL0     H78142  -0.963  -0.359   7.198  1.5232  0.5898  0.0432
  579MOL0     H78143  -1.164  -0.180   7.062 -0.1235  1.7870  1.5592
  579MOL0     H78144  -1.057  -0.135   7.205 -0.4104  0.6873 -0.2157
  579MOL0     H78145  -1.206  -0.345   7.313 -1.0328  0.3150  0.2888
  579MOL0     H78146  -1.311  -0.305   7.189  0.8037 -0.0964 -0.8619
  579MOL0     H78147  -0.081  -0.444   6.969  1.9881  0.9267  0.9941
  579MOL0     H78148   0.139  -0.415   6.863  0.3871  2.6239  3.1127
  579MOL0     H78149   0.259  -0.076   6.469  1.0697  2.6108 -2.2359
  579MOL0     H78150   0.442   0.032   6.359 -0.7379 -0.6473 -0.2788
  579MOL0     H78151   2.084   0.581   5.372  0.3192  2.4444 -0.7171
  579MOL0     H78152   2.300   0.661   5.343 -0.8669  0.3065  0.7436
  579MOL0     H78153   2.625   1.048   5.744  0.4820  0.2755  1.0669
  579MOL0     H78154   2.861   1.121   5.717  3.4617  1.4986 -3.6311
  579MOL0     H78155   3.034   1.227   5.499 -4.2487 -1.4946  0.0308
  579MOL0     H78156   3.033   1.177   5.674  0.2608 -2.7017  0.0842
  579MOL0     H78157   3.273   1.095   5.645 -0.0035  1.0909  0.2874
  579MOL0     H78158   3.251   1.260   5.583 -3.2507  1.8943 -0.5409
  579MOL0     H78159   3.220   1.166   5.350  0.5862  0.9508 -0.3309
  579MOL0     H78160   3.298   1.011   5.432 -1.0085  0.1990  0.6201
  579MOL0     H78161   3.471   1.133   5.327 -2.9004 -0.0132 -1.3295
  579MOL0     H78162   3.480   1.134   5.501 -1.6075 -0.8293  0.5777
  579MOL0     H78163   3.435   1.541   5.373 -1.3675  0.1304 -2.3573
  579MOL0     H78164   2.912   0.827   5.409 -3.4517 -3.5522 -0.3817
  579MOL0     H78165   2.697   0.744   5.436 -0.2497 -1.0661  3.3601
  580MOL0     O78166   7.876   9.269   4.526  0.0918  0.6175  0.3417
  580MOL0     C78167   7.817   9.287   4.632 -0.1325 -0.4176 -0.0478
  580MOL0     O78168   7.826   9.399   4.709 -0.7892  0.0300 -0.2621
  580MOL0     C78169   7.933   9.481   4.676 -0.2663 -0.4951  0.2346
  580MOL0     C78170   8.048   9.448   4.728  0.1011 -0.0292  0.0165
  580MOL0     C78171   8.167   9.517   4.699  0.0490 -0.6497  0.1704
  580MOL0     C78172   8.168   9.623   4.602 -0.0173 -0.1039 -0.8133
  580MOL0     O78173   8.282   9.689   4.560  0.4530  0.3041 -0.7242
  580MOL0     C78174   8.270   9.823   4.514 -0.0436  0.7587 -0.1593
  580MOL0     C78175   8.401   9.890   4.567  0.5421 -0.0815 -0.1673
  580MOL0     C78176   8.516   9.848   4.482 -0.3176  0.1167  0.1993
  580MOL0     C78177   8.654   9.890   4.548  0.2331 -0.0577  0.8362
  580MOL0     C78178   8.763   9.885   4.438  0.6841  0.8761  0.3647
  580MOL0     C78179   8.872   9.996   4.455 -0.7103  0.1258  0.1658
  580MOL0     C78180   8.970  10.005   4.334 -0.4006 -0.1418  0.7634
  580MOL0     C78181   8.914  10.036   4.203  0.3571 -0.9359  0.5365
  580MOL0     N78182   8.850  10.172   4.192  0.5676  0.0363  0.2282
  580MOL0     C78183   8.716  10.200   4.178  0.9466  0.1038 -0.0134
  580MOL0     C78184   8.709  10.331   4.163  0.4639  0.5835  0.0778
  580MOL0     C78185   8.589  10.411   4.139 -0.1574 -0.0434  0.0660
  580MOL0     C78186   8.597  10.473   4.005  0.3544  0.5575 -0.4134
  580MOL0     C78187   8.488  10.577   3.999  0.0964  0.0248 -0.3927
  580MOL0     C78188   8.497  10.648   3.864 -0.5981 -0.1924  0.7929
  580MOL0     O78189   8.391  10.743   3.855  0.1000 -0.2738 -0.0668
  580MOL0     C78190   8.261  10.713   3.813 -0.1314  0.1834 -0.0610
  580MOL0     C78191   8.160  10.811   3.827  0.3458  0.3058  0.4419
  580MOL0     C78192   8.025  10.779   3.807  0.2393 -0.6122  0.4285
  580MOL0     C78193   7.919  10.893   3.819  0.0927 -0.0347  0.2263
  580MOL0     C78194   7.993  10.653   3.762  0.3473 -1.0599 -0.8964
  580MOL0     C78195   7.856  10.607   3.740 -0.5729  0.0687 -0.0842
  580MOL0     O78196   7.762  10.664   3.826 -0.2198 -0.1066 -0.3448
  580MOL0     C78197   7.632  10.620   3.813  0.6290 -0.7186 -0.5184
  580MOL0     C78198   7.553  10.643   3.694  0.3351  0.1135 -0.7094
  580MOL0     C78199   7.417  10.602   3.699  0.8491  0.1178 -0.0189
  580MOL0     C78200   7.359  10.544   3.815  0.3140 -0.1278 -0.8693
  580MOL0     O78201   7.229  10.506   3.823 -0.0054 -0.5869  0.4508
  580MOL0     C78202   7.168  10.467   3.706 -0.4302  0.8788  0.3663
  580MOL0     C78203   7.061  10.367   3.741  0.2862  0.0980  0.8039
  580MOL0     C78204   6.953  10.351   3.629  0.0057  0.0594 -0.3140
  580MOL0     C78205   6.845  10.268   3.674 -0.8652 -0.4668  0.4749
  580MOL0     C78206   6.734  10.266   3.567  0.2524  0.4990  0.8173
  580MOL0     C78207   6.626  10.156   3.609 -0.0572 -0.1890  1.1496
  580MOL0     C78208   6.543  10.107   3.485 -0.9971 -0.5822  0.4305
  580MOL0     C78209   6.460  10.229   3.429  0.4050 -0.4238  0.9116
  580MOL0    Cl78210   6.344  10.276   3.557 -0.1992  0.1740  0.1303
  580MOL0     C78211   7.433  10.542   3.936  0.3541 -0.2253 -0.0853
  580MOL0     C78212   7.568  10.578   3.934 -0.2116 -0.8832 -0.5291
  580MOL0     O78213   7.834  10.511   3.671  0.5388  0.2448  0.3651
  580MOL0     C78214   8.097  10.561   3.752 -0.1449 -0.2995 -0.3261
  580MOL0     C78215   8.229  10.590   3.769  0.0783  0.2135 -0.0081
  580MOL0     N78216   8.838  10.390   4.192  0.6818  0.0515 -0.1948
  580MOL0     N78217   8.919  10.289   4.197  0.2571 -0.2542  0.1362
  580MOL0     C78218   8.044   9.659   4.543  1.0532  0.7746  0.7304
  580MOL0     C78219   7.929   9.584   4.586 -0.2428 -0.5670 -0.0977
  580MOL0     C78220   7.733   9.176   4.684  0.5470  0.0007  0.2695
  580MOL0     C78221   7.695   9.067   4.602  0.2939  0.5244  0.3487
  580MOL0     C78222   7.598   8.972   4.636  0.3650  0.1903 -1.2673
  580MOL0     C78223   7.529   8.984   4.758  0.2473 -0.6510  0.9371
  580MOL0     O78224   7.431   8.897   4.785 -0.6947 -0.4886 -0.0173
  580MOL0     C78225   7.307   8.942   4.732  0.1338 -0.2411  0.2538
  580MOL0     C78226   7.239   9.052   4.824  0.2409  0.2259  0.5649
  580MOL0     C78227   7.084   9.077   4.799 -0.5895  0.4352  0.2342
  580MOL0     C78228   7.039   9.196   4.880 -0.3905  0.1833  0.2834
  580MOL0     C78229   6.894   9.233   4.865 -0.7371  0.4540 -0.3565
  580MOL0     C78230   6.782   9.276   4.856 -0.4534 -0.1886 -0.1957
  580MOL0     C78231   7.570   9.083   4.844 -0.6962 -0.7118 -0.8262
  580MOL0     C78232   7.669   9.185   4.807 -0.5017 -0.2810 -0.2111
  580MOL0     H78233   8.057   9.355   4.781 -1.3606 -0.3909 -0.3194
  580MOL0     H78234   8.261   9.485   4.742  1.5277  0.6272 -1.8990
  580MOL0     H78235   8.268   9.831   4.405 -1.1263 -2.3008 -0.4592
  580MOL0     H78236   8.186   9.875   4.563 -0.9360 -2.3999  2.0166
  580MOL0     H78237   8.386   9.997   4.552 -1.9216 -0.4783 -0.9294
  580MOL0     H78238   8.426   9.859   4.669 -0.4276 -3.8664 -0.9316
  580MOL0     H78239   8.520   9.743   4.451  0.5615  0.6253 -1.5662
  580MOL0     H78240   8.495   9.901   4.388 -4.5911 -2.4959 -0.5906
  580MOL0     H78241   8.660   9.992   4.587  4.5098 -1.0732  3.6092
  580MOL0     H78242   8.673   9.824   4.633  1.1738 -1.2921 -0.2888
  580MOL0     H78243   8.804   9.784   4.439 -4.2546 -1.6743  5.7694
  580MOL0     H78244   8.713   9.911   4.344 -3.2677 -0.3766  1.9329
  580MOL0     H78245   8.834  10.098   4.468  2.7579  1.3817  1.6005
  580MOL0     H78246   8.928   9.978   4.547  0.0492 -0.6202 -0.4324
  580MOL0     H78247   9.038  10.088   4.355 -1.1998  0.8087 -0.2972
  580MOL0     H78248   9.021   9.908   4.333  0.2424  0.1747 -1.2530
  580MOL0     H78249   8.850   9.955   4.167  0.8164 -0.2319 -2.0432
  580MOL0     H78250   8.992  10.031   4.127 -0.6321 -4.9293 -0.4771
  580MOL0     H78251   8.638  10.125   4.179 -0.9766  1.9655 -0.4551
  580MOL0     H78252   8.498  10.351   4.151 -0.1559  0.1587  1.1658
  580MOL0     H78253   8.562  10.493   4.206 -0.9536 -1.3941  1.4782
  580MOL0     H78254   8.569  10.398   3.931 -0.7902 -0.8864  1.4207
  580MOL0     H78255   8.695  10.516   3.979  0.8257  0.1890  0.7002
  580MOL0     H78256   8.496  10.653   4.077  2.0697 -2.1297  1.6806
  580MOL0     H78257   8.386  10.537   3.999 -0.1221  0.5681  0.2517
  580MOL0     H78258   8.501  10.585   3.775  3.1509  1.9199 -0.7536
  580MOL0     H78259   8.594  10.698   3.860 -0.0634 -1.2426 -0.2754
  580MOL0     H78260   8.189  10.912   3.857  0.3711  0.5610 -0.4266
  580MOL0     H78261   7.859  10.910   3.729  0.4546  1.3227  0.2280
  580MOL0     H78262   7.857  10.879   3.908  2.5681  0.6713  2.1616
  580MOL0     H78263   7.974  10.985   3.840 -0.4884 -0.2824  3.3651
  580MOL0     H78264   7.586  10.676   3.596  3.2304  1.5143  0.6332
  580MOL0     H78265   7.353  10.600   3.611  1.6007  1.1112 -0.6027
  580MOL0     H78266   7.123  10.562   3.678  1.3322  1.5734 -0.2091
  580MOL0     H78267   7.235  10.425   3.630 -2.4281  0.3557 -1.1985
  580MOL0     H78268   7.107  10.270   3.765  2.2652  0.8206  0.1884
  580MOL0     H78269   7.008  10.403   3.829 -1.4070  1.5677 -0.7461
  580MOL0     H78270   6.998  10.317   3.535  2.7097  1.7652  0.2656
  580MOL0     H78271   6.910  10.448   3.603  0.9952  0.2152 -1.4585
  580MOL0     H78272   6.876  10.163   3.672 -1.0946 -0.5337 -1.6517
  580MOL0     H78273   6.802  10.299   3.770 -2.7094  2.9910 -1.2575
  580MOL0     H78274   6.776  10.228   3.473 -0.1303 -0.7777  1.1425
  580MOL0     H78275   6.698  10.369   3.564 -0.2181  0.3266  0.3172
  580MOL0     H78276   6.683  10.071   3.649  2.2753  0.0480 -1.4378
  580MOL0     H78277   6.563  10.195   3.690 -2.4613  0.0630 -0.7376
  580MOL0     H78278   6.493  10.014   3.513 -2.2475  0.5941  2.2983
  580MOL0     H78279   6.612  10.068   3.409 -1.4332 -1.1408  0.3126
  580MOL0     H78280   6.399  10.191   3.347 -0.1552 -1.0398  1.5949
  580MOL0     H78281   6.519  10.315   3.396 -3.6055  2.1572 -0.3358
  580MOL0     H78282   7.386  10.502   4.026  1.7353  0.5349  1.0016
  580MOL0     H78283   7.632  10.562   4.020 -3.2627 -0.2673  2.0280
  580MOL0     H78284   8.064  10.462   3.722  0.5487  0.1902 -3.0071
  580MOL0     H78285   8.281  10.495   3.774 -1.9101 -0.8779  1.3063
  580MOL0     H78286   8.032   9.734   4.465 -1.7119 -0.2971  0.0200
  580MOL0     H78287   7.839   9.624   4.541 -0.5709  0.6878  1.5649
  580MOL0     H78288   7.744   9.050   4.507  0.3916  1.5828  0.2051
  580MOL0     H78289   7.571   8.893   4.566 -0.3828 -2.2075  1.5071
  580MOL0     H78290   7.307   8.989   4.633 -1.5963  0.6424  0.6283
  580MOL0     H78291   7.237   8.858   4.725 -1.2509  0.8914 -0.1193
  580MOL0     H78292   7.298   9.142   4.805  0.6422 -0.0507  0.5075
  580MOL0     H78293   7.256   9.019   4.927 -1.1331 -1.5281  0.2789
  580MOL0     H78294   7.027   8.986   4.822 -0.4202  0.0623 -0.7501
  580MOL0     H78295   7.056   9.097   4.695 -0.3688  2.6785  0.5640
  580MOL0     H78296   7.110   9.275   4.854 -0.2999  0.3160  0.9156
  580MOL0     H78297   7.049   9.173   4.987 -0.3668 -2.3069 -0.1796
  580MOL0     H78298   6.683   9.316   4.851 -0.3171  0.4207  1.2998
  580MOL0     H78299   7.535   9.106   4.944  0.9342  2.5512 -0.8683
  580MOL0     H78300   7.696   9.271   4.867  2.1586  0.8983 -2.8278
  581MOL0     O78301   2.264   5.547   7.020 -0.0292 -0.8612 -0.1460
  581MOL0     C78302   2.261   5.670   7.003 -0.2362 -0.0817 -0.9127
  581MOL0     O78303   2.154   5.741   6.961 -0.6723 -0.5755  1.1228
  581MOL0     C78304   2.035   5.672   6.929  0.2718 -0.3779 -0.2660
  581MOL0     C78305   1.977   5.692   6.805  0.6065 -0.8029 -0.4498
  581MOL0     C78306   1.843   5.640   6.778  0.0612 -0.1081 -0.1913
  581MOL0     C78307   1.782   5.563   6.875  0.6846  0.1704 -0.1695
  581MOL0     O78308   1.656   5.497   6.844 -0.9509 -0.2742 -0.3707
  581MOL0     C78309   1.664   5.358   6.885  0.5284  0.5761  0.2397
  581MOL0     C78310   1.532   5.280   6.851 -0.0128 -0.2258  1.4006
  581MOL0     C78311   1.417   5.304   6.947  0.1076  0.6707 -0.3520
  581MOL0     C78312   1.425   5.209   7.069  0.1270  1.0382 -0.5100
  581MOL0     C78313   1.313   5.210   7.171 -0.5403  0.5166 -0.4550
  581MOL0     C78314   1.314   5.079   7.244  0.6079  0.6861  0.3287
  581MOL0     C78315   1.206   5.079   7.344  0.5821 -0.6214 -0.5718
  581MOL0     C78316   1.190   4.946   7.413 -0.1282 -0.8255  0.0138
  581MOL0     N78317   1.088   4.955   7.512 -0.2166  0.6614 -0.7210
  581MOL0     C78318   0.962   4.921   7.475 -0.9082  0.7580 -0.0988
  581MOL0     C78319   0.898   4.902   7.593 -0.3175 -0.3486  0.9662
  581MOL0     C78320   0.748   4.864   7.596  0.5754 -0.7153  0.9511
  581MOL0     C78321   0.665   4.991   7.586 -0.2582  1.2877  1.1285
  581MOL0     C78322   0.517   4.943   7.563  0.7520 -0.4057  0.0159
  581MOL0     C78323   0.408   5.055   7.586 -0.1189  1.1415  0.3956
  581MOL0     O78324   0.280   5.019   7.641 -0.1542 -0.5235  0.1137
  581MOL0     C78325   0.291   4.932   7.749  0.5775 -0.5731 -0.7882
  581MOL0     C78326   0.197   4.831   7.750  0.1572 -0.4683  0.0186
  581MOL0     C78327   0.199   4.723   7.840 -0.5936  0.1389  0.8821
  581MOL0     C78328   0.085   4.631   7.831  0.8123 -0.0558  1.0985
  581MOL0     C78329   0.294   4.723   7.945  0.2502  0.1164 -0.9177
  581MOL0     C78330   0.291   4.616   8.046 -0.2106 -0.1978 -0.3439
  581MOL0     O78331   0.317   4.483   8.018 -0.5316 -0.0555  0.2650
  581MOL0     C78332   0.292   4.382   8.115 -0.4825  0.4358 -0.1424
  581MOL0     C78333   0.174   4.371   8.190  0.2725 -0.1106  0.3212
  581MOL0     C78334   0.159   4.268   8.286  0.2083  0.4085  0.6458
  581MOL0     C78335   0.260   4.178   8.305  0.1202  0.6807 -0.2627
  581MOL0     O78336   0.232   4.078   8.395  0.1310 -0.4771 -0.7662
  581MOL0     C78337   0.275   3.945   8.364 -0.8926  0.6544 -0.5047
  581MOL0     C78338   0.253   3.861   8.486  0.4898  0.2950  0.3409
  581MOL0     C78339   0.106   3.861   8.530  1.0891  0.0862 -0.1274
  581MOL0     C78340   0.002   3.784   8.436 -0.1351 -0.7321 -0.1443
  581MOL0     C78341  -0.135   3.754   8.506 -0.2413 -0.1010 -0.3158
  581MOL0     C78342  -0.142   3.640   8.624  0.7592  0.3002 -0.4574
  581MOL0     C78343  -0.287   3.630   8.694  0.4553  0.3075  0.8274
  581MOL0     C78344  -0.286   3.535   8.812  0.5284 -0.3341  0.7768
  581MOL0    Cl78345  -0.437   3.542   8.890  0.2072 -0.3833  0.0021
  581MOL0     C78346   0.387   4.196   8.233  0.1361 -0.0008 -0.5675
  581MOL0     C78347   0.404   4.299   8.144  1.6301 -0.2695  0.3049
  581MOL0     O78348   0.266   4.663   8.158 -0.7106 -0.1505  0.0559
  581MOL0     C78349   0.383   4.837   7.951 -0.6172 -0.5439 -0.5780
  581MOL0     C78350   0.386   4.940   7.857  0.9714  0.5350  0.0047
  581MOL0     N78351   0.986   4.933   7.700 -0.3870 -0.3007  0.0824
  581MOL0     N78352   1.098   4.961   7.647 -0.8554 -0.3954  0.2061
  581MOL0     C78353   1.844   5.553   7.004 -0.2414 -0.1303  1.2520
  581MOL0     C78354   1.972   5.610   7.034  0.9698  0.3285 -0.0272
  581MOL0     C78355   2.390   5.743   7.002  0.3139 -0.2213 -0.2971
  581MOL0     C78356   2.514   5.675   7.006  0.1987 -0.9576 -0.1960
  581MOL0     C78357   2.637   5.745   7.019 -0.2272  0.2629  0.2711
  581MOL0     C78358   2.638   5.885   7.021  0.3089 -0.1273  0.3142
  581MOL0     O78359   2.737   5.977   7.025 -0.9213 -0.2313  0.1517
  581MOL0     C78360   2.867   5.914   7.037  0.2067 -0.1005  0.4204
  581MOL0     C78361   2.972   6.021   7.068 -0.1045  0.0572  0.1279
  581MOL0     C78362   2.973   6.067   7.219 -0.0309  0.6522 -0.1182
  581MOL0     C78363   2.877   6.179   7.225  0.2013  0.9843  0.1320
  581MOL0     C78364   2.867   6.254   7.354  0.0880 -0.2244  1.3631
  581MOL0     C78365   2.851   6.320   7.451 -0.1715 -1.1005 -0.3146
  581MOL0     C78366   2.518   5.955   6.994 -0.5244 -0.2616 -0.4819
  581MOL0     C78367   2.399   5.881   6.998  0.6280  0.5036  0.6802
  581MOL0     H78368   2.042   5.736   6.730  1.1631 -0.9823 -0.0764
  581MOL0     H78369   1.798   5.652   6.680 -0.9908 -1.0541  0.1546
  581MOL0     H78370   1.743   5.311   6.825 -0.6384  0.3743 -1.2062
  581MOL0     H78371   1.683   5.362   6.992  0.4801  1.7861  0.2261
  581MOL0     H78372   1.499   5.308   6.751  0.4490 -0.0332  1.2959
  581MOL0     H78373   1.561   5.175   6.848 -0.1569 -0.3174  2.7441
  581MOL0     H78374   1.420   5.404   6.991  0.0418 -0.8710  3.6227
  581MOL0     H78375   1.323   5.293   6.892  1.1671 -2.3165 -1.7911
  581MOL0     H78376   1.439   5.106   7.036  2.4899  0.4513  1.9334
  581MOL0     H78377   1.513   5.232   7.130 -1.0744  1.0551  1.2974
  581MOL0     H78378   1.331   5.293   7.241  1.8757 -1.8422  1.9415
  581MOL0     H78379   1.219   5.217   7.115  0.7692 -1.5252 -3.1668
  581MOL0     H78380   1.295   5.002   7.169 -0.6013  1.2949 -0.0149
  581MOL0     H78381   1.406   5.064   7.301  1.0656  0.6489 -0.4112
  581MOL0     H78382   1.239   5.143   7.426 -3.3733 -2.3111  2.7300
  581MOL0     H78383   1.111   5.106   7.298 -1.5898 -5.6902  0.2281
  581MOL0     H78384   1.287   4.909   7.448  1.2278 -3.3172 -5.2942
  581MOL0     H78385   1.159   4.879   7.332  0.3944 -2.3704  1.0459
  581MOL0     H78386   0.923   4.898   7.376 -1.3886 -1.3102  0.5225
  581MOL0     H78387   0.715   4.802   7.512 -0.0470 -0.6369  1.1376
  581MOL0     H78388   0.719   4.821   7.692  1.9963 -0.6066  1.4596
  581MOL0     H78389   0.695   5.049   7.499  0.6096  1.0427  1.2543
  581MOL0     H78390   0.668   5.049   7.679 -1.9564 -0.6479  2.4790
  581MOL0     H78391   0.488   4.863   7.633 -0.2855  1.3150  1.6720
  581MOL0     H78392   0.495   4.901   7.465 -2.7573  0.6560  0.2205
  581MOL0     H78393   0.396   5.093   7.484 -0.6604  0.5937  0.2468
  581MOL0     H78394   0.463   5.125   7.649  0.7743  1.3304 -0.5642
  581MOL0     H78395   0.119   4.834   7.675 -1.4906 -0.9361  1.6355
  581MOL0     H78396   0.063   4.583   7.927  2.3803 -0.8539  1.0870
  581MOL0     H78397  -0.007   4.684   7.803  0.6834 -0.4570  0.7343
  581MOL0     H78398   0.099   4.552   7.756  1.3806  2.7717 -2.0191
  581MOL0     H78399   0.095   4.441   8.166  0.4131  0.2260  0.8103
  581MOL0     H78400   0.075   4.253   8.353 -0.6902  0.6183 -0.4061
  581MOL0     H78401   0.223   3.912   8.273  0.9460 -2.5921 -0.5542
  581MOL0     H78402   0.382   3.937   8.342 -1.0674 -2.2781 -0.7428
  581MOL0     H78403   0.269   3.755   8.465  0.0114  0.2497  0.1837
  581MOL0     H78404   0.326   3.882   8.565 -0.8602 -0.7518  1.9258
  581MOL0     H78405   0.066   3.962   8.535 -1.1075 -0.7768  1.0130
  581MOL0     H78406   0.102   3.824   8.633  3.4180 -1.6429 -0.5708
  581MOL0     H78407  -0.034   3.857   8.362  1.5277 -0.9281 -1.1862
  581MOL0     H78408   0.042   3.691   8.393  4.2410  1.6643 -1.8303
  581MOL0     H78409  -0.212   3.734   8.431  0.0390 -1.5580 -0.2446
  581MOL0     H78410  -0.152   3.849   8.558  3.1880 -0.0446  0.9594
  581MOL0     H78411  -0.123   3.539   8.586  1.1403 -0.6670  2.0880
  581MOL0     H78412  -0.074   3.665   8.707 -2.4639  2.1462  1.8834
  581MOL0     H78413  -0.369   3.610   8.624 -2.6611  0.4890  4.1307
  581MOL0     H78414  -0.312   3.732   8.727  0.4175 -0.0501  1.9424
  581MOL0     H78415  -0.214   3.576   8.884 -2.2270  3.4038  1.7066
  581MOL0     H78416  -0.262   3.434   8.777  0.6001 -0.3646  0.9102
  581MOL0     H78417   0.476   4.139   8.256  1.1227  1.6554 -0.1431
  581MOL0     H78418   0.487   4.333   8.083 -0.3851  2.5958 -1.0547
  581MOL0     H78419   0.453   4.844   8.033 -0.5851 -1.0563 -0.5591
  581MOL0     H78420   0.471   5.008   7.856  3.4612 -2.3755 -1.1768
  581MOL0     H78421   1.770   5.515   7.074 -1.3002 -1.3598 -0.4467
  581MOL0     H78422   2.027   5.618   7.127  0.8160  2.1976 -0.0677
  581MOL0     H78423   2.513   5.568   7.023 -0.6809 -0.7110  1.4960
  581MOL0     H78424   2.724   5.680   7.021  0.3966  1.0639 -0.1222
  581MOL0     H78425   2.868   5.830   7.107 -1.0887 -0.9897 -0.5880
  581MOL0     H78426   2.896   5.866   6.943  1.9949 -0.4063  1.0772
  581MOL0     H78427   2.955   6.090   6.985  0.7019 -0.2369 -0.2886
  581MOL0     H78428   3.069   5.975   7.050 -0.2010 -0.1070  0.0190
  581MOL0     H78429   3.072   6.103   7.246  0.9478 -2.0794  0.1953
  581MOL0     H78430   2.941   5.991   7.290  0.6946  2.2839  2.0543
  581MOL0     H78431   2.774   6.150   7.201  0.7852 -0.0585 -1.2390
  581MOL0     H78432   2.902   6.250   7.145  0.5985  0.3490 -0.3162
  581MOL0     H78433   2.843   6.379   7.540  1.7284 -0.2160 -0.6709
  581MOL0     H78434   2.526   6.062   6.977 -1.4351 -0.0079  0.5968
  581MOL0     H78435   2.317   5.949   6.979  2.5710  2.3645 -1.6604
  582MOL0     O78436   0.597   9.107   6.752 -0.0726  0.4691 -0.1895
  582MOL0     C78437   0.638   8.987   6.752 -0.2846 -0.5739  0.6966
  582MOL0     O78438   0.584   8.890   6.832 -0.5770 -0.3943  0.5215
  582MOL0     C78439   0.498   8.941   6.925 -0.4882 -0.4130 -0.2092
  582MOL0     C78440   0.362   8.907   6.922 -0.0896 -0.7517 -0.0573
  582MOL0     C78441   0.288   8.932   7.031  0.4479  0.0113 -0.7060
  582MOL0     C78442   0.347   8.977   7.148  0.3854 -0.9082  0.4162
  582MOL0     O78443   0.262   8.988   7.253 -0.1974  0.2788  0.0354
  582MOL0     C78444   0.297   9.066   7.368  0.5090  0.0494 -0.2885
  582MOL0     C78445   0.165   9.108   7.439 -0.4417  0.2262 -0.5250
  582MOL0     C78446   0.085   9.190   7.344  0.5153 -0.2377 -0.3171
  582MOL0     C78447  -0.049   9.210   7.426 -0.4695 -0.4766  0.3574
  582MOL0     C78448  -0.149   9.321   7.378  0.5065 -0.0053 -0.1616
  582MOL0     C78449  -0.242   9.350   7.496  0.1408  0.4060 -0.5371
  582MOL0     C78450  -0.336   9.450   7.451  0.0461  0.5481  0.5946
  582MOL0     C78451  -0.410   9.550   7.542  0.7687 -0.8018  0.2669
  582MOL0     N78452  -0.508   9.479   7.630 -0.0998  0.3815  0.1264
  582MOL0     C78453  -0.639   9.431   7.598  0.6300 -0.1720  0.2538
  582MOL0     C78454  -0.669   9.361   7.707  0.4273 -0.4530 -1.0069
  582MOL0     C78455  -0.801   9.302   7.727  0.0841  0.2695  0.1100
  582MOL0     C78456  -0.906   9.410   7.737  0.3681  0.3045  0.7513
  582MOL0     C78457  -0.913   9.483   7.875  0.5087  0.6696 -1.3271
  582MOL0     C78458  -1.032   9.576   7.871 -1.6867 -0.3689  0.3170
  582MOL0     O78459  -1.159   9.511   7.852  0.0605 -0.8244  0.6450
  582MOL0     C78460  -1.280   9.578   7.885 -0.0003 -0.0221 -0.5931
  582MOL0     C78461  -1.390   9.491   7.893  0.2261  0.4695 -0.0902
  582MOL0     C78462  -1.515   9.536   7.932  0.1756  0.1883 -0.1296
  582MOL0     C78463  -1.625   9.438   7.930 -0.0621  0.2846 -0.4238
  582MOL0     C78464  -1.527   9.668   7.976  0.3155  0.1556 -0.3017
  582MOL0     C78465  -1.649   9.719   8.032  0.8574 -0.1488 -0.3386
  582MOL0     O78466  -1.769   9.671   7.994 -0.5452  0.2448  0.3372
  582MOL0     C78467  -1.882   9.722   8.043 -0.4294 -0.6777  0.5186
  582MOL0     C78468  -1.916   9.853   8.018 -0.4193 -0.3238  0.2921
  582MOL0     C78469  -2.049   9.897   8.041  0.1848 -0.0546 -0.2594
  582MOL0     C78470  -2.145   9.812   8.093  0.1876  0.3424 -0.3931
  582MOL0     O78471  -2.284   9.842   8.104  0.4391 -0.0290  0.2152
  582MOL0     C78472  -2.316   9.978   8.077 -0.1489  0.2145  0.5714
  582MOL0     C78473  -2.442  10.011   8.157 -0.2401 -0.2330 -0.0358
  582MOL0     C78474  -2.572   9.933   8.109 -0.4517 -0.3066  0.1772
  582MOL0     C78475  -2.663  10.019   8.022  0.8520 -0.4515  0.1205
  582MOL0     C78476  -2.804   9.955   7.997 -0.0066  0.1994 -0.4915
  582MOL0     C78477  -2.886   9.945   8.128  0.2297  0.0152  0.4337
  582MOL0     C78478  -3.038   9.914   8.101 -0.7468  0.3359  0.6503
  582MOL0     C78479  -3.104   9.848   8.231 -0.1845  0.9279  0.4357
  582MOL0    Cl78480  -3.274   9.829   8.172  0.1392  0.1746  0.0469
  582MOL0     C78481  -2.104   9.683   8.137 -0.2681  0.7017 -0.2620
  582MOL0     C78482  -1.971   9.639   8.107 -0.3198 -0.1620  0.3702
  582MOL0     O78483  -1.634   9.801   8.123 -0.1166  0.0945  0.0457
  582MOL0     C78484  -1.416   9.752   7.980 -0.4908  0.0869 -0.4717
  582MOL0     C78485  -1.297   9.710   7.934 -0.3787 -0.1694  0.6302
  582MOL0     N78486  -0.572   9.365   7.796  0.4794 -0.1093 -0.1912
  582MOL0     N78487  -0.480   9.443   7.757  0.5576  0.9759 -0.3979
  582MOL0     C78488   0.481   9.004   7.159 -0.5713 -0.6653  0.9293
  582MOL0     C78489   0.566   8.980   7.042 -0.2244 -0.4567  0.2613
  582MOL0     C78490   0.742   8.957   6.655 -1.4044  0.6725  0.6389
  582MOL0     C78491   0.847   8.859   6.677  0.0582 -0.1484  0.3548
  582MOL0     C78492   0.925   8.822   6.564 -0.3671 -0.1062 -0.4942
  582MOL0     C78493   0.922   8.898   6.447  0.6793  0.2889  0.5445
  582MOL0     O78494   1.016   8.863   6.352 -0.1533 -0.2660  0.6252
  582MOL0     C78495   1.028   8.936   6.232 -0.6369  0.9622 -0.6350
  582MOL0     C78496   1.114   8.855   6.140  0.0339  0.0195  0.5278
  582MOL0     C78497   1.265   8.847   6.182 -0.2590  0.4350 -0.2309
  582MOL0     C78498   1.352   8.756   6.087 -0.3427  0.1543 -0.7274
  582MOL0     C78499   1.384   8.814   5.958  0.9429 -0.6560 -0.3145
  582MOL0     C78500   1.421   8.846   5.843  0.5465  0.0928 -0.6888
  582MOL0     C78501   0.828   8.999   6.431 -0.6109 -1.1519 -0.2679
  582MOL0     C78502   0.745   9.028   6.537 -0.4227 -0.3938  0.0320
  582MOL0     H78503   0.334   8.849   6.835  1.7445 -0.2391 -1.0331
  582MOL0     H78504   0.183   8.903   7.033  0.2349  0.7561  0.1922
  582MOL0     H78505   0.364   9.017   7.439  0.8636 -0.0669 -0.7030
  582MOL0     H78506   0.346   9.159   7.340 -3.0322  1.5134 -2.2515
  582MOL0     H78507   0.113   9.020   7.477  2.4747 -0.6913  1.7309
  582MOL0     H78508   0.188   9.172   7.525  0.5481  1.3916 -1.5969
  582MOL0     H78509   0.133   9.283   7.312 -2.1405  2.3151  2.5189
  582MOL0     H78510   0.062   9.134   7.253 -3.8334  0.5978  0.0542
  582MOL0     H78511  -0.104   9.116   7.419  2.0585 -2.0037 -0.4550
  582MOL0     H78512  -0.032   9.232   7.532  1.8042  1.4700 -0.3073
  582MOL0     H78513  -0.100   9.416   7.358 -0.2831  0.9937  2.2763
  582MOL0     H78514  -0.205   9.281   7.293  1.0183  0.9227 -0.9548
  582MOL0     H78515  -0.287   9.261   7.541  1.3468 -0.5620 -1.1819
  582MOL0     H78516  -0.174   9.379   7.576  1.6656 -1.2991 -1.1444
  582MOL0     H78517  -0.279   9.515   7.383  0.0095 -1.0284 -0.9826
  582MOL0     H78518  -0.411   9.399   7.390  0.5305  1.2750 -0.6534
  582MOL0     H78519  -0.465   9.623   7.482  0.8422 -1.2350 -0.3385
  582MOL0     H78520  -0.337   9.602   7.605  1.8097 -0.4939 -1.1356
  582MOL0     H78521  -0.701   9.434   7.510  0.5270 -3.3781  0.1234
  582MOL0     H78522  -0.828   9.242   7.640 -2.1763  0.3033  0.7236
  582MOL0     H78523  -0.804   9.246   7.821 -1.3127 -0.2365 -0.2088
  582MOL0     H78524  -1.005   9.365   7.728  0.1034  1.3123 -3.6037
  582MOL0     H78525  -0.889   9.466   7.645  0.5198 -0.0257  0.5775
  582MOL0     H78526  -0.833   9.555   7.896  1.2889 -0.8596  1.5424
  582MOL0     H78527  -0.925   9.407   7.953 -2.7742 -0.8186 -3.0958
  582MOL0     H78528  -1.006   9.651   7.795  1.2246 -1.0421  0.5437
  582MOL0     H78529  -1.040   9.632   7.964 -1.1478 -1.0301  0.7670
  582MOL0     H78530  -1.374   9.390   7.858  0.1469  1.2465 -2.5447
  582MOL0     H78531  -1.692   9.471   7.851  1.2884 -0.5022 -1.9690
  582MOL0     H78532  -1.596   9.334   7.909 -1.1581 -0.2370  0.5721
  582MOL0     H78533  -1.670   9.423   8.028  0.0024 -1.1265 -0.5786
  582MOL0     H78534  -1.843   9.915   7.967 -0.7000 -1.1409 -1.1745
  582MOL0     H78535  -2.064  10.001   8.012  1.1005  1.8301  4.8873
  582MOL0     H78536  -2.246  10.049   8.121  0.3524 -0.1941  0.4420
  582MOL0     H78537  -2.349  10.000   7.975 -3.3596  0.9865  1.6676
  582MOL0     H78538  -2.423   9.986   8.262  0.1058 -2.6721 -0.6271
  582MOL0     H78539  -2.463  10.118   8.148 -1.1790 -0.4780 -0.9376
  582MOL0     H78540  -2.617   9.913   8.207  2.4559  0.7263  1.8528
  582MOL0     H78541  -2.542   9.846   8.050 -1.3120 -0.7845  0.4373
  582MOL0     H78542  -2.680  10.115   8.072  1.1057  1.0005 -2.4106
  582MOL0     H78543  -2.599  10.029   7.934  2.8870 -2.5517  1.2734
  582MOL0     H78544  -2.808   9.855   7.953 -1.5358 -0.5203  1.1513
  582MOL0     H78545  -2.852  10.033   7.938  1.3588  1.7583  0.3617
  582MOL0     H78546  -2.846   9.856   8.177  2.1274  1.0854  0.9042
  582MOL0     H78547  -2.869  10.031   8.192 -1.3234 -0.2691  1.2741
  582MOL0     H78548  -3.038   9.833   8.028  0.6810 -0.4805  1.5330
  582MOL0     H78549  -3.102   9.998   8.072  2.0721  1.7349 -2.2431
  582MOL0     H78550  -3.105   9.917   8.316 -1.8978  1.9206 -0.3385
  582MOL0     H78551  -3.055   9.751   8.245 -0.3089  0.6191 -1.0664
  582MOL0     H78552  -2.163   9.612   8.193  0.4222  1.1381  1.0622
  582MOL0     H78553  -1.936   9.540   8.136 -0.0425  0.2017  1.3219
  582MOL0     H78554  -1.425   9.852   8.021 -1.2334 -0.3062  0.3692
  582MOL0     H78555  -1.207   9.769   7.941  0.1837 -0.7145 -1.3961
  582MOL0     H78556   0.522   9.039   7.253 -0.1333  1.5010  0.0002
  582MOL0     H78557   0.670   9.011   7.039 -0.8997  2.0164 -1.8517
  582MOL0     H78558   0.867   8.805   6.769 -0.2424  2.3660  1.9963
  582MOL0     H78559   1.003   8.749   6.582 -1.7790 -1.1542  1.7296
  582MOL0     H78560   0.931   8.943   6.181  0.3940  1.1585 -2.6549
  582MOL0     H78561   1.076   9.033   6.252  3.2096 -0.9470  0.3768
  582MOL0     H78562   1.114   8.889   6.036  0.1605 -1.5411 -0.0025
  582MOL0     H78563   1.069   8.755   6.142  0.0251  0.0217  0.4355
  582MOL0     H78564   1.272   8.805   6.282 -2.0213 -0.6839 -0.5240
  582MOL0     H78565   1.308   8.946   6.199 -0.3049  0.0770  2.3313
  582MOL0     H78566   1.304   8.657   6.083 -0.7617  0.3857 -1.7342
  582MOL0     H78567   1.443   8.730   6.142 -0.7195  0.9991  0.3327
  582MOL0     H78568   1.447   8.872   5.742 -1.0154 -0.5120 -1.2806
  582MOL0     H78569   0.831   9.064   6.344 -3.2293 -0.7724 -0.1452
  582MOL0     H78570   0.681   9.116   6.532 -1.4657 -1.2000 -1.5460
  583MOL0     O78571   0.596   1.448   3.953 -0.2790  0.1062  0.5206
  583MOL0     C78572   0.625   1.502   4.058 -0.4896 -0.8946 -0.4792
  583MOL0     O78573   0.534   1.543   4.149 -0.2954  0.2847 -0.2209
  583MOL0     C78574   0.405   1.490   4.155 -0.2489  0.2769  0.3043
  583MOL0     C78575   0.299   1.551   4.219 -0.0848 -0.2880 -1.4689
  583MOL0     C78576   0.177   1.496   4.248 -0.0114  0.3018  0.0120
  583MOL0     C78577   0.139   1.369   4.200 -0.1378  0.9839  0.2064
  583MOL0     O78578   0.017   1.313   4.222  0.2387  0.7865  0.3681
  583MOL0     C78579  -0.085   1.384   4.266  0.4890 -0.2523 -0.9361
  583MOL0     C78580  -0.191   1.295   4.327  1.0089  0.1237 -0.3424
  583MOL0     C78581  -0.263   1.361   4.449 -0.9117 -0.4028  0.3984
  583MOL0     C78582  -0.348   1.480   4.405  0.0861 -0.4589  0.4258
  583MOL0     C78583  -0.465   1.517   4.502  1.0971  0.4436  0.3868
  583MOL0     C78584  -0.552   1.613   4.419 -0.3298 -0.4555  0.2146
  583MOL0     C78585  -0.691   1.627   4.483  0.2468 -0.9470 -0.4982
  583MOL0     C78586  -0.690   1.755   4.572  0.4015  0.1136 -0.9308
  583MOL0     N78587  -0.823   1.764   4.630 -0.1506  0.0951 -0.2151
  583MOL0     C78588  -0.945   1.793   4.571  0.8671  0.2138  0.2783
  583MOL0     C78589  -1.041   1.743   4.655  0.1666  0.0119  0.2729
  583MOL0     C78590  -1.188   1.736   4.637  0.9956 -0.2355  0.0190
  583MOL0     C78591  -1.251   1.687   4.771 -1.1199 -0.6000 -0.4432
  583MOL0     C78592  -1.404   1.697   4.748  1.1114  0.5488  0.1405
  583MOL0     C78593  -1.471   1.645   4.874 -0.3742  0.2457 -0.1655
  583MOL0     O78594  -1.609   1.691   4.871 -0.3466 -0.0247 -0.2194
  583MOL0     C78595  -1.690   1.665   4.979 -0.2927  0.2719 -0.5086
  583MOL0     C78596  -1.652   1.686   5.108  0.6922  0.8316  0.4248
  583MOL0     C78597  -1.759   1.682   5.208  0.5849 -1.1856  0.9172
  583MOL0     C78598  -1.731   1.699   5.352  1.1209  0.1073 -0.9878
  583MOL0     C78599  -1.897   1.648   5.172 -0.4087  0.4218  1.0143
  583MOL0     C78600  -2.015   1.655   5.255 -0.1497  0.2878 -0.7449
  583MOL0     O78601  -2.117   1.571   5.212  0.7993 -0.6156 -0.4516
  583MOL0     C78602  -2.235   1.615   5.243 -0.0263 -0.2261  0.0222
  583MOL0     C78603  -2.288   1.705   5.151  1.2867 -0.5298 -0.2073
  583MOL0     C78604  -2.409   1.775   5.187 -0.6358 -0.1674  0.4583
  583MOL0     C78605  -2.476   1.727   5.298 -0.3830 -0.1491 -1.0791
  583MOL0     O78606  -2.599   1.782   5.322 -0.2354  0.1389  0.3277
  583MOL0     C78607  -2.696   1.720   5.406  1.3154  0.5005  0.5132
  583MOL0     C78608  -2.758   1.600   5.336 -0.3793  0.1927  0.0840
  583MOL0     C78609  -2.875   1.562   5.425  0.4443 -0.5698 -0.0258
  583MOL0     C78610  -2.935   1.440   5.359  0.2597  0.0910  0.0654
  583MOL0     C78611  -3.016   1.348   5.453 -0.9170  0.2152 -0.2394
  583MOL0     C78612  -3.065   1.220   5.377  0.4483 -0.2307  0.0391
  583MOL0     C78613  -3.169   1.135   5.458 -0.4656 -0.4836 -0.0179
  583MOL0     C78614  -3.311   1.169   5.476  0.0762  1.0100  0.0672
  583MOL0    Cl78615  -3.398   1.200   5.323  0.0656 -0.1546  0.5328
  583MOL0     C78616  -2.426   1.628   5.387 -0.7633  0.9530  0.6264
  583MOL0     C78617  -2.305   1.567   5.360  0.0383  0.5153  0.3243
  583MOL0     O78618  -2.023   1.731   5.356 -0.9996  0.5670  0.6215
  583MOL0     C78619  -1.921   1.638   5.033  0.0056 -0.3085  0.0285
  583MOL0     C78620  -1.819   1.658   4.947  0.9663 -0.2758  0.6779
  583MOL0     N78621  -0.973   1.699   4.775 -0.0822  0.3754 -0.2684
  583MOL0     N78622  -0.845   1.723   4.754  0.4187 -0.0285  0.0583
  583MOL0     C78623   0.242   1.302   4.136 -0.6044  0.6757 -0.1062
  583MOL0     C78624   0.372   1.360   4.111 -0.2420 -0.3147 -0.2873
  583MOL0     C78625   0.763   1.542   4.078  0.5721  0.2432 -0.2565
  583MOL0     C78626   0.862   1.494   3.989  0.0569  0.2277  0.3541
  583MOL0     C78627   0.992   1.530   4.008  0.4310 -0.4753 -0.3984
  583MOL0     C78628   1.035   1.596   4.116 -0.6612  0.6331  0.2628
  583MOL0     O78629   1.171   1.623   4.111 -0.0801  0.1226  0.7662
  583MOL0     C78630   1.203   1.763   4.137 -0.9674 -0.1915  0.4945
  583MOL0     C78631   1.167   1.864   4.018  0.0315 -0.8876 -0.5156
  583MOL0     C78632   1.271   1.856   3.908  0.8151  0.4669  0.4455
  583MOL0     C78633   1.211   1.932   3.786  0.1367  0.3937 -0.7831
  583MOL0     C78634   1.291   1.916   3.668  0.2733 -0.4010  0.1669
  583MOL0     C78635   1.366   1.889   3.580 -0.0188  0.3819 -1.4147
  583MOL0     C78636   0.941   1.654   4.202 -0.1787  0.0336  1.0996
  583MOL0     C78637   0.805   1.630   4.187  0.1343 -0.0914  0.5536
  583MOL0     H78638   0.298   1.653   4.258  1.0676 -0.4537 -0.9771
  583MOL0     H78639   0.119   1.557   4.316 -1.0161 -1.8398  1.1504
  583MOL0     H78640  -0.055   1.454   4.344 -2.7262  1.2952 -0.9431
  583MOL0     H78641  -0.120   1.446   4.182  1.1085  0.7713 -0.4634
  583MOL0     H78642  -0.264   1.265   4.252  2.4590  0.5436 -1.9815
  583MOL0     H78643  -0.140   1.201   4.350  0.3963 -0.0467  0.3788
  583MOL0     H78644  -0.325   1.284   4.496 -0.6597 -0.3147  0.8845
  583MOL0     H78645  -0.194   1.397   4.526  0.4230  0.0725 -0.9634
  583MOL0     H78646  -0.292   1.574   4.397 -3.7502  2.0703  0.3125
  583MOL0     H78647  -0.392   1.453   4.309 -1.5349 -0.0811  1.0129
  583MOL0     H78648  -0.515   1.420   4.515  1.1663  0.2474 -0.7018
  583MOL0     H78649  -0.441   1.552   4.603 -0.7848 -1.4573  1.5797
  583MOL0     H78650  -0.512   1.715   4.415 -3.2454  0.7832  0.4425
  583MOL0     H78651  -0.560   1.568   4.320 -2.4682 -1.0415  0.6058
  583MOL0     H78652  -0.761   1.641   4.399 -0.3521  0.8799  0.2545
  583MOL0     H78653  -0.717   1.533   4.533 -2.8997  0.9968  1.9183
  583MOL0     H78654  -0.670   1.841   4.509  1.6211  0.3834 -0.2128
  583MOL0     H78655  -0.620   1.753   4.656  1.6425  1.1764 -1.9089
  583MOL0     H78656  -0.960   1.840   4.474  2.3944 -0.9941 -0.5981
  583MOL0     H78657  -1.228   1.837   4.624  0.1439 -0.1646  2.6912
  583MOL0     H78658  -1.211   1.668   4.555 -0.1582 -0.9019  0.8678
  583MOL0     H78659  -1.219   1.748   4.857 -2.4105 -0.8743  0.2628
  583MOL0     H78660  -1.221   1.583   4.783 -0.3867 -0.4049 -0.5056
  583MOL0     H78661  -1.418   1.630   4.663  0.4035  1.1620 -0.2329
  583MOL0     H78662  -1.435   1.800   4.728 -0.4292  0.5792  2.3905
  583MOL0     H78663  -1.423   1.680   4.965  0.7318 -0.9371 -0.2769
  583MOL0     H78664  -1.469   1.536   4.874  0.0338  0.2476 -0.5633
  583MOL0     H78665  -1.553   1.703   5.148 -0.6098  0.9449  3.9708
  583MOL0     H78666  -1.780   1.614   5.400 -1.0770  1.1151 -1.3610
  583MOL0     H78667  -1.624   1.712   5.372  0.7602 -0.4039  1.5854
  583MOL0     H78668  -1.773   1.789   5.396 -1.9101 -1.0426 -1.2963
  583MOL0     H78669  -2.236   1.754   5.069  0.9736  0.6387  0.2573
  583MOL0     H78670  -2.445   1.857   5.125  0.9908 -1.0243 -1.7578
  583MOL0     H78671  -2.659   1.685   5.503  2.1964 -1.6912 -0.5521
  583MOL0     H78672  -2.767   1.802   5.418 -1.1321 -1.4384  0.1464
  583MOL0     H78673  -2.790   1.616   5.233  1.8142  0.9548 -0.5290
  583MOL0     H78674  -2.684   1.519   5.338 -0.7274 -0.1572 -0.9715
  583MOL0     H78675  -2.944   1.647   5.434  1.2467  0.3383 -1.8229
  583MOL0     H78676  -2.840   1.538   5.525  2.0595  1.1717 -0.1063
  583MOL0     H78677  -3.009   1.485   5.292  1.5019  0.5960 -1.0205
  583MOL0     H78678  -2.864   1.379   5.303 -0.8823 -1.6767  0.4742
  583MOL0     H78679  -3.095   1.408   5.500  0.4724  0.3433  2.0992
  583MOL0     H78680  -2.955   1.309   5.535 -2.8027  1.9566  2.1576
  583MOL0     H78681  -3.094   1.248   5.276  0.9324  4.3813  0.9574
  583MOL0     H78682  -2.972   1.162   5.370  0.2769 -0.8308  2.0164
  583MOL0     H78683  -3.133   1.128   5.561 -0.9397 -1.1903  0.1055
  583MOL0     H78684  -3.157   1.034   5.418 -0.7032 -0.3188 -0.5214
  583MOL0     H78685  -3.311   1.270   5.518  1.0197  1.3959 -0.8229
  583MOL0     H78686  -3.365   1.092   5.533 -2.9734  1.8698 -1.4247
  583MOL0     H78687  -2.484   1.584   5.467 -2.4674  2.5380  0.3186
  583MOL0     H78688  -2.265   1.479   5.409 -0.4937 -0.4767 -0.9437
  583MOL0     H78689  -2.020   1.626   4.989  1.0869 -0.0611 -2.6441
  583MOL0     H78690  -1.857   1.663   4.845 -1.4420  0.5884  1.5452
  583MOL0     H78691   0.229   1.197   4.109 -1.4569  1.2721 -2.1778
  583MOL0     H78692   0.440   1.300   4.052 -0.4294  0.9368 -1.8345
  583MOL0     H78693   0.838   1.434   3.901 -0.9798  0.8589  0.1841
  583MOL0     H78694   1.066   1.484   3.943  1.3532  0.1313  0.2023
  583MOL0     H78695   1.154   1.807   4.225 -2.1001 -1.5820  0.5969
  583MOL0     H78696   1.310   1.772   4.159 -0.4826 -1.1945 -1.3138
  583MOL0     H78697   1.179   1.962   4.064  6.8868 -1.3186 -0.3727
  583MOL0     H78698   1.063   1.852   3.985  0.0019  0.8447 -1.1429
  583MOL0     H78699   1.300   1.752   3.886 -0.4552 -0.1082  1.3502
  583MOL0     H78700   1.367   1.900   3.934  0.3339  4.1597 -3.0681
  583MOL0     H78701   1.199   2.040   3.795 -0.8681  0.1382  2.9709
  583MOL0     H78702   1.108   1.901   3.767 -0.1890  0.5846  0.5533
  583MOL0     H78703   1.432   1.858   3.501 -1.8206 -3.5283 -1.6441
  583MOL0     H78704   0.973   1.718   4.283 -1.6685  2.6139 -0.1976
  583MOL0     H78705   0.729   1.674   4.250  0.3873  5.6321 -2.4721
  584MOL0     O78706   0.706   0.650   9.527  0.2286 -0.0217  0.8081
  584MOL0     C78707   0.802   0.623   9.462 -0.3366  0.4179 -0.2023
  584MOL0     O78708   0.805   0.602   9.325  0.7008 -0.3420 -0.1689
  584MOL0     C78709   0.694   0.608   9.241 -0.1714  0.1670  0.5187
  584MOL0     C78710   0.715   0.594   9.106 -0.2245 -0.2788 -0.1103
  584MOL0     C78711   0.617   0.566   9.014 -0.7676 -0.5830 -1.3677
  584MOL0     C78712   0.485   0.559   9.062 -0.3018  0.4349 -0.4147
  584MOL0     O78713   0.386   0.531   8.977  0.3804 -0.2324 -0.9452
  584MOL0     C78714   0.411   0.484   8.845 -0.1608  0.0730  0.1171
  584MOL0     C78715   0.279   0.491   8.762 -0.3527  0.1301  0.8546
  584MOL0     C78716   0.201   0.618   8.767 -0.8438 -0.4165  0.8966
  584MOL0     C78717   0.049   0.599   8.744  0.3965 -0.8557  0.5781
  584MOL0     C78718   0.005   0.504   8.629 -0.1718 -0.0226  0.6482
  584MOL0     C78719  -0.082   0.568   8.527  0.6326 -0.0172 -0.2472
  584MOL0     C78720  -0.216   0.622   8.588  0.3751  0.0587  0.0998
  584MOL0     C78721  -0.303   0.707   8.490  0.6540 -1.0256 -0.1837
  584MOL0     N78722  -0.445   0.710   8.535  0.0578  0.0444 -0.2341
  584MOL0     C78723  -0.505   0.813   8.603 -0.2205  0.4507 -0.6117
  584MOL0     C78724  -0.632   0.775   8.614  0.6630  0.1815  0.2942
  584MOL0     C78725  -0.733   0.871   8.690 -0.4649  0.9371  0.1033
  584MOL0     C78726  -0.735   1.012   8.636  0.3319  0.2620  0.0650
  584MOL0     C78727  -0.849   1.102   8.703  0.1037  0.0439 -0.8893
  584MOL0     C78728  -0.988   1.073   8.648 -0.2306  0.5197  0.0045
  584MOL0     O78729  -1.061   1.196   8.671 -0.0247  1.2507  0.3170
  584MOL0     C78730  -1.181   1.208   8.601  0.2664  1.0522 -0.7624
  584MOL0     C78731  -1.247   1.116   8.519  0.4322 -0.7185 -1.0210
  584MOL0     C78732  -1.390   1.138   8.482  0.1209 -0.4004 -0.1871
  584MOL0     C78733  -1.455   1.021   8.423  0.6511  0.0853 -1.2328
  584MOL0     C78734  -1.445   1.267   8.488 -0.0848 -0.3381 -0.1959
  584MOL0     C78735  -1.579   1.302   8.415 -0.3622 -0.2534 -0.3804
  584MOL0     O78736  -1.625   1.427   8.447  0.2665  0.3743 -0.0111
  584MOL0     C78737  -1.745   1.457   8.385 -1.0799 -0.7193  0.1396
  584MOL0     C78738  -1.867   1.409   8.435  0.3917 -0.8851  0.1796
  584MOL0     C78739  -1.981   1.451   8.371  0.4456 -0.6022 -0.6775
  584MOL0     C78740  -1.982   1.537   8.263 -0.1208  0.7278 -0.2446
  584MOL0     O78741  -2.106   1.590   8.219 -0.2524  0.4902  0.1931
  584MOL0     C78742  -2.120   1.633   8.076  0.8628 -0.2659 -0.1975
  584MOL0     C78743  -2.264   1.676   8.051  0.3163  0.0976 -0.3702
  584MOL0     C78744  -2.374   1.574   8.051 -0.1973 -0.3188  0.0254
  584MOL0     C78745  -2.463   1.584   7.930  0.2490  0.1312  0.7073
  584MOL0     C78746  -2.563   1.700   7.917  0.7571 -0.3632 -0.7005
  584MOL0     C78747  -2.651   1.672   7.796  0.7289 -0.4766  0.0458
  584MOL0     C78748  -2.733   1.795   7.759  0.7858 -0.1324 -0.7677
  584MOL0     C78749  -2.858   1.824   7.844 -0.6748  0.1982 -0.2930
  584MOL0    Cl78750  -2.985   1.697   7.815 -0.0227 -0.1186 -0.3735
  584MOL0     C78751  -1.859   1.578   8.211 -0.3190  0.3533 -0.7304
  584MOL0     C78752  -1.744   1.548   8.269 -0.2073 -0.1581  0.0161
  584MOL0     O78753  -1.635   1.227   8.341 -0.8503 -0.5268  0.8592
  584MOL0     C78754  -1.375   1.358   8.561 -2.1735  0.3739  0.4461
  584MOL0     C78755  -1.247   1.322   8.620  0.7278  0.7659  0.3224
  584MOL0     N78756  -0.648   0.656   8.544 -0.3008  0.8870  0.7400
  584MOL0     N78757  -0.536   0.621   8.497 -0.0753 -0.6055 -0.2424
  584MOL0     C78758   0.463   0.578   9.198  0.2093  0.2909 -0.5646
  584MOL0     C78759   0.564   0.598   9.285  0.5995  0.3340  0.6446
  584MOL0     C78760   0.930   0.647   9.533  0.5875  1.4795 -0.4519
  584MOL0     C78761   0.942   0.631   9.666  0.3694 -0.0240  0.8380
  584MOL0     C78762   1.063   0.635   9.727  0.2280  0.7129  0.2776
  584MOL0     C78763   1.176   0.672   9.649 -0.3364  0.2082 -0.1707
  584MOL0     O78764   1.301   0.668   9.709 -0.3099  0.1029 -0.0775
  584MOL0     C78765   1.410   0.745   9.645 -0.5566 -0.2340  0.7778
  584MOL0     C78766   1.490   0.668   9.545 -0.3816  0.0864  0.4724
  584MOL0     C78767   1.591   0.773   9.485 -0.7054 -0.2708 -0.0021
  584MOL0     C78768   1.660   0.724   9.359 -0.0655  1.1811 -0.3605
  584MOL0     C78769   1.746   0.604   9.376 -0.4796 -1.4933  0.5952
  584MOL0     C78770   1.809   0.509   9.401 -0.0341  0.0616  0.3182
  584MOL0     C78771   1.162   0.700   9.509  0.1937 -0.0370 -0.0707
  584MOL0     C78772   1.041   0.675   9.449 -0.7607 -0.0843 -0.2484
  584MOL0     H78773   0.817   0.609   9.070 -0.1308  0.0607  0.2766
  584MOL0     H78774   0.648   0.563   8.910 -0.8684 -3.0717 -1.3844
  584MOL0     H78775   0.472   0.559   8.795  0.9633 -0.3488  0.8306
  584MOL0     H78776   0.457   0.385   8.832 -0.0479  0.1483 -0.0494
  584MOL0     H78777   0.311   0.473   8.659  0.4358  0.5960  1.0118
  584MOL0     H78778   0.211   0.415   8.802 -2.5274  1.4324 -0.1335
  584MOL0     H78779   0.218   0.666   8.864  0.1633 -0.9283  0.9947
  584MOL0     H78780   0.236   0.685   8.689 -0.8809 -2.4855 -0.9926
  584MOL0     H78781   0.015   0.566   8.842  3.1540 -0.7078  1.6753
  584MOL0     H78782   0.006   0.695   8.712 -0.1942 -1.6952 -1.2798
  584MOL0     H78783   0.086   0.464   8.567 -1.3069  1.0465 -1.6820
  584MOL0     H78784  -0.052   0.421   8.672  0.9884 -1.9543 -1.2973
  584MOL0     H78785  -0.033   0.651   8.475 -2.5786  0.1608 -3.4305
  584MOL0     H78786  -0.104   0.490   8.453 -0.0595  1.6527 -1.8872
  584MOL0     H78787  -0.288   0.542   8.611 -1.3756  1.1540 -1.2561
  584MOL0     H78788  -0.205   0.678   8.681 -0.6568  1.6528 -0.6832
  584MOL0     H78789  -0.301   0.667   8.389 -2.9914 -1.7695 -0.0861
  584MOL0     H78790  -0.260   0.805   8.468 -0.2278 -1.2092 -3.0973
  584MOL0     H78791  -0.464   0.901   8.651  1.3449 -1.1351  1.1280
  584MOL0     H78792  -0.833   0.828   8.690 -0.0191 -0.2231  1.9157
  584MOL0     H78793  -0.695   0.876   8.793 -0.0216  3.2441 -0.1106
  584MOL0     H78794  -0.747   1.008   8.528  0.0299 -1.1860  0.1289
  584MOL0     H78795  -0.638   1.060   8.655  0.3622  0.0875  0.3574
  584MOL0     H78796  -0.829   1.210   8.704  0.0895  0.0647 -1.7186
  584MOL0     H78797  -0.852   1.078   8.809  1.1234 -2.0745 -1.2881
  584MOL0     H78798  -1.029   0.979   8.686 -0.2990  1.1457  1.5275
  584MOL0     H78799  -0.983   1.050   8.541  1.2797  0.9254 -0.0370
  584MOL0     H78800  -1.206   1.021   8.487  3.8448 -0.2875  1.4740
  584MOL0     H78801  -1.411   0.922   8.437  1.6999  0.6623 -0.2488
  584MOL0     H78802  -1.549   1.024   8.478  2.1146 -1.2741  1.5791
  584MOL0     H78803  -1.473   1.035   8.316 -2.1910 -1.2467 -1.0155
  584MOL0     H78804  -1.872   1.344   8.521  0.3691 -1.5067 -0.2864
  584MOL0     H78805  -2.075   1.409   8.408 -0.0397 -0.4864 -1.7323
  584MOL0     H78806  -2.068   1.726   8.051 -1.0555  0.4492 -1.8622
  584MOL0     H78807  -2.085   1.547   8.017 -1.9779 -2.4261  1.0122
  584MOL0     H78808  -2.288   1.748   8.130 -2.8156  0.3715 -1.4025
  584MOL0     H78809  -2.268   1.735   7.959 -1.4103  3.9291  1.8904
  584MOL0     H78810  -2.436   1.594   8.139  0.8420  0.4612  0.6055
  584MOL0     H78811  -2.324   1.477   8.055 -0.8522 -0.8350 -2.6642
  584MOL0     H78812  -2.407   1.575   7.837 -2.5008  1.6713 -1.2542
  584MOL0     H78813  -2.516   1.489   7.942 -0.1767  0.4601  1.5048
  584MOL0     H78814  -2.514   1.797   7.900  0.9912  0.4398  3.4032
  584MOL0     H78815  -2.618   1.703   8.012  0.5378 -1.1424 -0.7990
  584MOL0     H78816  -2.584   1.649   7.713  1.2761  2.0037 -0.2742
  584MOL0     H78817  -2.725   1.594   7.816 -0.6620  0.5120 -1.0301
  584MOL0     H78818  -2.765   1.782   7.655  0.1904 -0.0565 -0.6006
  584MOL0     H78819  -2.670   1.882   7.779 -0.7233  0.5547  1.4327
  584MOL0     H78820  -2.896   1.926   7.826  2.8207  1.9622  1.3071
  584MOL0     H78821  -2.837   1.825   7.951 -1.1634  1.5862 -0.1901
  584MOL0     H78822  -1.844   1.636   8.120  3.0400 -0.5251 -0.8747
  584MOL0     H78823  -1.653   1.570   8.214 -0.1644  1.0586  0.5536
  584MOL0     H78824  -1.415   1.456   8.583  1.9076  1.9218  1.9527
  584MOL0     H78825  -1.194   1.392   8.683  2.5127 -1.8441  1.9135
  584MOL0     H78826   0.363   0.563   9.238  0.4403 -0.2917 -0.1865
  584MOL0     H78827   0.540   0.602   9.391  2.4777  1.2615  1.0851
  584MOL0     H78828   0.854   0.604   9.723  0.0198  0.1278  0.3808
  584MOL0     H78829   1.072   0.622   9.835  4.7571 -0.2405 -0.0304
  584MOL0     H78830   1.372   0.837   9.598  1.4291 -0.3368 -1.2745
  584MOL0     H78831   1.476   0.784   9.723  2.1024 -3.5564  0.4406
  584MOL0     H78832   1.431   0.622   9.466 -1.0337 -1.8756  2.0097
  584MOL0     H78833   1.549   0.589   9.592 -0.3996 -0.5901 -0.6200
  584MOL0     H78834   1.662   0.806   9.562 -2.3329  0.3702  1.2847
  584MOL0     H78835   1.537   0.861   9.450 -2.8286 -1.6707 -0.4687
  584MOL0     H78836   1.711   0.809   9.312  2.5913  0.9480  1.8559
  584MOL0     H78837   1.574   0.692   9.299 -0.2805  2.9717 -1.0738
  584MOL0     H78838   1.873   0.427   9.428 -0.5886 -0.5043 -0.0505
  584MOL0     H78839   1.247   0.726   9.446 -0.8078  1.0124 -1.0434
  584MOL0     H78840   1.048   0.698   9.343 -0.0032  3.1511  0.4107
  585MOL0     O78841  10.284  10.442   8.299 -0.0933 -0.2668 -0.0951
  585MOL0     C78842  10.354  10.499   8.385 -0.1100 -0.3353  0.0668
  585MOL0     O78843  10.307  10.571   8.483 -0.0935 -0.0970  0.8658
  585MOL0     C78844  10.181  10.554   8.530  0.1030 -0.7181 -0.3391
  585MOL0     C78845  10.091  10.454   8.522  0.4077 -0.3595  0.4725
  585MOL0     C78846   9.959  10.470   8.568 -0.8354 -0.3140 -0.4745
  585MOL0     C78847   9.919  10.586   8.637  0.0080  0.4556  0.1812
  585MOL0     O78848   9.795  10.596   8.687 -0.1576 -0.8821  0.0945
  585MOL0     C78849   9.733  10.473   8.706  0.5201  0.4910  0.6392
  585MOL0     C78850   9.593  10.480   8.772 -0.3023  0.0368 -0.0317
  585MOL0     C78851   9.492  10.566   8.684 -0.6461  0.2786 -0.1986
  585MOL0     C78852   9.348  10.546   8.732 -0.1462  0.1490  0.0071
  585MOL0     C78853   9.271  10.416   8.679 -0.3943 -0.4569  1.0351
  585MOL0     C78854   9.150  10.384   8.764 -0.2486 -1.1175  0.5250
  585MOL0     C78855   9.077  10.258   8.720 -0.0147  0.0696 -0.6240
  585MOL0     C78856   9.038  10.242   8.574 -0.2459  1.2029 -0.5891
  585MOL0     N78857   8.930  10.144   8.565  0.3128  0.4489 -0.8760
  585MOL0     C78858   8.803  10.153   8.602 -0.0871 -0.2910  0.0575
  585MOL0     C78859   8.750  10.027   8.599 -0.2809 -0.6779  0.5120
  585MOL0     C78860   8.606   9.984   8.632 -0.6079  0.4404 -0.3964
  585MOL0     C78861   8.506  10.100   8.626 -0.4097 -0.1523 -1.0991
  585MOL0     C78862   8.478  10.138   8.482  0.4908 -0.2688 -0.2761
  585MOL0     C78863   8.349  10.223   8.454  0.1662 -0.8024 -0.3995
  585MOL0     O78864   8.229  10.165   8.509  0.1119 -0.6949  0.0682
  585MOL0     C78865   8.157  10.216   8.614  0.0824  0.4214 -0.7669
  585MOL0     C78866   8.201  10.318   8.699  0.2900 -0.1366  0.8188
  585MOL0     C78867   8.127  10.351   8.808 -0.0252 -0.4271 -0.7030
  585MOL0     C78868   8.187  10.451   8.897 -0.4100  0.3713 -0.2872
  585MOL0     C78869   8.003  10.287   8.835  0.2775  0.3483 -1.2479
  585MOL0     C78870   7.910  10.330   8.940 -0.4286 -0.3228  0.5528
  585MOL0     O78871   7.879  10.461   8.954 -0.6051 -0.2204 -0.7792
  585MOL0     C78872   7.791  10.496   9.059 -0.6726  0.8488  0.6966
  585MOL0     C78873   7.657  10.523   9.025 -0.4416 -0.1587 -0.0918
  585MOL0     C78874   7.565  10.531   9.125 -0.0243 -0.3984 -0.3683
  585MOL0     C78875   7.595  10.526   9.258 -0.2510  0.7792  0.1412
  585MOL0     O78876   7.509  10.552   9.365 -0.0806  0.6257 -0.7005
  585MOL0     C78877   7.390  10.473   9.370  0.0071  1.2309 -0.0841
  585MOL0     C78878   7.273  10.568   9.390  0.1275 -0.1843  0.3985
  585MOL0     C78879   7.305  10.669   9.498 -0.5157 -0.2810 -0.5409
  585MOL0     C78880   7.193  10.749   9.556  1.0238 -0.3891  0.0739
  585MOL0     C78881   7.134  10.850   9.464  0.6556 -0.0322 -0.3625
  585MOL0     C78882   7.053  10.951   9.534  0.6289  0.6492 -0.5327
  585MOL0     C78883   6.982  11.044   9.433  0.6760 -0.1120 -0.4185
  585MOL0     C78884   7.078  11.146   9.385 -0.8397 -0.3920 -0.2397
  585MOL0    Cl78885   7.146  11.264   9.507 -0.0093 -0.6240 -0.6462
  585MOL0     C78886   7.730  10.510   9.296 -0.5067 -0.0642  0.6367
  585MOL0     C78887   7.833  10.484   9.194  1.9052  0.1774  1.0199
  585MOL0     O78888   7.873  10.241   9.020  0.0698 -0.7762 -0.3705
  585MOL0     C78889   7.954  10.187   8.749  0.0852  0.3507 -0.2957
  585MOL0     C78890   8.036  10.152   8.642  0.0885 -0.0386  0.2431
  585MOL0     N78891   8.846   9.949   8.541  0.0472  0.2424 -0.2193
  585MOL0     N78892   8.954  10.014   8.528  0.6133 -0.3701  0.2044
  585MOL0     C78893  10.017  10.680   8.665 -0.0700  0.2944  1.2637
  585MOL0     C78894  10.141  10.668   8.605  0.1055 -0.4596 -0.2636
  585MOL0     C78895  10.500  10.508   8.367 -0.2698  0.0531  0.0803
  585MOL0     C78896  10.579  10.538   8.477  0.2428  0.8297 -0.3005
  585MOL0     C78897  10.719  10.522   8.459  0.7904 -0.2495  0.1459
  585MOL0     C78898  10.784  10.508   8.334 -0.4762 -0.2720 -1.2470
  585MOL0     O78899  10.924  10.514   8.330 -0.5920 -0.4672  0.3924
  585MOL0     C78900  10.995  10.532   8.198  0.4438 -0.5950 -1.4581
  585MOL0     C78901  11.147  10.516   8.202 -0.2946  0.9252 -0.0929
  585MOL0     C78902  11.205  10.539   8.065  0.2915 -0.1562 -0.9940
  585MOL0     C78903  11.190  10.687   8.015 -0.5097  0.5849 -0.3823
  585MOL0     C78904  11.224  10.711   7.875 -1.3859  0.5224 -0.7646
  585MOL0     C78905  11.268  10.731   7.763 -0.4218  0.3864  0.3100
  585MOL0     C78906  10.702  10.486   8.225  0.3588 -0.2925  0.3245
  585MOL0     C78907  10.564  10.482   8.238 -0.0035 -0.1818 -0.0533
  585MOL0     H78908  10.114  10.355   8.484  1.1091 -0.0000 -0.0657
  585MOL0     H78909   9.896  10.387   8.535 -2.5149  0.7924 -0.1703
  585MOL0     H78910   9.717  10.448   8.601  1.9461  1.3400  0.1925
  585MOL0     H78911   9.792  10.400   8.763  0.9879 -1.0372 -1.6925
  585MOL0     H78912   9.548  10.382   8.786  1.3424 -0.9530 -1.3104
  585MOL0     H78913   9.606  10.525   8.871 -0.3564 -3.6528  1.8139
  585MOL0     H78914   9.511  10.673   8.683 -0.5964  0.2726 -0.0528
  585MOL0     H78915   9.484  10.540   8.578 -1.6912  2.0005 -0.5780
  585MOL0     H78916   9.348  10.557   8.841 -0.5321 -0.4261  0.0696
  585MOL0     H78917   9.290  10.631   8.697  1.0865  1.6140  1.3597
  585MOL0     H78918   9.253  10.418   8.571  1.0939  1.9480  0.7407
  585MOL0     H78919   9.343  10.334   8.685  3.2820  2.5169  2.2960
  585MOL0     H78920   9.193  10.376   8.864  1.7348 -0.7265 -0.2450
  585MOL0     H78921   9.078  10.466   8.760  1.7223  0.7147  0.9596
  585MOL0     H78922   9.132  10.171   8.757 -0.3584  0.5171  1.0137
  585MOL0     H78923   8.983  10.256   8.775  0.2665  2.2927  0.0450
  585MOL0     H78924   9.124  10.212   8.512 -0.6395 -3.5035  0.7410
  585MOL0     H78925   8.993  10.335   8.538 -3.7270 -0.3147 -0.5405
  585MOL0     H78926   8.750  10.245   8.625  2.8147  1.4243  0.2909
  585MOL0     H78927   8.571   9.901   8.571 -1.5003 -0.1832  0.9228
  585MOL0     H78928   8.599   9.945   8.734 -1.7354  0.7133 -0.3457
  585MOL0     H78929   8.551  10.190   8.668  1.5730 -2.6189  2.6061
  585MOL0     H78930   8.418  10.064   8.681  0.9193 -0.7963  0.6982
  585MOL0     H78931   8.451  10.048   8.426  2.3278 -0.1558 -1.4241
  585MOL0     H78932   8.556  10.196   8.431  0.3786 -1.1621 -1.4909
  585MOL0     H78933   8.341  10.236   8.345  1.8453  0.0212 -0.4542
  585MOL0     H78934   8.376  10.321   8.493  0.4581  0.1211 -2.7417
  585MOL0     H78935   8.293  10.370   8.672 -0.4803  2.2136  2.4157
  585MOL0     H78936   8.167  10.426   9.001  0.5110 -1.5794 -0.5282
  585MOL0     H78937   8.297  10.453   8.898 -0.4093  0.7131  1.0868
  585MOL0     H78938   8.131  10.538   8.862 -1.4735 -0.3884 -0.5152
  585MOL0     H78939   7.636  10.535   8.919 -0.2178  2.8320  0.1144
  585MOL0     H78940   7.471  10.580   9.104  0.1090  0.1678  0.3310
  585MOL0     H78941   7.369  10.409   9.283  2.3222  0.1119  0.1125
  585MOL0     H78942   7.395  10.409   9.458 -0.2360 -0.7173 -1.4189
  585MOL0     H78943   7.253  10.617   9.294  2.0309  2.0375  1.0389
  585MOL0     H78944   7.185  10.514   9.425 -0.8521 -0.0469 -1.6576
  585MOL0     H78945   7.374  10.747   9.465 -3.2194  1.6611 -1.9953
  585MOL0     H78946   7.349  10.625   9.588  1.3658  3.8769  0.8509
  585MOL0     H78947   7.112  10.685   9.592 -2.0828  1.8355 -2.4056
  585MOL0     H78948   7.233  10.798   9.646  0.7720  0.0274 -0.0366
  585MOL0     H78949   7.057  10.792   9.413 -0.9920  1.7520 -0.0086
  585MOL0     H78950   7.203  10.914   9.408 -1.3147  3.3805  0.7576
  585MOL0     H78951   6.987  10.908   9.610 -2.3655  4.7001 -0.4837
  585MOL0     H78952   7.112  11.017   9.598  0.4862 -0.1408  0.4326
  585MOL0     H78953   6.898  11.099   9.475 -0.8589 -3.3965  1.1872
  585MOL0     H78954   6.949  10.984   9.348 -1.8096  1.6713 -0.8148
  585MOL0     H78955   7.030  11.207   9.308  0.1723 -0.2566 -0.7859
  585MOL0     H78956   7.159  11.099   9.328  0.6427 -0.6747  1.9736
  585MOL0     H78957   7.757  10.521   9.400 -0.4505  1.3383  0.4923
  585MOL0     H78958   7.935  10.470   9.227  1.3737 -0.4244  2.4885
  585MOL0     H78959   7.865  10.126   8.763  0.7863 -0.3433  1.5019
  585MOL0     H78960   8.004  10.068   8.581 -0.2125 -1.2930  2.0390
  585MOL0     H78961   9.989  10.771   8.717 -1.2058  0.8800 -0.2776
  585MOL0     H78962  10.217  10.744   8.622  2.4766 -1.5729 -4.5213
  585MOL0     H78963  10.541  10.570   8.574  3.4926  5.0163 -0.1428
  585MOL0     H78964  10.782  10.525   8.547 -0.6118  0.1312  1.1611
  585MOL0     H78965  10.947  10.475   8.118 -3.3949 -0.0821  0.2443
  585MOL0     H78966  10.982  10.639   8.178  1.8102 -0.4379 -1.5878
  585MOL0     H78967  11.164  10.413   8.236 -0.6753 -0.3648 -3.4093
  585MOL0     H78968  11.199  10.585   8.268  0.4398  0.7270 -0.4416
  585MOL0     H78969  11.165  10.463   7.998 -2.1714  1.6474 -1.7058
  585MOL0     H78970  11.309  10.515   8.088 -0.7691 -2.5209  2.1991
  585MOL0     H78971  11.243  10.763   8.074 -2.1895  1.7330 -0.2814
  585MOL0     H78972  11.086  10.720   8.021 -0.7872 -0.5455  2.3146
  585MOL0     H78973  11.304  10.752   7.665 -0.1527 -1.8678 -0.1274
  585MOL0     H78974  10.733  10.482   8.121 -1.5207  2.2650 -0.4526
  585MOL0     H78975  10.491  10.459   8.161  0.4003  0.1098 -0.5288
  586MOL0     O78976  10.248   9.318   7.231 -0.9079  0.0972 -0.4364
  586MOL0     C78977  10.331   9.388   7.281 -0.2446 -0.0731 -0.5589
  586MOL0     O78978  10.305   9.501   7.354  0.1845  0.6129 -0.2572
  586MOL0     C78979  10.170   9.544   7.373  0.6526  0.6103 -0.1030
  586MOL0     C78980  10.073   9.566   7.269  0.0369 -0.2661  0.6221
  586MOL0     C78981   9.941   9.587   7.299 -0.5939 -0.8790  0.2534
  586MOL0     C78982   9.894   9.604   7.437 -0.7676 -0.2674  0.4760
  586MOL0     O78983   9.764   9.632   7.448  0.9336  0.6097  0.4165
  586MOL0     C78984   9.709   9.666   7.568  0.7473  0.9498 -0.0018
  586MOL0     C78985   9.565   9.714   7.539  0.5699  0.2364  0.1682
  586MOL0     C78986   9.499   9.757   7.668  0.4037  0.2636 -0.3973
  586MOL0     C78987   9.344   9.775   7.672  0.5138 -0.3889 -0.4306
  586MOL0     C78988   9.302   9.843   7.537  0.3936 -0.0007 -0.1813
  586MOL0     C78989   9.312   9.999   7.535 -0.1079 -0.2189  0.0904
  586MOL0     C78990   9.213  10.062   7.631  0.0108 -0.3835 -0.0934
  586MOL0     C78991   9.212  10.210   7.602  0.4406 -0.0111 -0.7136
  586MOL0     N78992   9.153  10.285   7.709  1.2132 -0.4169 -0.5985
  586MOL0     C78993   9.023  10.266   7.746  0.1295  0.5486  0.0905
  586MOL0     C78994   8.995  10.364   7.827  0.5399  0.2126 -1.0174
  586MOL0     C78995   8.854  10.365   7.889  0.3205  0.5671  0.0789
  586MOL0     C78996   8.784  10.486   7.834 -0.7293  0.9131 -1.2042
  586MOL0     C78997   8.651  10.519   7.911 -0.8371 -0.4173  0.2292
  586MOL0     C78998   8.592  10.649   7.859 -0.2494 -0.5230 -1.2202
  586MOL0     O78999   8.450  10.641   7.872  0.3326  0.2783 -0.4703
  586MOL0     C79000   8.367  10.751   7.856 -0.2496  0.3593 -0.6704
  586MOL0     C79001   8.411  10.890   7.852  0.4451  0.3622  0.5653
  586MOL0     C79002   8.316  10.987   7.854 -0.2953 -0.2013  0.4268
  586MOL0     C79003   8.371  11.129   7.827 -0.3509  0.6313 -0.6203
  586MOL0     C79004   8.177  10.953   7.876  0.4033 -0.4039  0.2339
  586MOL0     C79005   8.067  11.049   7.872  0.0584 -0.3165  0.3103
  586MOL0     O79006   7.959  11.007   7.800 -0.5107  0.2444  0.3492
  586MOL0     C79007   7.845  11.068   7.836  0.2658  0.2252  0.2032
  586MOL0     C79008   7.774  11.131   7.738  0.9229 -0.3314 -0.0355
  586MOL0     C79009   7.648  11.182   7.772  0.0069 -0.4616 -0.2786
  586MOL0     C79010   7.590  11.175   7.898 -0.0988  0.2804  0.7315
  586MOL0     O79011   7.463  11.219   7.935  0.1944  0.7104  0.2255
  586MOL0     C79012   7.405  11.339   7.895  0.1142 -0.0318 -0.8902
  586MOL0     C79013   7.285  11.387   7.984 -0.1293  0.0077 -0.3352
  586MOL0     C79014   7.256  11.535   7.972  1.4883  0.2601  0.6258
  586MOL0     C79015   7.130  11.581   8.050  0.1655  0.3255 -0.1364
  586MOL0     C79016   7.133  11.574   8.210 -0.4451  0.1874  0.5650
  586MOL0     C79017   7.213  11.700   8.260  0.0412  0.9043  0.0274
  586MOL0     C79018   7.253  11.697   8.406 -0.3516  0.8065 -0.3534
  586MOL0     C79019   7.137  11.673   8.498  1.4264  0.7435  0.1005
  586MOL0    Cl79020   7.033  11.813   8.513  0.1865 -0.3109 -0.1419
  586MOL0     C79021   7.670  11.118   8.001  0.0012  0.4645  0.1442
  586MOL0     C79022   7.791  11.060   7.967 -0.2596  0.1322  0.1366
  586MOL0     O79023   8.067  11.154   7.940 -0.4651  0.1774 -0.0953
  586MOL0     C79024   8.145  10.822   7.891  0.2306  0.9280  0.3988
  586MOL0     C79025   8.237  10.726   7.871 -0.2512  0.0082  0.5571
  586MOL0     N79026   9.102  10.445   7.828 -0.4451 -0.1918 -0.3842
  586MOL0     N79027   9.187  10.407   7.749 -0.2002 -0.2270  0.1990
  586MOL0     C79028   9.988   9.596   7.539 -0.3391 -0.3444  0.2726
  586MOL0     C79029  10.120   9.554   7.502 -0.3083  0.4352  0.9952
  586MOL0     C79030  10.480   9.350   7.264  0.4185 -0.7557 -0.7688
  586MOL0     C79031  10.512   9.213   7.232 -0.2429  0.2425  0.4068
  586MOL0     C79032  10.645   9.195   7.196 -0.8394  0.4795  0.1373
  586MOL0     C79033  10.742   9.291   7.210  0.6866 -0.3475  0.0691
  586MOL0     O79034  10.874   9.273   7.179 -0.2075  0.1376  0.5288
  586MOL0     C79035  10.943   9.144   7.156  0.7831  0.8107 -0.3532
  586MOL0     C79036  10.960   9.057   7.281 -0.0081  0.7679  0.1840
  586MOL0     C79037  10.931   8.907   7.252  0.3527  0.9612 -0.1539
  586MOL0     C79038  11.030   8.864   7.147  0.8341  0.1051  0.5339
  586MOL0     C79039  11.170   8.852   7.179  0.4001  0.3752 -0.9142
  586MOL0     C79040  11.284   8.834   7.211  0.0943  0.3898  0.9088
  586MOL0     C79041  10.705   9.416   7.239 -0.7144  0.2855 -0.2074
  586MOL0     C79042  10.574   9.453   7.268  0.6282  0.3139  0.1809
  586MOL0     H79043  10.092   9.573   7.162  3.0327  4.6473  1.1677
  586MOL0     H79044   9.858   9.597   7.229 -0.0576 -0.8693 -0.3923
  586MOL0     H79045   9.707   9.573   7.626  1.0788  1.9407  1.6918
  586MOL0     H79046   9.761   9.747   7.621 -0.4682  1.3555  0.6118
  586MOL0     H79047   9.573   9.799   7.471  1.6369  1.0977  1.3128
  586MOL0     H79048   9.509   9.640   7.481 -1.6701  2.6822 -0.9986
  586MOL0     H79049   9.538   9.688   7.742  1.8721 -0.4542 -1.7752
  586MOL0     H79050   9.540   9.857   7.687  1.9082 -0.4436  0.1972
  586MOL0     H79051   9.301   9.676   7.688  0.2453 -0.6788 -2.6219
  586MOL0     H79052   9.307   9.830   7.759 -2.2548 -1.2203 -0.9949
  586MOL0     H79053   9.363   9.800   7.457 -1.5265 -2.2161 -0.5635
  586MOL0     H79054   9.200   9.818   7.506 -0.8504  2.8896  1.2659
  586MOL0     H79055   9.414  10.029   7.563 -1.2200  3.2974  0.8295
  586MOL0     H79056   9.289  10.037   7.435 -1.1752  0.8640  0.7197
  586MOL0     H79057   9.117  10.012   7.617  0.6182 -1.5908 -0.0658
  586MOL0     H79058   9.243  10.035   7.733  0.8771  2.0248  0.3780
  586MOL0     H79059   9.154  10.227   7.510 -1.8048 -1.6071  0.3133
  586MOL0     H79060   9.312  10.247   7.579  0.6182 -0.0512 -0.0073
  586MOL0     H79061   8.960  10.183   7.716  1.2335 -0.0520 -0.6272
  586MOL0     H79062   8.805  10.271   7.865  0.1500  0.1712  1.8661
  586MOL0     H79063   8.862  10.364   7.998  2.9338 -1.1833 -0.0260
  586MOL0     H79064   8.762  10.465   7.729  1.4417  1.9817 -1.9400
  586MOL0     H79065   8.851  10.570   7.853  1.2265 -0.4832 -1.6813
  586MOL0     H79066   8.669  10.527   8.019  2.2493  0.4146 -0.2392
  586MOL0     H79067   8.580  10.440   7.888 -2.4546  1.0463 -0.0051
  586MOL0     H79068   8.625  10.660   7.755  0.3387 -2.0128 -1.2257
  586MOL0     H79069   8.637  10.730   7.917  1.2208 -1.6677 -0.6679
  586MOL0     H79070   8.519  10.906   7.847  0.6625 -0.9766  0.3556
  586MOL0     H79071   8.291  11.184   7.776 -0.9600  2.5820  2.2019
  586MOL0     H79072   8.391  11.187   7.918  0.3433  0.1569 -0.4669
  586MOL0     H79073   8.467  11.130   7.774  0.6750  2.1248  1.1478
  586MOL0     H79074   7.800  11.131   7.633  2.4342  1.2030  0.2876
  586MOL0     H79075   7.594  11.225   7.688 -0.3063  2.2252  1.1642
  586MOL0     H79076   7.492  11.404   7.896  0.7786 -0.8943  0.2673
  586MOL0     H79077   7.366  11.339   7.793 -1.5973 -2.0768 -0.3227
  586MOL0     H79078   7.202  11.329   7.942  1.1979  0.1816 -3.4331
  586MOL0     H79079   7.297  11.361   8.090  0.0499 -0.2723 -0.4230
  586MOL0     H79080   7.234  11.553   7.866 -3.1290  1.7621  1.5743
  586MOL0     H79081   7.337  11.599   8.006  0.7809  2.2885 -1.2402
  586MOL0     H79082   7.118  11.684   8.018 -2.5311 -0.0495 -0.6247
  586MOL0     H79083   7.047  11.525   8.006 -1.0205  3.9070 -2.9322
  586MOL0     H79084   7.191  11.485   8.238  0.4780  0.8605  0.8422
  586MOL0     H79085   7.031  11.561   8.247 -1.1341 -1.6979 -1.7077
  586MOL0     H79086   7.305  11.712   8.201  0.4207 -2.7789 -0.3350
  586MOL0     H79087   7.139  11.781   8.261  0.2545  1.1016  0.2644
  586MOL0     H79088   7.289  11.799   8.425  1.0174  0.4109 -0.7027
  586MOL0     H79089   7.334  11.626   8.425 -2.7271 -1.3858  2.7044
  586MOL0     H79090   7.186  11.643   8.591  2.0016  3.7196  0.8706
  586MOL0     H79091   7.081  11.589   8.456  1.3705 -0.1821  1.9283
  586MOL0     H79092   7.628  11.102   8.099  1.2608  0.2007  0.6545
  586MOL0     H79093   7.850  11.017   8.046 -1.9529 -0.0751  1.3398
  586MOL0     H79094   8.042  10.793   7.906  0.7972 -0.3335  2.1740
  586MOL0     H79095   8.209  10.621   7.872  0.7690 -0.2752  0.9200
  586MOL0     H79096   9.966   9.622   7.642  0.4009  1.1513  0.0854
  586MOL0     H79097  10.184   9.534   7.587  1.9276  4.3560  0.4823
  586MOL0     H79098  10.436   9.136   7.232 -0.8291  0.7455 -1.7633
  586MOL0     H79099  10.682   9.098   7.166  0.7220  1.0508  0.1424
  586MOL0     H79100  10.892   9.084   7.080  0.6826 -0.9408  1.0438
  586MOL0     H79101  11.036   9.165   7.102  0.1252  1.9961 -1.0942
  586MOL0     H79102  10.889   9.084   7.360 -0.6662 -0.5490  0.0716
  586MOL0     H79103  11.066   9.065   7.309  0.6189  0.1396 -1.8688
  586MOL0     H79104  10.830   8.886   7.215  1.0546 -0.4120 -1.4056
  586MOL0     H79105  10.932   8.851   7.346  0.1060  2.2637  0.6531
  586MOL0     H79106  11.039   8.914   7.050  2.2178 -0.4772  0.3411
  586MOL0     H79107  11.004   8.762   7.118 -0.7460  0.3989  0.8265
  586MOL0     H79108  11.387   8.827   7.238  0.9048  2.1507 -1.3705
  586MOL0     H79109  10.782   9.491   7.255 -0.2169 -0.6381  1.9900
  586MOL0     H79110  10.542   9.554   7.288 -1.1618 -0.2669  0.4243
  587MOL0     O79111  10.253   5.130  10.553  0.6404 -0.1924  0.2174
  587MOL0     C79112  10.329   5.227  10.546  0.0161  0.2550  0.1316
  587MOL0     O79113  10.302   5.351  10.497  0.5439 -0.2492  0.3414
  587MOL0     C79114  10.169   5.392  10.474 -0.5661 -0.1115 -0.6731
  587MOL0     C79115  10.112   5.488  10.552  0.7905  0.1156 -0.0411
  587MOL0     C79116   9.984   5.522  10.527  0.3401  0.3859 -0.3391
  587MOL0     C79117   9.905   5.447  10.443  1.0737 -0.1502  0.4958
  587MOL0     O79118   9.769   5.486  10.433  0.0004  0.1238  0.4059
  587MOL0     C79119   9.683   5.408  10.350  0.2539  0.1213  0.4521
  587MOL0     C79120   9.548   5.480  10.334  0.3700  0.0047 -0.3582
  587MOL0     C79121   9.446   5.394  10.253 -0.5175  0.0882 -0.4492
  587MOL0     C79122   9.346   5.474  10.175  0.5810  0.6097  0.2306
  587MOL0     C79123   9.251   5.383  10.101  0.1444  0.7090 -0.2802
  587MOL0     C79124   9.121   5.458  10.048 -0.8076  0.0496 -0.1895
  587MOL0     C79125   9.042   5.380   9.950 -0.5482 -1.0081 -1.1095
  587MOL0     C79126   8.948   5.472   9.857  1.0392  0.1695 -0.0395
  587MOL0     N79127   8.841   5.533   9.948 -0.1511  0.0198  0.1107
  587MOL0     C79128   8.855   5.654  10.023 -0.3996  1.1552 -0.6145
  587MOL0     C79129   8.730   5.691  10.059  0.1445  0.1750  0.0323
  587MOL0     C79130   8.679   5.821  10.118 -0.5198 -0.7442  0.8693
  587MOL0     C79131   8.588   5.803  10.233 -0.3257 -0.4287 -0.3574
  587MOL0     C79132   8.449   5.733  10.220  0.1434  0.6300 -0.1042
  587MOL0     C79133   8.353   5.799  10.127  1.4468 -0.4340 -0.8452
  587MOL0     O79134   8.215   5.757  10.157 -0.0484 -0.5762  0.1608
  587MOL0     C79135   8.161   5.656  10.084 -0.0230 -0.1804 -0.8126
  587MOL0     C79136   8.021   5.638  10.103  1.0277 -0.3537  0.9837
  587MOL0     C79137   7.950   5.536  10.045 -0.0468 -0.1197 -0.8421
  587MOL0     C79138   7.800   5.537  10.075 -0.5429  0.8925 -0.5220
  587MOL0     C79139   8.022   5.443   9.967  0.8308 -0.9104 -1.0821
  587MOL0     C79140   7.958   5.342   9.893  0.5892  0.2476 -0.1687
  587MOL0     O79141   8.026   5.222   9.864  0.3461  0.6841 -0.1291
  587MOL0     C79142   7.964   5.114   9.809  0.4910  0.5258 -0.1271
  587MOL0     C79143   7.988   4.985   9.853  0.6585  0.2828  0.5431
  587MOL0     C79144   7.921   4.869   9.797 -0.8136 -0.5879  0.9592
  587MOL0     C79145   7.835   4.879   9.684  0.2958 -0.3820 -1.1082
  587MOL0     O79146   7.768   4.770   9.632  0.1808  0.0966 -0.0841
  587MOL0     C79147   7.814   4.632   9.644 -0.7134 -0.6967 -0.2219
  587MOL0     C79148   7.709   4.545   9.573  0.0762 -0.9572  0.8743
  587MOL0     C79149   7.569   4.538   9.624 -0.2628  0.7996 -0.5247
  587MOL0     C79150   7.490   4.454   9.526 -0.2032 -0.3950  0.6763
  587MOL0     C79151   7.346   4.429   9.564 -0.0454 -0.3151 -0.1872
  587MOL0     C79152   7.272   4.349   9.453  0.3044 -0.0672  0.1078
  587MOL0     C79153   7.134   4.294   9.493 -0.0653 -0.1902  0.6031
  587MOL0     C79154   7.064   4.218   9.373  0.1807 -0.4601 -0.0581
  587MOL0    Cl79155   7.147   4.056   9.358  0.1909 -0.4176  0.1416
  587MOL0     C79156   7.819   5.010   9.627  0.9228  1.6510 -0.1979
  587MOL0     C79157   7.881   5.125   9.690 -0.2175  0.0919  0.5612
  587MOL0     O79158   7.853   5.370   9.838  0.0039  0.7186 -0.0361
  587MOL0     C79159   8.155   5.454   9.966 -0.8535  0.3060 -0.1431
  587MOL0     C79160   8.229   5.555  10.026  0.0747  0.2789  1.1482
  587MOL0     N79161   8.647   5.593  10.013  0.1280  0.0001 -0.2293
  587MOL0     N79162   8.711   5.502   9.952 -0.5335  0.4552  0.5188
  587MOL0     C79163   9.969   5.346  10.365 -0.4763 -1.0705 -0.4701
  587MOL0     C79164  10.101   5.326  10.377 -0.7397 -0.0885 -0.3388
  587MOL0     C79165  10.462   5.201  10.604  0.3718  0.0995  0.3551
  587MOL0     C79166  10.519   5.071  10.611  0.6217  0.7771 -0.1765
  587MOL0     C79167  10.624   5.046  10.698 -0.5192 -0.0854  0.1110
  587MOL0     C79168  10.692   5.152  10.761  0.9324 -0.2381  0.1090
  587MOL0     O79169  10.794   5.144  10.858  0.3645 -0.4162  0.5492
  587MOL0     C79170  10.887   5.038  10.829 -0.2057  0.0218  0.4263
  587MOL0     C79171  11.020   5.038  10.903  0.3531 -0.4557 -0.0819
  587MOL0     C79172  11.108   5.159  10.877 -0.6627 -0.7021 -0.3164
  587MOL0     C79173  11.249   5.145  10.914 -1.0051 -0.8458  0.2420
  587MOL0     C79174  11.267   5.173  11.054 -0.7251 -0.1086  0.2897
  587MOL0     C79175  11.312   5.202  11.169 -0.6700 -0.2285 -0.1460
  587MOL0     C79176  10.645   5.278  10.737  0.1357  0.0332  0.4807
  587MOL0     C79177  10.539   5.308  10.657  0.2625  0.1716 -0.8032
  587MOL0     H79178  10.172   5.540  10.626  1.2452 -0.6190  0.1217
  587MOL0     H79179   9.931   5.603  10.574 -0.0030  1.2035 -2.0507
  587MOL0     H79180   9.738   5.388  10.257 -0.1258  1.7800 -0.1590
  587MOL0     H79181   9.664   5.308  10.391 -3.3448  0.3976 -0.1629
  587MOL0     H79182   9.508   5.513  10.430  0.1227  2.6502 -1.2886
  587MOL0     H79183   9.571   5.572  10.280  1.2338  0.1998  0.3217
  587MOL0     H79184   9.500   5.326  10.186 -2.0782 -0.7185 -0.9156
  587MOL0     H79185   9.390   5.334  10.324 -0.3169 -1.1608 -1.3096
  587MOL0     H79186   9.292   5.529  10.253  0.4844  0.1607  0.4843
  587MOL0     H79187   9.397   5.548  10.113  0.8880 -1.2622 -1.9044
  587MOL0     H79188   9.309   5.340  10.018  1.2382  0.2418  0.6959
  587MOL0     H79189   9.224   5.304  10.171 -1.1999  1.0506 -0.3972
  587MOL0     H79190   9.044   5.460  10.126 -2.6889 -0.0459 -1.9645
  587MOL0     H79191   9.145   5.559  10.014 -0.3916  0.0970  0.2308
  587MOL0     H79192   9.097   5.318   9.879 -2.7234 -1.8486 -2.1805
  587MOL0     H79193   8.990   5.308  10.015 -0.6783 -0.3781 -0.5061
  587MOL0     H79194   8.900   5.411   9.781 -0.2526  1.4421 -0.2859
  587MOL0     H79195   8.998   5.556   9.807 -2.0490  3.3594  1.7561
  587MOL0     H79196   8.945   5.714  10.028  0.3708  0.0254 -0.5079
  587MOL0     H79197   8.768   5.879  10.142 -0.8804  0.4455 -0.5606
  587MOL0     H79198   8.629   5.876  10.038  2.2340 -0.1109 -0.5571
  587MOL0     H79199   8.579   5.902  10.278  0.7967 -0.7318  0.5839
  587MOL0     H79200   8.643   5.749  10.311 -0.0149  1.1204  0.5260
  587MOL0     H79201   8.403   5.727  10.319 -3.8574  0.2569 -1.8108
  587MOL0     H79202   8.462   5.629  10.187 -0.7014  0.1322  1.0533
  587MOL0     H79203   8.385   5.774  10.025  4.5619  0.2343 -0.1357
  587MOL0     H79204   8.355   5.909  10.130  3.1149 -0.2292 -4.3578
  587MOL0     H79205   7.967   5.715  10.158 -1.7566 -0.7426 -1.0123
  587MOL0     H79206   7.748   5.582   9.989  1.0087  0.9755 -1.4537
  587MOL0     H79207   7.777   5.431  10.089 -3.5717  1.3510 -1.2866
  587MOL0     H79208   7.777   5.591  10.167  2.0733  0.9387  0.1624
  587MOL0     H79209   8.062   4.972   9.932 -3.4069 -2.6657  4.3589
  587MOL0     H79210   7.942   4.769   9.835 -2.1422 -1.1667  0.2480
  587MOL0     H79211   7.918   4.631   9.611  0.7675  1.5234  3.6901
  587MOL0     H79212   7.821   4.588   9.744  0.3244 -0.9915 -0.4110
  587MOL0     H79213   7.702   4.576   9.469  4.7413 -0.5787  0.4699
  587MOL0     H79214   7.753   4.445   9.577 -0.9460 -1.5923 -1.8308
  587MOL0     H79215   7.525   4.634   9.651  0.4659  0.4985  2.0052
  587MOL0     H79216   7.574   4.487   9.721  1.0255  0.9486 -0.4896
  587MOL0     H79217   7.480   4.509   9.432  1.9692 -0.0537  0.6019
  587MOL0     H79218   7.535   4.355   9.516  0.1500 -0.1780  0.0095
  587MOL0     H79219   7.291   4.523   9.570 -1.0968 -0.6941 -2.4786
  587MOL0     H79220   7.348   4.377   9.660  0.9560 -2.6920 -1.4102
  587MOL0     H79221   7.253   4.424   9.376 -0.6821 -0.7645 -0.3612
  587MOL0     H79222   7.331   4.270   9.405  0.3422 -1.4630  2.2934
  587MOL0     H79223   7.062   4.368   9.526 -5.3117 -3.2594 -2.5796
  587MOL0     H79224   7.146   4.220   9.573  1.0965 -0.8312 -0.1318
  587MOL0     H79225   7.062   4.256   9.271  1.0077 -0.5341 -0.1145
  587MOL0     H79226   6.961   4.199   9.403  0.7881 -1.5403  1.4945
  587MOL0     H79227   7.754   5.020   9.540 -0.5440  1.5646  0.8509
  587MOL0     H79228   7.856   5.220   9.645  1.0132 -0.3548 -1.1568
  587MOL0     H79229   8.202   5.370   9.916 -2.0111 -0.5086  0.1184
  587MOL0     H79230   8.336   5.545  10.010 -0.0097 -4.5995  2.0263
  587MOL0     H79231   9.920   5.280  10.294  0.1365 -2.1842  0.1111
  587MOL0     H79232  10.146   5.248  10.316  1.6201  0.7553  0.1950
  587MOL0     H79233  10.455   4.989  10.578  0.6772  0.6419  0.0479
  587MOL0     H79234  10.671   4.949  10.711 -0.4199 -0.5500 -2.9933
  587MOL0     H79235  10.838   4.944  10.858 -0.1069 -0.1270  0.1239
  587MOL0     H79236  10.910   5.036  10.722 -1.2373  0.0367  0.1918
  587MOL0     H79237  11.061   4.943  10.870  1.7189  0.7112 -1.9744
  587MOL0     H79238  10.997   5.033  11.010  0.1604  0.6973 -0.0575
  587MOL0     H79239  11.065   5.251  10.917  0.1826 -1.2815  2.1109
  587MOL0     H79240  11.111   5.166  10.768 -0.5021  1.5007 -0.2188
  587MOL0     H79241  11.314   5.218  10.864 -0.8200 -0.4501  1.0355
  587MOL0     H79242  11.282   5.043  10.893 -1.4278 -1.1571  1.0505
  587MOL0     H79243  11.347   5.225  11.267 -0.4917 -0.9907 -0.0233
  587MOL0     H79244  10.709   5.356  10.776 -0.4996  2.2665 -2.5394
  587MOL0     H79245  10.498   5.408  10.656 -2.7003 -0.9130  0.6498
  588MOL0     O79246   6.878  11.271   7.637 -0.7601  0.0729 -0.1083
  588MOL0     C79247   6.958  11.256   7.728  0.3863  0.0745 -0.5345
  588MOL0     O79248   6.941  11.296   7.863  0.0468 -0.7738  0.3351
  588MOL0     C79249   6.821  11.344   7.893 -0.8353 -0.0720  0.3816
  588MOL0     C79250   6.782  11.467   7.855 -0.7990  0.2545 -0.4312
  588MOL0     C79251   6.665  11.529   7.896 -1.1718  0.5010 -0.4574
  588MOL0     C79252   6.578  11.457   7.978  0.0111  0.7411 -0.8462
  588MOL0     O79253   6.472  11.519   8.031 -0.1382  0.7029 -0.5779
  588MOL0     C79254   6.339  11.460   8.006 -0.5245 -0.0553  0.2878
  588MOL0     C79255   6.239  11.574   8.000  0.2337 -0.6120  0.3862
  588MOL0     C79256   6.103  11.539   7.935  0.1514  0.1982  1.1721
  588MOL0     C79257   5.995  11.656   7.942 -0.6502 -0.1401  0.1314
  588MOL0     C79258   5.994  11.752   7.825  0.1029 -0.7147  0.0847
  588MOL0     C79259   5.897  11.875   7.859 -0.5987  0.3209  0.0554
  588MOL0     C79260   5.888  11.967   7.737  0.0057 -0.2377  0.4085
  588MOL0     C79261   5.813  12.093   7.777 -0.1929 -0.0133  0.9263
  588MOL0     N79262   5.774  12.177   7.663 -0.4186 -0.0098  0.5958
  588MOL0     C79263   5.877  12.241   7.591  0.3994  0.1997 -0.1907
  588MOL0     C79264   5.808  12.303   7.493  0.7541 -0.3905 -0.3285
  588MOL0     C79265   5.854  12.382   7.382 -0.1726  0.5926 -0.8699
  588MOL0     C79266   5.768  12.502   7.342  0.3710 -0.0368 -0.2595
  588MOL0     C79267   5.822  12.608   7.256  0.1748 -0.3153  0.0801
  588MOL0     C79268   5.935  12.689   7.311  0.1208 -0.0784 -0.2126
  588MOL0     O79269   5.882  12.771   7.416  0.2049 -0.3038  0.1392
  588MOL0     C79270   5.977  12.857   7.468 -0.1468 -0.1210  0.4255
  588MOL0     C79271   5.915  12.971   7.515 -0.3648 -0.3876 -0.2137
  588MOL0     C79272   5.993  13.063   7.588 -0.2435  0.7752  0.7423
  588MOL0     C79273   5.924  13.193   7.638  0.3474 -0.3345 -0.7142
  588MOL0     C79274   6.131  13.037   7.602  0.2605  0.2933  0.4123
  588MOL0     C79275   6.218  13.136   7.657 -0.6714 -0.5755 -0.1021
  588MOL0     O79276   6.278  13.128   7.786  0.9660  0.3566  0.1994
  588MOL0     C79277   6.339  13.241   7.835 -0.2006  0.1569  0.3402
  588MOL0     C79278   6.287  13.321   7.940  0.2286 -0.2691  0.3104
  588MOL0     C79279   6.363  13.423   7.996  0.0089  1.0813 -0.1354
  588MOL0     C79280   6.492  13.444   7.951 -0.1239  0.4467 -0.7987
  588MOL0     O79281   6.560  13.543   8.022  0.5600  0.1156  0.5057
  588MOL0     C79282   6.704  13.556   8.033  1.2506  0.1158  0.8135
  588MOL0     C79283   6.758  13.646   8.148 -0.2758 -0.9422 -0.1658
  588MOL0     C79284   6.900  13.656   8.175 -0.9218 -0.7112  0.1917
  588MOL0     C79285   6.946  13.785   8.256  0.0341  0.7264  0.6060
  588MOL0     C79286   7.090  13.826   8.225  0.1670  0.5506 -0.2098
  588MOL0     C79287   7.182  13.719   8.276  0.0489  0.3241 -0.9252
  588MOL0     C79288   7.324  13.755   8.313  0.1680  0.2044 -0.5066
  588MOL0     C79289   7.390  13.635   8.387 -0.6627  0.1975 -0.1331
  588MOL0    Cl79290   7.564  13.683   8.459 -0.2092 -0.1136  0.2706
  588MOL0     C79291   6.544  13.369   7.845 -0.1899  0.0027  0.1097
  588MOL0     C79292   6.472  13.262   7.793 -0.0184 -0.6286 -0.1038
  588MOL0     O79293   6.256  13.204   7.568  0.3016 -0.3765 -0.5048
  588MOL0     C79294   6.182  12.911   7.560  0.0468 -0.6067  0.3403
  588MOL0     C79295   6.109  12.816   7.504 -0.2841  0.6340 -0.3801
  588MOL0     N79296   5.670  12.291   7.526 -0.7507 -0.0545 -0.4456
  588MOL0     N79297   5.650  12.213   7.620  0.2047  0.2777 -0.5027
  588MOL0     C79298   6.613  11.320   8.005 -0.0896  0.0529 -0.3352
  588MOL0     C79299   6.740  11.262   7.960  0.7961 -0.6860  0.9172
  588MOL0     C79300   7.081  11.184   7.693 -0.7456 -0.4744 -0.5315
  588MOL0     C79301   7.138  11.106   7.798  0.3058  1.1818 -1.3299
  588MOL0     C79302   7.259  11.036   7.763  0.7291  0.6892  0.8249
  588MOL0     C79303   7.323  11.037   7.639  0.1136  0.0304 -0.0850
  588MOL0     O79304   7.440  10.974   7.605 -0.4758  0.7055 -0.1724
  588MOL0     C79305   7.501  10.885   7.697  1.5339  0.2714  0.4538
  588MOL0     C79306   7.425  10.744   7.715  0.5713  0.2962 -0.6341
  588MOL0     C79307   7.412  10.655   7.582  0.3426 -0.3123 -0.4862
  588MOL0     C79308   7.343  10.521   7.610 -0.0550  0.4202 -0.6460
  588MOL0     C79309   7.206  10.538   7.663 -0.2990  0.6252 -0.3702
  588MOL0     C79310   7.100  10.542   7.710 -0.0566 -0.2121 -0.1752
  588MOL0     C79311   7.265  11.123   7.543 -0.1704  0.2728  0.5667
  588MOL0     C79312   7.145  11.181   7.570  0.4603 -0.3895  0.2437
  588MOL0     H79313   6.852  11.537   7.812 -1.8569  2.6092  1.4256
  588MOL0     H79314   6.651  11.635   7.880 -1.2891  0.2744 -1.9344
  588MOL0     H79315   6.336  11.398   7.916 -1.1869 -1.6156  1.3457
  588MOL0     H79316   6.313  11.395   8.090 -1.2221  2.0707  1.8021
  588MOL0     H79317   6.223  11.606   8.103 -3.4397  0.6900 -0.4328
  588MOL0     H79318   6.286  11.653   7.940  1.1481 -1.6397 -0.2792
  588MOL0     H79319   6.116  11.506   7.831  2.9459 -2.5537  2.2124
  588MOL0     H79320   6.066  11.455   7.993  2.5014  1.2672  4.5356
  588MOL0     H79321   5.891  11.622   7.943 -0.4465 -0.9670 -1.7239
  588MOL0     H79322   5.998  11.708   8.038  1.6952 -0.2904  0.2128
  588MOL0     H79323   6.091  11.792   7.793 -0.8354  1.8043  0.2027
  588MOL0     H79324   5.953  11.695   7.741  2.4474 -3.5040  0.6496
  588MOL0     H79325   5.803  11.827   7.889  1.5691 -2.8151  2.4657
  588MOL0     H79326   5.939  11.928   7.945 -1.3732  0.2983  0.4611
  588MOL0     H79327   5.989  11.991   7.703 -0.2938  2.9421  1.4426
  588MOL0     H79328   5.836  11.911   7.658  1.2934 -0.3644 -0.3792
  588MOL0     H79329   5.882  12.158   7.832  0.5606  0.8044 -0.8942
  588MOL0     H79330   5.727  12.062   7.838 -1.3674  0.2596 -0.5134
  588MOL0     H79331   5.983  12.223   7.604  0.1031 -1.2990  0.3574
  588MOL0     H79332   5.959  12.405   7.404 -1.0530  0.8361  4.2353
  588MOL0     H79333   5.840  12.308   7.303 -2.3938 -1.2532  1.0910
  588MOL0     H79334   5.745  12.542   7.441  0.9142 -2.3175  0.8659
  588MOL0     H79335   5.679  12.464   7.291 -0.3568 -0.8429  1.5349
  588MOL0     H79336   5.744  12.678   7.227  0.7402 -0.0570 -0.8593
  588MOL0     H79337   5.856  12.558   7.164 -2.0467 -1.0904 -0.3878
  588MOL0     H79338   5.971  12.765   7.240 -1.9299  3.9999  2.6795
  588MOL0     H79339   6.022  12.630   7.341  1.6153  0.0126 -3.7759
  588MOL0     H79340   5.809  12.973   7.494 -0.3506 -2.5911 -0.7132
  588MOL0     H79341   5.873  13.179   7.734 -0.4229  3.0467 -0.5235
  588MOL0     H79342   6.000  13.270   7.656  2.5959 -2.2443 -1.5221
  588MOL0     H79343   5.860  13.225   7.555  0.5795 -2.5589 -1.8216
  588MOL0     H79344   6.190  13.300   7.984 -0.3903 -0.0641 -0.9084
  588MOL0     H79345   6.331  13.481   8.082  3.0138  0.2590  1.7007
  588MOL0     H79346   6.746  13.456   8.049  0.8359 -0.2269 -0.1396
  588MOL0     H79347   6.750  13.595   7.941  0.5505 -0.0191  0.3947
  588MOL0     H79348   6.716  13.747   8.134 -0.2137 -1.0217 -0.9996
  588MOL0     H79349   6.711  13.610   8.240  1.7493  0.1491  1.3864
  588MOL0     H79350   6.955  13.671   8.082  3.2297  1.5328  2.6689
  588MOL0     H79351   6.933  13.563   8.222  1.7282 -0.4819 -1.0006
  588MOL0     H79352   6.887  13.870   8.221  1.1911  0.6437 -1.7676
  588MOL0     H79353   6.943  13.776   8.365  2.0443  1.3805  0.7582
  588MOL0     H79354   7.111  13.928   8.261 -3.9906  3.7533 -5.2941
  588MOL0     H79355   7.113  13.840   8.119 -0.7016 -0.1824 -0.5058
  588MOL0     H79356   7.144  13.680   8.370  3.6759 -2.5795 -0.4691
  588MOL0     H79357   7.170  13.639   8.203 -6.3292 -0.7109  0.6228
  588MOL0     H79358   7.323  13.840   8.382  0.4837  0.1494 -0.4315
  588MOL0     H79359   7.392  13.786   8.234  2.2421 -0.9318  0.7459
  588MOL0     H79360   7.380  13.544   8.328 -0.8388  0.1147  0.0230
  588MOL0     H79361   7.321  13.630   8.472  0.1489  0.1305  0.5370
  588MOL0     H79362   6.644  13.399   7.814 -0.3264 -0.1979 -0.5307
  588MOL0     H79363   6.509  13.199   7.712 -0.5993 -0.0921 -0.7926
  588MOL0     H79364   6.287  12.881   7.562 -0.3168 -1.9021  0.8477
  588MOL0     H79365   6.144  12.714   7.489 -2.3793  0.0068 -1.4432
  588MOL0     H79366   6.543  11.260   8.061 -2.5734  2.3360 -0.8328
  588MOL0     H79367   6.758  11.157   7.978 -2.5010 -1.7822 -1.3550
  588MOL0     H79368   7.093  11.089   7.896 -1.8780 -2.3158 -2.7479
  588MOL0     H79369   7.296  10.975   7.845 -1.7177 -0.5645  1.0773
  588MOL0     H79370   7.603  10.863   7.663  1.7591  1.7345  0.1090
  588MOL0     H79371   7.519  10.946   7.786  1.3767  4.8810 -2.3424
  588MOL0     H79372   7.324  10.765   7.751  1.9619  3.3984  1.9640
  588MOL0     H79373   7.474  10.683   7.791  3.7326  0.1725 -2.6021
  588MOL0     H79374   7.515  10.638   7.550  0.3200  0.5911 -1.0636
  588MOL0     H79375   7.349  10.701   7.506 -3.3214 -0.6222  2.1004
  588MOL0     H79376   7.412  10.476   7.681 -1.8384  2.4240  2.6420
  588MOL0     H79377   7.335  10.460   7.520  0.3104 -0.8112  0.1355
  588MOL0     H79378   6.997  10.547   7.741 -0.6297 -0.9186 -1.8559
  588MOL0     H79379   7.316  11.142   7.449 -0.3921 -0.7111  0.2331
  588MOL0     H79380   7.090  11.240   7.497 -1.3092  0.6137  2.3066
  589MOL0     O79381   6.942   0.672   2.283 -0.6602 -0.3761 -0.0306
  589MOL0     C79382   6.966   0.683   2.161  0.2491 -1.0218  0.2195
  589MOL0     O79383   6.876   0.743   2.070 -0.3335 -0.1764  0.6641
  589MOL0     C79384   6.743   0.765   2.100 -0.7101  0.3476 -0.1258
  589MOL0     C79385   6.676   0.673   2.181 -0.6178  0.0152  0.4111
  589MOL0     C79386   6.534   0.700   2.191 -0.3308  0.1039  0.0829
  589MOL0     C79387   6.470   0.811   2.135  0.6669  0.5078 -0.5946
  589MOL0     O79388   6.344   0.834   2.164 -0.2122 -0.2423  0.1600
  589MOL0     C79389   6.265   0.894   2.065  0.5388 -1.3775 -0.1639
  589MOL0     C79390   6.113   0.886   2.100 -0.4109  0.2496 -0.1620
  589MOL0     C79391   6.080   0.958   2.235 -0.1202  0.3238 -0.4650
  589MOL0     C79392   5.930   0.994   2.235 -0.4095  0.3851 -0.0446
  589MOL0     C79393   5.896   1.085   2.358 -0.2616 -0.6930  0.4561
  589MOL0     C79394   5.744   1.110   2.358  0.1148 -0.1305 -0.3898
  589MOL0     C79395   5.708   1.240   2.429  0.3667  0.3864 -0.0682
  589MOL0     C79396   5.718   1.227   2.575 -0.0155 -0.1191 -0.2983
  589MOL0     N79397   5.656   1.344   2.635  0.3596  0.1942  0.2566
  589MOL0     C79398   5.539   1.342   2.702  0.4176  0.1077 -0.5822
  589MOL0     C79399   5.546   1.456   2.772 -0.6127  0.2036 -0.5024
  589MOL0     C79400   5.449   1.501   2.880 -0.4814  0.6725  0.1790
  589MOL0     C79401   5.318   1.554   2.830  0.8889  0.3766 -0.7834
  589MOL0     C79402   5.328   1.675   2.742 -0.0280  0.8311  0.0490
  589MOL0     C79403   5.194   1.718   2.701  0.3197 -0.1761 -0.0865
  589MOL0     O79404   5.133   1.773   2.821  0.0209 -0.3346  0.2951
  589MOL0     C79405   5.001   1.750   2.852  0.0713 -0.6168 -0.2169
  589MOL0     C79406   4.949   1.791   2.985 -0.9464  0.7351 -0.3587
  589MOL0     C79407   4.814   1.768   3.023  0.0037  1.1618  0.2962
  589MOL0     C79408   4.776   1.815   3.161  0.2087 -0.4014 -0.2014
  589MOL0     C79409   4.725   1.694   2.936 -0.6367 -0.3570 -0.0575
  589MOL0     C79410   4.582   1.663   2.968  0.6750  0.1961 -0.1525
  589MOL0     O79411   4.495   1.675   2.867 -0.1799 -0.7191 -0.0383
  589MOL0     C79412   4.376   1.609   2.878  0.6189 -0.1157  0.1139
  589MOL0     C79413   4.373   1.474   2.845  0.2260  0.2057  0.8908
  589MOL0     C79414   4.259   1.402   2.845  0.5477 -0.0051 -0.6196
  589MOL0     C79415   4.142   1.466   2.891  0.3415 -0.2326  0.1961
  589MOL0     O79416   4.012   1.416   2.914 -0.0182  0.4560  0.1044
  589MOL0     C79417   3.991   1.273   2.892  0.8997 -0.6196  0.2500
  589MOL0     C79418   3.860   1.219   2.941 -0.3288 -0.0076  0.4292
  589MOL0     C79419   3.867   1.074   2.980  0.5224 -0.4737  0.1044
  589MOL0     C79420   3.735   1.013   3.031  0.4976  0.4720 -0.4276
  589MOL0     C79421   3.638   0.985   2.919 -0.8057 -0.1529  0.0247
  589MOL0     C79422   3.664   0.861   2.836  0.1107 -0.3847  0.5893
  589MOL0     C79423   3.736   0.757   2.901 -0.5657  0.0827  0.4267
  589MOL0     C79424   3.769   0.634   2.811 -0.1492  0.4300  0.1203
  589MOL0    Cl79425   3.803   0.679   2.639  0.2457  0.2233  0.1953
  589MOL0     C79426   4.141   1.601   2.931 -0.4321  0.2625  0.4485
  589MOL0     C79427   4.266   1.671   2.924 -0.1181 -0.6490 -0.0856
  589MOL0     O79428   4.559   1.594   3.067 -0.1819  0.3422 -0.3727
  589MOL0     C79429   4.776   1.666   2.811 -0.0795 -1.2602  0.2968
  589MOL0     C79430   4.911   1.687   2.771  0.5739  0.2949  0.6075
  589MOL0     N79431   5.663   1.522   2.749 -0.0500  0.5526  1.0168
  589MOL0     N79432   5.733   1.456   2.659  1.3867  0.4248 -0.3635
  589MOL0     C79433   6.549   0.902   2.056 -0.1424 -0.7343  0.1156
  589MOL0     C79434   6.683   0.872   2.041 -0.3615 -0.3913 -0.2703
  589MOL0     C79435   7.098   0.629   2.116 -0.7573  0.4817 -1.3256
  589MOL0     C79436   7.183   0.554   2.205  0.2201 -0.4781  0.2840
  589MOL0     C79437   7.306   0.501   2.149 -0.1702  0.1695  0.1131
  589MOL0     C79438   7.340   0.520   2.017  0.5160  0.1577 -0.8462
  589MOL0     O79439   7.454   0.443   1.993  0.7469  0.3946  0.2638
  589MOL0     C79440   7.495   0.438   1.860  0.3404  0.7815  0.4559
  589MOL0     C79441   7.613   0.534   1.831  0.0392 -0.1508 -0.3111
  589MOL0     C79442   7.765   0.491   1.861  0.2981  0.6061 -0.4559
  589MOL0     C79443   7.774   0.351   1.918 -0.3709  0.2549  1.1712
  589MOL0     C79444   7.913   0.314   1.942  0.6215 -0.2414 -1.0212
  589MOL0     C79445   8.026   0.279   1.979  0.1506 -0.6239  0.0766
  589MOL0     C79446   7.261   0.601   1.935 -0.5700 -1.3137 -0.5490
  589MOL0     C79447   7.141   0.659   1.985 -0.0902  0.6837 -0.3116
  589MOL0     H79448   6.726   0.584   2.217 -0.9549 -1.4559 -2.4661
  589MOL0     H79449   6.474   0.633   2.251 -0.2518  1.6529  1.9969
  589MOL0     H79450   6.279   1.002   2.060 -0.9620 -1.0795  1.3339
  589MOL0     H79451   6.276   0.850   1.965 -3.0027  2.4455 -2.5474
  589MOL0     H79452   6.051   0.920   2.016  1.3630 -0.7053 -1.9479
  589MOL0     H79453   6.086   0.780   2.100  2.4675 -0.5595 -1.1299
  589MOL0     H79454   6.115   0.907   2.325  1.6607  2.6953  0.2636
  589MOL0     H79455   6.138   1.050   2.237 -0.8320  0.7622  0.9386
  589MOL0     H79456   5.918   1.059   2.148 -0.7123 -1.5467 -1.5022
  589MOL0     H79457   5.871   0.902   2.230  3.1251 -2.2042  1.3396
  589MOL0     H79458   5.928   1.036   2.450  2.2316  0.6439  0.3953
  589MOL0     H79459   5.956   1.176   2.353  1.6263 -1.5011  4.6246
  589MOL0     H79460   5.722   1.122   2.252  0.2153 -2.1916 -0.6920
  589MOL0     H79461   5.697   1.020   2.399  0.2180 -0.7030 -1.4873
  589MOL0     H79462   5.780   1.319   2.405  1.7727 -0.5213  1.0421
  589MOL0     H79463   5.607   1.278   2.408 -0.6620 -0.7155  2.5033
  589MOL0     H79464   5.824   1.209   2.597  0.1331 -0.9792 -1.6326
  589MOL0     H79465   5.654   1.142   2.600 -3.5097  1.6242 -2.6034
  589MOL0     H79466   5.471   1.259   2.715  2.0644 -0.8438  3.8009
  589MOL0     H79467   5.420   1.415   2.942 -1.1167  0.9234  0.2294
  589MOL0     H79468   5.499   1.566   2.952  2.5503 -1.9426  0.7035
  589MOL0     H79469   5.259   1.583   2.917  1.4157  0.0398 -0.3073
  589MOL0     H79470   5.266   1.473   2.778  0.2189 -0.4549  1.1063
  589MOL0     H79471   5.383   1.645   2.652 -1.7107  0.0450 -0.7616
  589MOL0     H79472   5.380   1.752   2.798  0.5750  2.3846 -2.4963
  589MOL0     H79473   5.142   1.636   2.652  0.1731  0.1729 -0.5239
  589MOL0     H79474   5.216   1.804   2.637  1.4203 -2.2552 -2.6367
  589MOL0     H79475   5.014   1.844   3.053 -0.0400 -1.7754  0.8498
  589MOL0     H79476   4.860   1.792   3.227 -0.3927  0.1146  0.7709
  589MOL0     H79477   4.779   1.925   3.158 -5.7757  0.2519  2.5018
  589MOL0     H79478   4.679   1.775   3.192 -1.1191  1.3223 -1.8856
  589MOL0     H79479   4.468   1.435   2.811 -0.1776 -0.8631  0.9633
  589MOL0     H79480   4.249   1.297   2.822  1.2373  0.2784 -2.3531
  589MOL0     H79481   4.006   1.249   2.786  1.2517  0.7534 -0.0247
  589MOL0     H79482   4.073   1.215   2.937 -1.1302 -3.4245  0.6283
  589MOL0     H79483   3.830   1.286   3.022  0.8733 -0.3226  1.1530
  589MOL0     H79484   3.796   1.236   2.853  4.4171  3.0921 -2.8915
  589MOL0     H79485   3.936   1.070   3.064 -0.9094 -1.0738  1.2895
  589MOL0     H79486   3.902   1.011   2.897 -1.7066  1.5810 -2.6018
  589MOL0     H79487   3.756   0.925   3.093  1.7565  0.8689 -0.2715
  589MOL0     H79488   3.701   1.082   3.108 -1.0097  1.4742 -1.9149
  589MOL0     H79489   3.639   1.078   2.861  1.9670  0.0932  0.3319
  589MOL0     H79490   3.540   0.981   2.968 -2.4338  2.9717 -2.6484
  589MOL0     H79491   3.569   0.818   2.803  0.3999 -0.2975 -0.4073
  589MOL0     H79492   3.730   0.901   2.758 -0.2426 -0.6791  0.1297
  589MOL0     H79493   3.685   0.714   2.988 -2.0380 -2.5043 -1.5305
  589MOL0     H79494   3.834   0.792   2.933 -0.6955 -0.9810  2.1209
  589MOL0     H79495   3.687   0.562   2.821 -1.2578  1.8339  1.8351
  589MOL0     H79496   3.853   0.578   2.853  2.1333  2.1414 -1.8674
  589MOL0     H79497   4.061   1.650   2.986  0.4203  3.3653 -0.8501
  589MOL0     H79498   4.291   1.771   2.959  0.4441 -0.2477 -1.5450
  589MOL0     H79499   4.718   1.624   2.730  1.1467  0.8417 -1.8121
  589MOL0     H79500   4.943   1.659   2.671 -0.3060  1.5733 -0.0543
  589MOL0     H79501   6.491   0.980   2.008 -2.0352 -2.4113 -0.5028
  589MOL0     H79502   6.752   0.934   1.984  0.6612 -0.8408  0.4499
  589MOL0     H79503   7.149   0.525   2.303  1.1381 -0.1011  0.7295
  589MOL0     H79504   7.368   0.428   2.200  0.1652 -1.7475 -2.7427
  589MOL0     H79505   7.523   0.336   1.832 -1.9202  1.0791 -3.8732
  589MOL0     H79506   7.415   0.453   1.786 -1.3969  0.9270  2.2608
  589MOL0     H79507   7.584   0.629   1.874 -3.4822 -1.8877  1.5539
  589MOL0     H79508   7.601   0.557   1.724  1.2031  2.0899 -0.0071
  589MOL0     H79509   7.816   0.564   1.925 -0.1050  1.1219 -0.7202
  589MOL0     H79510   7.816   0.487   1.764  0.2757  1.3516 -0.5014
  589MOL0     H79511   7.740   0.280   1.842  0.7791 -1.7787  2.4646
  589MOL0     H79512   7.712   0.333   2.006 -1.0083  0.5636  0.7889
  589MOL0     H79513   8.127   0.254   2.005 -0.1014  1.4065  3.7584
  589MOL0     H79514   7.302   0.620   1.837 -0.0589  1.3430  0.1148
  589MOL0     H79515   7.090   0.726   1.917  4.1222  2.6425 -1.9094
  590MOL0     O79516   7.264   9.678   0.283  0.3531  0.4250  0.0430
  590MOL0     C79517   7.267   9.730   0.173 -0.4446  1.6032  0.1524
  590MOL0     O79518   7.169   9.768   0.090  0.5260  0.6093  0.0996
  590MOL0     C79519   7.040   9.732   0.105  0.3640  0.1924  1.3191
  590MOL0     C79520   6.995   9.625   0.180  0.4337  0.5744 -0.2081
  590MOL0     C79521   6.859   9.590   0.187 -0.0881 -0.4496  0.7178
  590MOL0     C79522   6.761   9.662   0.125 -0.5791  0.0046  0.0559
  590MOL0     O79523   6.631   9.611   0.125  0.5338  0.2261  0.0769
  590MOL0     C79524   6.527   9.701   0.145 -0.4078  0.2924  0.0046
  590MOL0     C79525   6.462   9.724   0.008  0.4997 -0.1188  0.2469
  590MOL0     C79526   6.328   9.652  -0.025 -0.6290 -0.1676  0.3405
  590MOL0     C79527   6.280   9.708  -0.162  0.2482 -0.4501  0.1128
  590MOL0     C79528   6.165   9.628  -0.227 -0.2627  0.6433  0.2645
  590MOL0     C79529   6.137   9.698  -0.363  0.0314  0.2822  0.4710
  590MOL0     C79530   6.013   9.645  -0.435  0.2557 -0.7854 -0.3601
  590MOL0     C79531   6.034   9.502  -0.502  0.0056  0.5803  0.1805
  590MOL0     N79532   5.912   9.474  -0.574  0.3230 -0.0197  0.3310
  590MOL0     C79533   5.900   9.495  -0.708  0.0341  0.3675 -0.8405
  590MOL0     C79534   5.781   9.436  -0.736  0.1619 -1.0239  0.0559
  590MOL0     C79535   5.735   9.405  -0.874  0.7334  0.3709  0.6989
  590MOL0     C79536   5.584   9.369  -0.895  0.3499  0.3013  0.0909
  590MOL0     C79537   5.568   9.305  -1.039 -0.7042  0.0133 -0.6592
  590MOL0     C79538   5.419   9.277  -1.068  0.1541  0.7993 -0.4397
  590MOL0     O79539   5.400   9.231  -1.197 -0.4673 -0.4144  0.4045
  590MOL0     C79540   5.286   9.254  -1.254 -0.1086  0.5208  0.5444
  590MOL0     C79541   5.289   9.281  -1.390  0.4726  1.1032  0.7058
  590MOL0     C79542   5.166   9.301  -1.461  0.0151  0.1099 -0.6299
  590MOL0     C79543   5.178   9.318  -1.612  0.4017  1.0491 -0.7325
  590MOL0     C79544   5.047   9.293  -1.395  0.2654  0.3504  0.0700
  590MOL0     C79545   4.917   9.325  -1.459 -0.7675  0.6009 -0.2579
  590MOL0     O79546   4.801   9.255  -1.434  0.4014  0.0534  0.1084
  590MOL0     C79547   4.690   9.282  -1.511  0.0358 -0.2126 -0.6337
  590MOL0     C79548   4.643   9.172  -1.572  1.2112 -0.5852 -0.0383
  590MOL0     C79549   4.513   9.170  -1.631 -1.2761 -1.0412  0.2935
  590MOL0     C79550   4.445   9.297  -1.649  0.1833  1.0576 -0.9005
  590MOL0     O79551   4.321   9.304  -1.707  0.0478  0.4701  0.1257
  590MOL0     C79552   4.271   9.200  -1.786  0.0101  0.0846 -0.1188
  590MOL0     C79553   4.153   9.234  -1.883  0.1998  0.6554 -0.3422
  590MOL0     C79554   4.020   9.264  -1.803  0.6217  0.8211  0.4254
  590MOL0     C79555   3.922   9.364  -1.871 -0.6315  0.2891  0.5746
  590MOL0     C79556   3.832   9.288  -1.971 -0.0354 -0.3218 -0.6493
  590MOL0     C79557   3.716   9.384  -2.028  0.7779  0.8705  0.6798
  590MOL0     C79558   3.628   9.298  -2.116  0.1068  0.0546 -1.1135
  590MOL0     C79559   3.547   9.401  -2.189  0.1279 -0.7510 -1.1364
  590MOL0    Cl79560   3.398   9.439  -2.091  0.2979 -0.0797 -0.2967
  590MOL0     C79561   4.497   9.410  -1.592  1.3647  0.7205  0.2073
  590MOL0     C79562   4.618   9.410  -1.522 -0.0842  0.1306  0.0990
  590MOL0     O79563   4.930   9.409  -1.556  0.0182 -0.2167 -0.7236
  590MOL0     C79564   5.046   9.255  -1.257 -0.2281 -1.0356 -0.1748
  590MOL0     C79565   5.162   9.243  -1.185 -0.2809  0.7114  0.0669
  590MOL0     N79566   5.712   9.396  -0.625 -0.1068  0.1519 -0.1831
  590MOL0     N79567   5.795   9.410  -0.518 -0.6038  0.0474 -0.2048
  590MOL0     C79568   6.809   9.770   0.048 -0.5586  0.1475  0.7464
  590MOL0     C79569   6.942   9.808   0.036 -1.0069  0.0537 -0.3411
  590MOL0     C79570   7.405   9.752   0.120  0.6459  0.7387 -0.7410
  590MOL0     C79571   7.427   9.822  -0.005 -0.1627 -0.0978 -0.5731
  590MOL0     C79572   7.554   9.838  -0.061  0.7269 -0.6455  0.8859
  590MOL0     C79573   7.658   9.772  -0.000 -0.2001 -0.1397  0.1300
  590MOL0     O79574   7.789   9.768  -0.042  0.1456  0.1873 -0.4417
  590MOL0     C79575   7.822   9.807  -0.167 -0.4747 -1.2807 -0.1749
  590MOL0     C79576   7.970   9.775  -0.211  0.7455 -0.1661 -0.2193
  590MOL0     C79577   7.962   9.740  -0.357 -0.8867 -0.5718  0.4610
  590MOL0     C79578   8.088   9.681  -0.424  0.2167 -0.6311  0.9507
  590MOL0     C79579   8.214   9.750  -0.408  0.3156  0.1966 -0.2812
  590MOL0     C79580   8.326   9.790  -0.390  0.2675  0.5389 -0.2684
  590MOL0     C79581   7.645   9.695   0.115 -0.0814  0.0165 -0.0760
  590MOL0     C79582   7.512   9.686   0.175 -0.6864  0.0015 -0.2232
  590MOL0     H79583   7.063   9.553   0.225 -0.4687 -1.1192 -1.4723
  590MOL0     H79584   6.815   9.504   0.238 -0.9202  1.3160  3.1525
  590MOL0     H79585   6.452   9.666   0.216  0.4216 -1.1004  0.2399
  590MOL0     H79586   6.562   9.795   0.187  0.2795  0.6913 -1.3842
  590MOL0     H79587   6.449   9.832   0.013  1.5545 -0.0252  2.5044
  590MOL0     H79588   6.527   9.702  -0.077  0.3590 -0.4353  0.2210
  590MOL0     H79589   6.328   9.543  -0.019 -1.3974 -0.0878  2.8077
  590MOL0     H79590   6.262   9.679   0.058 -0.8727 -0.2903  0.1853
  590MOL0     H79591   6.248   9.812  -0.148  0.4380  0.3798 -4.2773
  590MOL0     H79592   6.365   9.704  -0.230  1.3544  1.4638  1.2823
  590MOL0     H79593   6.199   9.524  -0.235  0.1634  0.8948 -2.2401
  590MOL0     H79594   6.077   9.625  -0.163 -0.7702  0.8978 -0.4027
  590MOL0     H79595   6.141   9.807  -0.366  3.5444  0.2581 -0.5634
  590MOL0     H79596   6.229   9.678  -0.419  1.5812  0.8433  2.7034
  590MOL0     H79597   5.935   9.661  -0.361 -0.4838  4.3072 -1.8611
  590MOL0     H79598   5.985   9.716  -0.513 -1.1715 -0.3396  0.5266
  590MOL0     H79599   6.055   9.424  -0.428  1.6947  0.8736  0.0422
  590MOL0     H79600   6.124   9.519  -0.562  0.5757  0.7661  1.0608
  590MOL0     H79601   5.978   9.518  -0.781 -1.0695 -1.4629 -2.7360
  590MOL0     H79602   5.749   9.481  -0.951  1.3259 -0.5988 -0.1724
  590MOL0     H79603   5.795   9.318  -0.902  0.1068  0.2079 -0.1975
  590MOL0     H79604   5.521   9.458  -0.886  0.7942  0.5228  1.2330
  590MOL0     H79605   5.546   9.299  -0.820 -1.1787 -0.7831 -1.6294
  590MOL0     H79606   5.635   9.219  -1.031 -1.7562 -0.6331  2.5283
  590MOL0     H79607   5.605   9.353  -1.130 -1.9106 -1.7226 -2.1414
  590MOL0     H79608   5.349   9.360  -1.055  0.2819  1.2802 -2.5356
  590MOL0     H79609   5.375   9.200  -1.004 -1.3832  0.7873 -1.4498
  590MOL0     H79610   5.386   9.286  -1.437 -1.1494 -1.7105 -3.5872
  590MOL0     H79611   5.280   9.313  -1.651  1.1714 -0.0601  1.2628
  590MOL0     H79612   5.119   9.234  -1.650 -0.1546  0.5218  1.1895
  590MOL0     H79613   5.134   9.410  -1.649  1.7060  3.2309  2.6507
  590MOL0     H79614   4.693   9.076  -1.557 -0.5408 -1.5081  0.1297
  590MOL0     H79615   4.475   9.075  -1.665  0.2847 -1.1162 -1.3650
  590MOL0     H79616   4.344   9.146  -1.846  0.4299 -1.9991  2.1168
  590MOL0     H79617   4.243   9.133  -1.705 -2.1952  1.1338  0.0648
  590MOL0     H79618   4.175   9.322  -1.945 -1.8444  0.1401 -1.9232
  590MOL0     H79619   4.145   9.147  -1.949  3.5547  1.0237 -1.3783
  590MOL0     H79620   4.041   9.315  -1.708  0.9875  1.0680  0.2124
  590MOL0     H79621   3.973   9.168  -1.779  4.0898 -1.0545  0.4224
  590MOL0     H79622   3.859   9.407  -1.793 -1.4359 -0.2765  0.2544
  590MOL0     H79623   3.977   9.441  -1.926  2.0862 -2.9289 -1.6920
  590MOL0     H79624   3.783   9.218  -1.903  0.9747  0.8653  1.3753
  590MOL0     H79625   3.889   9.234  -2.047 -0.4967  0.9830 -1.9682
  590MOL0     H79626   3.661   9.440  -1.951  1.8932  1.2335  1.2335
  590MOL0     H79627   3.770   9.453  -2.093  1.0602  1.1518  1.2076
  590MOL0     H79628   3.562   9.232  -2.059  2.3448 -0.5027  1.0228
  590MOL0     H79629   3.693   9.249  -2.189  2.4358  1.2703  0.0120
  590MOL0     H79630   3.516   9.350  -2.281 -0.3669  0.7153 -1.7979
  590MOL0     H79631   3.591   9.497  -2.215 -3.3175  1.5854  0.8951
  590MOL0     H79632   4.437   9.500  -1.599  1.5512  0.7381 -2.1445
  590MOL0     H79633   4.666   9.501  -1.490  0.2141 -0.3973  1.1868
  590MOL0     H79634   4.948   9.254  -1.208 -0.2592  1.5390 -0.0321
  590MOL0     H79635   5.152   9.221  -1.079 -0.5110 -1.4080 -0.3469
  590MOL0     H79636   6.739   9.828  -0.011  0.8471 -0.5760 -1.7707
  590MOL0     H79637   6.978   9.888  -0.026  0.6476  1.6292  2.4606
  590MOL0     H79638   7.341   9.870  -0.050 -0.8090 -0.1095  0.6146
  590MOL0     H79639   7.567   9.891  -0.155  2.5453 -2.8695 -0.2148
  590MOL0     H79640   7.740   9.777  -0.232 -0.1785  3.4160 -3.1720
  590MOL0     H79641   7.822   9.916  -0.170 -0.8937 -1.1345  2.5000
  590MOL0     H79642   8.009   9.691  -0.153 -3.1440 -0.8796  1.7356
  590MOL0     H79643   8.038   9.858  -0.190  0.3931  0.4631 -1.4756
  590MOL0     H79644   7.939   9.826  -0.421 -0.9023 -1.6503 -1.0357
  590MOL0     H79645   7.879   9.670  -0.373 -2.3135  1.2462 -0.6016
  590MOL0     H79646   8.073   9.684  -0.532  3.2527  1.6750  0.4625
  590MOL0     H79647   8.087   9.575  -0.394 -1.0077 -1.0463 -0.4396
  590MOL0     H79648   8.427   9.820  -0.370  1.7487 -3.2230 -1.1577
  590MOL0     H79649   7.727   9.647   0.167 -0.1313  1.8902  1.8252
  590MOL0     H79650   7.521   9.628   0.266 -3.7129 -0.4035 -0.0752
  591MOL0     O79651   3.150   3.524   6.804 -0.0669 -0.4175  0.1356
  591MOL0     C79652   3.266   3.500   6.809 -0.4454  1.2145  0.2394
  591MOL0     O79653   3.327   3.376   6.829  0.1961 -0.7311  0.5481
  591MOL0     C79654   3.259   3.269   6.872  0.0233  1.3410 -0.4789
  591MOL0     C79655   3.309   3.220   6.993  0.0397  0.1302 -0.4226
  591MOL0     C79656   3.262   3.103   7.045  0.5612  0.3435  0.2646
  591MOL0     C79657   3.154   3.034   6.989  0.4410 -0.0585  1.1288
  591MOL0     O79658   3.102   2.914   7.039 -0.0927 -0.7581  0.2470
  591MOL0     C79659   3.101   2.915   7.187 -0.7706  0.3443  0.4109
  591MOL0     C79660   3.044   2.781   7.233 -0.7224 -0.2046 -0.3421
  591MOL0     C79661   2.891   2.772   7.198 -1.0262  0.2255  0.0045
  591MOL0     C79662   2.782   2.870   7.252 -0.1001 -0.0298 -0.0465
  591MOL0     C79663   2.636   2.825   7.207  0.3644 -0.1579 -0.7013
  591MOL0     C79664   2.531   2.924   7.275 -0.2351 -0.2943  0.3295
  591MOL0     C79665   2.404   2.923   7.192  0.1370 -0.2716  0.3665
  591MOL0     C79666   2.320   2.789   7.171 -0.2120 -0.6048 -0.1021
  591MOL0     N79667   2.207   2.819   7.079  0.2925  0.1891 -0.6322
  591MOL0     C79668   2.108   2.918   7.089 -0.2975  0.0238  1.2285
  591MOL0     C79669   2.033   2.906   6.972 -0.8444  0.1765 -0.2283
  591MOL0     C79670   1.924   2.992   6.916  1.0687  1.1719  0.3655
  591MOL0     C79671   1.984   3.092   6.809 -0.7276 -0.1588 -0.7468
  591MOL0     C79672   2.036   3.035   6.682 -0.0110  0.5140  0.1681
  591MOL0     C79673   1.949   2.937   6.605 -0.9617  0.8901 -0.1297
  591MOL0     O79674   2.017   2.912   6.482 -0.0545  0.2132 -0.6808
  591MOL0     C79675   1.920   2.862   6.397 -0.0833  0.6070  0.3861
  591MOL0     C79676   1.935   2.731   6.351 -0.0177 -0.8116  0.1670
  591MOL0     C79677   1.850   2.668   6.260 -0.0124 -0.3000  0.0289
  591MOL0     C79678   1.859   2.516   6.240  0.1675 -0.1655  0.4175
  591MOL0     C79679   1.749   2.751   6.193  0.5232  0.0568  0.3082
  591MOL0     C79680   1.670   2.704   6.071 -0.2832 -0.2434 -0.4886
  591MOL0     O79681   1.596   2.802   6.006 -0.2589 -0.1965 -0.2020
  591MOL0     C79682   1.544   2.787   5.880 -0.7105 -0.4858 -0.2573
  591MOL0     C79683   1.607   2.855   5.776 -0.9409 -0.1235  0.2452
  591MOL0     C79684   1.562   2.838   5.653  0.3514 -0.6659  1.6904
  591MOL0     C79685   1.438   2.768   5.632 -0.8139  0.2967 -0.6367
  591MOL0     O79686   1.385   2.770   5.503 -0.5325  1.0740 -0.0270
  591MOL0     C79687   1.272   2.680   5.476  0.3877  0.0792 -0.2273
  591MOL0     C79688   1.249   2.660   5.327  0.5887 -0.3467 -0.7983
  591MOL0     C79689   1.358   2.579   5.276 -1.0008  0.3825 -0.2993
  591MOL0     C79690   1.315   2.525   5.133  0.4306  0.1848 -0.7401
  591MOL0     C79691   1.437   2.460   5.061 -1.2336  0.0721  0.0374
  591MOL0     C79692   1.406   2.412   4.917  0.0450 -0.4985  0.4019
  591MOL0     C79693   1.317   2.284   4.903  0.4013 -0.1251  0.6902
  591MOL0     C79694   1.220   2.298   4.782  0.7048 -0.3359  0.8108
  591MOL0    Cl79695   1.102   2.437   4.806  0.3337  0.0692  0.0827
  591MOL0     C79696   1.377   2.708   5.744  0.0931  0.3681  1.1403
  591MOL0     C79697   1.436   2.712   5.864 -0.1059  0.3499 -0.1291
  591MOL0     O79698   1.681   2.589   6.028  0.3292  0.2812 -0.0202
  591MOL0     C79699   1.742   2.882   6.243 -0.5378 -0.0518 -0.4257
  591MOL0     C79700   1.827   2.945   6.336 -0.5828  0.1546  0.7778
  591MOL0     N79701   2.090   2.808   6.899  0.2789 -0.1930  0.2942
  591MOL0     N79702   2.190   2.761   6.959  0.1321  0.3240 -0.4455
  591MOL0     C79703   3.092   3.081   6.869 -0.0503 -0.9468  1.3012
  591MOL0     C79704   3.151   3.199   6.804  0.3959  0.5377  0.3258
  591MOL0     C79705   3.362   3.609   6.786  0.3916 -0.1063 -0.7122
  591MOL0     C79706   3.330   3.713   6.699  0.1991 -0.5491 -0.5336
  591MOL0     C79707   3.415   3.826   6.680 -0.3933 -0.4940 -0.2411
  591MOL0     C79708   3.533   3.830   6.757  0.8097 -0.3166  0.1906
  591MOL0     O79709   3.623   3.932   6.754 -0.4316 -0.6793 -0.1790
  591MOL0     C79710   3.581   4.056   6.687 -0.2220 -0.4401  0.6942
  591MOL0     C79711   3.688   4.157   6.710 -0.2473 -0.8712 -0.3405
  591MOL0     C79712   3.702   4.184   6.860  0.3317 -0.0711 -0.2072
  591MOL0     C79713   3.645   4.324   6.910 -0.1683  0.2700 -0.0744
  591MOL0     C79714   3.506   4.340   6.853 -0.3274  0.5544  0.3820
  591MOL0     C79715   3.390   4.334   6.818  0.0211  0.2456 -0.1368
  591MOL0     C79716   3.572   3.725   6.838  0.5579 -0.6118 -0.0568
  591MOL0     C79717   3.486   3.614   6.853  0.0794 -0.2157 -0.2801
  591MOL0     H79718   3.398   3.275   7.020 -0.5950  2.4193 -2.6173
  591MOL0     H79719   3.320   3.073   7.131  1.4444  0.9373 -0.1152
  591MOL0     H79720   3.202   2.924   7.226  0.5286  3.0035 -3.0181
  591MOL0     H79721   3.043   2.997   7.230 -1.5392 -0.4323  0.9043
  591MOL0     H79722   3.103   2.697   7.195  0.3770  0.9511 -1.2914
  591MOL0     H79723   3.055   2.780   7.342  0.0136  1.3643 -0.3758
  591MOL0     H79724   2.888   2.774   7.089  1.1205  0.5724 -0.0875
  591MOL0     H79725   2.868   2.672   7.238 -0.8303  0.7301  1.4353
  591MOL0     H79726   2.779   2.868   7.362 -3.9681  0.9293  0.0170
  591MOL0     H79727   2.806   2.969   7.213 -0.4977 -0.8932 -2.6178
  591MOL0     H79728   2.649   2.823   7.098  0.5006 -1.1002 -0.6754
  591MOL0     H79729   2.607   2.723   7.231  1.9577 -0.4600  0.0631
  591MOL0     H79730   2.506   2.894   7.377 -0.0531  0.4600  0.6050
  591MOL0     H79731   2.563   3.029   7.285 -3.1523  0.9785 -2.1724
  591MOL0     H79732   2.341   2.998   7.239  0.5617 -1.9956  4.0458
  591MOL0     H79733   2.432   2.966   7.095  0.6471 -0.0509  0.6087
  591MOL0     H79734   2.271   2.758   7.264 -0.9873 -2.9903 -1.2164
  591MOL0     H79735   2.379   2.704   7.137  1.6266  0.7310 -0.3653
  591MOL0     H79736   2.089   2.995   7.163 -1.6246  0.3052  0.6332
  591MOL0     H79737   1.858   2.922   6.866  1.1340  0.8839  0.6814
  591MOL0     H79738   1.869   3.041   6.998 -1.0616 -1.3554  0.5566
  591MOL0     H79739   2.066   3.145   6.859  1.1647 -2.4808 -1.1991
  591MOL0     H79740   1.904   3.159   6.776 -0.3400 -0.1909 -1.7955
  591MOL0     H79741   2.138   3.001   6.702  0.2909 -0.0260 -2.0338
  591MOL0     H79742   2.054   3.121   6.617  0.4785 -1.8808 -3.1569
  591MOL0     H79743   1.846   2.967   6.586 -1.2389 -1.0120 -2.0293
  591MOL0     H79744   1.944   2.838   6.652  1.9461 -0.8526 -3.0572
  591MOL0     H79745   2.016   2.677   6.398  0.4911  1.6564  2.3774
  591MOL0     H79746   1.936   2.482   6.310 -0.1387 -0.2550  0.7098
  591MOL0     H79747   1.762   2.476   6.271  0.0913  0.3454  0.8527
  591MOL0     H79748   1.887   2.492   6.137  0.9948 -0.4024  0.6883
  591MOL0     H79749   1.699   2.909   5.798 -1.2961  0.0565  1.3566
  591MOL0     H79750   1.603   2.862   5.556  2.0140  0.8227  2.7080
  591MOL0     H79751   1.288   2.580   5.519 -2.9254 -1.0693 -1.3977
  591MOL0     H79752   1.184   2.727   5.519  0.3404 -1.0861  1.0528
  591MOL0     H79753   1.151   2.615   5.308 -0.4051 -0.4690  3.5233
  591MOL0     H79754   1.253   2.757   5.277 -1.1807  0.4896  0.5790
  591MOL0     H79755   1.383   2.494   5.341 -2.1880  1.4491  1.6381
  591MOL0     H79756   1.449   2.639   5.274 -0.9235  0.2570 -2.4746
  591MOL0     H79757   1.234   2.452   5.140  1.0116 -0.4751 -0.7520
  591MOL0     H79758   1.272   2.609   5.078 -1.0312  0.6963  1.0557
  591MOL0     H79759   1.476   2.373   5.116 -1.3227 -0.5828 -0.9079
  591MOL0     H79760   1.523   2.527   5.065 -0.1735 -1.2786  2.2111
  591MOL0     H79761   1.355   2.499   4.873 -0.2969 -1.1394 -0.4997
  591MOL0     H79762   1.497   2.405   4.857 -0.7316  0.2751 -0.9413
  591MOL0     H79763   1.259   2.276   4.996 -1.5943 -0.4259 -0.5207
  591MOL0     H79764   1.377   2.192   4.900  0.3537 -0.1271 -0.5542
  591MOL0     H79765   1.164   2.206   4.767  2.2346 -0.6937 -5.1388
  591MOL0     H79766   1.291   2.300   4.699  2.0079 -1.2297  1.8412
  591MOL0     H79767   1.278   2.664   5.749  0.4368 -1.5211 -3.3128
  591MOL0     H79768   1.387   2.657   5.943  0.1176 -0.1563 -0.3378
  591MOL0     H79769   1.681   2.953   6.188  1.1216  1.5854 -0.2150
  591MOL0     H79770   1.833   3.052   6.352  0.8514  0.8732 -3.4060
  591MOL0     H79771   3.017   3.020   6.819 -1.1605  1.2480  0.1493
  591MOL0     H79772   3.113   3.232   6.708 -1.1248  0.0440  0.7313
  591MOL0     H79773   3.238   3.714   6.641 -0.1578  2.1642 -0.0720
  591MOL0     H79774   3.385   3.902   6.609  0.6323  1.0355  0.8977
  591MOL0     H79775   3.584   4.028   6.582  0.0989  0.6671  0.3975
  591MOL0     H79776   3.482   4.092   6.717 -1.2889  0.4611 -3.3802
  591MOL0     H79777   3.680   4.236   6.635  2.1693 -0.7290 -0.5181
  591MOL0     H79778   3.784   4.111   6.683 -0.8754 -1.3299 -1.9013
  591MOL0     H79779   3.807   4.180   6.888 -0.1254 -1.7202  1.4860
  591MOL0     H79780   3.653   4.103   6.915 -0.0188  1.6530  2.1957
  591MOL0     H79781   3.695   4.410   6.864 -2.3113 -0.3717 -4.0194
  591MOL0     H79782   3.651   4.330   7.019 -0.5297 -2.4832  0.1676
  591MOL0     H79783   3.283   4.343   6.808  0.3374  3.2063 -1.9660
  591MOL0     H79784   3.667   3.737   6.889 -0.2508  2.8402  0.8969
  591MOL0     H79785   3.513   3.533   6.920  1.7787  0.8712  0.4168
  592MOL0     O79786   7.993   5.577   4.722  0.0969 -0.2472  0.0559
  592MOL0     C79787   7.967   5.487   4.797 -0.2472 -0.2290  0.4331
  592MOL0     O79788   7.871   5.479   4.896 -0.2651  0.3909  0.0020
  592MOL0     C79789   7.804   5.600   4.926 -0.1298  0.3568 -0.1507
  592MOL0     C79790   7.713   5.669   4.843 -0.7353 -0.1158  0.4457
  592MOL0     C79791   7.646   5.783   4.880 -0.7831  0.0411  0.2059
  592MOL0     C79792   7.655   5.830   5.011  0.1851  0.8636 -0.1627
  592MOL0     O79793   7.579   5.943   5.033  0.2899  0.5777  0.7196
  592MOL0     C79794   7.598   6.006   5.158 -0.3062  0.2238 -0.0394
  592MOL0     C79795   7.527   6.143   5.165  0.2664  0.3575  0.0085
  592MOL0     C79796   7.387   6.136   5.121  0.1513 -0.0582 -0.3220
  592MOL0     C79797   7.330   6.267   5.115 -0.0176 -0.3487 -0.1905
  592MOL0     C79798   7.321   6.335   4.977  0.6539  0.1671  0.0116
  592MOL0     C79799   7.216   6.451   4.969 -0.6613  0.4967 -0.0052
  592MOL0     C79800   7.244   6.562   5.075  0.3871  0.1177 -0.1337
  592MOL0     C79801   7.149   6.675   5.050  0.0380 -0.9752 -0.4486
  592MOL0     N79802   7.018   6.632   5.080  0.1210  1.0149 -0.2691
  592MOL0     C79803   6.910   6.652   5.002  1.0731 -0.0875  0.1901
  592MOL0     C79804   6.800   6.620   5.071  1.1633  0.0418 -0.6960
  592MOL0     C79805   6.667   6.613   5.008  0.6315 -0.5906 -0.2321
  592MOL0     C79806   6.539   6.639   5.094  0.4310  0.0782  0.9507
  592MOL0     C79807   6.412   6.572   5.039 -0.2564  0.6242  0.6084
  592MOL0     C79808   6.365   6.640   4.912  0.5625 -0.6062 -0.2483
  592MOL0     O79809   6.251   6.572   4.873  0.5089  0.1194 -0.0950
  592MOL0     C79810   6.168   6.607   4.771 -0.2622 -0.3487  0.4852
  592MOL0     C79811   6.041   6.575   4.783  0.2998  0.1252 -0.4991
  592MOL0     C79812   5.938   6.611   4.707 -0.0047 -0.3589 -0.0388
  592MOL0     C79813   5.805   6.577   4.743  0.5678  1.4946 -0.3527
  592MOL0     C79814   5.970   6.685   4.584  0.6536  0.0440  0.3211
  592MOL0     C79815   5.864   6.697   4.471  0.2869 -0.2773 -0.3452
  592MOL0     O79816   5.785   6.591   4.458  0.5943  0.0102  0.0964
  592MOL0     C79817   5.676   6.612   4.371 -0.3778  0.1800 -0.3233
  592MOL0     C79818   5.553   6.614   4.433 -0.5365  0.3052  0.3029
  592MOL0     C79819   5.442   6.604   4.352  0.1597  0.4207 -0.1907
  592MOL0     C79820   5.451   6.587   4.211 -0.1163  0.5370 -1.5094
  592MOL0     O79821   5.336   6.579   4.137  0.2748 -0.5040  0.0810
  592MOL0     C79822   5.348   6.577   3.993  0.0811 -0.2331  0.0576
  592MOL0     C79823   5.221   6.547   3.912  0.6373 -0.0362  0.4539
  592MOL0     C79824   5.091   6.617   3.960  0.1484 -0.1170  0.2829
  592MOL0     C79825   4.985   6.621   3.847  1.1765  0.2494 -0.3059
  592MOL0     C79826   4.835   6.632   3.893 -0.6741  0.0841  0.1135
  592MOL0     C79827   4.806   6.757   3.984  0.2592 -1.3625  0.6612
  592MOL0     C79828   4.687   6.737   4.080 -0.0673  0.1022 -0.0760
  592MOL0     C79829   4.701   6.827   4.207  0.4729  0.4940  0.5845
  592MOL0    Cl79830   4.550   6.847   4.299 -0.3876  0.2115 -0.5159
  592MOL0     C79831   5.585   6.599   4.156 -0.7347  0.5410  0.3892
  592MOL0     C79832   5.694   6.608   4.229 -0.6861  0.2762  0.1972
  592MOL0     O79833   5.839   6.812   4.435 -0.1615 -0.6641  0.2265
  592MOL0     C79834   6.100   6.726   4.563  0.1854 -0.4376  0.5701
  592MOL0     C79835   6.201   6.684   4.651  0.6630  0.1207  0.1930
  592MOL0     N79836   6.846   6.568   5.194 -0.2880  0.4797 -0.6768
  592MOL0     N79837   6.975   6.584   5.203  0.7915 -0.6329  0.6292
  592MOL0     C79838   7.749   5.767   5.097  0.3320 -0.9191  0.4920
  592MOL0     C79839   7.809   5.650   5.055  0.3841 -0.6152  0.0095
  592MOL0     C79840   8.058   5.369   4.776  0.0863 -0.4814 -0.1666
  592MOL0     C79841   8.145   5.358   4.673  0.8384 -0.1429 -0.6455
  592MOL0     C79842   8.217   5.242   4.654  0.0952  0.2975  0.5181
  592MOL0     C79843   8.203   5.133   4.737  0.3752  0.5288  0.1133
  592MOL0     O79844   8.283   5.021   4.703  0.1008 -0.4578  0.5676
  592MOL0     C79845   8.274   4.897   4.773 -0.0954 -0.2745 -0.4795
  592MOL0     C79846   8.396   4.810   4.749  0.3257 -0.3467 -0.7600
  592MOL0     C79847   8.524   4.877   4.792 -0.4334  0.2098  0.1282
  592MOL0     C79848   8.636   4.777   4.771 -0.0864 -0.9475 -0.6518
  592MOL0     C79849   8.643   4.676   4.881  0.1012  0.4542  0.2221
  592MOL0     C79850   8.668   4.592   4.963  0.4759 -0.3120 -0.6660
  592MOL0     C79851   8.118   5.142   4.855 -0.8988  0.3886 -0.2204
  592MOL0     C79852   8.044   5.261   4.872 -0.0615  0.3925  0.2110
  592MOL0     H79853   7.681   5.646   4.741  0.7465  5.1387 -1.5163
  592MOL0     H79854   7.566   5.826   4.820  0.6213  1.1887 -0.8969
  592MOL0     H79855   7.558   5.940   5.236  1.1937  0.7529  1.2304
  592MOL0     H79856   7.704   6.023   5.177  0.6962 -1.5990 -3.2870
  592MOL0     H79857   7.537   6.170   5.270 -2.8491 -1.0827  0.8123
  592MOL0     H79858   7.579   6.209   5.095 -0.8102  1.5107  0.2441
  592MOL0     H79859   7.388   6.093   5.020  1.9983 -0.2670 -0.2558
  592MOL0     H79860   7.314   6.079   5.179 -1.1556  0.8717 -0.9887
  592MOL0     H79861   7.228   6.256   5.153 -0.1156 -0.9656 -0.6121
  592MOL0     H79862   7.372   6.326   5.197  0.9539 -2.1982  0.7097
  592MOL0     H79863   7.419   6.368   4.941  0.7526 -0.1475 -0.0047
  592MOL0     H79864   7.277   6.270   4.901 -3.0832  3.1655 -0.6917
  592MOL0     H79865   7.218   6.494   4.869  0.5460  0.0360 -0.1924
  592MOL0     H79866   7.116   6.413   4.994  0.0606 -5.4504 -4.0681
  592MOL0     H79867   7.224   6.525   5.176 -0.3445  0.9783  0.0599
  592MOL0     H79868   7.350   6.589   5.073  0.0852  1.4143  0.0071
  592MOL0     H79869   7.160   6.705   4.946  0.9981 -1.3831 -0.4754
  592MOL0     H79870   7.190   6.749   5.119 -1.4699 -0.4833 -0.0379
  592MOL0     H79871   6.902   6.697   4.904 -1.7139 -1.4077 -0.3013
  592MOL0     H79872   6.666   6.679   4.921 -0.1100 -0.2639  0.0204
  592MOL0     H79873   6.657   6.511   4.969 -1.7148  0.3630 -2.4564
  592MOL0     H79874   6.503   6.742   5.099  1.0314  0.3989 -0.7789
  592MOL0     H79875   6.561   6.595   5.192  0.5680 -0.9132  0.4836
  592MOL0     H79876   6.327   6.585   5.106 -2.0765 -0.1355 -1.4094
  592MOL0     H79877   6.444   6.467   5.034  1.0153  0.7569  3.6817
  592MOL0     H79878   6.436   6.612   4.834  0.7244  0.0067 -0.3291
  592MOL0     H79879   6.344   6.747   4.916 -2.5441 -1.1191 -0.4632
  592MOL0     H79880   6.018   6.526   4.878  0.7900  0.5179 -0.1686
  592MOL0     H79881   5.786   6.537   4.843 -0.9891 -1.7638 -1.7740
  592MOL0     H79882   5.734   6.658   4.724  0.2649  1.0805 -1.0248
  592MOL0     H79883   5.780   6.491   4.680 -0.5613  0.1724  1.7678
  592MOL0     H79884   5.554   6.623   4.541 -3.5237  1.9887  0.2975
  592MOL0     H79885   5.340   6.617   4.388 -0.1504  0.7996 -1.1698
  592MOL0     H79886   5.385   6.676   3.963 -1.9216  0.6692  0.3995
  592MOL0     H79887   5.425   6.505   3.966  1.3009  0.4159  1.6072
  592MOL0     H79888   5.230   6.594   3.813  0.7374 -0.5438  0.2197
  592MOL0     H79889   5.214   6.439   3.919 -1.5577  0.0826  1.1086
  592MOL0     H79890   5.102   6.723   3.985  0.9612 -0.1859  0.2229
  592MOL0     H79891   5.063   6.549   4.041 -0.0856 -3.2921 -2.2716
  592MOL0     H79892   5.015   6.700   3.778 -1.4521  0.5810 -1.1575
  592MOL0     H79893   4.999   6.533   3.784  0.0295  0.3346 -0.6981
  592MOL0     H79894   4.815   6.539   3.948  0.2547 -1.3909 -1.9323
  592MOL0     H79895   4.755   6.625   3.819 -2.7104  0.4495  2.1648
  592MOL0     H79896   4.892   6.795   4.041  0.3316  0.4862 -0.6005
  592MOL0     H79897   4.774   6.837   3.916 -1.1615  0.4648  3.2569
  592MOL0     H79898   4.678   6.633   4.113 -1.6489  0.3001  0.1803
  592MOL0     H79899   4.595   6.774   4.034 -0.4352  0.9733  1.2998
  592MOL0     H79900   4.721   6.930   4.179  1.9689  0.4245  1.2919
  592MOL0     H79901   4.776   6.776   4.268 -1.6947 -2.1252  1.2641
  592MOL0     H79902   5.601   6.609   4.050 -0.4512  0.4641  0.4236
  592MOL0     H79903   5.792   6.610   4.181  0.8536  1.7987  3.1276
  592MOL0     H79904   6.129   6.788   4.478 -0.5416  0.9390  1.2878
  592MOL0     H79905   6.306   6.706   4.632  0.1588  0.7264 -2.2693
  592MOL0     H79906   7.777   5.809   5.193  0.2010 -0.9799  0.5581
  592MOL0     H79907   7.879   5.608   5.126 -1.2219 -0.0196  2.0375
  592MOL0     H79908   8.149   5.443   4.606  0.7058 -0.4157 -1.0061
  592MOL0     H79909   8.278   5.234   4.565  0.0845 -0.5620  0.5776
  592MOL0     H79910   8.256   4.913   4.880  0.8094  2.0675 -0.6250
  592MOL0     H79911   8.187   4.838   4.742  0.7875 -2.1248  0.4111
  592MOL0     H79912   8.390   4.791   4.642 -2.6574  3.3318 -1.4666
  592MOL0     H79913   8.382   4.714   4.799  2.3347  0.8545  2.4457
  592MOL0     H79914   8.554   4.905   4.894  2.8389  1.5265 -1.0680
  592MOL0     H79915   8.527   4.965   4.728 -0.3730  2.0597  2.5177
  592MOL0     H79916   8.731   4.832   4.777 -1.7054  1.8899  1.8411
  592MOL0     H79917   8.623   4.729   4.674 -2.1730  1.5221 -1.6914
  592MOL0     H79918   8.682   4.518   5.039 -1.5650 -0.0567  0.0340
  592MOL0     H79919   8.099   5.065   4.929  0.0788 -0.2409 -0.6100
  592MOL0     H79920   7.972   5.267   4.953 -1.8259  0.0712 -1.2654
  593MOL0     O79921   8.319   5.663   7.288 -0.2554  0.6283 -0.3633
  593MOL0     C79922   8.368   5.674   7.397 -0.3635 -0.5058  0.0648
  593MOL0     O79923   8.301   5.639   7.515 -0.2606 -0.5867 -0.0034
  593MOL0     C79924   8.184   5.570   7.501 -0.6722  0.0357 -0.0821
  593MOL0     C79925   8.178   5.444   7.451 -0.0979  0.4932 -0.1015
  593MOL0     C79926   8.052   5.384   7.428  0.1383 -0.0430  0.0489
  593MOL0     C79927   7.936   5.451   7.464  0.0625 -0.2534 -0.5323
  593MOL0     O79928   7.817   5.389   7.442 -0.4118 -0.8421 -0.1492
  593MOL0     C79929   7.698   5.462   7.428  0.8337  0.9172  0.2341
  593MOL0     C79930   7.574   5.381   7.397  0.2103  0.4972 -0.4778
  593MOL0     C79931   7.451   5.447   7.447  0.6804 -0.2640  0.2593
  593MOL0     C79932   7.322   5.375   7.396  0.4443  0.1109  0.1140
  593MOL0     C79933   7.199   5.448   7.439 -1.0648  0.0218 -0.7843
  593MOL0     C79934   7.074   5.388   7.373 -0.2369 -0.8629  0.0859
  593MOL0     C79935   6.941   5.442   7.441  0.9244  0.2463  0.3913
  593MOL0     C79936   6.818   5.390   7.365  0.1419  0.2176 -0.4448
  593MOL0     N79937   6.691   5.402   7.432  0.1391 -0.0285  0.1288
  593MOL0     C79938   6.573   5.394   7.358 -0.0755  0.0336  0.2802
  593MOL0     C79939   6.476   5.379   7.451 -0.1078 -0.5676  0.3919
  593MOL0     C79940   6.327   5.368   7.429  0.6192  0.1863  0.4415
  593MOL0     C79941   6.276   5.482   7.340  0.3857  0.6538 -0.0948
  593MOL0     C79942   6.157   5.446   7.255  0.4112 -0.7216 -0.0711
  593MOL0     C79943   6.034   5.406   7.344  0.4133  0.1864 -0.2597
  593MOL0     O79944   5.915   5.423   7.260 -0.1390  0.0098 -0.3517
  593MOL0     C79945   5.832   5.534   7.287 -0.2760  0.2374  0.2701
  593MOL0     C79946   5.767   5.577   7.177  0.8983 -0.5379 -0.2387
  593MOL0     C79947   5.676   5.686   7.186 -0.8569  0.4632 -0.2927
  593MOL0     C79948   5.596   5.723   7.062  0.5126  0.1477  0.0484
  593MOL0     C79949   5.654   5.747   7.317 -0.0849 -0.2460  0.1249
  593MOL0     C79950   5.557   5.856   7.341 -0.5325 -0.1878 -1.2083
  593MOL0     O79951   5.561   5.896   7.474  0.7788 -0.0031 -1.7558
  593MOL0     C79952   5.506   6.008   7.514  0.8506  0.2561 -0.2698
  593MOL0     C79953   5.396   5.986   7.594 -0.1722 -0.5822 -1.0630
  593MOL0     C79954   5.325   6.095   7.652 -0.0637  0.1805 -0.3007
  593MOL0     C79955   5.361   6.229   7.612  0.7187 -0.3546 -0.3429
  593MOL0     O79956   5.310   6.337   7.683  0.2417  0.1683 -0.0828
  593MOL0     C79957   5.295   6.461   7.615  0.2206 -0.5141 -0.0869
  593MOL0     C79958   5.209   6.549   7.699 -0.1626  0.1945  0.1870
  593MOL0     C79959   5.059   6.506   7.730 -0.4304 -0.2391  0.0202
  593MOL0     C79960   4.985   6.586   7.834 -0.3988 -0.0461  0.5963
  593MOL0     C79961   4.837   6.581   7.817 -0.2129 -0.1754  0.0313
  593MOL0     C79962   4.795   6.646   7.953 -0.1166  1.3235 -0.2733
  593MOL0     C79963   4.651   6.696   7.942 -0.3060 -0.0842  0.2059
  593MOL0     C79964   4.591   6.724   8.076 -0.3599 -0.4151 -0.2823
  593MOL0    Cl79965   4.416   6.792   8.063 -0.4922 -0.2028 -0.0726
  593MOL0     C79966   5.471   6.248   7.523 -0.0487 -0.9844 -0.9238
  593MOL0     C79967   5.541   6.134   7.472  0.0944  1.1635 -0.2832
  593MOL0     O79968   5.491   5.913   7.251 -0.4698  0.1921  0.2002
  593MOL0     C79969   5.732   5.697   7.421 -0.2941  0.8029 -1.4295
  593MOL0     C79970   5.816   5.585   7.407  0.2039 -0.1010 -0.2156
  593MOL0     N79971   6.535   5.360   7.579  0.0926 -0.2714 -0.6987
  593MOL0     N79972   6.660   5.396   7.561  0.0108  0.3286 -0.7250
  593MOL0     C79973   7.936   5.577   7.516  0.9140 -0.4560  1.2853
  593MOL0     C79974   8.062   5.634   7.530 -0.4408  0.1223  0.0687
  593MOL0     C79975   8.502   5.736   7.412  0.3552 -0.5657 -0.6326
  593MOL0     C79976   8.530   5.796   7.540  0.3491  0.4042 -0.6780
  593MOL0     C79977   8.658   5.835   7.574  0.5745  0.3907  0.7547
  593MOL0     C79978   8.754   5.840   7.467 -0.4932 -0.6643 -0.4970
  593MOL0     O79979   8.880   5.880   7.487 -0.7132 -0.8145 -0.2152
  593MOL0     C79980   8.914   5.986   7.579 -0.4653  0.1015 -0.2777
  593MOL0     C79981   8.970   5.938   7.715  0.1010 -0.0545 -0.0990
  593MOL0     C79982   9.087   5.842   7.680  0.3872 -0.6104  0.3030
  593MOL0     C79983   9.055   5.701   7.675  0.1756 -0.0053  0.3358
  593MOL0     C79984   9.033   5.658   7.813  0.1787  0.1682 -0.0918
  593MOL0     C79985   9.028   5.616   7.929 -0.5306  0.5692 -0.2145
  593MOL0     C79986   8.724   5.790   7.337  0.5672  0.0001 -0.8576
  593MOL0     C79987   8.598   5.750   7.306  1.4259 -0.6150  0.5121
  593MOL0     H79988   8.269   5.386   7.439  0.4298  0.9648  1.3949
  593MOL0     H79989   8.050   5.276   7.422  2.2014 -0.0465 -1.6200
  593MOL0     H79990   7.683   5.525   7.516  2.7020  4.0496 -1.4820
  593MOL0     H79991   7.699   5.535   7.347  0.2922 -0.4582 -1.0488
  593MOL0     H79992   7.575   5.368   7.288 -0.3439  2.1277 -0.7135
  593MOL0     H79993   7.586   5.289   7.454  1.2568  1.8504  1.6293
  593MOL0     H79994   7.436   5.463   7.554  0.6090  2.6312 -0.1023
  593MOL0     H79995   7.458   5.548   7.405 -0.3219 -0.7102 -1.0291
  593MOL0     H79996   7.318   5.385   7.287  1.2041  1.6927  0.2107
  593MOL0     H79997   7.307   5.272   7.429  0.8476  0.3278  0.9857
  593MOL0     H79998   7.187   5.428   7.546 -0.6308 -0.4368 -0.8130
  593MOL0     H79999   7.202   5.556   7.421  0.7413  0.0427 -0.5151
  593MOL0     H80000   7.072   5.408   7.266 -1.1241  0.1306  0.2778
  593MOL0     H80001   7.087   5.279   7.381  0.9287 -0.6516  1.6411
  593MOL0     H80002   6.940   5.407   7.545  0.3627  0.0119  0.3104
  593MOL0     H80003   6.930   5.551   7.443  1.4484  0.2970  1.7985
  593MOL0     H80004   6.833   5.282   7.356 -2.6619 -0.3069  0.2916
  593MOL0     H80005   6.810   5.441   7.269  3.2301 -0.1454 -0.9810
  593MOL0     H80006   6.566   5.402   7.250  0.8771  0.7752  0.2603
  593MOL0     H80007   6.295   5.271   7.389  0.4961 -0.7857  2.7352
  593MOL0     H80008   6.273   5.364   7.524 -1.0265 -2.2667 -0.4861
  593MOL0     H80009   6.356   5.529   7.283  1.2479  0.2913  0.7690
  593MOL0     H80010   6.242   5.557   7.412 -0.3276  1.3271 -1.1054
  593MOL0     H80011   6.191   5.360   7.196 -0.1075 -0.2566 -1.0740
  593MOL0     H80012   6.131   5.531   7.191 -1.4119 -3.0167 -2.6185
  593MOL0     H80013   6.038   5.446   7.446 -0.6781 -2.6907  1.0554
  593MOL0     H80014   6.050   5.299   7.360  1.8581 -0.0345 -2.7126
  593MOL0     H80015   5.787   5.536   7.079 -1.2629 -1.0130 -0.5266
  593MOL0     H80016   5.490   5.723   7.092  0.8259 -1.9049  1.3597
  593MOL0     H80017   5.614   5.824   7.025 -0.0986  0.4002  0.4119
  593MOL0     H80018   5.625   5.651   6.985  0.8770  0.7589 -0.3937
  593MOL0     H80019   5.362   5.884   7.609 -0.3257 -0.5103 -0.9161
  593MOL0     H80020   5.242   6.066   7.715 -0.1808 -1.1806 -1.0524
  593MOL0     H80021   5.389   6.517   7.607  1.5186 -1.7975  3.9116
  593MOL0     H80022   5.246   6.462   7.517 -0.3700  0.5847  0.1952
  593MOL0     H80023   5.270   6.581   7.785  1.0936  1.2591 -1.0529
  593MOL0     H80024   5.195   6.640   7.641 -0.1171 -0.8581 -1.5226
  593MOL0     H80025   5.058   6.399   7.753 -0.7779 -0.2451 -0.0182
  593MOL0     H80026   5.008   6.521   7.634  0.9956 -0.1811 -0.7574
  593MOL0     H80027   5.009   6.540   7.930 -1.9214 -3.0744 -0.3653
  593MOL0     H80028   5.028   6.687   7.829  1.8294 -0.9344 -4.3676
  593MOL0     H80029   4.799   6.479   7.807 -1.6376  0.3941 -0.5303
  593MOL0     H80030   4.816   6.642   7.729 -0.5503 -0.4216 -0.0601
  593MOL0     H80031   4.807   6.571   8.032 -0.8882  1.1948 -0.2618
  593MOL0     H80032   4.854   6.737   7.966  1.4338  0.1278  1.5292
  593MOL0     H80033   4.585   6.625   7.893  2.3712 -0.8989 -2.5479
  593MOL0     H80034   4.661   6.793   7.893  2.6260 -0.6241 -0.4486
  593MOL0     H80035   4.657   6.800   8.120 -2.6514  1.6406 -0.2150
  593MOL0     H80036   4.593   6.630   8.132  1.6213 -1.9348 -2.6561
  593MOL0     H80037   5.511   6.348   7.511  1.1461 -1.2963  0.1980
  593MOL0     H80038   5.631   6.137   7.411 -0.0330  0.2368 -0.5303
  593MOL0     H80039   5.722   5.722   7.526  1.7247 -2.3299 -0.3575
  593MOL0     H80040   5.871   5.554   7.495  1.3236 -1.0953 -1.2187
  593MOL0     H80041   7.849   5.631   7.552  0.7926 -0.1777  0.5955
  593MOL0     H80042   8.070   5.735   7.569 -2.4956  0.6688 -0.8070
  593MOL0     H80043   8.453   5.780   7.615 -2.9779 -1.8763 -4.1543
  593MOL0     H80044   8.676   5.853   7.680 -1.6038  1.8204  0.9360
  593MOL0     H80045   8.993   6.046   7.533 -2.0186  0.3743 -2.7548
  593MOL0     H80046   8.835   6.060   7.592  0.6825  1.3893 -0.4127
  593MOL0     H80047   8.896   5.885   7.775  1.3981 -0.8843  0.8186
  593MOL0     H80048   9.010   6.021   7.775 -0.6775  0.4786 -0.2950
  593MOL0     H80049   9.173   5.865   7.743  2.6282  2.3336 -3.4113
  593MOL0     H80050   9.128   5.874   7.584 -0.1078  1.9897  0.8836
  593MOL0     H80051   9.133   5.643   7.625 -0.9470  0.3971 -2.0467
  593MOL0     H80052   8.963   5.681   7.619 -1.1004 -0.0666  2.3663
  593MOL0     H80053   9.011   5.567   8.023  4.7158 -0.7473  0.3544
  593MOL0     H80054   8.804   5.796   7.264  2.2372  1.0736  0.9556
  593MOL0     H80055   8.570   5.723   7.205  0.3750  3.7931 -0.6112
  594MOL0     O80056  10.311   6.214   9.899 -0.7163 -0.3103 -0.0540
  594MOL0     C80057  10.308   6.097   9.917  0.7920  0.8522 -0.7077
  594MOL0     O80058  10.188   6.030   9.921  0.2495 -0.0493  0.3061
  594MOL0     C80059  10.069   6.100   9.947 -0.2854 -0.3574 -0.2766
  594MOL0     C80060   9.952   6.032   9.906 -0.3151 -0.7077 -0.1931
  594MOL0     C80061   9.824   6.082   9.950  0.0469 -1.3923  1.0615
  594MOL0     C80062   9.815   6.204  10.029 -0.0465 -0.7914  0.2752
  594MOL0     O80063   9.694   6.236  10.071 -0.1861  0.4707 -0.0605
  594MOL0     C80064   9.674   6.349  10.159 -0.0647 -0.0073  1.1096
  594MOL0     C80065   9.530   6.351  10.204  0.2340 -0.3129 -0.0297
  594MOL0     C80066   9.503   6.238  10.308  0.4792  0.5483  0.5911
  594MOL0     C80067   9.578   6.248  10.445  0.0483 -0.6529 -0.1583
  594MOL0     C80068   9.471   6.260  10.553 -0.2733 -0.1144 -1.2388
  594MOL0     C80069   9.378   6.142  10.582  0.1005  0.5660 -0.5128
  594MOL0     C80070   9.251   6.192  10.669 -0.5023 -0.1483  0.1190
  594MOL0     C80071   9.142   6.080  10.666 -0.4459  0.5755  0.0578
  594MOL0     N80072   9.038   6.084  10.764 -0.1287 -0.5042 -0.3105
  594MOL0     C80073   8.902   6.058  10.736  0.0286 -0.1859  0.0597
  594MOL0     C80074   8.839   6.067  10.858  1.1158  1.0298  0.0429
  594MOL0     C80075   8.687   6.026  10.878  0.3702  0.0515 -0.4252
  594MOL0     C80076   8.664   5.930  10.996 -0.6223 -0.3249 -0.3639
  594MOL0     C80077   8.682   5.782  10.947 -0.6038  0.3805  0.0983
  594MOL0     C80078   8.692   5.679  11.071 -0.0824  1.1009 -0.2174
  594MOL0     O80079   8.570   5.675  11.140 -0.6343 -0.9518 -0.2941
  594MOL0     C80080   8.464   5.613  11.081  0.1003 -0.6709 -0.0260
  594MOL0     C80081   8.338   5.622  11.143 -0.6494 -0.8745  0.1237
  594MOL0     C80082   8.224   5.566  11.095 -0.8238 -0.7358 -0.1334
  594MOL0     C80083   8.100   5.612  11.165 -0.6933  0.1125  0.1862
  594MOL0     C80084   8.236   5.475  10.987 -0.0852 -0.3606  0.1504
  594MOL0     C80085   8.121   5.399  10.929  0.7095  0.0183  0.2970
  594MOL0     O80086   8.136   5.330  10.810 -1.3322 -0.5359  0.2789
  594MOL0     C80087   8.032   5.242  10.794  0.0190  0.2758 -0.1867
  594MOL0     C80088   7.965   5.245  10.668 -0.2687 -0.3693  0.3225
  594MOL0     C80089   7.852   5.167  10.639  0.2115  1.2162  0.0062
  594MOL0     C80090   7.819   5.060  10.730 -0.4299 -0.7765  0.7872
  594MOL0     O80091   7.707   4.987  10.717 -0.5421 -0.6509  0.2241
  594MOL0     C80092   7.670   4.941  10.584  0.1423 -0.3204 -0.2184
  594MOL0     C80093   7.543   4.879  10.613 -0.4067  0.2249 -1.3946
  594MOL0     C80094   7.476   4.813  10.491 -0.0506  0.1001  0.2009
  594MOL0     C80095   7.339   4.756  10.528  0.0056  0.1138 -0.4600
  594MOL0     C80096   7.271   4.704  10.405 -0.0711  0.5199 -1.6166
  594MOL0     C80097   7.136   4.645  10.436  0.3808  0.0595 -0.5391
  594MOL0     C80098   7.035   4.744  10.504  0.7979 -0.1645 -0.2680
  594MOL0     C80099   6.899   4.680  10.546 -1.4036  0.3120 -0.4790
  594MOL0    Cl80100   6.811   4.626  10.400  0.3179  0.2594 -0.1570
  594MOL0     C80101   7.889   5.057  10.849 -0.9965  1.5849  0.6297
  594MOL0     C80102   7.990   5.142  10.884 -0.0831 -0.2870  0.0497
  594MOL0     O80103   8.015   5.414  10.990 -0.3621  0.1310 -0.1361
  594MOL0     C80104   8.353   5.467  10.916 -0.0486  0.0144 -0.0699
  594MOL0     C80105   8.467   5.532  10.969  0.0387  1.1316  0.0353
  594MOL0     N80106   8.936   6.080  10.957 -0.9007 -0.5813  0.7179
  594MOL0     N80107   9.052   6.075  10.899  0.2796 -1.4103 -0.9417
  594MOL0     C80108   9.935   6.270  10.064  0.3668 -0.6346  0.5477
  594MOL0     C80109  10.061   6.212  10.027  0.7764 -0.1021  0.6167
  594MOL0     C80110  10.425   6.008   9.887  0.0929  0.0404 -1.1141
  594MOL0     C80111  10.550   6.062   9.856  0.0482 -0.3179  1.3632
  594MOL0     C80112  10.658   5.976   9.817  0.0774 -0.2086  0.5590
  594MOL0     C80113  10.642   5.840   9.822  0.7588 -0.4895 -0.2340
  594MOL0     O80114  10.752   5.767   9.789 -0.1435  0.5565  0.3307
  594MOL0     C80115  10.738   5.624   9.759 -1.1100 -0.5690  0.1699
  594MOL0     C80116  10.870   5.566   9.702  0.1302  0.9141 -0.2061
  594MOL0     C80117  10.981   5.592   9.799 -0.3356 -0.9295 -0.1799
  594MOL0     C80118  11.121   5.556   9.739  0.1228  0.7925  0.6146
  594MOL0     C80119  11.128   5.407   9.727  0.5460 -1.1059 -0.5129
  594MOL0     C80120  11.146   5.292   9.744 -0.4612  0.1047 -0.2053
  594MOL0     C80121  10.519   5.786   9.853 -0.0974  0.5505 -0.2429
  594MOL0     C80122  10.414   5.873   9.900 -0.1477  0.8598 -0.4765
  594MOL0     H80123   9.957   5.936   9.857 -2.2639 -1.1308  0.3746
  594MOL0     H80124   9.730   6.032   9.929 -0.5406  0.1536 -0.3089
  594MOL0     H80125   9.736   6.349  10.248  1.3958 -2.3296  0.1868
  594MOL0     H80126   9.699   6.436  10.097  0.8257 -1.6032 -0.9023
  594MOL0     H80127   9.520   6.450  10.251  0.5097 -0.6058  0.6570
  594MOL0     H80128   9.459   6.344  10.121 -0.9974  0.2955  0.9303
  594MOL0     H80129   9.396   6.233  10.333 -0.1873 -3.7884 -2.1259
  594MOL0     H80130   9.520   6.139  10.266 -2.1057 -0.7879  2.3763
  594MOL0     H80131   9.633   6.154  10.450 -4.4575 -3.5907  0.7290
  594MOL0     H80132   9.652   6.328  10.450  0.5095 -0.9565 -1.7340
  594MOL0     H80133   9.534   6.284  10.639 -1.4957 -3.9102  0.9400
  594MOL0     H80134   9.411   6.349  10.529  0.6665  1.1117  0.6973
  594MOL0     H80135   9.345   6.100  10.487  0.0235 -0.2750 -0.1191
  594MOL0     H80136   9.431   6.065  10.638  0.4992  1.3447  0.1991
  594MOL0     H80137   9.285   6.205  10.772  1.0165 -1.9101 -0.1221
  594MOL0     H80138   9.212   6.290  10.637 -0.7920 -0.2631  0.1231
  594MOL0     H80139   9.199   5.987  10.675 -0.7364  0.0638 -2.5136
  594MOL0     H80140   9.101   6.069  10.565  1.0003  1.5350 -0.6679
  594MOL0     H80141   8.860   6.057  10.636  2.3548  0.3657 -0.9951
  594MOL0     H80142   8.640   6.122  10.902  2.2340  0.1046  3.8574
  594MOL0     H80143   8.649   5.985  10.783  0.8025 -1.5676  0.0806
  594MOL0     H80144   8.561   5.947  11.029  0.2851  1.4769  1.8671
  594MOL0     H80145   8.727   5.940  11.085  0.4761 -3.6488 -0.6329
  594MOL0     H80146   8.773   5.765  10.888 -1.3660 -2.7648 -0.3730
  594MOL0     H80147   8.602   5.762  10.874 -0.6646  0.4844  0.1367
  594MOL0     H80148   8.771   5.716  11.137 -1.3459 -0.0634  2.0757
  594MOL0     H80149   8.733   5.583  11.039  3.5563  2.4525 -0.1158
  594MOL0     H80150   8.330   5.688  11.229  0.4325  0.5931 -0.8711
  594MOL0     H80151   8.118   5.687  11.243  3.0939 -1.7787  1.4249
  594MOL0     H80152   8.032   5.652  11.090 -1.2226  0.7671  0.9994
  594MOL0     H80153   8.053   5.531  11.222 -3.4661  2.6682  1.8076
  594MOL0     H80154   7.995   5.324  10.599  2.3618  0.9330  2.7594
  594MOL0     H80155   7.793   5.188  10.549  1.1560 -2.6104 -1.7004
  594MOL0     H80156   7.659   5.013  10.503 -2.3911  3.2444  2.9291
  594MOL0     H80157   7.755   4.875  10.564  2.7903  2.0733  2.2168
  594MOL0     H80158   7.565   4.809  10.694 -2.7146 -0.9268 -1.6838
  594MOL0     H80159   7.465   4.951  10.641 -1.0095  0.1901 -2.9164
  594MOL0     H80160   7.552   4.738  10.463 -0.1764 -0.6545  1.7590
  594MOL0     H80161   7.464   4.892  10.417 -0.6875  0.8192  1.0602
  594MOL0     H80162   7.357   4.668  10.591  0.9282 -0.5052 -1.5429
  594MOL0     H80163   7.275   4.830  10.576 -2.0610 -2.0356  0.2691
  594MOL0     H80164   7.324   4.624  10.354  3.0260  1.0254  0.5328
  594MOL0     H80165   7.253   4.789  10.338 -2.2335  1.8824  0.4920
  594MOL0     H80166   7.091   4.603  10.346  0.3391 -3.4543  0.9457
  594MOL0     H80167   7.144   4.558  10.501 -0.4381 -0.3985 -1.0303
  594MOL0     H80168   7.004   4.823  10.434 -2.9642 -0.7646  0.5215
  594MOL0     H80169   7.067   4.791  10.598  1.7619 -3.2410  1.0559
  594MOL0     H80170   6.845   4.754  10.605  0.0803  0.4143  0.7934
  594MOL0     H80171   6.903   4.606  10.626 -0.9250  0.4957 -0.3325
  594MOL0     H80172   7.852   4.993  10.929 -2.0370 -0.0054 -1.0524
  594MOL0     H80173   8.044   5.142  10.978  0.5139 -2.6764 -0.2204
  594MOL0     H80174   8.362   5.406  10.827 -1.3315  0.9389 -0.8625
  594MOL0     H80175   8.561   5.515  10.917 -1.5596 -0.4406 -2.5734
  594MOL0     H80176   9.942   6.357  10.129  5.1794 -0.2992 -0.0564
  594MOL0     H80177  10.149   6.253  10.076  0.7405 -0.9766  1.4384
  594MOL0     H80178  10.557   6.171   9.852 -0.8318 -0.2723 -1.8463
  594MOL0     H80179  10.754   6.007   9.777 -0.9924  3.2312  0.2843
  594MOL0     H80180  10.719   5.573   9.854 -0.2084 -0.8887  0.1888
  594MOL0     H80181  10.666   5.605   9.679  0.0335  0.3910 -1.1312
  594MOL0     H80182  10.889   5.618   9.607 -2.6941  2.9448  0.2116
  594MOL0     H80183  10.856   5.459   9.683 -0.5881  1.0612 -0.5312
  594MOL0     H80184  10.951   5.529   9.883 -0.6284  0.8327  1.0975
  594MOL0     H80185  10.981   5.697   9.829 -0.6653 -0.9215 -0.2085
  594MOL0     H80186  11.209   5.580   9.800  0.1282 -1.4082  1.5417
  594MOL0     H80187  11.130   5.591   9.636  4.5555 -1.9659 -0.1654
  594MOL0     H80188  11.167   5.188   9.755  0.3603  0.2934  0.0982
  594MOL0     H80189  10.503   5.680   9.867  2.9570  0.2053  1.5451
  594MOL0     H80190  10.317   5.843   9.938 -0.0042  1.3335  0.2817
  595MOL0     O80191   4.055   2.266   7.239 -0.1731 -0.3214 -0.4087
  595MOL0     C80192   4.145   2.336   7.207 -0.0776 -1.0686  0.4283
  595MOL0     O80193   4.129   2.465   7.166  0.1107 -0.3271 -0.3997
  595MOL0     C80194   4.007   2.523   7.131  0.3258 -0.5302  0.0329
  595MOL0     C80195   3.878   2.472   7.143  0.1609  0.4264  0.2720
  595MOL0     C80196   3.770   2.544   7.104  0.6020 -0.3075  0.8296
  595MOL0     C80197   3.788   2.675   7.047  0.4896  0.5342  0.7621
  595MOL0     O80198   3.678   2.751   7.017 -0.0780  0.8448  0.0206
  595MOL0     C80199   3.548   2.701   6.968  0.0325 -0.4482  0.4014
  595MOL0     C80200   3.461   2.812   6.914 -0.7227 -0.3306  0.3892
  595MOL0     C80201   3.489   2.846   6.772  0.3558  0.1465 -0.0499
  595MOL0     C80202   3.412   2.969   6.722 -0.6981 -0.7163  1.0345
  595MOL0     C80203   3.456   3.012   6.574  0.5700  0.1677 -0.5487
  595MOL0     C80204   3.348   3.107   6.514 -1.0558  0.2449 -0.2777
  595MOL0     C80205   3.376   3.162   6.375  0.5165 -0.6842  0.2158
  595MOL0     C80206   3.275   3.263   6.334  0.1739 -0.7689  0.3116
  595MOL0     N80207   3.132   3.240   6.363 -0.0810  0.2022 -0.7175
  595MOL0     C80208   3.047   3.157   6.291  0.5747  0.3941  0.1835
  595MOL0     C80209   2.926   3.177   6.349  0.6376  0.1551 -0.7487
  595MOL0     C80210   2.803   3.089   6.326 -0.0979  0.2062  0.4326
  595MOL0     C80211   2.675   3.144   6.372  0.0576 -0.0941  0.0478
  595MOL0     C80212   2.645   3.266   6.288  0.0826  0.6622 -0.1509
  595MOL0     C80213   2.498   3.287   6.291 -0.3897 -0.4457  0.0369
  595MOL0     O80214   2.425   3.176   6.241  0.1913 -0.0050  0.5944
  595MOL0     C80215   2.297   3.207   6.212 -0.1083 -0.2165  0.5125
  595MOL0     C80216   2.205   3.264   6.306  0.6352  0.2570 -0.4637
  595MOL0     C80217   2.066   3.279   6.270 -0.4767  0.8607 -0.6864
  595MOL0     C80218   1.973   3.341   6.375 -0.0633  0.3157 -0.5299
  595MOL0     C80219   2.017   3.246   6.144  0.4285  0.2901 -0.9238
  595MOL0     C80220   1.879   3.266   6.098 -0.2915 -0.3551 -0.7159
  595MOL0     O80221   1.872   3.353   5.992  0.9195  0.1077  0.3137
  595MOL0     C80222   1.761   3.360   5.911 -0.0931  0.2203  0.0142
  595MOL0     C80223   1.649   3.273   5.905 -0.3335 -0.4554  0.0972
  595MOL0     C80224   1.552   3.299   5.805  0.0255  0.5758  0.2520
  595MOL0     C80225   1.556   3.411   5.725  0.0805  0.5039  0.1820
  595MOL0     O80226   1.453   3.443   5.640  0.6382  0.8569  0.3509
  595MOL0     C80227   1.312   3.438   5.689  0.3752  0.6202 -0.0852
  595MOL0     C80228   1.215   3.490   5.583  0.5025  0.6433  0.1834
  595MOL0     C80229   1.087   3.547   5.642  0.2690 -0.0831  0.0031
  595MOL0     C80230   1.002   3.586   5.518 -0.4645  0.6588 -0.1114
  595MOL0     C80231   0.851   3.623   5.555  0.5489 -0.4694  0.0612
  595MOL0     C80232   0.839   3.749   5.639  0.6702  0.0537  1.3040
  595MOL0     C80233   0.696   3.781   5.681 -0.5118  0.4810 -0.4524
  595MOL0     C80234   0.695   3.932   5.730  0.9258  0.0841 -0.0666
  595MOL0    Cl80235   0.539   3.987   5.813  0.2788  0.0472 -0.3634
  595MOL0     C80236   1.665   3.489   5.726  0.3468 -0.9064 -0.3603
  595MOL0     C80237   1.777   3.465   5.815  0.6439  0.2253 -0.4207
  595MOL0     O80238   1.783   3.220   6.155  0.0539 -0.3036 -0.8875
  595MOL0     C80239   2.106   3.186   6.055 -0.1346 -0.1091  0.3080
  595MOL0     C80240   2.245   3.167   6.085 -0.5946 -0.2320 -0.4658
  595MOL0     N80241   2.939   3.277   6.447  0.0233 -0.2267  0.1330
  595MOL0     N80242   3.058   3.317   6.450  0.1409 -0.4220  0.2375
  595MOL0     C80243   3.913   2.723   7.029 -0.9935 -0.6080  0.6166
  595MOL0     C80244   4.025   2.644   7.069 -0.4608  0.4622  0.4939
  595MOL0     C80245   4.282   2.285   7.191  0.0323 -0.2797 -0.1160
  595MOL0     C80246   4.379   2.353   7.110 -0.3907  0.8893  0.5133
  595MOL0     C80247   4.494   2.295   7.085 -0.2188  0.1131 -0.0676
  595MOL0     C80248   4.527   2.168   7.145 -1.2555 -0.8255 -0.2565
  595MOL0     O80249   4.648   2.125   7.121 -0.8496 -0.3096  0.1380
  595MOL0     C80250   4.714   2.074   7.231  0.5515  0.4400  0.0294
  595MOL0     C80251   4.856   2.114   7.217 -0.2235 -0.2520  0.5995
  595MOL0     C80252   4.936   2.011   7.128  0.2235 -1.6574 -0.3180
  595MOL0     C80253   5.026   1.932   7.221 -0.2141 -0.5643 -0.1256
  595MOL0     C80254   4.965   1.868   7.336  0.1998 -0.3535 -0.0293
  595MOL0     C80255   4.924   1.812   7.437  0.0815 -0.4387 -0.2529
  595MOL0     C80256   4.434   2.099   7.220  0.3682  0.6272 -0.3615
  595MOL0     C80257   4.313   2.165   7.251  1.0663 -0.3097  0.5685
  595MOL0     H80258   3.860   2.368   7.170 -1.0112  0.4514 -0.3316
  595MOL0     H80259   3.673   2.495   7.108 -0.1041  0.5145 -2.5166
  595MOL0     H80260   3.572   2.617   6.902  1.2524 -0.7665  1.2135
  595MOL0     H80261   3.481   2.659   7.044 -2.1034  2.0347  0.0264
  595MOL0     H80262   3.358   2.777   6.917 -0.5291 -0.8968  0.5058
  595MOL0     H80263   3.471   2.903   6.973  0.6406 -0.7892  0.9059
  595MOL0     H80264   3.597   2.864   6.771  0.6035 -1.2111 -0.2516
  595MOL0     H80265   3.458   2.764   6.705  1.5619  0.3851 -0.9393
  595MOL0     H80266   3.304   2.958   6.732 -1.3726  4.7066  3.4853
  595MOL0     H80267   3.442   3.060   6.776 -1.0933 -1.0663  1.8606
  595MOL0     H80268   3.555   3.059   6.570  2.2970 -2.7936  2.1440
  595MOL0     H80269   3.450   2.920   6.517 -2.8332  0.1228 -0.3205
  595MOL0     H80270   3.250   3.059   6.502 -1.0937 -0.0370  1.0306
  595MOL0     H80271   3.339   3.185   6.590 -0.2329 -1.8349  2.0858
  595MOL0     H80272   3.473   3.212   6.369 -0.0552  0.2509 -2.7683
  595MOL0     H80273   3.379   3.076   6.307  0.4215 -1.3041  0.9798
  595MOL0     H80274   3.290   3.289   6.229 -0.1622 -0.8886  0.2347
  595MOL0     H80275   3.290   3.351   6.398  1.2601 -0.9644  0.3555
  595MOL0     H80276   3.062   3.089   6.208 -0.6958  0.6771 -0.2980
  595MOL0     H80277   2.781   3.070   6.221 -2.5369 -0.5101  1.0171
  595MOL0     H80278   2.814   2.988   6.365 -1.4104 -0.6752 -1.3628
  595MOL0     H80279   2.675   3.169   6.478 -2.7646  0.2379  0.0610
  595MOL0     H80280   2.595   3.070   6.365 -0.5412  0.5286  0.1677
  595MOL0     H80281   2.681   3.260   6.185 -0.4377  4.7778 -0.7403
  595MOL0     H80282   2.693   3.352   6.336  3.4810 -0.9949 -0.2807
  595MOL0     H80283   2.464   3.369   6.226  2.1587  2.2572  1.8526
  595MOL0     H80284   2.480   3.316   6.395 -1.0142  1.2108 -0.4976
  595MOL0     H80285   2.248   3.299   6.399  1.1173  1.4814 -1.1328
  595MOL0     H80286   1.981   3.449   6.363 -1.4308  0.3278 -1.5524
  595MOL0     H80287   1.867   3.315   6.365  0.4421 -0.8913 -3.9056
  595MOL0     H80288   2.011   3.300   6.469  1.4231 -3.3928 -2.5017
  595MOL0     H80289   1.639   3.190   5.974 -0.6700  2.7484  4.2997
  595MOL0     H80290   1.466   3.233   5.807  1.1054 -0.8861  0.0428
  595MOL0     H80291   1.276   3.341   5.725  0.1242  0.8544  0.3000
  595MOL0     H80292   1.305   3.501   5.779 -3.1490  3.5168 -2.1036
  595MOL0     H80293   1.268   3.567   5.527 -1.7075  1.8798 -0.3416
  595MOL0     H80294   1.196   3.414   5.507 -0.3322  0.7157  0.3106
  595MOL0     H80295   1.106   3.634   5.706  1.3720 -0.7734  0.6482
  595MOL0     H80296   1.052   3.466   5.707  1.7008 -2.4535 -2.0150
  595MOL0     H80297   1.040   3.672   5.462  1.9114  1.5198  2.6366
  595MOL0     H80298   0.980   3.504   5.449 -2.0449  0.0879  1.0232
  595MOL0     H80299   0.809   3.541   5.615 -0.1490  0.2929  0.6555
  595MOL0     H80300   0.798   3.625   5.460 -0.1025  0.8322  0.4281
  595MOL0     H80301   0.890   3.735   5.735  0.9942  0.0566  1.1347
  595MOL0     H80302   0.884   3.827   5.576 -2.2846  0.9521  0.1299
  595MOL0     H80303   0.662   3.709   5.756 -1.8570  0.5655 -0.9627
  595MOL0     H80304   0.638   3.775   5.589 -1.3242 -2.8641  0.1550
  595MOL0     H80305   0.732   3.997   5.651  1.1383 -0.3965 -0.3702
  595MOL0     H80306   0.768   3.926   5.811 -0.5413  0.0909  1.3174
  595MOL0     H80307   1.671   3.568   5.652  0.6067  2.5532  3.0231
  595MOL0     H80308   1.860   3.536   5.815 -1.2570  2.5719  0.3208
  595MOL0     H80309   2.072   3.168   5.953  2.5006  0.5287 -0.7625
  595MOL0     H80310   2.313   3.141   6.005  0.0370 -2.1825  0.6438
  595MOL0     H80311   3.929   2.826   6.997  2.0152 -0.7582  1.3562
  595MOL0     H80312   4.127   2.679   7.058  0.3143 -2.0262 -1.0589
  595MOL0     H80313   4.350   2.445   7.060 -0.3909 -1.0466 -3.4645
  595MOL0     H80314   4.559   2.353   7.020  0.4061 -2.5303 -1.9929
  595MOL0     H80315   4.675   2.118   7.323  0.1408  0.6523 -0.2421
  595MOL0     H80316   4.710   1.965   7.231  1.0032  0.4189  0.6521
  595MOL0     H80317   4.906   2.120   7.314  2.3607 -1.5531 -0.5209
  595MOL0     H80318   4.853   2.213   7.170 -4.0587 -0.5623 -0.0725
  595MOL0     H80319   4.998   2.064   7.055  2.1495 -0.9380  1.7357
  595MOL0     H80320   4.875   1.940   7.071  0.3170 -2.9257  1.0706
  595MOL0     H80321   5.100   2.005   7.255 -0.6911 -0.0422 -0.1837
  595MOL0     H80322   5.074   1.853   7.164 -0.0777 -0.3196 -0.3525
  595MOL0     H80323   4.873   1.766   7.519 -0.6175  0.0959 -0.3696
  595MOL0     H80324   4.465   2.004   7.263  1.0998  1.8275  1.9416
  595MOL0     H80325   4.241   2.113   7.314  0.4540 -1.5522 -1.0916
  596MOL0     O80326   9.024   0.410  10.992 -0.5793  0.4782 -0.0725
  596MOL0     C80327   9.000   0.318  10.917  0.5111 -0.3706 -0.3982
  596MOL0     O80328   8.883   0.259  10.893 -0.8980 -0.0889  1.1814
  596MOL0     C80329   8.757   0.319  10.923 -0.4134 -0.5304 -0.3354
  596MOL0     C80330   8.648   0.267  10.845 -0.6768  0.8308  0.2069
  596MOL0     C80331   8.520   0.313  10.863 -0.1622  0.2970  0.4790
  596MOL0     C80332   8.493   0.411  10.963 -0.6640  0.3938  0.1192
  596MOL0     O80333   8.371   0.475  10.984 -0.3258 -0.7132 -0.9712
  596MOL0     C80334   8.254   0.392  10.993  0.4649  1.0758  0.3284
  596MOL0     C80335   8.152   0.459  11.080 -0.0308  0.3044 -0.8364
  596MOL0     C80336   8.037   0.365  11.112 -0.6364 -0.0505 -0.2561
  596MOL0     C80337   7.917   0.457  11.141 -0.9259  0.9766  0.1359
  596MOL0     C80338   7.806   0.362  11.186 -0.4976 -0.0472 -0.1333
  596MOL0     C80339   7.684   0.447  11.218  0.4579  1.0434 -0.1852
  596MOL0     C80340   7.557   0.366  11.208  0.4985 -0.5720 -0.4824
  596MOL0     C80341   7.485   0.389  11.070 -0.9425  0.7430 -0.6108
  596MOL0     N80342   7.541   0.316  10.956  0.6529  0.2031  0.5737
  596MOL0     C80343   7.610   0.380  10.859  0.6035  0.0122 -0.5424
  596MOL0     C80344   7.669   0.283  10.789  0.1293 -1.1406 -0.6717
  596MOL0     C80345   7.788   0.311  10.698  0.0095 -0.5358  0.9000
  596MOL0     C80346   7.847   0.190  10.624  0.1221 -0.0185 -0.0410
  596MOL0     C80347   7.979   0.212  10.555  0.0733  1.1247  0.5347
  596MOL0     C80348   8.095   0.171  10.644 -0.0466 -0.7016  0.3174
  596MOL0     O80349   8.219   0.216  10.587  0.2533 -0.0293 -0.6367
  596MOL0     C80350   8.323   0.132  10.612 -0.6179 -0.8694 -0.4920
  596MOL0     C80351   8.350   0.031  10.709 -0.2782 -0.1443 -0.6937
  596MOL0     C80352   8.465  -0.042  10.719  0.2116  0.5996 -0.4795
  596MOL0     C80353   8.494  -0.146  10.824  0.4166 -0.7282 -0.1850
  596MOL0     C80354   8.573  -0.001  10.640  0.6867  0.8096 -0.0748
  596MOL0     C80355   8.697  -0.078  10.635 -0.8485 -0.9005  0.3089
  596MOL0     O80356   8.804   0.003  10.606 -0.3157 -0.7537  0.0920
  596MOL0     C80357   8.922  -0.059  10.560  0.3584 -0.0201  0.3976
  596MOL0     C80358   9.001   0.023  10.482  0.4347 -0.2112 -0.3709
  596MOL0     C80359   9.118  -0.022  10.419 -0.0014 -0.1737 -0.9492
  596MOL0     C80360   9.160  -0.152  10.443  0.4190  0.6084 -0.6635
  596MOL0     O80361   9.256  -0.213  10.363 -0.3035  0.3314 -0.1502
  596MOL0     C80362   9.382  -0.134  10.348 -0.1150  0.9708  0.2914
  596MOL0     C80363   9.473  -0.218  10.254 -1.4121  0.1371 -0.0767
  596MOL0     C80364   9.602  -0.153  10.198  0.7394 -0.3524  0.0954
  596MOL0     C80365   9.706  -0.255  10.161 -0.2193  0.4661  0.3559
  596MOL0     C80366   9.826  -0.194  10.103  0.4793  0.3346 -0.8107
  596MOL0     C80367   9.935  -0.290  10.042 -0.2671 -0.5460  0.7424
  596MOL0     C80368  10.024  -0.205   9.952 -0.6286  0.3310  0.5075
  596MOL0     C80369  10.148  -0.281   9.913  0.3930  0.7048  0.5765
  596MOL0    Cl80370  10.242  -0.207   9.770  0.1969 -0.4830 -0.6528
  596MOL0     C80371   9.092  -0.226  10.534 -0.7246  0.1512 -0.6126
  596MOL0     C80372   8.976  -0.189  10.586 -0.5677  0.2509  0.8549
  596MOL0     O80373   8.701  -0.197  10.647  0.3609 -0.0235  0.1190
  596MOL0     C80374   8.547   0.093  10.545 -0.2538  0.2653 -0.1816
  596MOL0     C80375   8.426   0.150  10.526 -0.4702 -0.2936  0.3228
  596MOL0     N80376   7.618   0.166  10.830  0.3953 -0.1865 -0.4472
  596MOL0     N80377   7.549   0.180  10.940  0.6046  0.9748 -0.0926
  596MOL0     C80378   8.604   0.454  11.042  0.4530  0.0639 -0.2508
  596MOL0     C80379   8.732   0.408  11.025  0.9817  0.1179 -0.4871
  596MOL0     C80380   9.123   0.280  10.855  0.1553 -0.2703 -0.3314
  596MOL0     C80381   9.125   0.153  10.796 -0.5454  0.0766 -0.3555
  596MOL0     C80382   9.234   0.106  10.716 -0.2342 -0.5529 -0.3643
  596MOL0     C80383   9.346   0.195  10.706 -0.2580 -0.3343 -0.8390
  596MOL0     O80384   9.441   0.150  10.612 -0.4222  0.5955 -0.0292
  596MOL0     C80385   9.550   0.226  10.572 -0.9573 -0.6834  0.6553
  596MOL0     C80386   9.632   0.137  10.483  0.9549 -0.5592  0.2571
  596MOL0     C80387   9.740   0.217  10.409  0.0739  0.1112 -0.2633
  596MOL0     C80388   9.849   0.137  10.341  0.4888 -0.8918 -0.1791
  596MOL0     C80389   9.924   0.055  10.439  0.3563  0.4217 -0.5371
  596MOL0     C80390   9.979  -0.007  10.522 -0.0186  0.0850  0.1835
  596MOL0     C80391   9.345   0.320  10.766 -0.6740  0.1185  0.4140
  596MOL0     C80392   9.237   0.359  10.842  0.2129 -0.0749 -0.3096
  596MOL0     H80393   8.667   0.197  10.764 -3.3929 -0.1756  0.3699
  596MOL0     H80394   8.445   0.287  10.789 -1.8828  0.3999  2.1032
  596MOL0     H80395   8.205   0.377  10.896  0.9919 -4.9844  0.5729
  596MOL0     H80396   8.273   0.288  11.022 -0.1754  0.9715  0.3864
  596MOL0     H80397   8.207   0.486  11.171 -1.1616 -1.3645  0.4058
  596MOL0     H80398   8.118   0.557  11.046 -2.4779  0.6542  2.2074
  596MOL0     H80399   8.007   0.304  11.026  2.9424 -2.8918  0.2739
  596MOL0     H80400   8.073   0.298  11.190 -0.3255  0.2050 -0.1753
  596MOL0     H80401   7.940   0.516  11.229 -0.7689 -0.6760  1.2511
  596MOL0     H80402   7.895   0.514  11.050  1.1650  0.2564 -0.8990
  596MOL0     H80403   7.797   0.299  11.097 -0.2797 -0.8289  0.3890
  596MOL0     H80404   7.824   0.291  11.267  0.0737 -0.2895 -0.4684
  596MOL0     H80405   7.694   0.480  11.322 -2.0135 -1.2435  0.8922
  596MOL0     H80406   7.676   0.535  11.153  1.0401  0.8668 -0.5043
  596MOL0     H80407   7.582   0.261  11.224 -0.4475 -0.6589  0.5542
  596MOL0     H80408   7.490   0.404  11.285  1.4577 -0.5588  0.3658
  596MOL0     H80409   7.469   0.495  11.048 -2.5534  0.4988 -0.7066
  596MOL0     H80410   7.385   0.346  11.080  0.0559 -1.1842  3.0077
  596MOL0     H80411   7.625   0.488  10.864 -0.6324  0.2084 -0.7763
  596MOL0     H80412   7.753   0.367  10.612 -2.5160  1.6921  3.1921
  596MOL0     H80413   7.877   0.360  10.740  0.8753 -1.7626  0.5801
  596MOL0     H80414   7.772   0.153  10.554 -0.6056  1.0603  0.1534
  596MOL0     H80415   7.867   0.105  10.690  1.9608  0.9369  0.7021
  596MOL0     H80416   7.989   0.319  10.534 -2.1320  1.4702  1.0537
  596MOL0     H80417   7.985   0.170  10.454 -2.3783  0.7338  0.4953
  596MOL0     H80418   8.102   0.062  10.654  2.2191 -0.7561 -1.1462
  596MOL0     H80419   8.075   0.230  10.733 -1.8212 -0.0916 -0.4316
  596MOL0     H80420   8.269   0.002  10.776 -1.5459  1.1100 -1.6212
  596MOL0     H80421   8.499  -0.243  10.775 -2.4018 -0.6861 -0.7056
  596MOL0     H80422   8.587  -0.125  10.878 -0.1966  0.9431  0.2699
  596MOL0     H80423   8.408  -0.150  10.891  0.2484  1.8763 -0.1503
  596MOL0     H80424   8.966   0.121  10.449  3.0970 -0.0305 -3.1063
  596MOL0     H80425   9.164   0.052  10.354 -1.8182  1.1236 -0.8395
  596MOL0     H80426   9.348  -0.043  10.298  1.1611  1.3929  0.1424
  596MOL0     H80427   9.437  -0.122  10.442 -1.0011 -0.0522  0.9643
  596MOL0     H80428   9.501  -0.311  10.304  0.9381  1.3404  1.0289
  596MOL0     H80429   9.410  -0.253  10.172 -3.0571 -2.2279  2.0191
  596MOL0     H80430   9.640  -0.081  10.272  2.7518 -0.8640 -0.4038
  596MOL0     H80431   9.579  -0.089  10.112 -0.7326 -0.0347  0.6816
  596MOL0     H80432   9.720  -0.309  10.255 -2.0204  1.0002  0.9726
  596MOL0     H80433   9.652  -0.325  10.096 -1.4043 -0.3132  2.0956
  596MOL0     H80434   9.876  -0.123  10.169  2.3141  0.2320 -1.9997
  596MOL0     H80435   9.798  -0.122  10.025 -1.8894  3.5558  2.7134
  596MOL0     H80436   9.994  -0.334  10.123 -1.3889 -2.3599  0.6423
  596MOL0     H80437   9.890  -0.366   9.977 -0.8487 -1.1697  1.8543
  596MOL0     H80438  10.056  -0.111   9.998  2.4028 -1.0567  1.4679
  596MOL0     H80439   9.962  -0.195   9.862 -1.7373  0.3490  1.2537
  596MOL0     H80440  10.122  -0.384   9.887  1.1086  1.1319 -2.0634
  596MOL0     H80441  10.214  -0.287  10.000  1.1170  0.5641  0.0214
  596MOL0     H80442   9.133  -0.322  10.564  0.4168  1.0800  0.9629
  596MOL0     H80443   8.929  -0.252  10.661 -1.7111  3.7168  3.3406
  596MOL0     H80444   8.629   0.114  10.477  0.1858  0.6352  0.4614
  596MOL0     H80445   8.410   0.231  10.455 -0.5360  0.4262  1.1360
  596MOL0     H80446   8.589   0.530  11.118  0.9640  0.1897 -0.2761
  596MOL0     H80447   8.810   0.450  11.088  0.2237 -1.2784  1.4741
  596MOL0     H80448   9.042   0.082  10.799 -1.6510  1.2988 -1.0244
  596MOL0     H80449   9.229   0.015  10.656  2.3755 -0.5692 -0.6613
  596MOL0     H80450   9.519   0.317  10.520  1.3425 -0.4212 -0.3606
  596MOL0     H80451   9.621   0.246  10.653 -0.0451  0.1085 -0.3087
  596MOL0     H80452   9.560   0.094  10.413 -3.7205  1.0293  3.5760
  596MOL0     H80453   9.676   0.062  10.548  1.1550  0.5273  1.4217
  596MOL0     H80454   9.785   0.292  10.475 -3.0137  2.1555 -0.2372
  596MOL0     H80455   9.682   0.263  10.328 -0.4621 -2.1065 -1.2114
  596MOL0     H80456   9.915   0.199  10.279  0.6878 -0.9113  0.0108
  596MOL0     H80457   9.786   0.081  10.272  0.2975  0.7152 -1.3724
  596MOL0     H80458  10.016  -0.067  10.603 -0.8312 -2.1604 -1.0078
  596MOL0     H80459   9.416   0.401  10.749  1.7217 -1.8921  0.2346
  596MOL0     H80460   9.239   0.455  10.893 -0.3310 -2.2393  4.3535
  597MOL0     O80461   4.869   3.463   7.976 -0.6499  0.6638 -0.4274
  597MOL0     C80462   4.910   3.539   8.062  0.5463  0.3195  0.3121
  597MOL0     O80463   4.832   3.646   8.117  0.0899  0.1047 -1.0224
  597MOL0     C80464   4.695   3.655   8.090  0.3575  1.2494  0.3629
  597MOL0     C80465   4.601   3.556   8.093 -0.1752 -0.1580 -0.9911
  597MOL0     C80466   4.464   3.578   8.066 -0.9419 -0.4999  0.1018
  597MOL0     C80467   4.428   3.697   8.009  0.4231  0.3194  0.5773
  597MOL0     O80468   4.301   3.735   7.967  0.0133  0.1662  0.1119
  597MOL0     C80469   4.212   3.629   7.919 -0.1639 -0.4129 -0.4851
  597MOL0     C80470   4.132   3.563   8.042 -0.4166  0.7984  0.4176
  597MOL0     C80471   3.981   3.580   8.040  0.0211 -1.0698 -0.4394
  597MOL0     C80472   3.895   3.519   7.938  0.6680  0.5266  0.9547
  597MOL0     C80473   3.750   3.532   7.951 -0.5265  1.0946 -0.2460
  597MOL0     C80474   3.697   3.672   7.963  0.4175 -0.0908  0.0770
  597MOL0     C80475   3.540   3.683   7.963 -0.0954  0.0462 -0.2674
  597MOL0     C80476   3.467   3.657   7.825  0.6291  0.4015 -0.2125
  597MOL0     N80477   3.320   3.684   7.854  0.2660 -0.0316 -0.5978
  597MOL0     C80478   3.247   3.584   7.907 -1.0047 -0.1795  0.4374
  597MOL0     C80479   3.129   3.643   7.931  0.1540  0.0379  0.4762
  597MOL0     C80480   3.014   3.560   7.978 -0.4849  0.7976  0.1794
  597MOL0     C80481   2.970   3.440   7.894  0.4241  0.1752 -0.1417
  597MOL0     C80482   2.843   3.368   7.943  0.1222 -0.0109  0.0748
  597MOL0     C80483   2.709   3.453   7.922 -0.4173  0.3915  0.2237
  597MOL0     O80484   2.587   3.398   7.983  0.2434 -0.2456  0.1536
  597MOL0     C80485   2.542   3.453   8.101 -0.5634 -0.6714  0.5594
  597MOL0     C80486   2.404   3.461   8.105  0.3646 -0.0596 -0.1961
  597MOL0     C80487   2.345   3.529   8.209 -0.0270  0.3212 -0.4256
  597MOL0     C80488   2.185   3.521   8.213 -0.0750  0.1605 -0.3110
  597MOL0     C80489   2.414   3.594   8.313  0.5560  0.5701 -0.8530
  597MOL0     C80490   2.346   3.672   8.420 -0.4517 -1.3511 -0.9895
  597MOL0     O80491   2.219   3.726   8.397  0.2392  0.4730  0.3707
  597MOL0     C80492   2.153   3.757   8.515  1.1116  0.1655 -0.6109
  597MOL0     C80493   2.091   3.665   8.597  0.0013 -0.3261  0.2956
  597MOL0     C80494   2.019   3.696   8.719 -0.6430 -0.7343  0.7839
  597MOL0     C80495   2.006   3.836   8.743 -0.0489  0.0141 -0.6678
  597MOL0     O80496   1.934   3.867   8.851  0.1757  0.7066 -0.2517
  597MOL0     C80497   1.861   3.996   8.844 -0.1166 -0.0819  0.2588
  597MOL0     C80498   1.772   4.021   8.966  0.3572 -0.5006  0.0182
  597MOL0     C80499   1.695   4.151   8.969 -0.4301 -0.4388 -0.0021
  597MOL0     C80500   1.593   4.148   9.084  0.1947 -0.2857 -0.1077
  597MOL0     C80501   1.531   4.284   9.107 -0.4111 -0.1007 -0.0942
  597MOL0     C80502   1.395   4.276   9.177 -0.1879 -0.4234  0.5006
  597MOL0     C80503   1.416   4.247   9.333  0.0675 -0.4667 -0.5125
  597MOL0     C80504   1.284   4.256   9.410 -0.6279  0.5865  0.4898
  597MOL0    Cl80505   1.204   4.410   9.395  0.2271  0.2669  0.1374
  597MOL0     C80506   2.075   3.932   8.672  1.0403  0.0174 -0.0895
  597MOL0     C80507   2.145   3.891   8.561 -0.7549  0.1730 -0.2542
  597MOL0     O80508   2.411   3.679   8.525 -0.6362 -0.2585 -0.0926
  597MOL0     C80509   2.556   3.583   8.308 -1.0266 -0.1654 -0.5823
  597MOL0     C80510   2.615   3.511   8.203  0.1226  0.7559  0.0375
  597MOL0     N80511   3.134   3.771   7.903 -0.1011  0.0216 -0.0606
  597MOL0     N80512   3.254   3.801   7.864  0.7690 -0.0414  0.8388
  597MOL0     C80513   4.528   3.798   7.976 -0.0791  0.3472  0.7427
  597MOL0     C80514   4.658   3.772   8.026  0.3223 -0.6096 -0.3325
  597MOL0     C80515   5.051   3.534   8.109  0.5191  0.1903  0.2000
  597MOL0     C80516   5.150   3.458   8.046  0.6545 -0.0540  0.8381
  597MOL0     C80517   5.277   3.466   8.095 -0.1215  0.4039 -0.5696
  597MOL0     C80518   5.309   3.536   8.218  0.0906 -1.0186 -0.1970
  597MOL0     O80519   5.423   3.538   8.290  0.0541  0.3611 -0.0999
  597MOL0     C80520   5.540   3.457   8.255  0.4111 -0.2104  1.0527
  597MOL0     C80521   5.650   3.478   8.355 -0.0692 -0.6301 -0.4736
  597MOL0     C80522   5.777   3.422   8.317 -0.8104 -0.3244 -0.2826
  597MOL0     C80523   5.888   3.465   8.416  0.2850 -0.5540 -0.2699
  597MOL0     C80524   6.003   3.387   8.416 -0.9176 -0.4223  0.2112
  597MOL0     C80525   6.107   3.323   8.405 -0.5930 -0.2518  0.2620
  597MOL0     C80526   5.211   3.615   8.276  0.2600 -0.4115 -0.8934
  597MOL0     C80527   5.080   3.611   8.231 -0.1538 -0.3285  0.3009
  597MOL0     H80528   4.639   3.459   8.125  1.1346  1.0773  1.4847
  597MOL0     H80529   4.395   3.494   8.076 -1.6224  0.2312  1.8869
  597MOL0     H80530   4.142   3.676   7.849 -1.3362 -1.5505 -0.1267
  597MOL0     H80531   4.267   3.551   7.867  2.0538 -0.5349  1.8434
  597MOL0     H80532   4.149   3.455   8.044  3.0256  1.1777 -0.7950
  597MOL0     H80533   4.179   3.592   8.136 -1.4416  2.1968  0.5431
  597MOL0     H80534   3.946   3.542   8.136  0.1689 -0.6118 -0.2041
  597MOL0     H80535   3.964   3.688   8.040  1.2099 -0.8489 -2.2554
  597MOL0     H80536   3.911   3.553   7.835  2.1440  0.9231  1.2836
  597MOL0     H80537   3.918   3.413   7.937  1.0921  0.4163 -4.2349
  597MOL0     H80538   3.729   3.483   7.855  3.8721  1.1707 -1.4583
  597MOL0     H80539   3.723   3.473   8.039  2.0024 -3.0164 -1.9527
  597MOL0     H80540   3.731   3.712   8.059  3.4914 -1.4507 -0.3240
  597MOL0     H80541   3.736   3.731   7.880 -3.1503 -0.6189 -2.1927
  597MOL0     H80542   3.502   3.600   8.024 -1.4018  0.1239 -0.9454
  597MOL0     H80543   3.502   3.778   8.003 -4.4539 -1.5005 -0.2065
  597MOL0     H80544   3.479   3.554   7.791  0.2821 -0.3392  1.7271
  597MOL0     H80545   3.501   3.726   7.748 -0.6215  2.2313  0.7743
  597MOL0     H80546   3.276   3.480   7.918 -0.6845 -0.0041  1.3627
  597MOL0     H80547   3.048   3.517   8.073  2.2102 -0.8110 -1.3840
  597MOL0     H80548   2.923   3.620   7.987 -2.6178 -1.6381 -2.9522
  597MOL0     H80549   3.055   3.372   7.882 -1.0024 -1.4151 -1.8582
  597MOL0     H80550   2.939   3.474   7.795 -3.9465  2.8760  1.8530
  597MOL0     H80551   2.859   3.357   8.051 -0.5625 -0.0872  0.1748
  597MOL0     H80552   2.839   3.268   7.899 -1.5812  0.1152 -0.1526
  597MOL0     H80553   2.698   3.448   7.813 -4.4687  1.3910  0.4033
  597MOL0     H80554   2.709   3.557   7.957 -1.1714 -0.6326  3.7352
  597MOL0     H80555   2.344   3.419   8.025 -1.8864  1.1296  0.7616
  597MOL0     H80556   2.135   3.617   8.194 -0.4935 -0.5886 -3.5881
  597MOL0     H80557   2.144   3.439   8.154  0.8044 -0.5423  0.0296
  597MOL0     H80558   2.162   3.491   8.315 -0.3295 -2.2705 -1.0199
  597MOL0     H80559   2.094   3.560   8.570 -1.0725 -0.7812  1.8157
  597MOL0     H80560   1.983   3.617   8.784  0.3234 -0.5481  1.5811
  597MOL0     H80561   1.919   4.089   8.837  1.0044 -0.5003  2.7582
  597MOL0     H80562   1.796   3.993   8.757 -2.1541 -4.5786  1.6593
  597MOL0     H80563   1.692   3.946   8.965  0.2161 -0.3544 -0.5811
  597MOL0     H80564   1.822   4.011   9.062 -1.7201  1.6427  1.4616
  597MOL0     H80565   1.652   4.155   8.868  0.9683  1.4798 -0.5809
  597MOL0     H80566   1.774   4.227   8.971  0.8383 -1.6850 -0.8479
  597MOL0     H80567   1.513   4.078   9.059 -1.7062  0.6193  2.8618
  597MOL0     H80568   1.649   4.108   9.169  2.9047  3.7561  0.2917
  597MOL0     H80569   1.517   4.328   9.008  0.0000 -0.8514 -0.4868
  597MOL0     H80570   1.598   4.349   9.165  1.8319 -3.0206  0.8413
  597MOL0     H80571   1.336   4.368   9.177  0.1487 -0.1742  2.2570
  597MOL0     H80572   1.337   4.196   9.131  1.2949 -0.5959 -1.1682
  597MOL0     H80573   1.483   4.322   9.375  1.3512 -2.5169  1.3201
  597MOL0     H80574   1.463   4.150   9.351  0.5344 -0.0709  0.4378
  597MOL0     H80575   1.314   4.229   9.511  3.6087  0.3634 -0.6462
  597MOL0     H80576   1.221   4.173   9.377  0.4312  0.7332 -2.1623
  597MOL0     H80577   2.084   4.038   8.692  1.5394 -0.0158 -0.1268
  597MOL0     H80578   2.200   3.961   8.500  3.2425 -2.3303  0.0829
  597MOL0     H80579   2.622   3.628   8.382 -1.4315  0.8627 -0.8180
  597MOL0     H80580   2.723   3.500   8.201  0.0415 -0.5963  1.3288
  597MOL0     H80581   4.502   3.888   7.921 -2.5542 -1.3386 -1.0508
  597MOL0     H80582   4.733   3.851   8.025 -2.2641  2.0469  1.2899
  597MOL0     H80583   5.121   3.407   7.955 -1.1905 -0.8259  1.7972
  597MOL0     H80584   5.353   3.401   8.052 -0.2379  0.1424 -0.3801
  597MOL0     H80585   5.502   3.355   8.265 -2.9502  0.6791 -0.9586
  597MOL0     H80586   5.577   3.479   8.154  1.8362  1.5126  1.9090
  597MOL0     H80587   5.622   3.440   8.453  3.2942 -0.3666  0.7421
  597MOL0     H80588   5.666   3.586   8.363 -1.3997 -0.5538  2.3961
  597MOL0     H80589   5.798   3.472   8.222 -0.6639  0.0954 -0.0305
  597MOL0     H80590   5.773   3.314   8.300 -0.1290 -0.6689  1.4801
  597MOL0     H80591   5.850   3.455   8.518 -0.0296 -1.3585 -0.4583
  597MOL0     H80592   5.921   3.569   8.412  2.1354 -1.0120  1.1578
  597MOL0     H80593   6.208   3.291   8.422 -0.2314  1.5980  1.8645
  597MOL0     H80594   5.238   3.680   8.359 -2.8877  1.6293 -1.3026
  597MOL0     H80595   5.002   3.663   8.287 -0.6891  0.2560 -0.9369
  598MOL0     O80596   1.510  10.954   6.501 -0.1681  1.1982 -0.3101
  598MOL0     C80597   1.621  10.930   6.452  0.3568 -0.2846 -0.6729
  598MOL0     O80598   1.638  10.836   6.361 -0.3461 -0.0191  0.5682
  598MOL0     C80599   1.523  10.788   6.284 -1.5037 -0.3606 -0.0675
  598MOL0     C80600   1.421  10.717   6.348  0.1793  0.2250 -0.3303
  598MOL0     C80601   1.313  10.674   6.271 -0.2107 -0.9260 -0.4020
  598MOL0     C80602   1.318  10.684   6.132  0.4240 -0.2440 -0.0890
  598MOL0     O80603   1.228  10.633   6.044  0.0751 -0.5913  0.1837
  598MOL0     C80604   1.098  10.569   6.086  0.7162 -0.1527  0.1824
  598MOL0     C80605   1.140  10.425   6.086  0.1522  0.3097  1.2691
  598MOL0     C80606   1.028  10.322   6.105 -0.2799  0.1834  0.3740
  598MOL0     C80607   1.099  10.188   6.108  0.1628 -1.0042 -0.5572
  598MOL0     C80608   0.997  10.080   6.149  0.2456 -0.2502 -0.3113
  598MOL0     C80609   0.910  10.037   6.026  0.0741 -0.2923 -0.1414
  598MOL0     C80610   0.814   9.912   6.048 -0.3614 -0.3628  0.0390
  598MOL0     C80611   0.687   9.951   6.128  0.4650  0.2353  0.1141
  598MOL0     N80612   0.606  10.055   6.061 -0.2490 -0.0421 -0.3906
  598MOL0     C80613   0.505  10.032   5.974  0.2583 -0.1381  0.2899
  598MOL0     C80614   0.450  10.157   5.961 -0.1488  0.3513  0.4299
  598MOL0     C80615   0.323  10.185   5.891  0.2415 -0.2676  0.0082
  598MOL0     C80616   0.208  10.218   5.991  0.2527  0.3187  0.7466
  598MOL0     C80617   0.137  10.086   6.013  0.4235 -0.2668  1.1417
  598MOL0     C80618   0.004  10.102   6.094 -0.1651  0.0288 -1.1628
  598MOL0     O80619  -0.096  10.176   6.031 -0.1639 -0.4684 -0.1364
  598MOL0     C80620  -0.207  10.215   6.104 -0.1789  0.5873 -0.3023
  598MOL0     C80621  -0.282  10.312   6.050 -0.0030  0.3198 -0.3327
  598MOL0     C80622  -0.401  10.364   6.111 -0.3295  0.6897  0.5620
  598MOL0     C80623  -0.483  10.469   6.029 -0.3784  0.8238 -0.6837
  598MOL0     C80624  -0.443  10.307   6.236  0.5360  0.0898 -0.6506
  598MOL0     C80625  -0.573  10.343   6.309 -0.1263 -0.5637 -0.4235
  598MOL0     O80626  -0.595  10.284   6.428  0.0838  0.3201 -0.4515
  598MOL0     C80627  -0.726  10.294   6.474  0.0066 -0.2833 -0.1278
  598MOL0     C80628  -0.839  10.226   6.424  0.7780 -0.2151 -0.6230
  598MOL0     C80629  -0.974  10.229   6.478  0.4236 -0.1704 -0.2387
  598MOL0     C80630  -0.990  10.300   6.594 -0.2491 -0.9519 -0.4535
  598MOL0     O80631  -1.112  10.307   6.670 -0.4250 -0.1112  0.2104
  598MOL0     C80632  -1.236  10.299   6.587 -0.4781  0.0221 -0.4005
  598MOL0     C80633  -1.363  10.314   6.673 -0.1852  0.5450 -0.6647
  598MOL0     C80634  -1.355  10.237   6.800 -0.0842 -0.0308 -0.3373
  598MOL0     C80635  -1.490  10.223   6.892 -1.2021 -0.0771  0.8500
  598MOL0     C80636  -1.452  10.115   6.994 -0.0877 -0.0391 -0.6824
  598MOL0     C80637  -1.561  10.106   7.098  0.1909  0.0605  0.2006
  598MOL0     C80638  -1.553   9.987   7.206  0.4192  0.9281  0.4366
  598MOL0     C80639  -1.653  10.000   7.323 -0.1236 -0.3120  0.2768
  598MOL0    Cl80640  -1.824   9.994   7.265  0.3289 -0.3325  0.1815
  598MOL0     C80641  -0.884  10.374   6.659 -0.5649 -0.1408 -0.1488
  598MOL0     C80642  -0.755  10.368   6.585  0.3409 -1.0035 -0.3904
  598MOL0     O80643  -0.660  10.408   6.248  0.0118  0.5373  0.4965
  598MOL0     C80644  -0.359  10.212   6.303 -1.0834  0.4479  0.1044
  598MOL0     C80645  -0.239  10.167   6.233 -0.1076 -1.4992 -0.4152
  598MOL0     N80646   0.521  10.258   6.021  0.1340  0.9245 -0.2701
  598MOL0     N80647   0.615  10.193   6.081  0.4280 -0.6393  0.8063
  598MOL0     C80648   1.430  10.744   6.069  0.2218  0.3691 -0.2061
  598MOL0     C80649   1.538  10.792   6.145  0.7161 -0.6386 -1.0633
  598MOL0     C80650   1.746  10.991   6.502  0.5661  0.3553  0.4318
  598MOL0     C80651   1.729  11.099   6.587 -1.2362 -1.1304  0.9839
  598MOL0     C80652   1.845  11.157   6.645  0.1713 -0.0772 -0.0942
  598MOL0     C80653   1.971  11.109   6.614 -1.4022  1.1168 -0.2113
  598MOL0     O80654   2.074  11.170   6.676 -0.0376 -0.7037  0.8862
  598MOL0     C80655   2.210  11.130   6.679  0.2600 -0.3950  0.5921
  598MOL0     C80656   2.294  11.226   6.753 -0.4299  0.5594  0.4920
  598MOL0     C80657   2.241  11.261   6.894 -0.5075  0.1498 -1.0651
  598MOL0     C80658   2.350  11.299   6.996 -0.5223  0.2931 -0.4254
  598MOL0     C80659   2.292  11.350   7.119  0.1724 -0.3418 -0.8472
  598MOL0     C80660   2.249  11.418   7.216  0.1883  0.1578 -0.6123
  598MOL0     C80661   1.990  10.999   6.529  0.2525  0.5473 -0.1372
  598MOL0     C80662   1.873  10.943   6.473 -0.1155  0.1970  0.5776
  598MOL0     H80663   1.432  10.701   6.454  1.6931 -1.4108 -0.6875
  598MOL0     H80664   1.244  10.625   6.339 -0.1635  2.0432  1.9641
  598MOL0     H80665   1.059  10.585   6.187 -4.0862  0.1553 -1.4791
  598MOL0     H80666   1.028  10.581   6.003 -0.1246  0.5546  0.9673
  598MOL0     H80667   1.183  10.401   5.989  1.6064 -2.9513  2.5884
  598MOL0     H80668   1.218  10.403   6.159 -0.5381  0.7083  2.1523
  598MOL0     H80669   0.970  10.338   6.196  0.3863 -2.1820  1.2874
  598MOL0     H80670   0.973  10.309   6.011  4.2940 -0.5523 -2.5242
  598MOL0     H80671   1.142  10.167   6.010 -1.7918  1.6034 -2.0946
  598MOL0     H80672   1.168  10.179   6.193  0.6076 -1.8012 -0.9880
  598MOL0     H80673   1.047   9.987   6.178  0.3792 -0.4976 -1.3081
  598MOL0     H80674   0.936  10.115   6.233 -1.0802  2.4948 -2.2846
  598MOL0     H80675   0.847  10.121   5.997 -0.5831  0.1787  2.4027
  598MOL0     H80676   0.977  10.021   5.941  0.9922  1.4389  0.2268
  598MOL0     H80677   0.788   9.873   5.949 -0.7901 -1.5384  0.6069
  598MOL0     H80678   0.867   9.827   6.090  0.0167 -0.9973 -1.6596
  598MOL0     H80679   0.723   9.998   6.220  0.8158 -0.5523  0.3838
  598MOL0     H80680   0.631   9.859   6.146  1.8647 -0.3797  1.6010
  598MOL0     H80681   0.464   9.936   5.943  2.2370 -1.0169  0.2132
  598MOL0     H80682   0.332  10.274   5.829 -3.8953 -0.2141 -0.8237
  598MOL0     H80683   0.303  10.099   5.825  0.3791 -0.3891  0.1237
  598MOL0     H80684   0.132  10.281   5.942  1.8942  0.9767 -1.1116
  598MOL0     H80685   0.234  10.266   6.086  0.0362  1.7013  0.1341
  598MOL0     H80686   0.209  10.024   6.068  3.6816  1.8635 -0.4295
  598MOL0     H80687   0.119  10.030   5.920  0.4318 -0.5065  1.2829
  598MOL0     H80688   0.032  10.143   6.192 -1.5272  0.0320 -0.7540
  598MOL0     H80689  -0.033  10.000   6.110  1.2947 -1.1076 -4.2391
  598MOL0     H80690  -0.239  10.348   5.956  0.3002  0.3745 -0.1742
  598MOL0     H80691  -0.432  10.490   5.935  1.0391 -0.8895 -0.3616
  598MOL0     H80692  -0.579  10.419   6.014  0.1154  0.3662 -2.5759
  598MOL0     H80693  -0.490  10.558   6.091 -0.7886  0.4183 -0.1376
  598MOL0     H80694  -0.823  10.155   6.343  0.2978  0.2398 -1.1320
  598MOL0     H80695  -1.053  10.165   6.441  0.5507 -1.9396  2.2989
  598MOL0     H80696  -1.236  10.379   6.512  0.2236  0.2786 -0.1331
  598MOL0     H80697  -1.245  10.203   6.536 -0.6897 -0.3501  0.3321
  598MOL0     H80698  -1.403  10.415   6.680 -0.7965  0.4121 -1.9256
  598MOL0     H80699  -1.444  10.265   6.618  0.6092 -0.7346 -0.7348
  598MOL0     H80700  -1.275  10.289   6.854 -1.6216  1.7798  0.3328
  598MOL0     H80701  -1.322  10.135   6.780  2.0088  0.0617  2.0970
  598MOL0     H80702  -1.507  10.315   6.949 -2.6111 -1.3369  2.5703
  598MOL0     H80703  -1.577  10.205   6.829 -0.2044  0.6818 -0.7956
  598MOL0     H80704  -1.366  10.156   7.048 -1.3431 -0.0921  1.4780
  598MOL0     H80705  -1.435  10.020   6.943 -0.2415  0.5773 -1.9059
  598MOL0     H80706  -1.565  10.199   7.155  0.2905  0.5928 -0.6587
  598MOL0     H80707  -1.658  10.090   7.050 -0.1777 -1.0490  1.2529
  598MOL0     H80708  -1.448   9.989   7.239  0.5180  0.9617  0.1217
  598MOL0     H80709  -1.573   9.894   7.151 -0.1426 -0.0243  2.1583
  598MOL0     H80710  -1.637  10.095   7.374  0.6759 -0.2471 -0.0723
  598MOL0     H80711  -1.632   9.917   7.391 -0.4318  1.4168  2.5793
  598MOL0     H80712  -0.906  10.433   6.747  1.3159  0.6713 -0.1714
  598MOL0     H80713  -0.681  10.438   6.621 -0.5730 -0.1743 -0.0942
  598MOL0     H80714  -0.371  10.166   6.400  0.0838 -1.7711 -0.7134
  598MOL0     H80715  -0.173  10.099   6.285 -0.4604 -0.2679  1.7875
  598MOL0     H80716   1.413  10.756   5.963 -2.9928  1.3479  0.3262
  598MOL0     H80717   1.616  10.842   6.090  0.8114 -1.9279 -2.1432
  598MOL0     H80718   1.641  11.161   6.604  1.1980  3.6667 -1.6638
  598MOL0     H80719   1.845  11.247   6.705  1.6644  0.1814 -0.4364
  598MOL0     H80720   2.213  11.038   6.739 -2.2323  0.2508  1.8494
  598MOL0     H80721   2.240  11.113   6.575 -0.1772 -1.0455  0.5660
  598MOL0     H80722   2.307  11.313   6.687  1.8482 -1.8095 -2.4732
  598MOL0     H80723   2.392  11.182   6.771 -1.8000 -1.7311  3.0613
  598MOL0     H80724   2.184  11.181   6.942  1.0699 -1.3756 -1.6310
  598MOL0     H80725   2.178  11.349   6.881  2.1918  1.9418 -3.0681
  598MOL0     H80726   2.432  11.365   6.965  0.2262 -0.6220 -0.4181
  598MOL0     H80727   2.396  11.206   7.030 -0.1910  1.0080  1.1647
  598MOL0     H80728   2.204  11.491   7.279  0.8775 -0.7785  1.0220
  598MOL0     H80729   2.083  10.944   6.515 -1.7290 -4.1694  2.7263
  598MOL0     H80730   1.875  10.850   6.417 -2.0587  0.4294  0.0735
  599MOL0     O80731   1.640  10.863   9.845  0.4185  0.2172 -0.4684
  599MOL0     C80732   1.695  10.943   9.778  0.6012 -0.1095  0.1462
  599MOL0     O80733   1.641  11.060   9.725 -0.1721 -0.1499  0.5052
  599MOL0     C80734   1.500  11.081   9.737 -0.1922 -1.0519  0.8851
  599MOL0     C80735   1.427  11.118   9.625 -0.0481  0.0372 -0.2055
  599MOL0     C80736   1.291  11.133   9.632  0.3940  0.4405 -0.4728
  599MOL0     C80737   1.219  11.097   9.745  0.6085 -0.0562  0.0466
  599MOL0     O80738   1.079  11.115   9.744 -0.7808  1.0613 -0.1115
  599MOL0     C80739   1.045  11.257   9.755  0.2179  0.9422  1.3986
  599MOL0     C80740   0.970  11.294   9.620 -0.5914 -0.6147 -0.0515
  599MOL0     C80741   0.833  11.226   9.622  0.1340  1.5620 -0.7201
  599MOL0     C80742   0.773  11.212   9.483  0.5020 -0.3288  0.2205
  599MOL0     C80743   0.636  11.155   9.491  0.5064  0.1025 -0.5817
  599MOL0     C80744   0.560  11.184   9.357 -0.0443 -0.1420  0.5491
  599MOL0     C80745   0.432  11.110   9.347  0.6165  0.1455  0.8299
  599MOL0     C80746   0.350  11.158   9.225  0.0212 -0.0685 -0.5510
  599MOL0     N80747   0.214  11.098   9.208  0.2696 -0.1584  0.8699
  599MOL0     C80748   0.106  11.093   9.296  0.5185 -0.6399 -0.2361
  599MOL0     C80749   0.004  11.030   9.225  0.1740 -0.3426  0.4649
  599MOL0     C80750  -0.133  10.998   9.275  0.1027 -0.8634 -0.0631
  599MOL0     C80751  -0.177  10.861   9.254 -0.2680 -0.3001  0.0958
  599MOL0     C80752  -0.324  10.840   9.303 -0.0852 -0.8446  0.1997
  599MOL0     C80753  -0.415  10.853   9.188 -0.0077 -0.3599  0.8071
  599MOL0     O80754  -0.552  10.836   9.234  0.1900 -0.6639  0.4889
  599MOL0     C80755  -0.656  10.863   9.143 -0.2179 -0.7328 -0.4163
  599MOL0     C80756  -0.781  10.802   9.172 -0.0030  0.2312 -0.8846
  599MOL0     C80757  -0.892  10.831   9.089 -0.2036 -0.4145 -0.0629
  599MOL0     C80758  -1.022  10.770   9.128 -0.3479  0.4155  0.4152
  599MOL0     C80759  -0.875  10.905   8.973 -0.0883 -1.1328 -0.3850
  599MOL0     C80760  -0.984  10.942   8.878 -0.7710 -0.0363  0.2520
  599MOL0     O80761  -0.992  11.072   8.845 -0.0662 -0.0578 -0.2473
  599MOL0     C80762  -1.082  11.122   8.767  0.7320  0.4211 -0.7748
  599MOL0     C80763  -1.214  11.066   8.745 -0.6908  0.6805 -0.5550
  599MOL0     C80764  -1.303  11.130   8.660  1.2287  0.1962 -0.2289
  599MOL0     C80765  -1.281  11.253   8.598 -0.0086 -0.3394 -0.2739
  599MOL0     O80766  -1.383  11.293   8.519  0.1238  0.0335  0.8027
  599MOL0     C80767  -1.354  11.363   8.395 -0.9169  0.1632  0.2270
  599MOL0     C80768  -1.363  11.523   8.407  0.5018  1.1046 -0.5077
  599MOL0     C80769  -1.357  11.592   8.270 -0.0865  0.3802 -0.2348
  599MOL0     C80770  -1.319  11.746   8.281 -0.8083  0.5942 -0.0307
  599MOL0     C80771  -1.414  11.850   8.341  0.8099 -0.1948  0.2267
  599MOL0     C80772  -1.555  11.856   8.271  0.2891  0.1550 -0.2548
  599MOL0     C80773  -1.624  11.995   8.275  0.3737  0.8686  0.5589
  599MOL0     C80774  -1.649  12.033   8.416  0.1067 -0.0497 -0.4740
  599MOL0    Cl80775  -1.718  12.199   8.399 -0.0021 -0.4603  0.0960
  599MOL0     C80776  -1.157  11.313   8.631  0.1498 -0.1921  0.2303
  599MOL0     C80777  -1.057  11.240   8.710  0.5212 -0.0821  0.8003
  599MOL0     O80778  -1.026  10.844   8.816  0.1715  0.1418  0.4115
  599MOL0     C80779  -0.745  10.969   8.945  1.3914 -0.3238 -0.4649
  599MOL0     C80780  -0.638  10.937   9.026 -0.5717  0.1922 -0.0951
  599MOL0     N80781   0.051  11.004   9.094  0.7131 -0.2372  0.2784
  599MOL0     N80782   0.164  11.061   9.085  0.1232 -0.0574  0.6808
  599MOL0     C80783   1.288  11.067   9.856 -0.2811  1.2742 -1.1864
  599MOL0     C80784   1.429  11.061   9.855  0.9060 -0.1185 -0.4941
  599MOL0     C80785   1.833  10.902   9.724  0.3439 -0.2132 -0.2355
  599MOL0     C80786   1.898  10.786   9.775 -0.1833  0.1298 -0.9543
  599MOL0     C80787   2.031  10.753   9.729  0.2224  0.4614  0.4567
  599MOL0     C80788   2.093  10.825   9.629 -0.6175  0.1880 -0.2161
  599MOL0     O80789   2.220  10.782   9.587  1.3061 -1.4160 -0.5837
  599MOL0     C80790   2.266  10.822   9.457 -0.3132 -0.1640  1.3894
  599MOL0     C80791   2.194  10.758   9.342 -0.1123  0.5807 -0.6783
  599MOL0     C80792   2.198  10.604   9.330  0.0486 -0.6089 -0.7810
  599MOL0     C80793   2.094  10.526   9.414 -0.4162 -0.3495  0.9816
  599MOL0     C80794   1.973  10.527   9.335  0.7542  0.3240  0.4381
  599MOL0     C80795   1.868  10.520   9.270 -1.1235  0.4163 -1.6790
  599MOL0     C80796   2.021  10.931   9.570 -0.7639 -0.5240 -0.4102
  599MOL0     C80797   1.892  10.973   9.615  0.3618 -0.2920 -0.4193
  599MOL0     H80798   1.487  11.146   9.539 -2.2399  3.6724 -0.7869
  599MOL0     H80799   1.235  11.181   9.552 -0.1267  2.0604  0.7959
  599MOL0     H80800   0.970  11.265   9.834  0.6008 -0.8480  1.9977
  599MOL0     H80801   1.126  11.325   9.781  2.3261 -1.2125  0.8031
  599MOL0     H80802   0.941  11.399   9.624  0.7945 -0.1544 -1.1318
  599MOL0     H80803   1.035  11.281   9.532 -0.4583 -0.8158  0.0749
  599MOL0     H80804   0.836  11.130   9.673  0.6327  2.6934  1.5155
  599MOL0     H80805   0.775  11.295   9.684 -0.7392 -1.2591  1.8307
  599MOL0     H80806   0.766  11.303   9.423 -1.2359 -0.5875 -0.0110
  599MOL0     H80807   0.839  11.147   9.426  3.6618  2.8130 -0.0379
  599MOL0     H80808   0.643  11.049   9.515 -1.1616  0.2711  0.9226
  599MOL0     H80809   0.577  11.196   9.574 -1.2436 -1.1569 -1.1558
  599MOL0     H80810   0.549  11.292   9.346  0.2803 -0.1555  0.0555
  599MOL0     H80811   0.617  11.150   9.270 -3.3800 -1.5402 -1.3067
  599MOL0     H80812   0.444  11.003   9.334  0.9859  0.3180 -0.3046
  599MOL0     H80813   0.374  11.136   9.437  3.3002  3.1505  1.9073
  599MOL0     H80814   0.414  11.129   9.141 -2.0498  0.2066 -2.3086
  599MOL0     H80815   0.349  11.267   9.223 -0.8074 -0.0809 -1.5182
  599MOL0     H80816   0.105  11.130   9.398 -1.2152 -1.3180  0.0338
  599MOL0     H80817  -0.152  11.028   9.379  0.7510  2.4666 -0.8047
  599MOL0     H80818  -0.201  11.061   9.218  1.2011 -1.8304 -2.6169
  599MOL0     H80819  -0.128  10.813   9.339 -2.0397  0.4637  1.6341
  599MOL0     H80820  -0.164  10.808   9.160 -1.7704 -1.5204  0.5181
  599MOL0     H80821  -0.363  10.911   9.377  0.3582  0.1592 -0.5103
  599MOL0     H80822  -0.329  10.738   9.342 -0.3356  0.1944  3.1828
  599MOL0     H80823  -0.396  10.778   9.111  2.3085  0.9549  0.0018
  599MOL0     H80824  -0.411  10.954   9.147 -0.4772 -1.1042 -1.1467
  599MOL0     H80825  -0.796  10.733   9.254  1.8875  1.1557  0.3243
  599MOL0     H80826  -1.094  10.853   9.125  0.4936  1.1126 -1.9046
  599MOL0     H80827  -1.058  10.706   9.047 -1.2846  2.2597 -0.6963
  599MOL0     H80828  -1.035  10.719   9.225 -2.0795  1.6217  0.8790
  599MOL0     H80829  -1.229  10.971   8.795  3.4676  0.2806  0.2941
  599MOL0     H80830  -1.394  11.077   8.634 -0.9160  2.2871  2.4101
  599MOL0     H80831  -1.253  11.336   8.362 -0.5803 -0.1706  1.4760
  599MOL0     H80832  -1.417  11.322   8.316  0.8985  1.4173 -2.0085
  599MOL0     H80833  -1.458  11.542   8.458 -0.1660 -2.3070 -0.2291
  599MOL0     H80834  -1.275  11.554   8.463  1.1361 -1.1092 -0.1692
  599MOL0     H80835  -1.451  11.582   8.215  1.3672 -2.3446 -2.4898
  599MOL0     H80836  -1.281  11.538   8.213 -0.7542 -2.7630  1.6159
  599MOL0     H80837  -1.223  11.740   8.334 -0.9333 -0.7258  0.0992
  599MOL0     H80838  -1.308  11.774   8.176  0.6492  1.1913  0.2467
  599MOL0     H80839  -1.372  11.949   8.327 -0.0930  0.5706  2.4737
  599MOL0     H80840  -1.434  11.824   8.446  1.6707 -1.5407  0.0864
  599MOL0     H80841  -1.541  11.814   8.171 -1.6084  1.9870 -1.3778
  599MOL0     H80842  -1.624  11.781   8.312  1.9314 -1.6572 -0.6390
  599MOL0     H80843  -1.727  11.995   8.238 -0.7937 -0.1848  3.4992
  599MOL0     H80844  -1.560  12.070   8.227  0.5631  0.3279 -0.0394
  599MOL0     H80845  -1.561  12.036   8.482 -0.4825  1.4329  0.2819
  599MOL0     H80846  -1.713  11.973   8.481  2.9144  0.6708  3.2718
  599MOL0     H80847  -1.130  11.411   8.592  2.6566 -1.0644 -0.3965
  599MOL0     H80848  -0.962  11.289   8.729  0.5468  1.0335 -1.7443
  599MOL0     H80849  -0.735  11.042   8.866  0.4618 -0.0153 -0.3223
  599MOL0     H80850  -0.542  10.969   8.987  0.7282 -1.5519  1.4314
  599MOL0     H80851   1.255  11.063   9.959  0.6245  0.2809 -0.9216
  599MOL0     H80852   1.477  11.024   9.946  0.2376 -1.2032 -0.5647
  599MOL0     H80853   1.849  10.725   9.850  0.6062 -0.5918 -1.0097
  599MOL0     H80854   2.077  10.664   9.771 -1.5930 -0.5917  0.3218
  599MOL0     H80855   2.260  10.929   9.438 -1.5151 -0.3172  0.7818
  599MOL0     H80856   2.370  10.791   9.452  0.3453  2.0842 -3.0577
  599MOL0     H80857   2.242  10.801   9.254 -0.3271 -1.0996 -1.6427
  599MOL0     H80858   2.087  10.781   9.342 -0.1747  0.2891 -0.8058
  599MOL0     H80859   2.298  10.566   9.353  0.3144 -1.2257 -2.7601
  599MOL0     H80860   2.193  10.569   9.227  2.4281 -0.5132 -0.9764
  599MOL0     H80861   2.083  10.573   9.512  0.8197  0.6846  0.6602
  599MOL0     H80862   2.141  10.428   9.428  0.0622  0.1125  2.8951
  599MOL0     H80863   1.787  10.536   9.202  0.0436  0.5495 -3.0848
  599MOL0     H80864   2.077  10.985   9.494 -2.1735  1.8927  0.1647
  599MOL0     H80865   1.856  11.070   9.583 -0.4032 -0.1600  0.7843
  600MOL0     O80866   5.839  11.199   4.300  0.1386 -0.1027 -0.7613
  600MOL0     C80867   5.760  11.293   4.295  0.5799  0.3784 -0.0930
  600MOL0     O80868   5.633  11.290   4.230  0.1443 -0.1231  0.3411
  600MOL0     C80869   5.567  11.174   4.195  1.0566 -0.2093  0.6947
  600MOL0     C80870   5.615  11.041   4.208  0.7370 -0.3998  0.3463
  600MOL0     C80871   5.548  10.930   4.151 -0.3948 -0.2336  0.0861
  600MOL0     C80872   5.431  10.959   4.076 -0.0724 -0.6051 -0.5042
  600MOL0     O80873   5.366  10.845   4.037 -0.1638 -0.0915  0.4178
  600MOL0     C80874   5.289  10.844   3.911  0.1419 -0.3849 -0.1244
  600MOL0     C80875   5.248  10.705   3.860 -0.7848 -0.3938  0.1702
  600MOL0     C80876   5.168  10.713   3.732 -0.2050  0.1477  0.2881
  600MOL0     C80877   5.263  10.749   3.613 -0.6037  0.0273  0.4680
  600MOL0     C80878   5.180  10.746   3.486 -0.7665  0.5000 -0.1671
  600MOL0     C80879   5.259  10.808   3.369  0.1674 -0.2870  0.4392
  600MOL0     C80880   5.188  10.802   3.242 -0.5341  0.1103  1.2924
  600MOL0     C80881   5.274  10.869   3.129  0.9383 -0.4791 -0.3112
  600MOL0     N80882   5.284  11.015   3.139 -0.4137  0.0141  0.7325
  600MOL0     C80883   5.400  11.084   3.167  0.4256  0.0789 -0.7692
  600MOL0     C80884   5.363  11.208   3.197  0.1310 -0.8486 -0.0399
  600MOL0     C80885   5.455  11.321   3.218  0.2894  0.1122  0.0178
  600MOL0     C80886   5.407  11.414   3.333  0.1566  0.6821 -0.4614
  600MOL0     C80887   5.501  11.531   3.354 -0.5303 -0.3470  0.4628
  600MOL0     C80888   5.640  11.505   3.413 -0.0991  1.3098 -0.1076
  600MOL0     O80889   5.716  11.615   3.366 -0.1577  0.2676 -0.4483
  600MOL0     C80890   5.836  11.641   3.429 -0.5555  0.0679  0.0101
  600MOL0     C80891   5.898  11.563   3.539 -0.7506 -0.2134 -0.8392
  600MOL0     C80892   6.024  11.600   3.600  0.8896 -0.3151  0.6094
  600MOL0     C80893   6.074  11.522   3.718  0.7091  0.1788  0.5771
  600MOL0     C80894   6.104  11.703   3.538  0.6135 -0.3745 -0.0197
  600MOL0     C80895   6.242  11.745   3.571  0.1373 -0.2738  0.6740
  600MOL0     O80896   6.322  11.645   3.623  0.1140  0.2377  0.3541
  600MOL0     C80897   6.453  11.663   3.654  0.9927  0.0227  0.5338
  600MOL0     C80898   6.504  11.560   3.731  0.4160 -0.4404  0.8789
  600MOL0     C80899   6.642  11.557   3.764  1.5420  0.3365 -0.3220
  600MOL0     C80900   6.723  11.664   3.724 -0.0917  0.1403 -0.1838
  600MOL0     O80901   6.855  11.685   3.769  1.3924 -0.0382  0.1800
  600MOL0     C80902   6.890  11.597   3.876 -0.1037  0.0839 -0.3833
  600MOL0     C80903   7.041  11.622   3.894  0.7829  0.0823 -0.0196
  600MOL0     C80904   7.061  11.772   3.936 -1.1760 -0.3564  0.3938
  600MOL0     C80905   7.211  11.792   3.953  0.0961  0.3921  0.6047
  600MOL0     C80906   7.243  11.930   4.012  0.8530 -0.4652 -0.2689
  600MOL0     C80907   7.381  11.955   4.019 -0.9243 -0.2528 -0.0975
  600MOL0     C80908   7.413  12.085   4.096  0.2509 -0.7448 -0.6243
  600MOL0     C80909   7.560  12.124   4.110 -0.1579  0.5174  0.3993
  600MOL0    Cl80910   7.562  12.277   4.201 -0.1757  0.2456 -0.1479
  600MOL0     C80911   6.671  11.761   3.638 -0.6021 -1.0386  0.2968
  600MOL0     C80912   6.543  11.758   3.591  0.0276  0.5568 -0.0374
  600MOL0     O80913   6.270  11.866   3.562  0.1875 -0.4779  0.3848
  600MOL0     C80914   6.037  11.782   3.437 -0.1113  0.5076 -1.0351
  600MOL0     C80915   5.908  11.752   3.384 -0.5931 -0.4945 -0.0247
  600MOL0     N80916   5.220  11.207   3.210  0.3698 -0.2430 -0.1136
  600MOL0     N80917   5.182  11.102   3.152  0.0836  0.4417 -0.6614
  600MOL0     C80918   5.375  11.090   4.082  0.5972  0.9536 -0.2535
  600MOL0     C80919   5.443  11.193   4.136  0.6095 -0.3008  0.1776
  600MOL0     C80920   5.797  11.426   4.370  0.8772 -0.0560 -0.0201
  600MOL0     C80921   5.754  11.549   4.321  0.6104  0.1253 -0.4610
  600MOL0     C80922   5.791  11.666   4.388  1.2600  0.7502 -0.5255
  600MOL0     C80923   5.867  11.665   4.507  0.7612 -0.3409  0.2025
  600MOL0     O80924   5.888  11.787   4.563 -0.0874  0.0983  0.2990
  600MOL0     C80925   5.993  11.787   4.660  0.1651 -1.0101 -0.1478
  600MOL0     C80926   6.025  11.931   4.687  0.4265  0.2927  0.5238
  600MOL0     C80927   6.140  11.960   4.785  0.0116  0.1246  0.9596
  600MOL0     C80928   6.122  12.085   4.863 -0.2080 -0.6429 -0.0476
  600MOL0     C80929   6.084  12.200   4.776 -1.0139 -0.6278  0.4106
  600MOL0     C80930   6.045  12.282   4.698  0.0273  0.0409 -0.2101
  600MOL0     C80931   5.921  11.544   4.546  0.1086 -1.0384  0.1663
  600MOL0     C80932   5.883  11.427   4.479 -0.0001 -0.3526  0.7751
  600MOL0     H80933   5.704  11.018   4.265 -1.2641 -0.9046  3.5048
  600MOL0     H80934   5.588  10.829   4.157  2.7127  0.8757  0.0121
  600MOL0     H80935   5.203  10.911   3.925  0.5549  0.7837 -2.7282
  600MOL0     H80936   5.346  10.895   3.833 -0.0669 -0.2987 -0.2230
  600MOL0     H80937   5.341  10.648   3.848 -1.6976 -1.8941 -0.0880
  600MOL0     H80938   5.197  10.648   3.937 -1.6045  1.5677  1.1379
  600MOL0     H80939   5.136  10.611   3.709  3.9084 -1.3311  0.1977
  600MOL0     H80940   5.084  10.781   3.751 -0.4907 -0.3898  0.9959
  600MOL0     H80941   5.308  10.849   3.617 -0.5516  0.2066 -2.4459
  600MOL0     H80942   5.346  10.678   3.619 -0.5341  0.2478  2.8300
  600MOL0     H80943   5.159  10.640   3.468  4.2825 -0.8554  0.3717
  600MOL0     H80944   5.089  10.807   3.489 -1.3929 -0.3973 -0.5338
  600MOL0     H80945   5.290  10.910   3.393  0.6339 -0.5267  0.8841
  600MOL0     H80946   5.353  10.751   3.367 -0.2696 -1.1972  2.5014
  600MOL0     H80947   5.143  10.709   3.205 -0.7303  1.6134 -2.6748
  600MOL0     H80948   5.097  10.861   3.259 -1.3922 -0.2914 -1.4225
  600MOL0     H80949   5.231  10.836   3.034 -2.4778 -2.8779  1.8261
  600MOL0     H80950   5.377  10.832   3.137  1.2757  0.7663  1.7224
  600MOL0     H80951   5.503  11.051   3.152  0.4796 -0.4258  0.6028
  600MOL0     H80952   5.550  11.272   3.243 -0.4381 -1.4447 -0.1643
  600MOL0     H80953   5.465  11.369   3.120  0.7430 -3.4269 -1.8469
  600MOL0     H80954   5.400  11.363   3.430 -3.3372  0.1277 -0.8652
  600MOL0     H80955   5.306  11.448   3.307  0.2718  1.1046 -0.3620
  600MOL0     H80956   5.444  11.593   3.424 -2.6789 -1.1338 -0.5319
  600MOL0     H80957   5.508  11.581   3.257 -0.1425 -0.8558  0.2255
  600MOL0     H80958   5.690  11.417   3.374 -0.1434  0.3030  1.9547
  600MOL0     H80959   5.633  11.494   3.522 -1.2110  1.7152 -0.1222
  600MOL0     H80960   5.847  11.478   3.583 -1.3195  0.1008 -0.8824
  600MOL0     H80961   6.137  11.582   3.783  0.6101 -0.9810  1.8030
  600MOL0     H80962   5.991  11.477   3.774 -1.3635  1.1162 -1.5566
  600MOL0     H80963   6.134  11.436   3.685 -0.0259 -0.2446  0.3103
  600MOL0     H80964   6.441  11.476   3.758 -1.4091  0.9587  1.1711
  600MOL0     H80965   6.669  11.473   3.827 -1.0664  0.0858  0.6224
  600MOL0     H80966   6.832  11.624   3.966 -0.1305 -0.6608 -0.1724
  600MOL0     H80967   6.871  11.490   3.863  1.9269 -0.4903  0.9921
  600MOL0     H80968   7.092  11.556   3.966  1.7486  1.0639  0.2312
  600MOL0     H80969   7.090  11.599   3.799  1.0238  0.9412 -0.1125
  600MOL0     H80970   7.003  11.797   4.025 -0.0753  0.1790  0.9836
  600MOL0     H80971   7.025  11.841   3.859 -3.5476 -2.1035 -0.1825
  600MOL0     H80972   7.235  11.710   4.021 -1.0651 -0.1560  0.3691
  600MOL0     H80973   7.262  11.765   3.860 -1.5614 -5.7423  1.0507
  600MOL0     H80974   7.191  11.941   4.108  2.0060 -1.6191  0.5060
  600MOL0     H80975   7.203  12.007   3.944 -0.4833  2.0475  3.0669
  600MOL0     H80976   7.425  11.879   4.085  1.8870  1.3475  0.0174
  600MOL0     H80977   7.409  11.949   3.914  1.6369 -2.0702  0.5895
  600MOL0     H80978   7.364  12.078   4.193 -0.0016  1.9231 -0.4842
  600MOL0     H80979   7.363  12.167   4.043  0.3842 -1.0510 -1.2323
  600MOL0     H80980   7.610  12.145   4.015  0.1556 -2.2547 -0.1538
  600MOL0     H80981   7.609  12.039   4.159 -1.7758 -0.6276  0.1445
  600MOL0     H80982   6.736  11.845   3.617 -0.2388 -1.4671 -0.3170
  600MOL0     H80983   6.524  11.839   3.522 -1.1700 -0.9263 -1.5314
  600MOL0     H80984   6.085  11.864   3.384  1.0146  0.2194 -0.4791
  600MOL0     H80985   5.869  11.814   3.304  1.0215  1.0189  0.2996
  600MOL0     H80986   5.276  11.112   4.043  0.5463 -2.1249 -2.1611
  600MOL0     H80987   5.413  11.297   4.143  3.4028  0.5258  1.3568
  600MOL0     H80988   5.716  11.562   4.220  0.9141 -0.6776 -0.6868
  600MOL0     H80989   5.755  11.762   4.353 -1.5900  0.7290  1.9376
  600MOL0     H80990   5.972  11.728   4.749 -1.5157 -0.2512 -0.0136
  600MOL0     H80991   6.085  11.743   4.621 -0.9243 -2.8242 -0.7703
  600MOL0     H80992   5.927  11.972   4.711  0.0675  0.4894 -1.1143
  600MOL0     H80993   6.056  11.978   4.593 -0.5367 -1.4685 -0.7444
  600MOL0     H80994   6.225  11.970   4.717 -0.0726 -2.4890  0.3577
  600MOL0     H80995   6.164  11.876   4.850  2.9780  0.5030  0.4826
  600MOL0     H80996   6.213  12.108   4.919  0.2440  2.1622 -1.6911
  600MOL0     H80997   6.042  12.073   4.936 -2.5467  1.9072 -1.9608
  600MOL0     H80998   6.010  12.339   4.614 -0.8672 -2.7255 -1.8324
  600MOL0     H80999   5.992  11.547   4.629  0.9269  2.6842 -0.4579
  600MOL0     H81000   5.937  11.337   4.506  0.3505 -0.2190  0.5303
  601MOL0     O81001   2.982   1.799   1.245  0.3207 -0.3792  0.7409
  601MOL0     C81002   2.992   1.793   1.124 -0.4262  0.6211  0.4221
  601MOL0     O81003   3.111   1.793   1.057  0.7251  0.0614  0.1683
  601MOL0     C81004   3.242   1.800   1.101  0.7956  1.0017  0.5024
  601MOL0     C81005   3.343   1.797   1.008 -0.7572  0.1927 -0.2681
  601MOL0     C81006   3.485   1.806   1.038 -0.4439  0.4971  0.8232
  601MOL0     C81007   3.521   1.819   1.174  1.2139  0.1261 -0.1515
  601MOL0     O81008   3.647   1.841   1.219  0.6329  0.4601  0.4039
  601MOL0     C81009   3.765   1.829   1.137  0.1829  0.3633 -0.8051
  601MOL0     C81010   3.900   1.861   1.215  0.0447  0.2685  1.2632
  601MOL0     C81011   4.000   1.769   1.157 -0.2196 -0.4289 -0.8772
  601MOL0     C81012   4.140   1.808   1.204 -0.0164 -0.4251 -0.0306
  601MOL0     C81013   4.177   1.751   1.340  1.0474 -0.6106  0.1222
  601MOL0     C81014   4.216   1.599   1.338  0.6277 -1.2175 -0.9082
  601MOL0     C81015   4.262   1.545   1.472 -0.3598 -0.0196  0.3404
  601MOL0     C81016   4.270   1.390   1.458 -0.4511  0.3365  0.0675
  601MOL0     N81017   4.301   1.331   1.588 -0.0839 -0.3646 -0.3345
  601MOL0     C81018   4.411   1.348   1.672  0.8559  0.2198 -0.3251
  601MOL0     C81019   4.373   1.274   1.778 -1.1319  0.0616  0.0138
  601MOL0     C81020   4.443   1.261   1.914  0.8188 -0.0226  0.1789
  601MOL0     C81021   4.442   1.384   2.008  0.0649  0.4906  1.1519
  601MOL0     C81022   4.500   1.343   2.143 -0.5845  0.1586 -0.6007
  601MOL0     C81023   4.639   1.283   2.145 -0.9862 -0.0182 -0.2585
  601MOL0     O81024   4.731   1.390   2.126  0.6004 -0.1856 -0.0886
  601MOL0     C81025   4.850   1.360   2.077 -0.1747 -1.5524 -0.6868
  601MOL0     C81026   4.921   1.248   2.106 -0.2230  0.3648 -0.4429
  601MOL0     C81027   5.054   1.224   2.061 -0.0643  0.6220 -0.3686
  601MOL0     C81028   5.127   1.097   2.097  0.3060  0.2455  0.4935
  601MOL0     C81029   5.109   1.314   1.978  0.1392 -0.1174  0.4311
  601MOL0     C81030   5.240   1.294   1.920 -0.3771 -0.3711  0.2706
  601MOL0     O81031   5.331   1.397   1.938  0.0435  0.5548  1.3140
  601MOL0     C81032   5.449   1.365   1.880  0.4809 -0.4342 -0.5585
  601MOL0     C81033   5.564   1.307   1.952 -0.2769 -0.1625 -0.0595
  601MOL0     C81034   5.680   1.284   1.882 -0.7249  0.7803 -0.7487
  601MOL0     C81035   5.695   1.318   1.753 -0.2552 -0.1842  0.8587
  601MOL0     O81036   5.817   1.291   1.696 -0.1760  0.1194  0.5758
  601MOL0     C81037   5.931   1.358   1.744  0.9461 -1.2840  0.1874
  601MOL0     C81038   5.922   1.511   1.716 -0.1485 -0.0388  0.1692
  601MOL0     C81039   6.058   1.572   1.745 -0.0393 -0.6190 -0.3261
  601MOL0     C81040   6.064   1.704   1.821 -0.2911  0.0889  0.7669
  601MOL0     C81041   6.207   1.752   1.832 -0.2992  0.0335 -0.2945
  601MOL0     C81042   6.220   1.878   1.923  0.9572 -0.4998  0.9828
  601MOL0     C81043   6.144   1.878   2.056  0.2542  0.4329 -0.5588
  601MOL0     C81044   6.166   2.011   2.129 -0.6291 -0.4435 -0.5045
  601MOL0    Cl81045   6.089   1.982   2.295  0.0070 -0.1635  0.2872
  601MOL0     C81046   5.592   1.386   1.684 -0.3465  0.3021 -0.4689
  601MOL0     C81047   5.470   1.416   1.748 -0.0117 -0.8959  0.1184
  601MOL0     O81048   5.255   1.190   1.855  0.0830  0.2675 -0.6661
  601MOL0     C81049   5.042   1.436   1.944  0.0094 -0.5547 -0.3386
  601MOL0     C81050   4.917   1.454   2.000  0.2730  0.2835  0.5940
  601MOL0     N81051   4.245   1.219   1.752  0.5748 -0.1479  0.0893
  601MOL0     N81052   4.197   1.251   1.640 -0.1757 -0.3161  0.5102
  601MOL0     C81053   3.419   1.845   1.262  0.9406  0.6789  0.2291
  601MOL0     C81054   3.283   1.820   1.235  0.4616 -0.0542  0.6609
  601MOL0     C81055   2.861   1.796   1.048 -0.2809  0.7070 -0.0831
  601MOL0     C81056   2.740   1.817   1.113 -0.5075  1.2473 -0.4308
  601MOL0     C81057   2.616   1.819   1.048 -0.0712  0.9206  0.3023
  601MOL0     C81058   2.609   1.793   0.907  0.4995  0.4069 -0.1157
  601MOL0     O81059   2.498   1.779   0.833 -0.2349 -0.2576  0.1573
  601MOL0     C81060   2.374   1.823   0.876 -0.1137 -0.3605 -0.5605
  601MOL0     C81061   2.259   1.814   0.765  0.0922  0.3966 -0.5506
  601MOL0     C81062   2.141   1.906   0.790 -0.0103  1.1248 -0.6629
  601MOL0     C81063   2.052   1.877   0.918 -0.0440  0.3585 -0.1837
  601MOL0     C81064   1.965   1.754   0.901 -0.1457 -0.4926 -0.8258
  601MOL0     C81065   1.880   1.671   0.886 -0.9793  0.5694  0.1240
  601MOL0     C81066   2.730   1.789   0.841  0.0477 -0.5035 -0.2859
  601MOL0     C81067   2.854   1.795   0.912  0.3580 -0.6813  0.0063
  601MOL0     H81068   3.311   1.798   0.905  1.7285 -0.8151 -1.1346
  601MOL0     H81069   3.565   1.795   0.966  0.4005 -2.0088  2.0480
  601MOL0     H81070   3.764   1.734   1.081  1.0907  1.9348 -3.7042
  601MOL0     H81071   3.756   1.912   1.066  1.8846  2.2674  1.0826
  601MOL0     H81072   3.929   1.965   1.200  3.8672 -0.6291  1.3597
  601MOL0     H81073   3.890   1.847   1.323  1.4277 -4.5865  0.9780
  601MOL0     H81074   3.980   1.667   1.190 -1.9764 -0.6916 -2.5453
  601MOL0     H81075   3.989   1.765   1.048 -0.4761  0.1546 -0.8799
  601MOL0     H81076   4.205   1.768   1.125 -1.2308  2.5376 -2.7577
  601MOL0     H81077   4.149   1.916   1.196  1.8902 -0.5734 -0.2329
  601MOL0     H81078   4.266   1.804   1.375 -0.1789  0.1067  2.4289
  601MOL0     H81079   4.094   1.772   1.409 -0.2254  1.1633 -1.8087
  601MOL0     H81080   4.133   1.534   1.306 -2.7213  1.0333  2.3956
  601MOL0     H81081   4.292   1.594   1.259 -0.7632 -0.7248 -2.3530
  601MOL0     H81082   4.359   1.586   1.500  0.4361 -1.3848 -0.3212
  601MOL0     H81083   4.195   1.590   1.546 -1.3248  0.1549 -0.6189
  601MOL0     H81084   4.355   1.360   1.396  1.1471  0.0080  2.3089
  601MOL0     H81085   4.179   1.347   1.415  0.6061 -0.0877 -1.8506
  601MOL0     H81086   4.496   1.412   1.649  0.7158 -0.4535 -3.0451
  601MOL0     H81087   4.390   1.180   1.965 -0.1726 -0.3406 -1.2801
  601MOL0     H81088   4.546   1.234   1.891  0.5784 -1.5147  0.7710
  601MOL0     H81089   4.341   1.418   2.033 -0.6626 -1.9179  1.7736
  601MOL0     H81090   4.504   1.461   1.961  0.6140 -0.4569  0.2798
  601MOL0     H81091   4.427   1.271   2.181 -0.8254  0.6252 -0.1846
  601MOL0     H81092   4.500   1.421   2.219 -1.1375  0.0153 -0.4514
  601MOL0     H81093   4.651   1.198   2.078  2.7618 -0.1293  0.3797
  601MOL0     H81094   4.649   1.242   2.246 -1.8012 -1.1945 -0.6354
  601MOL0     H81095   4.878   1.178   2.177  3.0961  0.3738  1.7940
  601MOL0     H81096   5.074   1.042   2.174  0.5527  1.7265  1.7639
  601MOL0     H81097   5.151   1.038   2.008  2.4210 -0.5657  1.5370
  601MOL0     H81098   5.221   1.119   2.149  0.4762 -0.5843  0.5513
  601MOL0     H81099   5.543   1.283   2.055 -3.4077  1.6783 -0.1068
  601MOL0     H81100   5.768   1.237   1.922  0.4676  0.7936 -3.1816
  601MOL0     H81101   5.950   1.346   1.851  0.4796  1.5599  0.6719
  601MOL0     H81102   6.013   1.319   1.683  0.6588  1.2485 -2.0260
  601MOL0     H81103   5.903   1.538   1.611 -0.5841  3.5845  1.0732
  601MOL0     H81104   5.845   1.560   1.774 -0.7148 -0.1170 -0.4973
  601MOL0     H81105   6.116   1.586   1.653  0.3564  1.3358  0.1706
  601MOL0     H81106   6.107   1.491   1.798 -0.9200 -1.2362 -0.4394
  601MOL0     H81107   6.007   1.787   1.779  1.4041  1.1126  0.3731
  601MOL0     H81108   6.009   1.688   1.915 -0.8758 -1.0480  0.2439
  601MOL0     H81109   6.249   1.771   1.733 -1.8191 -0.7060 -1.1174
  601MOL0     H81110   6.263   1.674   1.885 -0.7290  1.0962  1.8568
  601MOL0     H81111   6.328   1.885   1.936  0.8559  0.6067  1.3097
  601MOL0     H81112   6.180   1.961   1.864 -0.6978 -2.3642 -0.6820
  601MOL0     H81113   6.177   1.805   2.130 -1.4003  0.4875  0.2664
  601MOL0     H81114   6.036   1.872   2.040  0.5241 -1.0677 -2.1574
  601MOL0     H81115   6.114   2.096   2.082  3.3844  2.0287 -0.9232
  601MOL0     H81116   6.273   2.031   2.137 -0.1708 -3.1118  0.7338
  601MOL0     H81117   5.605   1.408   1.578  1.9366  2.1586  0.0891
  601MOL0     H81118   5.384   1.468   1.706 -0.5331  0.4466  2.6088
  601MOL0     H81119   5.092   1.511   1.883 -2.3363 -0.3600 -2.1477
  601MOL0     H81120   4.857   1.542   1.980 -0.3374 -0.7966 -3.0019
  601MOL0     H81121   3.448   1.860   1.366 -2.6217 -3.2162  2.1022
  601MOL0     H81122   3.206   1.816   1.312 -0.8217 -1.1448 -0.6321
  601MOL0     H81123   2.735   1.829   1.221 -1.2910 -2.0770  0.0295
  601MOL0     H81124   2.526   1.842   1.106  0.6167  0.9125  1.4074
  601MOL0     H81125   2.350   1.790   0.977  1.8848  5.7873  2.3830
  601MOL0     H81126   2.381   1.932   0.883  0.8201 -0.4020 -0.8195
  601MOL0     H81127   2.223   1.711   0.757  0.7221  0.0260  1.0037
  601MOL0     H81128   2.301   1.839   0.668  2.1572 -1.8591 -0.3226
  601MOL0     H81129   2.080   1.909   0.700  0.5751 -0.0230 -1.1182
  601MOL0     H81130   2.169   2.011   0.800  1.1328  0.7405  0.5703
  601MOL0     H81131   2.003   1.972   0.940 -0.1246  0.3398 -0.2869
  601MOL0     H81132   2.111   1.847   1.005  0.5578  1.1002 -0.3232
  601MOL0     H81133   1.804   1.597   0.872 -4.8030  4.4518 -1.9938
  601MOL0     H81134   2.722   1.780   0.733  0.1675  1.7019 -0.5216
  601MOL0     H81135   2.942   1.799   0.849 -0.0414 -3.1806 -0.8240
  602MOL0     O81136  10.472   3.991   0.247 -0.9657  0.5050 -0.5857
  602MOL0     C81137  10.592   4.032   0.227  0.4063  0.6323 -0.5102
  602MOL0     O81138  10.624   4.131   0.142  0.1215 -0.5178 -0.3657
  602MOL0     C81139  10.537   4.208   0.078  0.4064 -0.8109  0.7339
  602MOL0     C81140  10.573   4.258  -0.048  0.0928 -0.6179 -0.2325
  602MOL0     C81141  10.488   4.345  -0.107  0.7805  0.9971 -0.2796
  602MOL0     C81142  10.386   4.414  -0.047 -0.1069  0.1484  0.1169
  602MOL0     O81143  10.307   4.514  -0.111 -0.3657 -0.6763 -0.3020
  602MOL0     C81144  10.254   4.622  -0.031  0.9809  1.4115  1.0215
  602MOL0     C81145  10.098   4.664  -0.050  0.0671 -0.8063  0.8056
  602MOL0     C81146  10.077   4.695  -0.201 -0.5042 -0.0283 -0.1359
  602MOL0     C81147   9.928   4.701  -0.238  0.2148 -0.6090  0.0527
  602MOL0     C81148   9.867   4.844  -0.235  0.0764 -0.2199 -0.1137
  602MOL0     C81149   9.720   4.827  -0.203  0.3637 -0.1013  0.0494
  602MOL0     C81150   9.649   4.959  -0.184  0.4240 -0.4826 -0.7741
  602MOL0     C81151   9.488   4.946  -0.193 -0.8851 -0.0211  0.2558
  602MOL0     N81152   9.428   5.072  -0.195  0.3015 -0.3386 -0.2643
  602MOL0     C81153   9.398   5.145  -0.309 -0.3603  0.2157  0.8464
  602MOL0     C81154   9.356   5.262  -0.263 -0.5544 -0.3147 -0.1646
  602MOL0     C81155   9.319   5.380  -0.351  0.3550  0.2344 -0.3603
  602MOL0     C81156   9.189   5.359  -0.445 -0.4872  0.2443 -0.4665
  602MOL0     C81157   9.136   5.502  -0.479  0.6733  0.4880  0.2267
  602MOL0     C81158   9.031   5.496  -0.599 -0.4888  0.9016 -0.5480
  602MOL0     O81159   8.993   5.629  -0.629  0.0397  0.1385  0.2232
  602MOL0     C81160   9.037   5.683  -0.747 -0.0013  0.9135  0.0917
  602MOL0     C81161   9.170   5.693  -0.791 -0.1890 -0.0880  0.0747
  602MOL0     C81162   9.210   5.758  -0.903 -0.2744 -0.1244  0.5167
  602MOL0     C81163   9.363   5.767  -0.934  0.8062  0.3349  0.3655
  602MOL0     C81164   9.111   5.815  -0.986 -0.2519  0.1201  0.0868
  602MOL0     C81165   9.131   5.873  -1.119 -0.6868 -0.4592  0.4079
  602MOL0     O81166   9.259   5.856  -1.169  0.1985 -0.2243 -0.2928
  602MOL0     C81167   9.312   5.930  -1.276 -0.9820 -0.0457  0.4003
  602MOL0     C81168   9.427   5.874  -1.341 -0.6936  0.1900 -0.1980
  602MOL0     C81169   9.471   5.931  -1.459  0.4506 -0.4776 -1.0310
  602MOL0     C81170   9.433   6.062  -1.495 -0.7833  0.2072 -1.3478
  602MOL0     O81171   9.493   6.118  -1.600 -0.4085 -0.1145 -0.3122
  602MOL0     C81172   9.478   6.256  -1.633 -0.2011  0.3756 -0.0446
  602MOL0     C81173   9.554   6.295  -1.764  1.1954 -0.1494 -0.6640
  602MOL0     C81174   9.703   6.263  -1.772 -0.2889 -0.8324 -0.3984
  602MOL0     C81175   9.778   6.348  -1.872 -0.0003 -1.0029  0.2542
  602MOL0     C81176   9.913   6.283  -1.902  0.3287  0.0005  0.3768
  602MOL0     C81177  10.009   6.286  -1.788  0.8314 -0.2826  0.3571
  602MOL0     C81178  10.132   6.198  -1.812  0.4665  0.5876 -0.7910
  602MOL0     C81179  10.233   6.261  -1.914  0.1112  0.2360 -0.2820
  602MOL0    Cl81180  10.174   6.225  -2.081  0.2217 -0.0228 -0.0644
  602MOL0     C81181   9.336   6.118  -1.416 -0.0835 -0.2464 -0.0988
  602MOL0     C81182   9.273   6.061  -1.307  0.4131 -0.4578  0.1933
  602MOL0     O81183   9.037   5.927  -1.180 -0.7752  0.2632 -0.7632
  602MOL0     C81184   8.983   5.807  -0.944  0.3858 -1.1019 -0.2821
  602MOL0     C81185   8.943   5.749  -0.829  0.0136 -0.5643 -0.8509
  602MOL0     N81186   9.355   5.263  -0.119 -0.6261 -0.4759  0.1223
  602MOL0     N81187   9.396   5.142  -0.078 -1.3582  1.4146 -0.1225
  602MOL0     C81188  10.354   4.371   0.080 -0.8511 -0.6146 -0.0485
  602MOL0     C81189  10.421   4.266   0.144 -0.7616  0.1060  0.3260
  602MOL0     C81190  10.699   3.973   0.304  0.2086 -0.8499 -0.5861
  602MOL0     C81191  10.686   3.851   0.380 -0.2386  0.2341  0.1614
  602MOL0     C81192  10.780   3.797   0.476 -0.8766 -0.6999 -0.5718
  602MOL0     C81193  10.894   3.872   0.505  1.4232  0.0573  0.4807
  602MOL0     O81194  10.985   3.843   0.598 -0.2009  0.0076 -0.7315
  602MOL0     C81195  11.043   3.953   0.674 -0.7520 -0.2480 -0.2572
  602MOL0     C81196  11.082   3.888   0.810  0.5718  0.5527  0.2615
  602MOL0     C81197  11.184   3.967   0.885 -0.2221 -0.8004 -0.1193
  602MOL0     C81198  11.227   3.890   1.009  0.0499 -0.9627  0.3631
  602MOL0     C81199  11.355   3.932   1.048 -0.2832 -0.6434  0.4236
  602MOL0     C81200  11.461   3.988   1.080  0.5287 -0.0645  0.0746
  602MOL0     C81201  10.914   3.985   0.425  0.7500 -0.9089 -0.1492
  602MOL0     C81202  10.820   4.033   0.328  0.7213  0.5056 -0.0022
  602MOL0     H81203  10.661   4.223  -0.100  1.3898 -0.5910  1.8223
  602MOL0     H81204  10.530   4.368  -0.204  2.4620 -0.9100 -0.0831
  602MOL0     H81205  10.269   4.605   0.076 -1.9218 -2.0236  1.0654
  602MOL0     H81206  10.320   4.703  -0.063  0.8193  0.2980 -2.5985
  602MOL0     H81207  10.030   4.582  -0.025  0.5468 -1.4646  0.0103
  602MOL0     H81208  10.068   4.754   0.004 -2.2113  0.5681 -2.4004
  602MOL0     H81209  10.135   4.783  -0.228 -1.8132  0.1146 -2.7511
  602MOL0     H81210  10.129   4.614  -0.255 -0.1740  0.3173 -0.3401
  602MOL0     H81211   9.931   4.671  -0.343  2.8130 -0.3483 -0.0267
  602MOL0     H81212   9.871   4.631  -0.176  0.2109 -0.1844  0.5303
  602MOL0     H81213   9.918   4.907  -0.161 -0.9959  0.4514  0.0756
  602MOL0     H81214   9.886   4.887  -0.334  0.4551  0.8216  0.3927
  602MOL0     H81215   9.675   4.772  -0.286  0.1320  2.9733 -2.0387
  602MOL0     H81216   9.710   4.773  -0.109 -0.3926 -0.7167 -0.3714
  602MOL0     H81217   9.676   4.998  -0.085 -3.0179 -0.2724  0.2127
  602MOL0     H81218   9.695   5.030  -0.253 -0.0093  1.5705  0.9208
  602MOL0     H81219   9.457   4.897  -0.100  1.3334  1.4634  1.8796
  602MOL0     H81220   9.450   4.886  -0.276  0.8534 -0.9227  0.0507
  602MOL0     H81221   9.410   5.112  -0.411  2.0506 -1.2664  1.5086
  602MOL0     H81222   9.304   5.467  -0.286 -0.4491  1.7044 -2.4348
  602MOL0     H81223   9.399   5.410  -0.419  1.0560  0.9802  0.7603
  602MOL0     H81224   9.117   5.299  -0.389  0.0564 -0.4034 -0.4497
  602MOL0     H81225   9.217   5.306  -0.537 -2.3670  1.1600 -1.6296
  602MOL0     H81226   9.222   5.566  -0.500  0.5649  0.7128  0.4529
  602MOL0     H81227   9.088   5.538  -0.388 -0.0152  1.0239 -0.3374
  602MOL0     H81228   8.942   5.446  -0.560  0.8565 -1.0219  0.2307
  602MOL0     H81229   9.072   5.447  -0.688  0.8696 -1.3935  1.2282
  602MOL0     H81230   9.246   5.641  -0.734  3.1314  2.9485 -1.1987
  602MOL0     H81231   9.395   5.866  -0.969  0.7042 -0.4475 -2.1950
  602MOL0     H81232   9.420   5.751  -0.842  0.2099 -0.1674  0.6494
  602MOL0     H81233   9.398   5.699  -1.013 -1.2088  0.1192 -0.3936
  602MOL0     H81234   9.469   5.780  -1.307  1.7225  1.2636  0.0075
  602MOL0     H81235   9.542   5.876  -1.521 -0.8500 -1.0005 -2.1113
  602MOL0     H81236   9.372   6.283  -1.629 -0.1595  0.4191  1.6552
  602MOL0     H81237   9.531   6.305  -1.551 -2.4744  1.1555  1.0489
  602MOL0     H81238   9.508   6.242  -1.848  1.1104 -0.3144 -0.5110
  602MOL0     H81239   9.552   6.405  -1.768  2.4990 -0.0185  1.2185
  602MOL0     H81240   9.718   6.157  -1.796 -2.3026 -1.1342 -0.5235
  602MOL0     H81241   9.752   6.284  -1.677 -1.1611  2.1902 -0.5357
  602MOL0     H81242   9.717   6.347  -1.963 -0.1064 -2.3963  0.3268
  602MOL0     H81243   9.781   6.452  -1.836  0.4890  0.1572 -2.7944
  602MOL0     H81244   9.956   6.346  -1.980 -1.4784  0.6865 -0.1209
  602MOL0     H81245   9.904   6.176  -1.923 -1.0417 -0.2331  1.8918
  602MOL0     H81246  10.035   6.392  -1.777  0.0035  0.1169 -1.1622
  602MOL0     H81247   9.960   6.247  -1.698 -1.6352 -1.3826 -1.3382
  602MOL0     H81248  10.116   6.093  -1.837 -2.9386  0.2955  1.8733
  602MOL0     H81249  10.191   6.202  -1.720  0.7517  2.0671 -1.0130
  602MOL0     H81250  10.331   6.229  -1.879  0.1309  0.9809  0.3761
  602MOL0     H81251  10.232   6.370  -1.907  0.1105  0.5587 -3.4962
  602MOL0     H81252   9.309   6.220  -1.444 -1.2999 -0.9668 -1.7552
  602MOL0     H81253   9.192   6.107  -1.251  0.0967  1.0156 -1.4067
  602MOL0     H81254   8.903   5.860  -0.995 -0.0604 -3.9815 -2.8498
  602MOL0     H81255   8.841   5.753  -0.791  0.1361 -1.5972 -0.3837
  602MOL0     H81256  10.268   4.407   0.136  1.0830  1.4550  1.8172
  602MOL0     H81257  10.390   4.222   0.238  2.5783 -0.7333  1.1714
  602MOL0     H81258  10.598   3.788   0.375  1.2453 -2.1631  1.8000
  602MOL0     H81259  10.754   3.708   0.532  0.8435 -1.2286 -0.5501
  602MOL0     H81260  11.132   3.987   0.621  0.7951  0.1315  2.4124
  602MOL0     H81261  10.976   4.037   0.695 -0.3649 -0.5792  2.7578
  602MOL0     H81262  11.127   3.790   0.788  0.7424  1.0098 -1.5723
  602MOL0     H81263  10.996   3.878   0.876 -0.3412  1.1548 -0.8142
  602MOL0     H81264  11.140   4.062   0.917  2.0294 -1.0385  4.4336
  602MOL0     H81265  11.268   3.988   0.819 -0.7723  2.3051  0.0233
  602MOL0     H81266  11.240   3.783   0.993  3.2281 -0.6544  0.1515
  602MOL0     H81267  11.157   3.916   1.090 -0.2058  2.9337 -0.9238
  602MOL0     H81268  11.558   4.024   1.109  1.0738 -1.3238 -0.1471
  602MOL0     H81269  11.005   4.045   0.433 -0.5938  1.1139  0.8558
  602MOL0     H81270  10.839   4.115   0.259 -2.8435  0.9605 -0.6334
  603MOL0     O81271   1.437   8.876   1.505 -0.8825  0.4402 -0.7557
  603MOL0     C81272   1.425   8.938   1.404  0.3541 -0.4573 -0.1896
  603MOL0     O81273   1.507   8.922   1.290  0.2813 -0.0612 -0.1502
  603MOL0     C81274   1.585   8.810   1.270 -0.1301  0.0710 -0.1115
  603MOL0     C81275   1.584   8.691   1.343  0.2792  0.5495 -0.0029
  603MOL0     C81276   1.659   8.578   1.316 -1.1343  0.1608  0.6337
  603MOL0     C81277   1.752   8.580   1.211  0.9801  0.5815  0.5860
  603MOL0     O81278   1.832   8.470   1.199 -0.1077 -0.4943  0.5586
  603MOL0     C81279   1.966   8.485   1.154 -0.4170 -0.2873 -0.5034
  603MOL0     C81280   2.051   8.353   1.134 -0.0168 -0.3040  0.0077
  603MOL0     C81281   2.182   8.385   1.066  0.1468 -0.4269  0.3028
  603MOL0     C81282   2.281   8.266   1.088  0.7503  0.0266  0.1957
  603MOL0     C81283   2.413   8.293   1.013 -1.5796 -0.0157  0.3403
  603MOL0     C81284   2.531   8.200   1.025 -0.4806  0.3294  0.0478
  603MOL0     C81285   2.509   8.056   0.981 -0.3069  0.0653  0.2850
  603MOL0     C81286   2.635   7.986   1.028 -0.5587 -0.5382  0.1106
  603MOL0     N81287   2.657   7.865   0.948 -0.2936 -0.3435  0.1767
  603MOL0     C81288   2.781   7.808   0.908 -0.0683  0.1567  0.8157
  603MOL0     C81289   2.760   7.718   0.809  0.2858  0.4229  0.0628
  603MOL0     C81290   2.850   7.634   0.717  0.5002  0.1072 -0.5969
  603MOL0     C81291   2.985   7.706   0.709  0.8339  0.3525  1.0668
  603MOL0     C81292   3.068   7.631   0.604 -0.0273  0.0188 -0.0537
  603MOL0     C81293   3.198   7.713   0.557  0.4631  0.8129 -0.4489
  603MOL0     O81294   3.261   7.631   0.460 -0.6893  0.1129 -0.7047
  603MOL0     C81295   3.375   7.677   0.394 -1.0492 -0.4302  0.6660
  603MOL0     C81296   3.412   7.814   0.395 -0.5547  0.1573  0.0066
  603MOL0     C81297   3.530   7.857   0.335 -0.6329  0.2917  0.2753
  603MOL0     C81298   3.562   8.005   0.355  0.5126 -0.7487  0.5438
  603MOL0     C81299   3.612   7.771   0.261  0.3752  0.4344  0.8330
  603MOL0     C81300   3.737   7.791   0.180  0.3331  0.0328 -0.0253
  603MOL0     O81301   3.816   7.687   0.151  0.1362  0.1930  0.1032
  603MOL0     C81302   3.924   7.688   0.070  0.2312  0.3335  0.1531
  603MOL0     C81303   3.954   7.785  -0.028 -0.9841  0.6083 -0.4063
  603MOL0     C81304   4.078   7.777  -0.101  0.5501  1.1398 -0.1131
  603MOL0     C81305   4.163   7.668  -0.079  0.2129  0.0241 -0.5179
  603MOL0     O81306   4.279   7.666  -0.150  1.0465 -0.7409 -0.3234
  603MOL0     C81307   4.380   7.571  -0.109  0.4388  0.7496  0.2917
  603MOL0     C81308   4.494   7.575  -0.209 -0.3878 -0.0911  0.4272
  603MOL0     C81309   4.610   7.661  -0.143 -0.1648  0.1339  1.1605
  603MOL0     C81310   4.713   7.683  -0.248 -0.1570 -0.7150 -0.3036
  603MOL0     C81311   4.807   7.783  -0.180  0.0254  1.1057  0.9412
  603MOL0     C81312   4.925   7.810  -0.277  0.0219 -0.5094  0.0502
  603MOL0     C81313   5.016   7.912  -0.205  0.9791 -0.7329  0.2930
  603MOL0     C81314   5.116   7.853  -0.112  0.4039  0.5668  1.1534
  603MOL0    Cl81315   5.239   7.777  -0.217  0.1043 -0.3988 -0.0633
  603MOL0     C81316   4.118   7.570   0.008  0.1000  0.2356 -0.9428
  603MOL0     C81317   4.002   7.572   0.082  0.6238 -0.8716  0.1909
  603MOL0     O81318   3.765   7.910   0.147  0.2747  0.3267 -0.4762
  603MOL0     C81319   3.568   7.631   0.263 -0.7086  0.4600 -0.0370
  603MOL0     C81320   3.459   7.587   0.331 -0.9109  0.9348 -0.1870
  603MOL0     N81321   2.627   7.708   0.809  0.7761 -0.8440  0.5551
  603MOL0     N81322   2.567   7.790   0.890 -0.6602  0.1401 -0.9395
  603MOL0     C81323   1.749   8.686   1.128  0.0186  0.5149 -0.1013
  603MOL0     C81324   1.667   8.798   1.158 -0.0871 -0.1476 -1.1551
  603MOL0     C81325   1.326   9.047   1.397  0.9142  0.0720  0.4480
  603MOL0     C81326   1.227   9.066   1.498  0.4930  0.0420 -0.3226
  603MOL0     C81327   1.130   9.163   1.492  0.7021  0.6846  0.0163
  603MOL0     C81328   1.109   9.234   1.371  1.0443 -0.5631  0.4670
  603MOL0     O81329   0.999   9.319   1.368  0.5531  0.0377 -0.2550
  603MOL0     C81330   0.914   9.301   1.250 -0.6598 -1.2370 -0.4494
  603MOL0     C81331   0.800   9.213   1.293 -0.5011  0.5602 -0.5584
  603MOL0     C81332   0.696   9.194   1.180 -0.6283 -0.3631 -0.1313
  603MOL0     C81333   0.561   9.153   1.237 -0.1305 -0.0690  0.2789
  603MOL0     C81334   0.456   9.121   1.143  0.2777 -0.3540 -0.1882
  603MOL0     C81335   0.360   9.092   1.077  0.2824 -0.1300  0.5583
  603MOL0     C81336   1.196   9.202   1.258 -0.4382  0.0874 -0.1381
  603MOL0     C81337   1.304   9.115   1.273  0.0133  0.1720  0.2792
  603MOL0     H81338   1.522   8.680   1.432  0.1033 -0.2730 -0.2166
  603MOL0     H81339   1.637   8.492   1.379 -1.6886  0.0837  0.3351
  603MOL0     H81340   1.964   8.541   1.060 -0.0407  1.2122  0.3390
  603MOL0     H81341   2.028   8.533   1.231  2.8461 -2.0162 -1.8260
  603MOL0     H81342   2.059   8.326   1.240 -0.1491  1.6958  0.5644
  603MOL0     H81343   1.995   8.276   1.080 -2.7798  0.1697  1.9722
  603MOL0     H81344   2.166   8.402   0.960 -1.7402 -0.1715  0.5849
  603MOL0     H81345   2.222   8.477   1.110  3.2793 -2.9396  3.3225
  603MOL0     H81346   2.305   8.256   1.194  2.5002  1.1055 -0.0644
  603MOL0     H81347   2.238   8.171   1.054 -0.5059  1.4027 -2.3441
  603MOL0     H81348   2.391   8.306   0.907 -1.0110  2.1689  0.4484
  603MOL0     H81349   2.439   8.391   1.052 -2.8883 -0.0060  1.2792
  603MOL0     H81350   2.614   8.245   0.969  0.3474 -3.2607 -1.8818
  603MOL0     H81351   2.566   8.193   1.129 -0.9340 -3.6726  0.0769
  603MOL0     H81352   2.411   8.019   1.013 -0.8207 -0.6844 -1.9194
  603MOL0     H81353   2.522   8.043   0.873  3.6796 -0.3901  0.6467
  603MOL0     H81354   2.633   7.955   1.133  0.3605 -1.5990 -0.1551
  603MOL0     H81355   2.721   8.050   1.006 -0.6316 -0.4933 -0.0448
  603MOL0     H81356   2.877   7.850   0.936 -0.1503  0.4964  0.5859
  603MOL0     H81357   2.855   7.533   0.760  5.6318  0.6102  0.6573
  603MOL0     H81358   2.796   7.631   0.622  0.8564  0.7926 -0.8260
  603MOL0     H81359   3.039   7.723   0.802  0.9094  1.5673  0.8171
  603MOL0     H81360   2.972   7.811   0.681 -2.2079 -0.5076 -1.3725
  603MOL0     H81361   3.013   7.607   0.513 -1.0525 -0.0659  0.5735
  603MOL0     H81362   3.097   7.535   0.647 -0.4940 -0.4991 -0.8806
  603MOL0     H81363   3.257   7.733   0.646 -1.7823 -0.8548  1.5364
  603MOL0     H81364   3.162   7.807   0.512 -1.6118  1.5486  2.4600
  603MOL0     H81365   3.341   7.882   0.440 -0.3646  1.5789 -1.7533
  603MOL0     H81366   3.506   8.059   0.279  2.1499  1.1872  0.6209
  603MOL0     H81367   3.511   8.045   0.443 -1.1230  1.9950 -1.5115
  603MOL0     H81368   3.668   8.034   0.352  0.1202  0.7573  0.6414
  603MOL0     H81369   3.885   7.864  -0.054  0.5694  2.3503  0.4902
  603MOL0     H81370   4.105   7.846  -0.180 -1.4500  0.1343 -1.7620
  603MOL0     H81371   4.416   7.602  -0.011  1.1049 -1.2684  0.7358
  603MOL0     H81372   4.338   7.472  -0.088 -2.0244  1.8526  0.8877
  603MOL0     H81373   4.544   7.479  -0.227  0.1447  0.3155 -0.2934
  603MOL0     H81374   4.464   7.618  -0.305 -0.6844  0.9995  0.9950
  603MOL0     H81375   4.653   7.601  -0.062  0.5960 -2.5674 -1.0754
  603MOL0     H81376   4.573   7.756  -0.105  0.1214  0.4310  0.7072
  603MOL0     H81377   4.760   7.587  -0.270  2.8681  0.5749 -0.0035
  603MOL0     H81378   4.667   7.735  -0.332  1.7866  1.3394 -0.1964
  603MOL0     H81379   4.836   7.746  -0.081 -2.2706  0.0519  1.2694
  603MOL0     H81380   4.751   7.877  -0.173 -2.0372 -0.0292  0.1908
  603MOL0     H81381   4.979   7.721  -0.311  0.2387 -0.2942 -0.1708
  603MOL0     H81382   4.887   7.850  -0.371  3.2103 -2.5519 -2.3443
  603MOL0     H81383   4.946   7.974  -0.149 -0.9060 -2.8391  0.3703
  603MOL0     H81384   5.073   7.976  -0.274 -0.4133  0.9981  0.6717
  603MOL0     H81385   5.082   7.771  -0.047  2.6215 -2.0133 -0.7192
  603MOL0     H81386   5.141   7.941  -0.053  0.9553  2.4692 -1.7309
  603MOL0     H81387   4.181   7.482   0.020 -1.0482 -0.5446 -0.4558
  603MOL0     H81388   3.967   7.493   0.148 -1.6789  2.3603  3.2426
  603MOL0     H81389   3.624   7.556   0.209 -0.7267 -1.6236  2.6729
  603MOL0     H81390   3.436   7.481   0.339  0.6401  0.7341  4.0175
  603MOL0     H81391   1.799   8.684   1.031 -0.9631  1.0329 -0.6331
  603MOL0     H81392   1.674   8.879   1.087 -0.3567  1.5371  0.6304
  603MOL0     H81393   1.237   9.011   1.591  0.3103  1.8315  0.8012
  603MOL0     H81394   1.076   9.197   1.580  0.1938  3.0043 -1.1126
  603MOL0     H81395   0.881   9.400   1.217  0.8185  0.4290  2.5767
  603MOL0     H81396   0.969   9.253   1.169  0.8327  1.6121 -1.2761
  603MOL0     H81397   0.746   9.265   1.372  0.7326 -0.3318  0.9120
  603MOL0     H81398   0.832   9.118   1.335 -4.3793  0.5397  2.9897
  603MOL0     H81399   0.724   9.108   1.119  0.2168  0.4377 -0.8924
  603MOL0     H81400   0.676   9.276   1.111 -1.4059 -1.9265 -1.8587
  603MOL0     H81401   0.523   9.228   1.306 -0.3749 -0.8667  1.0332
  603MOL0     H81402   0.574   9.063   1.297  2.5769 -0.4706 -0.7748
  603MOL0     H81403   0.290   9.065   1.001  1.8087 -0.1017 -0.9352
  603MOL0     H81404   1.184   9.258   1.166 -0.3184  1.8994  0.9025
  603MOL0     H81405   1.362   9.095   1.184  1.9992  1.3544  1.2190
  604MOL0     O81406   1.179  10.569   3.810 -0.5691 -0.1963  0.3644
  604MOL0     C81407   1.273  10.577   3.726  0.4086  0.0062 -0.3360
  604MOL0     O81408   1.256  10.597   3.588  0.1626  0.4240 -1.4220
  604MOL0     C81409   1.133  10.561   3.537  0.5227 -0.3434 -0.0313
  604MOL0     C81410   1.011  10.609   3.582  0.1247  0.9831 -0.0475
  604MOL0     C81411   0.884  10.568   3.524 -0.0730 -0.6316 -0.8307
  604MOL0     C81412   0.882  10.480   3.412  0.4890  0.0663  1.0317
  604MOL0     O81413   0.766  10.434   3.353  0.0192 -0.2475 -0.4092
  604MOL0     C81414   0.687  10.363   3.453 -0.4701  0.4214 -0.5179
  604MOL0     C81415   0.555  10.308   3.389  0.5246 -0.2235 -0.2520
  604MOL0     C81416   0.464  10.421   3.337 -0.2161  0.0733 -0.4310
  604MOL0     C81417   0.380  10.498   3.445  0.0382  1.4227 -0.3106
  604MOL0     C81418   0.283  10.605   3.397 -0.2151  0.3898 -0.5231
  604MOL0     C81419   0.175  10.548   3.303  0.4195  0.6602  0.2909
  604MOL0     C81420   0.077  10.652   3.266 -0.1633  0.5697 -0.4859
  604MOL0     C81421  -0.030  10.673   3.369  0.3902  0.8300 -0.8206
  604MOL0     N81422  -0.129  10.769   3.308 -0.2007  0.4145  0.1391
  604MOL0     C81423  -0.256  10.739   3.260 -0.3267 -1.1382 -0.1441
  604MOL0     C81424  -0.315  10.853   3.217  0.3019  1.0842 -0.4126
  604MOL0     C81425  -0.455  10.873   3.169  0.2802  0.4778  0.1373
  604MOL0     C81426  -0.440  10.877   3.017  0.0943  0.7126 -1.1922
  604MOL0     C81427  -0.559  10.823   2.951 -0.0245  0.3376  0.0090
  604MOL0     C81428  -0.700  10.890   2.986  0.0510 -0.0483  0.1757
  604MOL0     O81429  -0.799  10.863   2.884 -0.2769  0.5554 -0.3714
  604MOL0     C81430  -0.892  10.957   2.848 -0.5279 -0.0610  0.4881
  604MOL0     C81431  -0.967  10.929   2.729  0.2391 -0.2099 -0.9780
  604MOL0     C81432  -1.074  11.010   2.692  0.0890  0.3509 -0.4752
  604MOL0     C81433  -1.146  10.965   2.568  0.4769 -0.2877 -0.5890
  604MOL0     C81434  -1.114  11.122   2.772 -0.8340  1.1485  0.6104
  604MOL0     C81435  -1.233  11.204   2.741 -0.5474 -0.1940 -0.6931
  604MOL0     O81436  -1.308  11.177   2.636  0.3357  0.0376  0.9038
  604MOL0     C81437  -1.434  11.231   2.618  0.1020  0.7742  0.2939
  604MOL0     C81438  -1.521  11.131   2.578  0.1438 -0.3979  0.1269
  604MOL0     C81439  -1.658  11.153   2.572 -0.1071  0.3494  0.2398
  604MOL0     C81440  -1.706  11.282   2.605  0.2083  0.1901 -0.5332
  604MOL0     O81441  -1.841  11.300   2.618  0.1546  0.5148  0.1148
  604MOL0     C81442  -1.898  11.412   2.702  0.4047  0.4896  0.2447
  604MOL0     C81443  -2.049  11.400   2.716  0.3996 -0.0285  0.0209
  604MOL0     C81444  -2.102  11.515   2.793  0.2647 -0.6259 -0.9774
  604MOL0     C81445  -2.250  11.537   2.779 -0.3441  0.3956 -0.5551
  604MOL0     C81446  -2.302  11.676   2.831 -0.1681  0.0273  0.0210
  604MOL0     C81447  -2.263  11.799   2.743 -0.0099  0.5877  0.0998
  604MOL0     C81448  -2.271  11.937   2.819 -0.4498  0.2885  0.0223
  604MOL0     C81449  -2.370  12.040   2.764 -0.2343  0.9684  0.1147
  604MOL0    Cl81450  -2.310  12.196   2.770 -0.1756 -0.0597 -0.0695
  604MOL0     C81451  -1.609  11.392   2.622  0.9320 -0.3322 -0.3458
  604MOL0     C81452  -1.475  11.362   2.625  0.0997 -0.2374  0.0863
  604MOL0     O81453  -1.250  11.307   2.810  0.8820 -0.3465  0.6559
  604MOL0     C81454  -1.034  11.150   2.891  0.2536 -0.6908 -0.3495
  604MOL0     C81455  -0.935  11.061   2.934  0.1865  0.6016  0.5327
  604MOL0     N81456  -0.216  10.951   3.222  0.1517 -0.5445 -0.9339
  604MOL0     N81457  -0.112  10.905   3.287 -0.8127  0.4973  0.1219
  604MOL0     C81458   1.003  10.439   3.363  0.0098 -0.5531 -0.6248
  604MOL0     C81459   1.123  10.475   3.425 -0.1775 -0.6160 -0.7327
  604MOL0     C81460   1.409  10.550   3.772  0.0564  0.6060  0.2480
  604MOL0     C81461   1.445  10.541   3.909  0.2978  0.3712  0.1073
  604MOL0     C81462   1.577  10.515   3.946 -0.2666 -0.4248 -0.0809
  604MOL0     C81463   1.681  10.508   3.850 -1.2501 -0.1537 -0.4665
  604MOL0     O81464   1.804  10.501   3.902 -0.7988  0.2152  0.4859
  604MOL0     C81465   1.912  10.473   3.818  0.1523 -0.6526  0.1511
  604MOL0     C81466   1.932  10.327   3.804  0.0016  0.0318 -0.0459
  604MOL0     C81467   2.017  10.259   3.915 -0.3565  0.6631  0.2272
  604MOL0     C81468   2.148  10.202   3.852  0.3424  0.9930 -0.3018
  604MOL0     C81469   2.225  10.316   3.804  0.2850  0.7746  0.0549
  604MOL0     C81470   2.295  10.413   3.764  0.4535 -0.4209  0.4046
  604MOL0     C81471   1.643  10.498   3.719  0.0729  0.6611 -0.1978
  604MOL0     C81472   1.511  10.526   3.678 -0.1959 -0.3242  0.4736
  604MOL0     H81473   1.008  10.668   3.673  1.1319 -1.5105  1.7028
  604MOL0     H81474   0.791  10.610   3.562  1.2793  2.0021 -0.1990
  604MOL0     H81475   0.741  10.276   3.492  0.7047  0.5788 -1.7131
  604MOL0     H81476   0.668  10.428   3.539 -1.0353 -0.8308  0.3412
  604MOL0     H81477   0.566  10.235   3.308 -0.4699  0.3406 -0.9057
  604MOL0     H81478   0.501  10.259   3.471 -0.7053 -0.1267 -0.9872
  604MOL0     H81479   0.523  10.497   3.285  2.0199 -1.1264  0.2102
  604MOL0     H81480   0.390  10.379   3.268 -1.8275 -1.0870  1.8499
  604MOL0     H81481   0.322  10.421   3.496  0.3377  2.9042  2.4814
  604MOL0     H81482   0.445  10.545   3.521 -1.2599  2.6771  0.0682
  604MOL0     H81483   0.241  10.655   3.485  1.4255  1.8690 -0.5119
  604MOL0     H81484   0.343  10.680   3.343  2.9772  0.8345  3.2201
  604MOL0     H81485   0.223  10.504   3.215  0.4549  0.0854  0.5940
  604MOL0     H81486   0.140  10.459   3.356  0.5111  0.0434 -0.6570
  604MOL0     H81487   0.126  10.747   3.240  4.2188 -1.4542 -0.4582
  604MOL0     H81488   0.030  10.618   3.174  1.0970 -2.9882  0.0466
  604MOL0     H81489   0.019  10.711   3.459 -3.2148  0.2064  1.5921
  604MOL0     H81490  -0.084  10.580   3.389 -2.6131  2.5574 -0.2398
  604MOL0     H81491  -0.309  10.645   3.265  0.6390 -1.6660  0.3111
  604MOL0     H81492  -0.511  10.786   3.204  3.7485 -1.7950  0.5076
  604MOL0     H81493  -0.506  10.961   3.211  0.7579  2.1146 -2.4835
  604MOL0     H81494  -0.356  10.807   3.008  0.9536  0.8198  3.5668
  604MOL0     H81495  -0.399  10.972   2.981  0.6035  0.8477 -0.2782
  604MOL0     H81496  -0.578  10.716   2.963 -2.6716  0.5551 -1.5507
  604MOL0     H81497  -0.537  10.830   2.844 -2.5394  0.7596 -0.5416
  604MOL0     H81498  -0.682  10.998   2.975  0.1328 -0.2888 -2.7749
  604MOL0     H81499  -0.739  10.859   3.083 -2.1441  0.8303 -0.3570
  604MOL0     H81500  -0.946  10.844   2.664 -1.0026 -0.5939 -0.9008
  604MOL0     H81501  -1.251  10.945   2.590  0.2497  0.3919 -1.0181
  604MOL0     H81502  -1.138  11.038   2.486  2.3603 -1.9382 -1.9979
  604MOL0     H81503  -1.106  10.871   2.529  3.2131  0.7637 -0.5708
  604MOL0     H81504  -1.483  11.033   2.553 -1.5404 -0.5021 -2.3713
  604MOL0     H81505  -1.724  11.071   2.550  2.5023 -1.6439 -0.7279
  604MOL0     H81506  -1.857  11.397   2.802  0.1590 -0.8720  0.1560
  604MOL0     H81507  -1.870  11.507   2.655 -0.2476 -0.5016 -2.3183
  604MOL0     H81508  -2.094  11.401   2.616  3.6092 -3.8677 -1.7672
  604MOL0     H81509  -2.081  11.308   2.765  1.9575 -2.8843 -3.8160
  604MOL0     H81510  -2.049  11.606   2.766  3.1744 -1.8683  0.1145
  604MOL0     H81511  -2.081  11.491   2.898  4.1045 -2.1198 -1.9211
  604MOL0     H81512  -2.278  11.535   2.674 -2.0837  0.0789 -0.1260
  604MOL0     H81513  -2.312  11.454   2.814 -1.9982  0.4432 -3.1014
  604MOL0     H81514  -2.283  11.696   2.937  1.3223  2.2671 -0.6005
  604MOL0     H81515  -2.411  11.665   2.835 -0.9982  5.4577  1.5010
  604MOL0     H81516  -2.161  11.783   2.708  0.9671  1.7338  2.2091
  604MOL0     H81517  -2.330  11.795   2.657  2.2423  0.4734 -1.7332
  604MOL0     H81518  -2.171  11.980   2.812 -1.2745  2.2770 -0.3259
  604MOL0     H81519  -2.292  11.924   2.926  0.4872  0.1004  0.1914
  604MOL0     H81520  -2.459  12.024   2.825 -0.4550  1.5698 -0.0355
  604MOL0     H81521  -2.397  12.016   2.661 -1.2917 -3.0998  1.1839
  604MOL0     H81522  -1.637  11.496   2.638  2.1714 -0.1232  0.5912
  604MOL0     H81523  -1.402  11.441   2.642 -1.3328  1.5933 -1.8083
  604MOL0     H81524  -1.068  11.232   2.953  0.4258  0.1876 -1.3882
  604MOL0     H81525  -0.887  11.082   3.029 -0.1099  1.6506  0.4601
  604MOL0     H81526   1.005  10.381   3.271 -0.1454 -3.6075  1.1445
  604MOL0     H81527   1.210  10.436   3.374 -0.8546 -0.1947 -2.2923
  604MOL0     H81528   1.373  10.560   3.989 -0.3212 -1.0918 -0.0674
  604MOL0     H81529   1.604  10.519   4.051  1.8888  1.5624 -0.6211
  604MOL0     H81530   1.904  10.529   3.725  1.9653 -0.4283  0.1010
  604MOL0     H81531   2.001  10.505   3.873 -0.4858 -1.4361  1.7013
  604MOL0     H81532   1.984  10.317   3.708  1.1898 -1.3313  0.7134
  604MOL0     H81533   1.837  10.273   3.814 -0.5386  1.3179  2.9291
  604MOL0     H81534   1.963  10.172   3.954  1.6628 -2.5657 -3.5203
  604MOL0     H81535   2.037  10.322   4.002 -1.0241 -0.2872  1.0939
  604MOL0     H81536   2.123  10.128   3.775 -2.6994  3.2351 -1.6336
  604MOL0     H81537   2.209  10.150   3.927 -0.1457 -2.2513 -1.9804
  604MOL0     H81538   2.324  10.505   3.718 -2.5595  0.1956 -0.4884
  604MOL0     H81539   1.723  10.475   3.649  0.9015  0.4092  0.8022
  604MOL0     H81540   1.491  10.543   3.572  2.3885 -1.5418 -0.2894
  605MOL0     O81541   5.408   9.558   8.710 -0.3420  0.0579 -0.7365
  605MOL0     C81542   5.461   9.540   8.825 -0.5590  1.0482 -0.1409
  605MOL0     O81543   5.420   9.594   8.949  0.4030 -0.5063 -0.3323
  605MOL0     C81544   5.299   9.662   8.966  0.2246 -0.2840  0.3617
  605MOL0     C81545   5.286   9.741   9.085 -0.3857 -0.5072 -0.0722
  605MOL0     C81546   5.161   9.793   9.123 -0.3943  0.2289 -0.3167
  605MOL0     C81547   5.058   9.778   9.041  0.4938  0.1453  0.3010
  605MOL0     O81548   4.942   9.838   9.085 -0.3002 -0.0489  0.7838
  605MOL0     C81549   4.879   9.772   9.191 -0.0026  0.0197  0.4672
  605MOL0     C81550   4.735   9.754   9.134  0.0932  0.4411 -0.0927
  605MOL0     C81551   4.650   9.880   9.135 -0.8629 -0.5976  0.8379
  605MOL0     C81552   4.495   9.850   9.109  0.5706  0.2002 -0.4324
  605MOL0     C81553   4.408   9.959   9.171 -0.8718 -0.1548 -0.0641
  605MOL0     C81554   4.266   9.920   9.185  0.2519  0.3953 -0.6665
  605MOL0     C81555   4.190   9.900   9.052  0.0449  0.4844 -0.3858
  605MOL0     C81556   4.030   9.900   9.071 -0.1489  0.0010 -0.9189
  605MOL0     N81557   3.953   9.848   8.962 -0.5426  0.8333  0.2313
  605MOL0     C81558   3.970   9.872   8.829  0.2152  0.1513 -0.1968
  605MOL0     C81559   3.874   9.817   8.760 -0.0363  0.1102 -0.3864
  605MOL0     C81560   3.858   9.835   8.611 -0.3013 -0.5585  0.1002
  605MOL0     C81561   3.765   9.950   8.572 -0.0539 -0.4167  0.1477
  605MOL0     C81562   3.783   9.994   8.422  0.2089 -0.1532 -0.3070
  605MOL0     C81563   3.679  10.101   8.376 -0.2121  0.3465 -0.1332
  605MOL0     O81564   3.568  10.032   8.323  0.3687 -1.6315 -0.5877
  605MOL0     C81565   3.484  10.114   8.251  1.3004  0.5877 -0.5096
  605MOL0     C81566   3.449  10.242   8.294  0.6046  0.2978 -0.3562
  605MOL0     C81567   3.348  10.322   8.228  0.4148  0.2133  0.4541
  605MOL0     C81568   3.315  10.454   8.287  0.4232  0.5469 -0.7493
  605MOL0     C81569   3.286  10.275   8.113 -1.0232  0.6170  0.4195
  605MOL0     C81570   3.195  10.345   8.023 -0.2900  0.3276  0.4727
  605MOL0     O81571   3.144  10.269   7.918  0.1347 -0.2541  0.2876
  605MOL0     C81572   3.048  10.333   7.848 -0.6262  0.0385  0.5299
  605MOL0     C81573   2.916  10.338   7.885 -0.7185  0.4234 -0.7455
  605MOL0     C81574   2.823  10.383   7.800 -0.2834 -0.6891  0.2699
  605MOL0     C81575   2.859  10.435   7.667  0.4152  0.5375  0.5335
  605MOL0     O81576   2.764  10.488   7.587 -0.7192  0.3016 -0.2541
  605MOL0     C81577   2.628  10.456   7.609 -0.5782 -0.1822 -0.0215
  605MOL0     C81578   2.539  10.496   7.488  0.6629  0.0855  0.8502
  605MOL0     C81579   2.538  10.649   7.478  1.0669  0.8570 -0.1055
  605MOL0     C81580   2.461  10.693   7.354  0.3544 -0.7563  0.4214
  605MOL0     C81581   2.441  10.847   7.359  0.5838 -0.0444  0.0262
  605MOL0     C81582   2.341  10.914   7.262  0.2922  0.1896  0.0337
  605MOL0     C81583   2.211  10.859   7.253  0.5135  0.1447 -1.4738
  605MOL0     C81584   2.148  10.875   7.401 -0.3565 -0.5960 -0.0594
  605MOL0    Cl81585   2.147  11.048   7.458  0.1433  0.2402 -0.1279
  605MOL0     C81586   2.993  10.429   7.625  0.1488 -0.9737 -0.9601
  605MOL0     C81587   3.082  10.381   7.723  0.5350  0.2914 -0.8332
  605MOL0     O81588   3.138  10.451   8.067 -0.6503 -0.7597  0.0258
  605MOL0     C81589   3.331  10.141   8.065  0.1972 -0.5601 -0.1931
  605MOL0     C81590   3.422  10.064   8.136  0.0351  0.9407  0.5171
  605MOL0     N81591   3.792   9.749   8.845 -0.0494 -0.5236  0.5184
  605MOL0     N81592   3.846   9.770   8.966 -0.1225  0.8562  0.3078
  605MOL0     C81593   5.055   9.693   8.934 -0.1625  0.1007  0.2951
  605MOL0     C81594   5.178   9.640   8.893  0.0437  0.5172 -0.2642
  605MOL0     C81595   5.583   9.458   8.830  0.0418  0.4586 -0.3045
  605MOL0     C81596   5.643   9.396   8.712  0.5043 -0.0754 -0.5365
  605MOL0     C81597   5.733   9.290   8.727  0.6328 -0.3369  0.7136
  605MOL0     C81598   5.794   9.256   8.853  1.2505 -0.0706  0.6590
  605MOL0     O81599   5.901   9.176   8.856  0.3403  0.3788 -0.6337
  605MOL0     C81600   5.903   9.082   8.967 -1.2070  0.4977  0.4097
  605MOL0     C81601   5.902   8.929   8.925  0.8877  0.2623 -0.8467
  605MOL0     C81602   6.013   8.890   8.828 -0.6369 -0.0804 -0.1652
  605MOL0     C81603   6.151   8.916   8.876 -0.0570  0.4553  0.4007
  605MOL0     C81604   6.254   8.860   8.784 -0.6216 -0.4206  0.3270
  605MOL0     C81605   6.358   8.822   8.727  0.1069 -1.0065 -0.0066
  605MOL0     C81606   5.755   9.332   8.964  0.2926  0.9458 -0.0004
  605MOL0     C81607   5.647   9.424   8.950 -0.9350 -0.5725  0.3310
  605MOL0     H81608   5.369   9.750   9.154 -1.6066  1.7616  1.2145
  605MOL0     H81609   5.152   9.861   9.207 -2.2903 -1.5203  0.9892
  605MOL0     H81610   4.921   9.673   9.212  1.9981  1.0927  1.9072
  605MOL0     H81611   4.870   9.833   9.282  1.9108 -1.2043  1.5620
  605MOL0     H81612   4.734   9.710   9.033 -0.9746 -3.4620  1.4228
  605MOL0     H81613   4.686   9.671   9.186 -0.8134  0.8470 -0.2859
  605MOL0     H81614   4.671   9.923   9.233  0.8320 -0.2421  0.3468
  605MOL0     H81615   4.695   9.941   9.056 -3.0725 -1.5334 -1.2979
  605MOL0     H81616   4.476   9.856   9.001  1.4663 -0.3198 -0.6289
  605MOL0     H81617   4.476   9.753   9.155  1.5986 -0.4809 -1.3836
  605MOL0     H81618   4.454   9.977   9.268  1.3843 -1.1050 -0.8969
  605MOL0     H81619   4.425  10.045   9.104 -0.0754 -1.1363 -1.1615
  605MOL0     H81620   4.257   9.832   9.250 -0.9526  1.1033  0.1667
  605MOL0     H81621   4.208   9.995   9.239 -2.7140 -1.0774 -1.5518
  605MOL0     H81622   4.203   9.967   8.966 -3.2435  3.0677  0.9068
  605MOL0     H81623   4.210   9.799   9.015 -1.8416  0.1799 -0.6882
  605MOL0     H81624   3.998  10.000   9.100  2.2098  0.7298 -0.6415
  605MOL0     H81625   4.006   9.839   9.159  3.6321 -0.6251 -0.1462
  605MOL0     H81626   4.043   9.943   8.793  1.2072 -0.5231  0.4223
  605MOL0     H81627   3.958   9.865   8.579 -0.6258  0.1194 -0.3083
  605MOL0     H81628   3.841   9.739   8.561  1.1991 -1.1717  0.6998
  605MOL0     H81629   3.791  10.038   8.631  0.3553  1.2463 -2.3191
  605MOL0     H81630   3.660   9.933   8.596 -0.2185  3.0611  2.5250
  605MOL0     H81631   3.780   9.917   8.345  0.4235 -0.1688 -0.3007
  605MOL0     H81632   3.882  10.040   8.415 -0.4913  1.4055 -0.2961
  605MOL0     H81633   3.736  10.158   8.302  2.2516 -2.8311 -0.9103
  605MOL0     H81634   3.650  10.161   8.463 -0.8022  0.5319 -0.4505
  605MOL0     H81635   3.491  10.279   8.386  0.1561 -0.3968  0.1311
  605MOL0     H81636   3.314  10.538   8.218 -2.1120  0.5606 -0.8138
  605MOL0     H81637   3.216  10.449   8.334  0.6189  2.4826 -0.0227
  605MOL0     H81638   3.388  10.489   8.361 -2.1674  2.1443  1.2264
  605MOL0     H81639   2.884  10.296   7.979 -0.0656  1.0090 -0.2556
  605MOL0     H81640   2.720  10.381   7.835  0.1904 -1.8883  1.7099
  605MOL0     H81641   2.628  10.348   7.623  0.7452  0.0492  2.2792
  605MOL0     H81642   2.589  10.504   7.699 -1.1769  0.1451 -0.4462
  605MOL0     H81643   2.567  10.465   7.387 -3.2853  0.2202 -0.4809
  605MOL0     H81644   2.436  10.471   7.515  0.8776 -1.0267  0.6794
  605MOL0     H81645   2.643  10.678   7.482  1.8112 -1.6633  0.3159
  605MOL0     H81646   2.481  10.691   7.562 -0.1205 -0.7141 -0.0659
  605MOL0     H81647   2.510  10.672   7.259 -0.4819 -1.8602  0.2188
  605MOL0     H81648   2.366  10.640   7.342  1.1803 -1.8318 -2.0127
  605MOL0     H81649   2.532  10.900   7.328  0.1704  1.6394  1.4855
  605MOL0     H81650   2.423  10.867   7.465 -0.2694 -3.0631  0.5323
  605MOL0     H81651   2.333  11.021   7.282  1.5188  0.1118  1.0802
  605MOL0     H81652   2.393  10.900   7.166  0.8269  1.0227  0.1910
  605MOL0     H81653   2.214  10.752   7.233 -1.2795 -0.0472 -0.8529
  605MOL0     H81654   2.140  10.907   7.185  0.8605  0.6800 -1.4676
  605MOL0     H81655   2.213  10.826   7.474  2.3567  3.8171  0.8996
  605MOL0     H81656   2.043  10.844   7.397 -1.2744  2.3640 -1.4859
  605MOL0     H81657   3.030  10.474   7.533 -2.7571  0.2248 -1.6540
  605MOL0     H81658   3.189  10.376   7.702  0.8451  2.3916  0.0331
  605MOL0     H81659   3.293  10.097   7.974  2.0942  0.2337 -1.4187
  605MOL0     H81660   3.452   9.963   8.107  0.9066  1.1695  0.6175
  605MOL0     H81661   4.970   9.678   8.868 -0.8987  1.7780  0.8025
  605MOL0     H81662   5.175   9.584   8.800 -0.8677 -2.5302  1.4480
  605MOL0     H81663   5.615   9.419   8.610  2.0012 -1.5480 -1.3166
  605MOL0     H81664   5.769   9.246   8.634 -2.1854 -0.9447 -0.1822
  605MOL0     H81665   5.999   9.105   9.012  0.2782 -0.3256 -2.1312
  605MOL0     H81666   5.824   9.102   9.041  0.6250 -0.5600  2.7778
  605MOL0     H81667   5.803   8.911   8.881  1.7373 -0.4222 -2.5662
  605MOL0     H81668   5.914   8.865   9.014  4.2117  2.9281  0.8458
  605MOL0     H81669   5.985   8.942   8.736 -1.7544 -0.2982  0.0387
  605MOL0     H81670   6.013   8.781   8.818  0.4597 -0.4542  2.8800
  605MOL0     H81671   6.161   8.886   8.981 -1.7714  0.3528  0.5706
  605MOL0     H81672   6.162   9.025   8.867 -0.8900  1.0796  4.5123
  605MOL0     H81673   6.448   8.778   8.688 -0.5841 -2.9874  0.4832
  605MOL0     H81674   5.801   9.327   9.062 -0.4797  0.1237  0.3438
  605MOL0     H81675   5.620   9.482   9.038  1.0880 -2.1804  2.1221
  606MOL0     O81676   9.661  11.249   6.400  0.6569 -0.2049  0.2148
  606MOL0     C81677   9.673  11.233   6.279 -0.2171  0.0566  0.1905
  606MOL0     O81678   9.578  11.261   6.187  0.0278 -0.0105 -0.1248
  606MOL0     C81679   9.474  11.330   6.234  0.2030  0.0245 -0.1525
  606MOL0     C81680   9.467  11.471   6.264 -0.8197 -0.4447 -0.2583
  606MOL0     C81681   9.348  11.537   6.304 -0.0453  0.0043  0.8963
  606MOL0     C81682   9.233  11.458   6.310  0.6369 -0.3376  0.3657
  606MOL0     O81683   9.123  11.534   6.337  0.3527 -0.4815 -0.8638
  606MOL0     C81684   8.991  11.480   6.338 -0.8472 -0.0957  0.5305
  606MOL0     C81685   8.890  11.576   6.395 -0.3953  0.8937  0.3820
  606MOL0     C81686   8.853  11.710   6.312 -0.0636  0.1404  0.6059
  606MOL0     C81687   8.764  11.798   6.403  0.2951 -0.2248  0.1869
  606MOL0     C81688   8.754  11.944   6.352 -0.1759 -0.5577 -0.0279
  606MOL0     C81689   8.668  12.022   6.451 -0.2817 -0.1965 -0.2877
  606MOL0     C81690   8.518  11.972   6.467 -0.4538 -0.6353 -0.1598
  606MOL0     C81691   8.444  11.989   6.340  0.2318  0.0373  0.1613
  606MOL0     N81692   8.298  11.960   6.358 -0.4166 -0.6554 -0.1969
  606MOL0     C81693   8.209  12.056   6.391 -0.2415  0.4698 -0.4436
  606MOL0     C81694   8.088  11.987   6.402  0.2515 -0.4514 -0.7433
  606MOL0     C81695   7.946  12.040   6.417  0.3146  0.7479 -0.8577
  606MOL0     C81696   7.885  11.973   6.533  0.1575 -0.7133  0.8155
  606MOL0     C81697   7.760  12.060   6.572  0.0250 -0.0856 -0.6642
  606MOL0     C81698   7.653  12.044   6.460 -0.1958 -0.2127 -0.9906
  606MOL0     O81699   7.521  12.038   6.508 -0.0445 -0.0714  0.1918
  606MOL0     C81700   7.412  12.000   6.434 -0.0517 -0.1551 -0.2557
  606MOL0     C81701   7.310  11.932   6.499 -0.8550 -0.7473  0.2523
  606MOL0     C81702   7.192  11.907   6.436 -0.3438  0.6637  0.2975
  606MOL0     C81703   7.095  11.823   6.501  0.5137  0.0078 -0.1097
  606MOL0     C81704   7.176  11.948   6.300  0.1523 -0.1309 -0.1261
  606MOL0     C81705   7.053  11.910   6.219 -0.1247  0.7565  0.0873
  606MOL0     O81706   6.938  11.870   6.285  0.3454  0.8256 -0.2697
  606MOL0     C81707   6.826  11.832   6.220 -0.5255 -0.7869 -0.8884
  606MOL0     C81708   6.702  11.878   6.261  0.1488 -0.3587 -0.3591
  606MOL0     C81709   6.587  11.830   6.199  0.1901  0.5833 -0.4633
  606MOL0     C81710   6.594  11.749   6.085  0.3164  0.5521  0.5988
  606MOL0     O81711   6.491  11.697   6.013  0.5262  0.5614  0.0764
  606MOL0     C81712   6.352  11.705   6.058 -0.4838 -0.1203  0.5907
  606MOL0     C81713   6.268  11.704   5.933 -0.3903  0.6280  0.7056
  606MOL0     C81714   6.124  11.714   5.981 -0.5543 -0.5885 -0.9790
  606MOL0     C81715   6.063  11.856   5.979 -0.0549 -0.7568 -0.2539
  606MOL0     C81716   5.915  11.849   6.004  0.6577  0.0291 -0.0162
  606MOL0     C81717   5.840  11.984   5.972 -0.1660  0.1869 -0.4418
  606MOL0     C81718   5.693  11.962   6.000  0.2314 -0.4846  0.2211
  606MOL0     C81719   5.626  12.056   6.087 -0.1439 -0.5867 -0.5412
  606MOL0    Cl81720   5.449  12.029   6.080  0.2867  0.0296 -0.1912
  606MOL0     C81721   6.719  11.703   6.045 -0.0888  0.2057 -0.2869
  606MOL0     C81722   6.835  11.735   6.115  0.0308 -0.1949  0.4801
  606MOL0     O81723   7.061  11.922   6.099 -0.0932  0.3125 -0.4342
  606MOL0     C81724   7.279  12.016   6.230  0.7292 -0.6528 -0.4108
  606MOL0     C81725   7.394  12.044   6.309  0.2094  0.1971  0.2273
  606MOL0     N81726   8.116  11.854   6.374  0.6305  0.5397  0.7947
  606MOL0     N81727   8.239  11.840   6.347  0.2004 -0.3581 -0.1075
  606MOL0     C81728   9.232  11.322   6.281  0.0577  0.4031  1.2220
  606MOL0     C81729   9.354  11.261   6.238  0.7092  0.6699 -0.5375
  606MOL0     C81730   9.810  11.204   6.219  0.0664  1.0465 -0.8851
  606MOL0     C81731   9.913  11.157   6.298 -1.2618  0.1393 -0.0893
  606MOL0     C81732  10.032  11.110   6.243  0.5681 -0.5700 -0.1916
  606MOL0     C81733  10.048  11.100   6.100  0.1926  0.0605  0.9417
  606MOL0     O81734  10.160  11.019   6.064  1.2653 -0.2695  0.2503
  606MOL0     C81735  10.187  11.006   5.927 -0.6412 -0.5729  0.3733
  606MOL0     C81736  10.320  10.931   5.895  0.0174  0.0525 -0.1392
  606MOL0     C81737  10.448  10.997   5.951  0.1578 -0.1200 -0.1127
  606MOL0     C81738  10.470  11.006   6.101 -0.3493 -0.0930 -0.4736
  606MOL0     C81739  10.601  11.060   6.130 -0.2489  0.3371 -0.4229
  606MOL0     C81740  10.706  11.116   6.155 -0.3055  0.3876  0.3889
  606MOL0     C81741   9.945  11.152   6.020  0.4624  0.3363 -0.7064
  606MOL0     C81742   9.825  11.205   6.078 -0.4931 -0.7968 -0.5400
  606MOL0     H81743   9.565  11.517   6.257 -0.8091 -0.5736 -1.0062
  606MOL0     H81744   9.361  11.643   6.322 -1.4819  0.7300 -1.7947
  606MOL0     H81745   8.959  11.452   6.238 -2.2734  5.1764 -0.7919
  606MOL0     H81746   8.989  11.387   6.395  1.4289  0.4956  1.7049
  606MOL0     H81747   8.795  11.521   6.406 -0.3026  0.1954 -1.8917
  606MOL0     H81748   8.929  11.595   6.495  1.1523  0.4991 -0.1181
  606MOL0     H81749   8.943  11.767   6.287 -1.6281  2.5402  0.1076
  606MOL0     H81750   8.802  11.683   6.219  0.0868 -0.8914  0.8059
  606MOL0     H81751   8.666  11.750   6.404  0.4467 -0.6296 -1.6505
  606MOL0     H81752   8.808  11.803   6.503 -1.2146  1.4648  0.8276
  606MOL0     H81753   8.850  11.995   6.363 -0.7104  0.7416 -1.1401
  606MOL0     H81754   8.722  11.957   6.248  1.6778  3.0911 -0.2899
  606MOL0     H81755   8.718  12.022   6.548  0.6231  2.1908 -0.6947
  606MOL0     H81756   8.663  12.128   6.425 -0.4377  0.7923  3.3095
  606MOL0     H81757   8.512  11.867   6.496  2.3106 -0.3039  2.0651
  606MOL0     H81758   8.462  12.029   6.541 -2.7662 -0.1067 -2.1936
  606MOL0     H81759   8.494  11.930   6.263  1.9459  1.1008  0.4136
  606MOL0     H81760   8.458  12.096   6.319 -1.4513  0.4636  1.0453
  606MOL0     H81761   8.233  12.161   6.397 -0.4463  0.4467  1.5677
  606MOL0     H81762   7.948  12.147   6.442  0.7067  1.4751 -3.6118
  606MOL0     H81763   7.898  12.033   6.319  1.5088 -2.9056 -1.3241
  606MOL0     H81764   7.956  11.977   6.615  0.8036  1.4522  0.2092
  606MOL0     H81765   7.864  11.871   6.498  0.3328  0.2878 -2.6443
  606MOL0     H81766   7.782  12.165   6.592  0.2484  0.1561 -2.0663
  606MOL0     H81767   7.715  12.023   6.664  1.9877 -0.3584  0.2406
  606MOL0     H81768   7.668  11.956   6.397 -0.4660 -0.3134 -0.9174
  606MOL0     H81769   7.655  12.130   6.393  0.0965  2.1700  1.8807
  606MOL0     H81770   7.319  11.918   6.606  2.3471  1.1714  0.3590
  606MOL0     H81771   7.089  11.732   6.440 -1.3848 -0.0267  0.0661
  606MOL0     H81772   7.127  11.782   6.597 -1.7252 -2.0711 -0.1610
  606MOL0     H81773   6.994  11.862   6.515 -0.4328 -2.6764  1.2941
  606MOL0     H81774   6.688  11.935   6.353 -2.3821 -0.5234 -0.5819
  606MOL0     H81775   6.494  11.869   6.239  0.6646  1.0773  0.1771
  606MOL0     H81776   6.328  11.620   6.123 -0.9019 -2.2515 -2.1874
  606MOL0     H81777   6.343  11.798   6.116  0.5665  1.7967 -2.1187
  606MOL0     H81778   6.294  11.783   5.862  0.1702 -0.2278 -0.0611
  606MOL0     H81779   6.281  11.603   5.892 -0.0171 -0.1387  2.5916
  606MOL0     H81780   6.132  11.699   6.089  1.1757  0.1972 -0.9649
  606MOL0     H81781   6.062  11.642   5.927 -0.9861  0.5446 -2.0427
  606MOL0     H81782   6.129  11.911   6.046  1.6448 -1.7136 -1.0740
  606MOL0     H81783   6.063  11.894   5.876  3.5711  3.5435  0.9911
  606MOL0     H81784   5.901  11.821   6.109  5.1739 -0.7870  0.5773
  606MOL0     H81785   5.880  11.771   5.936 -1.6257  0.8932  0.0690
  606MOL0     H81786   5.878  12.068   6.031 -2.2835  0.3637  0.7885
  606MOL0     H81787   5.840  12.008   5.865 -3.7338 -1.5969 -1.0184
  606MOL0     H81788   5.665  11.866   6.045  0.2345 -1.1106 -1.0706
  606MOL0     H81789   5.652  11.957   5.899 -0.5308  2.6139  0.2712
  606MOL0     H81790   5.638  12.161   6.060 -2.1739 -0.3836 -0.7694
  606MOL0     H81791   5.651  12.050   6.194 -1.3866 -1.1198 -0.2619
  606MOL0     H81792   6.721  11.630   5.965 -1.2182 -0.5035  0.3143
  606MOL0     H81793   6.934  11.696   6.093 -0.0212 -0.1622  0.1864
  606MOL0     H81794   7.273  12.050   6.127 -0.9983 -1.2916 -0.5573
  606MOL0     H81795   7.464  12.110   6.259  3.2890 -1.6053  1.9095
  606MOL0     H81796   9.152  11.250   6.290 -0.9295  0.7314 -2.9818
  606MOL0     H81797   9.362  11.153   6.235  0.3818  0.5117  2.0523
  606MOL0     H81798   9.911  11.139   6.405  2.6084  0.1001  0.0951
  606MOL0     H81799  10.104  11.061   6.308  2.0839  1.3920 -0.2948
  606MOL0     H81800  10.108  10.955   5.872  0.3713 -2.1049  0.2819
  606MOL0     H81801  10.194  11.106   5.883  1.3203 -0.5597  0.6254
  606MOL0     H81802  10.327  10.924   5.787  0.0065 -0.6702 -0.0946
  606MOL0     H81803  10.308  10.828   5.930 -0.6996 -0.3369 -1.4784
  606MOL0     H81804  10.442  11.102   5.921 -2.5270 -0.5672 -1.5260
  606MOL0     H81805  10.524  10.950   5.887  1.7150  2.1679 -0.0442
  606MOL0     H81806  10.463  10.915   6.161  0.1381 -0.2221 -0.6065
  606MOL0     H81807  10.395  11.062   6.157  2.3792  2.1770  1.1764
  606MOL0     H81808  10.793  11.178   6.168  1.4022 -1.3121 -2.0730
  606MOL0     H81809   9.950  11.149   5.912  0.0947 -1.0250 -0.6989
  606MOL0     H81810   9.748  11.251   6.017 -1.0511 -1.0098  0.0000
  607MOL0     O81811  11.206   2.619   3.731  0.5691  0.7403  0.0410
  607MOL0     C81812  11.173   2.702   3.643  0.1117  0.8775 -0.8055
  607MOL0     O81813  11.260   2.750   3.553 -0.5175 -0.2846 -0.5147
  607MOL0     C81814  11.394   2.705   3.538 -0.6827 -0.5459  0.7502
  607MOL0     C81815  11.443   2.586   3.588 -0.1322  1.0081 -0.8662
  607MOL0     C81816  11.575   2.550   3.575 -0.4309 -1.0088  0.6420
  607MOL0     C81817  11.659   2.624   3.482 -0.1673  0.9566 -0.1113
  607MOL0     O81818  11.782   2.574   3.447  0.0325  0.1107 -0.4209
  607MOL0     C81819  11.828   2.432   3.460  0.4171 -0.7395 -0.3070
  607MOL0     C81820  11.736   2.351   3.367 -0.1108 -0.0301  0.0417
  607MOL0     C81821  11.785   2.385   3.225 -0.2760 -0.2461 -0.0042
  607MOL0     C81822  11.694   2.327   3.124  0.3493 -0.5396 -0.2346
  607MOL0     C81823  11.736   2.350   2.978 -0.1751 -0.2721 -0.3473
  607MOL0     C81824  11.642   2.289   2.873 -0.1235  0.8182 -0.7191
  607MOL0     C81825  11.708   2.280   2.732  0.1921 -1.0126  0.6728
  607MOL0     C81826  11.697   2.420   2.656  0.1425 -0.0380  0.4380
  607MOL0     N81827  11.707   2.391   2.507  0.1889 -0.2835 -0.6705
  607MOL0     C81828  11.605   2.328   2.437 -0.4079 -0.3065 -0.1526
  607MOL0     C81829  11.649   2.325   2.309 -0.1224  0.6260 -0.2585
  607MOL0     C81830  11.581   2.274   2.182  0.3932 -0.4759  0.0620
  607MOL0     C81831  11.439   2.331   2.189  0.5918 -0.2220  0.4914
  607MOL0     C81832  11.368   2.319   2.045 -0.4452  0.0975 -0.7663
  607MOL0     C81833  11.218   2.362   2.050 -0.4711 -0.2530 -0.4291
  607MOL0     O81834  11.152   2.309   2.170 -0.2764 -0.5620  0.5032
  607MOL0     C81835  11.114   2.178   2.176  0.7709 -0.3346  0.1360
  607MOL0     C81836  11.077   2.124   2.302  0.2637 -0.2891 -0.0833
  607MOL0     C81837  11.038   1.989   2.329  0.7617 -0.3936 -0.1376
  607MOL0     C81838  10.997   1.955   2.471 -0.2195  0.0107 -0.0536
  607MOL0     C81839  11.039   1.898   2.219 -0.6707  0.9294 -0.0229
  607MOL0     C81840  10.981   1.761   2.224  1.1206 -0.2244 -0.3022
  607MOL0     O81841  11.019   1.680   2.127 -0.5045 -0.5377  0.2309
  607MOL0     C81842  10.974   1.552   2.120  0.6659 -0.0412  0.3280
  607MOL0     C81843  10.836   1.532   2.113  1.1403  0.0848  0.2727
  607MOL0     C81844  10.783   1.403   2.113 -0.8147  0.4356  0.1206
  607MOL0     C81845  10.871   1.301   2.117 -0.4707  1.2735  0.4584
  607MOL0     O81846  10.835   1.165   2.128  0.4026  0.3560 -0.3575
  607MOL0     C81847  10.697   1.124   2.109 -0.1896 -0.0948 -0.0047
  607MOL0     C81848  10.695   0.978   2.116 -0.3397  0.4591 -0.3016
  607MOL0     C81849  10.782   0.887   2.022  0.2319 -0.6035 -1.3651
  607MOL0     C81850  10.750   0.741   2.050 -0.2100 -0.4661  0.3398
  607MOL0     C81851  10.788   0.633   1.941  0.1864  0.4239 -0.2188
  607MOL0     C81852  10.726   0.493   1.976 -0.5299  0.3354  0.3116
  607MOL0     C81853  10.713   0.402   1.854 -0.4537  0.3316  0.9298
  607MOL0     C81854  10.596   0.417   1.766  0.2905  0.0898 -0.2164
  607MOL0    Cl81855  10.439   0.411   1.845  0.0041  0.1469 -0.0505
  607MOL0     C81856  11.007   1.318   2.121 -0.6796 -0.0521  0.2647
  607MOL0     C81857  11.065   1.444   2.127  0.7179  0.3171 -0.3479
  607MOL0     O81858  10.907   1.730   2.314 -0.7128 -0.2484 -0.4806
  607MOL0     C81859  11.097   1.945   2.100  1.0819  0.5241 -0.3411
  607MOL0     C81860  11.137   2.081   2.079  0.3717 -0.7865 -0.3844
  607MOL0     N81861  11.768   2.396   2.305  0.7670  0.2157 -0.3507
  607MOL0     N81862  11.805   2.426   2.422 -0.9231 -0.5129  0.0343
  607MOL0     C81863  11.609   2.733   3.426 -0.5777  0.2539 -0.2806
  607MOL0     C81864  11.475   2.779   3.454 -0.1186  0.5538 -0.7349
  607MOL0     C81865  11.028   2.734   3.638 -0.6139 -0.2163 -0.4480
  607MOL0     C81866  10.952   2.714   3.753  0.5850  0.5604 -0.9558
  607MOL0     C81867  10.816   2.716   3.747  0.5277  0.0893  0.3313
  607MOL0     C81868  10.751   2.771   3.633  0.4521 -0.8662 -0.0508
  607MOL0     O81869  10.619   2.791   3.625 -0.0639 -0.0759  0.0674
  607MOL0     C81870  10.522   2.767   3.729  0.9074  0.2003 -0.1146
  607MOL0     C81871  10.498   2.887   3.818 -0.4599 -0.2260  0.5878
  607MOL0     C81872  10.421   2.847   3.934  1.1653 -0.6652 -0.0864
  607MOL0     C81873  10.288   2.758   3.930  0.0050  0.7615 -0.3508
  607MOL0     C81874  10.203   2.818   3.827 -0.3555  0.3006 -0.3559
  607MOL0     C81875  10.126   2.851   3.733  0.5788 -0.2605 -0.3176
  607MOL0     C81876  10.833   2.817   3.521  0.3562  0.0497 -0.4499
  607MOL0     C81877  10.966   2.785   3.524 -0.3579  1.1436  0.1965
  607MOL0     H81878  11.391   2.509   3.644  1.8571  1.3484  1.6432
  607MOL0     H81879  11.604   2.460   3.628 -1.7080 -0.9870  1.4316
  607MOL0     H81880  11.932   2.420   3.431  1.0564  2.9636 -0.0134
  607MOL0     H81881  11.811   2.408   3.565  3.8796  1.4880  0.9437
  607MOL0     H81882  11.751   2.244   3.380  1.1163  0.1441  0.1280
  607MOL0     H81883  11.631   2.380   3.376 -0.3719  0.4500 -3.2004
  607MOL0     H81884  11.799   2.490   3.199  1.5073 -0.5348 -0.3234
  607MOL0     H81885  11.885   2.344   3.211 -1.0790 -1.8514 -1.5628
  607MOL0     H81886  11.693   2.219   3.137  2.4812 -0.4526  1.0524
  607MOL0     H81887  11.597   2.377   3.136  0.2881  0.0490 -2.6456
  607MOL0     H81888  11.750   2.457   2.957  0.9855  0.2716  2.7096
  607MOL0     H81889  11.833   2.305   2.953  1.6614  2.4856  1.2650
  607MOL0     H81890  11.615   2.184   2.891 -1.1924  1.0238 -1.0746
  607MOL0     H81891  11.545   2.339   2.873 -0.5380  0.0329  0.1099
  607MOL0     H81892  11.808   2.238   2.717  0.6225  0.9819 -3.7261
  607MOL0     H81893  11.653   2.213   2.666 -0.6178  2.5266 -2.6247
  607MOL0     H81894  11.771   2.491   2.694 -2.3014  0.7773  4.2754
  607MOL0     H81895  11.605   2.473   2.681 -2.2219 -2.8918 -1.5623
  607MOL0     H81896  11.523   2.274   2.483  1.7305 -2.2040  1.6490
  607MOL0     H81897  11.639   2.298   2.092 -0.1874  0.4360 -0.0805
  607MOL0     H81898  11.570   2.166   2.193 -0.3212 -0.4721 -0.5485
  607MOL0     H81899  11.448   2.434   2.225 -0.3293 -0.1150  0.4248
  607MOL0     H81900  11.380   2.284   2.268 -1.6096  0.9982 -0.3488
  607MOL0     H81901  11.377   2.211   2.030  0.5537 -0.6088  3.5501
  607MOL0     H81902  11.415   2.387   1.973  1.2254  1.5962  1.5981
  607MOL0     H81903  11.158   2.342   1.961 -0.6891  0.1440 -0.3711
  607MOL0     H81904  11.220   2.471   2.062  2.8804 -0.2044 -0.6648
  607MOL0     H81905  11.078   2.195   2.384 -4.6939 -1.6758  1.4877
  607MOL0     H81906  11.063   1.893   2.533 -1.5710 -1.0248  0.4006
  607MOL0     H81907  10.970   2.049   2.520 -0.6969 -0.8370  1.3733
  607MOL0     H81908  10.901   1.903   2.462 -0.7492  0.7027  1.3151
  607MOL0     H81909  10.767   1.615   2.100  1.1652  0.0874  0.1516
  607MOL0     H81910  10.679   1.379   2.099 -0.0052 -3.5651 -0.2092
  607MOL0     H81911  10.635   1.168   2.187  0.5531 -1.8380  1.6717
  607MOL0     H81912  10.670   1.157   2.009  2.7372  3.7516  0.2352
  607MOL0     H81913  10.716   0.941   2.216  4.2999 -0.4640 -1.3623
  607MOL0     H81914  10.590   0.954   2.097 -0.1310  0.1520 -1.1091
  607MOL0     H81915  10.890   0.896   2.033 -0.1095  0.2209  3.3944
  607MOL0     H81916  10.755   0.899   1.916 -4.5445 -3.6989 -0.8231
  607MOL0     H81917  10.793   0.728   2.149 -1.1676  3.8236  1.5174
  607MOL0     H81918  10.641   0.735   2.060 -0.1364 -1.7959  0.4455
  607MOL0     H81919  10.892   0.620   1.912  0.0315 -0.2842 -0.4885
  607MOL0     H81920  10.744   0.675   1.850 -0.0939 -1.3113 -0.9273
  607MOL0     H81921  10.793   0.449   2.051  0.7360  1.4625 -0.1177
  607MOL0     H81922  10.628   0.516   2.019 -0.5616 -0.7186  0.8467
  607MOL0     H81923  10.706   0.301   1.895  1.0543  0.4044  1.4230
  607MOL0     H81924  10.808   0.418   1.801  0.5432 -2.1883  1.8203
  607MOL0     H81925  10.600   0.328   1.702 -1.2548 -0.7304  0.7892
  607MOL0     H81926  10.615   0.505   1.703 -1.7425  2.1347  1.8587
  607MOL0     H81927  11.087   1.245   2.123  3.7268  4.2263 -0.2042
  607MOL0     H81928  11.174   1.453   2.127  0.6882  0.6906 -0.7000
  607MOL0     H81929  11.111   1.881   2.013  1.3430 -1.5602  1.1657
  607MOL0     H81930  11.187   2.107   1.986  0.2426 -1.1425 -0.5563
  607MOL0     H81931  11.673   2.793   3.360  1.8611 -0.9183  0.8958
  607MOL0     H81932  11.453   2.874   3.407  0.2137  1.3571  0.6682
  607MOL0     H81933  11.011   2.686   3.839 -0.9725 -1.8961 -0.5876
  607MOL0     H81934  10.771   2.671   3.836  3.0654 -4.3173 -0.3105
  607MOL0     H81935  10.428   2.740   3.682  0.2403  3.6499 -1.0401
  607MOL0     H81936  10.545   2.676   3.786 -1.2971 -1.0101 -1.0677
  607MOL0     H81937  10.450   2.974   3.772 -0.2293 -0.8692 -0.9220
  607MOL0     H81938  10.589   2.939   3.852 -0.8935 -0.3865  2.0708
  607MOL0     H81939  10.391   2.940   3.983  0.8659  0.4538 -2.2775
  607MOL0     H81940  10.477   2.787   4.006 -3.6028 -1.1939  3.7044
  607MOL0     H81941  10.243   2.762   4.030  1.6219  2.3367  0.3782
  607MOL0     H81942  10.306   2.655   3.898 -2.7599 -0.6896  2.3203
  607MOL0     H81943  10.047   2.891   3.673 -2.2816 -1.1261  2.5510
  607MOL0     H81944  10.778   2.861   3.438 -0.0196  1.5742  0.5648
  607MOL0     H81945  11.023   2.801   3.434  0.8676 -2.3410  0.1989
  608MOL0     O81946  11.299  10.436   4.907 -0.1887 -0.7160  0.0696
  608MOL0     C81947  11.427  10.437   4.918 -0.1170  1.4474 -0.2657
  608MOL0     O81948  11.514  10.534   4.896  0.0195  0.3227 -0.0816
  608MOL0     C81949  11.464  10.661   4.904 -1.1383  0.1876 -0.5725
  608MOL0     C81950  11.531  10.758   4.836 -0.6919  0.3537  0.0266
  608MOL0     C81951  11.498  10.891   4.837 -0.4668  0.1316  0.5698
  608MOL0     C81952  11.385  10.929   4.904  0.6490  0.2094  0.2224
  608MOL0     O81953  11.351  11.061   4.901 -0.6038 -0.3316  0.3302
  608MOL0     C81954  11.268  11.116   5.011 -0.1671  0.0149  0.6673
  608MOL0     C81955  11.248  11.264   5.002  0.7173 -0.0105  0.1378
  608MOL0     C81956  11.179  11.319   5.134 -0.4122 -0.0329 -0.1885
  608MOL0     C81957  11.044  11.249   5.160 -0.7136  0.1930  0.2857
  608MOL0     C81958  10.953  11.278   5.036 -0.1777  0.5574 -0.3056
  608MOL0     C81959  10.812  11.285   5.082 -0.5899 -0.8304  0.3481
  608MOL0     C81960  10.709  11.321   4.968  0.4067  0.0348  0.8019
  608MOL0     C81961  10.564  11.269   4.989 -0.5780  0.0515  0.6138
  608MOL0     N81962  10.483  11.302   4.873  0.4996  0.1456 -0.2913
  608MOL0     C81963  10.397  11.410   4.875 -0.8348  0.4366 -0.3908
  608MOL0     C81964  10.359  11.426   4.745  0.2306  0.0088  0.1326
  608MOL0     C81965  10.265  11.523   4.691  0.2387 -0.7035  0.3318
  608MOL0     C81966  10.124  11.479   4.672 -0.4104  0.1005  0.9759
  608MOL0     C81967  10.069  11.473   4.816  0.7587 -0.4216  0.1502
  608MOL0     C81968   9.910  11.466   4.818 -0.4395 -1.2676  0.7106
  608MOL0     O81969   9.860  11.593   4.756 -0.8537  0.8367  0.1760
  608MOL0     C81970   9.725  11.611   4.765  0.2060 -0.0316 -1.0339
  608MOL0     C81971   9.680  11.744   4.724 -0.0204  0.3748  0.7835
  608MOL0     C81972   9.552  11.780   4.739  0.3593 -0.6801  0.8686
  608MOL0     C81973   9.509  11.919   4.701  0.2986 -1.1925  0.2818
  608MOL0     C81974   9.452  11.682   4.771 -0.4356  0.4810  0.5915
  608MOL0     C81975   9.315  11.717   4.788 -0.0092  0.7202  0.5856
  608MOL0     O81976   9.224  11.641   4.717 -0.1961 -0.8164 -0.5688
  608MOL0     C81977   9.096  11.688   4.744 -0.5737  0.5210 -0.4121
  608MOL0     C81978   9.047  11.777   4.646 -0.0946  0.7096  0.0990
  608MOL0     C81979   8.914  11.831   4.661  0.9198  0.4321  0.1846
  608MOL0     C81980   8.839  11.794   4.774  0.0246 -0.2457  0.9029
  608MOL0     O81981   8.703  11.831   4.798 -0.1709 -1.2755  0.0403
  608MOL0     C81982   8.639  11.911   4.690  0.6006  0.5092 -0.0841
  608MOL0     C81983   8.489  11.939   4.691 -0.2894  0.6485 -0.1950
  608MOL0     C81984   8.397  11.813   4.680 -0.8561 -0.6372 -0.6917
  608MOL0     C81985   8.393  11.771   4.530 -0.3150 -0.2274 -0.1510
  608MOL0     C81986   8.320  11.636   4.504  0.1088 -0.1297 -0.5816
  608MOL0     C81987   8.170  11.663   4.530  1.0800 -0.3677  0.8927
  608MOL0     C81988   8.086  11.540   4.499  0.4844 -0.0229 -1.0057
  608MOL0     C81989   8.068  11.488   4.356 -1.0897  0.0767  0.3637
  608MOL0    Cl81990   7.976  11.605   4.267  0.0443 -0.0344  0.3390
  608MOL0     C81991   8.895  11.706   4.870 -0.1499 -0.4473 -0.6558
  608MOL0     C81992   9.021  11.653   4.858 -0.0590  0.4341 -0.2779
  608MOL0     O81993   9.292  11.791   4.886  0.2792 -0.0998  0.0073
  608MOL0     C81994   9.494  11.549   4.795 -0.4103 -0.0195  0.4553
  608MOL0     C81995   9.630  11.517   4.798  0.6343  0.6952 -0.1367
  608MOL0     N81996  10.434  11.346   4.667 -0.2139  0.1762 -0.0218
  608MOL0     N81997  10.503  11.268   4.747 -0.4014  0.3168  0.3933
  608MOL0     C81998  11.314  10.831   4.976  0.6188 -0.5368  0.3484
  608MOL0     C81999  11.353  10.700   4.982 -0.3661  0.9826 -0.2240
  608MOL0     C82000  11.497  10.314   4.979 -0.6148  0.1662  1.2293
  608MOL0     C82001  11.417  10.202   5.008 -0.3103  0.7244  0.2397
  608MOL0     C82002  11.466  10.086   5.059 -0.1298  0.3994  0.4943
  608MOL0     C82003  11.600  10.083   5.093 -0.8092 -0.4830 -0.2447
  608MOL0     O82004  11.655   9.974   5.159  0.1006 -0.3710  0.0280
  608MOL0     C82005  11.563   9.873   5.216  0.5126  0.0620  0.2027
  608MOL0     C82006  11.656   9.763   5.262 -0.2669  0.0221 -0.3361
  608MOL0     C82007  11.730   9.689   5.151 -0.4660 -0.0107  0.3405
  608MOL0     C82008  11.847   9.603   5.204  0.7428 -0.9617  0.0774
  608MOL0     C82009  11.876   9.497   5.109 -0.5369 -0.0059 -0.5086
  608MOL0     C82010  11.898   9.406   5.024  0.6981  0.1672 -0.0240
  608MOL0     C82011  11.680  10.197   5.060  0.2402  0.6238 -0.2946
  608MOL0     C82012  11.635  10.309   4.997 -0.3225  0.4722  0.3147
  608MOL0     H82013  11.610  10.726   4.769  0.2788  2.4416  0.0990
  608MOL0     H82014  11.552  10.962   4.775  0.2722 -2.3462 -1.8386
  608MOL0     H82015  11.175  11.061   4.995  0.8086 -1.3801 -0.4275
  608MOL0     H82016  11.310  11.104   5.112  0.0483  2.3433  0.9151
  608MOL0     H82017  11.345  11.309   4.983  0.2203  0.5730 -1.1539
  608MOL0     H82018  11.192  11.273   4.908 -2.1070 -2.3146  1.4251
  608MOL0     H82019  11.242  11.304   5.222 -2.2172 -1.6973  0.8873
  608MOL0     H82020  11.156  11.425   5.121 -0.5441  0.4017  2.8491
  608MOL0     H82021  11.063  11.145   5.186 -0.4581 -0.3207 -1.7743
  608MOL0     H82022  11.005  11.310   5.242 -0.3258  1.9623 -0.7876
  608MOL0     H82023  10.980  11.370   4.984  2.3153  0.9460  1.5041
  608MOL0     H82024  10.959  11.192   4.968 -2.8636 -0.0636  0.1158
  608MOL0     H82025  10.778  11.198   5.138  2.8367 -1.7361  1.2490
  608MOL0     H82026  10.814  11.368   5.154  0.2557  0.3769 -1.0210
  608MOL0     H82027  10.708  11.427   4.942 -1.0493 -0.7476 -2.8917
  608MOL0     H82028  10.752  11.264   4.885 -0.1710  2.8091 -1.5300
  608MOL0     H82029  10.529  11.312   5.083 -2.7807 -0.9461  0.3064
  608MOL0     H82030  10.570  11.160   4.998 -0.2255 -0.0819 -0.8821
  608MOL0     H82031  10.359  11.470   4.957  0.3437 -0.5906  0.9702
  608MOL0     H82032  10.257  11.614   4.751  0.6875 -1.5138  1.6683
  608MOL0     H82033  10.310  11.544   4.594 -1.3020 -0.2217 -0.3141
  608MOL0     H82034  10.142  11.378   4.635  1.9501  1.4356 -2.0204
  608MOL0     H82035  10.056  11.534   4.606 -0.8163 -1.1363  0.3417
  608MOL0     H82036  10.100  11.566   4.864 -0.0523  1.4490 -2.6474
  608MOL0     H82037  10.108  11.389   4.873 -1.1373 -1.3631  0.1282
  608MOL0     H82038   9.877  11.482   4.921  3.1601 -1.0263  1.9877
  608MOL0     H82039   9.872  11.370   4.781 -2.9970 -0.1555  0.2750
  608MOL0     H82040   9.755  11.820   4.704  1.7859 -0.4196  3.8337
  608MOL0     H82041   9.439  11.908   4.618 -1.7185 -2.6023  2.0564
  608MOL0     H82042   9.466  11.978   4.783  0.9807 -2.2933  1.4631
  608MOL0     H82043   9.593  11.984   4.675  0.8646 -1.5342  1.2023
  608MOL0     H82044   9.115  11.797   4.564  2.1469  0.5159  1.7915
  608MOL0     H82045   8.879  11.893   4.580  1.0983 -0.2548 -0.4306
  608MOL0     H82046   8.683  12.012   4.686 -2.3924  1.9275 -0.1107
  608MOL0     H82047   8.654  11.855   4.597 -0.6164  4.4878 -3.0015
  608MOL0     H82048   8.463  11.996   4.780  0.1535  0.2761  0.1834
  608MOL0     H82049   8.460  12.005   4.609 -2.5244 -1.2489 -1.0173
  608MOL0     H82050   8.297  11.843   4.714 -0.8563 -2.2917  0.9329
  608MOL0     H82051   8.429  11.733   4.747  0.1578 -1.1104 -1.7054
  608MOL0     H82052   8.353  11.847   4.462 -0.8664 -0.0738  0.3370
  608MOL0     H82053   8.494  11.765   4.489 -1.2639 -0.9422 -2.5844
  608MOL0     H82054   8.360  11.560   4.572  0.3546 -0.6248 -1.2671
  608MOL0     H82055   8.336  11.610   4.399 -0.1556 -1.1499 -0.3832
  608MOL0     H82056   8.151  11.697   4.633  2.4881  0.0169  1.0482
  608MOL0     H82057   8.154  11.736   4.450  4.1559  0.0475  0.5349
  608MOL0     H82058   7.983  11.540   4.536  0.4702 -0.5421 -1.0304
  608MOL0     H82059   8.137  11.453   4.540  1.1983  1.2593  0.9484
  608MOL0     H82060   8.008  11.396   4.361 -1.3839  0.2883  5.6697
  608MOL0     H82061   8.166  11.476   4.309 -1.2190 -1.2631  0.4053
  608MOL0     H82062   8.845  11.669   4.959  2.6949  2.5613  2.5373
  608MOL0     H82063   9.057  11.591   4.940 -2.1283 -1.1949 -0.5217
  608MOL0     H82064   9.425  11.465   4.805 -0.1405 -0.5194 -1.4704
  608MOL0     H82065   9.653  11.414   4.823  0.1243  0.1905 -1.6056
  608MOL0     H82066  11.227  10.865   5.031 -0.5528 -0.0262 -1.7230
  608MOL0     H82067  11.286  10.640   5.043 -1.8526 -0.2623 -2.9106
  608MOL0     H82068  11.310  10.201   4.991 -0.0562  0.8175 -1.4832
  608MOL0     H82069  11.387  10.011   5.064 -0.8262  1.0154 -0.6400
  608MOL0     H82070  11.518   9.916   5.306 -0.7831 -0.3172 -0.2430
  608MOL0     H82071  11.492   9.831   5.144 -0.0808  1.8804 -0.3488
  608MOL0     H82072  11.588   9.685   5.297 -1.0407  1.1276  0.6978
  608MOL0     H82073  11.723   9.798   5.342  1.4277  0.3281 -1.8292
  608MOL0     H82074  11.770   9.764   5.082  0.2248  0.8874  1.6852
  608MOL0     H82075  11.655   9.632   5.095 -1.8416  2.9341 -1.0443
  608MOL0     H82076  11.822   9.562   5.303 -0.6566  0.6340  0.4392
  608MOL0     H82077  11.933   9.671   5.205  0.2902 -0.2775 -1.9695
  608MOL0     H82078  11.921   9.333   4.950  0.3458  0.7700 -0.7345
  608MOL0     H82079  11.787  10.202   5.078  0.6396  2.5712 -2.6313
  608MOL0     H82080  11.695  10.397   4.980 -1.1483  0.6508 -2.1338
  609MOL0     O82081   5.996   2.235   5.332  0.9315 -0.5949 -0.9075
  609MOL0     C82082   6.065   2.176   5.411  0.3157  0.6520  0.7045
  609MOL0     O82083   6.024   2.082   5.498 -0.9271 -0.1749 -0.3880
  609MOL0     C82084   5.892   2.038   5.496 -0.6904 -0.1682  0.1927
  609MOL0     C82085   5.814   2.041   5.614 -0.4970  0.8636  0.0441
  609MOL0     C82086   5.684   2.000   5.612  0.0846  0.1799 -0.1039
  609MOL0     C82087   5.622   1.955   5.495 -0.3618 -0.1409 -0.2752
  609MOL0     O82088   5.496   1.911   5.498 -0.3073 -0.5031  0.1362
  609MOL0     C82089   5.414   1.943   5.386 -0.1107  0.6504  0.4214
  609MOL0     C82090   5.396   1.813   5.298 -0.4892  0.1109  0.3814
  609MOL0     C82091   5.306   1.715   5.364  0.0638  0.3863 -0.2659
  609MOL0     C82092   5.274   1.594   5.278  0.1159 -0.1658 -0.1987
  609MOL0     C82093   5.150   1.526   5.333  0.3217 -0.3951  0.0254
  609MOL0     C82094   5.143   1.378   5.269 -0.8579 -0.3169 -0.2151
  609MOL0     C82095   5.072   1.273   5.344 -0.0005  0.4197  0.1189
  609MOL0     C82096   4.919   1.282   5.325 -0.4199 -0.0912 -0.1770
  609MOL0     N82097   4.842   1.162   5.381 -0.1741 -1.0897  0.7124
  609MOL0     C82098   4.804   1.141   5.510  0.5664  0.5499 -0.3255
  609MOL0     C82099   4.740   1.021   5.515  0.0273 -0.0912 -0.1579
  609MOL0     C82100   4.688   0.946   5.626 -0.0643  0.6298  0.7303
  609MOL0     C82101   4.540   0.990   5.642 -0.1330  0.2491  0.0834
  609MOL0     C82102   4.465   0.894   5.737  0.4858  0.0503 -0.0746
  609MOL0     C82103   4.515   0.909   5.881  1.1755  0.0956 -0.5697
  609MOL0     O82104   4.492   1.040   5.927 -0.3040 -0.1622 -0.1404
  609MOL0     C82105   4.363   1.085   5.977 -0.3930  0.1284 -0.4948
  609MOL0     C82106   4.349   1.210   6.031  0.1480 -0.5251  0.2779
  609MOL0     C82107   4.221   1.254   6.076 -0.4419  0.9019  0.1720
  609MOL0     C82108   4.222   1.389   6.143  0.4130  0.6629  0.6785
  609MOL0     C82109   4.106   1.171   6.073  0.2160  0.0272  0.2742
  609MOL0     C82110   3.968   1.198   6.135  0.2288 -0.2254 -0.8672
  609MOL0     O82111   3.882   1.089   6.138  0.4388 -0.6530 -0.6103
  609MOL0     C82112   3.764   1.096   6.196 -0.2459  0.1012  0.3287
  609MOL0     C82113   3.757   1.126   6.340 -0.3515  0.3742  1.1027
  609MOL0     C82114   3.630   1.150   6.395  0.2025  0.1623 -0.2865
  609MOL0     C82115   3.514   1.157   6.320 -0.2632  0.8278 -0.7940
  609MOL0     O82116   3.398   1.185   6.393  0.1317  0.1166  0.5917
  609MOL0     C82117   3.271   1.187   6.320  0.2819  0.4586 -0.2916
  609MOL0     C82118   3.149   1.179   6.423  0.2846 -0.0650  0.4027
  609MOL0     C82119   3.026   1.131   6.343  0.3912  0.1039  0.4533
  609MOL0     C82120   2.897   1.119   6.422 -1.0410 -0.1904 -0.2482
  609MOL0     C82121   2.860   1.241   6.495 -0.0750 -0.1995 -0.0179
  609MOL0     C82122   2.720   1.230   6.553 -0.0722  0.5599 -0.1025
  609MOL0     C82123   2.674   1.332   6.658  0.4052 -0.0520 -0.4434
  609MOL0     C82124   2.651   1.471   6.606  0.3222 -0.3020  0.6376
  609MOL0    Cl82125   2.569   1.585   6.725  0.6850 -0.4235  0.1069
  609MOL0     C82126   3.526   1.124   6.186  0.5273 -0.0344  0.4311
  609MOL0     C82127   3.643   1.105   6.124 -0.4622 -0.7214 -1.2067
  609MOL0     O82128   3.944   1.308   6.176  0.2490 -0.4443  0.3683
  609MOL0     C82129   4.126   1.043   6.016  0.2520  0.3441  0.0349
  609MOL0     C82130   4.253   1.002   5.973 -0.3944 -0.4321  0.2846
  609MOL0     N82131   4.724   0.983   5.376 -0.4196 -0.2070 -0.6186
  609MOL0     N82132   4.787   1.063   5.297  0.0347 -0.6235 -0.0045
  609MOL0     C82133   5.706   1.956   5.380  0.3634 -0.0885  0.3712
  609MOL0     C82134   5.836   1.993   5.377 -0.2398 -0.1899  0.2254
  609MOL0     C82135   6.203   2.222   5.406  0.0251 -0.1581  0.4069
  609MOL0     C82136   6.305   2.153   5.480  0.2793 -0.6733  0.6969
  609MOL0     C82137   6.436   2.188   5.459 -0.1159 -0.2317 -0.0262
  609MOL0     C82138   6.479   2.302   5.386 -0.2598  0.6183 -0.4437
  609MOL0     O82139   6.606   2.339   5.359 -0.3185  0.3482  0.3380
  609MOL0     C82140   6.720   2.289   5.432 -0.3949 -0.0927 -0.0173
  609MOL0     C82141   6.710   2.311   5.579 -0.1721 -0.1821 -0.2884
  609MOL0     C82142   6.801   2.408   5.652 -0.2379 -0.4894  0.2195
  609MOL0     C82143   6.822   2.385   5.804  0.1531 -0.2496 -0.2390
  609MOL0     C82144   6.710   2.452   5.866  0.2732  0.6903  0.5327
  609MOL0     C82145   6.613   2.507   5.916  0.3990  0.7315 -0.4033
  609MOL0     C82146   6.380   2.373   5.323  1.0235 -0.0513  0.2720
  609MOL0     C82147   6.241   2.335   5.329  0.9066  0.1796  0.3671
  609MOL0     H82148   5.850   2.067   5.713  0.8004 -3.2157  0.8455
  609MOL0     H82149   5.621   2.004   5.700 -1.4954 -3.3634 -0.9150
  609MOL0     H82150   5.313   1.962   5.423 -0.6063  0.4480 -0.7873
  609MOL0     H82151   5.440   2.031   5.326 -1.9087  3.7175  3.7025
  609MOL0     H82152   5.356   1.831   5.198 -0.3177 -2.6398 -0.2702
  609MOL0     H82153   5.490   1.765   5.273 -0.2040  0.7109  0.2796
  609MOL0     H82154   5.351   1.676   5.456 -3.0959 -0.1500  1.1741
  609MOL0     H82155   5.223   1.776   5.399 -0.1172 -0.2033  0.3518
  609MOL0     H82156   5.261   1.630   5.175  0.1585  2.4034  0.6162
  609MOL0     H82157   5.358   1.524   5.275  0.5405  0.2871  0.6584
  609MOL0     H82158   5.166   1.510   5.440  1.2729  0.4125  0.0171
  609MOL0     H82159   5.057   1.583   5.329  0.6952  0.3419  1.3731
  609MOL0     H82160   5.114   1.379   5.163  1.6171  0.0023 -0.9443
  609MOL0     H82161   5.244   1.339   5.265 -0.9356 -0.6745  1.0528
  609MOL0     H82162   5.107   1.179   5.300  0.8501  1.6838 -2.0459
  609MOL0     H82163   5.089   1.273   5.452  3.1739  1.3204 -0.2942
  609MOL0     H82164   4.920   1.274   5.216  4.7541 -0.7495 -0.3095
  609MOL0     H82165   4.876   1.380   5.349  0.6288 -0.0574  1.7995
  609MOL0     H82166   4.842   1.208   5.587  3.0649  0.2043 -1.1595
  609MOL0     H82167   4.691   0.840   5.599  2.2821  0.7202  0.4506
  609MOL0     H82168   4.744   0.957   5.720 -2.1971 -0.2356  2.1697
  609MOL0     H82169   4.485   0.979   5.547 -1.7931  0.9049  0.9322
  609MOL0     H82170   4.529   1.094   5.672  0.3619  0.2608  0.2300
  609MOL0     H82171   4.473   0.788   5.710  0.2529  0.2722 -1.0297
  609MOL0     H82172   4.358   0.916   5.730  0.7623  0.8663 -3.0971
  609MOL0     H82173   4.623   0.895   5.868  1.2745  0.7515 -0.4988
  609MOL0     H82174   4.481   0.829   5.947 -1.0791  1.4917  0.0522
  609MOL0     H82175   4.428   1.284   6.038 -0.5124  0.1070  1.3100
  609MOL0     H82176   4.177   1.395   6.242 -0.3889  2.5740  0.2437
  609MOL0     H82177   4.325   1.423   6.150  1.0610 -0.7162 -1.3361
  609MOL0     H82178   4.175   1.466   6.080  1.6491  0.5812 -0.3924
  609MOL0     H82179   3.853   1.118   6.389 -0.0443  2.1254  0.8648
  609MOL0     H82180   3.627   1.153   6.504 -0.0606  0.6920 -0.3056
  609MOL0     H82181   3.260   1.282   6.268  0.7890  1.7943  1.8801
  609MOL0     H82182   3.255   1.098   6.259 -3.0958  0.1493  0.8650
  609MOL0     H82183   3.168   1.100   6.496  1.1988  2.1144  2.7090
  609MOL0     H82184   3.138   1.275   6.475 -0.1920 -0.3080  0.7595
  609MOL0     H82185   3.043   1.027   6.315 -0.3782  0.2001 -0.4255
  609MOL0     H82186   3.020   1.173   6.242 -0.5102 -1.6037 -0.2359
  609MOL0     H82187   2.814   1.094   6.356  0.1964  0.1219 -2.0001
  609MOL0     H82188   2.915   1.041   6.496 -1.1216  1.1901  1.2722
  609MOL0     H82189   2.857   1.326   6.427  0.3017 -0.8166 -0.8317
  609MOL0     H82190   2.928   1.265   6.578  0.3878 -0.9103 -0.1824
  609MOL0     H82191   2.659   1.239   6.463  1.4129 -3.2723 -1.6795
  609MOL0     H82192   2.704   1.134   6.602 -3.0779  0.4822 -1.0456
  609MOL0     H82193   2.739   1.339   6.745 -1.7081  0.5001  1.1639
  609MOL0     H82194   2.574   1.306   6.695 -0.2530 -0.7978 -2.5851
  609MOL0     H82195   2.606   1.474   6.507 -1.0947 -3.5334  1.0368
  609MOL0     H82196   2.755   1.502   6.594  0.0703  1.2333  2.0036
  609MOL0     H82197   3.440   1.136   6.121  0.7756  3.7096  0.5705
  609MOL0     H82198   3.653   1.100   6.016  3.0137 -1.9472 -0.9687
  609MOL0     H82199   4.060   0.957   6.012 -1.0083  1.0438  2.8712
  609MOL0     H82200   4.262   0.898   5.944 -1.1664 -0.8316  1.3965
  609MOL0     H82201   5.668   1.917   5.286  1.0992  3.2978 -1.4827
  609MOL0     H82202   5.885   1.988   5.280 -0.7738 -1.1617 -0.0100
  609MOL0     H82203   6.285   2.061   5.534 -0.3959 -1.6527 -1.1256
  609MOL0     H82204   6.504   2.121   5.511  1.8226  0.1152 -1.9864
  609MOL0     H82205   6.736   2.181   5.420 -0.6437  0.0774 -2.2296
  609MOL0     H82206   6.813   2.338   5.403  0.4812  0.6000  3.4804
  609MOL0     H82207   6.731   2.217   5.631  0.5134  1.6856  3.1234
  609MOL0     H82208   6.604   2.329   5.602 -0.5718 -1.7256 -0.8374
  609MOL0     H82209   6.769   2.510   5.629 -0.0877 -0.6630 -0.7940
  609MOL0     H82210   6.894   2.390   5.597 -0.0601  1.4783 -0.2213
  609MOL0     H82211   6.914   2.423   5.850  1.1585  1.7629 -3.5954
  609MOL0     H82212   6.822   2.281   5.839  0.3835 -0.1687  0.0112
  609MOL0     H82213   6.535   2.558   5.969  0.2901  0.6512 -0.4868
  609MOL0     H82214   6.406   2.450   5.251  0.9706 -0.7861 -0.5417
  609MOL0     H82215   6.167   2.382   5.265  0.7176  1.1087  1.2404
  610MOL0     O82216   1.317   3.029  11.357 -0.6749 -0.0262  0.7204
  610MOL0     C82217   1.408   3.029  11.273  0.0030  0.1745 -0.1243
  610MOL0     O82218   1.401   2.983  11.149 -0.0618  0.3342  0.0858
  610MOL0     C82219   1.284   2.928  11.094  0.1658 -0.1199  0.5045
  610MOL0     C82220   1.286   2.822  11.005  0.1656  0.7656  0.1163
  610MOL0     C82221   1.158   2.788  10.936 -0.7330  0.0894 -0.4803
  610MOL0     C82222   1.035   2.835  10.971 -0.1791  0.2087 -0.2776
  610MOL0     O82223   0.917   2.802  10.908 -0.6884 -0.0099  0.3579
  610MOL0     C82224   0.808   2.764  10.996 -0.5439  0.2322  0.0467
  610MOL0     C82225   0.707   2.689  10.922  0.4534 -0.6025  0.2036
  610MOL0     C82226   0.568   2.720  10.980 -1.2090 -0.0182  0.3336
  610MOL0     C82227   0.456   2.649  10.895  0.0871 -0.4612 -0.7761
  610MOL0     C82228   0.326   2.649  10.965  0.5894  1.1166 -0.3427
  610MOL0     C82229   0.205   2.627  10.883 -0.1587 -0.3688 -0.1963
  610MOL0     C82230   0.067   2.628  10.961 -0.3716  0.4719 -0.0452
  610MOL0     C82231  -0.053   2.660  10.868  0.7780  0.5854 -0.1148
  610MOL0     N82232  -0.168   2.655  10.961  0.2258 -0.3794 -0.4123
  610MOL0     C82233  -0.209   2.565  11.059 -1.1918 -0.0333 -0.2667
  610MOL0     C82234  -0.314   2.623  11.119  0.5111  0.3984  0.5266
  610MOL0     C82235  -0.388   2.559  11.234 -0.8205  0.1581  0.3062
  610MOL0     C82236  -0.535   2.558  11.219  0.0748  0.0868 -0.4645
  610MOL0     C82237  -0.612   2.697  11.220 -0.0284  0.2527 -0.9869
  610MOL0     C82238  -0.569   2.790  11.336  0.2738 -0.6095 -0.2017
  610MOL0     O82239  -0.581   2.732  11.473  0.3420  0.0948  1.3182
  610MOL0     C82240  -0.698   2.744  11.543 -0.0013  0.0042 -0.3394
  610MOL0     C82241  -0.690   2.691  11.673  0.1724 -0.9103  0.2841
  610MOL0     C82242  -0.804   2.688  11.759 -0.8832  1.0801  0.3908
  610MOL0     C82243  -0.785   2.627  11.895  0.4362 -1.0261 -0.3123
  610MOL0     C82244  -0.925   2.752  11.706 -0.3412  0.2806  0.3735
  610MOL0     C82245  -1.053   2.757  11.791 -0.9455  0.5459 -0.0113
  610MOL0     O82246  -1.169   2.791  11.725  0.7239  0.2479  0.0859
  610MOL0     C82247  -1.289   2.786  11.792  0.3980  0.3864 -0.8685
  610MOL0     C82248  -1.374   2.886  11.785 -0.0889  0.3292  0.6157
  610MOL0     C82249  -1.502   2.881  11.829 -0.5049  0.2477 -0.0805
  610MOL0     C82250  -1.557   2.755  11.868  0.4620 -0.3012 -0.0934
  610MOL0     O82251  -1.684   2.736  11.902  0.2902  0.7975  0.0298
  610MOL0     C82252  -1.781   2.836  11.848  0.1455 -0.4293  0.0379
  610MOL0     C82253  -1.925   2.782  11.876  0.5943 -0.0795  0.8604
  610MOL0     C82254  -1.982   2.809  12.021 -0.9870 -0.5792  0.0130
  610MOL0     C82255  -2.092   2.717  12.053 -0.0415 -0.0029  0.9989
  610MOL0     C82256  -2.148   2.725  12.199  0.1091 -0.1023 -0.0969
  610MOL0     C82257  -2.226   2.850  12.211 -0.3747 -0.2935  1.1883
  610MOL0     C82258  -2.322   2.849  12.336  0.0874 -0.0352  0.1171
  610MOL0     C82259  -2.398   2.981  12.358  0.9472 -0.3433  0.7866
  610MOL0    Cl82260  -2.503   3.019  12.220 -0.0959 -0.2696  0.3154
  610MOL0     C82261  -1.474   2.646  11.864  0.4007 -0.1998  0.6156
  610MOL0     C82262  -1.339   2.661  11.833  0.7311  0.7552 -0.3184
  610MOL0     O82263  -1.045   2.734  11.912 -0.3288  0.4270  0.4241
  610MOL0     C82264  -0.927   2.805  11.579  0.1917 -1.1101 -0.4306
  610MOL0     C82265  -0.816   2.802  11.495 -0.5213  1.3453  1.2414
  610MOL0     N82266  -0.345   2.729  11.047 -0.0228 -0.2193 -0.6003
  610MOL0     N82267  -0.261   2.754  10.956 -0.0636 -0.5857  0.1501
  610MOL0     C82268   1.034   2.932  11.064 -0.5266 -0.6103 -0.7471
  610MOL0     C82269   1.155   2.977  11.127 -0.1136  0.6837  0.3537
  610MOL0     C82270   1.532   3.088  11.321  0.3055 -0.5036 -0.7680
  610MOL0     C82271   1.642   3.098  11.236  0.8969  0.0293  0.1842
  610MOL0     C82272   1.764   3.148  11.272  0.7652 -0.4990 -0.7996
  610MOL0     C82273   1.787   3.204  11.397  0.9130 -0.8111  0.6736
  610MOL0     O82274   1.902   3.277  11.420  0.2281 -0.1367 -0.6898
  610MOL0     C82275   1.897   3.376  11.533 -0.1090 -0.1895  0.5231
  610MOL0     C82276   2.029   3.453  11.570  0.9231  0.1392  0.6582
  610MOL0     C82277   2.001   3.555  11.679 -0.4011 -0.2125 -0.0123
  610MOL0     C82278   2.121   3.631  11.714 -0.0852 -0.3962  0.3181
  610MOL0     C82279   2.202   3.538  11.794  0.7882 -0.5429  0.1572
  610MOL0     C82280   2.285   3.471  11.853  0.4092 -0.8228 -0.8646
  610MOL0     C82281   1.688   3.181  11.498  0.1204 -0.3150 -0.2567
  610MOL0     C82282   1.568   3.116  11.460  0.5924  0.2467  0.3184
  610MOL0     H82283   1.379   2.769  10.989 -0.8161 -0.7879 -0.6640
  610MOL0     H82284   1.153   2.703  10.869  0.5004 -0.2761 -0.1364
  610MOL0     H82285   0.844   2.704  11.080  0.9159  1.8540  0.6346
  610MOL0     H82286   0.769   2.855  11.043  0.2590  1.3215 -1.3093
  610MOL0     H82287   0.699   2.703  10.814 -0.0183 -3.2338 -0.1522
  610MOL0     H82288   0.732   2.584  10.935  1.2280 -0.3873  0.4963
  610MOL0     H82289   0.568   2.682  11.082  0.1108 -0.3184  0.2519
  610MOL0     H82290   0.561   2.828  10.995  4.6176  0.7435  0.2213
  610MOL0     H82291   0.452   2.695  10.796  2.5922 -1.3864 -1.3973
  610MOL0     H82292   0.478   2.543  10.877 -5.2285 -1.7021 -1.5025
  610MOL0     H82293   0.337   2.581  11.049  0.8726  0.1007 -1.1900
  610MOL0     H82294   0.308   2.742  11.020 -0.7780  0.0082  1.1637
  610MOL0     H82295   0.204   2.706  10.807 -0.6730 -1.3090 -1.1884
  610MOL0     H82296   0.217   2.531  10.834 -1.8551 -0.5692 -0.2599
  610MOL0     H82297   0.058   2.540  11.026  0.8777 -0.4821 -1.1131
  610MOL0     H82298   0.077   2.717  11.024 -0.3542 -0.2122  0.9332
  610MOL0     H82299  -0.067   2.579  10.796 -0.4300  2.0137 -1.5745
  610MOL0     H82300  -0.038   2.755  10.815 -1.4537  0.2695 -1.4353
  610MOL0     H82301  -0.162   2.473  11.094  1.4696  2.0746  2.3427
  610MOL0     H82302  -0.356   2.456  11.253 -1.1493  0.2987  1.8293
  610MOL0     H82303  -0.370   2.615  11.327 -1.3855 -0.3693  0.7427
  610MOL0     H82304  -0.578   2.499  11.301 -1.3365  1.1570 -0.3902
  610MOL0     H82305  -0.572   2.520  11.123 -0.4151  2.4454 -1.2736
  610MOL0     H82306  -0.716   2.672  11.239  0.4342 -0.3230  0.9501
  610MOL0     H82307  -0.610   2.746  11.122 -1.4166 -1.6915 -2.0536
  610MOL0     H82308  -0.637   2.876  11.336 -1.3816 -1.8778 -1.4299
  610MOL0     H82309  -0.467   2.828  11.324  0.0616  0.0721  0.0982
  610MOL0     H82310  -0.595   2.645  11.700  1.3735  1.1239 -0.2107
  610MOL0     H82311  -0.680   2.598  11.904  0.6204 -0.1962  0.3065
  610MOL0     H82312  -0.805   2.703  11.972  2.4796 -1.0050  0.2538
  610MOL0     H82313  -0.849   2.542  11.919 -2.0352  1.4661  2.8351
  610MOL0     H82314  -1.334   2.981  11.750  2.5180 -0.6482  0.7191
  610MOL0     H82315  -1.563   2.970  11.834 -1.1783 -0.2410  0.8914
  610MOL0     H82316  -1.775   2.936  11.891  0.0648 -0.3260 -0.1903
  610MOL0     H82317  -1.775   2.844  11.739  1.8798  1.0315  0.1935
  610MOL0     H82318  -1.996   2.815  11.800  0.2773 -2.3932  0.0746
  610MOL0     H82319  -1.914   2.673  11.864  0.0483  0.1048 -2.1012
  610MOL0     H82320  -2.027   2.909  12.025 -1.1779 -0.6414 -0.4327
  610MOL0     H82321  -1.902   2.804  12.095 -0.7522 -0.5452 -0.2380
  610MOL0     H82322  -2.176   2.728  11.983 -0.9436 -2.3811  1.6125
  610MOL0     H82323  -2.056   2.616  12.035  0.9254  0.5826 -0.5853
  610MOL0     H82324  -2.064   2.714  12.268  0.4687 -2.4250 -0.7936
  610MOL0     H82325  -2.218   2.641  12.212  3.5111 -3.2596 -0.4061
  610MOL0     H82326  -2.153   2.930  12.224  1.0121 -0.8680 -2.1263
  610MOL0     H82327  -2.277   2.872  12.117  1.0384 -1.9746 -0.0207
  610MOL0     H82328  -2.267   2.820  12.426  0.1639 -0.6112 -0.1111
  610MOL0     H82329  -2.390   2.767  12.311  2.9085 -2.5423  0.0877
  610MOL0     H82330  -2.321   3.057  12.371  1.3814 -0.1478 -2.1912
  610MOL0     H82331  -2.465   2.986  12.445 -0.5414 -1.3589 -0.2563
  610MOL0     H82332  -1.507   2.546  11.890  2.9610 -1.5023 -0.8357
  610MOL0     H82333  -1.272   2.576  11.841 -0.4458 -0.1209  0.6897
  610MOL0     H82334  -1.013   2.854  11.536  0.4892  0.5459  0.7832
  610MOL0     H82335  -0.839   2.830  11.393 -2.2688 -1.6875  0.6991
  610MOL0     H82336   0.941   2.980  11.096  1.4019  1.9141  1.5076
  610MOL0     H82337   1.131   3.053  11.200 -0.1788  0.7924  0.2194
  610MOL0     H82338   1.624   3.074  11.131 -4.3549  1.2599  0.5162
  610MOL0     H82339   1.838   3.186  11.203  2.7089  3.3519  2.9496
  610MOL0     H82340   1.824   3.449  11.496 -2.0946 -3.0705 -1.8534
  610MOL0     H82341   1.858   3.338  11.628 -2.0195 -0.7944 -0.4407
  610MOL0     H82342   2.062   3.502  11.479  0.0162  1.4580  1.0164
  610MOL0     H82343   2.112   3.388  11.601  1.3105 -0.3180 -1.2279
  610MOL0     H82344   1.955   3.516  11.770  2.7903  2.3660  2.9826
  610MOL0     H82345   1.933   3.634  11.646 -0.3652 -0.2125 -0.0867
  610MOL0     H82346   2.094   3.725  11.764  2.5136  2.8285 -3.7415
  610MOL0     H82347   2.181   3.659  11.627  1.0364  1.0024  1.4784
  610MOL0     H82348   2.358   3.408  11.899  1.3935  0.6610 -0.3095
  610MOL0     H82349   1.700   3.211  11.601  3.0822 -0.6655 -0.4056
  610MOL0     H82350   1.505   3.092  11.546 -0.4423 -0.4561 -0.6041
  611MOL0     O82351   8.735   2.854   4.371  0.2200 -0.0130 -0.3584
  611MOL0     C82352   8.757   2.941   4.285  0.2952  0.1783 -0.6129
  611MOL0     O82353   8.699   3.060   4.274  0.7039 -0.1414 -0.4844
  611MOL0     C82354   8.584   3.085   4.339 -0.0603  0.4969 -0.4589
  611MOL0     C82355   8.473   2.997   4.356 -0.8758 -0.0718  0.0101
  611MOL0     C82356   8.352   3.040   4.407  0.9615 -0.4225 -0.1369
  611MOL0     C82357   8.328   3.177   4.453  0.3191  0.4542  0.3158
  611MOL0     O82358   8.206   3.198   4.509  0.1185  0.5774 -0.0594
  611MOL0     C82359   8.157   3.331   4.496  0.8313 -0.4356 -0.1906
  611MOL0     C82360   8.007   3.329   4.508  0.3465  0.3946  0.1755
  611MOL0     C82361   7.947   3.416   4.615 -0.3280 -0.6704 -0.2121
  611MOL0     C82362   7.792   3.394   4.624 -0.3730 -0.5572  0.0122
  611MOL0     C82363   7.734   3.536   4.610  0.1544  0.1996 -0.4830
  611MOL0     C82364   7.726   3.595   4.468  0.1198 -0.1309 -0.7526
  611MOL0     C82365   7.648   3.732   4.477  0.7361 -0.8954 -0.6816
  611MOL0     C82366   7.661   3.822   4.353  0.8361  0.5868 -0.5603
  611MOL0     N82367   7.582   3.941   4.368 -0.5060 -0.0657  0.6663
  611MOL0     C82368   7.614   4.053   4.428  0.2047  0.7344 -0.3023
  611MOL0     C82369   7.511   4.136   4.404  0.0269  0.2893  0.0366
  611MOL0     C82370   7.480   4.276   4.460 -0.2501  0.6134 -1.0246
  611MOL0     C82371   7.434   4.380   4.352 -0.4758 -0.3069  0.3306
  611MOL0     C82372   7.552   4.421   4.254 -0.5652  0.2279  0.3580
  611MOL0     C82373   7.565   4.336   4.128 -0.2023 -0.6595  0.1445
  611MOL0     O82374   7.605   4.397   4.009  0.1419 -0.2344  0.2627
  611MOL0     C82375   7.730   4.428   3.987  0.2357 -0.4825 -0.1598
  611MOL0     C82376   7.760   4.496   3.874 -0.5953  0.3097  0.3047
  611MOL0     C82377   7.892   4.540   3.850 -0.2094  0.5397  0.8998
  611MOL0     C82378   7.916   4.630   3.729 -0.7830 -0.0063  0.5028
  611MOL0     C82379   7.994   4.517   3.945  1.3062 -0.6627 -0.7856
  611MOL0     C82380   8.133   4.561   3.927 -0.5286 -0.7373  0.1472
  611MOL0     O82381   8.215   4.489   3.840 -0.4015 -0.4575  0.0640
  611MOL0     C82382   8.336   4.541   3.832  0.2239  0.3780 -1.0256
  611MOL0     C82383   8.377   4.593   3.711 -0.0339  0.7116  0.3225
  611MOL0     C82384   8.502   4.653   3.694 -0.4727 -0.1020 -0.7820
  611MOL0     C82385   8.595   4.650   3.804 -0.6034  0.4679  0.2711
  611MOL0     O82386   8.724   4.704   3.796  0.2768  0.0944  0.0186
  611MOL0     C82387   8.760   4.787   3.679  0.8167 -0.0284  0.6384
  611MOL0     C82388   8.908   4.815   3.664  0.1670 -0.0295 -0.1822
  611MOL0     C82389   8.943   4.854   3.527  0.1712 -0.2499  0.6469
  611MOL0     C82390   9.089   4.914   3.522  1.2698 -0.7243  0.0798
  611MOL0     C82391   9.114   4.995   3.382 -0.8652  0.2804 -0.8418
  611MOL0     C82392   9.265   5.039   3.372  0.2374 -0.2926 -0.6163
  611MOL0     C82393   9.286   5.118   3.242 -0.4794  0.4206  0.8864
  611MOL0     C82394   9.432   5.131   3.194 -0.4709 -0.1615  0.6888
  611MOL0    Cl82395   9.513   5.235   3.301  0.3993  0.1407 -0.0751
  611MOL0     C82396   8.559   4.594   3.922 -0.6123 -0.3500 -0.2095
  611MOL0     C82397   8.434   4.532   3.940 -0.2737  0.1914  0.3466
  611MOL0     O82398   8.167   4.650   4.005 -0.0588  0.2092 -0.4932
  611MOL0     C82399   7.960   4.440   4.061  0.6169  0.3060 -0.0069
  611MOL0     C82400   7.830   4.397   4.079  0.8287 -0.3872  0.3779
  611MOL0     N82401   7.411   4.077   4.328 -0.3262  0.0893 -0.6640
  611MOL0     N82402   7.459   3.960   4.312 -0.5929  0.2003  0.3522
  611MOL0     C82403   8.439   3.266   4.444 -0.0204  0.3077 -0.6676
  611MOL0     C82404   8.567   3.220   4.382  0.1456  0.0048 -0.4371
  611MOL0     C82405   8.875   2.913   4.194  0.4190  0.3436  0.7171
  611MOL0     C82406   8.906   2.999   4.086  0.6286  0.7047  0.0496
  611MOL0     C82407   9.013   2.969   4.005  1.3144 -0.3256 -0.6469
  611MOL0     C82408   9.090   2.848   4.028 -0.9313 -0.6582  0.6865
  611MOL0     O82409   9.191   2.823   3.928 -0.5927 -0.1712 -0.1077
  611MOL0     C82410   9.256   2.691   3.935 -0.2343 -0.0343 -0.0712
  611MOL0     C82411   9.328   2.654   3.803 -0.3274  0.3026 -0.1992
  611MOL0     C82412   9.235   2.663   3.683 -0.2436 -0.4115  0.4115
  611MOL0     C82413   9.220   2.794   3.605 -0.8121  0.0394 -0.5111
  611MOL0     C82414   9.341   2.823   3.534  0.0624 -0.2054 -0.9271
  611MOL0     C82415   9.452   2.827   3.484 -0.3016  0.8503  0.8737
  611MOL0     C82416   9.067   2.774   4.139  0.2308  0.5117 -0.5549
  611MOL0     C82417   8.956   2.801   4.219  0.3653  0.4134  0.5182
  611MOL0     H82418   8.497   2.897   4.321  3.1632 -0.1148  2.2936
  611MOL0     H82419   8.266   2.975   4.400  0.9677 -0.2161 -5.0255
  611MOL0     H82420   8.194   3.408   4.565  0.6511 -0.6966  0.2018
  611MOL0     H82421   8.175   3.373   4.397  1.7652  0.3637  0.2978
  611MOL0     H82422   7.959   3.356   4.414 -4.1135 -1.7555  1.5422
  611MOL0     H82423   7.983   3.224   4.523 -1.5334  0.7859  0.1972
  611MOL0     H82424   7.988   3.384   4.711  2.4442  1.2447 -0.6323
  611MOL0     H82425   7.974   3.519   4.593 -1.0577 -0.4895 -0.2843
  611MOL0     H82426   7.759   3.329   4.543  0.1334 -0.3865 -0.3326
  611MOL0     H82427   7.758   3.351   4.719  2.3112 -0.2518  1.1958
  611MOL0     H82428   7.630   3.535   4.645  0.7498 -1.2755  1.4036
  611MOL0     H82429   7.780   3.594   4.690  0.4042 -0.1123 -0.3957
  611MOL0     H82430   7.829   3.609   4.433 -0.0847 -2.4614 -2.4849
  611MOL0     H82431   7.667   3.525   4.408  0.9388 -3.6434  2.1663
  611MOL0     H82432   7.541   3.712   4.484  0.2546  1.5654  0.2254
  611MOL0     H82433   7.676   3.789   4.567 -1.4313 -0.7850 -0.0081
  611MOL0     H82434   7.623   3.766   4.267 -0.2124  2.7264 -1.5600
  611MOL0     H82435   7.766   3.851   4.340  1.6134 -0.3218  2.7803
  611MOL0     H82436   7.708   4.080   4.476  0.0118  0.5974  0.1531
  611MOL0     H82437   7.410   4.248   4.539  1.8681  0.7820  1.0389
  611MOL0     H82438   7.564   4.316   4.518 -0.9382 -0.2201  0.6079
  611MOL0     H82439   7.400   4.472   4.400  0.7736  0.8267 -0.8462
  611MOL0     H82440   7.349   4.352   4.289  1.0519  0.4343 -2.2226
  611MOL0     H82441   7.648   4.439   4.303  0.1798 -0.5418 -0.7703
  611MOL0     H82442   7.532   4.518   4.209 -0.0968 -0.0979 -0.5724
  611MOL0     H82443   7.466   4.295   4.109 -0.0751 -0.9694  0.1409
  611MOL0     H82444   7.632   4.254   4.157  1.1398  0.6967  1.0269
  611MOL0     H82445   7.671   4.522   3.817 -2.1243  1.0376  2.8841
  611MOL0     H82446   7.994   4.583   3.667 -0.2923  1.3268  0.0793
  611MOL0     H82447   7.828   4.636   3.664  0.0253 -0.9659 -0.7208
  611MOL0     H82448   7.947   4.728   3.766  1.1740 -0.3160 -0.1942
  611MOL0     H82449   8.309   4.608   3.627  1.3474  0.4988 -0.8777
  611MOL0     H82450   8.535   4.694   3.599 -2.1570 -0.8228 -1.7207
  611MOL0     H82451   8.722   4.745   3.585 -2.7283  3.2446  0.3728
  611MOL0     H82452   8.710   4.884   3.680 -1.9955 -1.3976  1.1080
  611MOL0     H82453   8.939   4.888   3.739  0.1442  1.7391 -1.8290
  611MOL0     H82454   8.970   4.727   3.684 -1.2976 -0.6774  1.8230
  611MOL0     H82455   8.879   4.937   3.494  0.0803 -1.0648 -1.4058
  611MOL0     H82456   8.935   4.767   3.461 -0.0651 -1.6399  2.4466
  611MOL0     H82457   9.096   4.979   3.610 -0.5570 -2.7651  1.8457
  611MOL0     H82458   9.156   4.829   3.532  1.0518 -0.8982  0.0782
  611MOL0     H82459   9.053   5.086   3.376 -0.9887  0.4529  1.8017
  611MOL0     H82460   9.092   4.933   3.294  0.8284 -0.0718 -1.0440
  611MOL0     H82461   9.286   5.108   3.455  2.7491 -0.8652 -0.7091
  611MOL0     H82462   9.328   4.950   3.378  1.0553  0.3843  2.0648
  611MOL0     H82463   9.249   5.221   3.248 -0.4951  0.5266 -0.6099
  611MOL0     H82464   9.233   5.062   3.165  0.8621 -1.9890  1.6029
  611MOL0     H82465   9.442   5.189   3.101  2.2594 -2.3247 -0.5094
  611MOL0     H82466   9.474   5.030   3.193 -1.2593 -0.5000  0.6060
  611MOL0     H82467   8.634   4.581   4.000  1.4336  1.1711 -1.7879
  611MOL0     H82468   8.407   4.493   4.038 -0.2820  3.2021  1.6526
  611MOL0     H82469   8.036   4.427   4.138 -0.1609  1.3625  0.9829
  611MOL0     H82470   7.803   4.338   4.166 -0.6111 -3.0277 -1.7199
  611MOL0     H82471   8.424   3.369   4.475 -0.1649  0.2015 -0.3854
  611MOL0     H82472   8.658   3.279   4.376 -0.6722  1.2235 -1.1697
  611MOL0     H82473   8.851   3.091   4.070  1.4693  1.0333 -1.0478
  611MOL0     H82474   9.063   3.032   3.932  1.0035  1.2425  0.4655
  611MOL0     H82475   9.328   2.694   4.017  1.7345 -1.0962 -1.6555
  611MOL0     H82476   9.186   2.608   3.950  1.2843 -1.3217  0.1825
  611MOL0     H82477   9.366   2.552   3.807  0.4580  0.4685 -2.1635
  611MOL0     H82478   9.414   2.720   3.786 -0.0604 -0.2907 -1.2753
  611MOL0     H82479   9.143   2.609   3.711  1.0275 -2.8152  0.2184
  611MOL0     H82480   9.274   2.598   3.604  0.9633  0.3213  0.3950
  611MOL0     H82481   9.196   2.873   3.677 -1.3452 -0.7467  0.1787
  611MOL0     H82482   9.142   2.797   3.528 -0.3514  0.0825 -0.9803
  611MOL0     H82483   9.546   2.842   3.434  0.2107 -1.2209  1.1002
  611MOL0     H82484   9.125   2.686   4.165  0.2669  1.2135  1.9874
  611MOL0     H82485   8.930   2.734   4.300  0.4295  1.1947  1.2018
  612MOL0     O82486   7.391   8.124   4.608  0.3249 -0.1146 -0.1872
  612MOL0     C82487   7.399   8.062   4.715  0.0687 -0.1248 -0.7286
  612MOL0     O82488   7.299   8.022   4.803 -0.0261 -0.4154 -0.1845
  612MOL0     C82489   7.178   8.088   4.787 -1.7220 -0.0450 -1.0348
  612MOL0     C82490   7.165   8.205   4.868  0.2925  0.1714  0.0227
  612MOL0     C82491   7.038   8.268   4.865 -0.3962 -0.9105 -0.1035
  612MOL0     C82492   6.930   8.216   4.791 -0.2666 -0.1793 -0.5715
  612MOL0     O82493   6.812   8.275   4.801  0.8228  0.0179 -0.3507
  612MOL0     C82494   6.694   8.191   4.809  0.2173 -0.7968 -0.1219
  612MOL0     C82495   6.677   8.163   4.960  0.3270  0.2552 -0.2860
  612MOL0     C82496   6.531   8.190   4.999 -0.4466  0.4812  0.3872
  612MOL0     C82497   6.486   8.123   5.121 -0.2018 -0.4829 -0.2640
  612MOL0     C82498   6.348   8.181   5.166 -0.8075  1.1277 -0.1503
  612MOL0     C82499   6.288   8.100   5.282  0.0182  0.7017 -0.3573
  612MOL0     C82500   6.169   8.174   5.343  0.5349 -0.3346  0.6732
  612MOL0     C82501   6.124   8.087   5.464 -0.7532 -0.1737  0.5438
  612MOL0     N82502   5.990   8.130   5.504 -0.0255  0.9077  0.5243
  612MOL0     C82503   5.878   8.080   5.449 -0.1071 -0.2218  0.9692
  612MOL0     C82504   5.772   8.154   5.492 -0.5726  0.7924  0.3329
  612MOL0     C82505   5.628   8.129   5.476 -0.2225  0.4975  0.2165
  612MOL0     C82506   5.581   8.077   5.348  1.0884  0.1842 -0.0880
  612MOL0     C82507   5.594   8.190   5.240 -0.3317  0.2267 -0.4779
  612MOL0     C82508   5.532   8.168   5.099 -0.8271  0.4346 -0.1903
  612MOL0     O82509   5.388   8.174   5.112 -0.0644 -0.3382 -0.2348
  612MOL0     C82510   5.317   8.051   5.123 -0.7556 -0.4204  0.3089
  612MOL0     C82511   5.380   7.923   5.115 -0.3369  0.0995  0.8809
  612MOL0     C82512   5.303   7.804   5.103 -0.2791  0.0611 -0.4948
  612MOL0     C82513   5.375   7.673   5.094  0.5000  0.0509  0.1225
  612MOL0     C82514   5.162   7.816   5.128 -0.3440  0.2119  0.4441
  612MOL0     C82515   5.060   7.711   5.137 -0.3705 -0.5559 -0.3028
  612MOL0     O82516   5.099   7.573   5.136 -0.0906 -0.7657  1.2389
  612MOL0     C82517   5.018   7.490   5.074 -0.1964  0.2366  0.0044
  612MOL0     C82518   4.976   7.377   5.151 -0.6730  0.5589 -0.3227
  612MOL0     C82519   4.898   7.277   5.091 -0.2941  0.2438  0.1908
  612MOL0     C82520   4.866   7.282   4.953  0.7200  0.0870  0.3956
  612MOL0     O82521   4.796   7.181   4.887  0.1523  0.0884  0.1798
  612MOL0     C82522   4.708   7.213   4.782  0.3478 -0.1833  0.9672
  612MOL0     C82523   4.576   7.151   4.821 -1.3755 -0.2342 -0.4360
  612MOL0     C82524   4.476   7.144   4.706 -0.1225 -0.2935 -0.1891
  612MOL0     C82525   4.387   7.271   4.674 -0.1962  0.1781 -0.4625
  612MOL0     C82526   4.466   7.388   4.599  0.6490  0.3516  0.8415
  612MOL0     C82527   4.358   7.477   4.539 -0.6073 -0.4140  0.1813
  612MOL0     C82528   4.316   7.420   4.414 -0.1556  0.5065  0.0438
  612MOL0     C82529   4.241   7.504   4.313 -0.3612 -0.0306  0.2909
  612MOL0    Cl82530   4.182   7.392   4.174  0.0297  0.0810 -0.0958
  612MOL0     C82531   4.905   7.397   4.886 -0.1042 -0.0262  1.1394
  612MOL0     C82532   4.985   7.497   4.943 -0.4427 -0.5009  1.0708
  612MOL0     O82533   4.944   7.750   5.137  1.1339 -0.0260  0.1738
  612MOL0     C82534   5.108   7.944   5.151 -0.5498  0.5151  0.2319
  612MOL0     C82535   5.180   8.060   5.143 -0.5765 -0.8690  0.1134
  612MOL0     N82536   5.829   8.234   5.596 -0.0915 -0.2878  0.0215
  612MOL0     N82537   5.958   8.234   5.589  0.2376 -0.4584 -0.5615
  612MOL0     C82538   6.954   8.102   4.709 -0.7686  0.3006  0.6638
  612MOL0     C82539   7.078   8.043   4.709 -0.0680  1.1153 -0.0062
  612MOL0     C82540   7.538   8.058   4.765  0.1645 -0.0697  0.2090
  612MOL0     C82541   7.564   8.092   4.900  0.0647 -0.4881 -0.1901
  612MOL0     C82542   7.698   8.098   4.951 -1.2700 -0.4194  0.1966
  612MOL0     C82543   7.802   8.066   4.861 -0.5137 -0.3132 -0.6742
  612MOL0     O82544   7.929   8.064   4.914  0.1519  0.4745 -0.2546
  612MOL0     C82545   7.941   7.999   5.047 -1.0235  0.4897  0.6818
  612MOL0     C82546   8.091   7.947   5.064 -0.0956 -0.8165 -0.5312
  612MOL0     C82547   8.119   7.902   5.209  0.2137  0.3587  0.4302
  612MOL0     C82548   8.262   7.945   5.250 -0.0154  0.1166 -0.4551
  612MOL0     C82549   8.369   7.891   5.169 -0.4197  0.4125  0.5312
  612MOL0     C82550   8.449   7.845   5.091 -0.7663 -0.4499  0.3466
  612MOL0     C82551   7.777   8.035   4.731 -0.8634 -0.3612  0.4792
  612MOL0     C82552   7.647   8.029   4.683 -0.2549  0.3040  0.4212
  612MOL0     H82553   7.256   8.224   4.924  1.6962 -2.7669 -1.0025
  612MOL0     H82554   7.016   8.352   4.931  0.6861 -1.2951  0.7864
  612MOL0     H82555   6.611   8.256   4.783 -1.1144 -0.4897  4.1001
  612MOL0     H82556   6.690   8.096   4.755 -1.4481 -0.6977 -0.2117
  612MOL0     H82557   6.707   8.060   4.982  0.9099  0.2955 -0.8656
  612MOL0     H82558   6.745   8.225   5.019  1.1191  3.5712 -4.2374
  612MOL0     H82559   6.516   8.298   5.015 -1.5531  0.1727  1.5448
  612MOL0     H82560   6.469   8.172   4.910 -0.0055 -1.2502  0.4046
  612MOL0     H82561   6.485   8.015   5.106  0.0891 -0.4875 -0.2530
  612MOL0     H82562   6.559   8.152   5.197  0.9964  1.8357 -2.1508
  612MOL0     H82563   6.343   8.289   5.180 -0.8713  1.1523 -0.3589
  612MOL0     H82564   6.291   8.162   5.075  1.4107 -0.3361 -1.3068
  612MOL0     H82565   6.259   8.003   5.242 -1.6030  1.8436 -2.1237
  612MOL0     H82566   6.353   8.083   5.368  2.0738 -2.8582 -2.3760
  612MOL0     H82567   6.191   8.279   5.366 -0.5118  0.5574 -1.9822
  612MOL0     H82568   6.091   8.172   5.266  1.6681 -2.2823 -0.4930
  612MOL0     H82569   6.199   8.099   5.543 -0.7741  0.8680  0.4288
  612MOL0     H82570   6.121   7.981   5.438  0.7134 -0.5461  1.7413
  612MOL0     H82571   5.868   7.988   5.393  0.2883 -0.5038  1.3583
  612MOL0     H82572   5.612   8.061   5.560  3.0896  1.3165  1.6404
  612MOL0     H82573   5.561   8.210   5.505 -2.9926 -0.6814 -2.2726
  612MOL0     H82574   5.478   8.041   5.351  1.1311  0.0249  3.1168
  612MOL0     H82575   5.642   7.987   5.337 -0.3352 -0.8854  0.5495
  612MOL0     H82576   5.703   8.187   5.228  0.0744  2.1576  1.9845
  612MOL0     H82577   5.566   8.279   5.296  0.1172 -0.9927  1.7836
  612MOL0     H82578   5.567   8.073   5.057 -0.2545  0.4212  0.3040
  612MOL0     H82579   5.568   8.250   5.036  1.2967  0.4918  1.0141
  612MOL0     H82580   5.488   7.919   5.107 -0.2946  1.3155  0.6587
  612MOL0     H82581   5.481   7.698   5.084  0.1705  0.9519 -1.7220
  612MOL0     H82582   5.361   7.611   5.183 -1.7025  0.5645  0.2085
  612MOL0     H82583   5.341   7.622   5.003  1.1552  0.2298 -0.2285
  612MOL0     H82584   5.007   7.368   5.255  1.9724  0.4836 -1.0246
  612MOL0     H82585   4.865   7.194   5.152  0.5812 -1.6452 -1.7879
  612MOL0     H82586   4.695   7.320   4.764  0.7466 -0.0085  1.6875
  612MOL0     H82587   4.748   7.155   4.697  1.5160 -3.6246  3.6141
  612MOL0     H82588   4.591   7.046   4.849 -1.6695 -0.4597 -1.1130
  612MOL0     H82589   4.547   7.212   4.907  1.1645  1.5667 -0.7687
  612MOL0     H82590   4.398   7.072   4.730 -0.7760 -0.2392 -2.0439
  612MOL0     H82591   4.538   7.115   4.621 -0.1972 -0.1134 -0.3047
  612MOL0     H82592   4.303   7.234   4.614  1.3907 -2.6138 -1.1125
  612MOL0     H82593   4.353   7.312   4.770 -0.3485 -0.8594 -0.0625
  612MOL0     H82594   4.527   7.347   4.519 -0.6771 -1.6106  0.7675
  612MOL0     H82595   4.529   7.436   4.674  0.5585  1.1145  0.4417
  612MOL0     H82596   4.270   7.468   4.603 -0.8710 -3.0721 -0.4295
  612MOL0     H82597   4.383   7.583   4.527 -2.5386  0.3302  2.0644
  612MOL0     H82598   4.246   7.338   4.435  0.0155 -0.1462 -1.7317
  612MOL0     H82599   4.401   7.376   4.360  1.4010 -1.5373  3.7545
  612MOL0     H82600   4.306   7.583   4.271 -2.2492  2.6622  2.0937
  612MOL0     H82601   4.163   7.557   4.368 -0.3155  1.3739 -0.9325
  612MOL0     H82602   4.873   7.418   4.784  1.0583  0.8204  0.9257
  612MOL0     H82603   5.010   7.589   4.891  0.1445 -0.8352  0.7648
  612MOL0     H82604   5.005   7.962   5.182 -0.6615  2.9239 -1.2818
  612MOL0     H82605   5.133   8.156   5.165 -1.2125 -0.9883 -0.6872
  612MOL0     H82606   6.886   8.071   4.630  0.7168  1.6758 -1.2451
  612MOL0     H82607   7.097   7.951   4.655 -0.6075 -0.1599  1.8557
  612MOL0     H82608   7.479   8.129   4.956 -0.1524  2.6170 -2.2664
  612MOL0     H82609   7.723   8.128   5.053  1.6078  0.4451 -0.6751
  612MOL0     H82610   7.922   8.079   5.118 -0.0930  3.0864 -1.7876
  612MOL0     H82611   7.871   7.916   5.062 -0.1271 -0.5538 -0.5886
  612MOL0     H82612   8.155   8.028   5.029 -0.9009 -1.0446 -2.6730
  612MOL0     H82613   8.116   7.866   4.996  2.1741  0.9376 -1.9220
  612MOL0     H82614   8.109   7.794   5.199  0.9149  0.4676 -2.6224
  612MOL0     H82615   8.042   7.938   5.277 -0.9650  1.5799 -1.4574
  612MOL0     H82616   8.274   7.917   5.355  0.9479 -0.5584 -0.7326
  612MOL0     H82617   8.265   8.053   5.233 -0.3446  0.2317  0.1761
  612MOL0     H82618   8.532   7.803   5.038 -0.3942  0.4491  0.2067
  612MOL0     H82619   7.866   8.020   4.670  1.5373  1.2259  3.2976
  612MOL0     H82620   7.639   8.011   4.576 -1.8425  0.1745  0.5363
  613MOL0     O82621   2.988   0.329   9.457 -0.2338  0.1568 -0.3818
  613MOL0     C82622   3.038   0.233   9.391 -0.3409  1.4334 -0.3242
  613MOL0     O82623   2.979   0.146   9.298 -0.4657 -0.3955 -0.4679
  613MOL0     C82624   2.841   0.160   9.289  0.5268 -0.6923  0.3158
  613MOL0     C82625   2.789   0.187   9.156 -0.2697 -0.3126  0.7411
  613MOL0     C82626   2.651   0.189   9.146 -0.3519 -0.7030  0.6338
  613MOL0     C82627   2.562   0.185   9.249  0.5760 -0.7000  0.8681
  613MOL0     O82628   2.431   0.185   9.215 -0.2665 -0.6388 -0.2827
  613MOL0     C82629   2.321   0.188   9.313 -0.0718  0.7465 -0.4216
  613MOL0     C82630   2.191   0.209   9.238 -0.3563  0.8436 -0.1422
  613MOL0     C82631   2.194   0.327   9.142  0.0207  0.0931 -0.4913
  613MOL0     C82632   2.063   0.339   9.076  0.0823 -0.3502  0.2277
  613MOL0     C82633   2.031   0.485   9.032 -0.2981 -0.4240 -0.9582
  613MOL0     C82634   1.908   0.492   8.949  0.0281 -0.4645  0.1240
  613MOL0     C82635   1.778   0.482   9.036 -0.2600  0.3579  0.2667
  613MOL0     C82636   1.653   0.481   8.938 -0.3087 -0.1768 -0.1102
  613MOL0     N82637   1.531   0.506   9.018 -0.5911 -0.1039  0.7185
  613MOL0     C82638   1.460   0.408   9.076  0.3142 -0.0592  0.7074
  613MOL0     C82639   1.363   0.476   9.138  1.1545 -0.2987 -0.3437
  613MOL0     C82640   1.252   0.415   9.222 -0.5126 -0.7012 -0.9874
  613MOL0     C82641   1.115   0.465   9.171  0.1252  0.1691 -0.0041
  613MOL0     C82642   1.083   0.367   9.063  0.4802 -0.4775  0.1038
  613MOL0     C82643   0.963   0.403   8.972  0.0008  0.8760 -0.7469
  613MOL0     O82644   0.964   0.313   8.853 -0.6026 -0.0513 -0.8177
  613MOL0     C82645   0.854   0.327   8.780  0.6535  0.0664  0.6271
  613MOL0     C82646   0.834   0.440   8.697  0.2485  0.4392  0.4594
  613MOL0     C82647   0.727   0.443   8.617  0.5877 -1.1129  0.4856
  613MOL0     C82648   0.696   0.578   8.560  0.3538  0.9008 -0.1189
  613MOL0     C82649   0.648   0.332   8.590  0.1180 -0.0551 -0.1581
  613MOL0     C82650   0.528   0.310   8.495  0.2561  0.8614  0.2882
  613MOL0     O82651   0.508   0.177   8.455 -0.0898  0.4772  1.1829
  613MOL0     C82652   0.399   0.154   8.383  0.3952 -0.0279  0.8720
  613MOL0     C82653   0.273   0.162   8.443  0.0827  0.3380 -0.0607
  613MOL0     C82654   0.153   0.154   8.377 -0.8332 -0.0988  0.5248
  613MOL0     C82655   0.152   0.122   8.238 -0.0341  0.0970 -0.6820
  613MOL0     O82656   0.029   0.113   8.172  0.6359  0.2104 -0.1806
  613MOL0     C82657  -0.093   0.162   8.232  0.2476  0.4945 -0.0890
  613MOL0     C82658  -0.183   0.053   8.304 -0.6256 -0.2362  0.2195
  613MOL0     C82659  -0.326   0.098   8.330 -0.1346 -0.2936  0.0350
  613MOL0     C82660  -0.398  -0.012   8.400 -0.4276  0.7460 -0.1221
  613MOL0     C82661  -0.540   0.017   8.439  0.9307 -0.3098 -0.3371
  613MOL0     C82662  -0.557   0.137   8.537 -0.1245 -0.6007 -0.2060
  613MOL0     C82663  -0.706   0.155   8.568 -0.2054 -0.3991 -0.0914
  613MOL0     C82664  -0.729   0.256   8.672 -0.8413  0.2157 -0.3846
  613MOL0    Cl82665  -0.740   0.193   8.839 -0.3433 -0.1911  0.0371
  613MOL0     C82666   0.278   0.127   8.162  0.5745  0.7311 -0.1917
  613MOL0     C82667   0.403   0.135   8.237 -0.1865  0.1824  0.2092
  613MOL0     O82668   0.466   0.411   8.446  0.3073 -0.3031 -0.4128
  613MOL0     C82669   0.667   0.220   8.677 -0.5536  0.0156 -0.7603
  613MOL0     C82670   0.764   0.222   8.778  0.2474 -0.9847 -0.6772
  613MOL0     N82671   1.385   0.610   9.127 -0.3392  0.5822  0.4049
  613MOL0     N82672   1.490   0.629   9.057  0.4726 -0.4407  0.2452
  613MOL0     C82673   2.612   0.156   9.381  0.6880 -0.5102  0.9296
  613MOL0     C82674   2.754   0.150   9.400 -0.1422 -0.0951 -0.1072
  613MOL0     C82675   3.191   0.209   9.400  0.4377  1.2648  0.2528
  613MOL0     C82676   3.273   0.300   9.453 -0.2017  0.2907 -0.9383
  613MOL0     C82677   3.406   0.267   9.464  1.0280  0.1694  0.0171
  613MOL0     C82678   3.452   0.135   9.440 -0.3899 -0.3649  0.0748
  613MOL0     O82679   3.582   0.093   9.473  0.9161 -0.0896 -0.2730
  613MOL0     C82680   3.690   0.190   9.471  0.5363 -0.3815  0.5869
  613MOL0     C82681   3.837   0.148   9.465 -0.4671  0.7184  0.6757
  613MOL0     C82682   3.888   0.085   9.321 -0.1133  0.0630  0.0550
  613MOL0     C82683   4.035   0.119   9.293  0.0269 -1.1894  0.8795
  613MOL0     C82684   4.127   0.033   9.372 -1.5257 -0.1544  0.0965
  613MOL0     C82685   4.209  -0.030   9.447 -0.2354 -1.0335  0.7655
  613MOL0     C82686   3.369   0.038   9.379 -0.5502 -0.2606  0.3171
  613MOL0     C82687   3.237   0.078   9.365 -0.4501  0.5467 -0.1115
  613MOL0     H82688   2.845   0.196   9.063 -0.2225 -4.2848  0.2407
  613MOL0     H82689   2.604   0.195   9.048 -0.5691 -1.0446  0.7160
  613MOL0     H82690   2.316   0.100   9.377 -0.2635  0.6840 -0.5192
  613MOL0     H82691   2.344   0.278   9.371 -0.6254  2.3286 -2.4776
  613MOL0     H82692   2.178   0.108   9.197  1.4900 -0.9562  3.3318
  613MOL0     H82693   2.112   0.224   9.313 -0.9951  0.6329 -0.7539
  613MOL0     H82694   2.202   0.426   9.187 -0.9091  0.0674 -0.2583
  613MOL0     H82695   2.281   0.313   9.077 -0.2135 -2.7303 -0.3286
  613MOL0     H82696   2.052   0.283   8.982 -0.5697  0.8839 -0.4503
  613MOL0     H82697   1.989   0.314   9.153 -0.4032  1.7802  0.5043
  613MOL0     H82698   2.018   0.536   9.128 -0.0510 -1.4216 -0.3782
  613MOL0     H82699   2.118   0.531   8.984  0.8383 -0.6676  0.7956
  613MOL0     H82700   1.908   0.587   8.895 -1.1714 -1.2238 -1.3061
  613MOL0     H82701   1.905   0.410   8.876 -2.2306 -0.6779  0.3941
  613MOL0     H82702   1.766   0.398   9.106  0.0424  0.4413  0.4180
  613MOL0     H82703   1.771   0.578   9.087  2.2861  1.5534 -1.4680
  613MOL0     H82704   1.644   0.383   8.891 -1.2110 -0.5708  0.8640
  613MOL0     H82705   1.666   0.556   8.859 -3.7058 -0.0908 -0.7404
  613MOL0     H82706   1.472   0.300   9.076 -0.4673 -0.1899 -1.2637
  613MOL0     H82707   1.263   0.307   9.229 -0.1317 -0.6456 -0.6791
  613MOL0     H82708   1.266   0.462   9.320  0.5646 -1.4071 -0.7871
  613MOL0     H82709   1.124   0.560   9.117 -2.9663  0.8521  0.5203
  613MOL0     H82710   1.044   0.467   9.254 -0.3242 -0.6636 -0.3501
  613MOL0     H82711   1.078   0.270   9.115 -0.9052 -0.6317 -0.2778
  613MOL0     H82712   1.161   0.357   8.988  0.2683 -1.0590 -0.0434
  613MOL0     H82713   0.982   0.504   8.934  0.1094  1.0119 -0.3380
  613MOL0     H82714   0.876   0.393   9.037  0.3253 -1.6701 -0.6080
  613MOL0     H82715   0.902   0.524   8.706 -1.3774  1.8991 -0.4461
  613MOL0     H82716   0.774   0.654   8.577  2.0469 -1.5068  5.1529
  613MOL0     H82717   0.681   0.554   8.455  2.6296 -1.5552  0.0074
  613MOL0     H82718   0.611   0.624   8.610 -0.3448  0.5100 -0.9261
  613MOL0     H82719   0.266   0.183   8.549  2.8612 -0.0931  0.2748
  613MOL0     H82720   0.062   0.163   8.435 -0.4332 -2.8894  1.7490
  613MOL0     H82721  -0.086   0.251   8.295 -3.9219  3.0683 -2.7715
  613MOL0     H82722  -0.157   0.195   8.150 -1.1909 -2.4502 -0.2712
  613MOL0     H82723  -0.177  -0.030   8.233 -1.6413  0.8518 -1.1978
  613MOL0     H82724  -0.136   0.020   8.397  0.4824 -0.9738 -0.5757
  613MOL0     H82725  -0.384   0.131   8.244 -2.0221 -0.8353  1.0364
  613MOL0     H82726  -0.314   0.188   8.392  3.1805  0.7414 -1.8800
  613MOL0     H82727  -0.406  -0.099   8.334  0.2275  0.4766  0.1399
  613MOL0     H82728  -0.334  -0.052   8.479  0.6810  1.1773 -0.7674
  613MOL0     H82729  -0.594  -0.065   8.487  1.6255  0.1906  1.3939
  613MOL0     H82730  -0.602   0.053   8.356  0.2865  2.2130  1.1328
  613MOL0     H82731  -0.497   0.118   8.626  0.3788  2.6484  0.2859
  613MOL0     H82732  -0.522   0.225   8.483 -0.7829 -0.1620  0.0647
  613MOL0     H82733  -0.741   0.059   8.608  2.2392 -1.2338  0.2429
  613MOL0     H82734  -0.769   0.171   8.480  1.8817 -1.7936 -1.9250
  613MOL0     H82735  -0.824   0.307   8.650  0.3018  3.8193  2.0902
  613MOL0     H82736  -0.661   0.342   8.672 -4.0106  2.9470  0.4444
  613MOL0     H82737   0.280   0.113   8.054  0.2197  0.4043 -0.1568
  613MOL0     H82738   0.499   0.129   8.187 -0.3729 -0.9910 -0.0386
  613MOL0     H82739   0.604   0.132   8.675  1.4772 -1.9992  4.6278
  613MOL0     H82740   0.771   0.144   8.853  1.0926 -1.0431 -0.8171
  613MOL0     H82741   2.537   0.151   9.460 -1.1134 -3.5784 -0.7970
  613MOL0     H82742   2.804   0.136   9.496  0.6891  1.6351 -0.2563
  613MOL0     H82743   3.222   0.393   9.477 -1.0845 -0.5667  0.7418
  613MOL0     H82744   3.471   0.347   9.499  0.5234  1.1831 -1.2331
  613MOL0     H82745   3.669   0.260   9.391 -0.6695 -0.9760  0.3666
  613MOL0     H82746   3.675   0.247   9.563  0.2014  1.3420 -0.4976
  613MOL0     H82747   3.851   0.080   9.549 -1.4874  0.9100  1.0181
  613MOL0     H82748   3.896   0.236   9.491  1.6717 -0.0467 -1.2285
  613MOL0     H82749   3.834   0.123   9.233  2.5332 -2.2906 -2.8251
  613MOL0     H82750   3.876  -0.023   9.314  2.0467 -0.2863  0.9610
  613MOL0     H82751   4.046   0.224   9.319  1.3381 -1.2650  0.7059
  613MOL0     H82752   4.057   0.108   9.187  2.5760  3.4982  0.6769
  613MOL0     H82753   4.273  -0.095   9.503 -0.5924 -1.8500  0.2526
  613MOL0     H82754   3.406  -0.063   9.370  0.1162  0.1284 -1.9105
  613MOL0     H82755   3.157   0.013   9.331  0.2793 -1.3957  1.6455
  614MOL0     O82756   4.016  10.959   1.798  0.1736 -0.2769  0.5158
  614MOL0     C82757   3.989  11.077   1.816 -0.2223 -0.0983 -0.0455
  614MOL0     O82758   4.078  11.176   1.805  0.7533 -0.8777  0.2249
  614MOL0     C82759   4.208  11.136   1.777  0.8850  0.0146 -0.7153
  614MOL0     C82760   4.309  11.116   1.878  0.0887  0.7668 -0.9144
  614MOL0     C82761   4.435  11.082   1.837 -0.6135  0.4243 -0.2297
  614MOL0     C82762   4.470  11.093   1.701 -0.7030  0.8915 -0.3728
  614MOL0     O82763   4.593  11.063   1.655 -0.5172 -0.2634 -0.1971
  614MOL0     C82764   4.706  11.060   1.750  1.0503  0.0698  0.1236
  614MOL0     C82765   4.836  11.035   1.677 -0.0719  0.4847  0.1277
  614MOL0     C82766   4.828  10.890   1.617 -0.3620  0.2942 -0.4337
  614MOL0     C82767   4.846  10.786   1.736 -0.1016  0.4223  0.2154
  614MOL0     C82768   4.792  10.641   1.709  0.1373 -0.4583 -0.2138
  614MOL0     C82769   4.641  10.633   1.667 -0.1902 -1.0511 -0.0593
  614MOL0     C82770   4.549  10.701   1.768 -0.1880  0.2937  0.6175
  614MOL0     C82771   4.410  10.639   1.773 -0.7370  0.3041  0.8088
  614MOL0     N82772   4.328  10.659   1.645  0.2338 -0.1050  0.2280
  614MOL0     C82773   4.256  10.767   1.627 -0.2403 -0.1306 -0.2483
  614MOL0     C82774   4.221  10.769   1.492  0.2754 -0.1414 -0.1134
  614MOL0     C82775   4.120  10.866   1.445  0.0569  0.0078 -0.0697
  614MOL0     C82776   4.002  10.794   1.383  0.3641  0.0762 -0.1306
  614MOL0     C82777   3.885  10.751   1.484  0.0355  0.1576  0.1811
  614MOL0     C82778   3.780  10.855   1.508  0.2782  0.4408  0.9797
  614MOL0     O82779   3.708  10.882   1.388 -0.1327 -0.4317  0.7583
  614MOL0     C82780   3.573  10.844   1.381  0.1759  0.3707  0.4779
  614MOL0     C82781   3.556  10.732   1.297  0.1101  1.0184 -0.5662
  614MOL0     C82782   3.431  10.665   1.299 -1.3815 -0.2019 -0.1090
  614MOL0     C82783   3.416  10.541   1.209  0.9366 -0.6561 -0.0598
  614MOL0     C82784   3.329  10.725   1.372 -0.2621 -0.3080  0.9013
  614MOL0     C82785   3.188  10.675   1.369 -0.1257 -0.4645  0.5497
  614MOL0     O82786   3.165  10.545   1.370 -0.2614  0.6036 -0.2629
  614MOL0     C82787   3.036  10.493   1.366 -0.2872  0.1053 -0.0598
  614MOL0     C82788   2.937  10.537   1.275  1.0902 -0.1862 -1.0217
  614MOL0     C82789   2.818  10.466   1.264  0.3052 -0.1570  0.1468
  614MOL0     C82790   2.799  10.342   1.329 -0.0624  0.3300 -0.1107
  614MOL0     O82791   2.668  10.285   1.314  0.3436  0.5600  0.1919
  614MOL0     C82792   2.626  10.225   1.436  0.6180 -0.8682  0.5188
  614MOL0     C82793   2.503  10.296   1.497 -0.4325  0.5351 -0.2235
  614MOL0     C82794   2.530  10.448   1.518 -0.7122  0.1279  0.2390
  614MOL0     C82795   2.392  10.519   1.540  0.2778 -0.5361  0.5040
  614MOL0     C82796   2.322  10.495   1.679 -0.2742 -0.2636  0.5360
  614MOL0     C82797   2.185  10.565   1.687 -0.2063  0.3822  0.6024
  614MOL0     C82798   2.082  10.482   1.605 -0.3279 -0.8508 -0.4329
  614MOL0     C82799   1.936  10.529   1.622  0.1089  0.0233  0.2375
  614MOL0    Cl82800   1.844  10.464   1.488 -0.3387  0.1960 -0.1216
  614MOL0     C82801   2.912  10.283   1.399 -0.2639 -0.6590  0.2094
  614MOL0     C82802   3.020  10.361   1.423 -0.1966 -0.4967 -0.5101
  614MOL0     O82803   3.099  10.763   1.378  0.1939 -0.3633  0.1267
  614MOL0     C82804   3.347  10.848   1.446  0.8833 -1.0380  0.6176
  614MOL0     C82805   3.474  10.903   1.447 -0.1649 -0.7487 -0.8622
  614MOL0     N82806   4.284  10.662   1.433  0.9923  0.3182  0.2556
  614MOL0     N82807   4.349  10.601   1.526 -0.3123 -0.9625  0.2557
  614MOL0     C82808   4.368  11.108   1.603  0.6003 -0.2642  0.4659
  614MOL0     C82809   4.237  11.128   1.642 -0.2490  0.4049 -0.1591
  614MOL0     C82810   3.847  11.111   1.850 -0.2551  0.0548  0.0466
  614MOL0     C82811   3.814  11.230   1.919 -0.5811  0.1540  0.0919
  614MOL0     C82812   3.677  11.259   1.950 -0.3966  0.0275  1.2376
  614MOL0     C82813   3.581  11.166   1.913 -0.0181 -0.0281 -0.3255
  614MOL0     O82814   3.451  11.200   1.925  0.4150  0.4668  0.0542
  614MOL0     C82815   3.349  11.113   1.865  0.1398 -0.3594 -0.1460
  614MOL0     C82816   3.213  11.195   1.868 -1.0704  0.3225  0.0634
  614MOL0     C82817   3.184  11.233   2.016 -0.1768 -0.8344 -1.2857
  614MOL0     C82818   3.049  11.324   2.040 -0.1519  0.0024  0.7275
  614MOL0     C82819   3.044  11.357   2.189  0.4302  0.8276  0.3343
  614MOL0     C82820   3.046  11.378   2.306 -0.4507  0.3009  0.0651
  614MOL0     C82821   3.613  11.039   1.865  0.5468  0.1264  0.4943
  614MOL0     C82822   3.745  11.020   1.829 -0.9334  0.2988 -0.0409
  614MOL0     H82823   4.288  11.143   1.981  2.0234 -1.3112  0.1052
  614MOL0     H82824   4.510  11.061   1.913 -1.5297  0.4960  0.7111
  614MOL0     H82825   4.717  11.157   1.800 -0.9130 -0.5231  1.8216
  614MOL0     H82826   4.689  10.987   1.830  0.9314 -1.8560 -1.5759
  614MOL0     H82827   4.851  11.112   1.601  0.1014 -0.4475 -0.8096
  614MOL0     H82828   4.925  11.045   1.740 -0.4631  0.6216  0.6648
  614MOL0     H82829   4.733  10.860   1.572 -0.3060 -1.0640  0.2864
  614MOL0     H82830   4.914  10.891   1.549  1.0562  0.5630  1.2902
  614MOL0     H82831   4.951  10.779   1.768 -0.1014 -0.5978  0.0362
  614MOL0     H82832   4.795  10.825   1.824  1.1995  2.4012  0.1589
  614MOL0     H82833   4.850  10.599   1.626  1.5878  0.9494  0.0357
  614MOL0     H82834   4.810  10.582   1.799  1.8651  2.4683  1.4899
  614MOL0     H82835   4.625  10.682   1.570  0.2048  2.1585  1.3761
  614MOL0     H82836   4.619  10.526   1.667 -1.7609 -0.7991  2.5542
  614MOL0     H82837   4.591  10.693   1.869  1.7230 -2.8007 -0.2820
  614MOL0     H82838   4.537  10.804   1.733 -1.1961  0.3398  1.0396
  614MOL0     H82839   4.348  10.688   1.849 -4.7888 -2.2224 -0.5307
  614MOL0     H82840   4.426  10.538   1.810  0.6034  0.5290  0.9028
  614MOL0     H82841   4.224  10.836   1.704 -1.4255  0.2807 -1.0852
  614MOL0     H82842   4.078  10.940   1.514 -1.2361 -1.1676  0.4524
  614MOL0     H82843   4.170  10.922   1.366 -1.4305  0.2758 -0.8654
  614MOL0     H82844   4.040  10.699   1.346  2.4908  1.1625 -0.9141
  614MOL0     H82845   3.964  10.848   1.296  0.0813 -1.0809 -0.7485
  614MOL0     H82846   3.928  10.733   1.583 -1.1869 -2.0513  0.3848
  614MOL0     H82847   3.845  10.658   1.442 -0.0009  1.1963 -2.2274
  614MOL0     H82848   3.825  10.950   1.538 -2.6616  1.7184  1.6989
  614MOL0     H82849   3.712  10.816   1.584  1.3765 -2.1291  0.7434
  614MOL0     H82850   3.649  10.693   1.255  2.2384  1.5150  3.1898
  614MOL0     H82851   3.325  10.543   1.149  0.3901 -0.7930  0.7609
  614MOL0     H82852   3.502  10.540   1.140  0.3592  3.1216 -1.0792
  614MOL0     H82853   3.418  10.448   1.266  3.0062 -0.4820  0.2240
  614MOL0     H82854   2.926  10.630   1.221 -3.0255 -0.7211 -1.3751
  614MOL0     H82855   2.736  10.504   1.203 -0.8918 -1.0226  1.1569
  614MOL0     H82856   2.593  10.124   1.413  0.6354 -0.7958  0.1645
  614MOL0     H82857   2.701  10.213   1.514  0.6466 -0.8653  0.4918
  614MOL0     H82858   2.414  10.274   1.438  0.3936  1.5499 -1.9250
  614MOL0     H82859   2.497  10.252   1.596 -3.2405 -1.6574 -1.2717
  614MOL0     H82860   2.577  10.504   1.437  0.9157  0.8785  1.6498
  614MOL0     H82861   2.593  10.467   1.605 -0.9657  2.6649 -0.0678
  614MOL0     H82862   2.406  10.625   1.519  2.2260 -0.7075  0.7456
  614MOL0     H82863   2.322  10.495   1.459  1.5963  0.6869 -1.0749
  614MOL0     H82864   2.384  10.552   1.750 -0.0884 -0.1360  0.2721
  614MOL0     H82865   2.310  10.392   1.714 -1.6837  0.3950  2.1750
  614MOL0     H82866   2.154  10.583   1.791 -1.2718  1.0216  0.1884
  614MOL0     H82867   2.201  10.667   1.650 -1.9064  0.5542  0.2463
  614MOL0     H82868   2.075  10.380   1.645  2.0655  0.0289  2.6474
  614MOL0     H82869   2.108  10.472   1.499 -1.3191  1.0899 -0.8953
  614MOL0     H82870   1.939  10.638   1.607  0.1921 -0.3955 -3.8307
  614MOL0     H82871   1.896  10.509   1.722 -0.7074 -0.6640 -0.2147
  614MOL0     H82872   2.908  10.181   1.436  1.1371  0.0394  2.4131
  614MOL0     H82873   3.107  10.319   1.471  0.2123  1.9107  1.0624
  614MOL0     H82874   3.269  10.905   1.495  0.0915 -1.3117 -0.2917
  614MOL0     H82875   3.499  10.990   1.508  0.5627 -1.1006 -0.6493
  614MOL0     H82876   4.394  11.117   1.498 -1.1519  1.8113  0.1601
  614MOL0     H82877   4.149  11.151   1.582  0.8783  0.5989 -1.7785
  614MOL0     H82878   3.891  11.304   1.940  0.6752 -0.4689 -2.0047
  614MOL0     H82879   3.651  11.353   1.997  0.8856  0.0296  1.9875
  614MOL0     H82880   3.366  11.074   1.765 -0.7933 -3.8218  0.9198
  614MOL0     H82881   3.337  11.027   1.931 -0.2520 -2.3782 -2.7150
  614MOL0     H82882   3.134  11.129   1.831 -0.4107 -1.3557  1.5697
  614MOL0     H82883   3.227  11.286   1.808 -2.8773  1.7492  1.6886
  614MOL0     H82884   3.272  11.285   2.056 -2.0284  3.3538 -2.0796
  614MOL0     H82885   3.162  11.141   2.071 -0.5630  1.2752  2.4462
  614MOL0     H82886   2.962  11.259   2.023 -0.8476  0.1756  3.2144
  614MOL0     H82887   3.058  11.413   1.976  2.0175  0.3965  1.4918
  614MOL0     H82888   3.062  11.414   2.406 -0.4352 -0.9519  0.5299
  614MOL0     H82889   3.540  10.963   1.837 -1.6705  1.8201  1.4223
  614MOL0     H82890   3.771  10.928   1.777  1.7950  2.1845 -2.2636
  615MOL0     O82891   5.881   5.820   4.034  0.0819 -0.0363  0.8605
  615MOL0     C82892   5.902   5.852   4.151  0.2798 -0.1617  1.0842
  615MOL0     O82893   5.863   5.977   4.200  0.1412 -0.0323 -0.3699
  615MOL0     C82894   5.820   6.072   4.116 -0.8996 -1.0217  0.7000
  615MOL0     C82895   5.912   6.155   4.041 -0.1337  0.3129  0.6482
  615MOL0     C82896   5.874   6.256   3.958 -0.1701  0.2732  0.3061
  615MOL0     C82897   5.739   6.291   3.949  0.2668  0.1528  0.0098
  615MOL0     O82898   5.696   6.391   3.866  0.0198 -0.0419  0.3425
  615MOL0     C82899   5.783   6.468   3.785 -0.3611 -0.2840  0.6332
  615MOL0     C82900   5.721   6.578   3.710  0.0659 -0.2635  0.2425
  615MOL0     C82901   5.638   6.519   3.598 -0.4093  0.4383 -0.1037
  615MOL0     C82902   5.578   6.622   3.500 -0.2207 -0.0979 -0.8192
  615MOL0     C82903   5.682   6.688   3.400  0.0531  0.2017 -0.3766
  615MOL0     C82904   5.673   6.648   3.254 -0.0868 -0.1356  0.1253
  615MOL0     C82905   5.748   6.741   3.161  0.0186  0.7080  0.3093
  615MOL0     C82906   5.818   6.656   3.045  0.5911 -0.1906 -0.1664
  615MOL0     N82907   5.726   6.596   2.940  0.2769  0.0582  0.2349
  615MOL0     C82908   5.596   6.639   2.919 -0.0625  0.4332  1.0590
  615MOL0     C82909   5.572   6.595   2.787 -0.4311 -0.2379 -0.1908
  615MOL0     C82910   5.459   6.612   2.693  0.4323 -0.2140 -0.6673
  615MOL0     C82911   5.432   6.475   2.624 -0.6637  0.1910  0.1783
  615MOL0     C82912   5.280   6.455   2.598  0.1662  0.6587  0.0261
  615MOL0     C82913   5.245   6.324   2.538 -0.3070  0.9572  0.5439
  615MOL0     O82914   5.109   6.321   2.486 -0.2362 -0.7230 -0.3896
  615MOL0     C82915   5.057   6.194   2.461  0.5024 -1.1686  0.2899
  615MOL0     C82916   5.118   6.069   2.482 -0.1521 -0.7373 -0.0269
  615MOL0     C82917   5.052   5.951   2.448  0.3971  0.0109 -1.3536
  615MOL0     C82918   5.127   5.820   2.474 -0.2800  0.0611 -0.2507
  615MOL0     C82919   4.918   5.957   2.405 -0.5152 -0.1638  0.6687
  615MOL0     C82920   4.842   5.828   2.367  0.7611 -0.3862  1.1059
  615MOL0     O82921   4.726   5.846   2.301 -0.1620 -0.2201  0.0008
  615MOL0     C82922   4.657   5.739   2.247  0.0810  0.3367  0.3770
  615MOL0     C82923   4.716   5.622   2.188  0.9871  0.4690 -0.2398
  615MOL0     C82924   4.633   5.529   2.121 -0.2522  0.0954  0.5638
  615MOL0     C82925   4.495   5.546   2.131 -0.5263  0.4281 -0.0640
  615MOL0     O82926   4.406   5.466   2.075  0.6422 -0.0439  0.1849
  615MOL0     C82927   4.454   5.333   2.040  0.3911  0.5144  0.3207
  615MOL0     C82928   4.336   5.234   1.999  0.4816  1.1794  0.0192
  615MOL0     C82929   4.236   5.284   1.896  0.9920 -0.8610  0.0881
  615MOL0     C82930   4.148   5.163   1.848  0.1680 -0.6697 -0.4061
  615MOL0     C82931   4.063   5.221   1.736  0.1907 -0.8570  0.3457
  615MOL0     C82932   4.132   5.211   1.601  0.5808  0.1612 -0.2264
  615MOL0     C82933   4.026   5.235   1.487 -0.4023 -0.0366  0.1268
  615MOL0     C82934   3.907   5.317   1.514 -0.0954  0.0277  0.1304
  615MOL0    Cl82935   3.968   5.485   1.538 -0.2613  0.2665 -0.4115
  615MOL0     C82936   4.444   5.662   2.191 -0.5420  0.1424  0.0739
  615MOL0     C82937   4.522   5.757   2.249  0.1996  0.1533 -0.3043
  615MOL0     O82938   4.882   5.715   2.406 -0.0458  0.1323 -0.1736
  615MOL0     C82939   4.852   6.079   2.398 -0.8397 -0.2278 -0.3029
  615MOL0     C82940   4.920   6.197   2.423 -0.4455  0.1234  0.4857
  615MOL0     N82941   5.686   6.529   2.740  0.7145  0.2821  0.8574
  615MOL0     N82942   5.774   6.528   2.833 -0.3460  0.5465 -0.4996
  615MOL0     C82943   5.646   6.212   4.029  0.6072 -0.8859  0.9531
  615MOL0     C82944   5.684   6.102   4.101 -0.3944  0.6495  0.7146
  615MOL0     C82945   6.001   5.774   4.224  0.2916  0.0872  0.5124
  615MOL0     C82946   6.052   5.647   4.184 -0.0939  0.1431  0.5282
  615MOL0     C82947   6.138   5.570   4.260 -1.2196 -0.1959  0.0779
  615MOL0     C82948   6.193   5.632   4.375  0.4118  0.2263  0.1491
  615MOL0     O82949   6.293   5.571   4.440  0.2193 -0.5356  0.1617
  615MOL0     C82950   6.425   5.582   4.382 -0.5204  0.0217 -0.4322
  615MOL0     C82951   6.477   5.728   4.420  0.9658 -0.2824 -0.1819
  615MOL0     C82952   6.629   5.751   4.423  0.3589 -0.2827  0.1580
  615MOL0     C82953   6.665   5.896   4.450 -0.8210  0.4636  0.0264
  615MOL0     C82954   6.808   5.918   4.476 -0.5848 -0.1981 -0.6396
  615MOL0     C82955   6.919   5.962   4.462  0.3128  0.7222  0.8361
  615MOL0     C82956   6.129   5.748   4.419 -0.0452 -0.2126  0.6767
  615MOL0     C82957   6.047   5.826   4.343 -0.1367 -0.2229  0.7254
  615MOL0     H82958   6.016   6.125   4.048 -0.5593 -0.9414  2.4553
  615MOL0     H82959   5.952   6.321   3.919 -1.8690  2.3172  0.1096
  615MOL0     H82960   5.863   6.518   3.841  0.9320 -1.9956  0.4164
  615MOL0     H82961   5.837   6.399   3.719 -0.3956 -0.4496  0.7783
  615MOL0     H82962   5.655   6.639   3.772 -0.3186  0.6371 -1.0060
  615MOL0     H82963   5.792   6.650   3.668 -1.2144  0.4659 -0.7351
  615MOL0     H82964   5.685   6.443   3.534 -0.4505  0.7492 -0.5048
  615MOL0     H82965   5.559   6.462   3.647  0.1926  0.7410  1.2734
  615MOL0     H82966   5.496   6.581   3.440 -3.2194 -1.2502  3.6059
  615MOL0     H82967   5.528   6.696   3.562  0.3051  1.0659 -1.7463
  615MOL0     H82968   5.664   6.795   3.405 -3.0669 -0.1462 -1.3688
  615MOL0     H82969   5.784   6.672   3.434  0.8004 -0.1137 -2.6051
  615MOL0     H82970   5.715   6.547   3.249  1.6466  0.4152  2.0804
  615MOL0     H82971   5.570   6.657   3.219  0.1244  2.0444 -0.0875
  615MOL0     H82972   5.681   6.815   3.116  1.5136  1.1312 -1.3247
  615MOL0     H82973   5.835   6.785   3.210  1.3713 -2.7703  1.3719
  615MOL0     H82974   5.877   6.572   3.082  2.4231  0.2301 -1.9420
  615MOL0     H82975   5.890   6.712   2.984 -0.1027 -1.3778 -2.1718
  615MOL0     H82976   5.531   6.699   2.982 -2.3030  0.9974 -1.5635
  615MOL0     H82977   5.377   6.659   2.749  1.1449  0.3903 -0.1116
  615MOL0     H82978   5.492   6.689   2.622  2.5510  0.7351  1.2269
  615MOL0     H82979   5.468   6.398   2.693  0.2246 -3.3621 -3.8165
  615MOL0     H82980   5.492   6.464   2.533  1.5029  3.0786  1.0976
  615MOL0     H82981   5.248   6.531   2.525  0.5183 -0.8177 -1.7268
  615MOL0     H82982   5.224   6.476   2.690  3.3107  1.2335  1.9518
  615MOL0     H82983   5.260   6.240   2.606  1.6584 -1.7127 -2.8058
  615MOL0     H82984   5.307   6.308   2.449 -1.1339 -0.7390  0.2224
  615MOL0     H82985   5.216   6.059   2.526 -0.5178  0.7632  1.2080
  615MOL0     H82986   5.136   5.759   2.383  1.3758  3.6846 -2.7493
  615MOL0     H82987   5.223   5.833   2.523 -1.5888  0.5668  2.3536
  615MOL0     H82988   5.067   5.757   2.541 -1.0807 -0.5110 -1.4646
  615MOL0     H82989   4.823   5.621   2.175  1.0814  3.0511 -0.1897
  615MOL0     H82990   4.686   5.449   2.070  1.6698  1.3163  0.5369
  615MOL0     H82991   4.526   5.340   1.959 -0.9565 -3.0526 -1.3715
  615MOL0     H82992   4.507   5.301   2.130  0.9817 -2.1171 -0.8744
  615MOL0     H82993   4.392   5.146   1.965 -0.8082  0.4925 -0.3881
  615MOL0     H82994   4.290   5.195   2.091  4.7469 -2.6142  0.9028
  615MOL0     H82995   4.295   5.322   1.813 -1.1938 -0.3733 -1.3281
  615MOL0     H82996   4.174   5.362   1.942 -3.0676 -3.3639 -0.5521
  615MOL0     H82997   4.212   5.078   1.823 -0.2872 -1.1873  0.1148
  615MOL0     H82998   4.077   5.125   1.923  1.1640  1.6436  1.8402
  615MOL0     H82999   4.034   5.323   1.764 -1.2960 -1.0256 -0.4320
  615MOL0     H83000   3.964   5.174   1.742  0.3947 -1.1420  1.9232
  615MOL0     H83001   4.196   5.298   1.587  1.3602 -0.3404  0.1249
  615MOL0     H83002   4.203   5.127   1.603  1.4782  0.8866  2.4071
  615MOL0     H83003   3.999   5.132   1.461 -0.5373 -1.0084  3.5584
  615MOL0     H83004   4.079   5.269   1.397 -1.4013 -2.1158 -1.3227
  615MOL0     H83005   3.845   5.284   1.598 -0.8733 -1.4786 -0.9767
  615MOL0     H83006   3.838   5.309   1.429  1.1253  0.0635 -0.8927
  615MOL0     H83007   4.337   5.679   2.196 -0.3490  1.3858  0.4139
  615MOL0     H83008   4.478   5.848   2.290  1.4634  0.7557 -0.2659
  615MOL0     H83009   4.748   6.078   2.367 -0.0811 -2.5249 -3.2001
  615MOL0     H83010   4.862   6.285   2.398  0.9656  0.9288 -0.0969
  615MOL0     H83011   5.541   6.234   4.014  0.4555 -1.7699  0.6259
  615MOL0     H83012   5.614   6.039   4.154 -2.0513  1.8401  0.0465
  615MOL0     H83013   6.027   5.618   4.082 -2.0758  1.6469  0.5239
  615MOL0     H83014   6.185   5.479   4.225 -1.2034  0.7998 -2.6579
  615MOL0     H83015   6.503   5.517   4.422  1.8208  2.1112 -1.3385
  615MOL0     H83016   6.423   5.567   4.273  0.1774  1.1107 -0.6117
  615MOL0     H83017   6.441   5.753   4.520  0.4861 -1.4329 -0.0517
  615MOL0     H83018   6.426   5.799   4.355  1.3470 -0.1812 -0.3749
  615MOL0     H83019   6.676   5.711   4.332  2.9526  0.6715  0.9786
  615MOL0     H83020   6.671   5.699   4.510 -3.3437  1.3734  3.2533
  615MOL0     H83021   6.606   5.910   4.542 -3.1827  0.1247 -1.3707
  615MOL0     H83022   6.626   5.962   4.373 -1.3154  0.3665  0.1875
  615MOL0     H83023   7.022   5.992   4.454  0.4850 -0.1845 -0.9105
  615MOL0     H83024   6.151   5.789   4.518 -0.6612  1.5609  0.1163
  615MOL0     H83025   6.009   5.924   4.372 -4.6984 -2.0723  1.8012
  616MOL0     O83026   4.462   5.346  10.324  0.5236 -0.1646  0.1821
  616MOL0     C83027   4.537   5.436  10.292  0.2842  0.4458  0.4268
  616MOL0     O83028   4.531   5.511  10.181  0.5700 -0.0534 -0.3183
  616MOL0     C83029   4.451   5.458  10.074 -0.8232 -0.0236 -0.6843
  616MOL0     C83030   4.316   5.436  10.079 -0.3436  0.2484 -0.2567
  616MOL0     C83031   4.246   5.381   9.971 -0.3351 -0.4762  0.4186
  616MOL0     C83032   4.317   5.334   9.851  0.6703  0.2839 -1.6049
  616MOL0     O83033   4.262   5.262   9.752  0.4554  0.6394 -0.2576
  616MOL0     C83034   4.115   5.248   9.761 -0.0028 -0.4982  0.3270
  616MOL0     C83035   4.061   5.158   9.643 -0.2049  0.2401 -0.5112
  616MOL0     C83036   3.905   5.172   9.628 -0.2322  0.0946  0.4280
  616MOL0     C83037   3.837   5.082   9.739  0.3000  0.4940  0.7419
  616MOL0     C83038   3.687   5.064   9.723  0.1230  0.5669 -1.0059
  616MOL0     C83039   3.638   4.948   9.825  0.0079  0.1326  0.6127
  616MOL0     C83040   3.500   4.901   9.803  0.6054  0.1352  0.0597
  616MOL0     C83041   3.462   4.804   9.919  0.3739 -0.1368 -0.0690
  616MOL0     N83042   3.325   4.748   9.905 -0.5130  0.1836 -0.0192
  616MOL0     C83043   3.252   4.712   9.790  0.4083  0.4697 -0.2190
  616MOL0     C83044   3.148   4.644   9.841 -0.2307  1.1043  0.5534
  616MOL0     C83045   3.034   4.570   9.763 -0.2510  0.0330 -0.0740
  616MOL0     C83046   2.931   4.668   9.724  1.2348 -0.0227 -0.4892
  616MOL0     C83047   2.826   4.699   9.840 -0.4269  0.5674 -0.2280
  616MOL0     C83048   2.735   4.808   9.802 -0.3280 -0.5679 -0.3705
  616MOL0     O83049   2.624   4.806   9.897  0.1464  0.2680 -0.6482
  616MOL0     C83050   2.499   4.844   9.849 -0.1050  0.7307  0.0999
  616MOL0     C83051   2.484   4.936   9.745 -0.7401 -0.4758  0.0092
  616MOL0     C83052   2.360   4.969   9.688  0.2991 -0.2556 -0.5317
  616MOL0     C83053   2.347   5.069   9.572 -0.2034  0.6306  0.1904
  616MOL0     C83054   2.248   4.928   9.763  0.1108 -0.0975  0.5987
  616MOL0     C83055   2.104   4.979   9.725 -0.3092  1.1564  0.0899
  616MOL0     O83056   2.043   5.045   9.820 -0.2690  0.1833 -0.5397
  616MOL0     C83057   1.918   5.093   9.783  0.0346  1.0102  0.3251
  616MOL0     C83058   1.899   5.216   9.717  0.2922  0.5063 -0.8134
  616MOL0     C83059   1.772   5.259   9.688  0.3468  0.0111  0.4454
  616MOL0     C83060   1.658   5.191   9.735  0.3988 -1.1521  0.6329
  616MOL0     O83061   1.543   5.254   9.710  0.0110  0.4487  0.0124
  616MOL0     C83062   1.425   5.172   9.697  0.1190  0.1336 -0.5473
  616MOL0     C83063   1.316   5.277   9.668  0.6774 -0.6142 -0.1851
  616MOL0     C83064   1.192   5.213   9.639  1.2318  0.2657  0.0498
  616MOL0     C83065   1.079   5.314   9.617  0.0964 -1.0548  0.3729
  616MOL0     C83066   0.939   5.260   9.644 -0.4088  1.0097  0.6832
  616MOL0     C83067   0.828   5.365   9.641  0.1654 -0.5149  0.1714
  616MOL0     C83068   0.686   5.302   9.621 -0.6871 -0.5653 -0.1343
  616MOL0     C83069   0.571   5.381   9.674 -0.7391 -0.3048 -0.2860
  616MOL0    Cl83070   0.435   5.271   9.672  0.0837 -0.6885 -0.3293
  616MOL0     C83071   1.676   5.073   9.802 -0.8280 -0.2565 -1.2267
  616MOL0     C83072   1.806   5.020   9.823  0.3808  0.2697  0.1121
  616MOL0     O83073   2.058   4.939   9.618 -0.6833 -0.9202  0.5276
  616MOL0     C83074   2.259   4.831   9.858 -0.0491  0.5751 -0.9356
  616MOL0     C83075   2.384   4.790   9.905  0.7358  0.5656  1.0400
  616MOL0     N83076   3.166   4.633   9.980  0.4139  1.1515 -0.1422
  616MOL0     N83077   3.269   4.690  10.013 -0.2568 -0.7024 -0.0901
  616MOL0     C83078   4.465   5.351   9.855 -0.0687  0.5260 -0.2467
  616MOL0     C83079   4.521   5.418   9.961  0.2808  0.3121 -0.6745
  616MOL0     C83080   4.632   5.485  10.399 -0.7802 -0.0647 -0.3560
  616MOL0     C83081   4.635   5.418  10.524 -0.3099  0.8953  0.5341
  616MOL0     C83082   4.713   5.468  10.627 -0.8814 -0.1730 -0.5600
  616MOL0     C83083   4.812   5.569  10.611 -0.1116 -0.2897 -0.4257
  616MOL0     O83084   4.890   5.603  10.719 -1.0358 -0.5115 -0.6117
  616MOL0     C83085   5.008   5.683  10.706  0.1374  0.0409  0.5068
  616MOL0     C83086   4.971   5.825  10.736 -0.1255  0.5582  0.3193
  616MOL0     C83087   5.083   5.919  10.704  0.3978 -1.2389 -0.0319
  616MOL0     C83088   5.030   6.061  10.723 -0.1405 -0.6899 -0.1934
  616MOL0     C83089   4.949   6.106  10.611 -0.4433  1.0694 -0.8482
  616MOL0     C83090   4.884   6.135  10.515 -0.0871  0.3054  0.1525
  616MOL0     C83091   4.812   5.633  10.489  0.1078 -0.4744  0.1454
  616MOL0     C83092   4.720   5.597  10.384  0.5955  0.2812  0.0395
  616MOL0     H83093   4.271   5.462  10.175  1.5293  0.5872  0.6009
  616MOL0     H83094   4.139   5.366   9.983  0.0332 -2.6268  1.4698
  616MOL0     H83095   4.087   5.201   9.856 -2.2180  0.1867  0.0687
  616MOL0     H83096   4.075   5.350   9.768  0.1903 -0.5065  1.7888
  616MOL0     H83097   4.097   5.197   9.547  1.8864 -0.1198  0.0647
  616MOL0     H83098   4.093   5.054   9.658  0.7473  0.9903  4.5510
  616MOL0     H83099   3.861   5.272   9.642 -0.7257 -0.0845  0.1697
  616MOL0     H83100   3.874   5.136   9.530 -0.5314  4.9342 -1.5375
  616MOL0     H83101   3.875   4.979   9.735 -1.7667 -0.2980 -0.4531
  616MOL0     H83102   3.854   5.128   9.836  0.0855 -1.5164  1.7852
  616MOL0     H83103   3.645   5.164   9.738  2.9176  2.4616 -4.4562
  616MOL0     H83104   3.649   5.031   9.626 -4.7225  0.8031  0.5335
  616MOL0     H83105   3.700   4.858   9.811  0.7247  0.5294  1.1508
  616MOL0     H83106   3.650   4.980   9.929 -2.5955  0.2293  0.9559
  616MOL0     H83107   3.427   4.981   9.792 -1.6293 -1.9341 -1.0966
  616MOL0     H83108   3.498   4.844   9.710 -3.2692  0.1558 -0.0202
  616MOL0     H83109   3.465   4.864  10.011  0.1792  1.9102 -1.3386
  616MOL0     H83110   3.534   4.722   9.927  1.4955  0.4920 -2.7281
  616MOL0     H83111   3.272   4.748   9.689  1.0400  2.0249  0.4383
  616MOL0     H83112   3.081   4.523   9.677  2.3264 -1.4041  1.9621
  616MOL0     H83113   2.990   4.496   9.831 -1.2991 -0.9761 -1.7666
  616MOL0     H83114   2.882   4.624   9.637 -0.7570  1.6802 -0.3076
  616MOL0     H83115   2.982   4.757   9.687 -1.2846  1.0191 -1.6450
  616MOL0     H83116   2.872   4.732   9.934 -0.3324  1.5068 -0.5903
  616MOL0     H83117   2.774   4.606   9.864  1.1790 -0.1359  0.7074
  616MOL0     H83118   2.702   4.814   9.698 -2.0233  0.1725  0.1796
  616MOL0     H83119   2.785   4.902   9.827 -1.5890 -0.5177  2.2220
  616MOL0     H83120   2.574   4.976   9.699 -3.2558  2.9457 -2.4141
  616MOL0     H83121   2.312   5.023   9.480 -0.5867  3.9662 -1.4922
  616MOL0     H83122   2.276   5.150   9.590  0.9712  1.2079  2.7619
  616MOL0     H83123   2.443   5.116   9.548 -0.3751  1.3383  0.8400
  616MOL0     H83124   1.986   5.275   9.693  0.6490  1.0097  1.4858
  616MOL0     H83125   1.756   5.355   9.641  1.1177  0.4163  0.9693
  616MOL0     H83126   1.448   5.102   9.616  0.5941  1.8950 -2.0074
  616MOL0     H83127   1.409   5.118   9.791  0.3902  0.3309 -0.3821
  616MOL0     H83128   1.285   5.335   9.755  0.4000  1.3891 -1.5450
  616MOL0     H83129   1.340   5.352   9.592 -1.3173  0.2771 -0.0040
  616MOL0     H83130   1.162   5.141   9.717 -0.5703  0.0107 -0.8238
  616MOL0     H83131   1.207   5.155   9.548 -0.1434  1.0111 -0.6905
  616MOL0     H83132   1.100   5.392   9.691  0.9326  0.4312 -1.3729
  616MOL0     H83133   1.079   5.363   9.520  0.2406 -0.9349  0.4342
  616MOL0     H83134   0.953   5.220   9.745  3.8362 -0.8763 -0.4168
  616MOL0     H83135   0.915   5.190   9.563  1.9103  1.6495 -0.6384
  616MOL0     H83136   0.822   5.423   9.733  2.0944  3.8462 -2.1049
  616MOL0     H83137   0.833   5.450   9.571 -0.7700  0.7118  1.5415
  616MOL0     H83138   0.692   5.213   9.684 -1.5520 -0.7530 -0.3051
  616MOL0     H83139   0.669   5.273   9.517 -0.4464 -1.0744 -0.0361
  616MOL0     H83140   0.557   5.472   9.614  1.7454  0.2327 -0.1669
  616MOL0     H83141   0.604   5.407   9.775 -1.1142 -0.7878 -0.0371
  616MOL0     H83142   1.599   5.004   9.836 -2.5980  1.9422 -0.4912
  616MOL0     H83143   1.814   4.927   9.878 -0.2633 -0.0447 -0.3154
  616MOL0     H83144   2.174   4.793   9.912  0.0426  1.0495 -0.4433
  616MOL0     H83145   2.392   4.711   9.979  2.9743  0.3419  0.6113
  616MOL0     H83146   4.536   5.316   9.781 -1.4441 -0.8098 -0.9923
  616MOL0     H83147   4.626   5.441   9.977 -0.5010  2.1322  2.8169
  616MOL0     H83148   4.567   5.339  10.551  0.3828  0.8397  2.2345
  616MOL0     H83149   4.713   5.415  10.722  1.4550 -1.4378 -1.1938
  616MOL0     H83150   5.087   5.644  10.770  0.4041 -0.9628 -0.4023
  616MOL0     H83151   5.041   5.672  10.602  3.1415  0.3380  1.3448
  616MOL0     H83152   4.940   5.829  10.840  0.8662 -2.7586  0.8720
  616MOL0     H83153   4.888   5.852  10.671  0.5595  2.3066  0.1205
  616MOL0     H83154   5.115   5.912  10.599 -0.3594  1.9717 -0.5948
  616MOL0     H83155   5.162   5.902  10.778 -0.3621 -0.9819  0.8464
  616MOL0     H83156   5.114   6.131  10.733 -2.0270  2.0268 -2.0975
  616MOL0     H83157   4.973   6.068  10.816 -0.9298 -0.5416 -0.6868
  616MOL0     H83158   4.831   6.144  10.422 -1.2224  1.0141  0.8342
  616MOL0     H83159   4.878   5.717  10.465  0.6332 -1.1401 -0.7969
  616MOL0     H83160   4.742   5.651  10.292 -2.1636  1.2029 -0.1830
  617MOL0     O83161   6.406   8.922   6.185  1.3838 -1.1357 -0.0243
  617MOL0     C83162   6.311   8.975   6.248 -1.3129 -0.0648  0.3508
  617MOL0     O83163   6.330   9.068   6.347 -0.8557 -0.0205 -0.7783
  617MOL0     C83164   6.454   9.120   6.373  1.0706 -0.2658  0.1023
  617MOL0     C83165   6.515   9.097   6.500 -0.8532  0.3750  0.6816
  617MOL0     C83166   6.625   9.173   6.542  0.9435 -0.0839 -0.0481
  617MOL0     C83167   6.677   9.263   6.453  0.5784 -0.1741 -0.7141
  617MOL0     O83168   6.790   9.334   6.491  0.5716  0.0025  0.3877
  617MOL0     C83169   6.765   9.440   6.589 -0.0387 -0.7568  0.1026
  617MOL0     C83170   6.886   9.535   6.608  0.7505  0.9989  1.0503
  617MOL0     C83171   6.876   9.654   6.506 -0.8220  0.5146 -0.7360
  617MOL0     C83172   6.806   9.779   6.567 -0.2208 -1.0515  0.2048
  617MOL0     C83173   6.859   9.900   6.489  0.0194  0.1794  0.0920
  617MOL0     C83174   6.785  10.022   6.528 -0.3143 -0.3262 -0.0059
  617MOL0     C83175   6.786  10.148   6.442  0.1094 -0.1184  0.6548
  617MOL0     C83176   6.709  10.129   6.310  0.5311  0.6915  0.0804
  617MOL0     N83177   6.574  10.069   6.328 -0.8749 -0.3026 -0.3373
  617MOL0     C83178   6.469  10.149   6.323  1.1396 -0.1209  0.4227
  617MOL0     C83179   6.363  10.067   6.336 -0.7551  0.1964 -1.0871
  617MOL0     C83180   6.224  10.105   6.382  0.0600  0.2850  0.0430
  617MOL0     C83181   6.164  10.219   6.299  0.6294  0.4188 -0.2803
  617MOL0     C83182   6.134  10.170   6.157  0.6050 -1.0305  1.2996
  617MOL0     C83183   6.069  10.291   6.078  0.2652  0.3317  0.6878
  617MOL0     O83184   5.928  10.311   6.089 -0.4906  0.1029  0.8770
  617MOL0     C83185   5.850  10.238   6.006  0.0247  0.6097 -0.4510
  617MOL0     C83186   5.877  10.111   5.954 -1.0423 -0.6742 -0.3590
  617MOL0     C83187   5.786  10.052   5.868 -1.2326 -0.5461  0.2250
  617MOL0     C83188   5.821   9.910   5.827  0.5024  1.0079  0.0907
  617MOL0     C83189   5.658  10.124   5.834 -0.4868  0.2353 -0.2486
  617MOL0     C83190   5.558  10.063   5.748  0.9058  0.5461 -0.3884
  617MOL0     O83191   5.429  10.105   5.756 -0.0795  0.2381 -0.0642
  617MOL0     C83192   5.318  10.064   5.679 -0.7208  0.2131 -0.5624
  617MOL0     C83193   5.226  10.151   5.629  0.1723 -0.7903 -0.5295
  617MOL0     C83194   5.133  10.112   5.540 -0.3229  0.3923  0.3763
  617MOL0     C83195   5.117   9.979   5.500  0.7722 -0.7525  0.3448
  617MOL0     O83196   5.028   9.958   5.405  0.0532  0.1722  0.7985
  617MOL0     C83197   4.958   9.833   5.412  0.3582  0.0819 -0.5540
  617MOL0     C83198   4.911   9.791   5.277  0.4827 -0.2857  0.0294
  617MOL0     C83199   4.815   9.902   5.222  0.8596 -0.0865 -0.2646
  617MOL0     C83200   4.740   9.864   5.095  0.3892  0.0832  0.9515
  617MOL0     C83201   4.662   9.984   5.050  0.3993  0.5356  0.3279
  617MOL0     C83202   4.591   9.946   4.919  0.8331 -0.3804 -0.0490
  617MOL0     C83203   4.466  10.033   4.890 -0.1295  0.4842  0.0245
  617MOL0     C83204   4.403  10.028   4.742  0.1947  0.6242  0.2018
  617MOL0    Cl83205   4.321  10.181   4.711 -0.2024 -0.3597  0.2419
  617MOL0     C83206   5.204   9.886   5.547 -0.3837 -1.5480  0.1505
  617MOL0     C83207   5.308   9.929   5.639  0.5586 -0.6428  0.2728
  617MOL0     O83208   5.603   9.995   5.655  0.1866  0.2638 -0.0843
  617MOL0     C83209   5.626  10.247   5.897  0.4392 -0.3989  0.4240
  617MOL0     C83210   5.724  10.300   5.980 -0.7587  0.0154  0.3173
  617MOL0     N83211   6.407   9.930   6.334 -0.1759  0.0815  0.5941
  617MOL0     N83212   6.536   9.940   6.327  0.8575 -0.0384  0.2052
  617MOL0     C83213   6.623   9.295   6.335 -0.1738  0.0197  0.3962
  617MOL0     C83214   6.509   9.217   6.289  1.5009  0.6377 -0.5548
  617MOL0     C83215   6.176   8.926   6.228  0.6742  0.4426  0.2668
  617MOL0     C83216   6.071   8.958   6.308  0.3256 -0.2371 -0.0443
  617MOL0     C83217   5.935   8.940   6.281  0.5900 -0.1429 -0.2896
  617MOL0     C83218   5.904   8.864   6.171  0.5383 -0.3397  0.6388
  617MOL0     O83219   5.769   8.835   6.159  0.5924 -0.5250 -0.5639
  617MOL0     C83220   5.706   8.817   6.030  0.2157 -0.0127 -0.0114
  617MOL0     C83221   5.593   8.911   6.017 -0.5949 -0.5563  0.1722
  617MOL0     C83222   5.579   8.944   5.864  0.9624  0.7404  1.1759
  617MOL0     C83223   5.459   9.015   5.829 -0.1478 -0.0729  0.5005
  617MOL0     C83224   5.466   9.158   5.835 -0.2339  0.7514  0.3409
  617MOL0     C83225   5.468   9.279   5.849  0.1558  0.5319  0.4178
  617MOL0     C83226   5.999   8.818   6.089 -0.3339 -0.7565 -0.0517
  617MOL0     C83227   6.137   8.847   6.114 -0.3697 -0.4406  0.4292
  617MOL0     H83228   6.474   9.029   6.574  2.5135 -2.7130  0.0265
  617MOL0     H83229   6.671   9.158   6.639 -1.2227 -1.3904  0.8632
  617MOL0     H83230   6.678   9.504   6.578 -0.0690 -0.0562  3.3962
  617MOL0     H83231   6.737   9.403   6.688  0.0317  0.0313  0.4210
  617MOL0     H83232   6.880   9.576   6.709 -1.2308 -0.9031  1.7940
  617MOL0     H83233   6.984   9.487   6.604  0.9879  1.4466  1.3661
  617MOL0     H83234   6.982   9.668   6.483  0.5070 -2.6523  2.4604
  617MOL0     H83235   6.825   9.613   6.418 -2.3348 -1.7176  1.0533
  617MOL0     H83236   6.699   9.778   6.547 -0.4551  4.3229 -0.2544
  617MOL0     H83237   6.821   9.780   6.675  0.1134  2.4084  0.2309
  617MOL0     H83238   6.968   9.914   6.495 -0.3203  2.6544  3.0619
  617MOL0     H83239   6.839   9.888   6.382 -1.6572 -2.3657  0.6234
  617MOL0     H83240   6.683   9.984   6.541  0.0834 -1.6604 -0.6987
  617MOL0     H83241   6.838  10.057   6.617 -0.5377  2.2498 -0.8027
  617MOL0     H83242   6.722  10.221   6.494 -0.1004 -1.4233  2.3267
  617MOL0     H83243   6.883  10.192   6.418 -0.4653  0.6744 -0.2598
  617MOL0     H83244   6.773  10.058   6.258  1.2364  1.9363 -0.8108
  617MOL0     H83245   6.718  10.221   6.251 -1.4384  0.0580 -1.2925
  617MOL0     H83246   6.463  10.254   6.349 -2.1800  0.4343 -1.8811
  617MOL0     H83247   6.157  10.019   6.382 -1.1041  1.1624 -0.3824
  617MOL0     H83248   6.230  10.139   6.485  3.9569  0.7770 -0.1967
  617MOL0     H83249   6.232  10.304   6.292  3.2351 -1.5153 -0.1367
  617MOL0     H83250   6.066  10.233   6.345 -0.4588 -0.9424 -2.0813
  617MOL0     H83251   6.063  10.087   6.157  0.2073 -0.7774  4.3095
  617MOL0     H83252   6.228  10.143   6.108  1.0451  1.7678  0.4089
  617MOL0     H83253   6.104  10.269   5.977  0.6471 -3.0176  1.4372
  617MOL0     H83254   6.112  10.388   6.105 -1.7154  2.1576 -2.0900
  617MOL0     H83255   5.966  10.054   5.978  1.9850  3.3724 -0.8689
  617MOL0     H83256   5.902   9.861   5.880 -1.8002 -4.4719 -0.7856
  617MOL0     H83257   5.738   9.840   5.843  1.6498 -0.3447  0.2355
  617MOL0     H83258   5.838   9.901   5.719  1.2567  2.6902  0.0352
  617MOL0     H83259   5.220  10.255   5.657 -3.9253 -0.3731 -2.2875
  617MOL0     H83260   5.066  10.186   5.497  1.6343  2.2029  0.2512
  617MOL0     H83261   5.008   9.748   5.460 -0.6808 -0.0822  0.2747
  617MOL0     H83262   4.871   9.849   5.477  0.5367  0.9738 -0.5215
  617MOL0     H83263   4.989   9.765   5.205 -3.4145 -2.4851 -3.9687
  617MOL0     H83264   4.849   9.702   5.289 -0.9651  0.9198  2.1917
  617MOL0     H83265   4.876   9.985   5.186  1.5886  0.2048  1.5376
  617MOL0     H83266   4.740   9.937   5.294  0.5669  1.6908 -1.3555
  617MOL0     H83267   4.802   9.824   5.014 -0.3093 -0.4324  0.6656
  617MOL0     H83268   4.668   9.784   5.113 -0.0183  0.5599  1.4903
  617MOL0     H83269   4.713  10.080   5.043 -0.0035  0.6395 -1.7644
  617MOL0     H83270   4.576   9.999   5.117  0.1068  2.3173 -0.3936
  617MOL0     H83271   4.670   9.949   4.844  0.9236  2.3704  0.0805
  617MOL0     H83272   4.551   9.844   4.916 -2.6591  0.7416 -4.7021
  617MOL0     H83273   4.496  10.136   4.914  0.8150 -0.0542  1.2671
  617MOL0     H83274   4.383  10.001   4.954 -1.4206 -3.8607 -3.3629
  617MOL0     H83275   4.330   9.947   4.742 -0.7293  1.4234 -1.1628
  617MOL0     H83276   4.479  10.008   4.665  0.0464 -0.0392  0.2202
  617MOL0     H83277   5.203   9.786   5.504 -2.1891 -1.5792  0.1879
  617MOL0     H83278   5.384   9.856   5.666 -0.7468 -1.8800  0.7480
  617MOL0     H83279   5.535  10.298   5.869  1.0681 -0.0358 -1.0965
  617MOL0     H83280   5.708  10.400   6.019 -0.6409 -0.4216  1.5495
  617MOL0     H83281   6.653   9.388   6.288 -3.5238 -0.2975 -2.8382
  617MOL0     H83282   6.453   9.256   6.205  1.5979  1.4882 -0.2347
  617MOL0     H83283   6.086   9.005   6.405  0.4211  3.0029 -1.4782
  617MOL0     H83284   5.853   8.981   6.340  1.7995 -0.2716  1.5481
  617MOL0     H83285   5.777   8.833   5.948  0.6680  0.9784  0.5662
  617MOL0     H83286   5.667   8.715   6.017  1.5175 -0.5031 -0.1888
  617MOL0     H83287   5.635   9.003   6.060  3.4914 -2.2916  0.3411
  617MOL0     H83288   5.498   8.893   6.066 -0.1317 -2.7201  0.3701
  617MOL0     H83289   5.574   8.849   5.810 -2.6938  2.3984 -1.8369
  617MOL0     H83290   5.669   8.998   5.832 -0.2591  2.1134 -0.0831
  617MOL0     H83291   5.372   8.984   5.888  0.9034 -3.0017  0.6364
  617MOL0     H83292   5.449   8.992   5.723  2.7148 -5.8640  1.1222
  617MOL0     H83293   5.466   9.386   5.860  1.3073  0.7098 -0.7690
  617MOL0     H83294   5.980   8.747   6.010  0.1969 -0.8270 -0.1209
  617MOL0     H83295   6.212   8.818   6.042  0.5636  5.1167 -1.3351
  618MOL0     O83296   3.698  10.915   3.896  0.2140 -1.1066  0.3610
  618MOL0     C83297   3.602  10.925   3.969  0.6718 -0.0873 -0.1166
  618MOL0     O83298   3.468  10.886   3.938 -0.9909  0.1573 -0.0082
  618MOL0     C83299   3.440  10.838   3.818  0.7299 -1.0629  0.4332
  618MOL0     C83300   3.484  10.904   3.696 -0.3058 -0.5455  0.0838
  618MOL0     C83301   3.418  10.887   3.567  0.3261  0.0737 -0.8842
  618MOL0     C83302   3.315  10.793   3.552  0.0699  1.2420  0.3792
  618MOL0     O83303   3.274  10.775   3.425  0.5685 -0.2691  0.2012
  618MOL0     C83304   3.197  10.653   3.402 -0.0142 -0.4783 -0.2050
  618MOL0     C83305   3.162  10.633   3.256  0.5003  0.1454 -0.0124
  618MOL0     C83306   3.278  10.618   3.165 -0.0154  1.1392  0.3990
  618MOL0     C83307   3.229  10.577   3.031 -0.0509  0.0653 -0.4066
  618MOL0     C83308   3.350  10.532   2.951 -0.6080  0.3675 -0.3149
  618MOL0     C83309   3.310  10.471   2.821 -0.7032 -0.4329 -0.0405
  618MOL0     C83310   3.428  10.452   2.719 -0.1887 -0.7825 -0.1087
  618MOL0     C83311   3.411  10.374   2.591 -0.0637 -0.0929 -0.1749
  618MOL0     N83312   3.292  10.406   2.506  0.1741  0.5266 -0.7339
  618MOL0     C83313   3.162  10.384   2.542 -0.1564 -0.5852  0.3471
  618MOL0     C83314   3.099  10.374   2.420 -0.6319  0.2530 -0.3150
  618MOL0     C83315   2.955  10.358   2.400 -0.6928 -0.1458 -0.3290
  618MOL0     C83316   2.876  10.474   2.339 -0.1973  0.7656  0.1273
  618MOL0     C83317   2.738  10.435   2.268  0.0278 -0.5682 -0.8000
  618MOL0     C83318   2.641  10.344   2.345  0.1448  0.2730 -1.1696
  618MOL0     O83319   2.612  10.416   2.472 -0.4909 -0.2327  0.7235
  618MOL0     C83320   2.513  10.356   2.544 -0.3513 -0.0272  0.8189
  618MOL0     C83321   2.541  10.288   2.655  0.2145  0.0484 -0.1490
  618MOL0     C83322   2.456  10.208   2.720  0.1754 -0.7548 -0.2874
  618MOL0     C83323   2.507  10.134   2.849  0.2898 -0.9221  0.7704
  618MOL0     C83324   2.321  10.205   2.669  0.2305 -0.3340 -0.1879
  618MOL0     C83325   2.215  10.135   2.734 -0.8260  0.2723 -0.3302
  618MOL0     O83326   2.114  10.072   2.648 -0.5238  0.2855 -0.3904
  618MOL0     C83327   2.000  10.018   2.709  0.0011  0.6593 -0.9777
  618MOL0     C83328   1.940   9.903   2.648 -0.2358 -0.0877 -0.8190
  618MOL0     C83329   1.825   9.842   2.705 -0.3352  0.1745  0.1248
  618MOL0     C83330   1.781   9.894   2.828 -0.0552  0.4005  0.7826
  618MOL0     O83331   1.677   9.834   2.885  0.0061 -0.3911 -0.1168
  618MOL0     C83332   1.565   9.912   2.913  0.8731  0.0762  0.0656
  618MOL0     C83333   1.430   9.851   2.868  0.8942 -0.4559 -0.4332
  618MOL0     C83334   1.305   9.921   2.930 -0.3986  0.1085  0.3285
  618MOL0     C83335   1.274  10.060   2.874 -0.5615 -0.2208 -0.3043
  618MOL0     C83336   1.131  10.094   2.919  0.1432  0.6476  0.9587
  618MOL0     C83337   1.120  10.139   3.067 -0.4863  0.5047 -0.3401
  618MOL0     C83338   0.966  10.153   3.120  0.1743  0.2189 -0.3821
  618MOL0     C83339   0.885  10.250   3.032 -0.3252  0.0330 -0.3375
  618MOL0    Cl83340   0.726  10.246   3.105  0.4513  0.1253 -0.0464
  618MOL0     C83341   1.830  10.016   2.878  0.1311 -0.4506  0.1089
  618MOL0     C83342   1.939  10.075   2.819  0.5472 -0.8089  0.3070
  618MOL0     O83343   2.223  10.123   2.853 -0.1066 -0.0323 -0.1969
  618MOL0     C83344   2.284  10.291   2.554  0.1701 -1.0074 -0.5874
  618MOL0     C83345   2.386  10.368   2.495 -0.2459  0.2003 -0.0334
  618MOL0     N83346   3.194  10.389   2.322 -0.3273  0.0441  0.1804
  618MOL0     N83347   3.306  10.414   2.375 -0.5186  0.3792  0.2848
  618MOL0     C83348   3.276  10.722   3.669 -0.1527  0.4848 -0.5809
  618MOL0     C83349   3.329  10.750   3.797  0.0512 -0.5850 -0.2680
  618MOL0     C83350   3.621  10.950   4.115  0.3610  0.3481  0.4875
  618MOL0     C83351   3.730  11.020   4.154 -0.7254 -0.3733 -0.2482
  618MOL0     C83352   3.743  11.044   4.293  0.1204  0.0528  0.4992
  618MOL0     C83353   3.641  11.007   4.385  0.0059  0.8198  0.6263
  618MOL0     O83354   3.669  11.038   4.508  0.5771 -0.6485 -0.6658
  618MOL0     C83355   3.570  11.018   4.614 -0.7938 -0.4909  0.2887
  618MOL0     C83356   3.463  11.121   4.612 -1.3771  0.1378 -0.3029
  618MOL0     C83357   3.538  11.250   4.645  0.1906 -0.1871 -0.2659
  618MOL0     C83358   3.445  11.360   4.612 -0.3292  0.1256  0.5111
  618MOL0     C83359   3.412  11.382   4.470 -0.4975 -0.5597  0.7997
  618MOL0     C83360   3.372  11.416   4.361  1.1318 -0.3840  0.0343
  618MOL0     C83361   3.526  10.944   4.337  0.8548 -0.6528  0.2699
  618MOL0     C83362   3.522  10.910   4.207  0.3428  0.4490 -0.2268
  618MOL0     H83363   3.553  10.987   3.705 -0.8171 -0.1617  0.5881
  618MOL0     H83364   3.444  10.958   3.489  0.5183 -1.8459 -2.6565
  618MOL0     H83365   3.253  10.568   3.443 -0.6422 -0.6565  0.3031
  618MOL0     H83366   3.098  10.654   3.450 -0.1062  0.8408 -0.3824
  618MOL0     H83367   3.101  10.542   3.254 -2.0904  1.6777 -3.8364
  618MOL0     H83368   3.095  10.712   3.220 -0.4103  0.3182  1.9008
  618MOL0     H83369   3.332  10.711   3.149  1.4663  0.2868  0.2349
  618MOL0     H83370   3.348  10.543   3.204  1.8060  1.5434 -1.8516
  618MOL0     H83371   3.155  10.498   3.048  1.1180 -1.7486 -2.9379
  618MOL0     H83372   3.182  10.657   2.973 -0.0843 -0.4776 -1.1463
  618MOL0     H83373   3.421  10.613   2.933  1.3700 -0.3587  3.3589
  618MOL0     H83374   3.413  10.460   3.003  1.7330  1.4744 -1.4624
  618MOL0     H83375   3.267  10.374   2.848 -1.6983 -0.1074 -0.4102
  618MOL0     H83376   3.228  10.517   2.765 -1.1160  0.8727  1.5691
  618MOL0     H83377   3.454  10.556   2.699 -1.6811  0.2311  2.6078
  618MOL0     H83378   3.518  10.412   2.768  1.0383  3.1770  1.2022
  618MOL0     H83379   3.411  10.265   2.606 -0.9566 -0.6961 -3.5727
  618MOL0     H83380   3.499  10.390   2.529 -1.5595 -0.5808 -2.5737
  618MOL0     H83381   3.113  10.365   2.637  0.9112 -2.6357  0.5682
  618MOL0     H83382   2.934  10.264   2.346 -2.3334  0.7990 -1.4136
  618MOL0     H83383   2.908  10.353   2.499 -0.7493 -0.6487 -0.3757
  618MOL0     H83384   2.934  10.515   2.256 -0.3133  1.2572  0.2849
  618MOL0     H83385   2.867  10.562   2.404 -1.1795  2.0204 -1.6312
  618MOL0     H83386   2.772  10.390   2.174 -2.1287 -0.1538 -1.8430
  618MOL0     H83387   2.687  10.527   2.238  1.6260  1.3928  2.0162
  618MOL0     H83388   2.688  10.251   2.377  1.0743  1.5509  1.4696
  618MOL0     H83389   2.552  10.320   2.286 -0.2981  0.3561 -0.5447
  618MOL0     H83390   2.645  10.295   2.686  0.4417  2.6856 -1.2292
  618MOL0     H83391   2.442  10.173   2.928  0.8778 -0.1657  0.8800
  618MOL0     H83392   2.493  10.025   2.843  0.2178 -0.8734 -0.2872
  618MOL0     H83393   2.613  10.145   2.871  0.7683 -0.0341 -1.6635
  618MOL0     H83394   1.985   9.854   2.563 -0.1470 -0.3706 -0.6080
  618MOL0     H83395   1.784   9.751   2.660  3.6662 -1.7988  0.0163
  618MOL0     H83396   1.566   9.932   3.020  0.1160  0.6335 -0.0193
  618MOL0     H83397   1.573  10.012   2.869 -0.8729  0.3296  0.2383
  618MOL0     H83398   1.429   9.863   2.759 -1.3620 -3.0569 -0.7953
  618MOL0     H83399   1.417   9.743   2.882 -0.6748 -0.2837 -0.4691
  618MOL0     H83400   1.308   9.932   3.039  0.3297  2.4381  0.1174
  618MOL0     H83401   1.215   9.863   2.906 -0.5354  0.3206  0.3263
  618MOL0     H83402   1.347  10.129   2.918 -2.6094 -0.2355  3.5413
  618MOL0     H83403   1.296  10.067   2.767  2.6300  0.0639  0.2643
  618MOL0     H83404   1.066  10.007   2.906  0.6624  0.1953  1.3695
  618MOL0     H83405   1.098  10.186   2.870 -2.1824  0.0751  1.3590
  618MOL0     H83406   1.165  10.065   3.134 -1.7499 -0.5701 -0.6448
  618MOL0     H83407   1.181  10.229   3.080 -0.0861  0.2492 -0.4156
  618MOL0     H83408   0.959  10.180   3.226 -2.2000 -0.8634 -0.1873
  618MOL0     H83409   0.919  10.054   3.116 -3.2189  1.6319  0.5636
  618MOL0     H83410   0.882  10.219   2.927  2.8985 -0.7945 -0.3054
  618MOL0     H83411   0.925  10.352   3.040  0.3825 -0.3528  1.3933
  618MOL0     H83412   1.799  10.044   2.978  0.2023  0.4682 -0.1204
  618MOL0     H83413   1.983  10.162   2.867 -1.1966  0.3883 -0.1931
  618MOL0     H83414   2.183  10.297   2.515  0.9859 -0.0015 -2.7297
  618MOL0     H83415   2.371  10.429   2.407  0.6882 -1.1635 -1.1960
  618MOL0     H83416   3.202  10.643   3.674 -0.4277  0.8319  1.9203
  618MOL0     H83417   3.287  10.704   3.886 -3.6027 -0.0856 -1.5820
  618MOL0     H83418   3.785  11.065   4.072 -2.6984  0.6718 -1.0590
  618MOL0     H83419   3.831  11.098   4.327  0.0007  1.0082 -0.6384
  618MOL0     H83420   3.525  10.921   4.594  1.7699 -1.5730 -0.6901
  618MOL0     H83421   3.620  11.020   4.712 -2.8855  2.2145  1.4160
  618MOL0     H83422   3.398  11.098   4.697  1.1323 -0.0553  1.6566
  618MOL0     H83423   3.406  11.129   4.519  0.0986 -0.2940 -1.2668
  618MOL0     H83424   3.631  11.259   4.589 -0.3125  0.9192 -0.9470
  618MOL0     H83425   3.554  11.245   4.753  1.3933 -1.2193 -0.4652
  618MOL0     H83426   3.488  11.455   4.647  0.4942 -0.6175  1.5889
  618MOL0     H83427   3.353  11.349   4.670  0.3237  1.5182  1.8938
  618MOL0     H83428   3.334  11.479   4.283  0.8662  0.5463  0.9027
  618MOL0     H83429   3.434  10.919   4.390  0.6435 -2.7774 -0.9926
  618MOL0     H83430   3.440  10.855   4.163 -0.6761 -0.0366  2.1362
  619MOL0     O83431  10.168   5.251   8.976  0.4926  0.1006  0.6467
  619MOL0     C83432  10.157   5.133   8.950 -0.1872 -0.1509 -0.1372
  619MOL0     O83433  10.041   5.051   8.927  0.4523 -0.3469  0.0264
  619MOL0     C83434   9.920   5.111   8.949 -0.2236 -0.5089 -0.0232
  619MOL0     C83435   9.829   5.027   9.013 -0.6851  0.4339  0.8314
  619MOL0     C83436   9.698   5.061   9.026  0.1212 -0.7427  0.1375
  619MOL0     C83437   9.652   5.191   8.994  0.5385  0.1892  0.0865
  619MOL0     O83438   9.515   5.217   9.006 -0.2932 -0.5991 -0.6918
  619MOL0     C83439   9.479   5.354   9.023 -0.3571 -0.3447 -0.1768
  619MOL0     C83440   9.418   5.405   8.894 -0.5311 -0.6540 -0.1578
  619MOL0     C83441   9.411   5.565   8.925  0.3731 -0.1481 -0.8813
  619MOL0     C83442   9.334   5.652   8.836 -0.0741  0.0086  0.5745
  619MOL0     C83443   9.365   5.801   8.865 -0.5877  0.5891 -0.2662
  619MOL0     C83444   9.302   5.904   8.775  0.2077  0.6157 -0.4057
  619MOL0     C83445   9.339   6.050   8.816  0.5265 -0.7758  0.3405
  619MOL0     C83446   9.312   6.146   8.701  0.1459 -0.1577  0.6634
  619MOL0     N83447   9.181   6.110   8.639 -0.1291 -0.3748  0.5597
  619MOL0     C83448   9.055   6.110   8.694  0.4645  0.0764 -0.5520
  619MOL0     C83449   8.964   6.082   8.594 -0.3043  0.7532  0.0491
  619MOL0     C83450   8.815   6.070   8.619  0.2773  0.7239  0.2467
  619MOL0     C83451   8.722   6.155   8.539 -0.7687  0.3299  0.3954
  619MOL0     C83452   8.576   6.106   8.566  0.5125  0.9665  1.1554
  619MOL0     C83453   8.470   6.200   8.513 -0.2754 -0.1146 -0.3111
  619MOL0     O83454   8.342   6.146   8.561 -0.2058 -0.4796 -0.2341
  619MOL0     C83455   8.226   6.216   8.548 -0.6107  0.2490  0.1301
  619MOL0     C83456   8.208   6.331   8.469  1.1889 -0.0015 -0.1510
  619MOL0     C83457   8.086   6.400   8.466 -0.1195  0.1986 -0.0771
  619MOL0     C83458   8.082   6.502   8.351 -0.2894 -0.1440  0.3592
  619MOL0     C83459   7.978   6.348   8.539 -0.1739 -0.0773 -0.1309
  619MOL0     C83460   7.846   6.407   8.537 -0.0464  0.6551 -0.9699
  619MOL0     O83461   7.760   6.348   8.620 -0.1403  0.0424  0.3740
  619MOL0     C83462   7.622   6.380   8.631  0.0902  0.0704 -0.4682
  619MOL0     C83463   7.584   6.511   8.638  0.8142  0.9272  0.3521
  619MOL0     C83464   7.449   6.541   8.665  0.8933 -0.4512 -0.5585
  619MOL0     C83465   7.351   6.438   8.689  0.1721  0.3764 -0.4008
  619MOL0     O83466   7.217   6.457   8.698 -0.4008  0.5105 -1.5197
  619MOL0     C83467   7.183   6.572   8.632  0.6225 -0.3347  0.7159
  619MOL0     C83468   7.033   6.552   8.620 -0.5944  0.6413  0.0575
  619MOL0     C83469   6.972   6.688   8.581  0.0162 -0.2608 -0.4625
  619MOL0     C83470   6.907   6.768   8.707 -0.5748  0.1359 -0.4124
  619MOL0     C83471   6.803   6.870   8.668  0.3291  0.0267 -0.5031
  619MOL0     C83472   6.724   6.913   8.793 -0.2268  0.0099 -0.0816
  619MOL0     C83473   6.668   7.062   8.782  0.1634  0.1204  0.8580
  619MOL0     C83474   6.561   7.082   8.887 -0.2221 -0.7110 -0.4681
  619MOL0    Cl83475   6.417   6.975   8.846  0.2619 -0.2322  0.0527
  619MOL0     C83476   7.402   6.305   8.685  0.7790 -0.3935 -1.4751
  619MOL0     C83477   7.535   6.278   8.661 -0.2286 -0.1260 -0.3329
  619MOL0     O83478   7.826   6.509   8.474  0.4315 -0.5844 -0.1242
  619MOL0     C83479   7.998   6.226   8.612  0.8556  0.0887  0.2471
  619MOL0     C83480   8.115   6.156   8.606 -0.4005 -0.3799  0.0606
  619MOL0     N83481   9.041   6.067   8.477 -0.6689  0.2464  0.3144
  619MOL0     N83482   9.163   6.090   8.503  0.3645  0.3644  0.1218
  619MOL0     C83483   9.740   5.269   8.928 -0.3155  0.4871 -0.1045
  619MOL0     C83484   9.869   5.233   8.909  0.0439 -0.0816 -0.2755
  619MOL0     C83485  10.285   5.069   8.906 -0.1355 -0.4512  0.5769
  619MOL0     C83486  10.294   4.953   8.816  0.3897 -0.1770  0.1678
  619MOL0     C83487  10.415   4.898   8.776 -0.3410 -0.6188 -0.2306
  619MOL0     C83488  10.538   4.950   8.825  0.7152 -0.6910  1.0653
  619MOL0     O83489  10.664   4.901   8.784  0.5247 -0.2379 -0.1407
  619MOL0     C83490  10.666   4.817   8.668  0.3609 -0.9392  0.1010
  619MOL0     C83491  10.806   4.798   8.621  0.8005 -0.5454 -0.7472
  619MOL0     C83492  10.887   4.919   8.586  0.0360 -0.1977  0.0879
  619MOL0     C83493  10.844   5.010   8.467 -0.1537  0.5965 -0.5076
  619MOL0     C83494  10.798   4.923   8.366  0.1407  0.1050 -0.3166
  619MOL0     C83495  10.762   4.844   8.284 -0.6224  0.2283  0.4058
  619MOL0     C83496  10.533   5.050   8.924 -0.0269 -0.1795 -0.1011
  619MOL0     C83497  10.408   5.107   8.961 -0.1620 -0.3397  0.7573
  619MOL0     H83498   9.855   4.932   9.060 -1.4201 -0.7937 -1.1248
  619MOL0     H83499   9.622   4.995   9.066 -0.7492  0.3574  0.3589
  619MOL0     H83500   9.405   5.350   9.103 -0.0629  1.6822  0.2306
  619MOL0     H83501   9.569   5.407   9.056 -1.3123 -1.0186  4.2008
  619MOL0     H83502   9.490   5.377   8.816  0.5229 -1.3524  1.0302
  619MOL0     H83503   9.317   5.365   8.880  0.0351 -2.6921  1.1643
  619MOL0     H83504   9.360   5.575   9.021 -0.4411 -1.8227 -1.1098
  619MOL0     H83505   9.512   5.604   8.939 -0.2566  2.2019 -2.2990
  619MOL0     H83506   9.368   5.636   8.734 -1.4767 -2.5237  0.4192
  619MOL0     H83507   9.226   5.631   8.838  0.0843 -0.8294  1.0471
  619MOL0     H83508   9.336   5.831   8.966  0.7278  3.6654 -0.6915
  619MOL0     H83509   9.472   5.822   8.859 -0.1312 -1.1400  1.0808
  619MOL0     H83510   9.335   5.877   8.675 -0.9285 -2.7646 -0.0145
  619MOL0     H83511   9.192   5.902   8.781  0.2258 -0.3030 -0.2235
  619MOL0     H83512   9.273   6.072   8.900 -2.5240 -2.1108 -1.5471
  619MOL0     H83513   9.447   6.050   8.835  0.1584 -1.2008  2.7018
  619MOL0     H83514   9.394   6.153   8.628 -1.0267  0.6487 -0.6263
  619MOL0     H83515   9.299   6.243   8.749  2.7560 -0.3937  2.0384
  619MOL0     H83516   9.025   6.130   8.796 -2.1467  0.2855 -1.2799
  619MOL0     H83517   8.793   5.965   8.597 -0.7442  1.1517 -0.9509
  619MOL0     H83518   8.792   6.086   8.724 -1.7412  1.6842 -0.2778
  619MOL0     H83519   8.739   6.160   8.431  2.4260  0.9638  0.8441
  619MOL0     H83520   8.733   6.258   8.572  0.1273  0.5722 -0.5798
  619MOL0     H83521   8.551   6.099   8.673 -2.0786  5.3648  1.0949
  619MOL0     H83522   8.560   6.004   8.528 -1.6968  0.9165  2.0738
  619MOL0     H83523   8.468   6.213   8.404  1.9570 -0.1040 -0.4016
  619MOL0     H83524   8.491   6.301   8.550 -3.0463  1.2212 -2.0216
  619MOL0     H83525   8.284   6.362   8.399 -1.3336  0.5993 -2.8240
  619MOL0     H83526   7.997   6.471   8.289 -1.2777 -1.8373  2.4404
  619MOL0     H83527   8.066   6.602   8.391 -1.7001  0.7167 -2.1073
  619MOL0     H83528   8.166   6.497   8.281 -0.5474 -1.7784  0.1270
  619MOL0     H83529   7.657   6.590   8.623  0.3769  1.7918  2.4013
  619MOL0     H83530   7.426   6.647   8.671  3.3588  0.1982 -1.1958
  619MOL0     H83531   7.205   6.668   8.680  0.4221  1.9357 -3.2425
  619MOL0     H83532   7.216   6.563   8.528  1.3560 -2.4173  1.0956
  619MOL0     H83533   7.014   6.474   8.546  1.3762 -0.2229  0.3844
  619MOL0     H83534   6.989   6.515   8.713 -0.1834  1.4601  0.5930
  619MOL0     H83535   6.880   6.660   8.530  0.4263 -2.4382 -0.1107
  619MOL0     H83536   7.045   6.748   8.526  2.3714 -1.4385  1.1688
  619MOL0     H83537   6.872   6.693   8.779  1.7994 -0.8359 -0.1555
  619MOL0     H83538   6.986   6.812   8.768 -1.0754 -2.5601  2.4564
  619MOL0     H83539   6.732   6.811   8.609  0.8239 -1.6939  0.5455
  619MOL0     H83540   6.849   6.953   8.614  2.3349 -0.0619  0.9635
  619MOL0     H83541   6.642   6.843   8.807 -0.6796  0.6327  0.4743
  619MOL0     H83542   6.791   6.898   8.878 -0.6644 -2.9836 -0.1630
  619MOL0     H83543   6.625   7.065   8.681  3.1872  0.6677 -0.5224
  619MOL0     H83544   6.748   7.136   8.780  2.0658 -1.8166  1.6149
  619MOL0     H83545   6.535   7.188   8.877 -1.1292 -1.0615 -2.2201
  619MOL0     H83546   6.595   7.068   8.990 -1.8093 -1.1607  0.0172
  619MOL0     H83547   7.323   6.232   8.700 -2.1545  2.6258 -1.0315
  619MOL0     H83548   7.578   6.179   8.653 -1.3982 -0.6021 -0.8949
  619MOL0     H83549   7.912   6.180   8.660  0.2993  1.4112  0.5684
  619MOL0     H83550   8.122   6.057   8.649  1.2328 -1.1436 -1.8099
  619MOL0     H83551   9.716   5.363   8.878  2.3934 -0.2675 -3.2146
  619MOL0     H83552   9.935   5.308   8.865 -1.3556  1.6572  0.4519
  619MOL0     H83553  10.203   4.913   8.772 -1.1960  0.3194  2.8309
  619MOL0     H83554  10.403   4.814   8.708 -2.1045  1.1463 -2.2381
  619MOL0     H83555  10.626   4.718   8.694 -0.4291 -0.4136  0.9867
  619MOL0     H83556  10.598   4.863   8.596 -1.2790 -1.1967  1.4103
  619MOL0     H83557  10.799   4.737   8.531  2.7663 -2.5442  0.3461
  619MOL0     H83558  10.850   4.737   8.700 -0.5477  0.7578  1.1060
  619MOL0     H83559  10.985   4.874   8.565  1.7520  3.9223 -1.8149
  619MOL0     H83560  10.904   4.982   8.674  3.5971 -3.1544  1.7924
  619MOL0     H83561  10.926   5.075   8.435  0.4037 -0.3786 -1.1008
  619MOL0     H83562  10.759   5.064   8.511  0.1229  0.3262  0.3765
  619MOL0     H83563  10.735   4.759   8.224  1.7101 -0.1427 -0.2373
  619MOL0     H83564  10.627   5.087   8.962 -0.9141  0.7251  1.3051
  619MOL0     H83565  10.409   5.198   9.020 -2.1853  1.0137 -1.1462
  620MOL0     O83566   9.857  11.320  10.858  0.1694  0.3344  0.4550
  620MOL0     C83567   9.918  11.356  10.959  0.3176 -0.1967  0.6659
  620MOL0     O83568   9.857  11.403  11.075 -0.1998 -0.0866 -0.5715
  620MOL0     C83569   9.723  11.429  11.095  0.7688 -0.0235 -0.6538
  620MOL0     C83570   9.691  11.460  11.229  0.8022  0.4297 -0.0413
  620MOL0     C83571   9.561  11.504  11.260  0.1972 -0.9902  0.3666
  620MOL0     C83572   9.457  11.506  11.164 -0.1101 -0.3495  0.2712
  620MOL0     O83573   9.330  11.532  11.193  0.1341  0.7495  0.0783
  620MOL0     C83574   9.239  11.433  11.137  0.0826 -0.0303 -1.4085
  620MOL0     C83575   9.112  11.488  11.204  0.6424 -0.0488 -0.0204
  620MOL0     C83576   9.001  11.400  11.157  0.6893  0.4615 -0.1799
  620MOL0     C83577   8.881  11.433  11.248  1.2853 -0.2878  0.0491
  620MOL0     C83578   8.747  11.397  11.177  0.3610  0.5187  0.1058
  620MOL0     C83579   8.628  11.445  11.253  0.2999 -0.2165 -0.5251
  620MOL0     C83580   8.495  11.376  11.205 -0.9821  0.0915  0.5850
  620MOL0     C83581   8.385  11.469  11.230 -0.2169 -0.0877  0.0339
  620MOL0     N83582   8.265  11.433  11.156  0.1462 -0.8832  0.2561
  620MOL0     C83583   8.154  11.367  11.209 -0.5530 -0.5787  0.3009
  620MOL0     C83584   8.096  11.316  11.096 -0.1145 -0.5764 -0.7432
  620MOL0     C83585   7.977  11.219  11.096 -0.3991 -0.0262  0.9800
  620MOL0     C83586   7.851  11.276  11.029 -0.3799 -0.7495 -0.0437
  620MOL0     C83587   7.744  11.164  11.060 -0.4679  0.1783  0.3565
  620MOL0     C83588   7.604  11.205  11.014 -1.0153  0.1426  0.1054
  620MOL0     O83589   7.527  11.086  10.997 -0.6127  0.0734 -0.3876
  620MOL0     C83590   7.439  11.059  11.095  0.5751 -0.4584  0.4904
  620MOL0     C83591   7.474  10.968  11.188 -0.0179 -0.2612  0.3281
  620MOL0     C83592   7.382  10.942  11.291  0.1494 -0.6917  0.7749
  620MOL0     C83593   7.409  10.829  11.378  1.2710  0.3808 -0.1663
  620MOL0     C83594   7.260  11.020  11.295 -0.0651  0.4703  1.0869
  620MOL0     C83595   7.150  11.001  11.389 -0.0551 -0.2345  0.0946
  620MOL0     O83596   7.057  11.100  11.404  0.2102 -0.5702 -0.0328
  620MOL0     C83597   6.939  11.072  11.471  0.6504  0.0781  0.5132
  620MOL0     C83598   6.928  11.024  11.598  0.1290 -0.4150  0.1347
  620MOL0     C83599   6.806  11.011  11.672  0.0458  0.0506 -0.1047
  620MOL0     C83600   6.686  11.028  11.596 -0.2651 -0.2368  0.2496
  620MOL0     O83601   6.561  11.021  11.647  0.1195  0.3184 -0.7306
  620MOL0     C83602   6.540  11.003  11.780  1.0203 -0.3756  0.5720
  620MOL0     C83603   6.389  11.013  11.799  0.2015  0.1347 -0.4362
  620MOL0     C83604   6.331  11.158  11.763  0.1195 -0.2063  0.1107
  620MOL0     C83605   6.183  11.191  11.785 -0.3806  0.4755  0.4715
  620MOL0     C83606   6.141  11.199  11.932 -1.2007  0.4284 -0.6226
  620MOL0     C83607   5.996  11.201  11.961  0.0112  0.3465 -0.6057
  620MOL0     C83608   5.954  11.258  12.101 -0.8889 -0.0610  0.1509
  620MOL0     C83609   5.810  11.284  12.121 -0.1937 -0.4269 -0.5026
  620MOL0    Cl83610   5.777  11.406  12.250  0.1666  0.5078  0.2359
  620MOL0     C83611   6.691  11.075  11.468 -0.6598  0.2276 -1.3097
  620MOL0     C83612   6.817  11.102  11.407 -0.0306  0.7042 -0.0691
  620MOL0     O83613   7.143  10.891  11.446  0.2524  0.1099  0.1073
  620MOL0     C83614   7.236  11.121  11.203  0.7249  0.5461 -0.2653
  620MOL0     C83615   7.330  11.144  11.111  0.7388  0.5865  0.0048
  620MOL0     N83616   8.163  11.366  10.984 -0.5257  0.5465  0.6949
  620MOL0     N83617   8.264  11.437  11.022  0.0739  0.9770 -0.0223
  620MOL0     C83618   9.489  11.456  11.035 -0.5257 -0.7418  1.3971
  620MOL0     C83619   9.621  11.431  10.996 -0.1409 -0.3802 -0.6067
  620MOL0     C83620  10.063  11.349  10.959 -0.1749 -0.8734 -0.2324
  620MOL0     C83621  10.136  11.284  10.854 -0.5508 -0.5644 -0.4071
  620MOL0     C83622  10.282  11.288  10.864 -0.3908  0.1335  0.5275
  620MOL0     C83623  10.353  11.343  10.968  0.0209  0.1296  0.3846
  620MOL0     O83624  10.494  11.339  10.961 -0.2941 -0.7407 -0.0054
  620MOL0     C83625  10.578  11.390  11.073  1.2175  0.7259 -0.3445
  620MOL0     C83626  10.719  11.375  11.033 -0.4087  0.4713  0.0150
  620MOL0     C83627  10.825  11.416  11.139 -0.2854  0.6022  0.1522
  620MOL0     C83628  10.883  11.557  11.135 -0.6266 -1.1569  0.1042
  620MOL0     C83629  10.775  11.642  11.182  0.5305 -0.6047  0.1269
  620MOL0     C83630  10.686  11.714  11.207  0.6487  0.2077  0.0636
  620MOL0     C83631  10.276  11.401  11.067 -0.2450 -0.1090  0.0046
  620MOL0     C83632  10.142  11.397  11.069  0.7355 -0.7061 -0.4633
  620MOL0     H83633   9.768  11.447  11.305 -0.4064 -1.5350  0.9563
  620MOL0     H83634   9.527  11.534  11.359 -1.5227  2.7342 -1.1287
  620MOL0     H83635   9.226  11.446  11.029 -0.4047  0.5760 -1.2811
  620MOL0     H83636   9.277  11.336  11.173  0.3081  0.3880 -0.4759
  620MOL0     H83637   9.120  11.476  11.313  2.1722 -0.5892 -0.1637
  620MOL0     H83638   9.095  11.592  11.174 -0.7931 -0.6456 -1.4055
  620MOL0     H83639   8.978  11.416  11.051 -0.2776 -0.0689 -0.0546
  620MOL0     H83640   9.037  11.297  11.172 -0.0000  0.1306 -0.7497
  620MOL0     H83641   8.896  11.378  11.341  2.1306 -2.3626 -1.2451
  620MOL0     H83642   8.874  11.541  11.264 -0.6176 -0.2761 -0.6228
  620MOL0     H83643   8.745  11.432  11.074  1.2545  1.5410  0.4164
  620MOL0     H83644   8.750  11.288  11.185 -0.8605  0.3767 -1.1344
  620MOL0     H83645   8.633  11.436  11.362 -2.7742 -2.2091 -0.4222
  620MOL0     H83646   8.614  11.552  11.240 -2.5532 -0.5403 -0.6836
  620MOL0     H83647   8.498  11.345  11.100  0.0910  2.2545 -0.1003
  620MOL0     H83648   8.488  11.293  11.275 -1.7510  2.3082  3.3367
  620MOL0     H83649   8.419  11.569  11.198 -2.5728  1.0099  0.7169
  620MOL0     H83650   8.361  11.466  11.336  2.7825 -1.7244  0.7841
  620MOL0     H83651   8.128  11.352  11.313 -1.3836  1.1935  0.3781
  620MOL0     H83652   8.009  11.126  11.049  0.6238  0.5895  0.4281
  620MOL0     H83653   7.950  11.208  11.202 -1.3962  3.1410  1.1762
  620MOL0     H83654   7.856  11.289  10.920  0.3694 -1.0455 -0.0520
  620MOL0     H83655   7.836  11.378  11.067  2.9418  0.3214 -1.2690
  620MOL0     H83656   7.754  11.146  11.167  3.9109 -1.8504 -0.1696
  620MOL0     H83657   7.767  11.077  10.998 -1.2655  1.6374 -2.1846
  620MOL0     H83658   7.611  11.256  10.918  0.5774 -2.4296 -1.2583
  620MOL0     H83659   7.574  11.288  11.080 -1.3058 -0.0569  0.2297
  620MOL0     H83660   7.569  10.916  11.193  0.1552  0.0460  0.2081
  620MOL0     H83661   7.322  10.764  11.367  0.1660  2.1003 -2.5574
  620MOL0     H83662   7.497  10.777  11.338  0.5736 -1.6823  0.8333
  620MOL0     H83663   7.426  10.857  11.482  3.7376  0.1946 -0.4542
  620MOL0     H83664   7.023  11.002  11.645  1.7115  1.4758 -1.9828
  620MOL0     H83665   6.800  10.961  11.768 -2.3391  1.3907  0.5048
  620MOL0     H83666   6.567  10.902  11.814 -0.1389 -0.2522  1.9544
  620MOL0     H83667   6.596  11.083  11.829 -0.3464 -0.6095  2.6626
  620MOL0     H83668   6.346  10.940  11.730 -1.9676  1.7056 -0.8745
  620MOL0     H83669   6.372  10.997  11.906  2.0689  1.5787  0.1284
  620MOL0     H83670   6.348  11.166  11.655  0.3130 -2.0977 -0.0340
  620MOL0     H83671   6.393  11.214  11.834  0.6912 -2.4082  1.4110
  620MOL0     H83672   6.157  11.285  11.735 -0.7666 -0.7098 -1.7122
  620MOL0     H83673   6.120  11.110  11.747  0.6524 -0.2365  0.2294
  620MOL0     H83674   6.170  11.300  11.963 -0.1438  0.5233 -1.8596
  620MOL0     H83675   6.189  11.119  11.990  0.8333 -0.1948 -3.0264
  620MOL0     H83676   5.947  11.260  11.883  1.5882  1.1795 -1.0212
  620MOL0     H83677   5.945  11.105  11.954 -3.6671  2.1320 -0.9805
  620MOL0     H83678   6.014  11.347  12.122  0.4895 -0.7469 -0.7413
  620MOL0     H83679   5.988  11.185  12.174  2.4441  0.2317 -0.9285
  620MOL0     H83680   5.755  11.194  12.150  1.4405 -1.3315 -0.0868
  620MOL0     H83681   5.757  11.310  12.029 -0.0660 -1.7394 -0.9582
  620MOL0     H83682   6.597  11.082  11.414 -0.9213 -1.5995 -1.1529
  620MOL0     H83683   6.826  11.119  11.301 -0.3721  2.6218  0.1724
  620MOL0     H83684   7.159  11.196  11.215 -0.8910 -0.6540 -2.3697
  620MOL0     H83685   7.320  11.229  11.044  0.2519  0.7027  0.2156
  620MOL0     H83686   9.411  11.457  10.959  0.4437 -0.3328  0.3809
  620MOL0     H83687   9.646  11.406  10.893 -0.0855 -1.0133 -0.4469
  620MOL0     H83688  10.080  11.232  10.777 -1.4835 -2.1082  1.2465
  620MOL0     H83689  10.332  11.264  10.771 -0.0612 -0.4503  0.8516
  620MOL0     H83690  10.548  11.492  11.096  0.0003  0.1115  0.9204
  620MOL0     H83691  10.555  11.335  11.165 -3.8869  0.4705 -1.4606
  620MOL0     H83692  10.723  11.434  10.941 -1.4621 -0.0196 -0.3645
  620MOL0     H83693  10.726  11.269  11.006 -3.2700 -0.1669  1.3552
  620MOL0     H83694  10.909  11.346  11.133 -1.0970 -0.3853  0.1085
  620MOL0     H83695  10.784  11.388  11.237 -2.0663 -1.5654 -1.1321
  620MOL0     H83696  10.923  11.583  11.037 -1.8152 -0.1317 -0.1373
  620MOL0     H83697  10.968  11.581  11.199  0.4210  0.9266 -1.9147
  620MOL0     H83698  10.606  11.768  11.255  0.8348 -0.1946  0.8500
  620MOL0     H83699  10.322  11.454  11.149 -1.3708  2.4375 -0.9255
  620MOL0     H83700  10.091  11.435  11.157 -1.0315 -1.9345 -0.8863
  621MOL0     O83701   1.653   7.178   4.338 -0.6450 -0.1366 -0.3530
  621MOL0     C83702   1.703   7.095   4.412 -1.3181 -0.8042 -0.4513
  621MOL0     O83703   1.637   7.032   4.506 -0.1713  0.5875 -0.2645
  621MOL0     C83704   1.514   7.070   4.542  0.2512  0.3615  1.0060
  621MOL0     C83705   1.412   6.978   4.525 -0.4061 -0.2683 -0.3688
  621MOL0     C83706   1.284   7.021   4.544  0.8531 -0.0219 -0.0391
  621MOL0     C83707   1.245   7.155   4.570 -0.7366  0.0812 -0.2808
  621MOL0     O83708   1.112   7.191   4.585 -0.8644 -0.1071 -0.0137
  621MOL0     C83709   1.028   7.094   4.649 -0.8944  0.7273  0.2959
  621MOL0     C83710   0.884   7.147   4.661 -0.6014 -0.4620 -0.3852
  621MOL0     C83711   0.801   7.054   4.750 -0.5397 -0.0720 -0.1933
  621MOL0     C83712   0.685   7.133   4.809  0.0986  0.4799 -0.1084
  621MOL0     C83713   0.580   7.150   4.703 -0.4756 -0.2446 -0.6056
  621MOL0     C83714   0.508   7.281   4.717  0.1064 -0.8898  0.1151
  621MOL0     C83715   0.408   7.293   4.593  0.0690 -0.1347 -0.3531
  621MOL0     C83716   0.258   7.274   4.622  1.0376 -0.9434  1.3775
  621MOL0     N83717   0.233   7.131   4.660  0.4879  0.3614  0.1055
  621MOL0     C83718   0.192   7.037   4.565  0.6972  0.1810  0.1745
  621MOL0     C83719   0.183   6.917   4.644  0.2276 -0.5130 -0.4731
  621MOL0     C83720   0.144   6.777   4.601  0.5225 -0.0616  0.8858
  621MOL0     C83721   0.272   6.695   4.589  0.0847  0.1799  0.0857
  621MOL0     C83722   0.310   6.632   4.723 -0.1744 -0.9754  0.4244
  621MOL0     C83723   0.455   6.658   4.772  0.1795 -0.4858  0.3120
  621MOL0     O83724   0.555   6.612   4.687  0.5062 -0.6908  0.3363
  621MOL0     C83725   0.687   6.649   4.703 -0.1836  0.3788 -0.3070
  621MOL0     C83726   0.775   6.610   4.605 -0.5487 -0.2164  0.0769
  621MOL0     C83727   0.912   6.610   4.623 -0.7768  0.2433 -0.5330
  621MOL0     C83728   1.000   6.527   4.523  0.6218 -0.2958  0.8228
  621MOL0     C83729   0.963   6.692   4.727 -0.0540  0.7192  0.0626
  621MOL0     C83730   1.101   6.739   4.729  0.3250 -0.7763 -1.0091
  621MOL0     O83731   1.147   6.790   4.848  0.2019 -0.6635 -0.0637
  621MOL0     C83732   1.284   6.803   4.852 -0.1483 -0.3267  0.0464
  621MOL0     C83733   1.365   6.684   4.860 -0.2030 -1.1457  0.2350
  621MOL0     C83734   1.502   6.689   4.877  0.0982 -0.7464  0.0591
  621MOL0     C83735   1.556   6.822   4.895 -0.7957  0.6004 -0.3464
  621MOL0     O83736   1.692   6.828   4.933  0.9088 -0.1501  0.6382
  621MOL0     C83737   1.775   6.944   4.914  0.2069 -0.4319 -0.1266
  621MOL0     C83738   1.931   6.914   4.922 -0.4016  0.0622 -0.4973
  621MOL0     C83739   2.036   7.024   4.920 -0.8587  0.1437  0.5926
  621MOL0     C83740   2.170   6.953   4.911  0.0195 -0.0583  0.0548
  621MOL0     C83741   2.296   7.036   4.858 -0.1895 -0.1960  0.6702
  621MOL0     C83742   2.428   6.962   4.881  1.2342  0.2099 -0.4616
  621MOL0     C83743   2.553   7.052   4.897 -0.2979 -0.2862 -0.1949
  621MOL0     C83744   2.636   7.042   4.770  0.7018 -0.1419  0.1057
  621MOL0    Cl83745   2.754   7.175   4.766 -0.2138 -0.1858 -0.3479
  621MOL0     C83746   1.478   6.936   4.891  1.3284  0.6370 -0.3201
  621MOL0     C83747   1.342   6.927   4.865 -0.0404  0.0318  0.4193
  621MOL0     O83748   1.170   6.729   4.630  0.7236 -0.4230  0.1878
  621MOL0     C83749   0.878   6.742   4.828 -1.0006 -0.2065  0.8107
  621MOL0     C83750   0.740   6.709   4.820 -0.3840 -0.6304 -0.1543
  621MOL0     N83751   0.232   6.948   4.769 -0.5461  0.8255 -0.3709
  621MOL0     N83752   0.257   7.070   4.775 -0.1080 -0.8254 -0.3202
  621MOL0     C83753   1.352   7.240   4.595  0.0156 -0.2047  0.7080
  621MOL0     C83754   1.490   7.200   4.588  0.2077 -0.7264 -0.6809
  621MOL0     C83755   1.845   7.060   4.384 -0.5315 -0.2777 -0.1768
  621MOL0     C83756   1.916   7.125   4.279  0.0316  0.3059  0.1987
  621MOL0     C83757   2.056   7.104   4.265 -0.7833 -0.3015 -0.0104
  621MOL0     C83758   2.122   7.010   4.349 -0.2203  0.3424 -0.8230
  621MOL0     O83759   2.253   6.975   4.340 -0.2028  0.5688  0.3260
  621MOL0     C83760   2.321   7.031   4.224  0.2189  0.3454 -0.3668
  621MOL0     C83761   2.464   6.980   4.213 -0.3303  0.4385  0.7552
  621MOL0     C83762   2.556   7.032   4.328  0.3370 -0.4007  0.4323
  621MOL0     C83763   2.707   7.039   4.302 -0.2877  0.4573 -0.3551
  621MOL0     C83764   2.751   6.901   4.295  0.2911  0.2815 -0.3070
  621MOL0     C83765   2.783   6.785   4.289 -0.4911  0.1542  0.2397
  621MOL0     C83766   2.049   6.948   4.452  0.0228 -1.0306 -0.3990
  621MOL0     C83767   1.912   6.975   4.472 -0.1297 -0.5865 -0.3376
  621MOL0     H83768   1.417   6.881   4.478 -3.9491 -1.0573  0.5660
  621MOL0     H83769   1.210   6.946   4.518 -0.2241  0.8360  0.4726
  621MOL0     H83770   1.037   6.995   4.602  0.9631  0.4940  1.0479
  621MOL0     H83771   1.053   7.090   4.756  1.3446  0.2911 -0.1871
  621MOL0     H83772   0.892   7.244   4.711  2.0996 -0.3682 -0.8724
  621MOL0     H83773   0.836   7.151   4.563  0.3392 -2.8586 -0.9994
  621MOL0     H83774   0.755   6.970   4.698 -0.3887 -0.1129 -0.2607
  621MOL0     H83775   0.869   7.014   4.825 -1.0463 -0.2789  0.1611
  621MOL0     H83776   0.634   7.078   4.889 -1.3057  1.6378 -0.1591
  621MOL0     H83777   0.715   7.224   4.863  0.3223  0.2704  0.1224
  621MOL0     H83778   0.620   7.146   4.601 -0.5986  1.4661 -0.7583
  621MOL0     H83779   0.505   7.070   4.709 -1.6679  0.7614 -1.3982
  621MOL0     H83780   0.459   7.292   4.814 -0.0537  0.5755 -0.1131
  621MOL0     H83781   0.577   7.364   4.706  1.3059 -1.6346  1.6520
  621MOL0     H83782   0.422   7.392   4.549 -0.0084 -0.5867 -1.4479
  621MOL0     H83783   0.437   7.214   4.522  0.3712 -0.0881 -0.2815
  621MOL0     H83784   0.200   7.298   4.532  4.9008 -2.3869 -1.7787
  621MOL0     H83785   0.225   7.328   4.712  1.2799 -1.0064  1.5032
  621MOL0     H83786   0.169   7.048   4.460 -0.8044  1.0106  0.5603
  621MOL0     H83787   0.072   6.728   4.667  1.1467 -3.0810 -0.5222
  621MOL0     H83788   0.087   6.780   4.508 -2.6833 -2.0461  2.5814
  621MOL0     H83789   0.360   6.745   4.548 -0.1392  2.0538  1.7685
  621MOL0     H83790   0.252   6.613   4.519 -0.4530  0.6913 -0.3730
  621MOL0     H83791   0.289   6.525   4.711 -4.0526 -0.3010 -0.1561
  621MOL0     H83792   0.248   6.651   4.811  1.5877 -0.3607  1.5965
  621MOL0     H83793   0.465   6.621   4.875 -2.4412 -1.5333  0.2719
  621MOL0     H83794   0.466   6.766   4.781 -2.1816 -0.1835  0.2318
  621MOL0     H83795   0.721   6.571   4.519  2.7126 -1.7013 -1.4566
  621MOL0     H83796   1.066   6.593   4.466 -1.8887 -0.6163 -2.7989
  621MOL0     H83797   1.053   6.445   4.571 -0.2152 -0.3461  1.7002
  621MOL0     H83798   0.933   6.473   4.454  1.0091 -0.8436  0.8670
  621MOL0     H83799   1.316   6.589   4.844 -0.1519 -2.0485  4.3780
  621MOL0     H83800   1.558   6.597   4.883 -1.0055 -1.3712  1.4517
  621MOL0     H83801   1.754   7.001   4.823 -1.6800 -2.0194 -0.7559
  621MOL0     H83802   1.738   7.012   4.991 -0.1890  0.2787 -0.9196
  621MOL0     H83803   1.940   6.876   5.024  0.4514  4.1179  1.1224
  621MOL0     H83804   1.966   6.840   4.850  1.0462 -1.6165  1.7678
  621MOL0     H83805   2.034   7.085   5.011  2.4166  1.6863 -0.2453
  621MOL0     H83806   2.034   7.093   4.835  1.9236  2.0881  1.9513
  621MOL0     H83807   2.198   6.941   5.017  0.5226  2.0602  0.2093
  621MOL0     H83808   2.167   6.849   4.878 -0.1680 -0.6894  1.9024
  621MOL0     H83809   2.296   7.132   4.912 -2.1774 -0.6849  1.6190
  621MOL0     H83810   2.294   7.065   4.753  2.9707 -1.6867  0.0680
  621MOL0     H83811   2.410   6.918   4.979 -4.7684  2.2284 -0.2628
  621MOL0     H83812   2.441   6.880   4.809 -0.7354  2.1519 -3.2558
  621MOL0     H83813   2.611   7.032   4.988  1.1915 -0.0440 -1.0518
  621MOL0     H83814   2.515   7.152   4.916 -0.5863 -0.5356  0.5615
  621MOL0     H83815   2.570   7.044   4.683  1.9220 -0.7201 -0.8670
  621MOL0     H83816   2.698   6.951   4.774  1.4879  0.3949  0.3811
  621MOL0     H83817   1.523   7.031   4.920  0.1603  0.4460  2.5528
  621MOL0     H83818   1.276   7.013   4.868 -2.2639 -1.5507 -0.0937
  621MOL0     H83819   0.910   6.808   4.907 -2.1080 -0.7661  1.7451
  621MOL0     H83820   0.669   6.745   4.894  0.5680 -0.3925  0.6682
  621MOL0     H83821   1.333   7.341   4.632  1.2540  1.5556 -2.9895
  621MOL0     H83822   1.569   7.270   4.613 -0.7172  1.1550 -2.7361
  621MOL0     H83823   1.858   7.195   4.220  0.1617 -0.5472 -0.9854
  621MOL0     H83824   2.115   7.157   4.191  1.3962  0.4184  2.0927
  621MOL0     H83825   2.275   7.003   4.128  0.5934 -0.9158 -0.1923
  621MOL0     H83826   2.326   7.140   4.233 -3.2142  0.5103  1.6276
  621MOL0     H83827   2.506   7.024   4.123 -2.1287  3.4227  1.2115
  621MOL0     H83828   2.466   6.871   4.213 -2.7477  0.1930 -3.2222
  621MOL0     H83829   2.531   6.972   4.416  1.0874 -0.8640  0.3368
  621MOL0     H83830   2.517   7.129   4.361  2.3854  0.4473  0.4635
  621MOL0     H83831   2.755   7.088   4.387 -0.1298 -0.3028 -0.0022
  621MOL0     H83832   2.744   7.099   4.218 -0.1428  0.3421 -0.3739
  621MOL0     H83833   2.823   6.685   4.293  0.0005  0.3110 -0.5138
  621MOL0     H83834   2.094   6.873   4.517 -0.9471 -0.8473  0.5024
  621MOL0     H83835   1.860   6.926   4.553 -0.2972  0.9464  0.5277
  622MOL0     O83836   4.789   9.612   3.703  0.4639  0.0679  0.3729
  622MOL0     C83837   4.764   9.626   3.583  0.2801  0.0675 -0.1177
  622MOL0     O83838   4.642   9.604   3.534  0.2117  0.0608  0.1194
  622MOL0     C83839   4.540   9.573   3.620 -0.0498  0.0891 -0.1043
  622MOL0     C83840   4.522   9.440   3.659 -0.3534  0.0880 -0.3028
  622MOL0     C83841   4.430   9.401   3.762  0.5865 -0.0477  0.2603
  622MOL0     C83842   4.354   9.502   3.825  0.4263 -0.1694 -0.4822
  622MOL0     O83843   4.274   9.461   3.931 -0.1137 -0.0838  0.6634
  622MOL0     C83844   4.162   9.544   3.973  0.0861  0.2161 -0.0266
  622MOL0     C83845   4.040   9.555   3.879 -0.3126  0.5181  0.5938
  622MOL0     C83846   3.938   9.453   3.923 -0.1906 -0.0925  0.4243
  622MOL0     C83847   3.827   9.448   3.817  0.1320 -0.1497 -0.3963
  622MOL0     C83848   3.751   9.324   3.825 -0.0360  0.6663 -0.5481
  622MOL0     C83849   3.597   9.354   3.819  0.3075  0.6053  0.2840
  622MOL0     C83850   3.530   9.230   3.756 -0.5029  0.1868 -0.1439
  622MOL0     C83851   3.388   9.260   3.709 -0.1234  0.2767 -0.8163
  622MOL0     N83852   3.382   9.340   3.582  0.5915  0.1200 -0.6700
  622MOL0     C83853   3.266   9.406   3.557 -0.1821  0.7681 -0.6049
  622MOL0     C83854   3.277   9.450   3.436  0.1910  0.0065  0.7803
  622MOL0     C83855   3.163   9.527   3.366  0.7996  0.0561 -0.0661
  622MOL0     C83856   3.098   9.630   3.462 -0.0721 -0.3608  1.0777
  622MOL0     C83857   3.206   9.741   3.507  0.5906  1.5252 -1.2975
  622MOL0     C83858   3.173   9.783   3.653  0.1071 -0.7387  0.1593
  622MOL0     O83859   3.234   9.688   3.742 -0.0124 -0.4348  0.1574
  622MOL0     C83860   3.236   9.707   3.872 -0.2368 -0.9417  0.1509
  622MOL0     C83861   3.192   9.821   3.936  0.3543  0.0705 -0.3474
  622MOL0     C83862   3.211   9.850   4.076  0.1406 -0.1484 -0.4711
  622MOL0     C83863   3.179   9.990   4.123  0.6491  0.3937  0.5761
  622MOL0     C83864   3.271   9.745   4.157 -0.1953  0.4517 -0.4796
  622MOL0     C83865   3.288   9.754   4.303  0.5130 -0.0832 -0.3997
  622MOL0     O83866   3.280   9.638   4.367 -0.3499 -0.3307 -0.7508
  622MOL0     C83867   3.310   9.632   4.503  0.1220  0.2504  0.4948
  622MOL0     C83868   3.430   9.579   4.559  0.4403  0.2740  0.4404
  622MOL0     C83869   3.447   9.575   4.697  0.9453  0.3991  0.1418
  622MOL0     C83870   3.360   9.639   4.786 -0.3263  0.1391 -0.6784
  622MOL0     O83871   3.383   9.637   4.927  0.1884 -0.3686  0.8559
  622MOL0     C83872   3.286   9.698   5.012  0.5802 -0.4004 -0.4252
  622MOL0     C83873   3.340   9.716   5.150  0.1893 -0.2451  0.7166
  622MOL0     C83874   3.329   9.591   5.231  0.2149  0.0297 -0.2944
  622MOL0     C83875   3.415   9.585   5.357 -0.3312 -0.3021 -0.1156
  622MOL0     C83876   3.366   9.469   5.452  0.3886 -0.1491 -0.1213
  622MOL0     C83877   3.410   9.505   5.594 -0.1075  0.7718  0.1238
  622MOL0     C83878   3.386   9.386   5.677  0.3836  0.5612 -0.8013
  622MOL0     C83879   3.359   9.424   5.825 -0.0535 -0.7591  0.0100
  622MOL0    Cl83880   3.519   9.494   5.885 -0.1000  0.0108  0.1189
  622MOL0     C83881   3.236   9.691   4.732 -0.7383  0.2887 -0.1166
  622MOL0     C83882   3.213   9.682   4.596  0.8550 -0.1573  0.2464
  622MOL0     O83883   3.328   9.862   4.349  0.2775 -0.2565 -0.4286
  622MOL0     C83884   3.319   9.627   4.093  0.1454  0.1695 -0.8109
  622MOL0     C83885   3.302   9.618   3.953 -0.3788  0.6270  0.0858
  622MOL0     N83886   3.398   9.410   3.379  0.1088 -0.9489 -0.4524
  622MOL0     N83887   3.463   9.355   3.472 -0.0609 -0.7907 -0.3416
  622MOL0     C83888   4.379   9.640   3.787  0.4977  0.1898 -0.2448
  622MOL0     C83889   4.469   9.671   3.678 -0.4112 -0.5546 -0.2353
  622MOL0     C83890   4.873   9.646   3.478  0.3829 -0.9209 -0.1585
  622MOL0     C83891   4.845   9.680   3.347 -0.1402 -0.7739 -0.1502
  622MOL0     C83892   4.953   9.709   3.258 -0.5194 -0.4125  0.3459
  622MOL0     C83893   5.089   9.688   3.288  0.6483 -0.2421  0.5277
  622MOL0     O83894   5.194   9.705   3.200 -1.2578 -0.1536  0.1606
  622MOL0     C83895   5.186   9.798   3.088 -0.1979  0.4993  0.4380
  622MOL0     C83896   5.325   9.837   3.040  0.6106 -0.2390  0.3484
  622MOL0     C83897   5.387   9.913   3.150 -0.3791  0.5045  0.6253
  622MOL0     C83898   5.513   9.965   3.090 -0.3804 -0.1554  0.1057
  622MOL0     C83899   5.595  10.025   3.204 -0.1348 -0.1439 -0.4763
  622MOL0     C83900   5.673  10.065   3.298  0.8257 -0.2781  0.6190
  622MOL0     C83901   5.111   9.662   3.419 -0.4772  0.5874 -0.0565
  622MOL0     C83902   5.011   9.636   3.511 -0.3549 -0.3532  0.3442
  622MOL0     H83903   4.595   9.364   3.632  0.8045  0.7268  0.9017
  622MOL0     H83904   4.433   9.299   3.800 -1.8861 -1.2750 -2.4353
  622MOL0     H83905   4.127   9.494   4.064 -2.7380 -0.5979 -1.4327
  622MOL0     H83906   4.190   9.643   4.008 -1.0238  1.2416 -1.9027
  622MOL0     H83907   4.012   9.661   3.891  2.2240  1.5401 -1.6452
  622MOL0     H83908   4.064   9.540   3.774 -0.6771  1.6225  0.3342
  622MOL0     H83909   3.986   9.355   3.927 -0.3768 -0.2458 -0.7389
  622MOL0     H83910   3.901   9.469   4.025  3.1373  1.7469  1.4782
  622MOL0     H83911   3.764   9.537   3.832 -0.5870 -1.0982  3.1592
  622MOL0     H83912   3.863   9.446   3.714  1.0872  0.9645 -0.1109
  622MOL0     H83913   3.787   9.257   3.746  0.4582  2.9616 -2.3898
  622MOL0     H83914   3.768   9.273   3.920  1.2637  0.5236 -0.8383
  622MOL0     H83915   3.557   9.377   3.918 -2.9650  1.4191 -1.0732
  622MOL0     H83916   3.562   9.440   3.760  1.9110  1.0654 -0.0646
  622MOL0     H83917   3.584   9.190   3.670 -1.2153  3.5536 -2.3750
  622MOL0     H83918   3.521   9.144   3.822  1.6445  1.1885  1.6152
  622MOL0     H83919   3.326   9.300   3.790 -3.3171  2.0437 -3.8459
  622MOL0     H83920   3.346   9.162   3.684  1.5746 -0.5798 -0.4254
  622MOL0     H83921   3.180   9.399   3.623  0.5802  0.5908  0.3876
  622MOL0     H83922   3.190   9.578   3.272 -1.8504 -0.9868 -1.4979
  622MOL0     H83923   3.101   9.443   3.334  1.5623 -0.8967  0.9165
  622MOL0     H83924   3.057   9.589   3.555 -1.9457  0.9049  0.8626
  622MOL0     H83925   3.012   9.679   3.415 -0.2103  0.2417  1.9397
  622MOL0     H83926   3.198   9.830   3.444 -2.0717  0.4138 -2.7134
  622MOL0     H83927   3.308   9.702   3.502 -0.2544 -0.9402 -0.9576
  622MOL0     H83928   3.064   9.791   3.656  0.1339  0.9434 -1.4151
  622MOL0     H83929   3.232   9.875   3.661 -1.4286  0.3165 -0.4068
  622MOL0     H83930   3.142   9.901   3.881  0.7225  1.7881  1.6568
  622MOL0     H83931   3.179  10.059   4.038 -2.1064 -2.2043 -1.7693
  622MOL0     H83932   3.078   9.986   4.167  0.4413 -0.1809  0.0499
  622MOL0     H83933   3.248  10.030   4.198  0.3517  1.7914  0.1267
  622MOL0     H83934   3.501   9.534   4.490 -1.1618 -0.2930 -0.9156
  622MOL0     H83935   3.543   9.534   4.728  0.4869 -1.0282 -0.2746
  622MOL0     H83936   3.280   9.802   4.977  2.3958 -0.8360 -2.2098
  622MOL0     H83937   3.194   9.640   5.014  1.4688 -1.8450 -0.1325
  622MOL0     H83938   3.442   9.754   5.137 -0.1939  0.0789 -1.7160
  622MOL0     H83939   3.290   9.801   5.196 -0.6579 -0.5985  0.4763
  622MOL0     H83940   3.346   9.503   5.169 -2.3669 -0.3566 -0.5915
  622MOL0     H83941   3.232   9.599   5.281  0.8268  0.5764  0.8380
  622MOL0     H83942   3.520   9.573   5.327 -0.7463 -0.4515 -1.5968
  622MOL0     H83943   3.411   9.681   5.410  1.3800  1.5529 -3.0499
  622MOL0     H83944   3.410   9.376   5.416  0.1430 -0.9464  1.5274
  622MOL0     H83945   3.256   9.474   5.454  0.4100  0.3573  0.8309
  622MOL0     H83946   3.515   9.537   5.595  0.4843 -0.9174  3.4166
  622MOL0     H83947   3.341   9.586   5.620  0.6719  1.9778 -1.3927
  622MOL0     H83948   3.472   9.322   5.656  1.2085  1.9039 -1.6388
  622MOL0     H83949   3.290   9.342   5.647 -0.8447  2.6120 -0.1122
  622MOL0     H83950   3.334   9.334   5.881 -1.2705 -0.8580 -0.6543
  622MOL0     H83951   3.276   9.495   5.816  0.0524 -0.4967  1.0284
  622MOL0     H83952   3.161   9.734   4.798  0.6963  4.3019 -0.8390
  622MOL0     H83953   3.116   9.718   4.563  0.3113 -0.6832  1.2200
  622MOL0     H83954   3.363   9.545   4.149 -0.9516  1.0263  1.4227
  622MOL0     H83955   3.344   9.535   3.898  1.7844  3.1501 -2.3700
  622MOL0     H83956   4.311   9.708   3.836 -0.4984 -3.5552  4.3866
  622MOL0     H83957   4.480   9.773   3.643  2.0181  0.4911  3.0026
  622MOL0     H83958   4.743   9.694   3.311  0.1448 -1.0681 -1.1154
  622MOL0     H83959   4.941   9.745   3.156  2.1894 -1.7554 -0.5374
  622MOL0     H83960   5.135   9.757   3.000  3.4268 -2.5054 -0.5286
  622MOL0     H83961   5.135   9.884   3.132  2.6290  1.9709  1.0989
  622MOL0     H83962   5.312   9.899   2.951 -5.0860  0.5645  1.4085
  622MOL0     H83963   5.370   9.745   3.001  1.2482  0.3392 -0.3072
  622MOL0     H83964   5.407   9.852   3.238 -0.6446 -0.6522 -0.0958
  622MOL0     H83965   5.337  10.004   3.186  3.9520  2.9369  1.1078
  622MOL0     H83966   5.481  10.035   3.012  1.1731  0.0354 -0.3854
  622MOL0     H83967   5.574   9.890   3.040  0.5411  1.4274 -1.2826
  622MOL0     H83968   5.734  10.108   3.375  0.3550  2.4794 -0.4050
  622MOL0     H83969   5.202   9.642   3.475 -0.1394 -1.5981 -1.2627
  622MOL0     H83970   5.022   9.617   3.617  1.9704 -0.9568  0.0604
  623MOL0     O83971   5.022   4.632   0.197 -0.4673  0.1069 -0.3083
  623MOL0     C83972   5.024   4.580   0.088 -0.1862 -0.7410  0.4797
  623MOL0     O83973   4.937   4.500   0.043 -0.7083  1.0460  0.2473
  623MOL0     C83974   4.835   4.456   0.122  0.1556 -0.2152 -0.0877
  623MOL0     C83975   4.737   4.543   0.175  0.1558  0.8401 -0.3477
  623MOL0     C83976   4.662   4.502   0.291 -0.4529 -0.2782  0.4761
  623MOL0     C83977   4.672   4.367   0.338  0.0578  0.1769 -0.4195
  623MOL0     O83978   4.589   4.326   0.441  0.2292  0.1844 -0.0218
  623MOL0     C83979   4.449   4.330   0.405 -0.4430  0.4267  0.0098
  623MOL0     C83980   4.365   4.254   0.507  1.0678 -0.3730  0.1374
  623MOL0     C83981   4.212   4.211   0.481 -1.1259 -0.6347  0.3985
  623MOL0     C83982   4.135   4.343   0.490  0.7052 -0.0561  0.2627
  623MOL0     C83983   3.981   4.309   0.493  0.3149  0.5545 -0.1071
  623MOL0     C83984   3.903   4.434   0.470 -0.1407 -0.3623  0.1632
  623MOL0     C83985   3.757   4.405   0.518 -0.4613 -0.1431 -1.4325
  623MOL0     C83986   3.691   4.298   0.431  0.0721 -0.4329  0.0238
  623MOL0     N83987   3.651   4.352   0.297  0.4935 -0.0608  0.0470
  623MOL0     C83988   3.561   4.454   0.267 -0.5452  0.1949  0.4916
  623MOL0     C83989   3.564   4.459   0.127  0.1693 -0.3770  1.0024
  623MOL0     C83990   3.486   4.545   0.031  1.0621 -1.0743 -0.5279
  623MOL0     C83991   3.429   4.470  -0.090  0.7271 -0.2055 -0.0717
  623MOL0     C83992   3.359   4.570  -0.177  0.4197  0.2407 -0.9128
  623MOL0     C83993   3.290   4.506  -0.288  0.6448  0.4122  1.2725
  623MOL0     O83994   3.201   4.402  -0.266 -0.1700 -0.4942 -0.1661
  623MOL0     C83995   3.069   4.428  -0.240 -0.2489  0.7262  0.5521
  623MOL0     C83996   2.990   4.313  -0.243 -0.6518 -0.1554  0.3972
  623MOL0     C83997   2.856   4.320  -0.214  0.2053  0.5038  0.8980
  623MOL0     C83998   2.784   4.195  -0.257 -0.6867  0.1965  0.3966
  623MOL0     C83999   2.797   4.445  -0.179 -0.5608 -0.1051  0.5441
  623MOL0     C84000   2.653   4.454  -0.147  0.2027 -0.4461 -0.8565
  623MOL0     O84001   2.576   4.342  -0.134 -0.0646 -0.2334  0.1513
  623MOL0     C84002   2.437   4.329  -0.150 -0.5913 -0.5421 -0.3259
  623MOL0     C84003   2.395   4.197  -0.171  0.8386  0.2539  0.0657
  623MOL0     C84004   2.261   4.166  -0.188  0.1848  0.5063  0.1488
  623MOL0     C84005   2.163   4.266  -0.182  0.6421 -0.2890 -1.0417
  623MOL0     O84006   2.030   4.247  -0.197  0.0403 -0.6671  0.3848
  623MOL0     C84007   1.995   4.153  -0.289  0.5279  0.0982  0.1835
  623MOL0     C84008   1.838   4.143  -0.284 -0.1659  0.5639 -0.0827
  623MOL0     C84009   1.755   4.089  -0.169  0.1865 -0.1565 -0.4621
  623MOL0     C84010   1.636   4.175  -0.142  0.9375  0.0585  0.5091
  623MOL0     C84011   1.597   4.198   0.011 -0.2397 -0.6227 -0.7766
  623MOL0     C84012   1.531   4.078   0.082  0.1431  0.2347  0.7277
  623MOL0     C84013   1.629   3.962   0.128  0.0285 -0.4138 -0.0832
  623MOL0     C84014   1.737   4.004   0.223 -0.3207  0.4038  0.2853
  623MOL0    Cl84015   1.689   4.024   0.392 -0.0529 -0.0701 -0.1880
  623MOL0     C84016   2.210   4.399  -0.181  0.9457  0.8110 -0.7316
  623MOL0     C84017   2.343   4.435  -0.149 -0.2770  0.5978 -0.3682
  623MOL0     O84018   2.614   4.570  -0.138 -0.6847 -0.4332 -0.4553
  623MOL0     C84019   2.883   4.555  -0.174  0.0198  0.5456 -0.0684
  623MOL0     C84020   3.020   4.549  -0.203 -0.1992 -0.4079 -0.9282
  623MOL0     N84021   3.658   4.370   0.086  0.2144 -0.6164  0.0867
  623MOL0     N84022   3.702   4.307   0.178 -0.4938 -0.1468 -0.3807
  623MOL0     C84023   4.774   4.281   0.283 -0.3997 -0.4393  0.6004
  623MOL0     C84024   4.846   4.326   0.168 -0.0731 -0.2721 -1.9202
  623MOL0     C84025   5.151   4.600   0.009  1.1287 -0.2013  0.3366
  623MOL0     C84026   5.179   4.535  -0.108  1.0227  0.0682  0.1318
  623MOL0     C84027   5.304   4.551  -0.169  0.3869  0.0769  0.4685
  623MOL0     C84028   5.403   4.642  -0.128 -0.0736 -0.5516  0.3190
  623MOL0     O84029   5.515   4.669  -0.195  0.4156 -0.5182  0.3653
  623MOL0     C84030   5.630   4.720  -0.123  0.5962 -0.3258 -0.4102
  623MOL0     C84031   5.750   4.722  -0.216  0.6367  0.4366 -0.5370
  623MOL0     C84032   5.790   4.587  -0.273  0.0675 -0.2414  0.0538
  623MOL0     C84033   5.944   4.573  -0.305  0.1176  0.2657  0.0614
  623MOL0     C84034   5.998   4.437  -0.271  0.3672 -0.0148 -0.0582
  623MOL0     C84035   6.036   4.324  -0.256  0.6603  0.9486  0.7133
  623MOL0     C84036   5.376   4.716  -0.014  0.6498  0.0681  0.5041
  623MOL0     C84037   5.255   4.693   0.054  0.5804 -0.4500 -0.0004
  623MOL0     H84038   4.729   4.645   0.138  0.2683  0.5716 -1.1155
  623MOL0     H84039   4.607   4.581   0.341 -1.8549 -0.1431 -1.1740
  623MOL0     H84040   4.412   4.431   0.388  0.7350  0.9709  0.5371
  623MOL0     H84041   4.434   4.277   0.311 -1.9222 -0.4984  0.7380
  623MOL0     H84042   4.419   4.164   0.536  2.9196  0.9983  1.1171
  623MOL0     H84043   4.361   4.309   0.601  1.0043  0.6350 -0.4400
  623MOL0     H84044   4.184   4.175   0.382  0.5501  1.3200 -0.8687
  623MOL0     H84045   4.178   4.141   0.558 -1.2311 -0.4999  0.4753
  623MOL0     H84046   4.159   4.409   0.574  1.2519  1.4535 -1.0277
  623MOL0     H84047   4.165   4.389   0.395  0.1361 -1.8862 -0.8623
  623MOL0     H84048   3.955   4.235   0.417  0.3080  1.2198 -0.7580
  623MOL0     H84049   3.957   4.261   0.588  1.6667 -1.6529 -0.7891
  623MOL0     H84050   3.943   4.514   0.534  2.5918 -1.9801  0.6147
  623MOL0     H84051   3.912   4.461   0.364  2.5758 -0.7211  0.2337
  623MOL0     H84052   3.748   4.377   0.623 -0.0312  1.3778 -0.9679
  623MOL0     H84053   3.706   4.501   0.526  3.1163  2.1392 -3.3828
  623MOL0     H84054   3.610   4.254   0.490  0.4269  1.3575  1.9722
  623MOL0     H84055   3.748   4.208   0.406 -1.8284 -1.8637  0.6139
  623MOL0     H84056   3.507   4.523   0.331 -0.8872  1.0101 -0.6466
  623MOL0     H84057   3.397   4.577   0.086 -1.0404 -3.8520 -1.9795
  623MOL0     H84058   3.545   4.635   0.012 -2.5027  2.1513  2.1619
  623MOL0     H84059   3.358   4.390  -0.065 -1.0487  0.7031 -1.8720
  623MOL0     H84060   3.508   4.421  -0.146  3.8321  0.3258  3.4787
  623MOL0     H84061   3.417   4.652  -0.221 -3.7876  1.5771 -4.6570
  623MOL0     H84062   3.282   4.612  -0.111  0.8462  1.8035 -1.3784
  623MOL0     H84063   3.366   4.455  -0.349  0.2253 -1.5103  2.2673
  623MOL0     H84064   3.244   4.582  -0.351 -1.6698 -1.1020  1.0116
  623MOL0     H84065   3.045   4.224  -0.271  1.6784  1.1584  0.5400
  623MOL0     H84066   2.721   4.218  -0.344 -1.1514 -0.1348  0.6410
  623MOL0     H84067   2.859   4.124  -0.292 -0.9694 -0.3727  0.9213
  623MOL0     H84068   2.731   4.159  -0.168  0.7468 -3.9567 -0.1931
  623MOL0     H84069   2.477   4.126  -0.177  0.8816  0.2286  0.8117
  623MOL0     H84070   2.232   4.063  -0.202  0.7789 -0.1625  3.2120
  623MOL0     H84071   2.029   4.174  -0.391  1.5761 -0.8411  0.3151
  623MOL0     H84072   2.040   4.059  -0.255  2.0462 -0.3236 -2.6845
  623MOL0     H84073   1.814   4.247  -0.306 -2.0512 -0.3887 -3.1690
  623MOL0     H84074   1.810   4.089  -0.375 -0.3217  2.0171 -0.9116
  623MOL0     H84075   1.812   4.094  -0.075 -2.1012  0.3750  0.9781
  623MOL0     H84076   1.729   3.984  -0.186 -1.3433  0.0557  0.3168
  623MOL0     H84077   1.640   4.266  -0.202 -0.3669 -2.1096 -3.2389
  623MOL0     H84078   1.555   4.128  -0.198  0.5302  0.0186  1.1174
  623MOL0     H84079   1.529   4.283   0.012 -3.2763 -2.8816 -1.0442
  623MOL0     H84080   1.688   4.225   0.065 -0.7003 -2.6553  1.1859
  623MOL0     H84081   1.462   4.118   0.158  0.3000 -1.1073  1.6082
  623MOL0     H84082   1.463   4.030   0.010  0.7535 -0.5968  0.6994
  623MOL0     H84083   1.682   3.923   0.040  2.4675  0.4529  0.9161
  623MOL0     H84084   1.576   3.875   0.167  2.8054 -1.6540  1.1549
  623MOL0     H84085   1.802   4.086   0.188 -1.9297  2.0253  0.9666
  623MOL0     H84086   1.802   3.916   0.226  0.4757  0.9876  0.6814
  623MOL0     H84087   2.151   4.489  -0.188  1.3013  1.2074  0.9072
  623MOL0     H84088   2.367   4.540  -0.148  3.6807 -0.1167  2.6206
  623MOL0     H84089   2.840   4.651  -0.146 -1.2244 -0.7116  2.6579
  623MOL0     H84090   3.092   4.626  -0.181 -1.0466 -0.3074  1.8840
  623MOL0     H84091   4.782   4.180   0.321 -0.7116 -0.1580  1.4329
  623MOL0     H84092   4.918   4.255   0.129 -0.0184 -2.1814  1.2679
  623MOL0     H84093   5.100   4.473  -0.149  2.6062 -0.9496 -1.5479
  623MOL0     H84094   5.321   4.472  -0.241  2.5598  1.3111 -0.4642
  623MOL0     H84095   5.606   4.820  -0.086 -1.4688 -0.8138 -0.3180
  623MOL0     H84096   5.653   4.660  -0.035 -2.1439  0.0484  0.6556
  623MOL0     H84097   5.833   4.752  -0.151 -0.5450 -0.5057  1.5385
  623MOL0     H84098   5.733   4.796  -0.295 -1.1151  0.4193 -0.2226
  623MOL0     H84099   5.727   4.586  -0.362 -3.5202  0.5420  2.3680
  623MOL0     H84100   5.753   4.505  -0.211 -2.7271  1.1397  0.3840
  623MOL0     H84101   6.009   4.642  -0.251  0.6113 -0.2782  0.1760
  623MOL0     H84102   5.969   4.585  -0.411 -0.5627 -0.6169 -0.2143
  623MOL0     H84103   6.072   4.228  -0.226 -0.6898  0.3015  0.3666
  623MOL0     H84104   5.439   4.797   0.020  0.5395  1.1871 -1.8093
  623MOL0     H84105   5.243   4.750   0.145 -0.4698 -1.4863  0.5383
  624MOL0     O84106   8.974   5.530   9.140  0.1235  0.1011 -0.5415
  624MOL0     C84107   8.952   5.489   9.029 -0.8237 -0.3425 -0.5820
  624MOL0     O84108   8.876   5.547   8.932 -0.3922  0.0206  0.1890
  624MOL0     C84109   8.847   5.679   8.951  0.2413 -0.8333  0.3008
  624MOL0     C84110   8.720   5.741   8.947  0.1576  0.2362  0.6517
  624MOL0     C84111   8.700   5.883   8.963 -0.0933  1.4878 -0.2840
  624MOL0     C84112   8.810   5.958   8.994 -0.2055 -0.2980  0.6919
  624MOL0     O84113   8.796   6.094   8.984 -0.3384  0.3063  0.4798
  624MOL0     C84114   8.880   6.167   9.073 -0.2890  0.5252  0.0147
  624MOL0     C84115   8.843   6.314   9.059  0.6736 -0.9040 -0.1141
  624MOL0     C84116   8.692   6.366   9.052  0.1224 -0.1326  0.9014
  624MOL0     C84117   8.652   6.397   8.902  0.3272 -0.7785 -0.8640
  624MOL0     C84118   8.511   6.458   8.882 -0.5905  0.5217  0.1463
  624MOL0     C84119   8.410   6.382   8.962  0.1868  0.1469 -0.0671
  624MOL0     C84120   8.259   6.416   8.926 -1.0423 -0.6251 -0.6228
  624MOL0     C84121   8.167   6.338   9.036  0.7929  0.3623  0.1576
  624MOL0     N84122   8.166   6.416   9.160  0.2639  0.3421  0.1215
  624MOL0     C84123   8.071   6.508   9.187  0.4179  0.0311 -0.0393
  624MOL0     C84124   8.063   6.514   9.324 -0.1232  0.8853  0.0556
  624MOL0     C84125   7.968   6.588   9.400 -0.3307 -0.8113 -0.3189
  624MOL0     C84126   7.854   6.491   9.449 -0.0290 -0.4028  0.6707
  624MOL0     C84127   7.760   6.563   9.546  0.5066 -0.1489  0.0385
  624MOL0     C84128   7.691   6.680   9.481  0.6368  0.0925  0.4397
  624MOL0     O84129   7.634   6.766   9.579 -0.5249 -1.0525  0.1358
  624MOL0     C84130   7.499   6.761   9.601  1.1522  0.0410  0.0908
  624MOL0     C84131   7.448   6.815   9.724  0.7906  0.3340 -0.7840
  624MOL0     C84132   7.313   6.835   9.762 -0.2809  0.1954  0.4058
  624MOL0     C84133   7.292   6.920   9.890 -0.6689  0.4542  0.5125
  624MOL0     C84134   7.215   6.781   9.672  0.0414  0.1772  0.0699
  624MOL0     C84135   7.070   6.793   9.708  0.0029  0.1182  0.1946
  624MOL0     O84136   6.989   6.755   9.602  0.0801  0.2911 -0.5346
  624MOL0     C84137   6.853   6.736   9.616  0.7483  0.0084 -0.1914
  624MOL0     C84138   6.797   6.640   9.527 -0.0625 -0.7841  0.0069
  624MOL0     C84139   6.654   6.623   9.511  0.4073 -0.2329 -0.0595
  624MOL0     C84140   6.573   6.710   9.567  0.1273 -0.6390 -0.5719
  624MOL0     O84141   6.445   6.700   9.529 -0.6255  0.1121  0.4697
  624MOL0     C84142   6.343   6.751   9.608  0.5920 -0.1661 -0.6450
  624MOL0     C84143   6.206   6.693   9.566  0.2877 -0.0086  0.1903
  624MOL0     C84144   6.186   6.562   9.633  0.2586  0.1782  0.2316
  624MOL0     C84145   6.035   6.526   9.627  0.0271  0.5337  0.3847
  624MOL0     C84146   6.013   6.414   9.732 -0.6781  0.0854  0.0346
  624MOL0     C84147   5.878   6.356   9.736  0.1913  0.4233 -0.4222
  624MOL0     C84148   5.868   6.239   9.840  0.1171 -0.6672  0.1440
  624MOL0     C84149   5.919   6.110   9.775 -0.2632  0.1576 -0.4493
  624MOL0    Cl84150   5.808   5.971   9.808 -0.0988  0.3599  0.2393
  624MOL0     C84151   6.621   6.801   9.663 -0.3748 -0.7995 -0.0438
  624MOL0     C84152   6.761   6.818   9.686  0.2460  0.2528 -1.2395
  624MOL0     O84153   7.031   6.827   9.822 -0.2745  0.6184  0.4804
  624MOL0     C84154   7.260   6.713   9.558 -0.6016  0.5153 -0.5552
  624MOL0     C84155   7.393   6.702   9.528  0.3165  0.6181  0.2129
  624MOL0     N84156   8.154   6.429   9.378 -0.3114 -0.0551  0.0651
  624MOL0     N84157   8.218   6.377   9.280  0.3372  0.0438 -0.3920
  624MOL0     C84158   8.938   5.906   9.007 -0.1201 -0.8477  0.8924
  624MOL0     C84159   8.954   5.768   8.980  0.0208  0.4317 -0.4859
  624MOL0     C84160   9.001   5.350   8.995  0.8183 -0.6892 -0.1642
  624MOL0     C84161   8.958   5.284   8.883  0.1498  0.0366  0.5789
  624MOL0     C84162   8.988   5.156   8.856  0.4134  0.4598  0.5472
  624MOL0     C84163   9.068   5.080   8.942  0.5552 -0.0724 -0.0741
  624MOL0     O84164   9.094   4.954   8.895 -1.2310 -0.5643  0.2710
  624MOL0     C84165   9.134   4.849   8.982 -0.1885 -1.4513 -0.4762
  624MOL0     C84166   9.102   4.717   8.927  1.2141  0.1859 -0.0985
  624MOL0     C84167   9.185   4.689   8.799  0.4386  0.7776  0.1552
  624MOL0     C84168   9.141   4.550   8.748  0.2504 -0.0460 -0.5545
  624MOL0     C84169   9.025   4.539   8.658 -1.1055 -0.4919  0.2655
  624MOL0     C84170   8.932   4.518   8.585  0.6745  0.3452  0.5529
  624MOL0     C84171   9.115   5.137   9.061 -0.5041  0.1649 -0.4527
  624MOL0     C84172   9.066   5.267   9.092  0.6181 -0.2352  0.2167
  624MOL0     H84173   8.637   5.679   8.917  1.1011 -0.5442 -0.4173
  624MOL0     H84174   8.605   5.934   8.947  0.5745  1.7507 -4.4173
  624MOL0     H84175   8.872   6.142   9.179  0.9228  2.5918  0.6553
  624MOL0     H84176   8.988   6.154   9.058 -0.4991 -0.4028 -0.7409
  624MOL0     H84177   8.893   6.362   9.144 -0.2355 -0.3594  0.1248
  624MOL0     H84178   8.893   6.351   8.968 -2.4868  2.0590 -0.8591
  624MOL0     H84179   8.628   6.284   9.085 -1.3043 -0.2065 -1.7769
  624MOL0     H84180   8.676   6.457   9.110 -0.5527  0.7708 -0.6493
  624MOL0     H84181   8.719   6.473   8.861  0.3805  0.0691  0.7049
  624MOL0     H84182   8.657   6.305   8.842  0.2840  0.5306 -2.9790
  624MOL0     H84183   8.498   6.564   8.905 -1.9553  0.0035  1.9864
  624MOL0     H84184   8.479   6.439   8.779  1.1357  2.5421 -0.8534
  624MOL0     H84185   8.439   6.278   8.942  3.5744  1.2199 -1.2753
  624MOL0     H84186   8.431   6.403   9.068  1.3789 -1.8142  0.1463
  624MOL0     H84187   8.238   6.523   8.937  2.6820  0.5923 -3.4303
  624MOL0     H84188   8.234   6.377   8.827 -4.4658  1.0429 -0.5545
  624MOL0     H84189   8.200   6.236   9.059 -2.0018 -1.2214 -2.2011
  624MOL0     H84190   8.066   6.324   8.998  1.2299  0.1508 -0.9704
  624MOL0     H84191   8.012   6.559   9.112 -0.2416 -1.5771 -0.6454
  624MOL0     H84192   8.018   6.630   9.488 -0.6696 -1.9368  0.4365
  624MOL0     H84193   7.933   6.672   9.339 -0.4328  1.5448  2.7102
  624MOL0     H84194   7.903   6.411   9.506 -0.4794 -0.7673  0.5535
  624MOL0     H84195   7.808   6.455   9.357  1.8287 -2.1758  0.3465
  624MOL0     H84196   7.816   6.604   9.631 -0.7427  1.7859  0.0070
  624MOL0     H84197   7.681   6.497   9.583  1.5280 -0.6225  1.4437
  624MOL0     H84198   7.619   6.632   9.414 -0.3666  0.9520  0.8635
  624MOL0     H84199   7.759   6.741   9.421 -0.7919  2.0444  0.7281
  624MOL0     H84200   7.525   6.850   9.791  0.3499  1.9538 -1.0736
  624MOL0     H84201   7.219   6.998   9.864 -0.6670  0.3841  0.2939
  624MOL0     H84202   7.263   6.858   9.976  0.0767  0.0259  0.4610
  624MOL0     H84203   7.386   6.972   9.913 -0.7258  1.6494 -1.7181
  624MOL0     H84204   6.862   6.569   9.476 -1.8597 -1.6284 -1.2169
  624MOL0     H84205   6.617   6.552   9.438  0.1756  0.4653 -0.6349
  624MOL0     H84206   6.371   6.721   9.710  2.8528  1.2492 -0.7645
  624MOL0     H84207   6.342   6.860   9.613  0.3659 -0.2210  2.1712
  624MOL0     H84208   6.127   6.765   9.590  0.7858  0.3460  0.7575
  624MOL0     H84209   6.205   6.676   9.457  0.4980 -3.4200  0.6030
  624MOL0     H84210   6.223   6.561   9.736 -0.6715  0.3601  0.5771
  624MOL0     H84211   6.230   6.482   9.573 -0.0794  1.1041 -1.3172
  624MOL0     H84212   5.963   6.607   9.643 -0.9852 -0.0474 -1.0077
  624MOL0     H84213   6.008   6.489   9.528  3.9240 -1.2864 -0.1543
  624MOL0     H84214   6.043   6.447   9.832  0.0398  1.6679 -0.6672
  624MOL0     H84215   6.081   6.333   9.707  0.3979  0.5916  1.2061
  624MOL0     H84216   5.807   6.438   9.748  0.5923  0.6921  0.1769
  624MOL0     H84217   5.862   6.320   9.634 -0.8820 -1.0271  0.2212
  624MOL0     H84218   5.763   6.228   9.865 -0.4533  1.8542 -0.8561
  624MOL0     H84219   5.923   6.276   9.927 -0.3727  0.7143 -0.1121
  624MOL0     H84220   6.009   6.086   9.832 -1.6436 -1.7766  1.0441
  624MOL0     H84221   5.955   6.125   9.672  0.1464  2.9815  0.0205
  624MOL0     H84222   6.554   6.859   9.725 -0.4347 -1.4457  0.5046
  624MOL0     H84223   6.798   6.897   9.750 -0.1471  2.3528 -3.4561
  624MOL0     H84224   7.188   6.659   9.498  1.0414 -2.5864  0.0236
  624MOL0     H84225   7.407   6.640   9.440  0.8080  1.5952 -0.4218
  624MOL0     H84226   9.030   5.963   9.015 -0.8537  0.9409 -2.0607
  624MOL0     H84227   9.054   5.727   8.992  0.0702  1.4286  5.9129
  624MOL0     H84228   8.883   5.332   8.822 -0.9874 -1.2590  0.9001
  624MOL0     H84229   8.948   5.113   8.765 -2.6680  2.5220  0.7674
  624MOL0     H84230   9.239   4.846   9.011  0.1142  1.7791 -0.8830
  624MOL0     H84231   9.066   4.858   9.068 -0.2693 -2.0198 -0.4778
  624MOL0     H84232   8.995   4.708   8.903  1.9370 -3.9978 -2.7607
  624MOL0     H84233   9.122   4.644   9.007 -0.8294 -3.7830 -2.8633
  624MOL0     H84234   9.291   4.683   8.828  0.0943 -1.0828  1.1913
  624MOL0     H84235   9.173   4.769   8.725 -2.4834 -0.4694 -0.8365
  624MOL0     H84236   9.138   4.482   8.833  1.3955  0.2132 -0.2977
  624MOL0     H84237   9.230   4.524   8.691  1.7004 -0.8844  1.9443
  624MOL0     H84238   8.855   4.499   8.513  0.5672 -2.0239  1.2074
  624MOL0     H84239   9.175   5.083   9.133  3.8402 -0.4333 -4.0914
  624MOL0     H84240   9.088   5.304   9.192 -1.7705 -2.0862  1.5408
  625MOL0     O84241   2.399  10.849   6.550 -0.0489  0.9408 -0.5249
  625MOL0     C84242   2.443  10.944   6.490 -0.6081 -0.1337 -0.1752
  625MOL0     O84243   2.416  10.997   6.370  0.8258  0.9608 -0.6631
  625MOL0     C84244   2.307  10.949   6.292  0.3641  0.5449  0.2762
  625MOL0     C84245   2.234  10.829   6.312  0.7370 -0.4614  0.5095
  625MOL0     C84246   2.121  10.795   6.230 -0.0248 -0.0098  0.5224
  625MOL0     C84247   2.099  10.867   6.117 -0.0347 -0.8782 -0.0407
  625MOL0     O84248   1.999  10.856   6.024  0.2248  0.8793  0.0437
  625MOL0     C84249   1.890  10.751   6.040  0.0042 -0.5720  0.0715
  625MOL0     C84250   1.931  10.615   5.975 -0.5132 -0.1711 -0.4300
  625MOL0     C84251   1.855  10.492   6.014  0.1169  0.2316 -0.9034
  625MOL0     C84252   1.730  10.468   5.931 -0.2264  0.3494 -0.9430
  625MOL0     C84253   1.661  10.329   5.960 -0.0930  0.3748 -0.1085
  625MOL0     C84254   1.614  10.317   6.099  0.0924  0.0938 -0.2187
  625MOL0     C84255   1.561  10.175   6.132 -0.1643  0.4189  0.8258
  625MOL0     C84256   1.547  10.138   6.277  0.8869 -0.4423 -0.7286
  625MOL0     N84257   1.469  10.017   6.293 -0.4424  0.1394 -0.6489
  625MOL0     C84258   1.337   9.994   6.335 -0.7382  0.0515 -1.3376
  625MOL0     C84259   1.326   9.860   6.328  0.2793  0.6092 -0.3250
  625MOL0     C84260   1.210   9.770   6.363  0.5583 -0.1681  0.0220
  625MOL0     C84261   1.163   9.785   6.496 -1.3886 -0.6493 -0.0592
  625MOL0     C84262   1.102   9.650   6.559 -0.9710  0.1633  0.0116
  625MOL0     C84263   1.212   9.537   6.575  0.3765  0.9864 -0.0256
  625MOL0     O84264   1.171   9.455   6.690  0.0618  0.4430 -0.3649
  625MOL0     C84265   1.263   9.355   6.692 -0.2848  0.3896  0.1001
  625MOL0     C84266   1.233   9.229   6.645 -0.0561  0.1131  1.0056
  625MOL0     C84267   1.332   9.125   6.620  0.1906 -0.1278 -1.0533
  625MOL0     C84268   1.288   8.996   6.556  0.0103  0.0062 -0.0184
  625MOL0     C84269   1.468   9.153   6.657  0.8834  0.6389 -0.0338
  625MOL0     C84270   1.583   9.064   6.634 -0.7294  0.4500 -0.2682
  625MOL0     O84271   1.702   9.100   6.687 -0.2455  0.2396  0.4036
  625MOL0     C84272   1.821   9.054   6.650 -0.6601  0.1076 -0.4364
  625MOL0     C84273   1.879   9.051   6.519  0.2629 -0.5497  0.2080
  625MOL0     C84274   2.008   9.006   6.494 -0.0861  0.2792 -0.1298
  625MOL0     C84275   2.097   8.976   6.602  0.2599 -0.5862 -0.9330
  625MOL0     O84276   2.230   8.936   6.596 -0.0500  0.1842  0.2275
  625MOL0     C84277   2.320   9.016   6.517 -0.2653  0.0298 -0.2307
  625MOL0     C84278   2.453   9.056   6.586  0.5275  0.6880  0.2968
  625MOL0     C84279   2.544   8.940   6.606 -0.2551  0.5526  0.1918
  625MOL0     C84280   2.676   8.976   6.675 -0.5879 -0.5575 -0.1533
  625MOL0     C84281   2.736   8.857   6.758  0.3513  0.1620 -0.3213
  625MOL0     C84282   2.771   8.744   6.671 -0.7122  0.5267  0.4450
  625MOL0     C84283   2.849   8.636   6.746 -0.0498  0.3978 -0.1407
  625MOL0     C84284   2.900   8.518   6.664  0.0626  0.1487 -0.4284
  625MOL0    Cl84285   2.760   8.450   6.574 -0.1688 -0.2153 -0.5340
  625MOL0     C84286   2.050   8.991   6.735  0.0996 -0.6258  0.1710
  625MOL0     C84287   1.917   9.032   6.754  0.5598  0.6000 -0.4855
  625MOL0     O84288   1.561   8.968   6.558  0.0424  0.1566  0.4937
  625MOL0     C84289   1.493   9.275   6.714  0.4548  0.1634 -1.2854
  625MOL0     C84290   1.400   9.374   6.737 -0.1882  0.2683  0.1530
  625MOL0     N84291   1.449   9.801   6.304  0.2028 -0.2321  0.1536
  625MOL0     N84292   1.533   9.894   6.291 -0.2724  0.5489  0.6014
  625MOL0     C84293   2.189  10.972   6.089 -0.5648 -0.5330 -0.6017
  625MOL0     C84294   2.285  11.014   6.177  0.2707 -0.1291 -0.0655
  625MOL0     C84295   2.553  11.016   6.570  0.2745  0.1322 -0.4197
  625MOL0     C84296   2.617  11.120   6.512 -0.6005 -0.4523  1.0650
  625MOL0     C84297   2.721  11.194   6.573  0.6429 -0.0229 -0.0018
  625MOL0     C84298   2.777  11.150   6.693  0.0651  0.1098 -0.0821
  625MOL0     O84299   2.878  11.219   6.746 -0.1652 -0.2268 -0.0937
  625MOL0     C84300   2.982  11.139   6.809  0.9327  0.0459 -0.4159
  625MOL0     C84301   3.054  11.049   6.707 -0.3497  0.0652  0.5999
  625MOL0     C84302   3.111  11.109   6.578 -1.1974  0.4195  0.1374
  625MOL0     C84303   3.181  11.246   6.604 -0.1151  0.6316 -0.1390
  625MOL0     C84304   3.253  11.296   6.487  0.7086 -0.0480 -0.5165
  625MOL0     C84305   3.302  11.334   6.387 -0.1555  0.6146  1.1427
  625MOL0     C84306   2.717  11.036   6.748  0.1785 -0.4076 -0.5368
  625MOL0     C84307   2.606  10.976   6.696 -0.1437  0.3482  1.1670
  625MOL0     H84308   2.251  10.764   6.398 -0.3348  0.2337  1.2797
  625MOL0     H84309   2.068  10.704   6.254 -1.1084 -0.0959 -1.8755
  625MOL0     H84310   1.869  10.736   6.146  0.2008  2.1417  0.5650
  625MOL0     H84311   1.800  10.787   5.989 -1.0724 -2.4921  0.4991
  625MOL0     H84312   1.933  10.623   5.866  0.6763 -1.6289 -0.5529
  625MOL0     H84313   2.036  10.599   6.003 -0.0536 -1.2158 -2.5572
  625MOL0     H84314   1.918  10.404   5.999 -3.6296 -3.0127  0.5944
  625MOL0     H84315   1.839  10.478   6.121  0.8960 -2.5263 -1.0866
  625MOL0     H84316   1.659  10.540   5.970  0.1564 -0.0581  0.5905
  625MOL0     H84317   1.747  10.484   5.824 -1.4018 -1.9212 -1.5254
  625MOL0     H84318   1.578  10.304   5.893 -1.1589 -2.5444  2.1005
  625MOL0     H84319   1.718  10.238   5.936 -3.0173 -1.8151  0.6790
  625MOL0     H84320   1.693  10.336   6.173 -1.0377  1.6499  0.6566
  625MOL0     H84321   1.536  10.391   6.117  0.5394  0.2795  1.0813
  625MOL0     H84322   1.465  10.176   6.079  1.0095 -1.0810 -1.4868
  625MOL0     H84323   1.627  10.098   6.090 -1.1217  0.0649 -0.0660
  625MOL0     H84324   1.499  10.219   6.334  0.3681 -0.9167 -0.4808
  625MOL0     H84325   1.647  10.125   6.319 -0.1852 -0.3270  2.0907
  625MOL0     H84326   1.266  10.066   6.376 -0.2213 -0.5979  0.8561
  625MOL0     H84327   1.132   9.794   6.291 -0.2705  0.1188  1.0018
  625MOL0     H84328   1.240   9.666   6.350  2.3194  0.4477 -1.3386
  625MOL0     H84329   1.095   9.871   6.496 -0.0275  0.4812  0.6064
  625MOL0     H84330   1.247   9.806   6.564  0.8572 -2.2289 -2.1593
  625MOL0     H84331   1.011   9.606   6.516  0.4769 -0.9635 -2.0921
  625MOL0     H84332   1.080   9.689   6.659  1.4006 -1.3252  1.2070
  625MOL0     H84333   1.304   9.591   6.597 -0.1693  1.5044  1.1058
  625MOL0     H84334   1.208   9.483   6.480 -3.8715  1.9690 -0.6322
  625MOL0     H84335   1.134   9.224   6.601 -0.0475  2.4022  0.5891
  625MOL0     H84336   1.181   8.974   6.567 -0.0304 -0.1042 -0.6085
  625MOL0     H84337   1.315   8.994   6.450 -0.9096  0.3462 -0.2666
  625MOL0     H84338   1.341   8.913   6.605  1.8976  1.1205 -0.1009
  625MOL0     H84339   1.819   9.091   6.438  0.2231 -0.5327  0.2461
  625MOL0     H84340   2.037   9.003   6.390  1.8958 -0.1366  0.3982
  625MOL0     H84341   2.354   8.971   6.424 -0.3892  1.3387 -0.9294
  625MOL0     H84342   2.264   9.099   6.473 -1.1425  0.2882  1.3008
  625MOL0     H84343   2.507   9.120   6.516  1.0252  0.5989  0.5925
  625MOL0     H84344   2.429   9.116   6.675 -1.4602  0.0208  0.2519
  625MOL0     H84345   2.577   8.903   6.509  1.6077 -0.2261  1.0645
  625MOL0     H84346   2.500   8.862   6.669  0.9332 -0.7267 -0.4922
  625MOL0     H84347   2.746   9.006   6.596 -2.1750 -4.5928 -3.5075
  625MOL0     H84348   2.654   9.059   6.742 -0.2734  1.2382 -2.1706
  625MOL0     H84349   2.663   8.829   6.834  4.0020 -0.7686  3.1934
  625MOL0     H84350   2.832   8.889   6.801  1.4227 -0.3990 -2.1744
  625MOL0     H84351   2.686   8.690   6.629  1.3913 -3.1757  0.4816
  625MOL0     H84352   2.847   8.779   6.600 -0.0936 -1.0076  0.3074
  625MOL0     H84353   2.773   8.586   6.807 -1.5109 -1.4817 -3.2262
  625MOL0     H84354   2.917   8.683   6.818  0.6934  0.1030 -0.6398
  625MOL0     H84355   2.944   8.456   6.742  1.6019  2.5436  0.7325
  625MOL0     H84356   2.986   8.547   6.603  0.8374  0.8077  0.9394
  625MOL0     H84357   2.115   8.980   6.821  2.1338  2.2506 -0.8247
  625MOL0     H84358   1.886   9.049   6.857 -1.6461 -0.8436 -0.8692
  625MOL0     H84359   1.592   9.299   6.751  0.3458 -1.9514  0.5771
  625MOL0     H84360   1.430   9.463   6.791 -0.8215 -0.5189  1.8709
  625MOL0     H84361   2.179  11.016   5.991  1.6559 -2.4549 -1.7870
  625MOL0     H84362   2.329  11.111   6.156 -3.2869  1.3400 -1.5183
  625MOL0     H84363   2.585  11.149   6.412  1.0276 -0.4897  0.5006
  625MOL0     H84364   2.762  11.281   6.522 -1.6593  0.8270 -0.5184
  625MOL0     H84365   3.056  11.198   6.864  1.1642  0.8281 -1.5243
  625MOL0     H84366   2.937  11.078   6.887 -0.1530  0.5336 -0.6473
  625MOL0     H84367   2.988  10.966   6.676  2.4160 -1.9908 -0.2202
  625MOL0     H84368   3.123  10.993   6.770 -4.0724 -0.4794  4.6823
  625MOL0     H84369   3.040  11.117   6.494 -0.4526 -1.0364 -0.6621
  625MOL0     H84370   3.183  11.035   6.542 -2.0727 -0.9604  1.1564
  625MOL0     H84371   3.264  11.227   6.674  0.7830 -2.5710 -1.8577
  625MOL0     H84372   3.108  11.315   6.647 -1.2236 -1.4255  1.4895
  625MOL0     H84373   3.359  11.353   6.298  3.0588  2.2338  3.3626
  625MOL0     H84374   2.754  11.005   6.845  0.8799  0.0443 -0.6506
  625MOL0     H84375   2.557  10.892   6.744 -1.3624 -0.0936 -0.7271
  626MOL0     O84376   5.554   8.546   5.050  0.7984 -0.3254  0.3434
  626MOL0     C84377   5.512   8.565   5.165  0.5727  0.7587 -0.7516
  626MOL0     O84378   5.589   8.569   5.281 -0.4194 -0.7039  0.1581
  626MOL0     C84379   5.726   8.576   5.263 -0.2321 -0.2033  0.8624
  626MOL0     C84380   5.793   8.680   5.182 -0.2588 -0.3845 -0.8729
  626MOL0     C84381   5.936   8.676   5.165  0.2042  0.1868  0.5991
  626MOL0     C84382   6.013   8.567   5.224 -0.4348 -0.0523  0.8844
  626MOL0     O84383   6.152   8.560   5.214 -0.3714 -0.0459  0.6483
  626MOL0     C84384   6.238   8.665   5.172 -0.1937 -0.1713  0.2297
  626MOL0     C84385   6.244   8.680   5.019 -0.9246  0.5728  0.8689
  626MOL0     C84386   6.318   8.557   4.951  0.0035  0.5620  0.9485
  626MOL0     C84387   6.297   8.554   4.801  0.3454  0.2917  0.3873
  626MOL0     C84388   6.387   8.468   4.720 -0.9808  1.4085  0.0084
  626MOL0     C84389   6.360   8.483   4.572  0.3562  1.0634  0.3621
  626MOL0     C84390   6.450   8.390   4.484  1.0849 -0.0456 -0.6729
  626MOL0     C84391   6.405   8.240   4.493 -0.4075 -0.6632 -0.0446
  626MOL0     N84392   6.258   8.220   4.487  0.7903 -0.7594 -1.0512
  626MOL0     C84393   6.170   8.256   4.388 -0.4219 -0.4366 -0.6335
  626MOL0     C84394   6.055   8.216   4.445 -0.5579  0.2312  0.0197
  626MOL0     C84395   5.927   8.239   4.369 -0.7898 -0.2422  1.1666
  626MOL0     C84396   5.824   8.146   4.425  0.4959 -0.1865 -0.3074
  626MOL0     C84397   5.690   8.144   4.355 -0.0839  0.5144  0.6554
  626MOL0     C84398   5.634   8.283   4.320 -0.0802 -0.2371 -0.1723
  626MOL0     O84399   5.692   8.346   4.206 -0.0024 -0.1777 -0.5795
  626MOL0     C84400   5.610   8.434   4.146 -0.0702  0.0805 -0.2440
  626MOL0     C84401   5.645   8.475   4.012  0.0643  0.2122  0.0860
  626MOL0     C84402   5.576   8.576   3.942  0.5340 -0.4230  0.1907
  626MOL0     C84403   5.609   8.618   3.809 -0.4489  0.3741 -0.2447
  626MOL0     C84404   5.463   8.633   4.010  0.0582  0.7502 -0.5219
  626MOL0     C84405   5.368   8.734   3.948 -0.2198 -0.3966  0.8293
  626MOL0     O84406   5.314   8.815   4.049 -0.2334 -0.3646  0.9594
  626MOL0     C84407   5.182   8.855   4.049  0.3586  0.1478 -1.0805
  626MOL0     C84408   5.075   8.777   4.015  0.0665 -0.3343 -0.8768
  626MOL0     C84409   4.947   8.833   4.021  0.8438  0.2853 -0.2803
  626MOL0     C84410   4.922   8.973   4.048  0.3645  1.1152  0.2184
  626MOL0     O84411   4.795   9.020   4.058 -0.4377  1.0398  0.6515
  626MOL0     C84412   4.777   9.159   4.090 -0.8563  0.3149  0.0305
  626MOL0     C84413   4.620   9.184   4.059  0.2039  0.7478 -0.4250
  626MOL0     C84414   4.577   9.329   4.069  1.4788  0.1365 -0.5017
  626MOL0     C84415   4.556   9.372   4.211  0.1325  0.1006  0.9329
  626MOL0     C84416   4.536   9.521   4.200  0.4224  1.2715 -0.0353
  626MOL0     C84417   4.546   9.579   4.340  0.3118 -0.3845 -0.5181
  626MOL0     C84418   4.524   9.724   4.332  1.1224  0.1363 -0.1405
  626MOL0     C84419   4.465   9.783   4.462  0.0228 -0.4696  0.2178
  626MOL0    Cl84420   4.577   9.756   4.598  0.2969 -0.1120 -0.4286
  626MOL0     C84421   5.036   9.050   4.078  0.2007 -0.5930 -0.0906
  626MOL0     C84422   5.161   8.991   4.079  0.6484  0.4830 -0.1914
  626MOL0     O84423   5.340   8.738   3.829  0.8955 -0.6812  0.1170
  626MOL0     C84424   5.432   8.587   4.137 -0.3826 -0.3943  0.8233
  626MOL0     C84425   5.502   8.491   4.208  0.3358  1.2091  0.3059
  626MOL0     N84426   6.077   8.134   4.561  0.0907  0.1588  0.3113
  626MOL0     N84427   6.202   8.141   4.583 -0.2344  0.5657  0.0435
  626MOL0     C84428   5.942   8.473   5.294 -0.5948  0.2557 -0.4019
  626MOL0     C84429   5.807   8.483   5.322 -0.3132 -0.7020 -1.2693
  626MOL0     C84430   5.370   8.588   5.192  0.2555 -0.9965 -0.9170
  626MOL0     C84431   5.337   8.674   5.298  0.5804  0.2477 -0.2268
  626MOL0     C84432   5.202   8.693   5.337 -0.1283  0.0442 -0.2830
  626MOL0     C84433   5.106   8.633   5.259 -0.1225  1.0132 -1.0529
  626MOL0     O84434   4.975   8.649   5.293  0.4110 -0.0722 -0.4281
  626MOL0     C84435   4.939   8.561   5.397 -0.7778 -0.4473 -0.9100
  626MOL0     C84436   4.794   8.527   5.372  0.9284  0.1579  0.3187
  626MOL0     C84437   4.726   8.463   5.499 -0.3957 -0.0384  0.3631
  626MOL0     C84438   4.587   8.391   5.470 -0.3364 -0.3767  0.7190
  626MOL0     C84439   4.473   8.475   5.445  0.0227 -0.4173 -0.4770
  626MOL0     C84440   4.377   8.544   5.416  0.1080 -0.6228  0.1786
  626MOL0     C84441   5.139   8.549   5.154 -0.0205  0.2401 -0.6354
  626MOL0     C84442   5.274   8.523   5.116  0.3837  0.2394 -0.0687
  626MOL0     H84443   5.728   8.756   5.140 -0.9489 -0.2229  0.4388
  626MOL0     H84444   5.984   8.754   5.108 -0.4790  0.1955  0.0213
  626MOL0     H84445   6.201   8.756   5.220  0.1271  1.1935 -1.9921
  626MOL0     H84446   6.338   8.643   5.210  0.6769 -1.0681 -2.3934
  626MOL0     H84447   6.143   8.681   4.977  0.2721 -1.1682 -2.4375
  626MOL0     H84448   6.307   8.767   4.997  1.1974 -0.4047  2.5992
  626MOL0     H84449   6.425   8.563   4.976 -0.5716  0.3892  3.7208
  626MOL0     H84450   6.271   8.463   4.980  0.6392 -0.5131 -1.2344
  626MOL0     H84451   6.192   8.540   4.773  0.7920 -3.1215 -0.0038
  626MOL0     H84452   6.322   8.651   4.757 -0.0400  0.4466  0.4993
  626MOL0     H84453   6.491   8.497   4.741 -0.8260  0.1728  1.0242
  626MOL0     H84454   6.373   8.365   4.752 -0.1942  0.4022 -2.5773
  626MOL0     H84455   6.255   8.456   4.557  1.2129 -2.3446 -0.5048
  626MOL0     H84456   6.368   8.587   4.541 -1.5296  1.8257  2.1446
  626MOL0     H84457   6.444   8.428   4.381  0.6957  1.8234 -0.0108
  626MOL0     H84458   6.556   8.405   4.505  0.6077  1.4625  0.8435
  626MOL0     H84459   6.457   8.185   4.572 -1.2594 -1.5552 -0.0935
  626MOL0     H84460   6.443   8.177   4.412  0.1533 -1.2170  0.6391
  626MOL0     H84461   6.186   8.326   4.306  0.8237  0.6606  0.5050
  626MOL0     H84462   5.906   8.346   4.366  0.4622  0.0212  1.1699
  626MOL0     H84463   5.957   8.226   4.264 -2.1968  1.7847  0.4461
  626MOL0     H84464   5.807   8.190   4.523  3.1271 -2.7550  1.4552
  626MOL0     H84465   5.859   8.044   4.437 -1.7580 -0.7905  1.7655
  626MOL0     H84466   5.611   8.091   4.409  0.6441  1.5143  2.8239
  626MOL0     H84467   5.695   8.100   4.255  0.5732  3.9714 -0.9845
  626MOL0     H84468   5.639   8.351   4.406 -2.2551  0.0418 -0.2101
  626MOL0     H84469   5.527   8.272   4.301 -0.3433 -1.1372  1.5971
  626MOL0     H84470   5.715   8.415   3.955 -1.5566 -0.1342 -1.6181
  626MOL0     H84471   5.714   8.600   3.784 -0.0372  3.2386 -0.9697
  626MOL0     H84472   5.540   8.573   3.737 -0.5662 -3.8396  2.1808
  626MOL0     H84473   5.598   8.727   3.797 -4.4379  0.2880  1.2045
  626MOL0     H84474   5.080   8.671   3.993 -0.1861 -0.2501 -1.3573
  626MOL0     H84475   4.863   8.764   4.020  1.9623 -1.1304  0.3166
  626MOL0     H84476   4.803   9.194   4.190 -3.4642  2.0467  0.1835
  626MOL0     H84477   4.834   9.217   4.017  2.3101 -2.5526 -0.0439
  626MOL0     H84478   4.595   9.153   3.957  1.8658  1.6880 -1.1528
  626MOL0     H84479   4.578   9.109   4.126  0.5607  0.7288 -0.2208
  626MOL0     H84480   4.480   9.333   4.019  0.8052 -0.9455  0.6658
  626MOL0     H84481   4.654   9.381   4.011  0.9914  2.0385  0.4710
  626MOL0     H84482   4.473   9.324   4.263  0.6848  2.0727  3.8682
  626MOL0     H84483   4.642   9.347   4.273 -0.5802 -1.4151  1.3629
  626MOL0     H84484   4.439   9.551   4.159  0.0106  2.4031  1.6515
  626MOL0     H84485   4.616   9.557   4.134  0.5814  2.5202  0.8084
  626MOL0     H84486   4.463   9.537   4.398 -2.2115  1.9105 -2.1883
  626MOL0     H84487   4.640   9.554   4.390  0.0251  2.2932  1.6797
  626MOL0     H84488   4.451   9.747   4.254  2.7495  0.7126 -1.5445
  626MOL0     H84489   4.619   9.776   4.319 -0.9944  3.8495 -2.7390
  626MOL0     H84490   4.366   9.738   4.476 -0.4826  0.6289  0.2732
  626MOL0     H84491   4.443   9.889   4.448 -1.4212 -0.6295  1.0433
  626MOL0     H84492   5.029   9.156   4.104  0.2448 -0.3980 -0.8506
  626MOL0     H84493   5.249   9.047   4.111  0.7730  2.2410 -3.2839
  626MOL0     H84494   5.349   8.626   4.196  0.1561  0.1148  1.2667
  626MOL0     H84495   5.468   8.473   4.309 -0.3102  2.0458  0.2474
  626MOL0     H84496   5.994   8.381   5.319 -0.1256 -0.2587 -2.9412
  626MOL0     H84497   5.758   8.404   5.379  0.6045 -0.3652  0.0396
  626MOL0     H84498   5.416   8.718   5.357 -0.8795 -0.7035  2.6032
  626MOL0     H84499   5.163   8.755   5.417  3.5518  0.3460  1.5103
  626MOL0     H84500   5.000   8.471   5.385 -0.7686 -0.6411  0.3778
  626MOL0     H84501   4.954   8.594   5.501  2.2398  0.0878 -1.4061
  626MOL0     H84502   4.789   8.455   5.290 -0.9150  1.4858 -0.8075
  626MOL0     H84503   4.733   8.611   5.337  1.2903 -0.4460 -1.8929
  626MOL0     H84504   4.713   8.546   5.569 -0.0268  0.1139  0.2531
  626MOL0     H84505   4.787   8.383   5.543  0.6363  0.7998  0.5129
  626MOL0     H84506   4.551   8.328   5.552 -2.5843 -0.0912  0.0286
  626MOL0     H84507   4.599   8.322   5.386 -3.2387 -1.2464  0.8972
  626MOL0     H84508   4.302   8.618   5.395 -1.3536 -1.4199  2.1929
  626MOL0     H84509   5.059   8.512   5.091 -1.1470 -0.2230  1.0389
  626MOL0     H84510   5.302   8.456   5.035 -1.1224  0.1609 -0.5712
  627MOL0     O84511   9.840  10.458   1.591 -0.0254 -0.3907 -0.0274
  627MOL0     C84512   9.887  10.364   1.522  0.8738  0.6136 -0.5647
  627MOL0     O84513   9.819  10.249   1.489  0.1120 -0.0387  0.2396
  627MOL0     C84514   9.686  10.233   1.524 -1.0351  0.1607  0.4511
  627MOL0     C84515   9.581  10.244   1.432  0.5289 -0.3200 -0.2520
  627MOL0     C84516   9.447  10.220   1.476  0.3009 -0.1854  0.4598
  627MOL0     C84517   9.423  10.175   1.602  0.5191 -0.2438  0.7361
  627MOL0     O84518   9.292  10.149   1.654 -0.1044  0.6705 -0.0798
  627MOL0     C84519   9.193  10.085   1.569 -1.1838  0.5578  0.6607
  627MOL0     C84520   9.058  10.065   1.638  0.0929 -0.2119  0.1102
  627MOL0     C84521   8.951  10.017   1.540 -0.4051  0.3281  0.1703
  627MOL0     C84522   8.820   9.990   1.607 -0.4093  0.2889 -0.6687
  627MOL0     C84523   8.720   9.942   1.505 -0.5748 -0.4557  0.9528
  627MOL0     C84524   8.601   9.888   1.584  0.5193 -0.6638  0.3642
  627MOL0     C84525   8.479   9.859   1.496  1.1690 -0.5188  0.1917
  627MOL0     C84526   8.368   9.767   1.559 -0.6797  0.0471 -0.4750
  627MOL0     N84527   8.319   9.803   1.692  0.7132 -0.6191 -0.0463
  627MOL0     C84528   8.225   9.901   1.705 -0.1379 -0.8848 -0.5228
  627MOL0     C84529   8.211   9.909   1.839  0.0795 -0.0170 -0.8712
  627MOL0     C84530   8.136  10.012   1.911 -0.1308  0.4029 -0.0701
  627MOL0     C84531   7.989   9.969   1.943  0.6043 -0.0658  0.5952
  627MOL0     C84532   7.906  10.090   1.978 -0.6380 -0.8902 -0.5864
  627MOL0     C84533   7.764  10.047   2.023  0.0359  0.5414 -0.3146
  627MOL0     O84534   7.685   9.955   1.941  0.1307 -0.0128  0.2724
  627MOL0     C84535   7.565   9.922   1.989 -0.6491  0.1928 -0.2461
  627MOL0     C84536   7.482   9.880   1.890  0.9733  0.0373  1.0539
  627MOL0     C84537   7.347   9.832   1.906 -0.3160  0.2303 -0.2525
  627MOL0     C84538   7.265   9.799   1.775 -0.2360  0.3378  0.6500
  627MOL0     C84539   7.304   9.814   2.041  0.4913 -0.5281  0.2331
  627MOL0     C84540   7.166   9.773   2.078  0.1353 -0.2817  0.0076
  627MOL0     O84541   7.099   9.688   1.995 -0.3398  0.3349  0.1900
  627MOL0     C84542   6.970   9.649   2.024  0.3388  1.0923  1.2506
  627MOL0     C84543   6.873   9.653   1.922  0.5814 -0.8500  0.4153
  627MOL0     C84544   6.738   9.622   1.943 -0.7843 -0.2210  0.2695
  627MOL0     C84545   6.699   9.573   2.073 -0.1221 -0.0253 -0.1628
  627MOL0     O84546   6.573   9.530   2.112  0.7043 -0.3024 -0.5953
  627MOL0     C84547   6.479   9.526   2.002  0.0885  0.3660 -0.0460
  627MOL0     C84548   6.342   9.471   2.054 -0.9853  0.3474  0.1835
  627MOL0     C84549   6.290   9.569   2.161 -0.0864  0.1121  0.1074
  627MOL0     C84550   6.172   9.498   2.240  0.5969 -0.3071  1.0042
  627MOL0     C84551   6.158   9.540   2.385  0.6085  0.7158 -0.3065
  627MOL0     C84552   6.147   9.696   2.398  1.4331  0.9026 -0.9103
  627MOL0     C84553   6.172   9.749   2.537 -0.7373 -0.4105 -0.0001
  627MOL0     C84554   6.068   9.691   2.635  0.7320 -0.5618 -0.0944
  627MOL0    Cl84555   5.897   9.715   2.594  0.0195 -0.3869 -0.8418
  627MOL0     C84556   6.796   9.544   2.165  0.5239  0.5550 -0.3060
  627MOL0     C84557   6.930   9.587   2.145  0.2695 -0.8864  0.9008
  627MOL0     O84558   7.127   9.818   2.183 -0.4984 -0.1676 -0.2671
  627MOL0     C84559   7.393   9.844   2.150 -0.2005  0.2557  0.0791
  627MOL0     C84560   7.523   9.897   2.121  0.2117 -0.6727  0.3772
  627MOL0     N84561   8.299   9.816   1.900 -0.1206 -0.5465  1.1202
  627MOL0     N84562   8.359   9.747   1.812 -0.4648 -0.1308 -0.1557
  627MOL0     C84563   9.530  10.165   1.695 -0.1155 -0.0954 -0.6508
  627MOL0     C84564   9.661  10.198   1.650 -0.0830 -0.1727  0.2674
  627MOL0     C84565  10.029  10.363   1.486  0.4733 -0.8059 -0.0741
  627MOL0     C84566  10.089  10.258   1.403  0.6653  0.3431 -0.1329
  627MOL0     C84567  10.223  10.257   1.365 -0.5326  0.2053 -0.2669
  627MOL0     C84568  10.315  10.353   1.418  0.0718  0.2947  0.6841
  627MOL0     O84569  10.446  10.352   1.367 -0.0951  0.2337  0.0301
  627MOL0     C84570  10.534  10.455   1.398 -0.3643 -0.0123  0.2550
  627MOL0     C84571  10.659  10.438   1.320 -0.4783  0.4788 -0.5289
  627MOL0     C84572  10.784  10.519   1.357 -0.2214 -0.5418 -0.1008
  627MOL0     C84573  10.761  10.671   1.404 -1.0030  0.6799  0.6371
  627MOL0     C84574  10.895  10.732   1.412 -0.7369 -0.3073 -0.4408
  627MOL0     C84575  11.008  10.786   1.433  0.8994 -0.6967 -0.0413
  627MOL0     C84576  10.263  10.456   1.509 -0.4690 -0.1205 -0.1536
  627MOL0     C84577  10.121  10.458   1.534  1.1013  0.7323 -0.8245
  627MOL0     H84578   9.603  10.268   1.328  2.8235  0.4301  0.3443
  627MOL0     H84579   9.371  10.231   1.399 -0.7206 -1.6121  1.2216
  627MOL0     H84580   9.178  10.157   1.488  1.1482  0.2372 -0.1462
  627MOL0     H84581   9.236   9.997   1.520  1.4316  1.7922  0.5701
  627MOL0     H84582   9.066   9.983   1.711  2.2843 -0.9022 -0.8305
  627MOL0     H84583   9.043  10.164   1.680  2.6307  0.9616 -1.5247
  627MOL0     H84584   8.942  10.082   1.451 -2.0452  0.8330  0.6771
  627MOL0     H84585   8.996   9.925   1.500 -0.1990  1.1191 -1.5446
  627MOL0     H84586   8.842   9.908   1.676 -0.0620 -0.5615 -1.7571
  627MOL0     H84587   8.782  10.071   1.669  0.6875 -1.2514  2.1915
  627MOL0     H84588   8.694  10.025   1.439  1.0219 -0.4897  0.2230
  627MOL0     H84589   8.761   9.866   1.438 -0.5652  1.2837 -1.0953
  627MOL0     H84590   8.617   9.795   1.639  0.2457 -1.5661 -1.0295
  627MOL0     H84591   8.569   9.962   1.658 -0.4338  0.1099 -0.7826
  627MOL0     H84592   8.431   9.956   1.479  0.1507 -0.5301  2.6747
  627MOL0     H84593   8.504   9.820   1.397 -0.2773 -1.0658  0.0118
  627MOL0     H84594   8.408   9.666   1.570 -1.8528 -0.2923  0.9456
  627MOL0     H84595   8.287   9.764   1.486  0.4473  1.0994 -1.8219
  627MOL0     H84596   8.171   9.964   1.635  3.0143  0.6860 -1.7545
  627MOL0     H84597   8.185  10.038   2.005 -0.4893  0.6562  0.0505
  627MOL0     H84598   8.141  10.101   1.848  0.4619  0.1511 -0.3827
  627MOL0     H84599   8.003   9.913   2.037  1.9932  1.2730  1.2262
  627MOL0     H84600   7.953   9.913   1.856  4.0454  0.3648 -1.3086
  627MOL0     H84601   7.903  10.167   1.900 -0.1587  3.1472  2.9759
  627MOL0     H84602   7.952  10.141   2.064 -2.0074  1.7847 -1.3464
  627MOL0     H84603   7.700  10.136   2.029 -1.6549 -0.5056 -1.8976
  627MOL0     H84604   7.777   9.981   2.109  0.0701 -0.5993 -1.1812
  627MOL0     H84605   7.527   9.885   1.791  3.2956  1.6859  2.0905
  627MOL0     H84606   7.174   9.858   1.764  0.3956  1.7517  2.4784
  627MOL0     H84607   7.335   9.814   1.692 -2.5624 -1.3867 -1.7644
  627MOL0     H84608   7.247   9.691   1.773 -2.8031  0.7173  0.4428
  627MOL0     H84609   6.896   9.695   1.824 -1.8983  1.0395  0.5603
  627MOL0     H84610   6.666   9.650   1.867  0.5850  1.6620 -0.4219
  627MOL0     H84611   6.454   9.625   1.961  1.2004 -0.1906 -2.2070
  627MOL0     H84612   6.518   9.458   1.926 -0.1512  3.0395 -2.7825
  627MOL0     H84613   6.271   9.457   1.972 -0.4881 -1.8038  0.0586
  627MOL0     H84614   6.363   9.372   2.097 -0.7976  0.7971  1.1512
  627MOL0     H84615   6.254   9.654   2.102 -1.6862 -1.4152 -1.2303
  627MOL0     H84616   6.373   9.599   2.226 -0.3713  1.6872 -0.1973
  627MOL0     H84617   6.087   9.533   2.181  2.0597 -0.8970 -1.6190
  627MOL0     H84618   6.185   9.389   2.235  1.7401 -0.1338 -1.0163
  627MOL0     H84619   6.253   9.497   2.417  0.6619  1.3417  0.3958
  627MOL0     H84620   6.075   9.493   2.439  0.2654  2.5883  0.8927
  627MOL0     H84621   6.227   9.750   2.347  0.1504  2.6929 -1.0851
  627MOL0     H84622   6.059   9.736   2.347 -0.5670 -0.2506  1.3954
  627MOL0     H84623   6.178   9.858   2.535  0.6312 -0.3254 -4.9642
  627MOL0     H84624   6.260   9.700   2.579 -1.7587 -2.4690 -0.1182
  627MOL0     H84625   6.084   9.734   2.734 -1.6446  1.7355 -0.5952
  627MOL0     H84626   6.075   9.582   2.635 -0.8177 -0.6931 -0.7054
  627MOL0     H84627   6.784   9.485   2.255 -1.3173 -3.7184 -3.0047
  627MOL0     H84628   7.013   9.575   2.214  1.6479  0.7500 -0.3974
  627MOL0     H84629   7.356   9.836   2.251 -2.1544 -0.2951 -0.6385
  627MOL0     H84630   7.598   9.915   2.197  1.0869  0.2952 -0.6711
  627MOL0     H84631   9.515  10.130   1.797 -2.0618 -1.1485 -1.2430
  627MOL0     H84632   9.743  10.181   1.720 -1.5798  1.9227  2.7313
  627MOL0     H84633  10.018  10.182   1.373 -1.1385  1.5226  0.9253
  627MOL0     H84634  10.255  10.174   1.302  0.5705  1.4646 -1.4386
  627MOL0     H84635  10.504  10.557   1.374  0.2136  0.2289  0.5269
  627MOL0     H84636  10.563  10.455   1.504 -0.8021 -0.3170  0.3800
  627MOL0     H84637  10.630  10.461   1.217  0.6416 -5.7767 -2.6669
  627MOL0     H84638  10.686  10.332   1.315  1.6275  0.9725 -0.4584
  627MOL0     H84639  10.837  10.521   1.262 -0.8776 -2.8674 -0.5689
  627MOL0     H84640  10.847  10.465   1.429  1.0212  1.2628  0.2382
  627MOL0     H84641  10.715  10.675   1.503 -1.5373 -1.4336  0.5142
  627MOL0     H84642  10.708  10.722   1.323 -0.0277 -1.8309 -1.7267
  627MOL0     H84643  11.107  10.823   1.450  0.7671  0.0492 -0.7811
  627MOL0     H84644  10.333  10.529   1.549  0.3808 -1.1231  0.2285
  627MOL0     H84645  10.081  10.536   1.598 -1.4260 -0.2392 -1.0785
  628MOL0     O84646   5.859   1.032   9.818 -0.6207 -0.5750  1.1249
  628MOL0     C84647   5.787   0.956   9.889  1.1953 -0.1452  0.3220
  628MOL0     O84648   5.713   1.000   9.996  0.5862  0.1361  0.7536
  628MOL0     C84649   5.721   1.131  10.018 -0.4618 -0.6634 -0.4268
  628MOL0     C84650   5.686   1.237   9.926 -0.0779  0.8853  0.0542
  628MOL0     C84651   5.718   1.366   9.953 -0.6834  1.0750  0.3875
  628MOL0     C84652   5.766   1.408  10.082 -0.5877  1.0638 -0.3870
  628MOL0     O84653   5.799   1.538  10.095  0.3048 -0.1347  0.3756
  628MOL0     C84654   5.880   1.574  10.209 -0.0832 -1.0080  0.2687
  628MOL0     C84655   5.911   1.733  10.192 -0.3029  1.5767 -0.2328
  628MOL0     C84656   5.792   1.819  10.190  0.0226 -1.1730 -0.9876
  628MOL0     C84657   5.724   1.820  10.334 -0.4675 -0.4786  0.4111
  628MOL0     C84658   5.631   1.934  10.378 -0.6871  0.4725  0.8128
  628MOL0     C84659   5.513   1.948  10.281 -1.0724 -0.5115  0.8415
  628MOL0     C84660   5.403   2.019  10.346  0.0877 -0.5064 -0.6253
  628MOL0     C84661   5.303   2.070  10.243  0.3224 -0.4794 -0.3503
  628MOL0     N84662   5.163   2.114  10.297 -1.7443  0.1039  0.3053
  628MOL0     C84663   5.072   2.024  10.339 -0.2552 -0.3503 -0.0833
  628MOL0     C84664   4.957   2.101  10.357 -0.4270 -0.6677 -0.0236
  628MOL0     C84665   4.825   2.058  10.399 -0.0123  0.2840 -0.3355
  628MOL0     C84666   4.700   2.103  10.325 -0.7185 -0.6120  0.2600
  628MOL0     C84667   4.700   2.050  10.179 -0.2065 -0.2217 -0.2296
  628MOL0     C84668   4.570   1.998  10.129 -0.4724  0.5021  0.3438
  628MOL0     O84669   4.458   2.070  10.182  0.3822 -0.7099 -0.8278
  628MOL0     C84670   4.335   2.016  10.203  0.7700 -0.1994 -0.0878
  628MOL0     C84671   4.260   2.045  10.318 -0.6165 -0.3468 -1.0929
  628MOL0     C84672   4.137   1.984  10.350  0.0207  0.2689  0.1823
  628MOL0     C84673   4.073   2.036  10.478 -0.0351 -0.0848  0.6641
  628MOL0     C84674   4.081   1.897  10.254  0.9385  0.0992 -0.6691
  628MOL0     C84675   3.937   1.839  10.253  0.1635 -0.4349  0.2546
  628MOL0     O84676   3.897   1.802  10.130  0.1031  0.1802  0.2127
  628MOL0     C84677   3.769   1.767  10.088 -0.5591  0.4009  0.3263
  628MOL0     C84678   3.753   1.751   9.947 -0.1494  0.1848  0.5582
  628MOL0     C84679   3.626   1.728   9.889 -0.2757 -0.7798 -0.3924
  628MOL0     C84680   3.514   1.725   9.973 -0.9412  0.2394  0.4272
  628MOL0     O84681   3.397   1.708   9.907  1.0697 -0.3431  0.2937
  628MOL0     C84682   3.290   1.667   9.990 -0.6124  0.2285  0.6908
  628MOL0     C84683   3.176   1.634   9.898  0.4928  0.3201  0.9626
  628MOL0     C84684   3.047   1.627   9.978  0.0589 -0.5917  0.0075
  628MOL0     C84685   2.932   1.557   9.904 -0.4465  0.6958  0.2237
  628MOL0     C84686   2.803   1.546   9.988 -0.3596  0.1425 -0.1944
  628MOL0     C84687   2.676   1.495   9.924  0.8805 -0.5169 -0.0594
  628MOL0     C84688   2.611   1.579   9.817  0.0406 -0.5427  0.3353
  628MOL0     C84689   2.503   1.506   9.735 -0.0403 -0.3770  0.6845
  628MOL0    Cl84690   2.565   1.336   9.685 -0.7886  0.0995  0.0845
  628MOL0     C84691   3.534   1.720  10.114 -0.1874  0.9576  0.2965
  628MOL0     C84692   3.661   1.742  10.167 -0.9014 -0.8240  0.9883
  628MOL0     O84693   3.862   1.856  10.351  0.1222  0.2226 -0.0958
  628MOL0     C84694   4.153   1.873  10.138 -0.1408  0.4025  0.1624
  628MOL0     C84695   4.274   1.932  10.110  0.0715 -0.3108  0.3537
  628MOL0     N84696   5.001   2.232  10.354 -0.3504 -0.3491 -0.0537
  628MOL0     N84697   5.123   2.240  10.306  0.2041  0.2096 -0.0185
  628MOL0     C84698   5.795   1.303  10.176  0.9824 -0.7121 -0.2437
  628MOL0     C84699   5.764   1.174  10.147  0.5628 -0.0396 -0.5308
  628MOL0     C84700   5.802   0.810   9.862  0.2422 -0.2427  1.1492
  628MOL0     C84701   5.911   0.756   9.787  0.0324 -1.1421  0.3524
  628MOL0     C84702   5.922   0.615   9.777 -0.1661 -0.2690 -0.0978
  628MOL0     C84703   5.828   0.529   9.840  0.7316  0.3770  0.6975
  628MOL0     O84704   5.844   0.388   9.836  0.0331 -0.1977 -0.1932
  628MOL0     C84705   5.953   0.332   9.769 -0.3810 -0.5479  0.0266
  628MOL0     C84706   5.958   0.193   9.804 -0.4410 -0.6049 -0.5022
  628MOL0     C84707   6.086   0.112   9.763 -0.2757 -0.3242 -0.1215
  628MOL0     C84708   6.096   0.103   9.607 -0.1447  0.3218  0.3403
  628MOL0     C84709   5.973   0.068   9.530 -0.1795  0.6706  0.4410
  628MOL0     C84710   5.880   0.030   9.468 -0.2072  0.1450 -0.1047
  628MOL0     C84711   5.724   0.587   9.922  0.3581 -0.2475  0.5925
  628MOL0     C84712   5.709   0.720   9.926 -0.1947 -0.4679  0.5047
  628MOL0     H84713   5.652   1.207   9.827 -1.2980  0.1879  0.6580
  628MOL0     H84714   5.702   1.436   9.871 -0.3150 -1.6983 -2.2281
  628MOL0     H84715   5.812   1.568  10.295  2.1452 -1.1579  2.1241
  628MOL0     H84716   5.974   1.519  10.218  0.1300 -0.3811  2.3432
  628MOL0     H84717   5.977   1.757  10.276 -1.5525  1.2273  0.8817
  628MOL0     H84718   5.973   1.748  10.103  3.4272 -4.8688  0.6342
  628MOL0     H84719   5.823   1.918  10.154 -1.9099  0.0129  0.4357
  628MOL0     H84720   5.717   1.784  10.118 -0.6202 -1.7438 -0.0515
  628MOL0     H84721   5.676   1.724  10.357 -1.3238 -0.0666  0.4107
  628MOL0     H84722   5.805   1.814  10.407  2.3028 -1.9815 -2.5056
  628MOL0     H84723   5.593   1.908  10.477 -1.7555  2.9137  1.1156
  628MOL0     H84724   5.679   2.031  10.392 -0.1139  0.0643  1.7757
  628MOL0     H84725   5.563   2.006  10.204 -1.9990 -0.8630 -0.0474
  628MOL0     H84726   5.486   1.851  10.237 -0.7436 -0.4597  0.5185
  628MOL0     H84727   5.343   1.950  10.406 -1.1150  1.1663  0.1969
  628MOL0     H84728   5.441   2.088  10.422 -0.2610 -1.5814  0.5607
  628MOL0     H84729   5.286   1.977  10.188  0.0365 -0.3350 -0.5096
  628MOL0     H84730   5.354   2.150  10.190  3.5276 -2.4430 -0.5127
  628MOL0     H84731   5.098   1.918  10.341  1.8747  0.0696  3.7458
  628MOL0     H84732   4.814   1.949  10.399 -0.9228  0.3658 -0.1688
  628MOL0     H84733   4.813   2.081  10.505 -0.6526  1.1008 -0.5729
  628MOL0     H84734   4.700   2.212  10.317 -1.1074 -0.2888  3.4035
  628MOL0     H84735   4.612   2.079  10.384 -0.2364 -0.6812  0.9671
  628MOL0     H84736   4.776   1.973  10.165 -2.7762 -2.6253 -2.2160
  628MOL0     H84737   4.709   2.145  10.125 -2.6651  1.4815  2.0784
  628MOL0     H84738   4.571   1.894  10.164  2.6235  0.5865  0.8114
  628MOL0     H84739   4.572   1.997  10.019 -0.1023  2.1401  0.3096
  628MOL0     H84740   4.305   2.121  10.381 -1.4700 -1.3164  0.7721
  628MOL0     H84741   3.991   2.103  10.449  2.5848  2.3414 -1.8922
  628MOL0     H84742   4.043   1.949  10.536 -1.2041 -0.4585 -0.4453
  628MOL0     H84743   4.138   2.099  10.539  0.3668 -0.2757  0.4396
  628MOL0     H84744   3.830   1.779   9.877  0.3084  1.8937  1.6869
  628MOL0     H84745   3.625   1.720   9.781 -0.1405  1.0090 -0.5450
  628MOL0     H84746   3.304   1.570  10.038  1.6050 -1.0566 -2.2781
  628MOL0     H84747   3.258   1.745  10.060 -0.5863  2.0964 -1.2833
  628MOL0     H84748   3.155   1.714   9.825 -1.6831  1.5251  2.7692
  628MOL0     H84749   3.200   1.542   9.845  1.9015  1.0286  0.3380
  628MOL0     H84750   3.016   1.730  10.000 -1.3277 -0.7750 -0.9511
  628MOL0     H84751   3.055   1.578  10.075  0.6618 -0.2191  0.1515
  628MOL0     H84752   2.901   1.603   9.810 -0.3105 -0.8440 -0.6071
  628MOL0     H84753   2.961   1.453   9.888  0.1470  0.8756  0.1087
  628MOL0     H84754   2.787   1.649  10.024  0.1965  0.8346 -1.8396
  628MOL0     H84755   2.818   1.485  10.077 -1.4186  0.7642  0.4420
  628MOL0     H84756   2.713   1.399   9.887 -0.0308 -0.2099 -1.8826
  628MOL0     H84757   2.605   1.490  10.007  0.3802  0.1437 -0.4469
  628MOL0     H84758   2.687   1.619   9.748  0.1504 -0.6335  0.4035
  628MOL0     H84759   2.574   1.666   9.872  0.3166 -0.3600  0.2380
  628MOL0     H84760   2.479   1.563   9.645  1.2338 -1.7481 -0.5826
  628MOL0     H84761   2.420   1.481   9.802 -0.2750 -1.0209  0.1640
  628MOL0     H84762   3.453   1.700  10.183  0.4816  0.7651  1.0383
  628MOL0     H84763   3.669   1.738  10.275 -1.1927 -2.8898  0.9624
  628MOL0     H84764   4.118   1.813  10.054  2.8969  1.0706 -1.7192
  628MOL0     H84765   4.321   1.918  10.013 -1.7244 -0.0239 -0.6082
  628MOL0     H84766   5.836   1.324  10.274 -2.2161 -1.7927  1.4702
  628MOL0     H84767   5.763   1.095  10.222 -0.7959  0.6234  0.1848
  628MOL0     H84768   5.982   0.823   9.740 -1.7944 -0.2244 -1.2233
  628MOL0     H84769   6.001   0.587   9.708  0.3411 -1.1130  0.8060
  628MOL0     H84770   5.952   0.343   9.660 -0.0600  0.9854  0.1550
  628MOL0     H84771   6.053   0.365   9.797  0.1637 -1.2384 -1.0436
  628MOL0     H84772   5.874   0.142   9.756 -0.7629 -0.7162  0.1643
  628MOL0     H84773   5.943   0.179   9.911  1.0644 -3.4737 -0.5597
  628MOL0     H84774   6.078   0.007   9.792  0.8459 -0.5735 -0.6400
  628MOL0     H84775   6.179   0.142   9.814  0.3966 -1.4335 -0.6469
  628MOL0     H84776   6.175   0.034   9.574 -1.1324  0.1021 -1.7134
  628MOL0     H84777   6.140   0.197   9.571  0.5874 -0.3570 -0.6007
  628MOL0     H84778   5.787  -0.002   9.425 -0.9530  1.0757  0.7847
  628MOL0     H84779   5.656   0.515   9.968  0.7360 -0.6741  0.4998
  628MOL0     H84780   5.620   0.755   9.978 -0.3505  0.9559 -0.6471
  629MOL0     O84781  10.034   8.263   4.824  0.1928 -0.3826 -0.4834
  629MOL0     C84782  10.120   8.285   4.744  0.5345  0.6055 -0.3466
  629MOL0     O84783  10.129   8.407   4.675  0.9545  0.2355  0.3033
  629MOL0     C84784  10.020   8.485   4.676  0.1336 -0.7978  0.1143
  629MOL0     C84785   9.995   8.552   4.551  0.6366 -0.1900  0.0353
  629MOL0     C84786   9.883   8.636   4.544 -0.5280 -0.4061  0.8372
  629MOL0     C84787   9.801   8.663   4.656  0.1234 -0.6265 -0.4858
  629MOL0     O84788   9.683   8.731   4.658 -0.4801  0.1223 -0.5983
  629MOL0     C84789   9.594   8.695   4.557 -0.1885 -0.1578  0.8032
  629MOL0     C84790   9.460   8.746   4.594  0.4344 -0.5427 -0.1407
  629MOL0     C84791   9.371   8.745   4.474  0.9809 -1.3299  0.6502
  629MOL0     C84792   9.239   8.667   4.477 -0.8396  0.7023 -0.3798
  629MOL0     C84793   9.173   8.673   4.339 -0.0319 -0.4364  0.1380
  629MOL0     C84794   9.059   8.583   4.323 -0.1760  1.0981 -0.0728
  629MOL0     C84795   8.920   8.639   4.369  0.2923 -0.5648 -0.4283
  629MOL0     C84796   8.789   8.569   4.319 -0.3471 -0.3545  0.0897
  629MOL0     N84797   8.668   8.651   4.318  0.0628  0.1647  0.0458
  629MOL0     C84798   8.559   8.624   4.244 -0.7044 -0.4487 -0.8441
  629MOL0     C84799   8.479   8.732   4.262  0.6193  0.1088  0.4556
  629MOL0     C84800   8.339   8.761   4.209 -1.3427 -0.3192  0.0806
  629MOL0     C84801   8.250   8.641   4.208 -0.0580 -0.2360 -0.8119
  629MOL0     C84802   8.181   8.608   4.074  0.0496  0.4828 -0.2137
  629MOL0     C84803   8.071   8.718   4.050  0.5602 -0.5869 -0.7324
  629MOL0     O84804   7.972   8.721   4.150  0.8103  0.2360  0.9988
  629MOL0     C84805   7.887   8.822   4.170 -0.4276 -0.3149  0.5516
  629MOL0     C84806   7.923   8.963   4.130  0.9440 -0.5170 -0.1373
  629MOL0     C84807   7.829   9.066   4.149 -1.1917 -0.0314  0.5203
  629MOL0     C84808   7.879   9.203   4.115  0.0365  0.3359 -0.8378
  629MOL0     C84809   7.704   9.036   4.205 -0.2379 -0.4744  0.0767
  629MOL0     C84810   7.592   9.140   4.229  1.2069  0.5807 -0.4921
  629MOL0     O84811   7.506   9.102   4.337  0.3154  0.0053 -0.2409
  629MOL0     C84812   7.376   9.153   4.344  0.3349 -0.4534  0.2389
  629MOL0     C84813   7.281   9.185   4.240  0.5182  0.3264 -1.2122
  629MOL0     C84814   7.169   9.257   4.264 -0.4096 -0.6570 -0.0949
  629MOL0     C84815   7.142   9.298   4.395 -0.1579 -0.1699 -0.2329
  629MOL0     O84816   7.030   9.375   4.405  0.5014  0.2534 -0.4650
  629MOL0     C84817   7.008   9.447   4.531  0.2852  0.4565  0.5061
  629MOL0     C84818   6.929   9.573   4.513 -0.1287 -0.3203  0.0204
  629MOL0     C84819   6.775   9.545   4.524 -0.1247 -0.4184 -0.0723
  629MOL0     C84820   6.693   9.666   4.482  0.7207 -1.1475  0.3290
  629MOL0     C84821   6.549   9.652   4.491  0.2016 -0.3847  0.0894
  629MOL0     C84822   6.499   9.540   4.397  1.1119 -1.0910 -0.2418
  629MOL0     C84823   6.354   9.555   4.360  0.9706 -0.3523  0.2168
  629MOL0     C84824   6.286   9.428   4.311 -0.2544  0.3281  0.7230
  629MOL0    Cl84825   6.380   9.337   4.190 -0.1339 -0.0033  0.2982
  629MOL0     C84826   7.233   9.266   4.505  0.0083  0.2771  0.6474
  629MOL0     C84827   7.353   9.200   4.472 -0.6041 -0.1341 -0.5030
  629MOL0     O84828   7.575   9.232   4.148  0.3814 -0.1022  0.1546
  629MOL0     C84829   7.676   8.903   4.239  0.8216 -0.4971  0.1681
  629MOL0     C84830   7.768   8.796   4.238  0.0904 -0.2384  0.0945
  629MOL0     N84831   8.538   8.805   4.363  0.2456 -0.2071  0.2509
  629MOL0     N84832   8.657   8.766   4.392  0.4959 -0.2766  0.5156
  629MOL0     C84833   9.841   8.608   4.777 -0.0147  0.2919  0.4446
  629MOL0     C84834   9.947   8.522   4.788  0.3427 -0.6855 -0.2145
  629MOL0     C84835  10.237   8.198   4.730  0.7718  0.4145  0.7944
  629MOL0     C84836  10.265   8.095   4.822 -0.1850 -0.7662  0.4945
  629MOL0     C84837  10.366   8.008   4.810  0.8534  0.4473 -0.3329
  629MOL0     C84838  10.448   8.012   4.699 -0.2787  0.1272 -0.2200
  629MOL0     O84839  10.544   7.914   4.685 -0.6311 -0.3129 -0.6321
  629MOL0     C84840  10.589   7.852   4.559 -0.6050 -0.4005 -0.2421
  629MOL0     C84841  10.736   7.885   4.545 -0.0668 -0.4570  1.1178
  629MOL0     C84842  10.792   7.843   4.409 -0.6441 -1.3798  0.4344
  629MOL0     C84843  10.928   7.764   4.414 -0.0681  0.3886  0.5199
  629MOL0     C84844  10.893   7.618   4.451 -0.3279  0.4768  0.3267
  629MOL0     C84845  10.873   7.507   4.500 -0.1820 -0.2733 -0.4679
  629MOL0     C84846  10.430   8.116   4.606 -0.3867  0.3281  0.4932
  629MOL0     C84847  10.328   8.209   4.623  0.7868  0.0836 -0.4825
  629MOL0     H84848  10.056   8.534   4.463 -0.0330  0.2190 -0.5213
  629MOL0     H84849   9.858   8.692   4.455 -0.6288  1.2497  1.8605
  629MOL0     H84850   9.631   8.745   4.467 -1.5867 -1.3384 -0.4849
  629MOL0     H84851   9.588   8.587   4.539  0.1710  0.0885 -0.9236
  629MOL0     H84852   9.416   8.678   4.668 -0.3266  0.1327  0.0559
  629MOL0     H84853   9.460   8.846   4.638 -1.7859  0.3797 -2.0292
  629MOL0     H84854   9.344   8.851   4.463  3.6978 -0.8367 -2.9161
  629MOL0     H84855   9.428   8.720   4.385 -1.5922 -0.4181 -1.3913
  629MOL0     H84856   9.260   8.562   4.503 -1.9621  0.2091 -1.3509
  629MOL0     H84857   9.174   8.713   4.551  0.3861  0.8252  0.6639
  629MOL0     H84858   9.137   8.776   4.332  0.7730 -0.0703  1.2523
  629MOL0     H84859   9.235   8.650   4.252 -1.2518 -1.0848 -0.6048
  629MOL0     H84860   9.056   8.553   4.218 -0.6449 -2.2407  0.7812
  629MOL0     H84861   9.083   8.495   4.384  0.2279  0.4239 -1.1798
  629MOL0     H84862   8.915   8.653   4.477 -1.6609  0.8131 -0.6470
  629MOL0     H84863   8.904   8.737   4.321 -1.6586 -0.4223  0.4370
  629MOL0     H84864   8.775   8.488   4.391 -1.6032 -0.1626  0.0868
  629MOL0     H84865   8.814   8.526   4.221  0.5051 -0.6573  0.4350
  629MOL0     H84866   8.541   8.537   4.182  0.1452 -2.1169  1.1655
  629MOL0     H84867   8.296   8.842   4.268  2.1332  1.2624  0.6762
  629MOL0     H84868   8.354   8.805   4.110  4.2800  0.1870  0.8418
  629MOL0     H84869   8.173   8.658   4.284  1.2495  1.4092  0.2327
  629MOL0     H84870   8.314   8.556   4.232  2.2922  1.0478 -2.2246
  629MOL0     H84871   8.142   8.506   4.074  0.7910  0.1909 -0.1430
  629MOL0     H84872   8.263   8.607   4.001  1.2808  1.1668  1.1187
  629MOL0     H84873   8.019   8.716   3.953 -0.3755 -0.3202 -0.2416
  629MOL0     H84874   8.124   8.814   4.045  0.2505 -0.4374 -1.2006
  629MOL0     H84875   8.020   8.976   4.084  1.5582 -0.0759  1.2240
  629MOL0     H84876   7.790   9.263   4.096 -0.4745 -0.6231 -1.5591
  629MOL0     H84877   7.938   9.236   4.201 -1.3589 -1.5222  0.9258
  629MOL0     H84878   7.946   9.203   4.028  3.1955 -1.2225  1.3727
  629MOL0     H84879   7.282   9.140   4.141 -3.8782  3.3522 -2.9363
  629MOL0     H84880   7.093   9.285   4.192  0.2910  1.7642  0.0224
  629MOL0     H84881   6.959   9.384   4.605  0.3681  1.7881  1.7422
  629MOL0     H84882   7.101   9.480   4.580  1.4414 -0.2208 -1.1352
  629MOL0     H84883   6.948   9.642   4.595  0.9973  0.1568 -0.6263
  629MOL0     H84884   6.965   9.627   4.425  1.4570 -1.3440  0.0007
  629MOL0     H84885   6.759   9.503   4.624 -0.2769 -0.5244 -0.1402
  629MOL0     H84886   6.744   9.461   4.460 -3.7922  0.5344  0.2307
  629MOL0     H84887   6.725   9.759   4.531 -3.1974  1.0010 -0.7034
  629MOL0     H84888   6.715   9.680   4.375 -0.7220 -0.3377  0.0998
  629MOL0     H84889   6.490   9.736   4.453 -2.2660 -2.5737 -1.2806
  629MOL0     H84890   6.514   9.632   4.593 -1.0884  1.5608  0.0859
  629MOL0     H84891   6.558   9.546   4.305  0.8594  1.1968 -0.3018
  629MOL0     H84892   6.517   9.445   4.448  1.3607 -1.2239 -0.5791
  629MOL0     H84893   6.341   9.629   4.280  2.2249 -0.4020 -0.0516
  629MOL0     H84894   6.288   9.578   4.445 -0.7138  0.3945 -1.2270
  629MOL0     H84895   6.193   9.460   4.264  1.0867  4.0146  0.2376
  629MOL0     H84896   6.255   9.368   4.397 -4.4162 -0.2180 -0.9500
  629MOL0     H84897   7.220   9.303   4.607 -0.0181 -0.3450  0.8763
  629MOL0     H84898   7.431   9.181   4.544 -0.1711 -1.7816 -1.3683
  629MOL0     H84899   7.576   8.881   4.274  0.2410  1.2052 -0.3408
  629MOL0     H84900   7.748   8.692   4.265 -2.0184 -1.2051 -4.2674
  629MOL0     H84901   9.795   8.633   4.872  1.5103 -1.0564  1.6030
  629MOL0     H84902   9.963   8.485   4.889  1.5594  1.7600  0.5454
  629MOL0     H84903  10.204   8.088   4.912  1.2693 -3.3182  1.3822
  629MOL0     H84904  10.374   7.923   4.877 -2.8131 -0.7208 -1.1415
  629MOL0     H84905  10.588   7.742   4.560 -2.2637 -0.3989  0.3062
  629MOL0     H84906  10.538   7.886   4.468  1.4261 -0.0928 -1.3366
  629MOL0     H84907  10.792   7.843   4.629  0.0492  0.7573  1.6628
  629MOL0     H84908  10.753   7.991   4.562  1.0288 -0.6343  1.1952
  629MOL0     H84909  10.819   7.932   4.351 -0.9299 -1.7378 -0.2655
  629MOL0     H84910  10.715   7.790   4.352 -1.3498  0.4348 -0.3843
  629MOL0     H84911  11.009   7.811   4.471 -1.0368  1.3252  1.1761
  629MOL0     H84912  10.965   7.741   4.314 -2.0197 -1.8916  0.2423
  629MOL0     H84913  10.865   7.404   4.527 -0.3152  0.1506  1.2239
  629MOL0     H84914  10.483   8.124   4.511  0.5467 -1.0540  0.8725
  629MOL0     H84915  10.304   8.289   4.554  2.2751  0.9716 -0.0216
  630MOL0     O84916   2.162   8.831   7.112  0.0351 -0.1008 -0.6307
  630MOL0     C84917   2.110   8.946   7.116 -1.1587  0.4212  0.9917
  630MOL0     O84918   2.187   9.064   7.146 -0.1525 -0.0082 -0.2749
  630MOL0     C84919   2.321   9.082   7.124  0.0092  0.3585 -0.2627
  630MOL0     C84920   2.366   9.209   7.155 -0.2457 -0.6518 -0.2640
  630MOL0     C84921   2.499   9.240   7.125  0.2690  0.2149 -0.6730
  630MOL0     C84922   2.589   9.148   7.067 -0.2458  0.1043 -0.5121
  630MOL0     O84923   2.724   9.174   7.048  0.6244  0.5019  0.0083
  630MOL0     C84924   2.778   9.306   7.063 -0.5853 -0.0429  0.6441
  630MOL0     C84925   2.928   9.317   7.021  0.4440  0.1150 -0.2508
  630MOL0     C84926   2.965   9.461   7.024 -0.3418  0.6361  0.4946
  630MOL0     C84927   3.096   9.477   6.953  0.5017 -0.0183  0.5065
  630MOL0     C84928   3.219   9.424   7.044 -0.7070 -0.5770  0.3575
  630MOL0     C84929   3.349   9.443   6.971 -0.8020  0.9742 -0.2389
  630MOL0     C84930   3.458   9.423   7.078 -0.0174  0.5195  0.0228
  630MOL0     C84931   3.601   9.436   7.032 -0.4131  0.0692 -0.4985
  630MOL0     N84932   3.613   9.556   6.950  0.2595  0.6266 -0.4208
  630MOL0     C84933   3.620   9.555   6.821  0.1192  0.2261  0.0166
  630MOL0     C84934   3.680   9.669   6.785 -0.3499  0.1315 -0.4554
  630MOL0     C84935   3.713   9.710   6.643 -0.1322 -0.7580 -0.2154
  630MOL0     C84936   3.766   9.853   6.607  0.4537  0.9132 -0.5610
  630MOL0     C84937   3.902   9.890   6.674  0.3119 -0.1021 -0.1228
  630MOL0     C84938   4.021   9.819   6.618  0.2742 -0.2116  0.7334
  630MOL0     O84939   4.033   9.864   6.481 -0.2233  0.1553  0.0580
  630MOL0     C84940   4.029   9.753   6.395  0.2619 -0.2663  0.4809
  630MOL0     C84941   3.912   9.725   6.323 -0.4323  0.2956  0.1010
  630MOL0     C84942   3.903   9.616   6.232  0.5556  0.4371 -0.1129
  630MOL0     C84943   3.767   9.591   6.165  0.1099 -0.5342  0.4834
  630MOL0     C84944   4.018   9.542   6.211 -1.2624  0.1405  0.0104
  630MOL0     C84945   4.029   9.445   6.099  0.3020 -0.1391  0.3892
  630MOL0     O84946   3.974   9.486   5.974 -0.1696 -0.9126  0.0690
  630MOL0     C84947   3.995   9.414   5.858 -0.2935 -0.0835 -0.0805
  630MOL0     C84948   4.121   9.368   5.812 -0.6418  0.4173 -0.0736
  630MOL0     C84949   4.131   9.316   5.682 -0.1805  0.3742  0.3231
  630MOL0     C84950   4.032   9.344   5.585  0.0115 -1.2347 -1.2530
  630MOL0     O84951   4.042   9.311   5.452  0.6162 -0.1507  0.5725
  630MOL0     C84952   4.171   9.288   5.389 -0.0180 -0.4075 -0.3376
  630MOL0     C84953   4.145   9.314   5.238  1.0927  0.0066  1.1490
  630MOL0     C84954   4.052   9.193   5.182  0.4099  0.7780  0.1923
  630MOL0     C84955   4.123   9.061   5.170 -0.1361 -0.0744 -0.4261
  630MOL0     C84956   4.045   8.951   5.092  0.9173 -0.5488  0.4375
  630MOL0     C84957   3.899   8.922   5.127 -0.5306  0.1104  0.3288
  630MOL0     C84958   3.848   8.794   5.071  0.2910  0.7716 -0.7732
  630MOL0     C84959   3.707   8.766   5.114 -0.3338  0.9721  0.4716
  630MOL0    Cl84960   3.576   8.890   5.053 -0.2154  0.2109 -0.3117
  630MOL0     C84961   3.917   9.395   5.633 -0.4051 -0.4410 -0.7339
  630MOL0     C84962   3.894   9.426   5.765 -0.3700 -0.6594  0.1613
  630MOL0     O84963   4.084   9.338   6.118  0.1288  0.1439 -0.1122
  630MOL0     C84964   4.132   9.555   6.290  0.2081  0.2401 -0.2430
  630MOL0     C84965   4.136   9.665   6.376 -0.4306  0.7045  0.1579
  630MOL0     N84966   3.690   9.747   6.903  0.7448  0.5565  0.1370
  630MOL0     N84967   3.646   9.676   7.001 -0.9471 -1.0050 -0.9217
  630MOL0     C84968   2.541   9.031   7.030  0.0611 -0.0456 -0.2791
  630MOL0     C84969   2.405   8.989   7.063  0.5515  0.6311  0.1403
  630MOL0     C84970   1.960   8.958   7.114  0.1439  0.0863 -0.0259
  630MOL0     C84971   1.875   8.856   7.088  0.3454  0.6856  0.5914
  630MOL0     C84972   1.738   8.881   7.098 -0.5522  0.7813  0.2370
  630MOL0     C84973   1.681   9.002   7.122 -0.0045 -0.3443 -0.4172
  630MOL0     O84974   1.547   9.025   7.138 -0.3311  0.1823 -0.2121
  630MOL0     C84975   1.451   8.914   7.150 -0.4135 -0.5711 -0.4263
  630MOL0     C84976   1.328   8.950   7.225  0.2250 -0.3864 -0.2837
  630MOL0     C84977   1.239   9.060   7.166  1.0064 -0.4940 -0.1259
  630MOL0     C84978   1.141   9.011   7.052  0.2408  0.4903 -0.7789
  630MOL0     C84979   1.045   9.106   7.005 -0.6289 -0.4919  0.0319
  630MOL0     C84980   0.954   9.163   6.951 -0.1157  0.7384  0.2671
  630MOL0     C84981   1.775   9.110   7.129 -0.2754 -0.6258 -0.6835
  630MOL0     C84982   1.913   9.088   7.126  0.8921  0.1432  0.4493
  630MOL0     H84983   2.308   9.296   7.185  0.6142 -0.3498  0.6016
  630MOL0     H84984   2.528   9.344   7.136 -1.0667  0.8216 -2.4617
  630MOL0     H84985   2.718   9.354   6.984 -0.7943  0.4804  1.1157
  630MOL0     H84986   2.757   9.355   7.158  1.3794  0.0009  1.0911
  630MOL0     H84987   2.994   9.262   7.088  3.9086  1.5018 -2.2666
  630MOL0     H84988   2.937   9.276   6.920 -0.8012  2.2474 -1.2952
  630MOL0     H84989   2.896   9.513   6.957 -0.2462  0.3728  0.1943
  630MOL0     H84990   2.974   9.502   7.125  2.4266 -2.1126  1.5175
  630MOL0     H84991   3.093   9.435   6.852 -0.3818  1.5728 -0.1741
  630MOL0     H84992   3.105   9.581   6.920 -0.1652 -0.3458 -0.7587
  630MOL0     H84993   3.216   9.475   7.141 -2.3799 -0.5635  0.3249
  630MOL0     H84994   3.203   9.321   7.077  1.4527 -2.0154 -2.5521
  630MOL0     H84995   3.358   9.361   6.898 -0.0869  1.4782 -0.7259
  630MOL0     H84996   3.365   9.542   6.927  2.5172  1.7049  2.2356
  630MOL0     H84997   3.432   9.489   7.162 -1.2980 -0.1455  0.1802
  630MOL0     H84998   3.446   9.320   7.113  1.3350  0.9463  1.9135
  630MOL0     H84999   3.623   9.344   6.977 -0.2013 -0.1495 -0.0491
  630MOL0     H85000   3.678   9.441   7.110  2.1970  1.6697 -2.9530
  630MOL0     H85001   3.581   9.483   6.750 -1.2578  0.2531  0.7080
  630MOL0     H85002   3.798   9.651   6.609  0.1913 -0.0127 -0.7174
  630MOL0     H85003   3.625   9.679   6.586 -0.1867 -3.9465  1.3530
  630MOL0     H85004   3.696   9.926   6.649  0.0051  0.4923 -0.5628
  630MOL0     H85005   3.789   9.883   6.505 -2.1165 -1.4642 -1.9845
  630MOL0     H85006   3.897   9.879   6.783  4.6860  0.6738  0.3713
  630MOL0     H85007   3.928   9.996   6.665  1.8370 -0.3489  0.8263
  630MOL0     H85008   4.013   9.711   6.638 -0.3869  0.1667  2.7689
  630MOL0     H85009   4.112   9.850   6.671  1.9304 -1.5814 -1.1209
  630MOL0     H85010   3.821   9.783   6.336 -2.1353 -2.4479  1.6529
  630MOL0     H85011   3.760   9.636   6.065 -1.3997  0.4625  1.0090
  630MOL0     H85012   3.759   9.485   6.141 -1.6312 -0.0327 -1.4199
  630MOL0     H85013   3.679   9.620   6.224 -1.1493 -1.7155 -0.7613
  630MOL0     H85014   4.205   9.343   5.877  0.6625  2.8468 -0.6907
  630MOL0     H85015   4.222   9.266   5.650  0.6444  1.5351  0.7799
  630MOL0     H85016   4.252   9.354   5.421  0.5589 -1.9720  1.6120
  630MOL0     H85017   4.205   9.187   5.413  3.7050  1.3535  2.9356
  630MOL0     H85018   4.099   9.413   5.229 -1.7730 -1.2485  0.7959
  630MOL0     H85019   4.232   9.308   5.173 -2.0901 -0.8517 -3.5202
  630MOL0     H85020   4.010   9.224   5.085 -0.4010 -0.5121  0.1020
  630MOL0     H85021   3.969   9.175   5.251  0.9980  0.4930  0.8370
  630MOL0     H85022   4.217   9.079   5.116 -0.2440  0.4313 -0.4570
  630MOL0     H85023   4.142   9.027   5.272 -0.5012  0.5476 -0.1421
  630MOL0     H85024   4.105   8.861   5.111  2.0706  0.2342  0.6536
  630MOL0     H85025   4.049   8.979   4.986 -0.9555  2.5785  1.0643
  630MOL0     H85026   3.899   8.896   5.234  0.1779 -1.2920  0.0101
  630MOL0     H85027   3.836   9.006   5.100  2.3186  1.8944 -1.1973
  630MOL0     H85028   3.907   8.715   5.119 -0.4272  0.7466  0.1024
  630MOL0     H85029   3.844   8.785   4.962  2.6866 -0.0951 -0.8520
  630MOL0     H85030   3.708   8.751   5.223  0.3840 -1.5721  0.1872
  630MOL0     H85031   3.665   8.669   5.084  1.1295  0.4275  0.1160
  630MOL0     H85032   3.835   9.406   5.563  1.4949  0.3414 -2.9769
  630MOL0     H85033   3.813   9.487   5.803  0.8374  1.0568  0.1521
  630MOL0     H85034   4.223   9.497   6.276 -0.4918 -1.1445  0.6521
  630MOL0     H85035   4.223   9.683   6.438 -1.2558 -3.4513  2.9381
  630MOL0     H85036   2.609   8.959   6.985  0.5034  0.9186 -1.1823
  630MOL0     H85037   2.381   8.884   7.048  1.9689  0.5544 -2.1901
  630MOL0     H85038   1.903   8.756   7.057 -0.8929 -0.9057  4.0417
  630MOL0     H85039   1.672   8.801   7.065  2.7558 -0.9978 -2.7784
  630MOL0     H85040   1.424   8.879   7.051 -1.4952  0.5904 -0.5776
  630MOL0     H85041   1.500   8.833   7.204 -2.5935 -0.9472  1.1483
  630MOL0     H85042   1.366   8.995   7.317  2.8345  1.3332 -2.0547
  630MOL0     H85043   1.277   8.858   7.254  1.8357 -0.9405  0.9490
  630MOL0     H85044   1.296   9.144   7.126  3.1427 -1.4488  0.7468
  630MOL0     H85045   1.172   9.102   7.242  1.4986 -2.6345  1.5833
  630MOL0     H85046   1.093   8.921   7.091  0.1549 -0.1853 -2.3887
  630MOL0     H85047   1.202   8.981   6.966  2.6899 -0.6612  1.2440
  630MOL0     H85048   0.867   9.213   6.913 -1.2393  0.8704  2.8312
  630MOL0     H85049   1.740   9.209   7.156 -2.3581 -1.4514 -0.0799
  630MOL0     H85050   1.983   9.171   7.129  0.0650  0.8278  2.3682
  631MOL0     O85051   1.482   7.709   1.120 -0.4779 -0.0370  0.3972
  631MOL0     C85052   1.445   7.803   1.044  1.0404  0.2347 -0.4411
  631MOL0     O85053   1.312   7.827   1.004  0.8148  0.0120  0.7394
  631MOL0     C85054   1.200   7.770   1.059 -0.0934  0.3916 -0.5425
  631MOL0     C85055   1.077   7.826   1.010 -0.8910 -0.7385 -0.8925
  631MOL0     C85056   0.956   7.780   1.050 -0.2345  0.7558 -0.5419
  631MOL0     C85057   0.956   7.678   1.153 -0.0104  0.4534  0.9237
  631MOL0     O85058   0.836   7.618   1.197  0.0986  0.1606 -0.4243
  631MOL0     C85059   0.706   7.680   1.174 -1.1406  0.1407 -0.0815
  631MOL0     C85060   0.605   7.644   1.285  0.5198  0.3177 -0.1764
  631MOL0     C85061   0.547   7.495   1.289 -0.0926 -0.4316  0.4012
  631MOL0     C85062   0.656   7.387   1.270  1.1942 -0.3029 -0.7887
  631MOL0     C85063   0.591   7.250   1.318 -0.1122 -0.1408  0.2346
  631MOL0     C85064   0.678   7.135   1.269 -1.3187 -0.7908 -0.9223
  631MOL0     C85065   0.630   6.993   1.296 -0.4475 -0.4909  0.2614
  631MOL0     C85066   0.708   6.887   1.217  0.5631  0.7382 -0.2879
  631MOL0     N85067   0.663   6.744   1.243  0.2678  1.2889  0.0264
  631MOL0     C85068   0.688   6.679   1.363  0.2077 -0.7289 -0.2421
  631MOL0     C85069   0.636   6.557   1.346  0.3340 -0.4525  0.4190
  631MOL0     C85070   0.630   6.463   1.459  0.2070  0.7907 -0.6117
  631MOL0     C85071   0.510   6.503   1.541 -0.5809 -0.4918  0.1099
  631MOL0     C85072   0.492   6.406   1.657 -0.4175  0.6628 -0.0299
  631MOL0     C85073   0.370   6.415   1.736  0.7015 -0.0796 -0.8341
  631MOL0     O85074   0.259   6.373   1.660 -0.0417 -1.0751  0.3446
  631MOL0     C85075   0.134   6.397   1.699  0.1387 -0.1643 -0.4277
  631MOL0     C85076   0.091   6.507   1.765 -0.2229  0.3405 -0.1983
  631MOL0     C85077  -0.045   6.525   1.797  0.4865  0.1449  0.5443
  631MOL0     C85078  -0.088   6.643   1.885  0.0183 -0.2875  0.0521
  631MOL0     C85079  -0.138   6.425   1.760  0.0437 -0.5211  1.1103
  631MOL0     C85080  -0.285   6.429   1.789 -0.2700  0.2915 -0.1814
  631MOL0     O85081  -0.373   6.388   1.694  0.2505  0.1449 -0.2992
  631MOL0     C85082  -0.506   6.425   1.709 -0.2421 -0.5886 -0.5453
  631MOL0     C85083  -0.599   6.346   1.648 -0.6894 -0.6494  0.5631
  631MOL0     C85084  -0.733   6.377   1.643 -0.1538 -1.0234  0.0915
  631MOL0     C85085  -0.784   6.503   1.695 -0.1743 -0.2097  0.2771
  631MOL0     O85086  -0.918   6.539   1.701 -0.7744  0.1933  0.3616
  631MOL0     C85087  -1.007   6.442   1.752 -0.5479 -0.2741  0.8087
  631MOL0     C85088  -0.967   6.387   1.889  0.9560  0.2041  0.2889
  631MOL0     C85089  -1.086   6.291   1.911 -0.5018 -0.2903 -0.6619
  631MOL0     C85090  -1.081   6.244   2.062 -0.3436 -0.2518  1.1073
  631MOL0     C85091  -1.170   6.126   2.092 -0.7508  0.1180  0.3539
  631MOL0     C85092  -1.310   6.172   2.116 -0.8810 -0.3655 -0.6827
  631MOL0     C85093  -1.412   6.070   2.076  0.4127  0.5987  0.1526
  631MOL0     C85094  -1.410   5.927   2.143  0.0601 -0.7438 -0.1434
  631MOL0    Cl85095  -1.264   5.844   2.086 -0.3315  0.1140  0.4153
  631MOL0     C85096  -0.693   6.585   1.753  0.5166  0.3668  0.9939
  631MOL0     C85097  -0.555   6.553   1.753 -0.2203 -0.4056  0.0968
  631MOL0     O85098  -0.315   6.447   1.907  0.3258 -0.1591  0.5390
  631MOL0     C85099  -0.097   6.317   1.680 -0.1402 -0.2887 -0.4261
  631MOL0     C85100   0.043   6.296   1.662 -0.3286 -0.4841  0.0024
  631MOL0     N85101   0.580   6.551   1.216  0.4515  0.1156 -0.0338
  631MOL0     N85102   0.611   6.657   1.152  0.7938  0.0055 -0.8680
  631MOL0     C85103   1.074   7.627   1.200 -0.2767  0.7480  0.7191
  631MOL0     C85104   1.198   7.678   1.154  1.3005 -0.1399  0.2064
  631MOL0     C85105   1.549   7.870   0.966 -0.3173  1.1079  0.6518
  631MOL0     C85106   1.686   7.883   1.003 -0.7590  0.0744  0.0171
  631MOL0     C85107   1.780   7.939   0.916  0.3515  0.0376 -0.8476
  631MOL0     C85108   1.739   8.001   0.798 -0.0413 -0.1734  0.8725
  631MOL0     O85109   1.838   8.047   0.718 -0.2243  0.6669 -0.3206
  631MOL0     C85110   1.812   8.059   0.581 -1.2232 -0.2256  1.2527
  631MOL0     C85111   1.924   7.981   0.510  0.0248 -0.8126  0.1752
  631MOL0     C85112   1.934   8.028   0.354 -0.3885  1.4243 -0.6912
  631MOL0     C85113   2.065   7.990   0.279  0.3403 -0.3170 -0.4213
  631MOL0     C85114   2.178   8.059   0.336 -0.0109 -0.0438  0.8578
  631MOL0     C85115   2.259   8.150   0.370  0.7782  0.1928 -0.0537
  631MOL0     C85116   1.606   7.999   0.765  0.2554  0.4186  0.1305
  631MOL0     C85117   1.515   7.931   0.842 -0.4846  0.3741  0.1948
  631MOL0     H85118   1.092   7.901   0.934  1.0077 -0.0168  0.1383
  631MOL0     H85119   0.868   7.826   1.005  1.0122  1.9058 -1.9069
  631MOL0     H85120   0.709   7.789   1.171 -2.2388  0.2045  0.4759
  631MOL0     H85121   0.654   7.647   1.084 -0.4196  0.5583 -0.6555
  631MOL0     H85122   0.654   7.668   1.380 -1.3645  0.2683  0.8605
  631MOL0     H85123   0.523   7.713   1.261  1.6352  0.1604 -5.7363
  631MOL0     H85124   0.494   7.496   1.384  0.9814 -1.2835  1.0239
  631MOL0     H85125   0.480   7.476   1.204  1.8302 -2.8482 -0.7129
  631MOL0     H85126   0.677   7.374   1.164  3.1453 -2.6878 -0.1952
  631MOL0     H85127   0.751   7.408   1.319  1.7187 -1.6987 -1.1694
  631MOL0     H85128   0.581   7.243   1.427 -1.8732 -0.3813  0.0774
  631MOL0     H85129   0.502   7.244   1.257  0.3773 -0.3420 -0.4666
  631MOL0     H85130   0.695   7.148   1.161  4.1577  0.6669 -0.1784
  631MOL0     H85131   0.772   7.145   1.324 -2.2504  1.9163  0.3921
  631MOL0     H85132   0.637   6.979   1.404  0.3139  0.3597  0.3295
  631MOL0     H85133   0.525   6.992   1.265 -0.5623 -1.8596  0.6138
  631MOL0     H85134   0.814   6.888   1.245  0.1562  3.3309  1.5653
  631MOL0     H85135   0.699   6.910   1.111 -0.1862  1.4829 -0.0691
  631MOL0     H85136   0.759   6.705   1.440  1.1754 -1.5956 -0.8074
  631MOL0     H85137   0.616   6.367   1.409  0.7777  0.2029  0.3215
  631MOL0     H85138   0.715   6.456   1.527 -0.9928 -0.0905  0.8615
  631MOL0     H85139   0.416   6.497   1.486 -0.5078 -0.6462 -0.0003
  631MOL0     H85140   0.527   6.605   1.576  1.8044 -0.2150 -1.6172
  631MOL0     H85141   0.579   6.414   1.723  0.4297 -1.5838 -0.8003
  631MOL0     H85142   0.490   6.306   1.615  2.7926 -0.1460  1.4155
  631MOL0     H85143   0.362   6.509   1.791  0.1886 -0.1892 -0.7137
  631MOL0     H85144   0.371   6.344   1.819 -1.3748  1.3135  0.4983
  631MOL0     H85145   0.159   6.589   1.785  0.4186 -0.1300 -0.4037
  631MOL0     H85146  -0.037   6.731   1.844 -2.4286  0.3171 -1.9636
  631MOL0     H85147  -0.192   6.675   1.869 -1.0105 -4.2065 -2.5915
  631MOL0     H85148  -0.065   6.630   1.991  1.4022  2.3536  0.1521
  631MOL0     H85149  -0.557   6.250   1.619 -0.3248 -0.7292  1.3197
  631MOL0     H85150  -0.802   6.311   1.592 -0.7937 -1.0573  0.9841
  631MOL0     H85151  -1.109   6.479   1.762  0.0098  1.5798  0.0323
  631MOL0     H85152  -0.994   6.368   1.674  2.9310  0.5701  0.4103
  631MOL0     H85153  -0.874   6.330   1.894  1.7321  1.1669 -1.9547
  631MOL0     H85154  -0.969   6.470   1.959  1.2883  1.9991 -1.7152
  631MOL0     H85155  -1.077   6.201   1.849 -0.3820 -0.5650 -0.2513
  631MOL0     H85156  -1.186   6.335   1.905 -1.4574 -1.9878  1.3101
  631MOL0     H85157  -0.978   6.216   2.087 -0.3406 -3.8641 -2.0183
  631MOL0     H85158  -1.122   6.328   2.118 -1.8322  0.8930 -1.5171
  631MOL0     H85159  -1.151   6.061   2.178 -1.8128 -1.8139 -0.7994
  631MOL0     H85160  -1.166   6.053   2.011 -1.2425 -0.3255  0.7126
  631MOL0     H85161  -1.298   6.209   2.218 -0.3167 -0.3476 -0.7543
  631MOL0     H85162  -1.324   6.258   2.050 -0.6427  1.1132  1.1112
  631MOL0     H85163  -1.405   6.038   1.972  2.7381  0.7655  0.1923
  631MOL0     H85164  -1.509   6.111   2.104  2.5295  4.7258  2.3132
  631MOL0     H85165  -1.504   5.875   2.121 -0.5019 -0.4947  1.5379
  631MOL0     H85166  -1.415   5.938   2.252 -1.1975 -0.0984 -0.2488
  631MOL0     H85167  -0.715   6.686   1.785  0.8039  1.1672 -1.1616
  631MOL0     H85168  -0.488   6.630   1.789  2.2553 -2.0576 -0.6739
  631MOL0     H85169  -0.166   6.243   1.640 -0.7647 -0.3711  0.7812
  631MOL0     H85170   0.068   6.228   1.581  2.7222  4.2206 -3.5287
  631MOL0     H85171   1.080   7.551   1.278 -1.0219 -0.0637  0.0063
  631MOL0     H85172   1.289   7.638   1.198  0.2328  0.0711  2.7811
  631MOL0     H85173   1.719   7.849   1.100 -1.6813  2.1516  1.1456
  631MOL0     H85174   1.887   7.931   0.932  0.6646  0.1627 -2.6571
  631MOL0     H85175   1.719   8.020   0.540  0.1946 -0.8892 -1.6808
  631MOL0     H85176   1.811   8.162   0.546  1.3240 -0.2368  0.9489
  631MOL0     H85177   1.890   7.877   0.511 -1.7075 -0.3285 -1.8297
  631MOL0     H85178   2.019   7.992   0.563 -0.8726  2.8687  1.3386
  631MOL0     H85179   1.911   8.133   0.338 -0.5453  1.3138 -1.2114
  631MOL0     H85180   1.849   7.971   0.317  0.4257 -0.8365  0.7149
  631MOL0     H85181   2.037   8.004   0.175  0.5163 -0.7673 -0.5280
  631MOL0     H85182   2.077   7.882   0.288 -1.0173 -0.5170 -0.8106
  631MOL0     H85183   2.335   8.218   0.404  0.4231 -0.7103  2.8004
  631MOL0     H85184   1.555   8.050   0.684 -1.9994  0.1726  1.3136
  631MOL0     H85185   1.414   7.945   0.804 -0.5272  4.8909  1.3908
  632MOL0     O85186  10.853   0.411   5.006 -0.1123  0.2769  0.0591
  632MOL0     C85187  10.938   0.487   4.950  1.7917 -0.9148 -0.3398
  632MOL0     O85188  10.933   0.624   4.944 -0.2994  0.0112 -0.2312
  632MOL0     C85189  10.816   0.670   4.995 -0.3200  0.3884 -0.1011
  632MOL0     C85190  10.828   0.736   5.121  0.5150 -0.6525 -0.5667
  632MOL0     C85191  10.710   0.782   5.180 -0.3630  0.4172  0.1747
  632MOL0     C85192  10.581   0.772   5.120  1.1989 -0.4606  0.0684
  632MOL0     O85193  10.478   0.818   5.200 -0.0884 -0.0676  0.2423
  632MOL0     C85194  10.344   0.811   5.161  0.6820 -0.7956  0.1543
  632MOL0     C85195  10.249   0.836   5.276 -0.2597  0.5902 -0.1253
  632MOL0     C85196  10.118   0.871   5.229  0.0553  0.3736 -0.7548
  632MOL0     C85197  10.039   0.921   5.351  0.3004  0.4600 -0.1710
  632MOL0     C85198   9.882   0.912   5.334 -0.6124 -0.0580  0.2143
  632MOL0     C85199   9.802   0.959   5.453 -0.2412  0.1990 -0.5908
  632MOL0     C85200   9.825   0.869   5.574 -0.7540  0.1059  0.2629
  632MOL0     C85201   9.922   0.944   5.669  0.2209  0.0501 -0.2190
  632MOL0     N85202   9.845   1.033   5.760 -0.8603  0.0043 -0.3030
  632MOL0     C85203   9.749   0.994   5.857 -0.5455 -1.0328  0.0483
  632MOL0     C85204   9.693   1.117   5.890  0.7026  0.3284  0.9581
  632MOL0     C85205   9.565   1.140   5.966 -0.6737  0.3299 -0.2394
  632MOL0     C85206   9.443   1.112   5.872 -0.1581  0.4486  0.3403
  632MOL0     C85207   9.423   1.217   5.773 -0.6168 -0.3262 -0.0624
  632MOL0     C85208   9.281   1.227   5.716 -0.9542  0.5867  0.6953
  632MOL0     O85209   9.176   1.283   5.799 -0.0953  0.1380 -0.6520
  632MOL0     C85210   9.041   1.280   5.769 -1.1039 -0.2009  0.0288
  632MOL0     C85211   8.989   1.238   5.650  0.6724  0.0375  0.0829
  632MOL0     C85212   8.850   1.243   5.633  0.2504  0.3886  0.8243
  632MOL0     C85213   8.799   1.213   5.495 -0.3359 -0.5037 -0.5028
  632MOL0     C85214   8.767   1.279   5.742 -0.1585  0.9123 -0.5151
  632MOL0     C85215   8.621   1.270   5.741 -0.2040 -0.3757 -0.6500
  632MOL0     O85216   8.544   1.364   5.803  0.3776  0.1822  0.3886
  632MOL0     C85217   8.404   1.354   5.802 -0.2607 -0.3759  0.0364
  632MOL0     C85218   8.323   1.248   5.842  0.2101 -0.8381 -0.5480
  632MOL0     C85219   8.189   1.248   5.851 -0.3776 -1.0562  0.7520
  632MOL0     C85220   8.115   1.363   5.819 -0.0221  0.1090 -0.2532
  632MOL0     O85221   7.973   1.354   5.827  0.5771 -0.2177 -0.2650
  632MOL0     C85222   7.905   1.446   5.742  0.3802  0.1329  0.4481
  632MOL0     C85223   7.755   1.399   5.734  0.1322  0.2442  0.1416
  632MOL0     C85224   7.738   1.273   5.646  0.1577 -0.7184 -0.2872
  632MOL0     C85225   7.601   1.218   5.644 -0.5436  0.5037  0.4481
  632MOL0     C85226   7.604   1.110   5.538 -0.4100 -0.2385  0.1067
  632MOL0     C85227   7.582   1.171   5.401  0.3106 -0.3370  0.9189
  632MOL0     C85228   7.573   1.066   5.289 -0.2931 -0.7639 -0.7221
  632MOL0     C85229   7.543   1.133   5.158  0.1156 -1.0559 -0.1478
  632MOL0    Cl85230   7.373   1.176   5.144  0.7265 -0.4390  0.0717
  632MOL0     C85231   8.192   1.477   5.776  0.2692 -0.6908 -0.2693
  632MOL0     C85232   8.332   1.473   5.773 -0.0369 -0.0370  0.8347
  632MOL0     O85233   8.585   1.168   5.701 -0.8007  0.1655 -0.5246
  632MOL0     C85234   8.826   1.307   5.859 -0.0490 -0.6426 -0.2760
  632MOL0     C85235   8.960   1.317   5.870 -0.2306  0.2855  0.3204
  632MOL0     N85236   9.757   1.227   5.825 -0.2707 -0.2612 -0.5372
  632MOL0     N85237   9.845   1.165   5.751  0.0671  0.0297 -0.6822
  632MOL0     C85238  10.574   0.710   4.992 -0.5444 -0.5065 -0.7410
  632MOL0     C85239  10.692   0.660   4.929  0.1158 -0.4984  0.0143
  632MOL0     C85240  11.040   0.410   4.878  0.0975 -0.3959  0.7266
  632MOL0     C85241  11.130   0.478   4.795  0.6562 -0.3099 -0.4282
  632MOL0     C85242  11.231   0.423   4.720 -0.3239  0.3392 -0.5494
  632MOL0     C85243  11.256   0.287   4.733 -0.3133  0.5051 -0.0027
  632MOL0     O85244  11.350   0.235   4.655 -0.4973 -0.2813 -0.1703
  632MOL0     C85245  11.428   0.117   4.708  0.4058  0.0410  0.2958
  632MOL0     C85246  11.563   0.118   4.639  0.8042  0.0741 -0.2705
  632MOL0     C85247  11.677   0.065   4.729 -0.2614 -0.4085  0.2669
  632MOL0     C85248  11.815   0.100   4.682  0.5008 -0.3382 -0.0331
  632MOL0     C85249  11.903  -0.010   4.708 -0.6792 -0.3987 -0.2989
  632MOL0     C85250  11.978  -0.101   4.736  0.4262 -0.6836  0.2186
  632MOL0     C85251  11.165   0.210   4.805  0.6580  0.0505  0.3969
  632MOL0     C85252  11.056   0.273   4.879 -0.0033 -0.6297  0.0627
  632MOL0     H85253  10.923   0.731   5.173 -1.2670 -0.4837  2.9335
  632MOL0     H85254  10.721   0.806   5.285 -0.7669 -2.3294  0.9231
  632MOL0     H85255  10.330   0.889   5.087  0.1159 -1.4055 -0.3923
  632MOL0     H85256  10.317   0.716   5.113 -1.5201 -1.1515  1.8987
  632MOL0     H85257  10.229   0.747   5.337 -1.3775  1.4452  0.8017
  632MOL0     H85258  10.286   0.915   5.341  0.2245  0.6747 -0.5041
  632MOL0     H85259  10.126   0.936   5.142  0.0233 -1.7171 -2.3936
  632MOL0     H85260  10.062   0.784   5.193 -0.2660 -0.3235  1.2681
  632MOL0     H85261  10.068   0.853   5.431  0.6066  0.1001 -0.5808
  632MOL0     H85262  10.076   1.021   5.379  2.1804 -0.5037  1.0010
  632MOL0     H85263   9.859   0.989   5.259 -0.7637  1.5205  1.8027
  632MOL0     H85264   9.860   0.809   5.304 -0.4968 -0.0110 -0.0435
  632MOL0     H85265   9.825   1.062   5.482 -0.3277  0.7653 -2.3814
  632MOL0     H85266   9.696   0.952   5.428 -0.0165  0.7393 -1.7710
  632MOL0     H85267   9.733   0.846   5.627 -2.4204  0.9269 -2.0831
  632MOL0     H85268   9.871   0.773   5.552 -0.2654  0.0422  1.4756
  632MOL0     H85269   9.995   0.996   5.605 -2.5837  0.5830 -3.2199
  632MOL0     H85270   9.975   0.869   5.729  0.2516 -1.8146 -2.4374
  632MOL0     H85271   9.742   0.888   5.877  1.2352 -0.8552  2.0827
  632MOL0     H85272   9.566   1.080   6.057 -0.1548  0.1503 -0.3591
  632MOL0     H85273   9.559   1.245   5.996 -2.5368  1.0892 -2.8892
  632MOL0     H85274   9.355   1.111   5.936 -0.3324  2.5740  0.1957
  632MOL0     H85275   9.460   1.012   5.830  0.0168 -0.3442  2.2220
  632MOL0     H85276   9.499   1.203   5.696 -0.9332  1.8346 -0.8378
  632MOL0     H85277   9.451   1.306   5.830  0.1132 -0.3336 -0.3995
  632MOL0     H85278   9.250   1.129   5.678 -1.0998  0.1781  1.8412
  632MOL0     H85279   9.294   1.287   5.625 -1.6896 -1.0300 -0.5159
  632MOL0     H85280   9.045   1.205   5.563  1.2828 -3.3277  1.5577
  632MOL0     H85281   8.866   1.245   5.415  0.1908  0.5547  0.3231
  632MOL0     H85282   8.788   1.105   5.487  1.0800 -0.5819 -1.9639
  632MOL0     H85283   8.703   1.263   5.481  0.1152  0.8085  0.7067
  632MOL0     H85284   8.354   1.154   5.887 -4.0787 -1.2739  2.1080
  632MOL0     H85285   8.133   1.160   5.883 -2.3046  0.8161  2.8756
  632MOL0     H85286   7.912   1.548   5.782  3.8707  0.8173 -1.4482
  632MOL0     H85287   7.942   1.447   5.639  0.9848 -0.4203  0.6516
  632MOL0     H85288   7.714   1.373   5.832  0.9660  2.7789  1.2611
  632MOL0     H85289   7.693   1.478   5.691 -1.1580 -1.1467 -0.6122
  632MOL0     H85290   7.813   1.204   5.686  2.0643  2.6765  2.6216
  632MOL0     H85291   7.758   1.313   5.546 -0.2362  1.3137  0.3904
  632MOL0     H85292   7.576   1.178   5.743 -0.2904 -1.4775 -0.2435
  632MOL0     H85293   7.520   1.292   5.632  0.3177  1.1582 -2.0126
  632MOL0     H85294   7.527   1.035   5.555  0.3194 -0.6391  1.8599
  632MOL0     H85295   7.702   1.063   5.534  0.1630  0.6276  2.3636
  632MOL0     H85296   7.503   1.245   5.385  0.9242 -0.4567 -4.9738
  632MOL0     H85297   7.672   1.227   5.376 -0.2325 -0.4960 -1.6668
  632MOL0     H85298   7.493   0.995   5.311  0.9026 -2.0795 -0.4785
  632MOL0     H85299   7.672   1.020   5.279  0.4341  0.5197  0.1435
  632MOL0     H85300   7.578   1.074   5.072 -0.1080  1.4963 -2.0973
  632MOL0     H85301   7.595   1.228   5.144 -5.0823  2.1919 -0.1643
  632MOL0     H85302   8.126   1.561   5.755  0.5392  0.0679  1.6839
  632MOL0     H85303   8.383   1.569   5.769  0.3175 -0.2060  1.2985
  632MOL0     H85304   8.765   1.317   5.949 -3.0417 -2.0211 -2.0145
  632MOL0     H85305   9.004   1.347   5.964 -1.0349 -0.8408  1.0771
  632MOL0     H85306  10.480   0.707   4.938  0.6352  0.0403 -2.9800
  632MOL0     H85307  10.687   0.614   4.831  1.6323  0.4726 -0.5664
  632MOL0     H85308  11.103   0.583   4.789  0.7160 -0.3262 -0.9394
  632MOL0     H85309  11.295   0.483   4.656 -1.1789  0.7848 -1.0165
  632MOL0     H85310  11.436   0.118   4.818 -3.6761 -1.6287  0.7702
  632MOL0     H85311  11.379   0.020   4.698  0.9534 -0.3627  1.2760
  632MOL0     H85312  11.588   0.220   4.608 -3.9050  1.6563  0.2908
  632MOL0     H85313  11.549   0.057   4.549 -0.0508 -0.0501 -0.0637
  632MOL0     H85314  11.659  -0.042   4.743 -0.1672 -0.6979 -1.5525
  632MOL0     H85315  11.655   0.102   4.829  2.3814  0.3411  0.6470
  632MOL0     H85316  11.850   0.192   4.730  0.3725 -0.1328 -0.3249
  632MOL0     H85317  11.798   0.120   4.575 -1.6171  2.4270  0.7121
  632MOL0     H85318  12.037  -0.190   4.740  1.0335 -0.3557 -0.8793
  632MOL0     H85319  11.176   0.103   4.820 -3.0267 -0.6297 -0.6404
  632MOL0     H85320  10.998   0.208   4.943  1.9104 -2.2808  0.2052
  633MOL0     O85321   7.072   5.613   3.750 -0.4945  0.1542 -0.7354
  633MOL0     C85322   7.098   5.566   3.642  0.1212  0.2890  0.2497
  633MOL0     O85323   7.011   5.493   3.572  0.4320 -0.1841  0.0736
  633MOL0     C85324   6.880   5.476   3.628  1.0554 -1.0071 -0.3871
  633MOL0     C85325   6.770   5.516   3.557  0.4487 -0.3840 -0.4025
  633MOL0     C85326   6.643   5.468   3.582  0.5316  0.0083 -0.1262
  633MOL0     C85327   6.634   5.400   3.711  0.5949 -0.7929 -0.1828
  633MOL0     O85328   6.508   5.375   3.743  0.6369  0.0500 -0.2605
  633MOL0     C85329   6.476   5.456   3.858  0.7461  0.2475  0.8146
  633MOL0     C85330   6.332   5.461   3.867 -0.1664 -0.2992  1.0700
  633MOL0     C85331   6.275   5.522   3.740  0.0580  0.7479 -0.8425
  633MOL0     C85332   6.121   5.538   3.745 -0.2427 -0.6724 -0.3150
  633MOL0     C85333   6.084   5.609   3.615  0.4674  0.0983 -0.2376
  633MOL0     C85334   6.112   5.544   3.485 -0.2358  0.6713 -0.4509
  633MOL0     C85335   6.066   5.627   3.375 -0.3063 -0.7978 -0.3004
  633MOL0     C85336   6.089   5.552   3.245 -0.3527  0.0987  0.4218
  633MOL0     N85337   6.034   5.624   3.137  0.1543  0.0366  0.1214
  633MOL0     C85338   6.104   5.715   3.064 -0.2500 -1.1401 -0.3300
  633MOL0     C85339   6.016   5.760   2.963  0.6369  0.4650  0.3541
  633MOL0     C85340   6.049   5.845   2.843 -0.1383 -0.3472 -0.2791
  633MOL0     C85341   6.171   5.948   2.861  0.4341 -0.4848 -0.3228
  633MOL0     C85342   6.138   6.082   2.934  0.4312  0.0932  0.1510
  633MOL0     C85343   6.059   6.187   2.860  0.2365 -0.9601 -0.0052
  633MOL0     O85344   6.123   6.210   2.731 -0.1129 -0.3869 -0.4747
  633MOL0     C85345   6.062   6.263   2.624  0.1494 -0.2291 -0.4496
  633MOL0     C85346   6.147   6.297   2.515  0.6436  0.2838 -0.1063
  633MOL0     C85347   6.103   6.364   2.397 -0.0332  1.1702 -0.1033
  633MOL0     C85348   6.194   6.388   2.277 -0.0873 -1.3248 -0.4503
  633MOL0     C85349   5.967   6.407   2.401 -0.0319 -0.6686  0.4086
  633MOL0     C85350   5.907   6.462   2.283  1.9222  0.2233 -0.1612
  633MOL0     O85351   5.888   6.373   2.178  0.1620 -0.8153  1.0433
  633MOL0     C85352   5.795   6.387   2.083  0.0430  0.3824 -0.9134
  633MOL0     C85353   5.826   6.331   1.957  0.4734 -0.2731 -0.1763
  633MOL0     C85354   5.749   6.341   1.847 -0.1605  0.1559 -0.9205
  633MOL0     C85355   5.623   6.407   1.858  0.5177  0.5558 -0.5516
  633MOL0     O85356   5.538   6.414   1.755 -0.6671 -0.5253 -0.0790
  633MOL0     C85357   5.581   6.469   1.633  0.3062 -0.0181 -0.2543
  633MOL0     C85358   5.574   6.620   1.637 -0.8506 -1.0557 -0.7209
  633MOL0     C85359   5.440   6.674   1.669  0.9067 -0.4377  0.7652
  633MOL0     C85360   5.422   6.828   1.620 -0.4403  0.0510 -0.8346
  633MOL0     C85361   5.282   6.869   1.641 -0.3431 -0.7185 -0.1862
  633MOL0     C85362   5.289   7.028   1.611  0.3202 -0.0326 -0.3003
  633MOL0     C85363   5.146   7.082   1.593 -0.8481 -1.0211 -0.4506
  633MOL0     C85364   5.146   7.231   1.616  0.6844 -0.3409  0.9083
  633MOL0    Cl85365   4.991   7.311   1.577  0.2071 -0.0573  0.1783
  633MOL0     C85366   5.582   6.452   1.984 -0.1620  0.1024  1.0802
  633MOL0     C85367   5.672   6.442   2.094  1.3986 -0.2606 -0.5674
  633MOL0     O85368   5.868   6.579   2.284  0.1328  0.1547 -0.3967
  633MOL0     C85369   5.885   6.380   2.510  0.1433  0.1924  0.0844
  633MOL0     C85370   5.934   6.307   2.619  0.9044  0.0436 -0.1158
  633MOL0     N85371   5.887   5.710   2.993 -0.5521  0.6093 -0.6500
  633MOL0     N85372   5.901   5.623   3.091 -0.1130 -0.6909  0.5035
  633MOL0     C85373   6.741   5.366   3.789  1.0080 -0.2361  0.1864
  633MOL0     C85374   6.865   5.408   3.749 -0.5841 -0.9529  0.3594
  633MOL0     C85375   7.235   5.586   3.584 -0.8134  0.1171  1.0672
  633MOL0     C85376   7.337   5.660   3.656  1.0433  0.4258 -0.3036
  633MOL0     C85377   7.467   5.663   3.600  0.5779 -0.2302 -0.4782
  633MOL0     C85378   7.485   5.627   3.461 -0.0451  0.0182 -0.2012
  633MOL0     O85379   7.613   5.637   3.423 -1.2906  0.6012  0.5041
  633MOL0     C85380   7.640   5.632   3.279 -0.4362 -0.0193 -0.6198
  633MOL0     C85381   7.784   5.668   3.255 -0.2043 -0.3110 -0.2024
  633MOL0     C85382   7.845   5.798   3.317  0.4979  0.5367 -0.0573
  633MOL0     C85383   7.979   5.839   3.254 -0.3297 -0.1674  0.4989
  633MOL0     C85384   8.039   5.936   3.354 -0.3215  0.5578  0.3209
  633MOL0     C85385   8.079   6.030   3.415  0.4418 -0.8493 -0.2160
  633MOL0     C85386   7.380   5.569   3.400  0.4420 -0.4858  1.2136
  633MOL0     C85387   7.255   5.546   3.455  0.0510 -0.0952  0.7154
  633MOL0     H85388   6.775   5.591   3.479 -4.1976  0.4121 -0.2455
  633MOL0     H85389   6.565   5.509   3.520  1.0972  1.0505 -0.1591
  633MOL0     H85390   6.522   5.404   3.943  1.2709  1.5880  1.3678
  633MOL0     H85391   6.510   5.560   3.857 -0.0559  0.5826  3.2179
  633MOL0     H85392   6.289   5.362   3.882 -0.5435 -0.1747  0.8144
  633MOL0     H85393   6.308   5.530   3.949  0.9453  0.4109  0.8284
  633MOL0     H85394   6.314   5.623   3.723  1.2734  0.3772 -0.3503
  633MOL0     H85395   6.301   5.461   3.653  1.5283 -1.6973  1.1731
  633MOL0     H85396   6.089   5.433   3.747 -1.5437 -0.3372 -1.8290
  633MOL0     H85397   6.100   5.600   3.832 -0.1986 -1.9271  0.6186
  633MOL0     H85398   5.977   5.624   3.629  0.6393 -0.6946  2.5811
  633MOL0     H85399   6.135   5.706   3.618 -0.3333  0.5831  3.2962
  633MOL0     H85400   6.216   5.514   3.469 -0.5953  0.0418 -1.7070
  633MOL0     H85401   6.053   5.452   3.493  1.4466 -0.2974  2.7201
  633MOL0     H85402   5.961   5.657   3.385 -0.2623 -1.2452  1.8451
  633MOL0     H85403   6.126   5.718   3.368 -0.1137 -1.0236 -2.3194
  633MOL0     H85404   6.031   5.461   3.260 -0.7124  0.7640  3.7186
  633MOL0     H85405   6.194   5.526   3.234 -0.3934 -0.9239  2.1643
  633MOL0     H85406   6.212   5.725   3.074 -0.3109 -1.3347  0.6010
  633MOL0     H85407   6.066   5.779   2.758 -3.5490 -2.3202  0.3769
  633MOL0     H85408   5.956   5.896   2.816 -0.3318 -0.6305 -0.1541
  633MOL0     H85409   6.214   5.975   2.764 -0.5486 -2.2134 -1.2899
  633MOL0     H85410   6.240   5.887   2.918 -1.0667 -2.0566 -0.1105
  633MOL0     H85411   6.225   6.139   2.967  1.1757  0.4906 -2.2637
  633MOL0     H85412   6.097   6.051   3.030 -1.4070  2.0530  0.0803
  633MOL0     H85413   6.053   6.287   2.903  0.8482 -1.7204  2.0130
  633MOL0     H85414   5.959   6.146   2.847  0.0401  0.2342 -2.9123
  633MOL0     H85415   6.248   6.255   2.516  2.1737  3.6361 -0.1883
  633MOL0     H85416   6.217   6.297   2.220 -1.5998 -1.3481 -1.0847
  633MOL0     H85417   6.142   6.460   2.213  0.5874 -0.3839  0.0443
  633MOL0     H85418   6.289   6.434   2.304 -0.1811 -0.8537 -0.9093
  633MOL0     H85419   5.921   6.279   1.955  1.3701  1.2653  0.4153
  633MOL0     H85420   5.779   6.307   1.748  2.7302  0.8704 -0.3853
  633MOL0     H85421   5.686   6.447   1.613 -0.0148  0.5129 -3.0049
  633MOL0     H85422   5.521   6.434   1.548  0.1349  3.0885 -1.5634
  633MOL0     H85423   5.654   6.653   1.705  0.4695 -1.6861 -1.9027
  633MOL0     H85424   5.605   6.667   1.544  1.5492  1.2499  1.0752
  633MOL0     H85425   5.419   6.654   1.774 -0.6846 -3.3075 -0.0023
  633MOL0     H85426   5.356   6.622   1.622 -0.1035 -0.3012  2.3604
  633MOL0     H85427   5.497   6.883   1.677  3.7957 -0.7997 -4.9504
  633MOL0     H85428   5.442   6.856   1.516  0.8554  4.0827  0.3109
  633MOL0     H85429   5.245   6.841   1.740 -0.7481 -1.1351 -0.4523
  633MOL0     H85430   5.222   6.810   1.571  1.6814 -4.0956  0.6847
  633MOL0     H85431   5.343   7.079   1.692  0.4869  0.9793 -1.0324
  633MOL0     H85432   5.356   7.054   1.529  2.1705 -2.5705  0.3043
  633MOL0     H85433   5.065   7.026   1.642 -1.8629  1.4047  0.8403
  633MOL0     H85434   5.114   7.068   1.490 -0.9790 -0.1304 -0.5376
  633MOL0     H85435   5.221   7.272   1.548  0.6054  0.1706  1.1244
  633MOL0     H85436   5.178   7.251   1.719  1.1731  2.6927  0.2467
  633MOL0     H85437   5.482   6.492   1.991  1.0000  3.3762  0.6878
  633MOL0     H85438   5.647   6.491   2.188  2.9979 -1.4683  0.5500
  633MOL0     H85439   5.788   6.428   2.525  0.8597  0.9738  2.8204
  633MOL0     H85440   5.864   6.285   2.698 -2.0115  2.4844 -1.7861
  633MOL0     H85441   6.730   5.305   3.877  3.3702 -4.7887 -2.2912
  633MOL0     H85442   6.948   5.378   3.812 -1.3735 -3.3712  0.3660
  633MOL0     H85443   7.324   5.691   3.760  0.8144 -1.0888  0.1433
  633MOL0     H85444   7.548   5.721   3.643  0.8595 -1.0395  0.1047
  633MOL0     H85445   7.619   5.536   3.231 -1.2669 -0.2405  0.1645
  633MOL0     H85446   7.572   5.698   3.225  1.1462  0.5086 -2.0568
  633MOL0     H85447   7.795   5.677   3.147 -1.4459  1.5484 -0.2237
  633MOL0     H85448   7.832   5.573   3.282  0.3850  0.1874  0.5885
  633MOL0     H85449   7.864   5.782   3.424  1.5485  3.2871  0.2446
  633MOL0     H85450   7.772   5.879   3.307  2.3245  2.0131 -2.4772
  633MOL0     H85451   7.958   5.887   3.158  2.1800 -1.9587 -1.0746
  633MOL0     H85452   8.052   5.759   3.235 -1.2758 -0.8147 -0.5703
  633MOL0     H85453   8.123   6.110   3.471  0.2415 -0.3210 -0.8166
  633MOL0     H85454   7.395   5.538   3.298  2.8097 -0.8698  1.6262
  633MOL0     H85455   7.166   5.497   3.416 -0.2997  1.0450  0.0605
  634MOL0     O85456   6.085   2.717   0.093 -0.1476 -0.5097 -0.6612
  634MOL0     C85457   6.147   2.674   0.192 -0.1131  0.2378 -0.3920
  634MOL0     O85458   6.094   2.637   0.305 -0.6527 -0.3373  0.2409
  634MOL0     C85459   5.967   2.587   0.301  0.0834 -0.3589 -0.0607
  634MOL0     C85460   5.936   2.453   0.331 -0.0352 -0.6221 -0.2603
  634MOL0     C85461   5.804   2.415   0.329  0.2145 -0.2285  0.2663
  634MOL0     C85462   5.701   2.499   0.286  0.3695 -0.5160  0.1846
  634MOL0     O85463   5.564   2.455   0.292 -1.0282  0.2853  1.3170
  634MOL0     C85464   5.522   2.322   0.275 -0.2866  0.7174  0.5452
  634MOL0     C85465   5.492   2.265   0.404  0.3572 -0.1192 -0.1563
  634MOL0     C85466   5.353   2.209   0.420 -0.2796 -0.8774  0.1897
  634MOL0     C85467   5.267   2.326   0.466  0.1363  0.6182 -0.3776
  634MOL0     C85468   5.129   2.279   0.424  1.1582  0.1207 -0.5861
  634MOL0     C85469   5.026   2.379   0.480  1.0232  0.5308  0.4083
  634MOL0     C85470   4.884   2.317   0.464  0.5604 -0.2650 -0.8647
  634MOL0     C85471   4.784   2.418   0.529  0.0388 -0.1159  0.0007
  634MOL0     N85472   4.646   2.377   0.521 -0.5569 -0.0316 -0.6429
  634MOL0     C85473   4.589   2.282   0.444  0.2693 -1.0991 -0.3165
  634MOL0     C85474   4.455   2.285   0.468  0.3062 -0.9236 -0.0043
  634MOL0     C85475   4.363   2.184   0.412 -0.6340  0.3564  0.6765
  634MOL0     C85476   4.211   2.206   0.411 -0.7558 -0.3205 -0.3075
  634MOL0     C85477   4.133   2.220   0.540  0.0334  0.0860 -0.3133
  634MOL0     C85478   3.978   2.208   0.510 -0.3273 -0.3710  0.7898
  634MOL0     O85479   3.942   2.315   0.419 -0.1854  0.1474  0.0976
  634MOL0     C85480   3.811   2.335   0.401  0.1736 -0.6124  0.2241
  634MOL0     C85481   3.783   2.449   0.328 -0.7405  0.0326  0.7597
  634MOL0     C85482   3.658   2.497   0.294 -0.5600 -0.4030 -0.6144
  634MOL0     C85483   3.648   2.624   0.204 -0.0512  0.9407 -0.0343
  634MOL0     C85484   3.542   2.433   0.344  0.2792  0.2018  0.8722
  634MOL0     C85485   3.408   2.476   0.330 -0.5276  0.1535  0.0026
  634MOL0     O85486   3.325   2.428   0.427  0.1256 -0.4117 -0.6792
  634MOL0     C85487   3.193   2.467   0.438 -0.3061  1.2083 -0.5872
  634MOL0     C85488   3.116   2.521   0.337 -0.7709  0.3055 -0.4070
  634MOL0     C85489   2.983   2.553   0.356  0.4596 -0.0861  0.1112
  634MOL0     C85490   2.917   2.517   0.474 -0.5591 -0.3070 -0.5387
  634MOL0     O85491   2.790   2.539   0.505 -0.1619  0.4993 -0.2316
  634MOL0     C85492   2.690   2.592   0.410 -0.9036  0.2414 -0.9137
  634MOL0     C85493   2.564   2.632   0.491 -0.8993 -0.0286 -0.5955
  634MOL0     C85494   2.449   2.687   0.404  0.4928  0.3803  0.0565
  634MOL0     C85495   2.314   2.669   0.479  0.6530  1.0648  0.9122
  634MOL0     C85496   2.202   2.705   0.390  0.2799  0.0713 -0.3631
  634MOL0     C85497   2.056   2.714   0.457  0.0649  0.1501  0.2668
  634MOL0     C85498   2.004   2.588   0.527 -0.0288 -0.0304  0.3916
  634MOL0     C85499   1.909   2.525   0.427  0.1646 -1.1873  0.0046
  634MOL0    Cl85500   1.996   2.484   0.272 -0.4210  0.0435 -0.2828
  634MOL0     C85501   2.995   2.465   0.576 -0.5549  0.2889 -0.2748
  634MOL0     C85502   3.126   2.430   0.562 -0.6288  0.7960  0.7932
  634MOL0     O85503   3.381   2.571   0.250  0.1920 -0.4167  0.6411
  634MOL0     C85504   3.562   2.303   0.407 -0.6806  0.3599  0.7325
  634MOL0     C85505   3.697   2.265   0.440 -0.1617  0.3403  0.4625
  634MOL0     N85506   4.441   2.363   0.572  0.0240 -0.5438 -0.5072
  634MOL0     N85507   4.551   2.415   0.612 -0.6122 -0.4791 -0.6644
  634MOL0     C85508   5.723   2.636   0.267 -0.0535 -0.0712 -0.3352
  634MOL0     C85509   5.857   2.676   0.283 -0.5771 -0.8032  0.6309
  634MOL0     C85510   6.298   2.663   0.186 -0.0337 -0.3560  0.4266
  634MOL0     C85511   6.370   2.613   0.294  0.1511  0.4399 -0.3517
  634MOL0     C85512   6.512   2.607   0.288 -0.0539  0.6461 -0.7129
  634MOL0     C85513   6.579   2.621   0.170  0.4933 -0.1653  0.0667
  634MOL0     O85514   6.712   2.619   0.154 -0.3530 -0.1094  1.4853
  634MOL0     C85515   6.796   2.697   0.242  0.1746 -0.5098 -0.3215
  634MOL0     C85516   6.940   2.655   0.233  0.2934  0.3480 -0.0245
  634MOL0     C85517   7.039   2.763   0.283  0.5712 -0.8137  0.6777
  634MOL0     C85518   7.034   2.758   0.437 -0.2096 -0.3932 -0.8431
  634MOL0     C85519   7.164   2.805   0.482 -0.4629 -1.0555 -0.1880
  634MOL0     C85520   7.270   2.855   0.520  0.4676  0.1371  0.3575
  634MOL0     C85521   6.506   2.672   0.061 -0.2634  0.3902 -0.2486
  634MOL0     C85522   6.369   2.690   0.069 -0.3365  1.6302 -0.3278
  634MOL0     H85523   6.009   2.379   0.362 -0.8882 -1.4678 -0.2317
  634MOL0     H85524   5.784   2.315   0.366 -0.6717  0.6240  2.1907
  634MOL0     H85525   5.431   2.316   0.213  0.1857 -0.7181 -0.0634
  634MOL0     H85526   5.600   2.266   0.222 -0.1883  2.9253 -1.8143
  634MOL0     H85527   5.560   2.180   0.399  1.5078  0.7903 -0.4756
  634MOL0     H85528   5.522   2.334   0.484  5.2021 -0.5827 -1.2874
  634MOL0     H85529   5.331   2.170   0.320  3.3479  1.4221 -1.7199
  634MOL0     H85530   5.352   2.131   0.497  1.0470 -1.4957 -0.3884
  634MOL0     H85531   5.260   2.344   0.574  3.4157 -0.6077  0.1602
  634MOL0     H85532   5.294   2.422   0.423 -1.2055  1.7025  1.0778
  634MOL0     H85533   5.115   2.261   0.317 -1.6933  0.1682 -0.3056
  634MOL0     H85534   5.101   2.189   0.479  0.8263  3.6800  6.0935
  634MOL0     H85535   5.043   2.388   0.588 -1.1193 -3.5899  1.2716
  634MOL0     H85536   5.035   2.471   0.420  2.7138  1.0765  1.4175
  634MOL0     H85537   4.851   2.294   0.363 -0.1539 -2.2092 -0.2331
  634MOL0     H85538   4.870   2.223   0.518 -0.8674  0.3419 -0.0988
  634MOL0     H85539   4.796   2.507   0.466  1.5934  0.7885  1.4817
  634MOL0     H85540   4.819   2.431   0.632  0.3983 -0.4391 -0.0772
  634MOL0     H85541   4.650   2.235   0.367  0.7599  3.4387 -3.1311
  634MOL0     H85542   4.402   2.147   0.317 -1.6830 -1.5600  0.9265
  634MOL0     H85543   4.381   2.093   0.470  0.9976  1.6440  2.2993
  634MOL0     H85544   4.158   2.124   0.361 -1.0894  0.4675 -1.2802
  634MOL0     H85545   4.197   2.294   0.348 -0.0022 -1.6935 -2.5007
  634MOL0     H85546   4.155   2.316   0.587 -0.6124  0.4686 -0.7777
  634MOL0     H85547   4.163   2.135   0.602 -2.3765 -0.7867 -0.2509
  634MOL0     H85548   3.921   2.242   0.597  0.1073  0.9105  0.5980
  634MOL0     H85549   3.951   2.114   0.463 -3.7115  0.9341 -0.1748
  634MOL0     H85550   3.870   2.507   0.297  0.3345 -1.2157  1.3543
  634MOL0     H85551   3.753   2.647   0.184 -0.0250  0.9212  0.0778
  634MOL0     H85552   3.594   2.597   0.113  1.8259 -0.1769 -0.8821
  634MOL0     H85553   3.605   2.705   0.264 -1.4830  0.8299 -0.8848
  634MOL0     H85554   3.158   2.533   0.238  2.8601 -0.9024  0.8322
  634MOL0     H85555   2.924   2.592   0.274 -1.6979 -3.4508 -0.1489
  634MOL0     H85556   2.721   2.675   0.346 -0.2649 -0.2727 -1.2817
  634MOL0     H85557   2.671   2.510   0.341 -0.6849 -1.0821  0.5380
  634MOL0     H85558   2.521   2.541   0.534 -0.9254 -0.2500 -1.0917
  634MOL0     H85559   2.590   2.703   0.571  2.1964 -3.0992  1.4128
  634MOL0     H85560   2.453   2.639   0.306 -1.7523  0.5085 -0.1502
  634MOL0     H85561   2.456   2.796   0.394 -4.7874  0.8001 -2.1791
  634MOL0     H85562   2.298   2.569   0.518  0.0136  0.9637  0.3941
  634MOL0     H85563   2.307   2.735   0.567 -1.4525  1.6988  0.3155
  634MOL0     H85564   2.200   2.643   0.300 -3.3062 -1.9003  0.8955
  634MOL0     H85565   2.211   2.811   0.363  1.8909  0.3279  0.9626
  634MOL0     H85566   2.060   2.793   0.532 -0.2726 -0.0098  0.4557
  634MOL0     H85567   1.990   2.744   0.376  1.6857 -0.4331 -1.3228
  634MOL0     H85568   1.963   2.616   0.625 -0.7435  1.1650 -0.2359
  634MOL0     H85569   2.086   2.521   0.554  2.6337  2.3759 -1.1882
  634MOL0     H85570   1.834   2.601   0.404  0.6453  0.0406  2.2510
  634MOL0     H85571   1.858   2.438   0.469  2.3966 -1.6695  1.9777
  634MOL0     H85572   2.954   2.458   0.677  1.0458  0.4344  0.4216
  634MOL0     H85573   3.183   2.387   0.643  1.4407 -1.8058 -1.8172
  634MOL0     H85574   3.485   2.230   0.429  0.6436 -1.0623  0.8432
  634MOL0     H85575   3.703   2.167   0.485  0.3480 -1.3545 -2.9142
  634MOL0     H85576   5.638   2.702   0.251  1.3274  1.8034 -0.2700
  634MOL0     H85577   5.862   2.784   0.283  0.0880 -0.7912 -1.4213
  634MOL0     H85578   6.321   2.587   0.387  1.1322  0.2077  0.1124
  634MOL0     H85579   6.574   2.571   0.370 -1.2596  0.1136 -0.0082
  634MOL0     H85580   6.794   2.803   0.215  0.2023 -0.2135  0.8191
  634MOL0     H85581   6.768   2.681   0.346  3.7187 -2.9007  0.4463
  634MOL0     H85582   6.965   2.646   0.127 -2.0606  2.6309 -0.8882
  634MOL0     H85583   6.943   2.560   0.287  0.2970  0.7609  0.7124
  634MOL0     H85584   7.019   2.866   0.249 -2.2099 -1.7126 -0.6775
  634MOL0     H85585   7.144   2.747   0.255  1.3973  3.7164  0.3764
  634MOL0     H85586   7.030   2.653   0.466  0.5031  0.3670  2.4015
  634MOL0     H85587   6.949   2.818   0.471  0.8320 -0.1492  1.4933
  634MOL0     H85588   7.355   2.913   0.549  0.2474 -0.1011  1.5235
  634MOL0     H85589   6.552   2.690  -0.037  3.1421 -2.0388  0.7133
  634MOL0     H85590   6.321   2.728  -0.020  0.3176  1.2923 -0.8278
  635MOL0     O85591   2.631   6.248   4.522 -0.6595 -0.1945 -0.5755
  635MOL0     C85592   2.633   6.313   4.627 -0.4081 -0.8299  0.9535
  635MOL0     O85593   2.539   6.302   4.726 -0.7782 -0.0026  0.7898
  635MOL0     C85594   2.440   6.207   4.723  1.3323  0.0636  0.3355
  635MOL0     C85595   2.450   6.077   4.685 -0.2704 -0.5724 -0.1321
  635MOL0     C85596   2.357   5.989   4.716  0.2278  0.7101 -0.3822
  635MOL0     C85597   2.239   6.016   4.787  0.0745 -0.3952 -0.8010
  635MOL0     O85598   2.144   5.927   4.834 -0.5961  0.0477  0.1604
  635MOL0     C85599   2.013   5.954   4.793 -0.0398  0.3661 -0.3659
  635MOL0     C85600   1.936   5.936   4.933  0.5945  0.9304  0.1117
  635MOL0     C85601   1.799   5.890   4.903  0.3841 -0.7105  0.8010
  635MOL0     C85602   1.717   5.923   5.025  0.2079  0.7029  0.1498
  635MOL0     C85603   1.570   5.892   5.007 -0.5645  0.4240 -0.1690
  635MOL0     C85604   1.509   5.939   5.136 -0.1580 -0.2243 -0.5414
  635MOL0     C85605   1.364   5.906   5.162  0.2333 -0.2196 -0.2506
  635MOL0     C85606   1.343   5.754   5.168 -0.3016 -0.4500  0.4373
  635MOL0     N85607   1.229   5.736   5.259  0.2156  0.2593  0.9278
  635MOL0     C85608   1.096   5.772   5.239  0.8858 -0.0806  0.4011
  635MOL0     C85609   1.032   5.719   5.349 -0.2599  0.2974 -1.0525
  635MOL0     C85610   0.882   5.742   5.393 -0.6591 -0.5361 -0.2577
  635MOL0     C85611   0.858   5.897   5.432 -0.1850  0.5752  0.1224
  635MOL0     C85612   0.937   5.910   5.572 -0.2038 -0.6122 -0.9965
  635MOL0     C85613   0.892   6.034   5.647  0.8461 -0.0700 -0.1786
  635MOL0     O85614   0.748   6.020   5.668  0.0466  0.1856 -0.6993
  635MOL0     C85615   0.701   6.105   5.768 -0.3028 -0.4318 -0.8771
  635MOL0     C85616   0.732   6.244   5.791  0.5730  0.5385 -0.6491
  635MOL0     C85617   0.658   6.319   5.886 -0.5282 -0.2180  0.6381
  635MOL0     C85618   0.702   6.463   5.897  0.4157  0.5088  0.9189
  635MOL0     C85619   0.546   6.268   5.961 -0.1651 -0.7721 -0.0358
  635MOL0     C85620   0.459   6.343   6.062 -0.1961 -0.4221  0.7901
  635MOL0     O85621   0.420   6.272   6.175  0.5402 -0.4119  0.3299
  635MOL0     C85622   0.333   6.334   6.262 -0.0892  0.4928  0.6758
  635MOL0     C85623   0.366   6.331   6.398  0.0157 -0.2923 -0.6468
  635MOL0     C85624   0.263   6.346   6.498 -1.3431 -0.6595  0.0050
  635MOL0     C85625   0.141   6.390   6.465  0.2816 -0.6193 -0.9533
  635MOL0     O85626   0.055   6.433   6.564  0.3580 -0.3734 -0.4636
  635MOL0     C85627  -0.010   6.558   6.550 -0.0394  0.7557  0.3473
  635MOL0     C85628  -0.129   6.572   6.451 -0.8250 -0.0957 -0.0884
  635MOL0     C85629  -0.214   6.688   6.500  0.7146 -0.1641 -0.4990
  635MOL0     C85630  -0.142   6.814   6.484  0.3725  0.3523  0.7834
  635MOL0     C85631  -0.240   6.935   6.476 -0.4585  0.6615  0.2881
  635MOL0     C85632  -0.159   7.050   6.424 -0.3856  0.2514  0.0725
  635MOL0     C85633  -0.235   7.180   6.432 -0.1563 -0.1962  0.2281
  635MOL0     C85634  -0.372   7.161   6.361 -0.0323 -0.3501 -0.5736
  635MOL0    Cl85635  -0.355   7.077   6.195  0.6227  0.0252 -0.1842
  635MOL0     C85636   0.103   6.395   6.330 -0.7849  0.1547  0.4221
  635MOL0     C85637   0.201   6.370   6.231  0.3518 -0.5537 -0.3264
  635MOL0     O85638   0.440   6.461   6.040  0.1668  0.4893  0.1204
  635MOL0     C85639   0.519   6.128   5.940  0.6088  0.4847  1.3917
  635MOL0     C85640   0.591   6.058   5.842 -0.4338  0.8171 -0.3069
  635MOL0     N85641   1.128   5.665   5.428 -0.3122  0.4750  0.5364
  635MOL0     N85642   1.244   5.673   5.376 -0.4804  0.6105 -0.4989
  635MOL0     C85643   2.223   6.152   4.822  0.3488  0.7323  0.6007
  635MOL0     C85644   2.328   6.240   4.797  0.0431 -0.1850  0.4392
  635MOL0     C85645   2.742   6.419   4.641  0.3892 -0.3796  0.3550
  635MOL0     C85646   2.878   6.396   4.611  0.2207 -0.5194  0.1877
  635MOL0     C85647   2.977   6.497   4.627  0.2935 -0.0800  0.1006
  635MOL0     C85648   2.941   6.620   4.683  0.1219 -0.0859 -0.0217
  635MOL0     O85649   3.032   6.721   4.683  0.4629  0.7028  0.7614
  635MOL0     C85650   2.998   6.843   4.619 -0.3460 -0.2784 -0.6393
  635MOL0     C85651   3.087   6.958   4.666  0.6569  0.3834 -0.6695
  635MOL0     C85652   3.241   6.933   4.663  0.3194  0.1454 -0.6619
  635MOL0     C85653   3.328   7.047   4.717  0.8122  0.2107  0.0332
  635MOL0     C85654   3.475   7.023   4.702  0.0512 -0.2749 -0.3184
  635MOL0     C85655   3.589   7.010   4.681 -0.0959  0.9337 -0.2156
  635MOL0     C85656   2.808   6.632   4.726 -0.6814  0.4106 -0.3816
  635MOL0     C85657   2.708   6.546   4.699  0.9449  0.0031  0.9727
  635MOL0     H85658   2.540   6.032   4.644  1.2185  0.3556  1.9346
  635MOL0     H85659   2.366   5.887   4.681  0.9934  0.8986 -0.7537
  635MOL0     H85660   1.995   6.052   4.749 -0.0944  1.5984  2.2024
  635MOL0     H85661   1.980   5.880   4.719 -1.8676  1.9849 -1.2530
  635MOL0     H85662   1.982   5.857   4.994 -1.4647 -0.9010 -0.5579
  635MOL0     H85663   1.945   6.024   4.997 -0.4513  0.9594  0.2457
  635MOL0     H85664   1.753   5.949   4.823 -1.2609  0.5369  2.5784
  635MOL0     H85665   1.794   5.789   4.862  1.7318  0.2759 -2.1057
  635MOL0     H85666   1.768   5.870   5.106  0.7637  0.1674 -0.5430
  635MOL0     H85667   1.728   6.028   5.054 -1.0890  0.9870 -0.3292
  635MOL0     H85668   1.517   5.933   4.921 -0.6139  3.1214  1.0456
  635MOL0     H85669   1.556   5.786   4.986  0.1191 -0.0516  1.5300
  635MOL0     H85670   1.563   5.895   5.220  0.2072  0.2025 -0.5507
  635MOL0     H85671   1.510   6.049   5.131  0.5306 -0.0504  2.0628
  635MOL0     H85672   1.345   5.939   5.264 -1.3512 -0.6013 -0.3819
  635MOL0     H85673   1.290   5.949   5.094  2.6730  2.9446 -1.1126
  635MOL0     H85674   1.426   5.689   5.199 -2.0290 -2.5323  0.9291
  635MOL0     H85675   1.321   5.710   5.070  0.3190  1.0753 -0.4337
  635MOL0     H85676   1.053   5.833   5.160 -0.0133 -0.7260  0.3842
  635MOL0     H85677   0.818   5.712   5.309 -2.0352  0.8704  0.2507
  635MOL0     H85678   0.857   5.672   5.473 -0.8105 -1.9254 -1.4698
  635MOL0     H85679   0.751   5.909   5.450 -0.6542 -1.0487 -1.2757
  635MOL0     H85680   0.896   5.968   5.358  5.5420 -1.7037  0.3531
  635MOL0     H85681   1.045   5.902   5.554 -0.4164 -2.1600 -1.7279
  635MOL0     H85682   0.910   5.824   5.634  2.1860 -0.9275 -0.2875
  635MOL0     H85683   0.922   6.126   5.596  1.5048  1.1769  2.3011
  635MOL0     H85684   0.945   6.023   5.741 -2.6537 -3.9321  1.6803
  635MOL0     H85685   0.812   6.292   5.735  1.0823 -0.1030 -0.4909
  635MOL0     H85686   0.618   6.528   5.871 -0.4882 -0.7021  0.7265
  635MOL0     H85687   0.720   6.506   5.995  0.7374  0.4792  0.8735
  635MOL0     H85688   0.789   6.475   5.833  0.4746 -1.4066  0.5763
  635MOL0     H85689   0.470   6.311   6.422 -1.0101 -1.0167  4.3151
  635MOL0     H85690   0.280   6.350   6.605  1.1106  1.5738 -0.3682
  635MOL0     H85691  -0.049   6.584   6.649 -3.4095 -1.3318 -0.2589
  635MOL0     H85692   0.071   6.623   6.515  0.8303 -1.1077 -1.3127
  635MOL0     H85693  -0.094   6.596   6.350  2.0125  3.6412  1.5569
  635MOL0     H85694  -0.187   6.479   6.449 -3.2947  1.3359  0.2636
  635MOL0     H85695  -0.252   6.682   6.602 -1.7164  1.4284 -1.2449
  635MOL0     H85696  -0.293   6.682   6.425  0.8263 -1.8848 -0.5399
  635MOL0     H85697  -0.087   6.825   6.578 -2.3138  1.1651  2.3673
  635MOL0     H85698  -0.087   6.801   6.390 -1.2492 -1.5280  0.0310
  635MOL0     H85699  -0.290   6.961   6.569 -1.2920  0.7906 -0.1907
  635MOL0     H85700  -0.321   6.916   6.405 -0.3454  0.6187  0.1708
  635MOL0     H85701  -0.068   7.064   6.482  2.0471 -0.5349 -3.2469
  635MOL0     H85702  -0.130   7.041   6.319 -2.0252 -0.3413 -0.3691
  635MOL0     H85703  -0.179   7.256   6.378  0.6212 -0.7246  0.2793
  635MOL0     H85704  -0.247   7.228   6.529 -2.5455  0.4450 -0.3203
  635MOL0     H85705  -0.423   7.257   6.358  0.2833  0.0579  2.9242
  635MOL0     H85706  -0.436   7.103   6.428 -1.3898  0.7289 -0.8952
  635MOL0     H85707  -0.001   6.396   6.301 -1.4023  0.3837  2.4886
  635MOL0     H85708   0.167   6.376   6.128  1.4049  0.0609 -0.6610
  635MOL0     H85709   0.445   6.081   6.004 -2.9068  3.2351 -0.3189
  635MOL0     H85710   0.565   5.954   5.829 -0.5423  1.0486 -2.2602
  635MOL0     H85711   2.134   6.183   4.875 -1.5173  0.3108 -2.1062
  635MOL0     H85712   2.313   6.343   4.826 -4.3999 -0.3746 -0.5201
  635MOL0     H85713   2.903   6.297   4.574  0.8651 -1.2116  2.3121
  635MOL0     H85714   3.078   6.473   4.596  0.3603  0.9193 -0.5046
  635MOL0     H85715   3.017   6.824   4.513 -0.6973 -0.3726 -0.6869
  635MOL0     H85716   2.894   6.872   4.633 -0.8210 -1.9646 -0.5154
  635MOL0     H85717   3.056   6.977   4.769 -1.8246  1.0550 -1.4750
  635MOL0     H85718   3.062   7.040   4.598 -3.9333 -1.1535 -1.1802
  635MOL0     H85719   3.264   6.904   4.560 -2.9202 -2.1722 -0.8937
  635MOL0     H85720   3.274   6.850   4.727 -2.7312 -0.4172  0.3255
  635MOL0     H85721   3.306   7.060   4.823 -4.0654 -2.3566 -0.3572
  635MOL0     H85722   3.298   7.141   4.670 -0.9530  0.0770  0.7961
  635MOL0     H85723   3.693   6.992   4.665 -0.7764  0.1248 -5.9762
  635MOL0     H85724   2.771   6.723   4.772 -0.4557 -0.1825  1.0347
  635MOL0     H85725   2.604   6.562   4.726  0.0140 -0.7072 -1.8365
  636MOL0     O85726   5.070   2.927   6.243  0.1205  0.3209  0.0772
  636MOL0     C85727   5.072   2.802   6.238 -0.0211 -0.8297 -0.6478
  636MOL0     O85728   5.179   2.730   6.259 -0.1602  0.1133 -0.1967
  636MOL0     C85729   5.303   2.780   6.300 -0.5368 -1.1268 -0.2055
  636MOL0     C85730   5.331   2.903   6.365 -0.4051 -0.6627 -0.2441
  636MOL0     C85731   5.462   2.928   6.399 -0.0033 -0.3951  0.0302
  636MOL0     C85732   5.565   2.846   6.368 -0.1198 -0.7793  0.0889
  636MOL0     O85733   5.698   2.888   6.400  0.3697  0.1180  0.5473
  636MOL0     C85734   5.742   2.837   6.523 -0.7444  1.0049  0.6041
  636MOL0     C85735   5.889   2.889   6.541 -0.3496 -0.3765  0.4681
  636MOL0     C85736   5.933   2.824   6.677  0.0847  0.3809 -0.0379
  636MOL0     C85737   6.075   2.858   6.724  1.0845  0.1051 -0.4600
  636MOL0     C85738   6.098   2.782   6.861 -0.0186 -0.1173 -0.0559
  636MOL0     C85739   6.016   2.830   6.977  0.6986  0.2598 -0.3110
  636MOL0     C85740   6.084   2.787   7.109 -0.3783  0.1884  1.1657
  636MOL0     C85741   6.001   2.831   7.232 -1.4752 -0.9739 -0.5084
  636MOL0     N85742   5.882   2.757   7.263 -0.1849  0.2958 -0.5853
  636MOL0     C85743   5.851   2.672   7.367 -0.7589  0.5704  0.4595
  636MOL0     C85744   5.716   2.648   7.357 -0.2470 -0.2743 -0.3589
  636MOL0     C85745   5.644   2.545   7.433 -0.4742  0.2823  0.1644
  636MOL0     C85746   5.508   2.520   7.372 -0.2610  0.7308 -0.6779
  636MOL0     C85747   5.433   2.402   7.447  0.2839  0.0130 -0.2200
  636MOL0     C85748   5.291   2.386   7.403 -0.5406  1.1065 -0.0396
  636MOL0     O85749   5.249   2.252   7.435  0.1386  0.2247 -0.3354
  636MOL0     C85750   5.121   2.246   7.488 -0.3964 -0.0607  0.2821
  636MOL0     C85751   5.022   2.327   7.442  0.5839  0.1863  0.3095
  636MOL0     C85752   4.887   2.315   7.489  0.3787 -1.1299 -0.8818
  636MOL0     C85753   4.788   2.402   7.429  0.9467 -0.3676 -0.0846
  636MOL0     C85754   4.854   2.208   7.578  0.3866 -0.4717 -0.1012
  636MOL0     C85755   4.715   2.198   7.623  0.2255  0.3003  1.0479
  636MOL0     O85756   4.646   2.303   7.664  0.4498  0.1860  0.2414
  636MOL0     C85757   4.506   2.297   7.684  0.4993 -0.1239  0.0248
  636MOL0     C85758   4.448   2.380   7.786  0.9786 -0.4602  0.1979
  636MOL0     C85759   4.315   2.382   7.809 -0.6326 -0.4039  0.9144
  636MOL0     C85760   4.231   2.317   7.719 -0.2215  0.3704 -0.0000
  636MOL0     O85761   4.100   2.344   7.740 -0.4242 -0.3480 -0.6868
  636MOL0     C85762   4.007   2.290   7.634 -0.0528 -0.5583  0.1313
  636MOL0     C85763   3.878   2.360   7.644 -0.5715 -0.2288 -0.0241
  636MOL0     C85764   3.793   2.334   7.521  0.1582  0.2260 -0.6817
  636MOL0     C85765   3.656   2.281   7.559 -0.4321 -0.1827 -0.3650
  636MOL0     C85766   3.599   2.181   7.460 -0.0565  0.0485 -0.3817
  636MOL0     C85767   3.608   2.243   7.317  0.2113  0.0164  0.0809
  636MOL0     C85768   3.506   2.181   7.210 -0.1328  0.7884  0.9117
  636MOL0     C85769   3.539   2.225   7.062 -0.3730  0.4672 -0.3881
  636MOL0    Cl85770   3.467   2.393   7.044 -0.1994 -0.2978  0.0980
  636MOL0     C85771   4.286   2.229   7.622  0.1880 -0.2214  0.3927
  636MOL0     C85772   4.421   2.217   7.605  0.0472 -0.8127 -0.6738
  636MOL0     O85773   4.674   2.082   7.625 -0.0343 -0.2810  0.0978
  636MOL0     C85774   4.951   2.117   7.616 -0.1376  0.0154  0.5230
  636MOL0     C85775   5.080   2.142   7.575 -0.2126  0.6718 -0.2106
  636MOL0     N85776   5.673   2.715   7.243 -0.1391 -1.3551 -0.2899
  636MOL0     N85777   5.773   2.776   7.189 -0.0953 -0.9044 -0.1443
  636MOL0     C85778   5.541   2.724   6.312  0.1153 -0.0465 -0.2232
  636MOL0     C85779   5.410   2.690   6.283 -1.0600 -0.3182 -0.1434
  636MOL0     C85780   4.950   2.739   6.198  0.1139  0.3140 -0.4154
  636MOL0     C85781   4.842   2.817   6.152  0.2883  0.0813 -0.6414
  636MOL0     C85782   4.733   2.747   6.099  0.2526 -0.3714  0.6295
  636MOL0     C85783   4.722   2.608   6.097  0.3087  0.0771 -0.4962
  636MOL0     O85784   4.597   2.559   6.071  0.6936 -0.0583 -0.4975
  636MOL0     C85785   4.570   2.422   6.061 -0.2626  0.2852 -0.5111
  636MOL0     C85786   4.521   2.364   6.194 -0.9703 -0.4370  0.7969
  636MOL0     C85787   4.392   2.432   6.247 -0.2579  0.1211  0.5863
  636MOL0     C85788   4.264   2.387   6.175 -0.2182 -0.0361 -0.0484
  636MOL0     C85789   4.207   2.256   6.223  0.9626  0.8799  0.9080
  636MOL0     C85790   4.154   2.145   6.259 -0.1265 -0.0921 -0.3560
  636MOL0     C85791   4.840   2.532   6.130  0.1291  0.9332 -0.2868
  636MOL0     C85792   4.949   2.599   6.167  0.5314 -0.7279  0.5500
  636MOL0     H85793   5.253   2.960   6.414  0.5427  0.0285  0.5044
  636MOL0     H85794   5.487   3.017   6.456 -1.9060 -0.3550  0.9090
  636MOL0     H85795   5.679   2.864   6.607  1.4014 -1.4816  3.2212
  636MOL0     H85796   5.745   2.728   6.512 -1.5071  1.1778 -1.9466
  636MOL0     H85797   5.954   2.863   6.457 -0.2808  0.0510  0.3881
  636MOL0     H85798   5.888   2.999   6.541 -2.0680 -0.3673  0.1367
  636MOL0     H85799   5.856   2.849   6.750  0.4945  1.1847  0.1244
  636MOL0     H85800   5.932   2.718   6.649 -0.9618  0.7184 -1.4346
  636MOL0     H85801   6.151   2.843   6.647  1.7733  2.4886 -0.3486
  636MOL0     H85802   6.075   2.967   6.740 -1.6510  0.0198  0.7376
  636MOL0     H85803   6.073   2.677   6.840 -0.8949  0.6465 -3.5368
  636MOL0     H85804   6.200   2.801   6.896 -0.4824  1.7358  0.4070
  636MOL0     H85805   6.006   2.939   6.978 -3.9947  0.0537 -2.2158
  636MOL0     H85806   5.918   2.782   6.973  2.4142 -3.6835  0.3319
  636MOL0     H85807   6.101   2.680   7.119  2.5442  0.7045  2.8840
  636MOL0     H85808   6.185   2.829   7.103  0.0463 -0.9806 -1.2469
  636MOL0     H85809   5.963   2.934   7.231 -0.1859 -0.4496  0.7019
  636MOL0     H85810   6.066   2.820   7.319  0.1379  1.2956 -1.3303
  636MOL0     H85811   5.916   2.610   7.428  1.5833  0.4646 -1.9423
  636MOL0     H85812   5.706   2.455   7.429  2.0671  1.8185 -4.9442
  636MOL0     H85813   5.636   2.590   7.532 -1.2552 -1.8349  1.1096
  636MOL0     H85814   5.521   2.484   7.270  3.4917 -1.0512  0.2599
  636MOL0     H85815   5.440   2.605   7.370 -1.2690  0.0227  0.8138
  636MOL0     H85816   5.429   2.423   7.554  0.1492  4.4490 -0.9202
  636MOL0     H85817   5.483   2.305   7.435  1.3027  0.0071  3.1315
  636MOL0     H85818   5.280   2.393   7.295 -0.5116 -3.7925 -0.5540
  636MOL0     H85819   5.233   2.462   7.458 -2.5608  0.3780 -1.0786
  636MOL0     H85820   5.035   2.390   7.355 -2.8587 -1.6249 -1.7303
  636MOL0     H85821   4.705   2.349   7.381  2.2573 -0.6851 -2.1328
  636MOL0     H85822   4.750   2.480   7.495 -1.8331 -1.0838 -0.6982
  636MOL0     H85823   4.834   2.444   7.339  1.7460 -0.3856  0.3064
  636MOL0     H85824   4.526   2.431   7.840  0.0017 -1.0426  2.2618
  636MOL0     H85825   4.267   2.444   7.885 -0.1118  0.9303  0.1907
  636MOL0     H85826   4.047   2.319   7.536 -1.6656 -0.7038 -0.5950
  636MOL0     H85827   3.997   2.181   7.639  1.4784 -0.6780  1.4780
  636MOL0     H85828   3.843   2.336   7.745  4.0823 -0.6166  1.7433
  636MOL0     H85829   3.899   2.467   7.650 -4.3068  0.6725 -0.9112
  636MOL0     H85830   3.837   2.250   7.466 -2.2694 -2.1072  0.6679
  636MOL0     H85831   3.777   2.407   7.441  1.9958  0.8875 -0.4950
  636MOL0     H85832   3.665   2.231   7.656  1.9289  2.4687  0.9340
  636MOL0     H85833   3.594   2.368   7.579  1.1258  0.5630  1.6378
  636MOL0     H85834   3.494   2.167   7.487 -0.0491 -1.7131 -1.1241
  636MOL0     H85835   3.648   2.084   7.464 -2.8727 -1.4614  0.0846
  636MOL0     H85836   3.576   2.347   7.316  0.3350  0.0967 -3.0425
  636MOL0     H85837   3.708   2.232   7.276  0.0612  0.0387 -0.2944
  636MOL0     H85838   3.401   2.203   7.234  0.2677  1.3245  2.2719
  636MOL0     H85839   3.508   2.071   7.214 -0.0587  0.5810 -2.5769
  636MOL0     H85840   3.503   2.145   6.997  0.8520  0.3560 -0.9730
  636MOL0     H85841   3.649   2.227   7.057 -0.2499  2.8084  1.3766
  636MOL0     H85842   4.221   2.181   7.550 -1.8326  1.4100  1.0218
  636MOL0     H85843   4.459   2.144   7.534  1.4518 -1.6339  0.8474
  636MOL0     H85844   4.926   2.032   7.679 -0.4209 -0.2901  0.0088
  636MOL0     H85845   5.153   2.069   7.608  0.4573  1.5288  0.2458
  636MOL0     H85846   5.614   2.645   6.306  0.9506  0.6887  0.0057
  636MOL0     H85847   5.406   2.585   6.254 -1.3799 -0.5263  0.6273
  636MOL0     H85848   4.836   2.925   6.158 -3.3230 -0.0167 -0.1554
  636MOL0     H85849   4.649   2.811   6.074  0.1854 -0.6472  0.1177
  636MOL0     H85850   4.488   2.405   5.990 -0.7815 -4.2855  0.8654
  636MOL0     H85851   4.662   2.376   6.023 -0.3689  1.1270 -1.8744
  636MOL0     H85852   4.599   2.378   6.269 -3.0591 -1.7867  3.3926
  636MOL0     H85853   4.499   2.257   6.183 -1.4539 -0.0853 -3.5954
  636MOL0     H85854   4.408   2.538   6.227 -0.0324 -0.1788 -0.9283
  636MOL0     H85855   4.369   2.418   6.353 -2.8552  3.4667  0.6363
  636MOL0     H85856   4.276   2.372   6.067 -1.2033  0.4642 -0.2412
  636MOL0     H85857   4.185   2.462   6.178  1.2321  1.6249 -1.0475
  636MOL0     H85858   4.074   2.080   6.287  2.6025 -2.0521  4.0552
  636MOL0     H85859   4.846   2.424   6.123 -1.9611  0.7851 -0.2227
  636MOL0     H85860   5.030   2.540   6.209  2.2449 -0.0923 -1.6885
  637MOL0     O85861   3.445   2.788   1.684  0.0747  0.4919  0.0659
  637MOL0     C85862   3.487   2.862   1.603 -0.4557  0.4059 -0.0928
  637MOL0     O85863   3.436   2.886   1.477 -0.5068 -0.0593  0.5459
  637MOL0     C85864   3.304   2.853   1.456 -0.1837  0.1430 -0.2893
  637MOL0     C85865   3.265   2.725   1.424 -0.2548  0.4699 -1.3185
  637MOL0     C85866   3.136   2.696   1.389  0.3602  0.2300 -0.1936
  637MOL0     C85867   3.040   2.797   1.371 -0.0748  0.6857 -0.6732
  637MOL0     O85868   2.917   2.786   1.314 -0.4162 -0.2858  0.5652
  637MOL0     C85869   2.875   2.661   1.256  0.1172 -0.8204  0.2251
  637MOL0     C85870   2.742   2.700   1.200  0.3034  0.7906  0.5117
  637MOL0     C85871   2.692   2.593   1.114 -0.2015  0.2638 -0.5529
  637MOL0     C85872   2.674   2.626   0.964 -0.0536 -0.1530 -0.2062
  637MOL0     C85873   2.558   2.729   0.944  0.4119  0.0435 -0.1927
  637MOL0     C85874   2.586   2.861   0.881  0.5590 -0.9798 -0.8186
  637MOL0     C85875   2.463   2.911   0.798 -1.1847  0.6262 -0.4724
  637MOL0     C85876   2.474   3.051   0.756 -0.7256  0.1030  0.1810
  637MOL0     N85877   2.341   3.107   0.720  0.0939 -0.0663  0.1871
  637MOL0     C85878   2.263   3.064   0.613  0.2030  0.3009 -0.5914
  637MOL0     C85879   2.164   3.152   0.606  0.3892  0.0758 -0.3611
  637MOL0     C85880   2.054   3.150   0.510  0.0964  0.3075 -0.0123
  637MOL0     C85881   1.928   3.108   0.576  0.1915  0.1259  0.5029
  637MOL0     C85882   1.804   3.103   0.487 -0.3432 -0.2973  0.1391
  637MOL0     C85883   1.687   3.084   0.579 -0.6884  0.1453 -0.5473
  637MOL0     O85884   1.563   3.045   0.507  0.5573 -0.0240 -0.1582
  637MOL0     C85885   1.455   3.119   0.512  0.3383 -0.1924  0.1884
  637MOL0     C85886   1.338   3.059   0.488  0.7220 -0.0992 -0.3653
  637MOL0     C85887   1.220   3.129   0.487  1.2065  0.5519 -0.5034
  637MOL0     C85888   1.100   3.050   0.449  0.2316  0.5220  0.3283
  637MOL0     C85889   1.214   3.272   0.506  0.6801  0.2651  0.0576
  637MOL0     C85890   1.085   3.351   0.500  0.5172  0.4249  0.7374
  637MOL0     O85891   0.982   3.314   0.582  0.4183  0.5157  0.1479
  637MOL0     C85892   0.854   3.355   0.540  0.7730  0.1718 -0.0854
  637MOL0     C85893   0.788   3.466   0.596  0.7866 -0.1755  0.4029
  637MOL0     C85894   0.660   3.512   0.541 -0.7829 -0.2548 -1.0985
  637MOL0     C85895   0.607   3.435   0.437 -1.0781 -0.7390  0.8162
  637MOL0     O85896   0.485   3.473   0.380 -0.1105  0.7446 -0.2789
  637MOL0     C85897   0.468   3.609   0.338 -0.4793 -0.9710 -0.2521
  637MOL0     C85898   0.321   3.620   0.288 -0.0657  0.2977  0.7549
  637MOL0     C85899   0.283   3.531   0.172 -1.0327  0.0852  0.5478
  637MOL0     C85900   0.131   3.526   0.151  0.1041  1.4707  0.2928
  637MOL0     C85901   0.079   3.479   0.011 -0.3688  0.5012  0.6560
  637MOL0     C85902   0.074   3.585  -0.098 -0.3387  0.3803 -0.5632
  637MOL0     C85903  -0.044   3.697  -0.066  0.7907  1.1064  1.2382
  637MOL0     C85904  -0.058   3.814  -0.176  0.6418  0.2730 -0.6257
  637MOL0    Cl85905  -0.057   3.749  -0.345  0.2761 -0.0985 -0.4168
  637MOL0     C85906   0.672   3.322   0.382  1.0387  0.9153 -0.0025
  637MOL0     C85907   0.790   3.274   0.445  0.8579  0.2908 -0.3148
  637MOL0     O85908   1.091   3.464   0.444  0.6396  0.2948  0.2803
  637MOL0     C85909   1.337   3.340   0.525  0.4153 -0.0668 -0.1708
  637MOL0     C85910   1.453   3.262   0.536  0.0492 -0.7173  0.4600
  637MOL0     N85911   2.183   3.247   0.703  0.3174 -0.3635  0.2839
  637MOL0     N85912   2.289   3.228   0.772  0.8428 -0.2168 -0.6870
  637MOL0     C85913   3.076   2.926   1.418 -0.1630  0.6015  0.0241
  637MOL0     C85914   3.209   2.953   1.459 -1.2606 -0.0387 -0.1765
  637MOL0     C85915   3.619   2.918   1.634  0.0837 -1.5636  0.2954
  637MOL0     C85916   3.687   2.997   1.534  0.1226 -0.1939  0.1593
  637MOL0     C85917   3.811   3.051   1.577 -0.4809 -0.6036 -0.5850
  637MOL0     C85918   3.875   3.016   1.699  0.3916  0.1189  0.3969
  637MOL0     O85919   3.990   3.078   1.725  0.1858  0.0766  0.8072
  637MOL0     C85920   4.062   3.060   1.845 -1.0703 -0.5041 -0.0937
  637MOL0     C85921   4.181   3.168   1.847 -0.3829  0.0580  0.0284
  637MOL0     C85922   4.284   3.143   1.957  1.3628  0.3748 -0.1140
  637MOL0     C85923   4.404   3.236   1.943 -0.2748 -1.4092 -0.2733
  637MOL0     C85924   4.505   3.207   2.034 -0.4813  0.3763 -0.8373
  637MOL0     C85925   4.600   3.165   2.095 -0.0527  1.0200 -0.5225
  637MOL0     C85926   3.819   2.920   1.778  0.7770  0.0834  0.6810
  637MOL0     C85927   3.688   2.879   1.751 -0.8764 -0.1761 -0.3740
  637MOL0     H85928   3.354   2.663   1.416  1.6237  2.5911  1.2802
  637MOL0     H85929   3.111   2.594   1.362 -0.0701 -0.5146  2.6984
  637MOL0     H85930   2.939   2.637   1.171  0.8583 -2.5782  1.2308
  637MOL0     H85931   2.876   2.588   1.337  0.4286 -0.4040  0.6044
  637MOL0     H85932   2.665   2.720   1.274 -0.3736  0.4066 -0.0754
  637MOL0     H85933   2.752   2.789   1.138 -0.7771 -0.0899 -0.9807
  637MOL0     H85934   2.771   2.518   1.113  1.2334  1.6837  0.7027
  637MOL0     H85935   2.604   2.546   1.160 -0.0383 -0.5649 -1.0797
  637MOL0     H85936   2.765   2.669   0.921 -0.5213  1.4774  0.3606
  637MOL0     H85937   2.656   2.531   0.912 -0.8087 -0.4950  0.6550
  637MOL0     H85938   2.491   2.677   0.876  0.8915 -0.3575 -0.3676
  637MOL0     H85939   2.510   2.743   1.041  2.1652 -1.1325  0.9264
  637MOL0     H85940   2.605   2.932   0.962 -0.3792 -1.0970 -0.4850
  637MOL0     H85941   2.672   2.864   0.813  1.4856  1.2059  0.3399
  637MOL0     H85942   2.452   2.844   0.711  0.7904 -0.5494  0.1086
  637MOL0     H85943   2.377   2.896   0.862  0.2681 -0.1247  1.3940
  637MOL0     H85944   2.533   3.061   0.664  1.9476  1.6373  1.9311
  637MOL0     H85945   2.526   3.108   0.833  1.3663 -0.9030 -0.4184
  637MOL0     H85946   2.280   2.979   0.547  1.5255  0.0518  0.0369
  637MOL0     H85947   2.045   3.249   0.464  0.6767  0.9363  1.1878
  637MOL0     H85948   2.079   3.075   0.434  0.1520 -2.5666  2.6472
  637MOL0     H85949   1.890   3.174   0.655 -3.1463 -2.4340  1.2523
  637MOL0     H85950   1.946   3.008   0.617  0.1456  0.7983  2.2715
  637MOL0     H85951   1.815   3.015   0.424  0.7414 -1.8960  2.4139
  637MOL0     H85952   1.803   3.190   0.420 -1.6883 -1.7935 -1.9085
  637MOL0     H85953   1.693   3.168   0.649  1.5369  0.5251 -1.1333
  637MOL0     H85954   1.693   3.000   0.649  0.1382  1.9001  1.6087
  637MOL0     H85955   1.343   2.954   0.459  0.5225 -0.8924  2.1898
  637MOL0     H85956   1.115   2.943   0.433 -0.2443  0.6380 -1.0102
  637MOL0     H85957   1.032   3.051   0.535  4.0914  0.1668  3.7326
  637MOL0     H85958   1.063   3.101   0.360 -1.1820  1.5957  1.4742
  637MOL0     H85959   0.848   3.522   0.667  2.5614  1.6161 -2.3173
  637MOL0     H85960   0.610   3.598   0.583  0.3180  1.4020 -3.0182
  637MOL0     H85961   0.483   3.679   0.420 -3.4196  1.2650 -1.4324
  637MOL0     H85962   0.537   3.614   0.253 -0.2465 -0.9491 -0.0621
  637MOL0     H85963   0.256   3.591   0.370 -0.7469 -1.0160 -0.2083
  637MOL0     H85964   0.296   3.720   0.251  0.0946 -0.4138 -1.4225
  637MOL0     H85965   0.325   3.432   0.190  0.3002  0.5622  0.1318
  637MOL0     H85966   0.337   3.562   0.082  1.6411  1.2159  2.4226
  637MOL0     H85967   0.110   3.448   0.224  1.7908  0.6050 -0.0807
  637MOL0     H85968   0.090   3.625   0.171 -2.3898  0.2960  1.3726
  637MOL0     H85969  -0.017   3.428   0.025  0.6629 -0.6747  5.7005
  637MOL0     H85970   0.133   3.390  -0.023 -1.8984 -0.4007  0.4960
  637MOL0     H85971   0.175   3.624  -0.108  1.2905 -2.3155  3.2016
  637MOL0     H85972   0.049   3.534  -0.192  0.2645 -0.9898 -0.0044
  637MOL0     H85973  -0.038   3.731   0.038  1.0504  2.9927  0.6415
  637MOL0     H85974  -0.125   3.624  -0.076  2.4720 -0.6276 -0.9438
  637MOL0     H85975   0.029   3.879  -0.162  0.4166  0.6730 -1.0832
  637MOL0     H85976  -0.144   3.877  -0.155  1.3981  1.0981  0.0427
  637MOL0     H85977   0.627   3.275   0.295 -3.2391  1.5933  1.5643
  637MOL0     H85978   0.838   3.185   0.406 -0.5608  0.0936 -1.7161
  637MOL0     H85979   1.339   3.448   0.522 -1.8259  0.0181  0.1117
  637MOL0     H85980   1.544   3.317   0.556 -0.7831  1.0998 -0.4603
  637MOL0     H85981   2.998   3.000   1.408 -3.6694 -2.9882 -1.7944
  637MOL0     H85982   3.252   3.050   1.483 -0.7300 -0.1665 -0.5978
  637MOL0     H85983   3.657   3.010   1.430 -0.8194  0.9114  0.5379
  637MOL0     H85984   3.870   3.118   1.515  0.7298 -1.0034  0.0979
  637MOL0     H85985   4.005   3.076   1.937  0.1569  4.0447  0.1566
  637MOL0     H85986   4.101   2.959   1.834 -0.9196 -0.2281 -2.9009
  637MOL0     H85987   4.147   3.272   1.856  1.1259  0.4683  1.3296
  637MOL0     H85988   4.234   3.158   1.752  0.4655  2.0829  0.2379
  637MOL0     H85989   4.326   3.043   1.944 -2.0815 -0.9536 -2.4868
  637MOL0     H85990   4.237   3.162   2.054 -1.0128  0.0978 -1.1383
  637MOL0     H85991   4.365   3.337   1.957  3.2848  0.0393  0.0162
  637MOL0     H85992   4.447   3.230   1.843  1.7792 -0.0335  0.4693
  637MOL0     H85993   4.674   3.133   2.166  0.7915  0.6526 -1.5355
  637MOL0     H85994   3.866   2.869   1.861 -0.4200 -1.8199  0.2599
  637MOL0     H85995   3.638   2.816   1.824  0.3288 -0.6741  0.0373
  638MOL0     O85996   8.871   5.792   6.307 -0.4210  0.1620 -0.0673
  638MOL0     C85997   8.859   5.835   6.195 -0.6556 -0.7105  0.2708
  638MOL0     O85998   8.742   5.883   6.143  0.0549 -0.4405  0.0018
  638MOL0     C85999   8.644   5.905   6.234 -0.1183  0.7456 -0.3039
  638MOL0     C86000   8.608   6.026   6.299  0.3149  0.6285 -0.5427
  638MOL0     C86001   8.496   6.039   6.390 -0.7307 -0.0326  0.7409
  638MOL0     C86002   8.417   5.927   6.415  0.8526  0.2519  0.1914
  638MOL0     O86003   8.313   5.928   6.511 -0.2238  0.1608 -0.3545
  638MOL0     C86004   8.249   6.054   6.537 -1.4978  0.1080 -0.3997
  638MOL0     C86005   8.133   6.081   6.443  0.5015  0.2643 -0.5307
  638MOL0     C86006   8.017   5.978   6.470  0.8771 -0.5751 -0.1507
  638MOL0     C86007   7.893   6.006   6.382 -0.2067 -0.5619  0.7861
  638MOL0     C86008   7.764   5.937   6.431 -0.1888  0.1896 -0.1297
  638MOL0     C86009   7.772   5.775   6.421 -0.8803 -0.6150 -0.1365
  638MOL0     C86010   7.820   5.706   6.549 -0.2687  0.3587  0.6299
  638MOL0     C86011   7.817   5.546   6.545 -0.3605 -0.0981 -0.2289
  638MOL0     N86012   7.685   5.480   6.526  0.4458  0.1397 -0.7605
  638MOL0     C86013   7.608   5.424   6.628 -0.3415  0.2038  0.4416
  638MOL0     C86014   7.515   5.355   6.564 -1.1240  0.8317  0.4498
  638MOL0     C86015   7.410   5.259   6.622  0.1867 -0.2374 -0.3461
  638MOL0     C86016   7.276   5.251   6.552 -0.0457  0.5083 -0.2222
  638MOL0     C86017   7.281   5.205   6.400 -0.2347 -0.0474  0.1695
  638MOL0     C86018   7.165   5.107   6.357 -0.0682  0.1078  0.0191
  638MOL0     O86019   7.174   4.980   6.435 -0.1323  0.5018 -0.2646
  638MOL0     C86020   7.055   4.948   6.500 -0.1918  0.3451  0.4618
  638MOL0     C86021   6.946   4.905   6.421  0.3834  1.8030 -0.2232
  638MOL0     C86022   6.822   4.853   6.483 -0.2902 -1.0061 -0.1375
  638MOL0     C86023   6.710   4.799   6.397  0.2864  0.1202 -0.0783
  638MOL0     C86024   6.811   4.859   6.626  0.3133  0.1592  0.5632
  638MOL0     C86025   6.697   4.806   6.706  0.1869  1.0234  0.9004
  638MOL0     O86026   6.579   4.787   6.631 -0.5121  0.0266  0.0733
  638MOL0     C86027   6.478   4.696   6.671 -0.4174  0.1302  0.9726
  638MOL0     C86028   6.363   4.702   6.593  0.3598  0.2246  0.2785
  638MOL0     C86029   6.244   4.640   6.632 -0.5589  0.1013  0.2729
  638MOL0     C86030   6.245   4.551   6.738  0.0293  0.2528  0.0588
  638MOL0     O86031   6.125   4.485   6.764 -0.0482 -0.3610  1.1260
  638MOL0     C86032   6.089   4.446   6.897 -0.4538 -0.4913  0.6165
  638MOL0     C86033   5.944   4.431   6.924  0.4877  0.3038  0.2512
  638MOL0     C86034   5.863   4.555   6.926  0.0926 -0.0508  0.0166
  638MOL0     C86035   5.713   4.528   6.959 -0.4038 -0.8354  0.1982
  638MOL0     C86036   5.631   4.650   7.005  0.0065  0.0995 -0.3902
  638MOL0     C86037   5.513   4.595   7.072 -0.3342  0.0367  0.0457
  638MOL0     C86038   5.435   4.691   7.157 -0.1374  0.3296 -0.1631
  638MOL0     C86039   5.340   4.617   7.247 -1.0351 -0.4687 -0.7412
  638MOL0    Cl86040   5.175   4.568   7.173 -0.1132  0.3675  0.3571
  638MOL0     C86041   6.360   4.535   6.813 -0.1582  0.1101 -1.0368
  638MOL0     C86042   6.470   4.613   6.783 -0.1421  1.0242  0.6373
  638MOL0     O86043   6.707   4.781   6.822  0.1988  0.4142 -0.7951
  638MOL0     C86044   6.917   4.919   6.698 -0.6368  0.8466 -0.2169
  638MOL0     C86045   7.037   4.965   6.634 -1.5090 -0.2836 -0.1677
  638MOL0     N86046   7.543   5.367   6.427 -0.6968  0.1597 -0.7145
  638MOL0     N86047   7.652   5.428   6.402  0.0458 -0.1291 -0.5587
  638MOL0     C86048   8.450   5.807   6.351 -0.7224 -1.6460 -0.0373
  638MOL0     C86049   8.559   5.798   6.263  0.1362 -0.4139  0.5568
  638MOL0     C86050   8.986   5.850   6.116  0.2488 -0.6201  0.3052
  638MOL0     C86051   9.109   5.802   6.157  0.0144 -0.0254  0.5941
  638MOL0     C86052   9.226   5.814   6.084  0.9882  0.2197  0.2878
  638MOL0     C86053   9.228   5.897   5.965  0.4533 -0.5090  0.1337
  638MOL0     O86054   9.345   5.924   5.901  0.1092  0.1351 -0.4056
  638MOL0     C86055   9.469   5.879   5.956 -0.5500 -0.9429  0.2487
  638MOL0     C86056   9.584   5.920   5.848  0.0307 -0.1990 -0.3731
  638MOL0     C86057   9.579   5.820   5.735 -0.2714 -0.7510 -0.5191
  638MOL0     C86058   9.626   5.676   5.770  0.3925  0.8805 -0.4024
  638MOL0     C86059   9.755   5.677   5.841  0.2240  0.3857 -0.6053
  638MOL0     C86060   9.863   5.676   5.889 -1.1851 -0.0383 -0.0863
  638MOL0     C86061   9.108   5.953   5.923 -0.2346 -0.7589 -1.2252
  638MOL0     C86062   8.984   5.917   5.987 -0.3023  0.7468 -0.4628
  638MOL0     H86063   8.677   6.109   6.288  1.9973 -0.8838 -1.9526
  638MOL0     H86064   8.484   6.133   6.442 -2.3872  0.3714 -0.2919
  638MOL0     H86065   8.221   6.036   6.641  1.5033 -0.2895  0.4558
  638MOL0     H86066   8.313   6.143   6.538 -0.5581 -0.5486  0.2622
  638MOL0     H86067   8.102   6.186   6.450 -0.5114 -0.1298  1.4661
  638MOL0     H86068   8.173   6.073   6.341 -0.2749 -3.1363 -0.7046
  638MOL0     H86069   8.054   5.876   6.456  3.6841  0.1647  1.0341
  638MOL0     H86070   7.996   5.976   6.578  2.2645 -1.7289  0.1336
  638MOL0     H86071   7.857   6.110   6.388 -2.8126 -1.4672  2.8181
  638MOL0     H86072   7.916   5.986   6.277 -2.6100  1.2758 -0.1922
  638MOL0     H86073   7.755   5.969   6.535 -0.5912  1.3999 -0.5210
  638MOL0     H86074   7.680   5.984   6.379 -0.4393  0.4035  0.4583
  638MOL0     H86075   7.667   5.745   6.412 -1.8566  1.7629  1.9950
  638MOL0     H86076   7.835   5.737   6.341 -1.0887  0.6933 -0.9402
  638MOL0     H86077   7.927   5.725   6.562  0.0541 -2.0430  2.2553
  638MOL0     H86078   7.757   5.734   6.633 -1.8679  1.6913 -0.9465
  638MOL0     H86079   7.857   5.526   6.645  0.9598 -2.2555 -1.1188
  638MOL0     H86080   7.880   5.505   6.466 -2.0851  1.1304 -2.3607
  638MOL0     H86081   7.614   5.428   6.736  0.3744  0.2618  0.4050
  638MOL0     H86082   7.459   5.161   6.619  0.3365 -0.1532 -2.2780
  638MOL0     H86083   7.395   5.283   6.727  2.6377  0.6006 -0.1153
  638MOL0     H86084   7.239   5.354   6.560  0.9875  0.8374  0.4002
  638MOL0     H86085   7.208   5.186   6.607  1.7469 -0.4557  0.9397
  638MOL0     H86086   7.376   5.153   6.386 -0.3019  0.0095 -0.5251
  638MOL0     H86087   7.265   5.293   6.336 -2.0797  2.9020  4.2402
  638MOL0     H86088   7.186   5.085   6.252  0.2436  3.0212 -0.6094
  638MOL0     H86089   7.068   5.155   6.368  0.1029  1.3076 -2.8419
  638MOL0     H86090   6.937   4.887   6.314 -1.8891 -0.3191  0.2329
  638MOL0     H86091   6.684   4.697   6.428 -1.4461  0.4483 -0.3574
  638MOL0     H86092   6.620   4.860   6.399  0.9579  1.1591 -0.5463
  638MOL0     H86093   6.749   4.780   6.296 -0.6830 -0.3229 -0.3804
  638MOL0     H86094   6.353   4.767   6.508 -0.0977 -0.4049 -0.1600
  638MOL0     H86095   6.149   4.650   6.580 -0.3036 -2.1412 -0.7405
  638MOL0     H86096   6.121   4.342   6.909  1.3370 -0.4622 -2.6320
  638MOL0     H86097   6.121   4.507   6.981 -1.5883  1.8885 -0.5713
  638MOL0     H86098   5.896   4.368   6.849 -2.5135 -0.1408  2.3854
  638MOL0     H86099   5.939   4.383   7.023  1.3601 -0.9681 -0.2958
  638MOL0     H86100   5.874   4.625   6.843 -1.4682  3.9784  2.8877
  638MOL0     H86101   5.911   4.616   7.003  1.1098 -0.9534  0.1297
  638MOL0     H86102   5.668   4.499   6.864  0.7531  1.4013 -1.1110
  638MOL0     H86103   5.718   4.441   7.025 -0.8562 -1.9761 -1.2112
  638MOL0     H86104   5.598   4.720   6.928 -4.7064 -1.8575 -0.4911
  638MOL0     H86105   5.700   4.708   7.067  3.2944 -2.1615 -1.6394
  638MOL0     H86106   5.447   4.545   7.000 -0.5878  3.3368 -2.2574
  638MOL0     H86107   5.554   4.524   7.145 -0.9125 -0.8388 -0.4591
  638MOL0     H86108   5.378   4.759   7.093 -1.3599  0.5586  1.1296
  638MOL0     H86109   5.496   4.760   7.216 -0.5473  1.5068 -1.0600
  638MOL0     H86110   5.324   4.678   7.336  0.8999 -0.5427 -0.2945
  638MOL0     H86111   5.387   4.527   7.287  0.1049 -0.0058 -0.9824
  638MOL0     H86112   6.369   4.471   6.900  1.2149  0.3945 -0.9451
  638MOL0     H86113   6.555   4.605   6.849 -0.6439 -1.5618  1.0724
  638MOL0     H86114   6.909   4.919   6.806 -2.5205 -0.9626 -0.2972
  638MOL0     H86115   7.119   5.014   6.684 -0.7752 -0.4154 -1.2189
  638MOL0     H86116   8.392   5.719   6.377 -0.7987 -1.6439 -0.1951
  638MOL0     H86117   8.589   5.698   6.236  1.2692 -0.2164  1.0434
  638MOL0     H86118   9.117   5.748   6.251 -2.5768 -1.4817  0.0686
  638MOL0     H86119   9.315   5.767   6.124  0.0733  0.2512  2.5029
  638MOL0     H86120   9.464   5.926   6.055 -2.4083  1.2185 -0.7720
  638MOL0     H86121   9.467   5.771   5.978 -1.3765 -0.5541  2.3695
  638MOL0     H86122   9.684   5.928   5.891 -0.0725 -1.5187  0.1798
  638MOL0     H86123   9.560   6.020   5.812 -2.6552 -0.9054 -0.8028
  638MOL0     H86124   9.632   5.849   5.644 -0.2225  1.2638  0.1143
  638MOL0     H86125   9.482   5.822   5.683 -0.0442  0.1098 -0.9284
  638MOL0     H86126   9.630   5.628   5.671 -1.1042 -1.4961  0.6031
  638MOL0     H86127   9.554   5.627   5.835  1.3791 -0.2649 -0.1252
  638MOL0     H86128   9.963   5.652   5.920 -1.0786  1.0041  0.4164
  638MOL0     H86129   9.098   6.002   5.826 -2.1291  0.2505 -0.5776
  638MOL0     H86130   8.890   5.955   5.948  0.1509  1.3794 -0.9658
  639MOL0     O86131   9.952   9.711  10.100 -0.4368 -0.2890 -0.2014
  639MOL0     C86132   9.983   9.826  10.057 -0.6214  0.4949  0.3216
  639MOL0     O86133  10.096   9.857   9.976  0.1257 -0.4167  0.2657
  639MOL0     C86134  10.208   9.777   9.977  0.7879 -0.1079 -1.0346
  639MOL0     C86135  10.298   9.795   9.875 -0.5389 -0.4133  0.5661
  639MOL0     C86136  10.412   9.715   9.866  0.1426  0.2433 -0.4806
  639MOL0     C86137  10.440   9.609   9.955  0.6297 -0.0124  0.1968
  639MOL0     O86138  10.549   9.534   9.950 -0.3038  0.5450 -0.7011
  639MOL0     C86139  10.665   9.564   9.867  0.4773 -0.9980  0.5440
  639MOL0     C86140  10.767   9.458   9.896  0.1200 -1.1758 -0.7680
  639MOL0     C86141  10.883   9.469   9.797  0.1845  0.9277 -0.2568
  639MOL0     C86142  10.973   9.349   9.813  0.4617  0.0102  0.3312
  639MOL0     C86143  11.110   9.351   9.730 -0.1252  0.1547 -0.3089
  639MOL0     C86144  11.183   9.215   9.718 -0.4190  0.3680  0.1083
  639MOL0     C86145  11.306   9.236   9.627  0.7437 -0.1984 -0.5274
  639MOL0     C86146  11.386   9.101   9.629 -0.5524 -0.5377  0.5772
  639MOL0     N86147  11.500   9.101   9.528  0.2102  0.8635  0.0914
  639MOL0     C86148  11.518   9.176   9.416  0.7190  1.0681  0.6978
  639MOL0     C86149  11.636   9.147   9.361  0.5098 -0.4890 -0.1223
  639MOL0     C86150  11.694   9.195   9.233 -0.2108  0.6772  0.0923
  639MOL0     C86151  11.843   9.222   9.243  0.0724 -0.1553  0.4135
  639MOL0     C86152  11.885   9.310   9.367 -0.6099 -0.1046 -0.3694
  639MOL0     C86153  11.996   9.414   9.334  0.2039 -0.4405  0.0677
  639MOL0     O86154  11.939   9.511   9.244  0.1300 -0.2813  0.3976
  639MOL0     C86155  11.849   9.609   9.285  0.3502 -0.6106 -0.1977
  639MOL0     C86156  11.769   9.670   9.180 -0.2020  0.9128 -0.3591
  639MOL0     C86157  11.678   9.764   9.207 -0.8498 -0.0149  0.1581
  639MOL0     C86158  11.596   9.820   9.092 -0.8579  0.0316 -0.2168
  639MOL0     C86159  11.657   9.813   9.338  0.1802  0.5010 -0.5165
  639MOL0     C86160  11.575   9.932   9.376  0.1713 -0.3366  0.3865
  639MOL0     O86161  11.508   9.919   9.496  0.1110 -0.2917 -0.3946
  639MOL0     C86162  11.411  10.017   9.530 -0.7914 -0.0797 -0.4282
  639MOL0     C86163  11.306  10.053   9.449 -0.3410  0.1550  0.1775
  639MOL0     C86164  11.207  10.148   9.505  0.1641  0.0100  0.1452
  639MOL0     C86165  11.215  10.187   9.636  0.1117 -0.3391 -0.3396
  639MOL0     O86166  11.114  10.273   9.684  0.0494  0.3649  0.2600
  639MOL0     C86167  11.093  10.262   9.825 -0.1062 -0.2961 -0.2443
  639MOL0     C86168  10.959  10.330   9.840  0.6648  0.3437  0.8316
  639MOL0     C86169  10.894  10.295   9.971  0.2637 -0.1861 -0.8829
  639MOL0     C86170  10.776  10.390   9.987 -0.5655  0.2063 -0.3496
  639MOL0     C86171  10.689  10.359  10.101  0.0409  0.8583  0.2376
  639MOL0     C86172  10.599  10.473  10.128  0.1037 -0.0097 -0.0544
  639MOL0     C86173  10.531  10.454  10.259 -0.0433 -1.2395  0.3513
  639MOL0     C86174  10.412  10.541  10.284  0.4142  0.7072 -0.3730
  639MOL0    Cl86175  10.337  10.456  10.423 -0.2087  0.5735 -0.0895
  639MOL0     C86176  11.302  10.132   9.721 -0.6243 -0.6168 -0.8388
  639MOL0     C86177  11.403  10.044   9.672 -0.5004  0.1016  0.1493
  639MOL0     O86178  11.569  10.027   9.292 -0.6494  0.0854 -0.0953
  639MOL0     C86179  11.734   9.753   9.439 -0.4914 -0.8061  0.2514
  639MOL0     C86180  11.839   9.661   9.412  0.2325 -0.0768 -0.5738
  639MOL0     N86181  11.687   9.040   9.438  0.5167  0.6840  0.7005
  639MOL0     N86182  11.609   9.022   9.539  0.0401 -0.0367 -0.3361
  639MOL0     C86183  10.354   9.594  10.065 -0.4636 -0.0280  0.5412
  639MOL0     C86184  10.241   9.676  10.074 -0.3324  0.4691 -0.0516
  639MOL0     C86185   9.887   9.941  10.071  0.1291 -0.7724  0.0716
  639MOL0     C86186   9.910  10.053   9.992 -0.2944  0.3262  0.1641
  639MOL0     C86187   9.815  10.160   9.983  0.6999 -0.2481 -0.5543
  639MOL0     C86188   9.697  10.161  10.052 -0.6961  0.1094 -0.2205
  639MOL0     O86189   9.619  10.266  10.025 -0.2653  0.1782 -0.9866
  639MOL0     C86190   9.474  10.229  10.015 -1.3227 -0.3269  0.2483
  639MOL0     C86191   9.404  10.358   9.971  0.2440 -0.7951  0.0447
  639MOL0     C86192   9.261  10.334   9.923  0.7170 -0.5757 -0.8299
  639MOL0     C86193   9.170  10.460   9.916 -0.4914 -0.0178 -0.4437
  639MOL0     C86194   9.034  10.420   9.866  0.1817  0.4395  0.0007
  639MOL0     C86195   8.923  10.384   9.817  0.7523 -0.2421 -0.0038
  639MOL0     C86196   9.679  10.051  10.146  0.2469 -0.5861 -0.1444
  639MOL0     C86197   9.759   9.941  10.139 -0.8553  0.2070  0.1020
  639MOL0     H86198  10.276   9.877   9.808  0.1445  0.4196  1.3388
  639MOL0     H86199  10.474   9.736   9.780 -0.5021 -0.6801 -1.1876
  639MOL0     H86200  10.642   9.556   9.761  1.4378  1.4284  0.0967
  639MOL0     H86201  10.711   9.662   9.879  0.6421 -1.3058  3.1586
  639MOL0     H86202  10.804   9.475   9.998  0.6022 -3.1870 -0.5685
  639MOL0     H86203  10.731   9.355   9.891 -3.0118 -0.2964  0.9380
  639MOL0     H86204  10.837   9.458   9.698 -0.8604 -0.2870  0.3247
  639MOL0     H86205  10.944   9.559   9.809  2.5618 -0.3625 -1.9026
  639MOL0     H86206  10.992   9.331   9.919 -1.0433  1.1920  0.8239
  639MOL0     H86207  10.913   9.261   9.787  0.2737 -0.3616  1.9287
  639MOL0     H86208  11.078   9.381   9.630  2.1176 -2.2913 -1.9029
  639MOL0     H86209  11.175   9.431   9.765 -1.0709  0.5243  0.6576
  639MOL0     H86210  11.212   9.198   9.822 -1.3672 -2.8730 -0.0335
  639MOL0     H86211  11.117   9.131   9.693 -1.0447  0.5537  1.1071
  639MOL0     H86212  11.270   9.271   9.530  0.8574 -1.9909 -1.2652
  639MOL0     H86213  11.374   9.311   9.667  0.6403  1.0054 -2.4914
  639MOL0     H86214  11.327   9.013   9.602  0.4552 -1.7407  2.0978
  639MOL0     H86215  11.421   9.078   9.730  1.4183  2.2491  0.6400
  639MOL0     H86216  11.446   9.246   9.374  1.3072  2.9901  2.7089
  639MOL0     H86217  11.669   9.113   9.164 -1.0835  1.1483 -0.1644
  639MOL0     H86218  11.652   9.289   9.196 -0.0247  0.5343 -0.5054
  639MOL0     H86219  11.865   9.272   9.147  1.5105  1.0370  1.3082
  639MOL0     H86220  11.900   9.129   9.243  1.5928  0.7242  1.2437
  639MOL0     H86221  11.918   9.252   9.453 -0.8513  1.1870  0.6159
  639MOL0     H86222  11.800   9.364   9.407 -1.1761 -0.4032 -1.1416
  639MOL0     H86223  12.077   9.359   9.285 -1.0541 -3.4045  1.0888
  639MOL0     H86224  12.030   9.459   9.428 -3.2591  0.4224  1.0503
  639MOL0     H86225  11.771   9.628   9.080  1.6059  0.3894 -0.1338
  639MOL0     H86226  11.496   9.775   9.086 -0.0858 -1.5796 -1.7085
  639MOL0     H86227  11.601   9.927   9.070 -2.3103  0.2551  0.4327
  639MOL0     H86228  11.649   9.792   9.001 -0.8860  1.8767 -0.8383
  639MOL0     H86229  11.292  10.018   9.346  0.2124 -1.3901  0.5998
  639MOL0     H86230  11.115  10.177   9.455  0.6368  0.9308 -0.2060
  639MOL0     H86231  11.100  10.159   9.861 -2.3405 -0.9094 -1.3708
  639MOL0     H86232  11.160  10.324   9.885 -1.3306  0.7990  0.0421
  639MOL0     H86233  10.975  10.438   9.828 -1.6257  0.4369 -3.0946
  639MOL0     H86234  10.889  10.307   9.759 -1.2256  2.0719  1.8954
  639MOL0     H86235  10.963  10.304  10.055 -0.0913  0.9172 -0.6936
  639MOL0     H86236  10.855  10.193   9.977  0.3940 -0.1404  1.9634
  639MOL0     H86237  10.820  10.489  10.001  0.9969 -0.8475  3.4781
  639MOL0     H86238  10.710  10.382   9.900 -2.6505 -0.2268  1.1865
  639MOL0     H86239  10.748  10.332  10.189 -0.6322 -1.0962  0.1366
  639MOL0     H86240  10.630  10.271  10.074 -0.2916  0.7752  1.1931
  639MOL0     H86241  10.657  10.565  10.119 -0.8607  0.8515  1.7971
  639MOL0     H86242  10.522  10.469  10.050 -1.1838  1.0996  1.0969
  639MOL0     H86243  10.604  10.449  10.340 -1.2288 -1.5007  1.4342
  639MOL0     H86244  10.503  10.348  10.261  0.3240 -1.3356  0.6294
  639MOL0     H86245  10.346  10.544  10.197  0.0042 -1.9630 -0.2338
  639MOL0     H86246  10.446  10.640  10.315  1.0320  0.5896 -0.6436
  639MOL0     H86247  11.317  10.156   9.826 -0.4425  3.8005 -1.6852
  639MOL0     H86248  11.478  10.017   9.746 -1.9849  2.5483  2.7164
  639MOL0     H86249  11.731   9.790   9.541  0.7890  1.5850 -0.4880
  639MOL0     H86250  11.897   9.633   9.499  2.2708  1.7794 -1.2345
  639MOL0     H86251  10.367   9.522  10.146  0.3634 -0.1755  0.2783
  639MOL0     H86252  10.169   9.658  10.153 -0.6562 -0.0483 -0.4590
  639MOL0     H86253  10.004  10.062   9.938  0.0616 -0.2062  0.6728
  639MOL0     H86254   9.841  10.245   9.920  1.9830  0.6967  1.1458
  639MOL0     H86255   9.464  10.173   9.922  0.0293  1.0934 -0.7945
  639MOL0     H86256   9.420  10.199  10.105 -1.7695  2.5139  1.0184
  639MOL0     H86257   9.468  10.404   9.895  0.8884  2.8431  2.5107
  639MOL0     H86258   9.400  10.437  10.048  0.3407  1.9260 -2.5561
  639MOL0     H86259   9.214  10.252   9.979  3.7322 -2.6780 -1.1023
  639MOL0     H86260   9.264  10.290   9.823 -1.7283 -2.0293 -0.3449
  639MOL0     H86261   9.222  10.528   9.848 -2.3408 -0.3170 -2.2753
  639MOL0     H86262   9.159  10.504  10.016 -0.6541  1.8804 -1.2559
  639MOL0     H86263   8.826  10.366   9.775  0.7307  0.9896 -0.5038
  639MOL0     H86264   9.585  10.047  10.200  1.3789 -0.7085  1.9220
  639MOL0     H86265   9.726   9.858  10.200 -0.7509  0.4884  0.5519
  640MOL0     O86266  11.260   2.137   9.580 -0.1539 -0.1841 -0.2216
  640MOL0     C86267  11.282   2.061   9.485  0.8422  0.8276  0.3691
  640MOL0     O86268  11.191   1.954   9.445 -0.0244 -0.2216 -0.0525
  640MOL0     C86269  11.103   1.887   9.529  0.6138 -0.7045 -0.1401
  640MOL0     C86270  11.037   1.780   9.467 -0.7061 -1.4274  0.0675
  640MOL0     C86271  10.938   1.717   9.540  0.2017 -0.2652 -0.7121
  640MOL0     C86272  10.911   1.754   9.677 -0.6861 -0.3203  0.3680
  640MOL0     O86273  10.825   1.674   9.757  0.6203 -1.4905 -0.3651
  640MOL0     C86274  10.737   1.575   9.697 -0.5941  0.0015  0.7665
  640MOL0     C86275  10.593   1.562   9.759  0.0465  0.0737 -0.5996
  640MOL0     C86276  10.488   1.489   9.673  0.6646  0.0870 -1.0220
  640MOL0     C86277  10.406   1.588   9.595  0.5219 -0.5334 -0.9977
  640MOL0     C86278  10.288   1.519   9.516  1.7218  0.5990 -0.4797
  640MOL0     C86279  10.195   1.437   9.608  0.4280  0.5860 -0.2822
  640MOL0     C86280  10.086   1.363   9.526 -0.0981  0.2867  0.0397
  640MOL0     C86281  10.129   1.306   9.388 -0.5543  0.5174  0.5805
  640MOL0     N86282  10.021   1.221   9.348 -0.4034  0.6186 -0.5608
  640MOL0     C86283   9.895   1.264   9.313  1.5065 -0.7638 -0.3501
  640MOL0     C86284   9.819   1.152   9.281 -0.5614 -0.3462  0.2496
  640MOL0     C86285   9.678   1.150   9.235  0.7644 -0.2899 -0.6959
  640MOL0     C86286   9.599   1.042   9.327 -1.0156 -0.2088  0.3828
  640MOL0     C86287   9.474   0.998   9.250  0.1359  0.0804 -0.6591
  640MOL0     C86288   9.385   1.121   9.207 -0.7000 -0.0966  0.0657
  640MOL0     O86289   9.249   1.079   9.188 -0.0317 -0.0095 -0.0420
  640MOL0     C86290   9.166   1.045   9.293  0.7780  0.6793  0.8579
  640MOL0     C86291   9.195   1.041   9.428 -0.5096 -0.2305 -0.7652
  640MOL0     C86292   9.096   1.020   9.530  0.1494 -0.4838 -0.7502
  640MOL0     C86293   9.149   1.031   9.668  0.0023 -0.3857 -1.1510
  640MOL0     C86294   8.957   1.007   9.494  0.3905  0.2464 -0.7608
  640MOL0     C86295   8.851   0.991   9.595  0.7892  0.1227 -0.1475
  640MOL0     O86296   8.734   0.983   9.536  0.1778 -0.9805 -0.1943
  640MOL0     C86297   8.615   1.007   9.610  0.2498  0.2065 -0.2805
  640MOL0     C86298   8.489   0.962   9.556  0.2066 -1.1633 -0.4566
  640MOL0     C86299   8.374   0.958   9.628 -0.3362  0.4365 -0.4629
  640MOL0     C86300   8.371   1.018   9.751 -0.5689 -0.8676  0.6094
  640MOL0     O86301   8.256   1.050   9.817  0.4670  0.6842  0.0343
  640MOL0     C86302   8.136   0.982   9.774 -0.7970 -0.2806  0.3898
  640MOL0     C86303   8.017   1.008   9.866  0.2984  0.3266  0.2860
  640MOL0     C86304   7.922   1.124   9.830 -0.2202  0.6959  0.0210
  640MOL0     C86305   7.827   1.141   9.949 -0.5703  0.4451 -0.5831
  640MOL0     C86306   7.724   1.256   9.937  0.0367  0.2003  0.1821
  640MOL0     C86307   7.670   1.290  10.076 -0.4566  0.4323  0.3271
  640MOL0     C86308   7.534   1.375  10.067 -0.1990  1.0253 -0.5357
  640MOL0     C86309   7.511   1.439  10.203 -0.3538  0.4867  0.5864
  640MOL0    Cl86310   7.631   1.573  10.249  0.6314 -0.0260 -0.6284
  640MOL0     C86311   8.486   1.083   9.799  0.1954 -0.2167 -0.1429
  640MOL0     C86312   8.612   1.074   9.733 -0.3586  0.4250  0.1837
  640MOL0     O86313   8.873   0.964   9.713  0.8384 -0.6459 -0.4277
  640MOL0     C86314   8.932   0.997   9.357 -0.0611  0.4642  0.8037
  640MOL0     C86315   9.030   1.011   9.257  0.2959 -0.7233 -0.5648
  640MOL0     N86316   9.910   1.048   9.288  0.5007  0.6043 -1.2630
  640MOL0     N86317  10.025   1.086   9.322 -0.5544 -0.1812  0.3981
  640MOL0     C86318  10.991   1.855   9.737 -0.2376 -0.2868  0.0472
  640MOL0     C86319  11.087   1.918   9.664  0.3086  0.0336  0.7503
  640MOL0     C86320  11.402   2.081   9.413  0.0328 -0.2164  0.7221
  640MOL0     C86321  11.509   2.161   9.465  0.5107  0.2518 -0.7296
  640MOL0     C86322  11.627   2.180   9.395  0.0094 -0.2202  0.7414
  640MOL0     C86323  11.643   2.117   9.265 -0.0522  0.2830 -0.1311
  640MOL0     O86324  11.751   2.152   9.195 -0.6357 -0.2320  0.6990
  640MOL0     C86325  11.735   2.281   9.115 -0.4445  0.8826  0.6506
  640MOL0     C86326  11.751   2.409   9.202 -0.8131  0.8088  0.6715
  640MOL0     C86327  11.789   2.538   9.130  0.5138  0.9483 -0.1392
  640MOL0     C86328  11.920   2.536   9.051  0.5105  0.7291  0.0975
  640MOL0     C86329  11.941   2.668   8.994 -0.6791 -0.1921  0.3559
  640MOL0     C86330  11.979   2.770   8.950 -0.0248 -1.4631  0.5570
  640MOL0     C86331  11.541   2.037   9.215 -0.6168  0.8113 -0.1155
  640MOL0     C86332  11.424   2.008   9.291  0.4453 -0.9973 -0.3443
  640MOL0     H86333  11.072   1.754   9.368  0.1139  2.9957 -0.9992
  640MOL0     H86334  10.883   1.637   9.491  0.6157  0.0542 -1.7260
  640MOL0     H86335  10.718   1.604   9.594  2.4878 -2.1122 -0.5561
  640MOL0     H86336  10.784   1.476   9.703  0.5539  0.2658 -2.1575
  640MOL0     H86337  10.617   1.494   9.841 -1.6707 -1.1710 -1.0855
  640MOL0     H86338  10.560   1.660   9.794 -2.3794 -1.1359  0.6803
  640MOL0     H86339  10.546   1.428   9.603  1.4893  1.6219 -1.7050
  640MOL0     H86340  10.435   1.435   9.752 -0.8881  2.2178 -0.5165
  640MOL0     H86341  10.369   1.663   9.666  2.5338 -1.6162  1.3404
  640MOL0     H86342  10.466   1.638   9.518 -1.3067  1.2722 -1.3488
  640MOL0     H86343  10.223   1.592   9.467 -1.0390 -1.7500 -0.5767
  640MOL0     H86344  10.315   1.449   9.437 -1.3284 -2.0507  0.6204
  640MOL0     H86345  10.245   1.363   9.672  0.4583 -2.1735 -3.2679
  640MOL0     H86346  10.150   1.505   9.681 -0.3499 -1.3607  1.1421
  640MOL0     H86347  10.037   1.288   9.588 -0.0762  1.4649  1.5452
  640MOL0     H86348   9.997   1.426   9.520 -0.8616 -0.4903  2.2961
  640MOL0     H86349  10.222   1.248   9.389  0.4496  2.0509 -0.4260
  640MOL0     H86350  10.139   1.384   9.312 -3.4179  0.4369 -0.0009
  640MOL0     H86351   9.858   1.366   9.316  0.8268 -0.9601 -1.4628
  640MOL0     H86352   9.640   1.252   9.225 -1.6718 -1.3102 -2.8790
  640MOL0     H86353   9.662   1.119   9.132  0.0944  0.7124 -0.9134
  640MOL0     H86354   9.565   1.088   9.420 -1.7477  0.9015 -0.3995
  640MOL0     H86355   9.664   0.956   9.343  0.3851  0.2286 -2.2933
  640MOL0     H86356   9.421   0.933   9.320  1.8716 -0.3851  0.2735
  640MOL0     H86357   9.497   0.931   9.167 -1.8074 -2.2838  0.5893
  640MOL0     H86358   9.415   1.166   9.112  0.7200 -0.5979  0.2547
  640MOL0     H86359   9.395   1.203   9.280 -0.2553  1.0391 -1.2146
  640MOL0     H86360   9.295   1.072   9.457 -1.3902  2.0070  0.1166
  640MOL0     H86361   9.248   1.075   9.684 -1.4217  1.9530  2.3664
  640MOL0     H86362   9.078   1.080   9.735  0.3888 -1.5958  0.1773
  640MOL0     H86363   9.156   0.930   9.708  0.6938  0.6499  1.5400
  640MOL0     H86364   8.486   0.904   9.465 -1.8213  3.0723 -3.4001
  640MOL0     H86365   8.295   0.911   9.570  0.2653  0.9372 -1.7129
  640MOL0     H86366   8.121   0.995   9.666  0.9502 -1.9469 -0.1132
  640MOL0     H86367   8.159   0.877   9.796  2.0646  0.3727  0.8976
  640MOL0     H86368   7.964   0.912   9.866 -2.3618  1.7031 -0.6236
  640MOL0     H86369   8.051   1.023   9.969 -0.8085  0.4867  0.6397
  640MOL0     H86370   7.869   1.100   9.738 -2.5162 -2.4582  1.9391
  640MOL0     H86371   7.980   1.215   9.811  1.6886 -1.1059 -3.7308
  640MOL0     H86372   7.776   1.045   9.963  0.5375 -0.3820 -1.9844
  640MOL0     H86373   7.888   1.154  10.039 -0.8087 -0.2369 -0.3193
  640MOL0     H86374   7.639   1.217   9.880  2.0425 -1.9178 -1.5135
  640MOL0     H86375   7.770   1.339   9.883 -0.5304  1.3418  1.3924
  640MOL0     H86376   7.646   1.198  10.129  0.6245  0.1837  0.3948
  640MOL0     H86377   7.752   1.344  10.124  1.5498 -2.0632 -0.1157
  640MOL0     H86378   7.455   1.299  10.061  2.0251 -1.3620 -3.2080
  640MOL0     H86379   7.533   1.448   9.985 -1.2213  0.4517 -1.0480
  640MOL0     H86380   7.509   1.365  10.284  0.9642 -0.2203  0.0040
  640MOL0     H86381   7.410   1.480  10.197 -1.4170 -2.1183 -1.9676
  640MOL0     H86382   8.474   1.147   9.886 -0.7211  2.4772 -2.1082
  640MOL0     H86383   8.702   1.114   9.779  1.4129 -2.6951 -0.3368
  640MOL0     H86384   8.830   0.980   9.323 -1.0328  2.8373  2.2537
  640MOL0     H86385   9.026   0.996   9.149 -0.0409 -0.4924 -0.5860
  640MOL0     H86386  10.984   1.869   9.844 -0.9376  0.0874 -0.0435
  640MOL0     H86387  11.150   1.991   9.715  2.5802 -1.1654 -0.1795
  640MOL0     H86388  11.502   2.214   9.559  3.2641 -0.1713 -0.2075
  640MOL0     H86389  11.698   2.242   9.449 -2.0822  2.2899  0.7989
  640MOL0     H86390  11.805   2.279   9.031  0.3459 -1.6913  1.2777
  640MOL0     H86391  11.636   2.282   9.069 -0.2157 -0.1904  0.0918
  640MOL0     H86392  11.830   2.389   9.276  1.4245 -0.2375 -1.8193
  640MOL0     H86393  11.663   2.428   9.263  0.0451  1.7826  1.6570
  640MOL0     H86394  11.782   2.614   9.209 -3.7508  0.3493  0.2868
  640MOL0     H86395  11.713   2.562   9.055  0.6717 -0.1268 -0.6618
  640MOL0     H86396  11.911   2.452   8.983 -3.8526  0.0773  1.2053
  640MOL0     H86397  12.008   2.521   9.115  1.7485 -1.1095 -1.8955
  640MOL0     H86398  12.007   2.865   8.909 -0.1092 -1.0522  1.4309
  640MOL0     H86399  11.571   1.996   9.119 -0.2088  2.9108 -0.9483
  640MOL0     H86400  11.353   1.939   9.247  1.0166 -0.8348 -1.5790
  641MOL0     O86401  11.299   4.868   1.893  0.8232 -0.5753 -1.2177
  641MOL0     C86402  11.400   4.809   1.900 -1.0631 -0.3869  0.9674
  641MOL0     O86403  11.418   4.677   1.856 -0.5851 -0.0426 -1.0443
  641MOL0     C86404  11.311   4.608   1.806  0.2961 -0.6573 -0.1704
  641MOL0     C86405  11.229   4.533   1.895  0.4279 -0.7614  0.9331
  641MOL0     C86406  11.127   4.448   1.839 -0.1910  0.6302 -0.4613
  641MOL0     C86407  11.096   4.445   1.700 -1.0269 -0.1830 -0.3853
  641MOL0     O86408  11.016   4.358   1.634  0.7228 -0.0511 -0.7393
  641MOL0     C86409  10.883   4.351   1.688  0.4329  0.1494  0.6465
  641MOL0     C86410  10.789   4.389   1.568 -0.6959  0.3959  0.0687
  641MOL0     C86411  10.697   4.271   1.533 -0.6037  0.5826  0.7798
  641MOL0     C86412  10.595   4.312   1.429 -0.3138  0.1840  0.2752
  641MOL0     C86413  10.512   4.185   1.387  1.3749  0.1256  0.5153
  641MOL0     C86414  10.404   4.227   1.281 -0.4352 -0.4189 -0.7545
  641MOL0     C86415  10.276   4.295   1.339 -0.3229  0.0126  0.2828
  641MOL0     C86416  10.188   4.341   1.220  0.1854  0.0858 -0.8335
  641MOL0     N86417  10.118   4.227   1.149 -0.8686  0.2767 -0.8181
  641MOL0     C86418   9.992   4.196   1.173  0.0123 -0.2883  0.3491
  641MOL0     C86419   9.963   4.083   1.101  0.2391  0.8152 -0.6290
  641MOL0     C86420   9.843   3.996   1.111  0.4644  0.1477  0.8974
  641MOL0     C86421   9.722   4.073   1.176 -0.9034 -0.0105 -0.7239
  641MOL0     C86422   9.605   3.964   1.152  0.7546  0.7447 -0.2682
  641MOL0     C86423   9.462   4.026   1.183 -0.1015 -0.4670  0.4963
  641MOL0     O86424   9.413   4.118   1.081  0.7749 -0.3757 -0.3008
  641MOL0     C86425   9.285   4.167   1.103 -0.2640  0.2595 -0.4406
  641MOL0     C86426   9.274   4.307   1.099 -2.1524  1.5346  0.4111
  641MOL0     C86427   9.153   4.369   1.115 -0.5760  1.0219 -0.4989
  641MOL0     C86428   9.150   4.521   1.125 -0.1977 -0.1336  0.5072
  641MOL0     C86429   9.038   4.289   1.132 -0.4782  0.2693 -0.3385
  641MOL0     C86430   8.898   4.336   1.159  0.4420  0.8661  0.9709
  641MOL0     O86431   8.791   4.252   1.142  0.1440  0.4117  0.0571
  641MOL0     C86432   8.667   4.301   1.167 -0.0137 -0.1085  0.4553
  641MOL0     C86433   8.617   4.398   1.072 -0.0844 -0.2173 -0.3624
  641MOL0     C86434   8.483   4.436   1.083  0.1058  0.6651 -0.6863
  641MOL0     C86435   8.397   4.390   1.186 -1.3973  0.0557 -0.1450
  641MOL0     O86436   8.264   4.419   1.210 -0.0974  0.2253  0.1711
  641MOL0     C86437   8.189   4.481   1.104  0.6084  0.2785  0.6843
  641MOL0     C86438   8.052   4.485   1.163  0.1731  0.7449  0.9227
  641MOL0     C86439   8.042   4.599   1.266 -0.0996  0.2740  0.8896
  641MOL0     C86440   7.916   4.584   1.346 -0.1149 -0.8151 -0.2926
  641MOL0     C86441   7.878   4.717   1.412 -0.3653 -0.3845 -0.3047
  641MOL0     C86442   7.739   4.712   1.460  0.1175  0.4268  0.0442
  641MOL0     C86443   7.694   4.854   1.503 -0.8271 -0.5032 -0.1713
  641MOL0     C86444   7.539   4.855   1.523 -0.1694 -0.4334  0.2532
  641MOL0    Cl86445   7.463   4.841   1.362  0.1016 -0.3479  0.6566
  641MOL0     C86446   8.457   4.323   1.293  0.2004 -0.0489 -0.4630
  641MOL0     C86447   8.591   4.280   1.283  0.0164  0.1893  0.0041
  641MOL0     O86448   8.887   4.450   1.208 -0.0384 -0.3022  0.0229
  641MOL0     C86449   9.049   4.149   1.109  0.4210 -0.4582  0.3629
  641MOL0     C86450   9.174   4.084   1.095 -0.6469 -0.2441  0.3130
  641MOL0     N86451  10.082   4.059   1.030  0.8804 -0.0326 -0.1920
  641MOL0     N86452  10.174   4.139   1.065 -0.3984 -0.0365 -0.3022
  641MOL0     C86453  11.171   4.534   1.616 -0.0834 -0.3232 -0.5290
  641MOL0     C86454  11.284   4.611   1.669  0.6418  0.1580  0.4824
  641MOL0     C86455  11.516   4.868   1.962 -0.2960  0.4881 -0.0078
  641MOL0     C86456  11.507   4.991   2.032 -0.0312 -0.2848 -1.1996
  641MOL0     C86457  11.626   5.057   2.074 -0.7674 -0.8725 -0.4189
  641MOL0     C86458  11.748   4.998   2.066  0.3995 -0.7272  0.0596
  641MOL0     O86459  11.853   5.074   2.111 -0.8918  0.6406 -0.1602
  641MOL0     C86460  11.986   5.017   2.141 -0.4333  0.3468  0.5218
  641MOL0     C86461  12.089   5.131   2.124 -0.7182 -0.1024  0.0750
  641MOL0     C86462  12.095   5.189   1.981  0.6258  0.1448 -0.1171
  641MOL0     C86463  12.077   5.088   1.867 -0.3126 -0.3695 -1.3664
  641MOL0     C86464  12.195   5.001   1.878 -0.5608  0.1297 -0.1818
  641MOL0     C86465  12.293   4.923   1.883 -0.3227 -0.0346 -0.0932
  641MOL0     C86466  11.755   4.871   2.006  0.4000  0.5053 -0.1527
  641MOL0     C86467  11.642   4.815   1.944  0.6302 -0.8039 -0.0177
  641MOL0     H86468  11.250   4.537   2.001  2.6460 -2.0390  0.6090
  641MOL0     H86469  11.074   4.379   1.904  4.3799 -2.5505  0.3823
  641MOL0     H86470  10.865   4.251   1.730  0.2088 -0.0807  0.0141
  641MOL0     H86471  10.866   4.424   1.767  2.4453  0.4926  0.8110
  641MOL0     H86472  10.737   4.483   1.593  1.9515  1.9677  0.0288
  641MOL0     H86473  10.847   4.407   1.477  1.2199  1.9962  1.5117
  641MOL0     H86474  10.755   4.186   1.496 -0.5309  0.3680  1.3729
  641MOL0     H86475  10.656   4.220   1.620 -0.4979 -0.8515  0.0321
  641MOL0     H86476  10.541   4.400   1.465  0.0115 -0.2911  2.0167
  641MOL0     H86477  10.654   4.341   1.342  1.0221  2.2535  1.7779
  641MOL0     H86478  10.586   4.117   1.344  1.4613  0.3661  0.2749
  641MOL0     H86479  10.464   4.131   1.469 -1.9048  0.0181 -1.3105
  641MOL0     H86480  10.445   4.292   1.203  0.5202 -2.0018 -1.6318
  641MOL0     H86481  10.383   4.139   1.219  1.3157 -0.8680 -0.7401
  641MOL0     H86482  10.213   4.223   1.391 -0.1177 -2.0317 -2.1022
  641MOL0     H86483  10.301   4.380   1.403 -0.9825 -1.2583  2.3270
  641MOL0     H86484  10.241   4.394   1.141 -1.0457 -0.2872 -1.9460
  641MOL0     H86485  10.121   4.419   1.260  1.5084  1.7231 -1.6663
  641MOL0     H86486   9.932   4.245   1.249 -0.0650  0.8577 -0.4267
  641MOL0     H86487   9.825   3.955   1.011 -0.7169  2.5004  0.0544
  641MOL0     H86488   9.861   3.911   1.177  4.3328 -0.5142 -0.7733
  641MOL0     H86489   9.706   4.154   1.104  0.3644  2.0005  1.1404
  641MOL0     H86490   9.731   4.111   1.278  1.7070  0.0920 -0.9207
  641MOL0     H86491   9.608   3.881   1.222  2.2835  0.6889 -0.3598
  641MOL0     H86492   9.608   3.922   1.051 -1.5842 -3.5856  1.2304
  641MOL0     H86493   9.472   4.083   1.276 -0.2594  0.2719  0.0704
  641MOL0     H86494   9.389   3.945   1.192  0.1228 -0.7274  0.0295
  641MOL0     H86495   9.362   4.369   1.083 -2.1184  1.1761 -0.8811
  641MOL0     H86496   9.067   4.581   1.087  0.2662  0.8484  1.0038
  641MOL0     H86497   9.150   4.541   1.233 -2.3077  0.8786  0.3609
  641MOL0     H86498   9.241   4.561   1.080 -0.6636  0.1828 -0.1615
  641MOL0     H86499   8.667   4.435   0.984  0.3004 -0.5373 -0.2779
  641MOL0     H86500   8.453   4.509   1.009  0.8950  2.8392  1.0236
  641MOL0     H86501   8.228   4.580   1.078  0.4481  1.6699  4.9611
  641MOL0     H86502   8.196   4.411   1.020 -1.2068  0.2325  0.5283
  641MOL0     H86503   7.983   4.509   1.082  0.7760 -2.3928 -0.6655
  641MOL0     H86504   8.019   4.392   1.211  3.1203 -1.1277 -0.3726
  641MOL0     H86505   8.032   4.694   1.214 -0.8692  0.4912  1.4188
  641MOL0     H86506   8.124   4.602   1.339 -1.7409 -2.4646  3.0564
  641MOL0     H86507   7.841   4.548   1.275  0.8925 -1.3354 -1.1099
  641MOL0     H86508   7.915   4.521   1.435  1.9667 -0.0608  0.3211
  641MOL0     H86509   7.896   4.800   1.342  0.9661 -0.4559 -0.0793
  641MOL0     H86510   7.951   4.729   1.492  1.4092 -0.0838 -1.8793
  641MOL0     H86511   7.669   4.677   1.384 -0.4320  0.3299  0.5887
  641MOL0     H86512   7.726   4.645   1.546 -0.2192  0.5085  0.0599
  641MOL0     H86513   7.723   4.925   1.425 -0.8709 -0.8042 -0.4670
  641MOL0     H86514   7.747   4.877   1.596 -0.3438 -2.0573 -0.0399
  641MOL0     H86515   7.513   4.950   1.570  1.0414 -0.0582  0.1739
  641MOL0     H86516   7.507   4.782   1.598  0.4834 -0.1622  0.8021
  641MOL0     H86517   8.402   4.302   1.384 -0.1046 -1.0741 -0.8618
  641MOL0     H86518   8.653   4.236   1.360 -0.7241 -0.3133  0.3135
  641MOL0     H86519   8.969   4.076   1.104  0.7577 -0.9128  1.3664
  641MOL0     H86520   9.195   3.977   1.094 -0.0280 -0.1254  0.3207
  641MOL0     H86521  11.156   4.541   1.509  0.6706 -0.6243 -0.6569
  641MOL0     H86522  11.343   4.674   1.604 -2.1852  1.4152 -1.0784
  641MOL0     H86523  11.420   5.037   2.077  1.6721 -1.3903  3.7874
  641MOL0     H86524  11.631   5.158   2.114 -1.2491 -0.7231 -0.7281
  641MOL0     H86525  11.981   4.987   2.246 -0.2875  0.5066  0.5743
  641MOL0     H86526  12.013   4.926   2.085 -0.8231  1.5250 -1.7051
  641MOL0     H86527  12.184   5.107   2.173 -0.8971 -0.3506  0.3034
  641MOL0     H86528  12.054   5.212   2.188 -2.9845 -0.0309 -1.1788
  641MOL0     H86529  12.178   5.256   1.956  1.7723 -1.1673  0.0544
  641MOL0     H86530  12.008   5.253   1.967  2.4877  2.3024 -3.0272
  641MOL0     H86531  12.075   5.129   1.765  0.2536  0.0593 -1.2154
  641MOL0     H86532  11.986   5.029   1.870  1.8648 -3.9944  0.7075
  641MOL0     H86533  12.378   4.859   1.898 -1.1299 -1.1048  0.0039
  641MOL0     H86534  11.843   4.808   1.999  0.6111  0.8919 -1.2563
  641MOL0     H86535  11.661   4.718   1.898  1.1761 -0.1336 -1.2433
  642MOL0     O86536  10.559   2.454  10.770  0.6084  0.4252  0.3223
  642MOL0     C86537  10.599   2.488  10.660  0.2607 -0.8508 -0.1313
  642MOL0     O86538  10.526   2.528  10.546 -0.3213 -0.2722 -0.6017
  642MOL0     C86539  10.394   2.557  10.558  0.3685 -0.3231 -0.2075
  642MOL0     C86540  10.341   2.633  10.669 -0.1446 -0.0108 -0.1138
  642MOL0     C86541  10.210   2.673  10.667 -0.1424 -0.0061  0.5302
  642MOL0     C86542  10.134   2.645  10.553 -0.9013  0.1586 -0.4526
  642MOL0     O86543  10.006   2.694  10.561  0.3313 -0.4777 -0.1524
  642MOL0     C86544   9.899   2.607  10.524 -0.1718  0.3953  0.1909
  642MOL0     C86545   9.869   2.505  10.628 -0.0178  0.2889  0.4040
  642MOL0     C86546   9.740   2.433  10.587 -0.6704  0.0213 -0.0063
  642MOL0     C86547   9.712   2.313  10.685  1.1007 -0.8649  0.0314
  642MOL0     C86548   9.563   2.263  10.657  1.4207 -0.6547  0.5842
  642MOL0     C86549   9.556   2.168  10.538 -0.3571  0.4316  0.8021
  642MOL0     C86550   9.431   2.092  10.513 -0.2200 -0.5177  0.1345
  642MOL0     C86551   9.307   2.178  10.471  0.2795 -0.5556 -0.6627
  642MOL0     N86552   9.345   2.261  10.354  0.0242 -0.3620 -0.4723
  642MOL0     C86553   9.380   2.391  10.355  0.3455 -0.4533 -0.1336
  642MOL0     C86554   9.421   2.416  10.227 -0.0644 -0.2049 -0.4468
  642MOL0     C86555   9.446   2.553  10.166 -0.6215  0.5787  0.3055
  642MOL0     C86556   9.549   2.640  10.242 -0.1377 -0.0420  1.0483
  642MOL0     C86557   9.567   2.770  10.161 -0.0212 -0.0321 -0.3319
  642MOL0     C86558   9.648   2.883  10.230  0.0151 -0.3776 -0.3568
  642MOL0     O86559   9.780   2.824  10.252  0.3813 -0.2313 -1.0245
  642MOL0     C86560   9.880   2.872  10.173  0.4285  0.1927  0.1436
  642MOL0     C86561   9.877   2.929  10.044 -0.0506 -0.9798  0.2624
  642MOL0     C86562   9.995   2.949   9.972  0.2536 -0.6206  0.0705
  642MOL0     C86563   9.985   3.010   9.833 -0.1169  0.2155  0.3413
  642MOL0     C86564  10.119   2.898  10.016 -0.4314  0.0162 -0.2734
  642MOL0     C86565  10.248   2.924   9.957 -0.4717 -0.6633 -0.0691
  642MOL0     O86566  10.344   2.831   9.974 -0.0380  0.4072 -0.4910
  642MOL0     C86567  10.468   2.845   9.918 -0.2059 -0.2966 -0.2432
  642MOL0     C86568  10.550   2.932   9.974  0.6116 -0.2498 -0.4357
  642MOL0     C86569  10.682   2.948   9.940  0.0185  0.4384  0.2612
  642MOL0     C86570  10.732   2.866   9.836  0.6199 -0.3849  0.5544
  642MOL0     O86571  10.856   2.884   9.779 -0.2024 -0.4552  0.4962
  642MOL0     C86572  10.901   3.009   9.723  0.2690  0.3798  0.1509
  642MOL0     C86573  11.048   2.986   9.673  0.1011 -0.8312 -0.6042
  642MOL0     C86574  11.157   3.039   9.765 -0.1453  0.1761  0.3164
  642MOL0     C86575  11.144   2.996   9.913  0.5274  0.0867  0.0417
  642MOL0     C86576  11.219   2.864   9.947 -0.1514  0.6400 -0.3717
  642MOL0     C86577  11.184   2.816  10.086 -0.2459  0.3407  0.6405
  642MOL0     C86578  11.246   2.668  10.117  0.7669  0.0670 -0.0767
  642MOL0     C86579  11.162   2.559  10.063  0.8799 -0.0155 -0.0019
  642MOL0    Cl86580  11.201   2.413  10.143 -0.5787 -0.2462 -0.2742
  642MOL0     C86581  10.650   2.764   9.780  0.1114 -0.0728  0.3673
  642MOL0     C86582  10.522   2.754   9.829 -0.3017  0.2834 -0.2518
  642MOL0     O86583  10.265   3.027   9.888 -0.6474  0.6707 -0.2273
  642MOL0     C86584  10.121   2.843  10.141  0.3229 -0.6735 -0.1820
  642MOL0     C86585   9.999   2.828  10.214 -0.0806 -0.3050  0.1626
  642MOL0     N86586   9.401   2.298  10.151  0.6007 -0.0558  0.0015
  642MOL0     N86587   9.357   2.206  10.231  0.0475 -0.4828 -0.3597
  642MOL0     C86588  10.187   2.593  10.441  0.1549  0.7223 -0.0845
  642MOL0     C86589  10.317   2.554  10.442 -0.1786 -0.3104 -0.2777
  642MOL0     C86590  10.747   2.479  10.640  0.0056 -0.1837 -0.1357
  642MOL0     C86591  10.836   2.494  10.744  0.1034  0.6205 -0.6634
  642MOL0     C86592  10.975   2.475  10.727  0.2224 -0.9652 -0.2277
  642MOL0     C86593  11.029   2.442  10.601 -0.2218 -0.1560 -0.0404
  642MOL0     O86594  11.163   2.410  10.600  0.3563  0.5006  0.3863
  642MOL0     C86595  11.224   2.354  10.483  0.6785  0.4145  0.9650
  642MOL0     C86596  11.360   2.293  10.507 -0.2222 -0.1402 -0.2857
  642MOL0     C86597  11.451   2.281  10.382  0.3578 -0.2045  0.0039
  642MOL0     C86598  11.494   2.413  10.323 -0.0219  0.1048 -0.6161
  642MOL0     C86599  11.581   2.397  10.207 -0.1280 -0.0578  0.1889
  642MOL0     C86600  11.651   2.388  10.106 -0.5341 -0.2588  0.4178
  642MOL0     C86601  10.944   2.434  10.490 -1.2058 -0.3195 -1.0108
  642MOL0     C86602  10.809   2.449  10.512  0.8609 -0.0626 -0.2185
  642MOL0     H86603  10.413   2.646  10.750  0.8889 -2.0384 -0.6240
  642MOL0     H86604  10.163   2.726  10.749  0.6151  2.2662 -0.4412
  642MOL0     H86605   9.805   2.657  10.498 -1.0062 -1.2621 -0.1055
  642MOL0     H86606   9.912   2.544  10.436 -1.1922 -0.5968  0.7240
  642MOL0     H86607   9.944   2.426  10.637 -1.5477 -1.8506 -3.2158
  642MOL0     H86608   9.862   2.557  10.724  0.3132 -2.2518  1.8992
  642MOL0     H86609   9.654   2.499  10.588  1.9146  3.7486 -0.7343
  642MOL0     H86610   9.736   2.389  10.487 -3.5395  0.1058 -0.0001
  642MOL0     H86611   9.790   2.236  10.692  2.6569  0.7313  1.0014
  642MOL0     H86612   9.712   2.357  10.786 -0.2963  1.0135 -0.7249
  642MOL0     H86613   9.515   2.225  10.747 -0.0667  0.8981  0.4825
  642MOL0     H86614   9.497   2.340  10.616  2.5282  0.8597  1.5409
  642MOL0     H86615   9.583   2.220  10.445 -0.2462  0.8027  1.0390
  642MOL0     H86616   9.634   2.093  10.555 -1.5219 -0.8105  0.8145
  642MOL0     H86617   9.444   2.021  10.431 -0.6807 -0.0612 -0.3331
  642MOL0     H86618   9.425   2.027  10.602 -0.7272  0.1258  0.5796
  642MOL0     H86619   9.272   2.233  10.559  0.7862  1.1051 -1.4514
  642MOL0     H86620   9.223   2.118  10.433  0.2996  0.6635 -2.8026
  642MOL0     H86621   9.381   2.470  10.430 -1.6876  0.1123 -0.6308
  642MOL0     H86622   9.494   2.533  10.070 -1.5688 -1.7220  0.2422
  642MOL0     H86623   9.353   2.609  10.150  0.2725  1.4924 -2.2355
  642MOL0     H86624   9.644   2.586  10.256  1.2720  2.2328  0.8101
  642MOL0     H86625   9.524   2.649  10.348 -0.0812 -1.1480  1.1701
  642MOL0     H86626   9.469   2.813  10.140 -0.3688 -1.4825 -1.8841
  642MOL0     H86627   9.618   2.747  10.066 -0.9229 -1.3967 -0.5163
  642MOL0     H86628   9.608   2.908  10.329  0.2951 -1.7146  0.1076
  642MOL0     H86629   9.645   2.977  10.174  0.9796  0.1391  0.4105
  642MOL0     H86630   9.785   2.957   9.993  0.7966  1.9997  0.1969
  642MOL0     H86631   9.887   2.998   9.785  0.8175 -1.6381 -1.2478
  642MOL0     H86632  10.015   3.115   9.839  0.5771 -0.0130  0.9524
  642MOL0     H86633  10.048   2.967   9.755 -2.4430  0.7170 -1.9840
  642MOL0     H86634  10.513   2.988  10.059 -0.5208 -0.9618 -0.4472
  642MOL0     H86635  10.752   3.003  10.002  1.1390 -0.6333 -0.0207
  642MOL0     H86636  10.850   3.022   9.628  2.2188  0.9810 -0.8653
  642MOL0     H86637  10.885   3.098   9.785 -1.2745  0.2231  0.0116
  642MOL0     H86638  11.075   2.883   9.650 -1.8232 -1.2932 -0.9872
  642MOL0     H86639  11.053   3.040   9.578 -1.3872  0.8319  0.2012
  642MOL0     H86640  11.149   3.148   9.755 -0.0688  0.1689  0.1874
  642MOL0     H86641  11.259   3.014   9.736  0.1180 -1.5877  2.4277
  642MOL0     H86642  11.173   3.076   9.982 -1.6583 -0.8841  2.2541
  642MOL0     H86643  11.040   2.964   9.927  0.4701 -0.5586 -1.6860
  642MOL0     H86644  11.327   2.880   9.950 -0.1603  0.6784 -0.2375
  642MOL0     H86645  11.198   2.794   9.867  1.9840  0.9654 -1.2881
  642MOL0     H86646  11.227   2.888  10.156  0.7228  1.9770 -1.5216
  642MOL0     H86647  11.075   2.825  10.086 -0.0805  3.4911  0.1721
  642MOL0     H86648  11.269   2.651  10.223 -0.4993  1.1860  0.3917
  642MOL0     H86649  11.347   2.654  10.076  0.8051  1.4865 -0.5053
  642MOL0     H86650  11.170   2.545   9.954  0.0056  0.0842 -0.0889
  642MOL0     H86651  11.056   2.577  10.085  1.3896  2.7098  0.5485
  642MOL0     H86652  10.674   2.706   9.691 -4.7263 -0.5951 -0.9066
  642MOL0     H86653  10.456   2.670   9.806  0.6663  0.3120 -3.5859
  642MOL0     H86654  10.216   2.818  10.188  0.9817  1.9450  0.0762
  642MOL0     H86655   9.987   2.784  10.313 -3.0783 -1.8611 -0.7671
  642MOL0     H86656  10.128   2.588  10.350  1.5113  6.3621 -1.7042
  642MOL0     H86657  10.370   2.518  10.354 -0.1953  1.6437 -1.1326
  642MOL0     H86658  10.802   2.517  10.845 -1.6113 -1.4358 -0.7050
  642MOL0     H86659  11.039   2.482  10.815 -1.2747 -0.9548  0.9089
  642MOL0     H86660  11.159   2.274  10.446 -2.7248  3.8022 -0.9367
  642MOL0     H86661  11.226   2.435  10.410 -0.4581  1.9949  2.5899
  642MOL0     H86662  11.346   2.188  10.536 -0.8447 -0.1715 -0.6906
  642MOL0     H86663  11.419   2.337  10.588 -1.2620  0.2228  0.2827
  642MOL0     H86664  11.404   2.212  10.311 -0.3157  0.3080 -0.0562
  642MOL0     H86665  11.546   2.236  10.411  0.9113  1.8303  1.6081
  642MOL0     H86666  11.538   2.471  10.405  0.1167 -0.6077 -0.1833
  642MOL0     H86667  11.410   2.476  10.294  0.3186  1.9649  1.9825
  642MOL0     H86668  11.701   2.400  10.012 -1.0503  1.6082  0.3553
  642MOL0     H86669  10.966   2.413  10.386 -2.0351 -1.0459 -1.0565
  642MOL0     H86670  10.742   2.438  10.428 -1.0727 -1.3588  1.4025
  643MOL0     O86671   3.639   6.944   1.663 -0.0240  0.4509 -0.7463
  643MOL0     C86672   3.632   6.819   1.669 -0.1891 -0.1033  0.8801
  643MOL0     O86673   3.520   6.748   1.713  0.5299  0.4219 -0.1813
  643MOL0     C86674   3.414   6.825   1.741  0.5094 -0.4803  0.1230
  643MOL0     C86675   3.362   6.816   1.872  0.2747  0.2456  0.3364
  643MOL0     C86676   3.255   6.894   1.913 -0.5583 -0.7688  0.0396
  643MOL0     C86677   3.191   6.977   1.823 -0.4574  0.3498 -0.6300
  643MOL0     O86678   3.089   7.064   1.860  0.1218 -0.4015  0.1514
  643MOL0     C86679   2.959   6.994   1.850 -0.2317 -0.1959  0.5311
  643MOL0     C86680   2.852   7.095   1.907  0.5721 -0.1725 -0.4717
  643MOL0     C86681   2.711   7.055   1.875  0.8746  0.5867  0.3021
  643MOL0     C86682   2.605   7.149   1.938  0.7115 -0.6968 -0.1633
  643MOL0     C86683   2.455   7.097   1.916 -0.1704 -0.2051 -0.8766
  643MOL0     C86684   2.402   7.008   2.042  0.7956  0.2930 -0.2621
  643MOL0     C86685   2.248   6.999   2.041 -0.7044 -1.3225 -0.5123
  643MOL0     C86686   2.198   7.129   2.110  0.1282  0.3619  0.4341
  643MOL0     N86687   2.054   7.137   2.085  0.1460 -0.3003  0.9643
  643MOL0     C86688   1.986   7.101   1.970  0.4987  0.1175 -0.4014
  643MOL0     C86689   1.859   7.116   2.007 -0.3713 -0.2581 -0.4572
  643MOL0     C86690   1.754   7.120   1.903 -0.2167  0.3372  0.5079
  643MOL0     C86691   1.669   7.005   1.906  0.7377  0.1955  0.1024
  643MOL0     C86692   1.543   7.012   2.002 -0.4108 -0.4438  0.5794
  643MOL0     C86693   1.452   6.887   1.996 -0.1468  0.5726  0.1707
  643MOL0     O86694   1.367   6.903   1.883  0.4218 -0.3918 -0.4282
  643MOL0     C86695   1.252   6.833   1.871 -0.2988 -0.4666 -0.8478
  643MOL0     C86696   1.166   6.872   1.774 -0.2343  0.4238  0.0701
  643MOL0     C86697   1.037   6.822   1.752 -0.0394 -0.0559 -0.7694
  643MOL0     C86698   0.962   6.878   1.630  0.0420 -0.3263  0.0523
  643MOL0     C86699   0.991   6.717   1.835  0.5091 -0.3943 -0.4174
  643MOL0     C86700   0.853   6.658   1.831 -0.6585  0.1239  0.5450
  643MOL0     O86701   0.822   6.580   1.941 -0.5652  0.4892  0.6276
  643MOL0     C86702   0.692   6.560   1.989  0.2310  0.4191  1.0496
  643MOL0     C86703   0.661   6.452   2.078 -0.6393  0.1344  0.0021
  643MOL0     C86704   0.527   6.440   2.131  0.0548 -0.6106 -0.0791
  643MOL0     C86705   0.431   6.527   2.097  0.0131 -0.2925 -0.0340
  643MOL0     O86706   0.302   6.511   2.134 -0.3637  0.3003 -0.4496
  643MOL0     C86707   0.260   6.470   2.270  0.3509  0.3882  0.7308
  643MOL0     C86708   0.213   6.325   2.254 -0.5472 -0.0268 -0.6278
  643MOL0     C86709   0.104   6.313   2.145 -0.3271  0.6396 -0.3808
  643MOL0     C86710   0.001   6.199   2.182  0.2665 -1.1564  0.1140
  643MOL0     C86711  -0.114   6.198   2.076  0.3703  0.4168  0.9260
  643MOL0     C86712  -0.192   6.062   2.091 -0.4601  0.2848  0.4046
  643MOL0     C86713  -0.255   6.040   2.237  0.3908 -0.1695  0.6786
  643MOL0     C86714  -0.363   5.928   2.238  0.8471 -0.4610 -0.5507
  643MOL0    Cl86715  -0.290   5.759   2.236  0.0803 -0.2480  0.3615
  643MOL0     C86716   0.461   6.636   2.019  0.0145 -0.4144  0.1425
  643MOL0     C86717   0.589   6.655   1.962  1.0959 -0.3358  0.0653
  643MOL0     O86718   0.784   6.669   1.732 -0.1230  0.0669  0.7547
  643MOL0     C86719   1.081   6.678   1.943 -0.2940  0.8055  0.3087
  643MOL0     C86720   1.205   6.736   1.965 -0.0731  0.4443  0.1088
  643MOL0     N86721   1.850   7.114   2.142  0.3636  0.3738 -0.2425
  643MOL0     N86722   1.973   7.120   2.193 -0.2162  0.7613 -0.3019
  643MOL0     C86723   3.232   6.982   1.692  0.7138 -0.3391 -0.7265
  643MOL0     C86724   3.343   6.907   1.649 -0.4689 -0.0807 -0.5201
  643MOL0     C86725   3.752   6.741   1.615  0.4001 -0.3815 -0.3737
  643MOL0     C86726   3.869   6.815   1.580 -0.6744  0.2405  0.4677
  643MOL0     C86727   3.987   6.745   1.555  0.0615 -0.3012  0.7420
  643MOL0     C86728   3.990   6.605   1.567 -0.2041 -0.7416  0.5515
  643MOL0     O86729   4.119   6.553   1.537 -0.1450  0.0581  0.1946
  643MOL0     C86730   4.130   6.451   1.437  0.8301 -0.0094  0.1694
  643MOL0     C86731   4.265   6.452   1.365 -0.6784 -0.4360 -0.2776
  643MOL0     C86732   4.257   6.411   1.219  0.5671  0.3338  0.0313
  643MOL0     C86733   4.396   6.399   1.141 -0.2851 -0.2664  0.1664
  643MOL0     C86734   4.467   6.521   1.135 -0.1445 -0.6963  0.0511
  643MOL0     C86735   4.538   6.612   1.105  0.0851 -0.7840  0.1181
  643MOL0     C86736   3.868   6.540   1.589 -0.5167  0.8109 -0.3074
  643MOL0     C86737   3.750   6.604   1.616  0.0432  0.4102  0.4269
  643MOL0     H86738   3.405   6.734   1.928 -0.9825 -0.8858 -0.2887
  643MOL0     H86739   3.226   6.895   2.018  2.8639  0.9906  1.1394
  643MOL0     H86740   2.948   6.974   1.743 -0.6096  3.6858 -0.2937
  643MOL0     H86741   2.955   6.903   1.910 -3.8501  0.0567  0.9005
  643MOL0     H86742   2.871   7.095   2.015 -0.1840 -2.8498 -0.2658
  643MOL0     H86743   2.873   7.188   1.854 -1.1964 -1.1953 -3.1505
  643MOL0     H86744   2.688   7.049   1.768  1.6260  1.7126  0.0532
  643MOL0     H86745   2.703   6.960   1.929  0.2373  1.7855  2.4723
  643MOL0     H86746   2.617   7.182   2.041  0.4864 -2.4880  0.4691
  643MOL0     H86747   2.614   7.235   1.870  1.0706  0.1553  0.9405
  643MOL0     H86748   2.392   7.186   1.908  0.8590  0.5484 -0.7251
  643MOL0     H86749   2.445   7.046   1.820 -1.5136  0.2787 -1.0180
  643MOL0     H86750   2.434   6.904   2.031  2.1078  0.6559 -0.0602
  643MOL0     H86751   2.441   7.038   2.139 -2.9899 -0.1620  1.6048
  643MOL0     H86752   2.222   6.990   1.935 -0.0105 -0.5384 -0.7592
  643MOL0     H86753   2.211   6.909   2.091 -0.3574  0.0305  2.4010
  643MOL0     H86754   2.246   7.221   2.077 -0.4631  0.6291  0.3036
  643MOL0     H86755   2.222   7.128   2.216 -0.9448  1.1607  0.6993
  643MOL0     H86756   2.031   7.093   1.871 -1.0740 -1.2312 -1.0622
  643MOL0     H86757   1.696   7.210   1.928 -1.1061 -0.2363  0.5359
  643MOL0     H86758   1.800   7.136   1.805  2.1559 -0.7238  1.3683
  643MOL0     H86759   1.726   6.917   1.937  0.5096 -0.5711 -1.5423
  643MOL0     H86760   1.636   7.001   1.802  0.3997  0.4083  0.2018
  643MOL0     H86761   1.487   7.105   1.990  1.0512  0.8448  2.9469
  643MOL0     H86762   1.579   7.000   2.105  2.2343 -0.4252 -0.2660
  643MOL0     H86763   1.405   6.861   2.091  2.7808  0.1193  1.5927
  643MOL0     H86764   1.519   6.801   1.983  0.0734  0.3903  2.2837
  643MOL0     H86765   1.190   6.951   1.704 -1.9356  0.6651 -0.2980
  643MOL0     H86766   1.018   6.963   1.590  1.4497 -1.2111  0.1062
  643MOL0     H86767   0.941   6.796   1.560 -4.3810  1.0137 -0.5236
  643MOL0     H86768   0.866   6.915   1.667  0.6245  1.7293 -0.3534
  643MOL0     H86769   0.740   6.378   2.085 -1.5632 -0.9686 -0.6809
  643MOL0     H86770   0.497   6.349   2.181  0.4382  0.1693  1.6524
  643MOL0     H86771   0.338   6.458   2.346  0.1799 -1.3354  0.6718
  643MOL0     H86772   0.177   6.531   2.307  0.9832  3.8253 -2.8644
  643MOL0     H86773   0.300   6.261   2.243  0.0310 -0.1593  3.3426
  643MOL0     H86774   0.168   6.288   2.347 -1.6533  1.3938 -0.5533
  643MOL0     H86775   0.159   6.290   2.053  0.2772 -2.0534  0.5595
  643MOL0     H86776   0.053   6.410   2.143  0.9330  1.3454 -0.0641
  643MOL0     H86777   0.062   6.108   2.178  0.4566 -1.1109  1.5548
  643MOL0     H86778  -0.033   6.209   2.285  0.8640 -1.1557  0.3173
  643MOL0     H86779  -0.076   6.198   1.973 -0.7447 -3.3360  0.3823
  643MOL0     H86780  -0.170   6.291   2.088 -0.1677  0.2537 -0.1696
  643MOL0     H86781  -0.273   6.067   2.018  0.8970  1.9688 -1.0826
  643MOL0     H86782  -0.116   5.984   2.075 -0.9121 -0.1792  0.4997
  643MOL0     H86783  -0.314   6.126   2.272 -1.8413 -1.8333  1.2569
  643MOL0     H86784  -0.178   6.012   2.309  2.8871 -0.0586 -1.7898
  643MOL0     H86785  -0.429   5.952   2.155  2.0546  0.6501 -1.2186
  643MOL0     H86786  -0.427   5.936   2.327 -1.8471 -1.3098 -2.3111
  643MOL0     H86787   0.386   6.709   1.990  0.6878  0.2409 -0.0061
  643MOL0     H86788   0.604   6.742   1.900  2.8477 -0.2178  0.5827
  643MOL0     H86789   1.049   6.598   2.009  0.8157 -0.2598 -0.3949
  643MOL0     H86790   1.267   6.711   2.051  1.1376  1.3475 -0.4716
  643MOL0     H86791   3.185   7.058   1.629  2.8054  1.3787 -0.3503
  643MOL0     H86792   3.368   6.906   1.543  0.8768  2.0288 -0.2915
  643MOL0     H86793   3.877   6.924   1.582  1.5894  0.1989 -1.4158
  643MOL0     H86794   4.081   6.795   1.536  0.8085 -2.0622 -0.4122
  643MOL0     H86795   4.115   6.359   1.495 -1.2557  1.0614  1.4561
  643MOL0     H86796   4.048   6.474   1.369 -0.3177  3.4727  2.4413
  643MOL0     H86797   4.341   6.386   1.407  3.1187  0.1972 -5.1900
  643MOL0     H86798   4.304   6.554   1.367 -1.6782  0.0157 -2.0442
  643MOL0     H86799   4.186   6.483   1.178  2.1030  2.9421  1.6856
  643MOL0     H86800   4.217   6.310   1.208  0.0331  0.6556 -1.1848
  643MOL0     H86801   4.368   6.376   1.037 -0.1125  3.2153 -0.7629
  643MOL0     H86802   4.454   6.311   1.172 -1.8747 -2.7727 -3.2511
  643MOL0     H86803   4.597   6.695   1.072 -0.3542 -1.2033 -1.8778
  643MOL0     H86804   3.878   6.432   1.584 -1.8383  0.4439  2.4592
  643MOL0     H86805   3.662   6.544   1.637  1.8814 -3.1437 -1.2322
  644MOL0     O86806   2.442  11.221   2.718  0.1876  0.1075  0.8121
  644MOL0     C86807   2.455  11.119   2.783 -1.2126 -0.4236 -0.1782
  644MOL0     O86808   2.358  11.039   2.828  0.4447 -0.0714  0.5996
  644MOL0     C86809   2.227  11.028   2.771  0.2303  0.3301 -0.6767
  644MOL0     C86810   2.122  10.979   2.852  0.3685  0.2995  0.2524
  644MOL0     C86811   1.994  10.975   2.807 -0.5836  0.4373  0.4112
  644MOL0     C86812   1.946  11.027   2.687 -0.3003  0.5576 -0.8874
  644MOL0     O86813   1.813  11.037   2.664 -0.0311 -0.6726 -0.3448
  644MOL0     C86814   1.736  10.915   2.674  0.0554  0.4804  0.1863
  644MOL0     C86815   1.587  10.944   2.675  0.6041 -0.6587  0.0096
  644MOL0     C86816   1.490  10.831   2.672  0.0121 -0.7252  0.5500
  644MOL0     C86817   1.530  10.702   2.739  0.4692 -0.2584 -0.6998
  644MOL0     C86818   1.404  10.608   2.721 -0.0556 -0.2437 -0.1246
  644MOL0     C86819   1.434  10.465   2.765  0.2568 -0.4195  0.6506
  644MOL0     C86820   1.492  10.445   2.907 -0.3330  0.0843 -0.0346
  644MOL0     C86821   1.623  10.368   2.913  0.2714  0.6624 -0.0480
  644MOL0     N86822   1.719  10.423   2.825 -0.2029 -0.2108 -0.4182
  644MOL0     C86823   1.807  10.524   2.857  0.1046 -0.5495 -0.4424
  644MOL0     C86824   1.899  10.523   2.762 -0.7891 -0.4072 -0.1696
  644MOL0     C86825   2.025  10.600   2.751  0.3180 -0.3755  0.2818
  644MOL0     C86826   2.132  10.566   2.858  0.5417 -0.2805  0.5759
  644MOL0     C86827   2.264  10.625   2.816  0.0674 -0.4819 -0.2686
  644MOL0     C86828   2.384  10.563   2.890 -0.0601  0.0031 -0.0221
  644MOL0     O86829   2.361  10.579   3.032  0.1296  0.8632  0.3446
  644MOL0     C86830   2.455  10.547   3.127  0.4948 -0.8200  0.3542
  644MOL0     C86831   2.588  10.509   3.088  0.0254 -0.1245  0.9462
  644MOL0     C86832   2.678  10.466   3.190  0.4358  0.1150 -1.0085
  644MOL0     C86833   2.816  10.412   3.143  0.9126 -0.6935  0.3364
  644MOL0     C86834   2.635  10.490   3.334  0.5061 -1.0614 -0.1894
  644MOL0     C86835   2.722  10.487   3.453 -0.8739 -0.1744 -0.8210
  644MOL0     O86836   2.672  10.514   3.581 -0.7310  0.0580  0.1685
  644MOL0     C86837   2.765  10.559   3.679 -0.1236  0.7416  0.2371
  644MOL0     C86838   2.820  10.680   3.671 -0.0432  0.4060  0.5887
  644MOL0     C86839   2.924  10.723   3.755  0.5473 -0.0281  0.5692
  644MOL0     C86840   2.971  10.638   3.859 -0.0410  0.9781 -0.0946
  644MOL0     O86841   3.057  10.682   3.958  0.2762  0.6088 -0.0034
  644MOL0     C86842   3.040  10.814   4.005  0.4497  0.3021  0.0784
  644MOL0     C86843   3.101  10.831   4.143  0.1954 -0.1256 -0.7357
  644MOL0     C86844   3.140  10.973   4.188 -0.0334  1.4609  0.1304
  644MOL0     C86845   3.014  11.057   4.197 -0.2260 -0.9111  0.3785
  644MOL0     C86846   3.054  11.183   4.274  0.6001 -0.2294  0.1080
  644MOL0     C86847   2.937  11.285   4.286 -0.3658  0.2377  0.0416
  644MOL0     C86848   2.996  11.433   4.298  1.4266 -0.1292 -1.2226
  644MOL0     C86849   2.881  11.538   4.337 -0.2270 -0.5519  0.0551
  644MOL0    Cl86850   2.776  11.496   4.476 -0.0211 -0.1740  0.2927
  644MOL0     C86851   2.923  10.504   3.863  0.1721 -0.2995  0.3337
  644MOL0     C86852   2.821  10.464   3.771 -0.6250  0.2013  0.7677
  644MOL0     O86853   2.848  10.469   3.430 -0.2168 -0.0693 -0.3114
  644MOL0     C86854   2.498  10.535   3.361  0.4840  0.6273 -0.5641
  644MOL0     C86855   2.416  10.566   3.259  0.3072  0.4405  1.3606
  644MOL0     N86856   1.867  10.437   2.674  0.2371  0.0823 -0.0017
  644MOL0     N86857   1.755  10.374   2.700 -0.1996  0.2826  0.1164
  644MOL0     C86858   2.046  11.082   2.610  0.0508  0.3394  0.5487
  644MOL0     C86859   2.179  11.071   2.642 -0.3251 -0.3728 -0.8694
  644MOL0     C86860   2.592  11.097   2.830 -0.1545 -0.5002 -0.2069
  644MOL0     C86861   2.693  11.193   2.788 -0.0082 -0.0206  0.1604
  644MOL0     C86862   2.822  11.176   2.837 -0.0443 -0.0289 -0.0435
  644MOL0     C86863   2.851  11.073   2.930 -0.6358 -1.2415  0.0117
  644MOL0     O86864   2.976  11.083   2.996 -0.1195 -0.0742 -0.0748
  644MOL0     C86865   3.008  10.998   3.105  0.0780 -0.9557 -1.1852
  644MOL0     C86866   3.157  11.001   3.130  0.1619 -0.3493 -0.2451
  644MOL0     C86867   3.216  11.140   3.155  0.0965  0.5128  0.6417
  644MOL0     C86868   3.357  11.113   3.206 -1.1286 -0.1842 -0.1433
  644MOL0     C86869   3.430  11.236   3.255 -0.4789 -0.1382 -0.4014
  644MOL0     C86870   3.510  11.315   3.297  0.1606  0.1550  0.4804
  644MOL0     C86871   2.759  10.973   2.955 -0.1646 -0.3937  0.2465
  644MOL0     C86872   2.628  10.976   2.904 -0.6275 -0.5717 -0.3600
  644MOL0     H86873   2.144  10.954   2.955 -0.5973 -0.5930  0.2531
  644MOL0     H86874   1.924  10.936   2.880  0.4597 -0.0682  1.1835
  644MOL0     H86875   1.747  10.852   2.584  0.0706 -2.4968  2.1319
  644MOL0     H86876   1.771  10.850   2.754 -0.0326  0.5198  0.2574
  644MOL0     H86877   1.560  11.016   2.752  0.6179  0.6509 -1.1748
  644MOL0     H86878   1.571  11.006   2.587  0.4946 -0.0659  0.4412
  644MOL0     H86879   1.395  10.872   2.707  1.0945  2.0331  0.5210
  644MOL0     H86880   1.482  10.800   2.568  0.6602 -0.2642  0.3547
  644MOL0     H86881   1.616  10.668   2.681  0.1642  0.3013 -1.4885
  644MOL0     H86882   1.558  10.726   2.842  3.0130  2.7724 -1.9233
  644MOL0     H86883   1.339  10.650   2.799 -1.0384  0.4905 -1.3067
  644MOL0     H86884   1.367  10.607   2.618  1.1237 -3.8306 -0.6348
  644MOL0     H86885   1.341  10.409   2.756  1.6704 -2.6694 -0.9431
  644MOL0     H86886   1.493  10.416   2.687 -0.5626  1.3097 -1.1609
  644MOL0     H86887   1.496  10.540   2.961 -2.7987 -0.6211  1.5695
  644MOL0     H86888   1.415  10.392   2.964 -1.6186  2.1137  0.2375
  644MOL0     H86889   1.595  10.268   2.877 -1.0741  0.7099  0.7651
  644MOL0     H86890   1.665  10.354   3.013 -4.2550 -0.6506  1.9671
  644MOL0     H86891   1.821  10.569   2.955 -0.3868  0.0445 -0.6352
  644MOL0     H86892   2.062  10.581   2.650 -0.4939  1.2980 -0.3676
  644MOL0     H86893   2.011  10.708   2.752 -1.6477 -0.6061  0.6345
  644MOL0     H86894   2.150  10.458   2.866  2.3096 -0.0184  0.7033
  644MOL0     H86895   2.100  10.611   2.953 -0.4858  1.1630 -0.4133
  644MOL0     H86896   2.255  10.733   2.830  0.4355 -0.6108  1.0624
  644MOL0     H86897   2.278  10.614   2.708  2.8075  1.8732 -0.2682
  644MOL0     H86898   2.473  10.619   2.858 -0.8540  1.3145  0.0151
  644MOL0     H86899   2.387  10.461   2.849  0.2774  0.6913 -1.7917
  644MOL0     H86900   2.612  10.488   2.984  2.7820 -0.2376  1.5290
  644MOL0     H86901   2.874  10.343   3.206  2.1083  0.5047  0.6021
  644MOL0     H86902   2.797  10.368   3.045  4.6804 -1.5496 -0.1867
  644MOL0     H86903   2.885  10.497   3.133  1.2565 -1.1021 -0.8732
  644MOL0     H86904   2.783  10.756   3.602  0.7877  1.3212  1.1259
  644MOL0     H86905   2.964  10.822   3.738  3.3030 -1.2303 -0.4902
  644MOL0     H86906   3.091  10.878   3.933  1.2659 -2.8571 -2.3969
  644MOL0     H86907   2.932  10.827   4.017  0.0030 -3.2645  1.1002
  644MOL0     H86908   3.030  10.791   4.216 -0.7149  2.6166 -0.0085
  644MOL0     H86909   3.182  10.758   4.143 -2.0923 -2.8898 -0.8534
  644MOL0     H86910   3.208  11.015   4.113  2.4143 -1.5066  0.4926
  644MOL0     H86911   3.186  10.965   4.287 -0.1492 -1.0718  0.0421
  644MOL0     H86912   2.977  11.095   4.101 -1.2522 -1.7929  0.4032
  644MOL0     H86913   2.933  11.001   4.245 -0.3985 -0.3303  0.7838
  644MOL0     H86914   3.147  11.223   4.232  0.8484  0.2118  1.0403
  644MOL0     H86915   3.086  11.157   4.376  0.2352 -1.0101  0.0264
  644MOL0     H86916   2.859  11.272   4.210 -1.5193  0.4178  1.1608
  644MOL0     H86917   2.878  11.260   4.375 -2.2883 -0.8645 -1.4478
  644MOL0     H86918   3.044  11.460   4.204  1.6813  1.7860 -0.5949
  644MOL0     H86919   3.074  11.443   4.374  0.0143  1.2393  0.1215
  644MOL0     H86920   2.813  11.546   4.252  1.5811 -1.6363 -1.5627
  644MOL0     H86921   2.921  11.639   4.348 -1.9205  0.2237 -0.6521
  644MOL0     H86922   2.991  10.437   3.914  1.5835 -0.9226 -2.2391
  644MOL0     H86923   2.802  10.357   3.762 -0.9165 -0.1449  4.3183
  644MOL0     H86924   2.472  10.539   3.466  0.2882 -0.5507 -0.5509
  644MOL0     H86925   2.312  10.590   3.277  0.1494  0.8476 -0.0433
  644MOL0     H86926   2.017  11.146   2.527  1.4603  1.3421  0.8012
  644MOL0     H86927   2.261  11.106   2.580 -0.8652  0.9345 -0.8606
  644MOL0     H86928   2.685  11.281   2.725  1.8522 -0.3641 -0.6523
  644MOL0     H86929   2.897  11.253   2.826 -0.9841  0.6415 -2.1277
  644MOL0     H86930   2.964  11.034   3.199  2.4903 -2.1205  0.4815
  644MOL0     H86931   2.977  10.895   3.083 -2.7216 -0.1185 -1.5719
  644MOL0     H86932   3.212  10.946   3.054 -1.6751  0.0311 -1.9216
  644MOL0     H86933   3.166  10.941   3.222  0.5833  0.2645  0.1260
  644MOL0     H86934   3.158  11.203   3.223 -0.1010  3.0777 -1.7301
  644MOL0     H86935   3.208  11.195   3.061 -1.5066  0.1986  0.5644
  644MOL0     H86936   3.411  11.057   3.129 -2.4359 -1.0094 -0.4924
  644MOL0     H86937   3.343  11.051   3.295  0.7706  1.5973  1.4899
  644MOL0     H86938   3.564  11.401   3.332 -0.7118  0.9333 -0.0521
  644MOL0     H86939   2.778  10.889   3.021  2.1618  1.2090  1.7787
  644MOL0     H86940   2.560  10.896   2.931 -2.1072  0.6778 -0.2551
  645MOL0     O86941   8.864   7.054   2.769 -0.2572 -0.1897 -0.3601
  645MOL0     C86942   8.817   7.152   2.832  0.5052 -0.0534 -0.2085
  645MOL0     O86943   8.875   7.277   2.838 -0.2429  0.0850  0.6440
  645MOL0     C86944   9.000   7.293   2.772  0.1331  0.7348  0.2214
  645MOL0     C86945   9.113   7.208   2.795 -0.2628  0.9338 -1.1072
  645MOL0     C86946   9.228   7.235   2.721  0.2936 -0.1378 -0.4954
  645MOL0     C86947   9.231   7.351   2.646  0.6167  0.5656  0.1279
  645MOL0     O86948   9.349   7.345   2.571 -0.3945 -0.0908  0.0750
  645MOL0     C86949   9.438   7.458   2.600 -0.2274  0.5799  0.1550
  645MOL0     C86950   9.570   7.426   2.528 -0.5244 -0.7219  0.2515
  645MOL0     C86951   9.648   7.325   2.602 -0.0446  0.4535 -0.1279
  645MOL0     C86952   9.793   7.306   2.558 -0.3686  1.2148 -0.0833
  645MOL0     C86953   9.881   7.439   2.573 -0.1948  0.5838 -0.7465
  645MOL0     C86954   9.912   7.496   2.716  0.4956  0.8073 -0.0340
  645MOL0     C86955   9.993   7.624   2.710  0.4876  0.9231 -0.9585
  645MOL0     C86956  10.020   7.685   2.846 -0.2615  0.0644  0.0576
  645MOL0     N86957   9.897   7.735   2.897  0.1862 -0.4254 -0.0227
  645MOL0     C86958   9.833   7.693   3.012 -0.2174 -0.8559 -0.9001
  645MOL0     C86959   9.740   7.781   3.034  0.4912 -1.0477 -0.4340
  645MOL0     C86960   9.636   7.767   3.139  0.6588 -0.3288 -0.2499
  645MOL0     C86961   9.534   7.884   3.141 -0.3848 -0.5326  0.0069
  645MOL0     C86962   9.591   8.013   3.201  0.7101 -0.2871 -0.1111
  645MOL0     C86963   9.496   8.131   3.164 -0.7362  0.6252  0.2402
  645MOL0     O86964   9.569   8.246   3.209 -1.2618  0.4869 -0.4371
  645MOL0     C86965   9.490   8.352   3.198  0.0961 -0.4068 -0.4822
  645MOL0     C86966   9.439   8.408   3.080 -0.3902 -0.6050  0.1282
  645MOL0     C86967   9.367   8.532   3.083  0.5471 -0.7321 -0.3535
  645MOL0     C86968   9.340   8.596   2.949 -0.0784 -0.5440 -0.1869
  645MOL0     C86969   9.317   8.591   3.208 -0.6067 -0.6041 -0.2892
  645MOL0     C86970   9.230   8.715   3.227 -0.0775  0.2035  0.0514
  645MOL0     O86971   9.194   8.752   3.352 -0.3144 -0.2273  0.5535
  645MOL0     C86972   9.108   8.859   3.361 -0.7960 -0.3237  0.6371
  645MOL0     C86973   8.973   8.831   3.353 -0.4896 -0.1304  0.5822
  645MOL0     C86974   8.874   8.928   3.347 -0.2933  1.0687 -0.2625
  645MOL0     C86975   8.918   9.062   3.353  0.0662  1.1296 -0.3824
  645MOL0     O86976   8.830   9.166   3.369 -0.1836 -0.1420 -0.0138
  645MOL0     C86977   8.704   9.141   3.310 -0.4674  0.3301  0.0146
  645MOL0     C86978   8.624   9.282   3.308 -1.0343  0.5754 -0.7202
  645MOL0     C86979   8.471   9.270   3.278 -0.7425 -0.6227 -0.3583
  645MOL0     C86980   8.416   9.412   3.264  1.0613  0.2026  0.3258
  645MOL0     C86981   8.265   9.432   3.240  0.1533 -0.3692 -0.2735
  645MOL0     C86982   8.220   9.583   3.270 -0.5537  0.5496  0.8415
  645MOL0     C86983   8.292   9.680   3.167  0.9585 -0.7321 -0.2543
  645MOL0     C86984   8.232   9.675   3.028  0.8412  0.5541 -0.9004
  645MOL0    Cl86985   8.066   9.743   3.032  0.0346 -0.3491 -0.2825
  645MOL0     C86986   9.050   9.088   3.370  0.1778 -0.6219  0.4284
  645MOL0     C86987   9.151   8.987   3.365  0.7028 -0.5442  0.0830
  645MOL0     O86988   9.189   8.763   3.121 -0.5631  0.5592  0.1726
  645MOL0     C86989   9.349   8.513   3.323 -0.2027  1.2096 -0.7449
  645MOL0     C86990   9.441   8.401   3.320 -0.3031  0.5272  0.1831
  645MOL0     N86991   9.731   7.867   2.926  0.5973 -0.5187 -0.1451
  645MOL0     N86992   9.823   7.833   2.841 -0.1192 -0.3044  0.3587
  645MOL0     C86993   9.121   7.432   2.614  0.1425 -0.3484 -0.2586
  645MOL0     C86994   9.004   7.399   2.682  0.3484  0.3285  0.2729
  645MOL0     C86995   8.700   7.124   2.910 -0.2082  0.0937  0.4741
  645MOL0     C86996   8.654   6.995   2.930 -0.1551 -0.5689  0.5739
  645MOL0     C86997   8.547   6.975   3.012  0.7891  0.4143  0.4934
  645MOL0     C86998   8.476   7.078   3.070 -0.6882  0.5462 -0.1735
  645MOL0     O86999   8.358   7.046   3.134  0.2799 -0.0613  0.7984
  645MOL0     C87000   8.300   7.151   3.213  0.9238 -0.3518  1.1245
  645MOL0     C87001   8.184   7.092   3.294  0.2285 -0.2883  0.1347
  645MOL0     C87002   8.116   7.192   3.390  0.2796  0.8805 -0.1069
  645MOL0     C87003   7.981   7.138   3.441 -1.3315 -0.3650 -0.1828
  645MOL0     C87004   8.010   7.027   3.525  0.8021  0.2916  1.1033
  645MOL0     C87005   8.014   6.926   3.598  1.3236 -0.8546 -0.3048
  645MOL0     C87006   8.522   7.211   3.054  0.3989 -0.1052  0.0403
  645MOL0     C87007   8.627   7.236   2.967 -0.1146  0.4063  0.3579
  645MOL0     H87008   9.108   7.126   2.866  1.2537  1.1081 -0.7636
  645MOL0     H87009   9.312   7.166   2.718  0.0451 -0.4030 -2.4585
  645MOL0     H87010   9.399   7.552   2.560 -1.1875  0.5279  0.9293
  645MOL0     H87011   9.439   7.460   2.709 -0.7980 -2.4736  0.3000
  645MOL0     H87012   9.546   7.381   2.431 -4.2592 -3.6076  2.2576
  645MOL0     H87013   9.618   7.524   2.521 -1.4835 -0.2576  0.0214
  645MOL0     H87014   9.657   7.363   2.704 -0.2189  1.2036 -0.3908
  645MOL0     H87015   9.617   7.221   2.590 -0.7580  0.2523  2.8105
  645MOL0     H87016   9.856   7.225   2.596 -2.1776 -0.7618 -1.0973
  645MOL0     H87017   9.776   7.280   2.453 -1.8074 -0.5673  0.5416
  645MOL0     H87018   9.974   7.420   2.519 -0.9953 -0.8972 -1.6751
  645MOL0     H87019   9.829   7.525   2.529  0.0470  0.6899 -0.8233
  645MOL0     H87020   9.808   7.507   2.749  1.0630  1.0504  1.7618
  645MOL0     H87021   9.960   7.412   2.767 -2.6334 -0.8495  0.4690
  645MOL0     H87022  10.090   7.601   2.667  1.1899  0.0334  0.9557
  645MOL0     H87023   9.937   7.698   2.652  0.6351  0.7604 -1.3105
  645MOL0     H87024  10.084   7.772   2.828 -1.5409  0.8434 -0.9912
  645MOL0     H87025  10.061   7.610   2.914  1.2761  1.3960  0.6684
  645MOL0     H87026   9.862   7.625   3.091  2.3623  1.1708  0.0160
  645MOL0     H87027   9.579   7.680   3.106  2.2408 -1.0712 -1.1795
  645MOL0     H87028   9.673   7.748   3.240 -4.4273 -1.6489  1.6406
  645MOL0     H87029   9.435   7.860   3.181 -0.7143  0.2699 -0.2961
  645MOL0     H87030   9.506   7.913   3.039 -1.7426  3.6746  1.3758
  645MOL0     H87031   9.694   8.027   3.167  0.9712 -3.2989 -0.8072
  645MOL0     H87032   9.606   8.005   3.309 -1.5090 -0.5428  0.2122
  645MOL0     H87033   9.408   8.123   3.228  0.3791 -0.5380  1.6735
  645MOL0     H87034   9.478   8.118   3.056  0.7601 -1.3871  0.1672
  645MOL0     H87035   9.455   8.383   2.975 -3.5754 -0.6811 -0.4338
  645MOL0     H87036   9.240   8.566   2.916 -1.6564  2.9929  0.8897
  645MOL0     H87037   9.352   8.705   2.947 -1.8590 -0.3233 -1.8033
  645MOL0     H87038   9.407   8.560   2.871 -0.1105  0.7873 -0.8566
  645MOL0     H87039   8.936   8.729   3.347  0.3692 -0.4413  0.4647
  645MOL0     H87040   8.770   8.898   3.357 -0.8971  1.4103 -4.0577
  645MOL0     H87041   8.718   9.114   3.205  0.0628  0.9780 -0.0815
  645MOL0     H87042   8.650   9.057   3.355  1.5127 -1.7039 -1.1864
  645MOL0     H87043   8.646   9.335   3.401  4.1301 -0.7781 -0.8732
  645MOL0     H87044   8.672   9.341   3.229  0.8593  0.4111  0.2483
  645MOL0     H87045   8.434   9.218   3.367  0.5579  0.2147  0.6969
  645MOL0     H87046   8.439   9.223   3.184  0.4876  0.3334 -1.2876
  645MOL0     H87047   8.455   9.463   3.353  2.5435 -1.0485  0.4285
  645MOL0     H87048   8.462   9.448   3.171 -1.4521  3.2859  0.0857
  645MOL0     H87049   8.209   9.372   3.313  1.4659 -2.1980 -0.6793
  645MOL0     H87050   8.235   9.405   3.138 -1.0217  3.7867 -1.2207
  645MOL0     H87051   8.112   9.596   3.267 -0.9244 -0.9525  3.7036
  645MOL0     H87052   8.257   9.603   3.371 -2.2341  1.8886  1.2335
  645MOL0     H87053   8.400   9.661   3.161  0.9247 -1.2917  0.6507
  645MOL0     H87054   8.265   9.779   3.205 -1.4629 -1.2837 -0.3997
  645MOL0     H87055   8.215   9.574   2.990 -1.4042  0.8004 -0.6680
  645MOL0     H87056   8.294   9.731   2.958  2.2444  1.9872  1.3351
  645MOL0     H87057   9.075   9.193   3.381  0.5690 -0.7673  0.9586
  645MOL0     H87058   9.259   8.999   3.359  1.0285 -3.5189 -3.4686
  645MOL0     H87059   9.307   8.552   3.415 -0.5830 -1.2913  0.2109
  645MOL0     H87060   9.478   8.362   3.415  0.4393  1.1950  0.1790
  645MOL0     H87061   9.119   7.518   2.549  1.1150 -1.0357 -1.2252
  645MOL0     H87062   8.922   7.467   2.658 -0.8217 -0.7930  0.9672
  645MOL0     H87063   8.708   6.906   2.901 -0.0216  0.0486 -1.1826
  645MOL0     H87064   8.530   6.872   3.043 -0.1142  0.2536 -0.4756
  645MOL0     H87065   8.381   7.193   3.273  2.2184  0.7458 -1.2801
  645MOL0     H87066   8.263   7.233   3.151 -0.6555 -1.8520 -0.0242
  645MOL0     H87067   8.231   7.007   3.344  0.8272 -2.1901 -3.3661
  645MOL0     H87068   8.118   7.052   3.217 -1.3112  1.7659  0.3048
  645MOL0     H87069   8.106   7.285   3.334 -0.3834 -0.0887 -1.6549
  645MOL0     H87070   8.181   7.200   3.479 -0.5217 -1.4047  0.7579
  645MOL0     H87071   7.906   7.114   3.365 -0.4885 -0.0829 -1.1239
  645MOL0     H87072   7.945   7.222   3.502  0.6886  1.1524 -0.9399
  645MOL0     H87073   8.022   6.840   3.661  3.2168 -1.4708 -1.2887
  645MOL0     H87074   8.470   7.302   3.083  0.8662  0.7359 -1.5900
  645MOL0     H87075   8.664   7.336   2.950  1.8179 -0.3529 -0.2619
  646MOL0     O87076   7.217  10.715   6.867  0.0643 -0.4800 -0.1837
  646MOL0     C87077   7.200  10.812   6.795  0.2755  0.4517  0.0356
  646MOL0     O87078   7.289  10.862   6.699  0.4424 -0.1776  0.4154
  646MOL0     C87079   7.421  10.830   6.713  1.0532  0.2161 -1.1847
  646MOL0     C87080   7.516  10.918   6.779  0.0656 -0.6819  0.3806
  646MOL0     C87081   7.650  10.883   6.787 -0.1467  0.3738  0.4049
  646MOL0     C87082   7.693  10.763   6.734  0.4501 -0.1827 -0.5108
  646MOL0     O87083   7.820  10.722   6.735 -0.4235  0.7044 -1.2133
  646MOL0     C87084   7.911  10.763   6.831 -0.5938  0.3188 -0.3353
  646MOL0     C87085   8.025  10.672   6.820 -0.5573 -0.0279  0.1392
  646MOL0     C87086   8.125  10.697   6.943 -0.8161 -0.0854 -1.0462
  646MOL0     C87087   8.253  10.608   6.920 -0.0978  0.0162  0.6772
  646MOL0     C87088   8.363  10.644   7.021 -0.2390  0.5168  0.3536
  646MOL0     C87089   8.497  10.590   6.973 -0.2973  1.0607 -0.3274
  646MOL0     C87090   8.493  10.431   6.964  0.1992 -1.2518 -0.7298
  646MOL0     C87091   8.637  10.367   6.967 -0.5422 -0.1278  0.6239
  646MOL0     N87092   8.719  10.423   6.858 -0.0714 -0.8907 -0.5524
  646MOL0     C87093   8.732  10.383   6.726 -0.0448  0.1813 -1.0688
  646MOL0     C87094   8.835  10.459   6.686  0.2575  0.5627  0.0626
  646MOL0     C87095   8.912  10.439   6.557 -0.3790 -0.0272 -1.0339
  646MOL0     C87096   8.976  10.567   6.503  0.1410 -0.3302 -0.8663
  646MOL0     C87097   9.027  10.546   6.368 -1.1456 -0.0845 -0.7868
  646MOL0     C87098   9.163  10.487   6.356  0.1571  0.0086  0.2807
  646MOL0     O87099   9.185  10.474   6.216  0.4822 -0.2858  0.3900
  646MOL0     C87100   9.312  10.496   6.166  0.4796  0.1286 -1.0810
  646MOL0     C87101   9.330  10.504   6.023 -0.0738  0.9013  0.6433
  646MOL0     C87102   9.454  10.501   5.958  0.0155 -0.0095 -0.6120
  646MOL0     C87103   9.458  10.492   5.806  0.7323 -0.1379 -0.1376
  646MOL0     C87104   9.566  10.502   6.043  0.2161  0.4772  0.3003
  646MOL0     C87105   9.701  10.494   5.993  0.5427 -0.1300  1.3716
  646MOL0     O87106   9.720  10.406   5.894 -0.4751  0.3345 -0.0321
  646MOL0     C87107   9.845  10.404   5.839  0.1792 -0.6712  0.2656
  646MOL0     C87108   9.857  10.480   5.723 -0.2290 -0.2354  0.7491
  646MOL0     C87109   9.977  10.506   5.655  0.2560  0.3635  0.2795
  646MOL0     C87110  10.088  10.443   5.710 -0.0842  0.5735 -0.1956
  646MOL0     O87111  10.205  10.463   5.637  0.8029 -0.6794 -0.2885
  646MOL0     C87112  10.312  10.371   5.648 -0.4947  0.9688  0.0824
  646MOL0     C87113  10.317  10.256   5.542  0.8259 -0.2361 -0.3896
  646MOL0     C87114  10.183  10.179   5.545 -0.3458  0.2340  0.3237
  646MOL0     C87115  10.182  10.058   5.457  0.7032  1.2871  0.0656
  646MOL0     C87116  10.048   9.984   5.456 -0.5116  0.5677  0.3308
  646MOL0     C87117   9.949  10.055   5.377  1.3435 -0.0795  0.0895
  646MOL0     C87118   9.818   9.984   5.357 -0.5799 -0.1637  0.3472
  646MOL0     C87119   9.728  10.060   5.271  0.2806  0.4980  0.0016
  646MOL0    Cl87120   9.575   9.973   5.255  0.1016  0.5102 -0.0985
  646MOL0     C87121  10.085  10.376   5.830 -0.8991 -0.0121 -0.9202
  646MOL0     C87122   9.961  10.345   5.897  0.1176  0.4107 -0.2670
  646MOL0     O87123   9.787  10.562   6.042  0.5240  0.1237  0.1414
  646MOL0     C87124   9.547  10.495   6.182  0.2604 -1.0552 -0.4663
  646MOL0     C87125   9.425  10.497   6.247 -0.4383  0.3098  1.3469
  646MOL0     N87126   8.891  10.537   6.792  0.3544  0.3903  0.9171
  646MOL0     N87127   8.817  10.513   6.893 -0.2173  0.2128  0.7085
  646MOL0     C87128   7.603  10.677   6.676 -0.1064 -0.1315  0.5592
  646MOL0     C87129   7.463  10.708   6.669  0.4948 -0.5235  0.3513
  646MOL0     C87130   7.064  10.884   6.802  0.3171 -0.3679 -0.3061
  646MOL0     C87131   6.957  10.818   6.873 -0.3356 -0.0984  0.6846
  646MOL0     C87132   6.827  10.888   6.873  0.1579 -0.7321  0.0874
  646MOL0     C87133   6.804  10.994   6.788  0.3243 -0.2165 -0.4271
  646MOL0     O87134   6.675  11.044   6.782  0.4767  0.3210 -0.2278
  646MOL0     C87135   6.627  11.131   6.673  0.2160 -0.6297  1.1852
  646MOL0     C87136   6.488  11.186   6.691  0.8001 -0.3669 -0.2630
  646MOL0     C87137   6.377  11.079   6.703  0.5133  0.4758  0.0816
  646MOL0     C87138   6.236  11.124   6.733  0.6588 -0.0039 -0.1606
  646MOL0     C87139   6.230  11.198   6.858 -0.6706  0.0854 -0.3202
  646MOL0     C87140   6.226  11.240   6.969 -0.0124  0.7178 -0.4508
  646MOL0     C87141   6.909  11.042   6.712  0.0502 -0.5349  1.3582
  646MOL0     C87142   7.037  10.990   6.720  0.2148 -0.4266 -0.4920
  646MOL0     H87143   7.488  11.016   6.814 -0.5237 -1.5102  2.3981
  646MOL0     H87144   7.723  10.946   6.838  1.1797  0.5918 -1.6469
  646MOL0     H87145   7.949  10.865   6.817  1.7123 -0.6585 -1.6222
  646MOL0     H87146   7.862  10.751   6.928  0.3631  3.6120  0.6894
  646MOL0     H87147   7.994  10.567   6.827  1.8389 -0.7639  0.3989
  646MOL0     H87148   8.076  10.683   6.724 -0.0112 -0.8691  0.3260
  646MOL0     H87149   8.152  10.803   6.947  2.0845 -0.7833  1.5308
  646MOL0     H87150   8.083  10.679   7.042  2.2371  2.3216  0.8705
  646MOL0     H87151   8.225  10.505   6.947  2.2115 -0.2415  2.3743
  646MOL0     H87152   8.280  10.615   6.815 -2.1016 -0.0643  0.1088
  646MOL0     H87153   8.371  10.753   7.017  1.1606  0.4036 -0.5132
  646MOL0     H87154   8.337  10.611   7.122  0.1578 -0.7007  0.0845
  646MOL0     H87155   8.528  10.619   6.872  2.1373 -2.1885 -0.6571
  646MOL0     H87156   8.582  10.616   7.036 -1.1062  0.3411  1.1057
  646MOL0     H87157   8.444  10.404   7.058  0.1879  2.5167  0.5017
  646MOL0     H87158   8.436  10.400   6.876 -2.2067 -0.3901  0.4395
  646MOL0     H87159   8.635  10.258   6.966 -0.0536 -0.1532 -1.4273
  646MOL0     H87160   8.694  10.396   7.056  0.4950  3.4357 -1.0205
  646MOL0     H87161   8.681  10.297   6.684 -0.5026  0.1337 -0.4360
  646MOL0     H87162   8.990  10.363   6.569 -0.6590  0.0755  2.1757
  646MOL0     H87163   8.841  10.402   6.481 -1.8003  1.9861 -0.7683
  646MOL0     H87164   9.057  10.604   6.567 -1.4703  0.2524  0.9373
  646MOL0     H87165   8.895  10.639   6.489 -2.0098 -2.6901 -1.2824
  646MOL0     H87166   9.033  10.644   6.319 -0.6650  0.1412 -0.2851
  646MOL0     H87167   8.954  10.490   6.310 -2.6107 -0.7048  1.5451
  646MOL0     H87168   9.179  10.392   6.409  3.3494 -0.2341 -0.8914
  646MOL0     H87169   9.236  10.554   6.401  0.1336  1.3062 -1.5204
  646MOL0     H87170   9.236  10.487   5.972  0.0607  1.1463  0.3096
  646MOL0     H87171   9.508  10.584   5.772  0.0897  0.6841  1.0518
  646MOL0     H87172   9.514  10.400   5.786 -0.4132 -1.2264  1.4205
  646MOL0     H87173   9.362  10.490   5.755  0.5080  5.0482 -0.4875
  646MOL0     H87174   9.763  10.528   5.697  0.8191 -0.0965 -3.3631
  646MOL0     H87175   9.973  10.557   5.559 -1.5180 -0.4963 -0.1522
  646MOL0     H87176  10.395  10.433   5.615 -2.4370  2.0632 -3.2979
  646MOL0     H87177  10.340  10.321   5.741  1.7069 -2.5984 -2.2420
  646MOL0     H87178  10.341  10.302   5.446 -1.8143  0.0830 -0.9785
  646MOL0     H87179  10.394  10.184   5.570 -0.9825 -0.6844  4.2177
  646MOL0     H87180  10.102  10.243   5.510 -1.4920 -1.8655 -1.0401
  646MOL0     H87181  10.156  10.146   5.646 -0.4900 -1.3138 -0.2017
  646MOL0     H87182  10.217  10.081   5.356 -2.2304  0.4092 -1.2707
  646MOL0     H87183  10.253   9.985   5.497  0.5493  1.1827  0.1478
  646MOL0     H87184  10.019   9.960   5.559  0.2879 -0.0155  0.4270
  646MOL0     H87185  10.063   9.889   5.404 -0.2875 -1.0024  3.0999
  646MOL0     H87186   9.913  10.142   5.433 -3.7839 -2.4824  1.1153
  646MOL0     H87187   9.978  10.079   5.274  1.0709 -0.6279 -0.1220
  646MOL0     H87188   9.761   9.977   5.450 -1.9961 -0.8903 -0.5389
  646MOL0     H87189   9.829   9.883   5.315  0.1939  0.6124 -1.4228
  646MOL0     H87190   9.767  10.062   5.169 -1.4943  0.0222 -0.7334
  646MOL0     H87191   9.706  10.158   5.316  2.4834  1.8842 -1.7287
  646MOL0     H87192  10.176  10.347   5.882  0.4397  3.3902 -1.1347
  646MOL0     H87193   9.939  10.278   5.980 -1.6320  0.2000 -0.8649
  646MOL0     H87194   9.627  10.471   6.251  0.2740 -1.6519 -0.6832
  646MOL0     H87195   9.431  10.486   6.355  0.0357 -1.1801  1.1891
  646MOL0     H87196   7.648  10.585   6.639  1.0546  1.1733 -1.4415
  646MOL0     H87197   7.399  10.637   6.618  2.1804 -1.1354 -0.9964
  646MOL0     H87198   6.974  10.725   6.928  3.0845 -0.1986 -0.2979
  646MOL0     H87199   6.742  10.851   6.929 -1.4968  2.9150  0.2854
  646MOL0     H87200   6.698  11.212   6.654 -0.5477 -0.3066 -0.4523
  646MOL0     H87201   6.633  11.072   6.581 -1.6464  1.1817 -0.1839
  646MOL0     H87202   6.476  11.264   6.616 -0.4119 -3.0011 -3.0297
  646MOL0     H87203   6.490  11.236   6.788 -0.2311  2.8157 -1.7731
  646MOL0     H87204   6.402  11.014   6.787 -2.1327  1.3797  1.6837
  646MOL0     H87205   6.368  11.023   6.610  2.6564 -1.8537  1.1503
  646MOL0     H87206   6.165  11.041   6.728  1.5699 -0.9556  1.7209
  646MOL0     H87207   6.203  11.196   6.658 -0.1363  0.0434  0.2275
  646MOL0     H87208   6.227  11.286   7.066 -0.1437 -0.3667  0.0699
  646MOL0     H87209   6.895  11.112   6.631  0.0691 -2.1874 -0.1522
  646MOL0     H87210   7.117  11.025   6.655 -1.0266  0.2720 -1.7018
  647MOL0     O87211  10.508   7.159   9.643 -0.1547  0.6351  0.0251
  647MOL0     C87212  10.489   7.276   9.611 -0.7243  0.6577 -0.0563
  647MOL0     O87213  10.376   7.347   9.611  0.5208 -0.4657 -0.1257
  647MOL0     C87214  10.259   7.303   9.664  0.3177 -0.0992 -0.7080
  647MOL0     C87215  10.150   7.395   9.658  0.1097  0.6648 -0.7615
  647MOL0     C87216  10.027   7.359   9.695 -0.4736  0.5890 -0.6959
  647MOL0     C87217   9.989   7.234   9.745  0.0173  0.0915  0.1470
  647MOL0     O87218   9.859   7.218   9.774  0.3751  0.7292 -0.3928
  647MOL0     C87219   9.843   7.229   9.914  0.1107  0.5691 -0.2705
  647MOL0     C87220   9.697   7.275   9.945 -0.3392 -0.6603 -0.1465
  647MOL0     C87221   9.679   7.243  10.094  0.4832  0.1912  0.1659
  647MOL0     C87222   9.533   7.275  10.134  0.2753 -0.1038 -0.1455
  647MOL0     C87223   9.492   7.221  10.275 -0.2076  0.2298  0.1297
  647MOL0     C87224   9.458   7.067  10.272  0.2221 -0.2309  0.3340
  647MOL0     C87225   9.323   7.047  10.208 -0.2971 -0.4684  0.8803
  647MOL0     C87226   9.272   6.901  10.231 -0.5944  1.1864  0.6109
  647MOL0     N87227   9.138   6.892  10.175 -1.1207 -0.0153  0.3223
  647MOL0     C87228   9.021   6.956  10.224  0.3163 -1.1873  0.1743
  647MOL0     C87229   8.930   6.949  10.126  0.0563 -0.5480  0.2259
  647MOL0     C87230   8.786   6.994  10.133 -0.1579 -0.6358 -0.0027
  647MOL0     C87231   8.671   6.911  10.062 -0.9536  0.0451 -0.9110
  647MOL0     C87232   8.529   6.968  10.091 -0.9807  0.7585 -0.5048
  647MOL0     C87233   8.423   6.868  10.048 -0.4642 -0.2614 -0.3903
  647MOL0     O87234   8.301   6.929  10.097 -0.5473  0.5287 -0.1734
  647MOL0     C87235   8.185   6.867  10.069 -0.0470 -0.0856  0.2491
  647MOL0     C87236   8.077   6.922  10.130  0.6052 -0.0869  1.2158
  647MOL0     C87237   7.949   6.868  10.140  0.1137  0.0069 -0.1209
  647MOL0     C87238   7.837   6.934  10.208  0.1979  0.4454  0.0167
  647MOL0     C87239   7.923   6.743  10.070 -0.0530 -1.5122  0.7403
  647MOL0     C87240   7.799   6.679  10.083  0.3879  1.0314 -0.2429
  647MOL0     O87241   7.720   6.671   9.970 -0.4639 -0.5318  0.6458
  647MOL0     C87242   7.593   6.617   9.963 -0.0750  0.6677  1.5689
  647MOL0     C87243   7.499   6.639  10.064 -0.1761 -1.2199 -0.8632
  647MOL0     C87244   7.366   6.591  10.069 -0.4560  0.4995  0.2408
  647MOL0     C87245   7.320   6.511   9.961 -0.2152 -0.9974  0.4369
  647MOL0     O87246   7.194   6.477   9.937 -0.0717  0.7420 -0.2595
  647MOL0     C87247   7.097   6.489  10.034  0.4636 -1.0099 -0.2526
  647MOL0     C87248   6.965   6.455   9.957 -0.5001  0.2328  0.1094
  647MOL0     C87249   6.853   6.445  10.055 -1.0206 -0.1416 -0.7051
  647MOL0     C87250   6.723   6.428   9.972 -0.1253 -0.0122  0.3622
  647MOL0     C87251   6.612   6.365  10.038  0.6481 -0.5508  0.0314
  647MOL0     C87252   6.471   6.397   9.983  0.7441  0.1167  0.3269
  647MOL0     C87253   6.451   6.328   9.843  0.1620 -1.0925 -0.6968
  647MOL0     C87254   6.443   6.180   9.857  0.0870 -0.0490  0.3036
  647MOL0    Cl87255   6.304   6.124   9.747 -0.3151 -0.1266 -0.2517
  647MOL0     C87256   7.411   6.491   9.858  0.7344 -0.3300  0.0091
  647MOL0     C87257   7.545   6.541   9.861  0.1094  0.3752  0.0573
  647MOL0     O87258   7.774   6.634  10.195 -0.1021  0.4184 -0.6355
  647MOL0     C87259   8.030   6.692   9.987  0.3016  0.3317 -0.4445
  647MOL0     C87260   8.158   6.755   9.985  0.3113  0.3940 -1.0544
  647MOL0     N87261   8.983   6.877  10.025  0.0445  0.4138  0.5334
  647MOL0     N87262   9.107   6.846  10.055 -0.5954 -0.1180 -0.5510
  647MOL0     C87263  10.085   7.137   9.752 -0.6786 -0.5266 -0.4682
  647MOL0     C87264  10.221   7.173   9.717  1.0036  0.5317  0.5575
  647MOL0     C87265  10.609   7.344   9.546  0.0506  0.7393 -0.0030
  647MOL0     C87266  10.601   7.479   9.526  0.1243 -0.6827  0.5934
  647MOL0     C87267  10.690   7.546   9.444  0.0181 -0.1227  1.0000
  647MOL0     C87268  10.794   7.475   9.370  0.9725 -0.1615 -0.2578
  647MOL0     O87269  10.888   7.539   9.291 -0.1048 -0.1912  0.1265
  647MOL0     C87270  10.879   7.680   9.287 -0.1793  0.1440 -0.2970
  647MOL0     C87271  10.983   7.730   9.185  0.6338  0.2797 -1.7252
  647MOL0     C87272  10.986   7.648   9.060 -0.5187 -0.6406  0.2852
  647MOL0     C87273  11.108   7.685   8.957 -0.3571 -0.1564 -0.8862
  647MOL0     C87274  11.235   7.659   9.016  1.0792 -0.0710 -0.1400
  647MOL0     C87275  11.342   7.626   9.058 -0.5065  0.6166  0.4852
  647MOL0     C87276  10.798   7.343   9.402 -0.5699  0.4849  0.9065
  647MOL0     C87277  10.708   7.271   9.482 -0.4489  0.3684 -0.1294
  647MOL0     H87278  10.181   7.491   9.619  1.3279  1.1282  1.1706
  647MOL0     H87279   9.944   7.427   9.679 -0.5880  0.9184  1.0599
  647MOL0     H87280   9.863   7.131   9.956  0.8959  1.5505  1.7647
  647MOL0     H87281   9.920   7.288   9.966 -0.2817 -0.1345  1.1421
  647MOL0     H87282   9.675   7.382   9.939  2.1821  0.0976  2.1087
  647MOL0     H87283   9.628   7.215   9.884  1.1906 -2.6890 -0.0087
  647MOL0     H87284   9.691   7.135  10.107  0.0573 -0.1162 -1.7248
  647MOL0     H87285   9.746   7.292  10.164  1.5440 -0.6007 -0.2697
  647MOL0     H87286   9.518   7.382  10.114 -3.4562 -0.1862  1.4066
  647MOL0     H87287   9.473   7.223  10.058  1.0638 -0.8988 -0.2420
  647MOL0     H87288   9.567   7.244  10.350 -0.0303  1.4469 -0.3917
  647MOL0     H87289   9.401   7.266  10.317  0.5257  0.7710  1.1645
  647MOL0     H87290   9.525   7.009  10.207  0.1762  1.7025 -1.5656
  647MOL0     H87291   9.459   7.034  10.376 -0.8461 -0.0539  0.4091
  647MOL0     H87292   9.249   7.117  10.249  0.3010  0.1396  0.9464
  647MOL0     H87293   9.336   7.054  10.100 -1.1890  0.1331  0.7980
  647MOL0     H87294   9.272   6.879  10.338 -2.7109  2.1695  0.8676
  647MOL0     H87295   9.347   6.832  10.191  0.3189  0.1260  3.8468
  647MOL0     H87296   9.009   7.011  10.316  0.2669 -0.0662 -0.4818
  647MOL0     H87297   8.774   6.995  10.242 -2.2317  1.1323 -0.1668
  647MOL0     H87298   8.780   7.096  10.093 -0.3332 -0.8321 -0.4833
  647MOL0     H87299   8.670   6.811  10.104 -1.5362 -0.4196 -1.9786
  647MOL0     H87300   8.690   6.902   9.954 -1.1283  0.0235 -0.9413
  647MOL0     H87301   8.525   7.061  10.033 -0.8291  1.2308  0.2262
  647MOL0     H87302   8.514   6.987  10.198 -1.3520 -0.5467 -0.3040
  647MOL0     H87303   8.436   6.770  10.095 -3.1182 -0.0134  1.0722
  647MOL0     H87304   8.416   6.875   9.939  2.4468  0.8972 -0.5923
  647MOL0     H87305   8.103   7.015  10.181 -0.4040  1.1366 -0.4043
  647MOL0     H87306   7.838   6.913  10.315  2.0810 -2.0034 -0.4137
  647MOL0     H87307   7.842   7.044  10.204  1.6890  0.3752 -0.8907
  647MOL0     H87308   7.740   6.905  10.167  0.1859  1.4512 -0.7052
  647MOL0     H87309   7.534   6.704  10.144 -1.5397  1.3132 -2.2189
  647MOL0     H87310   7.305   6.613  10.157 -1.5447  0.4481 -0.4812
  647MOL0     H87311   7.121   6.414  10.110 -0.0097 -1.1089 -0.2000
  647MOL0     H87312   7.088   6.590  10.075  0.0182 -2.2502  2.9707
  647MOL0     H87313   6.937   6.521   9.874  0.6277  0.7089  0.0839
  647MOL0     H87314   6.986   6.353   9.922  1.8143  0.0563  1.7462
  647MOL0     H87315   6.850   6.543  10.105  1.7288 -0.5106  0.3451
  647MOL0     H87316   6.873   6.365  10.127 -1.5550 -0.2350 -0.6562
  647MOL0     H87317   6.686   6.519   9.923 -1.7318 -2.2863 -3.0202
  647MOL0     H87318   6.741   6.360   9.889 -0.2836 -0.5936  0.8012
  647MOL0     H87319   6.609   6.403  10.140 -1.7571 -0.9910  0.1755
  647MOL0     H87320   6.629   6.257  10.041  0.7265 -0.5268  0.4013
  647MOL0     H87321   6.390   6.371  10.051  0.7957  2.2905  1.2937
  647MOL0     H87322   6.448   6.501   9.959 -2.0607  0.0942  2.3737
  647MOL0     H87323   6.526   6.363   9.772 -1.7223 -0.4864 -2.5026
  647MOL0     H87324   6.357   6.366   9.802  0.4806 -1.0079 -1.3564
  647MOL0     H87325   6.423   6.151   9.961 -2.0982  1.5453  0.3886
  647MOL0     H87326   6.542   6.143   9.828  1.4981  3.1536  0.6008
  647MOL0     H87327   7.364   6.440   9.775 -0.1054  2.8869 -1.6401
  647MOL0     H87328   7.613   6.534   9.777 -1.9125  0.2809 -1.6390
  647MOL0     H87329   7.997   6.606   9.929  2.4140 -0.9311  0.1063
  647MOL0     H87330   8.237   6.707   9.928  0.7952  2.3536 -2.1644
  647MOL0     H87331  10.064   7.031   9.767  0.3939 -0.6422  0.3150
  647MOL0     H87332  10.292   7.093   9.735  1.4107  0.8115  0.2241
  647MOL0     H87333  10.521   7.535   9.574 -0.1362 -0.8613  0.3693
  647MOL0     H87334  10.663   7.650   9.429 -0.4778 -0.5317 -1.3155
  647MOL0     H87335  10.782   7.719   9.255  1.0913  3.1466 -0.8980
  647MOL0     H87336  10.908   7.723   9.383  1.6238  1.3101 -1.2917
  647MOL0     H87337  11.078   7.734   9.239 -0.1056 -1.6132 -0.1635
  647MOL0     H87338  10.954   7.834   9.168  0.2270  1.3177  3.5525
  647MOL0     H87339  10.899   7.664   8.996  0.8715 -3.1633 -2.4835
  647MOL0     H87340  10.991   7.539   9.074 -1.3287 -1.2470 -3.1708
  647MOL0     H87341  11.108   7.792   8.933  0.9349  0.0630 -0.0215
  647MOL0     H87342  11.109   7.629   8.863  0.3664 -1.1559 -0.3066
  647MOL0     H87343  11.441   7.607   9.093 -0.5572  3.7920  2.8411
  647MOL0     H87344  10.879   7.280   9.367 -1.5146  0.3623 -1.2199
  647MOL0     H87345  10.722   7.164   9.491  0.5610  0.1232 -3.3254
  648MOL0     O87346   9.360   8.339   7.224  0.0114 -0.1931  1.1001
  648MOL0     C87347   9.411   8.232   7.200  0.4222  0.2468 -1.1162
  648MOL0     O87348   9.340   8.115   7.182 -0.4246  0.2209 -0.2308
  648MOL0     C87349   9.203   8.102   7.181 -0.2852 -0.3877  0.2646
  648MOL0     C87350   9.100   8.203   7.197 -0.3222 -0.3622  0.1466
  648MOL0     C87351   8.964   8.167   7.196  0.1344 -0.5341  0.1098
  648MOL0     C87352   8.926   8.034   7.175  0.1582 -0.4718  0.7728
  648MOL0     O87353   8.793   7.993   7.170  0.8700  0.0581  0.1061
  648MOL0     C87354   8.760   7.906   7.280  0.5387  0.3931 -0.2983
  648MOL0     C87355   8.617   7.848   7.255  0.4632 -0.8744 -0.5695
  648MOL0     C87356   8.603   7.725   7.171 -0.6019 -0.4620  0.2866
  648MOL0     C87357   8.456   7.679   7.151  0.1939 -0.0793  0.0373
  648MOL0     C87358   8.407   7.601   7.273 -0.6172  0.6151  0.0734
  648MOL0     C87359   8.253   7.592   7.272 -0.0136 -0.2204  0.3985
  648MOL0     C87360   8.194   7.474   7.347 -0.5742  0.1250  0.1461
  648MOL0     C87361   8.038   7.482   7.347  0.0354  0.9577  0.5380
  648MOL0     N87362   7.975   7.382   7.433 -0.2239 -0.0355 -0.1310
  648MOL0     C87363   7.851   7.386   7.485 -0.0155  0.6714  0.8309
  648MOL0     C87364   7.832   7.269   7.548 -0.5702 -0.5356  0.2611
  648MOL0     C87365   7.723   7.248   7.644  0.1105 -0.1957 -0.5264
  648MOL0     C87366   7.762   7.302   7.781  0.9077  0.0362 -0.7776
  648MOL0     C87367   7.853   7.207   7.858  0.6140 -0.9140 -0.1089
  648MOL0     C87368   7.873   7.246   8.005  0.2790 -1.3572 -0.0027
  648MOL0     O87369   7.751   7.287   8.083 -0.6669  0.3523 -0.7317
  648MOL0     C87370   7.680   7.192   8.162 -0.0403  0.1155  0.3815
  648MOL0     C87371   7.732   7.065   8.200  0.3022 -0.3724  0.2172
  648MOL0     C87372   7.649   6.955   8.244 -0.0778 -0.7718 -0.2195
  648MOL0     C87373   7.714   6.820   8.274 -0.8089 -0.3724 -1.1992
  648MOL0     C87374   7.511   6.985   8.259 -0.0695  0.3967 -0.8375
  648MOL0     C87375   7.413   6.885   8.309  0.2418 -0.1455  0.7085
  648MOL0     O87376   7.279   6.911   8.253  0.2136  0.3248 -0.2671
  648MOL0     C87377   7.197   6.805   8.221 -0.1049  0.1389  0.2731
  648MOL0     C87378   7.240   6.676   8.191 -0.5558 -0.5834  0.0821
  648MOL0     C87379   7.144   6.589   8.144 -0.9155  0.3503  0.2002
  648MOL0     C87380   7.004   6.620   8.149 -0.1602  0.7532 -0.7574
  648MOL0     O87381   6.904   6.533   8.121  0.0519  0.4590  0.4971
  648MOL0     C87382   6.911   6.398   8.168  0.2080 -0.4825 -0.1702
  648MOL0     C87383   6.774   6.328   8.158 -0.2993 -0.1063 -0.5327
  648MOL0     C87384   6.673   6.385   8.269 -0.2654 -0.1411 -0.4153
  648MOL0     C87385   6.715   6.361   8.416 -0.7680  0.1962  0.4066
  648MOL0     C87386   6.601   6.396   8.524  0.1830  0.2148  0.1561
  648MOL0     C87387   6.567   6.544   8.533  0.4110  0.1570  0.3545
  648MOL0     C87388   6.479   6.577   8.656 -0.2895  0.5470  1.3059
  648MOL0     C87389   6.337   6.501   8.649  0.3719 -0.5385  0.2810
  648MOL0    Cl87390   6.235   6.563   8.793 -0.2098  0.1526  0.3466
  648MOL0     C87391   6.965   6.749   8.181  0.3604  0.2005  0.3443
  648MOL0     C87392   7.062   6.839   8.221  0.0044 -0.4924 -0.8756
  648MOL0     O87393   7.442   6.796   8.388  0.4402  0.6882  0.2869
  648MOL0     C87394   7.469   7.123   8.240 -0.6842  0.3432 -0.6821
  648MOL0     C87395   7.546   7.222   8.192 -0.3869  0.4176  0.6495
  648MOL0     N87396   7.945   7.200   7.531 -0.0874 -0.1831  0.3540
  648MOL0     N87397   8.030   7.261   7.460  0.1430 -0.7049  0.6749
  648MOL0     C87398   9.029   7.943   7.147 -0.5318 -0.1872  0.0331
  648MOL0     C87399   9.160   7.970   7.155 -0.5720  0.3858  0.0188
  648MOL0     C87400   9.553   8.219   7.207  0.1220  0.8538 -0.2581
  648MOL0     C87401   9.646   8.323   7.216 -0.1918 -0.5725  0.5548
  648MOL0     C87402   9.785   8.295   7.231  0.2308 -0.2183 -0.8144
  648MOL0     C87403   9.833   8.172   7.251  0.6021  0.6719  0.7258
  648MOL0     O87404   9.966   8.162   7.284 -0.5622 -0.3049  0.4164
  648MOL0     C87405  10.014   8.049   7.356 -0.4526 -0.0013 -0.9965
  648MOL0     C87406  10.057   7.928   7.270 -0.1323 -0.8046 -0.0623
  648MOL0     C87407  10.182   7.961   7.186 -0.1799 -0.6643 -0.5407
  648MOL0     C87408  10.244   7.846   7.109  0.3606 -0.5801  0.2206
  648MOL0     C87409  10.151   7.800   6.997 -1.3227  0.1173  0.1978
  648MOL0     C87410  10.091   7.762   6.901  0.3629 -0.9022 -0.2309
  648MOL0     C87411   9.744   8.066   7.228  0.1303 -0.1485  0.3938
  648MOL0     C87412   9.609   8.092   7.209  0.3229  0.5131  0.2576
  648MOL0     H87413   9.123   8.307   7.217  0.5315 -0.7529  1.3461
  648MOL0     H87414   8.892   8.244   7.220  0.3668 -0.1842 -0.2942
  648MOL0     H87415   8.829   7.822   7.288  2.6284  2.0375  0.0043
  648MOL0     H87416   8.762   7.956   7.377 -1.5743 -1.7905  0.9678
  648MOL0     H87417   8.567   7.821   7.348  0.7289  0.5900  0.0254
  648MOL0     H87418   8.561   7.934   7.216  1.6700  1.9807  3.3493
  648MOL0     H87419   8.656   7.747   7.078  1.8108 -0.3849  1.6033
  648MOL0     H87420   8.667   7.649   7.218  2.0640 -0.5892 -3.1555
  648MOL0     H87421   8.394   7.767   7.130  3.2875  2.3980  0.4007
  648MOL0     H87422   8.450   7.618   7.061  2.3434 -1.7867  0.9362
  648MOL0     H87423   8.449   7.500   7.274  0.0218  0.8712 -0.4436
  648MOL0     H87424   8.443   7.647   7.366  1.0681  3.1710 -1.7120
  648MOL0     H87425   8.222   7.689   7.311 -0.1694 -0.4993  0.9704
  648MOL0     H87426   8.213   7.589   7.170  2.4501 -0.5685 -0.6179
  648MOL0     H87427   8.231   7.384   7.296 -0.5497  1.9587 -3.3613
  648MOL0     H87428   8.237   7.476   7.448 -0.8038  0.9436  0.2337
  648MOL0     H87429   7.999   7.461   7.247  4.6795  1.0889 -1.5736
  648MOL0     H87430   8.003   7.582   7.372 -3.5363 -0.4746  1.9154
  648MOL0     H87431   7.784   7.471   7.478  1.6408  1.8531 -2.8382
  648MOL0     H87432   7.638   7.302   7.603 -0.7466 -0.8707  0.3177
  648MOL0     H87433   7.699   7.141   7.649  0.7108 -0.3092  0.3284
  648MOL0     H87434   7.672   7.312   7.842  1.1790 -2.0265  0.0305
  648MOL0     H87435   7.804   7.400   7.759 -0.7237  1.1175  0.6694
  648MOL0     H87436   7.944   7.185   7.801 -0.1494  0.2019 -1.8586
  648MOL0     H87437   7.806   7.108   7.850  3.0732 -2.2526  1.0409
  648MOL0     H87438   7.942   7.330   8.010  1.7845 -2.6257  2.3975
  648MOL0     H87439   7.928   7.159   8.043 -0.1298 -1.0101  1.4226
  648MOL0     H87440   7.840   7.054   8.200  0.7367  2.8307 -0.1260
  648MOL0     H87441   7.823   6.829   8.273 -0.8255 -0.1468 -1.0270
  648MOL0     H87442   7.689   6.807   8.380  1.0959  3.1469 -0.1549
  648MOL0     H87443   7.673   6.739   8.212 -1.7808  0.0184 -1.0901
  648MOL0     H87444   7.345   6.653   8.203  0.3142  1.7532 -2.2186
  648MOL0     H87445   7.167   6.489   8.109 -6.0682 -0.7500 -0.8942
  648MOL0     H87446   6.983   6.343   8.107  2.4368 -0.1011  1.9287
  648MOL0     H87447   6.956   6.390   8.268  1.2662  1.4469 -0.4269
  648MOL0     H87448   6.737   6.341   8.056 -0.2080  1.2186 -0.4241
  648MOL0     H87449   6.789   6.221   8.173  1.9779  0.1663 -0.5362
  648MOL0     H87450   6.574   6.339   8.258 -0.7876  1.0524 -0.9686
  648MOL0     H87451   6.653   6.490   8.245  1.4986  0.1462 -0.7279
  648MOL0     H87452   6.742   6.257   8.435  0.5833  0.0447 -2.0484
  648MOL0     H87453   6.807   6.419   8.425 -0.7663  0.2123  0.2808
  648MOL0     H87454   6.633   6.354   8.620 -3.4282 -2.2719  0.4438
  648MOL0     H87455   6.508   6.341   8.509 -1.3138  1.5658  3.4692
  648MOL0     H87456   6.660   6.602   8.543  0.6803 -0.3290  0.7536
  648MOL0     H87457   6.513   6.575   8.444  0.0249 -0.9894  0.1799
  648MOL0     H87458   6.458   6.684   8.662 -1.6781  0.2692  1.7803
  648MOL0     H87459   6.535   6.553   8.747 -1.0925  0.7888  1.8723
  648MOL0     H87460   6.358   6.394   8.660 -4.3555 -1.6448  0.8029
  648MOL0     H87461   6.280   6.509   8.556 -0.4021  1.0830  0.8679
  648MOL0     H87462   6.858   6.766   8.183 -0.6279 -4.3392 -1.1995
  648MOL0     H87463   7.041   6.944   8.239  0.3969 -0.4363 -0.7314
  648MOL0     H87464   7.372   7.160   8.271  0.4105  2.5524  0.3006
  648MOL0     H87465   7.503   7.320   8.174 -4.1601 -0.5129  3.3879
  648MOL0     H87466   8.990   7.843   7.127 -2.4233  0.0788  1.9593
  648MOL0     H87467   9.225   7.883   7.154  0.7114  1.2611  1.7242
  648MOL0     H87468   9.632   8.429   7.230  0.5221 -0.3934 -0.0874
  648MOL0     H87469   9.863   8.371   7.232 -0.3189  0.3655  0.2765
  648MOL0     H87470  10.110   8.076   7.401 -0.6605 -1.5188  0.4743
  648MOL0     H87471   9.944   8.013   7.432  0.5165  1.6043  0.7540
  648MOL0     H87472   9.972   7.885   7.215 -1.3610 -1.3927  2.1892
  648MOL0     H87473  10.082   7.855   7.347  2.5287  0.0043 -0.0518
  648MOL0     H87474  10.264   8.002   7.246 -0.9472  1.6631 -0.9837
  648MOL0     H87475  10.161   8.044   7.119 -1.1036 -0.4748 -0.0269
  648MOL0     H87476  10.256   7.758   7.174 -4.0159 -0.2215  1.8447
  648MOL0     H87477  10.341   7.876   7.067  0.5577 -0.7051  0.5764
  648MOL0     H87478  10.014   7.737   6.831  1.0368 -2.6551 -0.3978
  648MOL0     H87479   9.772   7.963   7.248 -2.5294 -0.7848  1.2718
  648MOL0     H87480   9.542   8.007   7.211  1.3221 -0.4577 -2.4379
  649MOL0     O87481   2.399   9.163   8.599 -0.3051 -0.4061  0.1721
  649MOL0     C87482   2.435   9.254   8.509 -0.8727  0.7276 -0.4695
  649MOL0     O87483   2.354   9.335   8.437  0.0089 -0.2633 -0.2198
  649MOL0     C87484   2.219   9.315   8.422  0.7217 -0.6762 -0.3877
  649MOL0     C87485   2.163   9.355   8.313  1.0891  0.5234  0.5176
  649MOL0     C87486   2.020   9.359   8.296  0.2008 -0.0632  0.3089
  649MOL0     C87487   1.933   9.324   8.397 -0.3663 -0.4591 -0.0327
  649MOL0     O87488   1.796   9.332   8.375 -0.5103 -0.3873 -0.8825
  649MOL0     C87489   1.690   9.326   8.471  0.4407 -0.4090 -0.2724
  649MOL0     C87490   1.571   9.392   8.395  0.0404  0.0985 -0.3279
  649MOL0     C87491   1.440   9.348   8.468  0.8460  0.5793 -0.5736
  649MOL0     C87492   1.327   9.430   8.410  0.2132 -0.5081 -0.3596
  649MOL0     C87493   1.196   9.359   8.423  0.2540 -1.3315  0.7845
  649MOL0     C87494   1.152   9.337   8.574 -0.6573  0.3580  0.4473
  649MOL0     C87495   1.130   9.460   8.655 -1.0101  0.3157 -0.2214
  649MOL0     C87496   1.002   9.546   8.625  0.1973  1.3047  0.1461
  649MOL0     N87497   0.889   9.457   8.653 -0.1172  0.1509 -0.0834
  649MOL0     C87498   0.834   9.427   8.775  0.3633 -0.3346  1.1226
  649MOL0     C87499   0.715   9.366   8.750 -0.2553 -0.2772  0.9086
  649MOL0     C87500   0.610   9.319   8.850 -0.0564 -0.0245 -0.7550
  649MOL0     C87501   0.488   9.413   8.882  0.3693  0.2262 -0.4068
  649MOL0     C87502   0.402   9.454   8.758  0.7744 -0.2372 -0.7763
  649MOL0     C87503   0.257   9.489   8.808  0.2146  0.3434  0.1982
  649MOL0     O87504   0.177   9.528   8.694 -0.0370  0.0296  0.4495
  649MOL0     C87505   0.062   9.590   8.723  0.1257  0.2041  0.7884
  649MOL0     C87506   0.045   9.724   8.712  1.1965  0.5327  0.5975
  649MOL0     C87507  -0.062   9.790   8.766  0.7461 -0.7337  0.1668
  649MOL0     C87508  -0.079   9.938   8.748 -0.1623  0.1475 -0.1380
  649MOL0     C87509  -0.172   9.709   8.822  0.0418  0.1424 -0.4952
  649MOL0     C87510  -0.300   9.760   8.878  0.2906 -0.2251  0.8350
  649MOL0     O87511  -0.371   9.674   8.955 -0.1672  0.7433 -1.0720
  649MOL0     C87512  -0.493   9.713   9.010 -0.6208  0.0601 -1.2055
  649MOL0     C87513  -0.504   9.841   9.072 -0.2391  0.0826 -0.7652
  649MOL0     C87514  -0.627   9.888   9.130 -0.0264  0.2234 -0.2680
  649MOL0     C87515  -0.735   9.805   9.131 -0.4600 -0.7761  1.4253
  649MOL0     O87516  -0.852   9.871   9.163 -0.7856 -0.6431  0.0307
  649MOL0     C87517  -0.969   9.797   9.174 -0.2496  0.4879  0.5276
  649MOL0     C87518  -1.069   9.870   9.268 -0.2391 -0.3255 -0.0903
  649MOL0     C87519  -1.215   9.812   9.260  0.3636 -0.3226  0.2302
  649MOL0     C87520  -1.309   9.860   9.378  0.9143  0.1711 -0.0098
  649MOL0     C87521  -1.450   9.825   9.341  0.5352  0.1643 -0.2038
  649MOL0     C87522  -1.560   9.896   9.412 -0.8231  0.6635 -0.6189
  649MOL0     C87523  -1.690   9.879   9.336  0.5522 -0.2309 -0.0551
  649MOL0     C87524  -1.766   9.749   9.375 -0.2429  0.2759 -0.1291
  649MOL0    Cl87525  -1.920   9.772   9.290 -0.2559 -0.0757  0.1721
  649MOL0     C87526  -0.729   9.675   9.068  0.2613  0.4388 -0.0222
  649MOL0     C87527  -0.604   9.627   9.011 -0.6048 -0.5757  0.6158
  649MOL0     O87528  -0.330   9.880   8.864  0.4160 -0.0963  0.8322
  649MOL0     C87529  -0.157   9.562   8.823  0.3787 -0.1496 -0.1297
  649MOL0     C87530  -0.045   9.511   8.768 -0.6647  0.3697  0.5548
  649MOL0     N87531   0.704   9.349   8.615  0.2578 -0.2410 -0.6120
  649MOL0     N87532   0.804   9.415   8.552  0.8009  0.0211 -0.1693
  649MOL0     C87533   1.999   9.287   8.522  0.3436 -0.9144  0.0094
  649MOL0     C87534   2.131   9.283   8.534  1.1167 -0.2077  0.9801
  649MOL0     C87535   2.579   9.258   8.482 -0.6277 -0.2614 -0.1553
  649MOL0     C87536   2.624   9.301   8.359 -0.8824  0.3393  0.6158
  649MOL0     C87537   2.757   9.286   8.328  0.3421  0.0970 -0.0380
  649MOL0     C87538   2.856   9.246   8.422 -0.2405 -0.1390  0.0376
  649MOL0     O87539   2.986   9.225   8.379 -0.0978 -0.6117 -0.3699
  649MOL0     C87540   3.044   9.338   8.324  0.3449 -0.4685 -0.2905
  649MOL0     C87541   3.192   9.325   8.326  0.4889  0.2620 -0.0706
  649MOL0     C87542   3.273   9.459   8.337  1.1221 -0.4289  0.0958
  649MOL0     C87543   3.420   9.445   8.295 -0.5608 -0.3913  0.0138
  649MOL0     C87544   3.486   9.575   8.351  0.4317  0.9224 -0.2582
  649MOL0     C87545   3.537   9.682   8.383  0.4737  0.2132 -0.4355
  649MOL0     C87546   2.809   9.215   8.553  0.0322 -0.3155 -0.8041
  649MOL0     C87547   2.679   9.221   8.583  0.7767  0.3492  0.2587
  649MOL0     H87548   2.226   9.376   8.227  0.4989  2.0653  0.4329
  649MOL0     H87549   1.975   9.381   8.200  1.3117 -0.5774 -0.3526
  649MOL0     H87550   1.665   9.230   8.518 -1.6139  0.9282  1.5814
  649MOL0     H87551   1.723   9.393   8.551  3.0404 -0.4958 -1.1795
  649MOL0     H87552   1.577   9.501   8.400  1.8523  0.0386 -0.4976
  649MOL0     H87553   1.571   9.367   8.289 -0.5007 -0.9061 -0.0977
  649MOL0     H87554   1.436   9.241   8.445  0.0813  0.9174 -2.2102
  649MOL0     H87555   1.452   9.364   8.575 -0.4640 -2.2610  0.0948
  649MOL0     H87556   1.323   9.532   8.451 -0.7437 -0.3769 -0.7588
  649MOL0     H87557   1.351   9.430   8.303  0.9293 -3.3030 -0.2527
  649MOL0     H87558   1.122   9.424   8.375  1.1774  2.1943  3.6799
  649MOL0     H87559   1.186   9.267   8.366  1.0636 -0.2857 -1.1425
  649MOL0     H87560   1.062   9.276   8.580 -0.7240  0.3327 -0.7153
  649MOL0     H87561   1.235   9.275   8.608  1.2113  2.4946  0.0621
  649MOL0     H87562   1.129   9.428   8.760 -1.0699  0.4479 -0.1816
  649MOL0     H87563   1.217   9.525   8.636 -1.0938  0.1888 -1.0696
  649MOL0     H87564   0.994   9.575   8.520 -2.7301 -2.6338 -0.9314
  649MOL0     H87565   1.008   9.634   8.689  3.2901  1.1095  0.2736
  649MOL0     H87566   0.871   9.438   8.877  2.5170 -1.7648  0.5574
  649MOL0     H87567   0.558   9.231   8.812 -0.8125  1.8365 -4.4521
  649MOL0     H87568   0.650   9.284   8.946 -3.1148 -1.8214 -0.0025
  649MOL0     H87569   0.523   9.497   8.944  2.0755 -2.1065  2.0412
  649MOL0     H87570   0.419   9.366   8.953 -0.5231  0.3992 -1.1377
  649MOL0     H87571   0.406   9.374   8.684 -3.4522 -2.2261  0.8161
  649MOL0     H87572   0.447   9.545   8.717  0.5446  0.0972 -0.3003
  649MOL0     H87573   0.263   9.572   8.880  0.1615  2.0668 -1.6741
  649MOL0     H87574   0.210   9.406   8.862 -1.4970  1.4745  0.5456
  649MOL0     H87575   0.118   9.784   8.659 -0.9582  0.6136 -2.5841
  649MOL0     H87576  -0.076   9.983   8.848  0.3754  1.0225 -0.5347
  649MOL0     H87577   0.001   9.982   8.687  0.1175 -2.3920 -1.7596
  649MOL0     H87578  -0.168   9.962   8.690 -0.5781 -3.2570 -1.1505
  649MOL0     H87579  -0.417   9.906   9.078 -0.6352  0.5177  2.6686
  649MOL0     H87580  -0.619   9.980   9.187 -1.2834 -1.0264  2.0800
  649MOL0     H87581  -1.011   9.802   9.073 -0.1537 -1.2276  0.3724
  649MOL0     H87582  -0.968   9.694   9.210  1.5319  0.8497  1.6468
  649MOL0     H87583  -1.022   9.872   9.367  1.2366  0.6074 -0.7807
  649MOL0     H87584  -1.068   9.975   9.236  3.5645 -1.1674 -3.5898
  649MOL0     H87585  -1.209   9.704   9.275  0.9620 -0.3544 -0.1847
  649MOL0     H87586  -1.262   9.828   9.163  1.6342  0.1013 -0.3377
  649MOL0     H87587  -1.275   9.827   9.476 -1.1725  2.9061  1.7824
  649MOL0     H87588  -1.300   9.969   9.379  1.7811  0.1044  0.7764
  649MOL0     H87589  -1.472   9.719   9.352 -0.5957  0.3127 -0.8515
  649MOL0     H87590  -1.465   9.848   9.235 -3.0314 -2.1453 -0.3411
  649MOL0     H87591  -1.560   9.862   9.516 -0.6085 -0.7796 -1.0725
  649MOL0     H87592  -1.531  10.001   9.410  3.4366 -0.2253  1.5638
  649MOL0     H87593  -1.671   9.882   9.229 -2.1163 -1.0145 -0.6164
  649MOL0     H87594  -1.757   9.963   9.355  0.0964 -0.5362 -0.3105
  649MOL0     H87595  -1.790   9.746   9.482  0.8287  0.7704  0.1383
  649MOL0     H87596  -1.710   9.656   9.354 -0.0595  0.7403 -1.8388
  649MOL0     H87597  -0.818   9.614   9.082 -0.6124  1.4634 -0.9062
  649MOL0     H87598  -0.604   9.527   8.971 -1.0300 -0.1551 -0.4731
  649MOL0     H87599  -0.230   9.493   8.865  0.8496  0.8348  2.4989
  649MOL0     H87600  -0.025   9.404   8.757  3.4324  1.1362 -1.6155
  649MOL0     H87601   1.929   9.270   8.603  0.3646  3.3475  1.1530
  649MOL0     H87602   2.176   9.272   8.632  0.3687  2.9399  1.7637
  649MOL0     H87603   2.552   9.324   8.281 -1.2535 -1.3991  0.3879
  649MOL0     H87604   2.781   9.309   8.224  0.2857 -0.2907 -0.1372
  649MOL0     H87605   3.021   9.347   8.217 -0.2368 -0.3968 -0.1609
  649MOL0     H87606   3.007   9.433   8.364  2.8388 -0.3707  2.0677
  649MOL0     H87607   3.216   9.272   8.233 -1.2773  1.1608 -1.1176
  649MOL0     H87608   3.216   9.263   8.412 -5.1275 -1.9757  0.3563
  649MOL0     H87609   3.246   9.495   8.436 -3.0088 -5.3418  1.1908
  649MOL0     H87610   3.240   9.541   8.273 -0.0646  2.0710  3.6129
  649MOL0     H87611   3.425   9.438   8.186  1.2591  4.0206 -0.3837
  649MOL0     H87612   3.484   9.361   8.325  2.8344  1.4057 -1.5954
  649MOL0     H87613   3.591   9.772   8.406  0.6340  0.0810 -0.2909
  649MOL0     H87614   2.887   9.184   8.621  1.1105 -0.2461 -1.9696
  649MOL0     H87615   2.647   9.167   8.671  0.7618 -0.1742 -0.0623
  650MOL0     O87616   0.139   1.994   0.482 -0.9762  0.6167 -0.3491
  650MOL0     C87617   0.062   1.958   0.577  0.1999 -0.1327  0.2714
  650MOL0     O87618   0.091   1.963   0.705  0.0625  0.4366 -0.0731
  650MOL0     C87619   0.229   1.989   0.736  0.0941  0.5438 -0.6847
  650MOL0     C87620   0.266   2.107   0.799 -0.2902  1.1262 -0.2467
  650MOL0     C87621   0.399   2.120   0.850 -0.3554  0.0889 -0.0802
  650MOL0     C87622   0.495   2.015   0.833  0.4759  0.0797 -1.2529
  650MOL0     O87623   0.621   2.026   0.888 -0.7182 -0.2009  0.2340
  650MOL0     C87624   0.697   2.140   0.833  0.5605  0.0609  0.3429
  650MOL0     C87625   0.844   2.107   0.823 -0.2266 -0.2440  0.6162
  650MOL0     C87626   0.879   1.972   0.765  0.2553 -0.0112  0.6253
  650MOL0     C87627   0.837   1.962   0.611  0.1610 -0.2921 -0.4204
  650MOL0     C87628   0.867   1.822   0.566 -0.3695 -0.0663  0.4709
  650MOL0     C87629   1.013   1.773   0.574  0.3064 -1.1426  0.0377
  650MOL0     C87630   1.121   1.863   0.497  0.2886 -0.0647  0.4658
  650MOL0     C87631   1.106   1.838   0.341 -0.4030  0.5871 -0.2683
  650MOL0     N87632   1.151   1.700   0.295  0.3729  0.0267 -0.4853
  650MOL0     C87633   1.266   1.629   0.340 -0.3826 -0.7915 -0.6882
  650MOL0     C87634   1.298   1.541   0.241  1.2597 -0.2372 -0.2413
  650MOL0     C87635   1.412   1.446   0.240 -0.0909  0.1447  0.5588
  650MOL0     C87636   1.419   1.322   0.140  0.2322 -0.3099  0.4373
  650MOL0     C87637   1.498   1.348   0.009  0.3329 -0.3140 -0.1693
  650MOL0     C87638   1.532   1.214  -0.057 -0.5110 -0.0102 -0.3167
  650MOL0     O87639   1.408   1.154  -0.097  0.2442  0.3994  0.3148
  650MOL0     C87640   1.337   1.205  -0.199  0.0718 -0.2474  0.1391
  650MOL0     C87641   1.202   1.168  -0.211 -1.0762  0.9099  0.2249
  650MOL0     C87642   1.109   1.218  -0.304 -0.0916  0.0137 -0.1465
  650MOL0     C87643   0.961   1.180  -0.294  0.3806  0.2224 -0.7014
  650MOL0     C87644   1.152   1.315  -0.397 -0.3425 -0.1381 -0.2057
  650MOL0     C87645   1.067   1.397  -0.481 -0.0673 -0.7867  0.5064
  650MOL0     O87646   0.941   1.415  -0.438  0.2741 -0.0902  0.2636
  650MOL0     C87647   0.845   1.476  -0.518 -0.0579 -0.1245 -0.6962
  650MOL0     C87648   0.795   1.608  -0.497  0.0973  0.4591 -0.3357
  650MOL0     C87649   0.696   1.666  -0.574 -0.1649 -0.4270  0.6443
  650MOL0     C87650   0.654   1.601  -0.682 -0.1168  0.8652 -0.7732
  650MOL0     O87651   0.545   1.639  -0.754  0.0246 -0.1759  0.3500
  650MOL0     C87652   0.445   1.730  -0.707 -0.6476 -0.2386 -0.1890
  650MOL0     C87653   0.351   1.658  -0.609  0.9821  0.2826  0.2925
  650MOL0     C87654   0.199   1.684  -0.637  0.1659 -0.6175  0.4584
  650MOL0     C87655   0.107   1.640  -0.518  0.3288 -0.4023 -0.0076
  650MOL0     C87656  -0.045   1.647  -0.546 -0.1104 -0.2649 -0.4265
  650MOL0     C87657  -0.093   1.793  -0.541  0.0016 -0.7118 -0.0113
  650MOL0     C87658  -0.247   1.810  -0.543  0.0197  0.1227  0.3325
  650MOL0     C87659  -0.297   1.774  -0.406 -0.3695  0.2646 -0.6106
  650MOL0    Cl87660  -0.474   1.762  -0.405 -0.0021  0.3631 -0.0393
  650MOL0     C87661   0.703   1.472  -0.711 -0.5469 -0.2051 -0.5357
  650MOL0     C87662   0.799   1.406  -0.630 -0.5534  0.5807  0.2732
  650MOL0     O87663   1.107   1.435  -0.592  0.4196 -0.4659  0.4465
  650MOL0     C87664   1.290   1.346  -0.400  0.4024  0.3410 -0.4973
  650MOL0     C87665   1.375   1.302  -0.299 -0.6183  0.2303 -0.4221
  650MOL0     N87666   1.197   1.538   0.147  0.4148  0.4967  0.3402
  650MOL0     N87667   1.102   1.623   0.192  0.1126  0.2845  0.1715
  650MOL0     C87668   0.461   1.897   0.763 -0.1242 -0.4442 -0.2247
  650MOL0     C87669   0.331   1.885   0.717 -0.1135 -0.3964  0.0610
  650MOL0     C87670  -0.070   1.912   0.544  0.0834  0.6174 -0.1004
  650MOL0     C87671  -0.117   1.907   0.407  0.4211  0.6044 -0.0354
  650MOL0     C87672  -0.248   1.861   0.375 -0.3308  1.0303 -0.0639
  650MOL0     C87673  -0.330   1.830   0.481  0.0765  0.1419  0.4334
  650MOL0     O87674  -0.454   1.775   0.485  0.5531  0.0747  0.7973
  650MOL0     C87675  -0.517   1.713   0.372 -0.5738 -0.0600  0.0947
  650MOL0     C87676  -0.675   1.703   0.371 -0.2594 -0.2158 -0.6369
  650MOL0     C87677  -0.735   1.846   0.365 -0.2342  0.0841 -0.4821
  650MOL0     C87678  -0.881   1.843   0.344 -0.0192 -0.3355 -0.5597
  650MOL0     C87679  -0.951   1.770   0.454  0.1740  0.6578 -0.6652
  650MOL0     C87680  -1.017   1.713   0.540  0.5035  0.1351 -0.3530
  650MOL0     C87681  -0.288   1.831   0.614 -0.0005 -1.2109  1.1912
  650MOL0     C87682  -0.156   1.876   0.648  0.2585  0.8028 -0.4181
  650MOL0     H87683   0.199   2.187   0.829 -3.2470 -1.7189  1.5621
  650MOL0     H87684   0.414   2.206   0.914 -1.6164  0.9773 -0.9288
  650MOL0     H87685   0.664   2.165   0.732  0.0611  0.1394  0.5233
  650MOL0     H87686   0.685   2.230   0.895  0.9861  0.4997 -0.2031
  650MOL0     H87687   0.893   2.177   0.755 -0.5595 -0.6945 -0.0930
  650MOL0     H87688   0.883   2.111   0.925  3.3509  2.6841 -0.6345
  650MOL0     H87689   0.987   1.960   0.780  0.3204 -2.5436 -1.0958
  650MOL0     H87690   0.827   1.901   0.830 -2.6530  2.4653  1.1990
  650MOL0     H87691   0.732   1.991   0.609  0.4088  1.0148  1.9338
  650MOL0     H87692   0.897   2.033   0.553 -0.9884  1.2330  0.1905
  650MOL0     H87693   0.798   1.754   0.615 -0.8995 -0.3769 -0.6697
  650MOL0     H87694   0.846   1.827   0.459 -0.3339  1.6247  0.5181
  650MOL0     H87695   1.048   1.772   0.678 -0.9891 -0.1708  0.5054
  650MOL0     H87696   1.008   1.674   0.526 -1.7323 -1.6382  1.1491
  650MOL0     H87697   1.095   1.966   0.525 -0.8895  0.3390 -1.8237
  650MOL0     H87698   1.222   1.842   0.533  0.4340 -0.8611 -0.3863
  650MOL0     H87699   1.159   1.904   0.272 -1.3879  0.7666 -0.8628
  650MOL0     H87700   1.000   1.856   0.320 -0.0785  2.7539 -0.3610
  650MOL0     H87701   1.323   1.649   0.431 -3.2346  3.6148  0.4651
  650MOL0     H87702   1.510   1.495   0.238  0.4462 -0.9296 -1.1004
  650MOL0     H87703   1.418   1.396   0.337 -3.4920  0.3787  1.0078
  650MOL0     H87704   1.320   1.285   0.114  0.4655 -0.1469 -0.7213
  650MOL0     H87705   1.464   1.240   0.197 -0.2374 -1.0998 -0.3166
  650MOL0     H87706   1.592   1.397   0.038  1.8716 -4.4892  2.9176
  650MOL0     H87707   1.434   1.417  -0.047 -0.5789 -2.6113 -2.1017
  650MOL0     H87708   1.584   1.155   0.019 -0.4411 -0.0917 -0.4267
  650MOL0     H87709   1.600   1.213  -0.143  0.3682  0.4141  0.3675
  650MOL0     H87710   1.148   1.094  -0.152 -3.0260  3.1885  1.4498
  650MOL0     H87711   0.903   1.191  -0.386 -0.9829  2.0527  0.3185
  650MOL0     H87712   0.957   1.074  -0.266 -2.9676  0.0728 -1.4194
  650MOL0     H87713   0.913   1.244  -0.219  2.0388  0.9821 -0.2376
  650MOL0     H87714   0.829   1.656  -0.406 -1.1321  2.7264 -0.9876
  650MOL0     H87715   0.668   1.768  -0.548  0.2832  0.7714 -2.9281
  650MOL0     H87716   0.499   1.815  -0.663 -0.2455  0.5793 -2.1559
  650MOL0     H87717   0.386   1.782  -0.783 -1.6771 -0.4488  0.4518
  650MOL0     H87718   0.367   1.552  -0.631  1.9101  1.0671 -3.7417
  650MOL0     H87719   0.365   1.688  -0.505 -1.4501 -0.2483  0.8347
  650MOL0     H87720   0.163   1.619  -0.718  2.1396 -1.6808  0.3695
  650MOL0     H87721   0.176   1.788  -0.662  0.9138 -0.6898 -0.5786
  650MOL0     H87722   0.136   1.540  -0.482  1.5674 -0.1304 -0.2030
  650MOL0     H87723   0.131   1.704  -0.433 -6.5683  2.6232  0.2932
  650MOL0     H87724  -0.091   1.585  -0.469 -0.4357 -0.0641 -0.4596
  650MOL0     H87725  -0.076   1.605  -0.643 -2.1608  1.4282 -0.5918
  650MOL0     H87726  -0.064   1.842  -0.448  0.7358 -2.5556  0.7874
  650MOL0     H87727  -0.034   1.844  -0.618 -1.4650  2.1987  0.6293
  650MOL0     H87728  -0.298   1.746  -0.615 -0.5518 -0.1531  0.9733
  650MOL0     H87729  -0.277   1.914  -0.558  0.2676 -0.0797 -1.9197
  650MOL0     H87730  -0.271   1.841  -0.323 -1.0209 -1.6418  1.2436
  650MOL0     H87731  -0.256   1.677  -0.376  0.4565  0.2008 -1.8595
  650MOL0     H87732   0.679   1.420  -0.804  1.9824 -0.3271 -1.2066
  650MOL0     H87733   0.834   1.307  -0.658  0.1820  1.0882 -0.6628
  650MOL0     H87734   1.323   1.422  -0.470 -0.0694 -0.5357 -1.7073
  650MOL0     H87735   1.477   1.338  -0.286 -0.6077  0.2536 -0.5766
  650MOL0     H87736   0.518   1.805   0.752 -1.0494 -1.1371  0.5024
  650MOL0     H87737   0.304   1.790   0.672  1.7915  0.4234 -3.1428
  650MOL0     H87738  -0.039   1.916   0.331  0.3943 -1.0590 -0.3015
  650MOL0     H87739  -0.278   1.829   0.276 -0.0523 -1.4657  0.5993
  650MOL0     H87740  -0.482   1.764   0.282 -0.5784  0.0952  0.1800
  650MOL0     H87741  -0.484   1.611   0.353 -0.6912  0.3289 -2.5985
  650MOL0     H87742  -0.703   1.669   0.471  1.8397  1.2356  0.5390
  650MOL0     H87743  -0.707   1.642   0.287  0.2543 -1.8715  0.3175
  650MOL0     H87744  -0.678   1.892   0.284 -0.0748  1.1760  0.2190
  650MOL0     H87745  -0.715   1.912   0.450 -0.7327 -2.2224  1.5484
  650MOL0     H87746  -0.900   1.796   0.247  2.2749  0.5568 -1.5323
  650MOL0     H87747  -0.919   1.945   0.338 -1.0578 -0.7664 -4.6106
  650MOL0     H87748  -1.075   1.668   0.617 -0.3332 -0.2809 -1.2071
  650MOL0     H87749  -0.362   1.808   0.690  0.9819 -0.6048  2.3687
  650MOL0     H87750  -0.128   1.872   0.753 -0.6985  0.0229 -0.1722
  651MOL0     O87751   8.337   6.043   3.587 -0.1729  0.3774  0.1797
  651MOL0     C87752   8.378   5.949   3.656 -0.0397  1.3665  0.3136
  651MOL0     O87753   8.306   5.901   3.773  0.2470  0.2168  0.5105
  651MOL0     C87754   8.173   5.920   3.790  0.3858 -0.0670  0.5022
  651MOL0     C87755   8.099   5.818   3.841  0.8231  0.9347 -0.0948
  651MOL0     C87756   7.962   5.828   3.869  0.2461 -0.1907  0.0399
  651MOL0     C87757   7.902   5.951   3.856  0.5193  0.2606 -0.5278
  651MOL0     O87758   7.766   5.978   3.871 -0.6398  0.1146  0.1472
  651MOL0     C87759   7.652   5.887   3.898  0.7642  0.3587  0.1939
  651MOL0     C87760   7.558   5.959   4.003 -0.4810  0.5086 -0.7449
  651MOL0     C87761   7.417   5.897   4.015 -0.7538  0.0899 -0.1955
  651MOL0     C87762   7.321   6.011   4.068  1.0495  0.2287  0.4047
  651MOL0     C87763   7.172   5.985   4.043  1.0756 -0.1841  0.8625
  651MOL0     C87764   7.119   5.865   4.118  1.0771  0.1552 -0.2045
  651MOL0     C87765   6.963   5.866   4.125  0.3861  0.1298 -0.0962
  651MOL0     C87766   6.903   5.799   4.002  0.2225  0.4197 -0.3697
  651MOL0     N87767   6.756   5.778   4.022 -0.0796 -0.6660  0.0981
  651MOL0     C87768   6.666   5.884   4.054  0.0211 -0.7212 -0.5613
  651MOL0     C87769   6.552   5.821   4.071  0.5330 -0.4932  0.2897
  651MOL0     C87770   6.417   5.895   4.067 -0.2597  0.7458  0.2148
  651MOL0     C87771   6.354   5.911   3.929  0.6360 -0.0168 -0.0417
  651MOL0     C87772   6.220   5.980   3.942  0.0117 -0.4898 -0.3165
  651MOL0     C87773   6.143   5.982   3.812  0.4066  0.4001  1.1493
  651MOL0     O87774   6.196   6.078   3.721 -0.4763  0.6154 -0.6519
  651MOL0     C87775   6.117   6.106   3.610 -0.2929  0.0919  0.4986
  651MOL0     C87776   6.102   6.241   3.590 -0.7419 -0.8992  0.2959
  651MOL0     C87777   6.037   6.287   3.473  0.8993 -0.7615 -0.9553
  651MOL0     C87778   5.997   6.430   3.460  0.0519  0.4115  0.2701
  651MOL0     C87779   5.987   6.198   3.371 -1.1004 -0.1187  0.1790
  651MOL0     C87780   5.912   6.229   3.244  0.3915 -0.2944  0.2242
  651MOL0     O87781   5.836   6.124   3.198 -0.1547 -0.3250  0.3005
  651MOL0     C87782   5.762   6.126   3.084 -0.4351 -0.1641  0.6621
  651MOL0     C87783   5.720   6.246   3.020  0.2733  0.5340 -0.0178
  651MOL0     C87784   5.645   6.239   2.897  1.0343 -0.2410 -0.7294
  651MOL0     C87785   5.620   6.123   2.838 -0.0573  0.8229  0.5144
  651MOL0     O87786   5.561   6.119   2.715  0.2559  0.3330  0.2660
  651MOL0     C87787   5.603   6.011   2.633 -0.1316  1.1272  0.2871
  651MOL0     C87788   5.584   6.074   2.501 -0.0557 -0.2166 -0.5767
  651MOL0     C87789   5.624   5.985   2.387 -0.3027 -0.1064  0.2067
  651MOL0     C87790   5.612   6.047   2.246 -0.0859  0.1475 -0.4564
  651MOL0     C87791   5.618   5.943   2.132 -0.0868 -0.7838 -0.3178
  651MOL0     C87792   5.485   5.862   2.118  1.0704 -1.1342  1.1084
  651MOL0     C87793   5.482   5.753   2.008 -0.5357  0.5067  0.3805
  651MOL0     C87794   5.573   5.627   2.025 -0.3120  0.7763 -0.0849
  651MOL0    Cl87795   5.492   5.519   1.908  0.5274 -0.1331 -0.1912
  651MOL0     C87796   5.647   6.007   2.918 -0.8074  0.0083  0.0837
  651MOL0     C87797   5.724   6.004   3.031 -0.2539 -1.2016 -0.0417
  651MOL0     O87798   5.956   6.323   3.181 -0.2856  0.4717 -1.0315
  651MOL0     C87799   6.012   6.059   3.391 -0.1813  0.1753  0.4190
  651MOL0     C87800   6.073   6.013   3.512 -0.5022 -0.0719 -0.7461
  651MOL0     N87801   6.573   5.680   4.049 -0.2832 -0.5456 -0.3462
  651MOL0     N87802   6.696   5.658   4.015 -0.3369  0.0328 -0.4508
  651MOL0     C87803   7.985   6.060   3.816  1.0761 -0.0121 -0.0646
  651MOL0     C87804   8.116   6.050   3.780 -0.0942 -0.2364  0.2858
  651MOL0     C87805   8.509   5.882   3.619 -0.9081 -0.9404  0.0292
  651MOL0     C87806   8.583   5.922   3.497  0.4682  0.1809  0.0023
  651MOL0     C87807   8.699   5.853   3.470 -0.1735  0.3241 -0.1068
  651MOL0     C87808   8.735   5.735   3.543 -0.1133 -0.4208 -0.0122
  651MOL0     O87809   8.828   5.665   3.482 -0.0424 -0.0797 -0.8395
  651MOL0     C87810   8.849   5.530   3.520  0.0282 -0.6295 -0.9220
  651MOL0     C87811   8.959   5.460   3.442  0.1020 -0.2384  1.0237
  651MOL0     C87812   8.927   5.483   3.289 -0.4400  0.6066 -0.8523
  651MOL0     C87813   9.034   5.416   3.199 -0.1154 -1.3065  0.8836
  651MOL0     C87814   9.018   5.456   3.056 -0.0060  0.1400 -0.9093
  651MOL0     C87815   8.998   5.500   2.945  0.7675 -1.0787  0.5761
  651MOL0     C87816   8.661   5.700   3.657 -0.0860 -0.8337 -0.5556
  651MOL0     C87817   8.554   5.776   3.699 -0.3748  0.2743 -0.1847
  651MOL0     H87818   8.154   5.724   3.846  2.1118  1.4844 -2.3051
  651MOL0     H87819   7.895   5.747   3.898  0.2626  0.1524  1.0827
  651MOL0     H87820   7.589   5.885   3.808 -1.6870 -0.4996  1.8436
  651MOL0     H87821   7.681   5.788   3.936  1.3005  0.4094 -0.0721
  651MOL0     H87822   7.591   5.972   4.106 -1.4698  0.3701 -0.4004
  651MOL0     H87823   7.546   6.058   3.959 -0.6696  0.7779 -0.0893
  651MOL0     H87824   7.379   5.840   3.931  0.8414 -0.2985 -0.6824
  651MOL0     H87825   7.428   5.828   4.099  2.5990 -0.0157 -0.5697
  651MOL0     H87826   7.344   6.031   4.173  1.9156  1.1288  0.0572
  651MOL0     H87827   7.343   6.103   4.013  1.4087  0.5608  1.0890
  651MOL0     H87828   7.106   6.072   4.053 -1.0084 -0.7050 -4.6569
  651MOL0     H87829   7.155   5.966   3.937  1.3403 -1.3035  1.0090
  651MOL0     H87830   7.144   5.766   4.078  3.1919 -0.7588  2.9589
  651MOL0     H87831   7.169   5.863   4.216  1.8957  0.3022 -0.6114
  651MOL0     H87832   6.921   5.812   4.211  2.5113 -1.4232  0.0318
  651MOL0     H87833   6.931   5.969   4.141 -0.0932 -0.1682  0.9719
  651MOL0     H87834   6.951   5.704   3.978 -0.3806  0.0965 -0.3309
  651MOL0     H87835   6.921   5.866   3.918  0.0767 -0.6224 -1.2625
  651MOL0     H87836   6.661   5.992   4.057 -2.5115 -0.7894 -0.6833
  651MOL0     H87837   6.353   5.841   4.138  1.8752 -1.2655  0.7167
  651MOL0     H87838   6.433   5.994   4.111 -0.9197 -0.3585  3.2137
  651MOL0     H87839   6.337   5.817   3.874  2.4879  0.0578 -0.8180
  651MOL0     H87840   6.433   5.960   3.872  1.4155 -0.7009  0.4127
  651MOL0     H87841   6.235   6.081   3.983 -2.1625  0.0032 -0.6443
  651MOL0     H87842   6.168   5.934   4.026  3.1411 -0.7487  1.6730
  651MOL0     H87843   6.039   6.006   3.834 -0.5098 -2.0653 -0.1564
  651MOL0     H87844   6.143   5.883   3.765  1.7191  1.5585 -1.4914
  651MOL0     H87845   6.145   6.308   3.664  0.7019 -1.0525 -0.3775
  651MOL0     H87846   5.894   6.437   3.423  0.2072 -2.4124 -0.9558
  651MOL0     H87847   5.998   6.474   3.560  1.4356  1.5774 -0.2297
  651MOL0     H87848   6.064   6.483   3.392 -0.4837 -0.8133 -1.2714
  651MOL0     H87849   5.740   6.339   3.073  1.3876  0.9225 -1.0811
  651MOL0     H87850   5.605   6.331   2.854  2.0218  0.8365  0.5481
  651MOL0     H87851   5.706   5.974   2.643 -0.5680 -0.7919 -1.6387
  651MOL0     H87852   5.540   5.923   2.640 -0.5366  1.5407  2.3026
  651MOL0     H87853   5.479   6.102   2.489 -0.0255  0.4137  0.5148
  651MOL0     H87854   5.651   6.161   2.495 -0.4044  0.1792  0.8396
  651MOL0     H87855   5.558   5.898   2.390 -0.9124  0.3408  0.0038
  651MOL0     H87856   5.726   5.951   2.404 -0.5747  0.2966  3.0399
  651MOL0     H87857   5.517   6.099   2.232 -0.0683  0.1067 -0.7191
  651MOL0     H87858   5.691   6.122   2.228 -1.3510  1.4877 -0.6358
  651MOL0     H87859   5.714   5.892   2.148  1.0622  1.4511  0.3225
  651MOL0     H87860   5.621   5.997   2.037 -0.6893  1.9601  1.1259
  651MOL0     H87861   5.453   5.821   2.215 -1.8667 -0.6916  0.4279
  651MOL0     H87862   5.411   5.940   2.099  0.1482 -2.3398 -0.4620
  651MOL0     H87863   5.487   5.788   1.904 -2.7537 -0.3097 -0.0580
  651MOL0     H87864   5.379   5.718   2.017  0.1156 -2.0601 -1.0530
  651MOL0     H87865   5.580   5.585   2.126  2.7814 -1.7057 -1.2068
  651MOL0     H87866   5.676   5.647   1.996  0.0446 -1.3734 -0.4266
  651MOL0     H87867   5.619   5.910   2.877  0.1037  0.7018 -2.3614
  651MOL0     H87868   5.746   5.912   3.085 -2.1121 -2.0812 -0.6985
  651MOL0     H87869   5.966   5.984   3.328  0.3433  0.3416 -0.1735
  651MOL0     H87870   6.086   5.909   3.541 -2.7648 -0.1786  0.0559
  651MOL0     H87871   7.937   6.154   3.793 -0.4810 -0.3211  1.6736
  651MOL0     H87872   8.158   6.138   3.733 -2.2920 -0.6843 -2.8474
  651MOL0     H87873   8.549   5.988   3.419 -0.2362  0.8249  0.8373
  651MOL0     H87874   8.760   5.880   3.385  1.4269 -0.4625  0.7471
  651MOL0     H87875   8.875   5.529   3.626 -1.6583 -1.0227 -0.4751
  651MOL0     H87876   8.761   5.465   3.515 -0.4312  0.0397 -2.0325
  651MOL0     H87877   8.968   5.353   3.463 -0.6425 -0.1424  1.9180
  651MOL0     H87878   9.062   5.492   3.456  0.4904 -1.2738  0.6275
  651MOL0     H87879   8.931   5.592   3.274 -1.8570  0.8892  0.6011
  651MOL0     H87880   8.829   5.444   3.262  1.0057 -4.4786  0.2419
  651MOL0     H87881   9.035   5.308   3.213 -0.6948 -1.1822  2.0036
  651MOL0     H87882   9.134   5.452   3.226  1.0050 -1.5807 -2.4306
  651MOL0     H87883   8.965   5.541   2.852  2.7468 -2.4966 -0.8542
  651MOL0     H87884   8.684   5.617   3.723 -2.2616 -0.7069  0.4830
  651MOL0     H87885   8.507   5.763   3.796  1.0431  1.5787  0.7429
  652MOL0     O87886   7.874   2.341   9.440  0.2753 -0.0995  0.7770
  652MOL0     C87887   7.951   2.412   9.378  0.6465  0.2314 -0.2193
  652MOL0     O87888   7.911   2.511   9.289  0.0421 -0.1100  0.2012
  652MOL0     C87889   7.782   2.540   9.253  0.0586  0.5713  1.2778
  652MOL0     C87890   7.668   2.454   9.264 -0.1259 -0.0792  0.6397
  652MOL0     C87891   7.540   2.500   9.228  0.0928  0.1646  0.4378
  652MOL0     C87892   7.525   2.632   9.188  0.4733  0.4426  0.0370
  652MOL0     O87893   7.402   2.652   9.130 -0.0267  0.2498 -0.2114
  652MOL0     C87894   7.290   2.694   9.227  0.2705 -0.0682 -1.0214
  652MOL0     C87895   7.168   2.737   9.160  0.7179  0.3458 -0.5895
  652MOL0     C87896   7.184   2.873   9.108 -0.2357  0.2028 -0.3627
  652MOL0     C87897   7.071   2.910   9.009 -0.1763  0.3118  0.9219
  652MOL0     C87898   7.098   3.042   8.940 -0.4163  0.2295 -0.1004
  652MOL0     C87899   7.012   3.066   8.824  0.7388  0.5870 -0.3876
  652MOL0     C87900   7.024   3.202   8.758 -0.4619  0.0322 -0.4231
  652MOL0     C87901   6.974   3.206   8.613 -0.3309 -0.7650 -0.5724
  652MOL0     N87902   6.831   3.199   8.609  0.5429  0.0254  0.7855
  652MOL0     C87903   6.747   3.309   8.632  0.9297 -0.1615  0.9391
  652MOL0     C87904   6.623   3.254   8.607  0.1967  0.5079  0.2242
  652MOL0     C87905   6.494   3.324   8.654 -0.1621  0.8216  0.6399
  652MOL0     C87906   6.413   3.245   8.759 -0.9187 -0.0904  0.3415
  652MOL0     C87907   6.484   3.236   8.893  0.0857  0.3098  0.1499
  652MOL0     C87908   6.437   3.333   8.999  0.1681 -0.0870 -0.5936
  652MOL0     O87909   6.439   3.460   8.935  0.1307 -1.0026 -1.0866
  652MOL0     C87910   6.553   3.528   8.933 -0.9748 -0.3174 -0.6706
  652MOL0     C87911   6.541   3.648   8.864  0.9416  0.5436  0.7756
  652MOL0     C87912   6.642   3.730   8.839  0.3567  0.2439 -0.8441
  652MOL0     C87913   6.609   3.861   8.779 -0.3912  0.0288 -0.4823
  652MOL0     C87914   6.771   3.699   8.874 -0.3700  1.8115  0.4316
  652MOL0     C87915   6.886   3.786   8.854 -0.5932  0.5649  0.1167
  652MOL0     O87916   6.964   3.798   8.959 -0.3038 -0.4583  0.3166
  652MOL0     C87917   7.077   3.880   8.961 -0.8720  0.2543 -0.5963
  652MOL0     C87918   7.104   3.985   8.880 -0.2815 -0.2565  0.0724
  652MOL0     C87919   7.228   4.053   8.895 -0.2421 -0.4756  0.4160
  652MOL0     C87920   7.317   4.033   8.997  0.5207 -0.6698  0.5001
  652MOL0     O87921   7.419   4.125   9.019 -0.3075 -0.4826 -0.2596
  652MOL0     C87922   7.444   4.170   9.153 -0.2790  0.2511 -0.1443
  652MOL0     C87923   7.564   4.266   9.161  0.2586  0.6411 -0.8103
  652MOL0     C87924   7.696   4.202   9.147  0.5405  1.0746  0.0775
  652MOL0     C87925   7.804   4.296   9.183 -0.1412 -0.2987 -0.7667
  652MOL0     C87926   7.939   4.235   9.190 -0.4045  0.1035  0.2449
  652MOL0     C87927   8.043   4.329   9.247 -0.2344  1.6046  0.3880
  652MOL0     C87928   8.065   4.438   9.154  0.5367 -0.1703 -0.3715
  652MOL0     C87929   8.115   4.389   9.018 -0.0567  0.3308 -0.3707
  652MOL0    Cl87930   8.208   4.511   8.919  0.3628 -0.0890 -0.2194
  652MOL0     C87931   7.290   3.926   9.080 -1.1820 -0.1822  0.2195
  652MOL0     C87932   7.177   3.847   9.062  0.5511  0.5840  0.3915
  652MOL0     O87933   6.902   3.834   8.747 -0.5934 -0.0846  0.1676
  652MOL0     C87934   6.795   3.582   8.946  0.3976  1.1059  0.7464
  652MOL0     C87935   6.683   3.494   8.982  0.7995  0.2849 -0.8335
  652MOL0     N87936   6.634   3.127   8.548  0.0134 -0.1494 -0.4905
  652MOL0     N87937   6.761   3.096   8.554 -0.2543  0.3837 -0.1227
  652MOL0     C87938   7.634   2.711   9.180 -0.3744 -0.5583  0.1202
  652MOL0     C87939   7.761   2.677   9.212  0.1753  0.0465  0.4725
  652MOL0     C87940   8.095   2.410   9.415  0.6434 -0.0025 -0.4962
  652MOL0     C87941   8.191   2.459   9.322  0.0733  0.1998 -0.7955
  652MOL0     C87942   8.332   2.432   9.346  0.2272 -0.2065  0.2656
  652MOL0     C87943   8.366   2.367   9.467 -0.4641  0.5640  0.5857
  652MOL0     O87944   8.496   2.346   9.488  0.0507  0.6247  0.1627
  652MOL0     C87945   8.549   2.301   9.615  0.2535  0.3055 -0.5809
  652MOL0     C87946   8.692   2.250   9.609  0.2117  0.4534 -0.2859
  652MOL0     C87947   8.764   2.232   9.745  0.1426 -0.1137 -0.5607
  652MOL0     C87948   8.907   2.161   9.714  0.7390 -0.4943  0.0950
  652MOL0     C87949   8.969   2.109   9.836  0.6651  0.0050 -0.7656
  652MOL0     C87950   9.005   2.081   9.951 -0.1054 -0.1486  0.1341
  652MOL0     C87951   8.271   2.327   9.558  0.2748  0.0579 -0.8597
  652MOL0     C87952   8.141   2.359   9.541  0.8093 -0.6256 -0.5450
  652MOL0     H87953   7.672   2.352   9.301 -2.4965 -0.8066 -0.8746
  652MOL0     H87954   7.455   2.433   9.229 -1.0401  1.5298  0.1019
  652MOL0     H87955   7.264   2.605   9.286  1.1672 -0.8728 -1.8193
  652MOL0     H87956   7.333   2.757   9.306 -0.2245 -0.9761  0.0002
  652MOL0     H87957   7.163   2.667   9.076  6.7638 -0.2351 -0.9630
  652MOL0     H87958   7.089   2.719   9.234  0.3522 -3.9596 -1.7853
  652MOL0     H87959   7.188   2.946   9.189  1.7947 -0.9760  0.6866
  652MOL0     H87960   7.279   2.889   9.055  0.2090 -1.1265 -0.0066
  652MOL0     H87961   7.066   2.834   8.931  1.1325  1.1262  0.0097
  652MOL0     H87962   6.977   2.921   9.064  0.4300  0.8736  1.8597
  652MOL0     H87963   7.088   3.119   9.017 -0.2118  1.2693 -1.0696
  652MOL0     H87964   7.196   3.044   8.892  0.7165  0.0053  2.1048
  652MOL0     H87965   7.042   2.983   8.760 -2.8604 -0.3031 -1.1676
  652MOL0     H87966   6.908   3.050   8.857  1.0206 -2.7293 -0.7632
  652MOL0     H87967   6.974   3.275   8.823  0.5950 -1.2730  1.9678
  652MOL0     H87968   7.131   3.221   8.745 -0.7196  1.5237 -0.5468
  652MOL0     H87969   7.004   3.115   8.560  0.4933 -0.6639 -0.2932
  652MOL0     H87970   7.019   3.291   8.561 -1.1036 -0.0650 -0.1101
  652MOL0     H87971   6.771   3.410   8.664  0.1006  0.7892 -1.2060
  652MOL0     H87972   6.518   3.427   8.681 -0.9890  1.5968 -1.3294
  652MOL0     H87973   6.424   3.322   8.569 -0.7134 -0.2450  1.0908
  652MOL0     H87974   6.392   3.150   8.710  1.1295  0.1212 -1.0568
  652MOL0     H87975   6.315   3.292   8.773 -0.8090  0.6968 -1.2361
  652MOL0     H87976   6.592   3.245   8.878 -0.3286  2.7072 -2.4025
  652MOL0     H87977   6.457   3.136   8.928 -1.6065  1.3782  2.1504
  652MOL0     H87978   6.498   3.327   9.089 -1.7592 -2.3448  0.6729
  652MOL0     H87979   6.335   3.297   9.018 -0.2763  0.8796 -1.0615
  652MOL0     H87980   6.443   3.683   8.836  0.5627 -1.8386 -1.2888
  652MOL0     H87981   6.653   3.941   8.839 -2.5191 -1.1608  2.9528
  652MOL0     H87982   6.654   3.873   8.680  2.6471  1.0055  0.8940
  652MOL0     H87983   6.501   3.876   8.775 -0.2393  1.1280 -0.6899
  652MOL0     H87984   7.030   4.021   8.809 -0.5048 -1.4480 -0.3123
  652MOL0     H87985   7.248   4.138   8.829  3.0529  0.4001  2.3205
  652MOL0     H87986   7.360   4.231   9.186 -0.6636  0.5579 -1.6450
  652MOL0     H87987   7.465   4.078   9.210 -0.0941 -0.3858 -1.2132
  652MOL0     H87988   7.550   4.338   9.080 -2.8148 -0.1110 -1.0494
  652MOL0     H87989   7.564   4.308   9.262 -0.6535 -3.0644  0.8839
  652MOL0     H87990   7.718   4.168   9.046 -1.3056  0.7893 -0.2524
  652MOL0     H87991   7.695   4.116   9.214 -1.4007  4.0725  4.3537
  652MOL0     H87992   7.806   4.352   9.088 -0.7238 -0.6408 -0.9812
  652MOL0     H87993   7.775   4.369   9.259 -3.7718 -2.1346 -0.2137
  652MOL0     H87994   7.963   4.197   9.090  3.0626  0.5645  0.7829
  652MOL0     H87995   7.942   4.152   9.261 -0.0221 -0.1388 -0.0535
  652MOL0     H87996   8.012   4.365   9.345 -1.3130  2.2290 -0.1584
  652MOL0     H87997   8.131   4.268   9.266 -1.4801 -1.0037 -1.5595
  652MOL0     H87998   8.131   4.506   9.209 -1.2230  0.7289  0.7494
  652MOL0     H87999   7.967   4.486   9.142  0.4660 -0.3042 -0.3289
  652MOL0     H88000   8.031   4.357   8.957 -0.2213  1.2476 -0.6339
  652MOL0     H88001   8.176   4.298   9.024 -2.3050 -1.3200 -1.2337
  652MOL0     H88002   7.362   3.904   9.158 -2.6862 -2.4029  1.0646
  652MOL0     H88003   7.165   3.766   9.135  1.0605 -0.0978 -0.2661
  652MOL0     H88004   6.892   3.539   8.969 -0.5946 -3.6350 -2.3868
  652MOL0     H88005   6.708   3.403   9.036  0.5012  0.9078  0.3784
  652MOL0     H88006   7.617   2.808   9.132 -1.0049 -0.7669 -0.0910
  652MOL0     H88007   7.837   2.750   9.187  0.4193 -0.5809 -0.7222
  652MOL0     H88008   8.167   2.507   9.228  0.5639 -1.7824 -1.9938
  652MOL0     H88009   8.399   2.460   9.265 -0.1794 -0.8594 -0.3103
  652MOL0     H88010   8.542   2.385   9.684 -0.0886 -0.5360  0.4357
  652MOL0     H88011   8.488   2.222   9.659  0.2902  1.3616  1.4677
  652MOL0     H88012   8.747   2.312   9.538  4.5067 -0.5715  1.7586
  652MOL0     H88013   8.681   2.156   9.555 -0.2277  2.4059 -3.8552
  652MOL0     H88014   8.703   2.175   9.816 -2.8714  2.9264 -0.4784
  652MOL0     H88015   8.773   2.335   9.781 -2.8993  0.9473 -2.5198
  652MOL0     H88016   8.953   2.245   9.660 -1.8903  0.1122 -1.3883
  652MOL0     H88017   8.899   2.074   9.648 -0.1688 -2.0271  2.1253
  652MOL0     H88018   9.033   2.072  10.054 -0.2031  3.0290  0.5279
  652MOL0     H88019   8.285   2.267   9.648 -2.1989  0.6842 -0.0061
  652MOL0     H88020   8.076   2.323   9.620  1.5371  0.1595  0.4368
  653MOL0     O88021   4.313   2.094  10.737  0.3011 -0.1872  0.1522
  653MOL0     C88022   4.428   2.083  10.798  0.4956 -0.2184  0.6653
  653MOL0     O88023   4.458   1.974  10.882  0.0488  0.5417  0.1848
  653MOL0     C88024   4.351   1.877  10.898 -0.2866  0.0009 -0.7801
  653MOL0     C88025   4.273   1.905  11.008 -0.7100  0.3932 -0.0505
  653MOL0     C88026   4.183   1.814  11.071 -0.0927  0.0622 -0.4749
  653MOL0     C88027   4.166   1.693  11.003  0.1102 -0.0631  0.7941
  653MOL0     O88028   4.077   1.587  11.039 -0.7037 -0.2046 -0.0604
  653MOL0     C88029   3.977   1.616  11.138 -0.2858 -0.7640 -0.5208
  653MOL0     C88030   3.888   1.490  11.169 -0.0078  0.2608  0.4135
  653MOL0     C88031   3.736   1.523  11.181 -0.9169  0.8313 -0.0229
  653MOL0     C88032   3.677   1.598  11.303  0.3659 -0.2494 -0.4855
  653MOL0     C88033   3.527   1.606  11.308 -0.1421 -0.3906  0.3085
  653MOL0     C88034   3.463   1.516  11.415  0.2713  0.5929 -0.1191
  653MOL0     C88035   3.314   1.532  11.411 -0.5663  0.7231  0.4377
  653MOL0     C88036   3.258   1.670  11.419  1.1158 -0.2008  0.6462
  653MOL0     N88037   3.115   1.663  11.439  0.7139 -0.4451 -0.2507
  653MOL0     C88038   3.025   1.657  11.335  0.4230 -0.7515 -0.0435
  653MOL0     C88039   2.907   1.680  11.388  0.1850  0.5823 -0.0906
  653MOL0     C88040   2.784   1.661  11.305 -0.2246  0.3210 -0.4405
  653MOL0     C88041   2.660   1.631  11.375  0.4132  0.3596  0.1364
  653MOL0     C88042   2.540   1.589  11.296 -0.2895  0.4119 -0.3038
  653MOL0     C88043   2.417   1.537  11.372  0.0105  0.1753 -0.9721
  653MOL0     O88044   2.368   1.636  11.465 -0.8636 -0.5861  0.0272
  653MOL0     C88045   2.254   1.612  11.538 -0.0707 -0.4317  0.4266
  653MOL0     C88046   2.189   1.719  11.602  0.8840  0.1265 -0.4281
  653MOL0     C88047   2.080   1.692  11.687 -0.2301  0.4215  0.4685
  653MOL0     C88048   2.023   1.799  11.770  0.8830 -0.7345 -0.6771
  653MOL0     C88049   2.013   1.565  11.687 -0.2962  0.2869  0.0635
  653MOL0     C88050   1.899   1.529  11.765  1.4742  0.6163  0.4174
  653MOL0     O88051   1.797   1.619  11.789  0.0466 -0.2314 -0.0197
  653MOL0     C88052   1.704   1.603  11.880 -0.2331  0.7120  0.3783
  653MOL0     C88053   1.660   1.721  11.950 -0.2878  0.1956 -0.5431
  653MOL0     C88054   1.563   1.709  12.048 -0.6984  0.7525 -0.8971
  653MOL0     C88055   1.505   1.589  12.088 -0.1718 -0.0118  0.6394
  653MOL0     O88056   1.404   1.599  12.187 -0.3000  0.0406 -0.3338
  653MOL0     C88057   1.344   1.479  12.229 -0.5347  0.1253 -0.0210
  653MOL0     C88058   1.275   1.500  12.362 -0.1114 -0.4029  0.2251
  653MOL0     C88059   1.135   1.570  12.353  0.6076 -0.3994 -0.9141
  653MOL0     C88060   1.094   1.613  12.492 -0.7037  0.1217  0.0354
  653MOL0     C88061   0.958   1.686  12.482 -1.1928  0.5984  0.1324
  653MOL0     C88062   0.842   1.595  12.452 -0.2915 -0.0640  1.0443
  653MOL0     C88063   0.697   1.661  12.459 -0.5706 -0.6483  0.1529
  653MOL0     C88064   0.582   1.576  12.511 -0.3578  0.0465 -0.9342
  653MOL0    Cl88065   0.592   1.526  12.683 -0.0405 -0.0562 -0.1402
  653MOL0     C88066   1.546   1.472  12.019 -0.2459  0.1997 -0.4694
  653MOL0     C88067   1.651   1.480  11.924  0.4178  0.5505 -0.4157
  653MOL0     O88068   1.909   1.415  11.817 -0.5124 -0.3363  0.0094
  653MOL0     C88069   2.073   1.462  11.615 -0.4857  0.3291  0.3166
  653MOL0     C88070   2.203   1.484  11.550  0.2289 -0.7213  0.1225
  653MOL0     N88071   2.916   1.687  11.526 -0.2638 -0.5045 -0.4658
  653MOL0     N88072   3.045   1.695  11.556  0.3450  0.5715 -0.5108
  653MOL0     C88073   4.258   1.655  10.897  0.7025  0.9598 -0.0580
  653MOL0     C88074   4.347   1.747  10.842 -0.2714  0.0450  0.1082
  653MOL0     C88075   4.538   2.171  10.767  0.1365 -0.2122  0.9852
  653MOL0     C88076   4.508   2.286  10.684 -0.0351 -1.2225 -0.4838
  653MOL0     C88077   4.614   2.378  10.663  0.5686  0.6102  0.0758
  653MOL0     C88078   4.743   2.354  10.696  0.6157  1.0739 -0.0035
  653MOL0     O88079   4.847   2.443  10.667  0.1093 -0.0220 -0.3531
  653MOL0     C88080   4.850   2.513  10.539  0.2858  0.4780  0.1441
  653MOL0     C88081   4.852   2.673  10.557  0.2340  0.5021 -0.2175
  653MOL0     C88082   4.780   2.741  10.441 -0.3162 -0.0026 -0.2608
  653MOL0     C88083   4.794   2.893  10.456  0.4147 -0.4408 -0.1947
  653MOL0     C88084   4.705   2.977  10.368 -0.5948  0.9238 -0.4539
  653MOL0     C88085   4.647   3.046  10.296  1.0066  0.2267  0.6660
  653MOL0     C88086   4.775   2.232  10.768 -0.2701  0.3284  0.8093
  653MOL0     C88087   4.673   2.135  10.806 -0.1909 -0.3593  0.0630
  653MOL0     H88088   4.279   2.002  11.055 -0.2074 -0.1756  1.1025
  653MOL0     H88089   4.124   1.852  11.153 -3.7861  2.8051 -3.9684
  653MOL0     H88090   4.014   1.638  11.239 -2.5147  0.2863  0.1441
  653MOL0     H88091   3.927   1.709  11.111  0.1869  0.3891  2.2114
  653MOL0     H88092   3.913   1.421  11.088 -0.8165  1.5634 -0.9794
  653MOL0     H88093   3.927   1.434  11.255 -1.6443 -0.8367  0.4976
  653MOL0     H88094   3.697   1.569  11.089 -0.1657  0.7026 -0.4124
  653MOL0     H88095   3.686   1.426  11.173  0.8686 -0.2669  1.5088
  653MOL0     H88096   3.723   1.555  11.392  0.0684 -2.0845 -1.1659
  653MOL0     H88097   3.715   1.699  11.288 -0.3399  0.0468 -0.3509
  653MOL0     H88098   3.507   1.712  11.327  1.1163 -0.0250 -0.2602
  653MOL0     H88099   3.487   1.583  11.209  1.5403 -1.9427 -0.0549
  653MOL0     H88100   3.489   1.420  11.371  3.1246  0.5070  1.5329
  653MOL0     H88101   3.507   1.522  11.515  1.7079  0.1329 -0.7070
  653MOL0     H88102   3.285   1.490  11.314 -0.7224  0.2320  0.6922
  653MOL0     H88103   3.274   1.481  11.499 -0.6211  0.3065  0.1775
  653MOL0     H88104   3.268   1.705  11.315 -2.2320 -1.5479 -0.2781
  653MOL0     H88105   3.307   1.746  11.481 -0.8772  0.5618  1.3741
  653MOL0     H88106   3.046   1.647  11.229  0.2408 -2.9981  0.0780
  653MOL0     H88107   2.779   1.746  11.236  0.4999 -0.6657 -1.7620
  653MOL0     H88108   2.803   1.568  11.250  0.4342 -0.4730  1.0814
  653MOL0     H88109   2.623   1.722  11.424 -4.1829 -0.7329 -0.7711
  653MOL0     H88110   2.675   1.562  11.459 -2.5084  0.4956  0.9041
  653MOL0     H88111   2.558   1.511  11.221 -1.9566  1.3352 -1.7390
  653MOL0     H88112   2.500   1.679  11.249  1.0632  0.7148 -0.9283
  653MOL0     H88113   2.449   1.446  11.423 -3.8304 -0.6885  0.2240
  653MOL0     H88114   2.350   1.501  11.294  0.2240 -1.3061 -0.5023
  653MOL0     H88115   2.239   1.815  11.606  1.0452  0.0551 -0.7317
  653MOL0     H88116   2.041   1.762  11.871  1.0648 -1.2730 -0.9011
  653MOL0     H88117   2.070   1.896  11.757 -0.4821  0.0271 -0.1973
  653MOL0     H88118   1.917   1.822  11.755  1.2561  0.2373 -1.9326
  653MOL0     H88119   1.701   1.818  11.925 -3.4803  2.5395  2.2329
  653MOL0     H88120   1.542   1.805  12.095  0.4753  0.8324 -0.4944
  653MOL0     H88121   1.284   1.434  12.150  2.3972 -1.2246 -1.6561
  653MOL0     H88122   1.417   1.402  12.256  1.6726  2.7455  2.2062
  653MOL0     H88123   1.253   1.401  12.405 -2.2889 -0.7194 -1.4727
  653MOL0     H88124   1.340   1.557  12.429 -0.3832  0.5747 -0.3329
  653MOL0     H88125   1.061   1.506  12.304  0.0830 -0.1343 -0.4742
  653MOL0     H88126   1.146   1.657  12.288 -0.7998  0.6915  0.2276
  653MOL0     H88127   1.071   1.528  12.557 -1.4272 -1.5652 -2.2679
  653MOL0     H88128   1.172   1.676  12.535 -2.7691  0.9154  2.9381
  653MOL0     H88129   0.969   1.756  12.399 -0.7387 -0.4976 -0.7595
  653MOL0     H88130   0.938   1.734  12.578  1.4251  3.3400 -0.5454
  653MOL0     H88131   0.856   1.544  12.356  2.3600 -1.1960  1.9416
  653MOL0     H88132   0.830   1.532  12.541 -1.8216 -1.9941 -0.4305
  653MOL0     H88133   0.666   1.687  12.357 -1.2897  1.6345  0.9041
  653MOL0     H88134   0.705   1.754  12.517 -0.1388  1.8253 -3.4880
  653MOL0     H88135   0.578   1.481  12.456 -0.4431 -0.3453 -0.2664
  653MOL0     H88136   0.491   1.632  12.488 -1.3089 -1.2570 -0.5007
  653MOL0     H88137   1.515   1.374  12.053  1.1189 -0.4563 -1.0479
  653MOL0     H88138   1.669   1.380  11.883  0.0648 -0.1752  1.1291
  653MOL0     H88139   2.029   1.363  11.604  1.4382 -0.3441 -2.6659
  653MOL0     H88140   2.249   1.396  11.507 -0.0139 -0.9277  0.2840
  653MOL0     H88141   4.252   1.557  10.850 -3.3167  0.6749  0.6951
  653MOL0     H88142   4.423   1.713  10.772  1.1533  2.0458  0.6105
  653MOL0     H88143   4.406   2.299  10.649  0.0042 -2.6593 -1.2093
  653MOL0     H88144   4.576   2.465  10.611  2.1711  0.2632 -1.8035
  653MOL0     H88145   4.942   2.484  10.487  0.7041 -0.6607  1.4763
  653MOL0     H88146   4.761   2.495  10.479 -0.8436 -0.3306  1.9737
  653MOL0     H88147   4.958   2.703  10.553  0.3968  0.5073  2.3953
  653MOL0     H88148   4.820   2.713  10.653  2.3502  3.6716 -0.6516
  653MOL0     H88149   4.676   2.710  10.427  0.2105 -1.1987 -1.8886
  653MOL0     H88150   4.824   2.710  10.345  2.3760  3.4655 -0.3672
  653MOL0     H88151   4.897   2.929  10.444  0.6019 -0.3156  1.5444
  653MOL0     H88152   4.760   2.919  10.557 -1.0532 -0.6917 -0.6070
  653MOL0     H88153   4.574   3.081  10.226 -0.2331 -1.6715  0.9500
  653MOL0     H88154   4.879   2.210  10.790  0.0151  0.7313 -0.0608
  653MOL0     H88155   4.699   2.040  10.851  0.2753  1.3745  3.7793
  654MOL0     O88156   7.800   7.972   2.919  0.4317  0.8589  0.6464
  654MOL0     C88157   7.811   8.096   2.943  0.0440 -0.2223 -0.5850
  654MOL0     O88158   7.704   8.180   2.967 -0.0859 -0.0833 -0.0892
  654MOL0     C88159   7.582   8.127   2.988 -0.7710  0.9046  0.0617
  654MOL0     C88160   7.474   8.156   2.903  0.1899 -0.1802 -1.0825
  654MOL0     C88161   7.345   8.120   2.938 -0.1834  1.2109 -0.1208
  654MOL0     C88162   7.318   8.057   3.057  0.5182 -0.8842 -0.0782
  654MOL0     O88163   7.181   8.046   3.085  0.0021  0.3211  0.0200
  654MOL0     C88164   7.124   7.972   3.192 -0.4449  0.0022  0.4473
  654MOL0     C88165   6.980   8.014   3.196 -0.0078  0.3683  0.0149
  654MOL0     C88166   6.912   7.939   3.315 -0.1714  0.4406  0.1846
  654MOL0     C88167   6.774   7.994   3.338 -0.3656  0.0379 -0.7061
  654MOL0     C88168   6.719   7.913   3.461  0.7022 -0.0345 -0.0603
  654MOL0     C88169   6.571   7.950   3.467  0.8778  0.1828 -0.5024
  654MOL0     C88170   6.538   8.098   3.514 -0.2348 -0.1420  0.0927
  654MOL0     C88171   6.394   8.113   3.553 -0.0952  0.5261 -0.0864
  654MOL0     N88172   6.382   8.254   3.597 -0.2680  0.6141  0.7168
  654MOL0     C88173   6.405   8.370   3.522  0.1786  1.3292  0.3150
  654MOL0     C88174   6.420   8.461   3.617  0.4594 -0.8971  0.2413
  654MOL0     C88175   6.476   8.601   3.612  0.1279  1.1818 -0.0058
  654MOL0     C88176   6.634   8.591   3.625 -0.5085 -1.3923  0.5631
  654MOL0     C88177   6.710   8.525   3.509  0.0961  0.4479  0.6024
  654MOL0     C88178   6.867   8.532   3.523  0.2186 -1.5120  0.0930
  654MOL0     O88179   6.904   8.671   3.511  0.3545 -0.2792 -0.4185
  654MOL0     C88180   7.037   8.708   3.494  0.5224 -0.0720 -1.4691
  654MOL0     C88181   7.037   8.846   3.475  0.8323 -0.3582 -0.0178
  654MOL0     C88182   7.155   8.916   3.464 -0.1151  0.2638  0.1982
  654MOL0     C88183   7.136   9.069   3.454 -0.6889  0.2378 -0.1354
  654MOL0     C88184   7.273   8.844   3.449 -0.2308 -0.4977  0.1479
  654MOL0     C88185   7.391   8.906   3.393  0.4635 -0.8197 -0.2915
  654MOL0     O88186   7.401   9.042   3.394  0.1208 -0.6506  0.1232
  654MOL0     C88187   7.510   9.113   3.354 -1.0894 -0.1634 -0.1566
  654MOL0     C88188   7.495   9.250   3.343  0.0057 -0.7251 -1.3721
  654MOL0     C88189   7.604   9.343   3.319  0.8629 -0.2159  0.0421
  654MOL0     C88190   7.724   9.284   3.281 -0.3470 -0.9485  0.1581
  654MOL0     O88191   7.818   9.384   3.260  0.6941  0.0423 -0.4058
  654MOL0     C88192   7.912   9.371   3.158  0.6654  0.2775 -0.2965
  654MOL0     C88193   7.825   9.399   3.030  0.4440  0.3094 -0.1153
  654MOL0     C88194   7.898   9.425   2.898 -0.2041 -0.5326 -0.1709
  654MOL0     C88195   7.976   9.291   2.861  0.4433 -0.2320 -0.9133
  654MOL0     C88196   8.056   9.308   2.738 -0.1636 -0.2862 -0.9372
  654MOL0     C88197   8.089   9.166   2.690 -0.0451  0.2640 -0.4001
  654MOL0     C88198   8.134   9.153   2.549 -0.8678  0.1406  0.8995
  654MOL0     C88199   8.023   9.143   2.439  0.3335 -0.1619 -0.3717
  654MOL0    Cl88200   7.931   8.997   2.467  0.1443 -0.0090  0.3050
  654MOL0     C88201   7.730   9.145   3.258  0.1536 -0.8664 -0.7671
  654MOL0     C88202   7.629   9.061   3.314 -0.4844  0.2390 -0.9021
  654MOL0     O88203   7.480   8.835   3.358  0.3204  0.1052 -0.9483
  654MOL0     C88204   7.271   8.708   3.470 -0.5459 -0.1027 -0.7252
  654MOL0     C88205   7.145   8.634   3.488 -0.1265  1.0289 -1.0332
  654MOL0     N88206   6.377   8.408   3.742  0.2434 -0.4877  0.6310
  654MOL0     N88207   6.343   8.287   3.720  0.3465 -0.1628  0.8507
  654MOL0     C88208   7.419   8.011   3.134 -0.5394 -0.0699  0.5525
  654MOL0     C88209   7.554   8.051   3.099 -1.0705  0.1571 -0.1757
  654MOL0     C88210   7.932   8.162   2.946 -0.3405 -0.2944  0.0932
  654MOL0     C88211   7.950   8.288   3.017  0.0345 -0.7413 -0.5832
  654MOL0     C88212   8.069   8.356   3.011  0.7646  0.1224  0.5849
  654MOL0     C88213   8.177   8.311   2.935 -0.5171 -0.6634 -1.1413
  654MOL0     O88214   8.295   8.384   2.908 -0.1430  0.6405 -0.6340
  654MOL0     C88215   8.325   8.521   2.957  0.0335  0.0987  0.2557
  654MOL0     C88216   8.461   8.589   2.927  0.0091  0.3361 -0.5882
  654MOL0     C88217   8.581   8.513   2.982  0.0412  0.9793 -0.2011
  654MOL0     C88218   8.699   8.612   2.997 -0.7971 -0.1340  0.0002
  654MOL0     C88219   8.825   8.548   3.049  0.1518 -0.0935  0.1425
  654MOL0     C88220   8.927   8.507   3.093 -0.7358 -0.1251  0.8286
  654MOL0     C88221   8.159   8.193   2.867  0.4535  0.3006  1.0136
  654MOL0     C88222   8.045   8.121   2.874  0.0740  0.3838  0.0836
  654MOL0     H88223   7.486   8.224   2.820  1.5534  0.7415 -0.1763
  654MOL0     H88224   7.266   8.150   2.869  2.2372  1.7301 -2.8418
  654MOL0     H88225   7.127   7.864   3.176 -0.8748  0.3830 -2.6724
  654MOL0     H88226   7.180   8.008   3.280  2.0351  0.2732 -1.1542
  654MOL0     H88227   6.970   8.122   3.211  1.2324  0.4462  0.3919
  654MOL0     H88228   6.930   7.985   3.103  1.5356  1.4153 -1.1877
  654MOL0     H88229   6.914   7.832   3.296 -1.1639  0.1151  1.7888
  654MOL0     H88230   6.970   7.967   3.404 -0.8989  1.8498  0.2474
  654MOL0     H88231   6.767   8.101   3.355 -0.7694  0.2917 -2.2705
  654MOL0     H88232   6.705   7.972   3.256 -2.8271 -0.8290  1.4441
  654MOL0     H88233   6.724   7.804   3.454 -1.1568 -0.1998  0.5260
  654MOL0     H88234   6.780   7.948   3.545 -0.7433  0.0564  0.9770
  654MOL0     H88235   6.528   7.935   3.368  1.7764  0.2649 -0.9124
  654MOL0     H88236   6.517   7.893   3.543  1.9006  2.8255  2.4432
  654MOL0     H88237   6.594   8.113   3.607 -0.8628  1.7543  0.2117
  654MOL0     H88238   6.560   8.174   3.438 -0.8633  1.4061  1.3962
  654MOL0     H88239   6.391   8.048   3.641  4.1937 -0.0610 -0.1463
  654MOL0     H88240   6.329   8.073   3.475  1.5974 -2.9138  0.0484
  654MOL0     H88241   6.440   8.372   3.419  1.0985  1.0397  0.6053
  654MOL0     H88242   6.455   8.651   3.517 -2.0927  0.1279 -0.1336
  654MOL0     H88243   6.424   8.659   3.689 -1.9444 -0.8132  0.2287
  654MOL0     H88244   6.651   8.536   3.718 -2.1405 -1.3031  0.9372
  654MOL0     H88245   6.676   8.692   3.625  1.2207 -2.0738  1.0105
  654MOL0     H88246   6.673   8.576   3.420  1.7454  2.7869  1.1347
  654MOL0     H88247   6.691   8.418   3.506 -0.4337  0.5535 -0.2891
  654MOL0     H88248   6.917   8.470   3.447  3.6384  0.7905  0.2635
  654MOL0     H88249   6.887   8.502   3.626 -1.6657  0.2707  1.0648
  654MOL0     H88250   6.943   8.900   3.478 -0.1570 -2.0314  0.6837
  654MOL0     H88251   7.040   9.104   3.492 -0.0853  0.9412  0.7838
  654MOL0     H88252   7.209   9.121   3.517 -0.6833  1.2711 -0.9864
  654MOL0     H88253   7.135   9.103   3.350  0.1660 -0.4272 -0.3710
  654MOL0     H88254   7.399   9.296   3.362  0.2039 -1.2506  1.1301
  654MOL0     H88255   7.589   9.451   3.326  0.0757 -0.3654  0.7888
  654MOL0     H88256   7.982   9.456   3.161 -0.4657  1.2702 -1.2460
  654MOL0     H88257   7.965   9.276   3.166 -3.0830 -1.9762  0.1028
  654MOL0     H88258   7.759   9.316   3.004 -0.5618  0.6960  1.0959
  654MOL0     H88259   7.759   9.482   3.056  0.8285  0.1757  1.4138
  654MOL0     H88260   7.959   9.515   2.908 -1.5223  0.2539  1.3627
  654MOL0     H88261   7.830   9.457   2.819 -1.2224  1.1366  1.2878
  654MOL0     H88262   8.030   9.257   2.950 -0.6862 -0.8402 -0.4387
  654MOL0     H88263   7.909   9.207   2.838  0.0692 -0.5183  1.0341
  654MOL0     H88264   8.141   9.376   2.750 -0.5076  0.3609 -1.9414
  654MOL0     H88265   7.989   9.354   2.664 -0.2647  0.7231 -0.2323
  654MOL0     H88266   8.167   9.133   2.758  0.0305 -0.9910 -1.0561
  654MOL0     H88267   8.012   9.090   2.706  1.8143 -1.4409  1.0018
  654MOL0     H88268   8.199   9.065   2.548 -2.1334 -0.8123  0.5522
  654MOL0     H88269   8.182   9.244   2.512 -0.6510 -1.7942 -4.4177
  654MOL0     H88270   8.064   9.140   2.338  3.4543 -1.2275  0.7718
  654MOL0     H88271   7.966   9.236   2.449  0.6390  0.0119 -0.2326
  654MOL0     H88272   7.820   9.096   3.223  0.2052 -1.0923 -0.3327
  654MOL0     H88273   7.661   8.959   3.334 -0.0930  0.6687  0.8743
  654MOL0     H88274   7.363   8.653   3.457 -1.3995 -1.2867 -2.1139
  654MOL0     H88275   7.132   8.527   3.499 -0.6241  1.1655 -0.2258
  654MOL0     H88276   7.416   7.950   3.223 -0.5130 -1.4007 -0.3381
  654MOL0     H88277   7.627   8.034   3.178 -2.6003  1.0793  1.4970
  654MOL0     H88278   7.875   8.336   3.080  0.1431  1.4366 -1.9923
  654MOL0     H88279   8.062   8.458   3.047 -0.1701  0.1135  0.4563
  654MOL0     H88280   8.235   8.580   2.938 -1.4385 -0.9515  3.3133
  654MOL0     H88281   8.318   8.502   3.064  0.1948 -0.6163  0.1459
  654MOL0     H88282   8.459   8.689   2.970  4.2788 -0.6476  2.6128
  654MOL0     H88283   8.469   8.592   2.818  0.4372 -1.5255 -0.6483
  654MOL0     H88284   8.606   8.427   2.919 -2.0030 -0.0365  0.2842
  654MOL0     H88285   8.550   8.467   3.076 -0.9260 -1.6575 -1.7053
  654MOL0     H88286   8.687   8.696   3.065  1.8751 -0.3670  0.8677
  654MOL0     H88287   8.703   8.659   2.898 -0.7008  0.7664  0.4314
  654MOL0     H88288   9.011   8.449   3.128 -1.5140 -0.8705  1.5021
  654MOL0     H88289   8.232   8.162   2.793 -0.3896 -1.1028  0.7178
  654MOL0     H88290   8.036   8.023   2.828 -2.0791  0.6022 -0.0588
  655MOL0     O88291   1.078   8.678   6.873  0.0105 -0.3369  0.2495
  655MOL0     C88292   1.159   8.629   6.950 -0.0169  0.7789  1.0798
  655MOL0     O88293   1.134   8.576   7.074  0.0542  0.3025 -0.6472
  655MOL0     C88294   1.010   8.594   7.129  0.3879 -1.0177 -0.2689
  655MOL0     C88295   0.895   8.521   7.097  0.8612 -0.4772 -0.1132
  655MOL0     C88296   0.765   8.548   7.161 -0.4662  0.9990  0.5811
  655MOL0     C88297   0.759   8.636   7.271  0.3740 -0.2774  0.9108
  655MOL0     O88298   0.651   8.652   7.351 -0.3774 -0.5859 -0.3864
  655MOL0     C88299   0.520   8.637   7.288  0.5098  0.4163 -0.3455
  655MOL0     C88300   0.430   8.684   7.400 -0.0999  0.1769 -0.8361
  655MOL0     C88301   0.280   8.656   7.377 -0.0494  1.1094  0.4702
  655MOL0     C88302   0.249   8.521   7.434  0.8432 -0.6501 -0.1868
  655MOL0     C88303   0.102   8.481   7.401  0.2047 -0.4164  1.0161
  655MOL0     C88304   0.001   8.548   7.501  0.2919 -0.2766  0.0513
  655MOL0     C88305  -0.140   8.513   7.467  0.5262 -0.5986 -0.1682
  655MOL0     C88306  -0.257   8.608   7.525  1.2012 -1.0028  0.3552
  655MOL0     N88307  -0.392   8.583   7.466 -0.9942 -0.0814 -0.6614
  655MOL0     C88308  -0.514   8.583   7.532  0.0561 -0.7261  0.6674
  655MOL0     C88309  -0.606   8.537   7.443 -0.6012  0.4582  0.5406
  655MOL0     C88310  -0.750   8.501   7.473 -0.4927  0.0520 -0.3156
  655MOL0     C88311  -0.855   8.609   7.499 -0.3242  0.2757  1.4947
  655MOL0     C88312  -0.985   8.538   7.552 -0.4118 -0.5453 -0.1819
  655MOL0     C88313  -1.092   8.625   7.604 -0.4018 -0.8037  0.4731
  655MOL0     O88314  -1.187   8.538   7.678 -0.5071 -0.7623  0.1340
  655MOL0     C88315  -1.294   8.599   7.744  0.2288  0.8512  0.0899
  655MOL0     C88316  -1.386   8.514   7.804  0.0009 -0.1735  0.0481
  655MOL0     C88317  -1.482   8.570   7.888  0.1156 -0.7816  0.4507
  655MOL0     C88318  -1.580   8.472   7.944  0.2272 -0.5569  0.2188
  655MOL0     C88319  -1.497   8.713   7.902 -0.3020 -0.3262  0.6613
  655MOL0     C88320  -1.609   8.793   7.967 -1.4088  0.4211 -0.1764
  655MOL0     O88321  -1.621   8.918   7.940  0.3157 -0.5015 -0.2697
  655MOL0     C88322  -1.722   8.995   7.991  0.1917 -0.2125  0.0248
  655MOL0     C88323  -1.686   9.104   8.069 -0.6902 -0.5986  0.3395
  655MOL0     C88324  -1.787   9.189   8.111 -0.1291  0.1443 -0.4357
  655MOL0     C88325  -1.918   9.177   8.086  0.6032  0.3877  0.3417
  655MOL0     O88326  -2.013   9.276   8.116 -0.1350  0.1325 -0.9119
  655MOL0     C88327  -2.154   9.233   8.115 -0.5739 -0.4972 -0.4139
  655MOL0     C88328  -2.256   9.332   8.174 -0.1022  0.6872  0.0972
  655MOL0     C88329  -2.397   9.270   8.169  0.7792  0.5141 -0.7212
  655MOL0     C88330  -2.496   9.368   8.241  0.1348 -0.4708  1.2138
  655MOL0     C88331  -2.541   9.485   8.153  0.3957  0.3523  0.6207
  655MOL0     C88332  -2.627   9.443   8.026  0.6743  0.3542  0.5202
  655MOL0     C88333  -2.733   9.547   7.992  1.0836 -0.4990 -0.0290
  655MOL0     C88334  -2.794   9.542   7.853 -0.1194 -0.0286  0.0822
  655MOL0    Cl88335  -2.943   9.627   7.851  0.6732 -0.4039 -0.2324
  655MOL0     C88336  -1.955   9.072   7.991 -0.4214 -0.7593 -0.5824
  655MOL0     C88337  -1.856   8.973   7.956  0.0685  0.2206  1.0097
  655MOL0     O88338  -1.683   8.724   8.034 -0.1391 -1.0178  0.0751
  655MOL0     C88339  -1.406   8.791   7.824  0.9435 -0.8616 -0.7515
  655MOL0     C88340  -1.312   8.735   7.744 -1.2587 -0.3632  0.0413
  655MOL0     N88341  -0.546   8.541   7.321 -0.8015 -0.2762  0.3504
  655MOL0     N88342  -0.418   8.556   7.334  0.3928 -0.4701 -0.0358
  655MOL0     C88343   0.886   8.693   7.319 -0.5166 -0.6059  0.5983
  655MOL0     C88344   1.005   8.671   7.250 -0.2512  0.9780 -0.2102
  655MOL0     C88345   1.309   8.623   6.915  0.2137 -0.5927  0.6840
  655MOL0     C88346   1.361   8.678   6.793  0.3604  0.4038 -0.0049
  655MOL0     C88347   1.492   8.663   6.766 -0.2629  0.2430  0.7818
  655MOL0     C88348   1.584   8.609   6.853  0.1928  0.7797 -0.7589
  655MOL0     O88349   1.720   8.604   6.841 -0.5663  0.0155 -0.5450
  655MOL0     C88350   1.777   8.672   6.725 -0.0155 -0.3613  0.4815
  655MOL0     C88351   1.790   8.568   6.619 -0.3945 -0.4873  0.7547
  655MOL0     C88352   1.842   8.627   6.483  0.2578  0.4428  0.0846
  655MOL0     C88353   1.723   8.677   6.393 -0.5225  0.2029 -0.7931
  655MOL0     C88354   1.653   8.579   6.317 -0.3863  0.1685 -0.0875
  655MOL0     C88355   1.609   8.486   6.257  0.5092  0.6347  0.1272
  655MOL0     C88356   1.533   8.565   6.971  0.3578 -0.0538  0.8735
  655MOL0     C88357   1.396   8.566   7.000 -0.0442 -0.2661  0.3001
  655MOL0     H88358   0.876   8.451   7.015 -2.0967  1.8952 -1.6835
  655MOL0     H88359   0.678   8.489   7.134  1.2305 -0.5952 -1.8696
  655MOL0     H88360   0.513   8.685   7.190 -0.5078  3.1282  0.9737
  655MOL0     H88361   0.507   8.530   7.268 -0.5293  0.5767 -0.5825
  655MOL0     H88362   0.467   8.634   7.490 -0.3030 -2.4665 -2.1289
  655MOL0     H88363   0.448   8.792   7.414 -2.8018  0.6813 -0.8419
  655MOL0     H88364   0.214   8.735   7.411 -0.5901  1.3928 -1.1382
  655MOL0     H88365   0.256   8.660   7.270 -2.3175 -0.5485  0.8479
  655MOL0     H88366   0.307   8.440   7.388 -1.1783 -2.1560 -0.2452
  655MOL0     H88367   0.245   8.526   7.543  2.3009 -0.7275 -0.1063
  655MOL0     H88368   0.088   8.504   7.295  0.6498  0.0007  1.0488
  655MOL0     H88369   0.094   8.372   7.402 -1.5052 -0.3572 -0.1622
  655MOL0     H88370   0.015   8.520   7.605  1.6575 -0.4073 -0.1535
  655MOL0     H88371  -0.000   8.656   7.480 -1.7818 -0.4536 -1.0721
  655MOL0     H88372  -0.152   8.516   7.359 -2.2178  2.3167  0.0554
  655MOL0     H88373  -0.169   8.417   7.511 -2.8802  1.5414  2.9324
  655MOL0     H88374  -0.215   8.707   7.507  1.4217 -1.4291 -1.7216
  655MOL0     H88375  -0.272   8.597   7.633  1.4709 -0.7892  0.4172
  655MOL0     H88376  -0.522   8.594   7.640  2.3616  0.6976  0.7632
  655MOL0     H88377  -0.777   8.434   7.390  1.3425 -2.7197  1.1724
  655MOL0     H88378  -0.744   8.423   7.549  0.9926  0.1149 -0.3322
  655MOL0     H88379  -0.880   8.677   7.417 -5.5304 -3.1199 -0.2910
  655MOL0     H88380  -0.810   8.676   7.573  0.5124 -2.5539  3.7292
  655MOL0     H88381  -0.944   8.491   7.642  1.7142 -1.5042 -1.5446
  655MOL0     H88382  -1.023   8.466   7.479  0.4969  1.8821 -3.2378
  655MOL0     H88383  -1.121   8.679   7.513  2.0461 -0.3521 -0.1165
  655MOL0     H88384  -1.052   8.699   7.674 -2.6875  1.4575 -0.4841
  655MOL0     H88385  -1.375   8.407   7.790  3.1780 -0.0180  0.6433
  655MOL0     H88386  -1.553   8.443   8.046 -0.8267 -1.3010  0.2983
  655MOL0     H88387  -1.682   8.510   7.947  0.6068  0.4937  0.2737
  655MOL0     H88388  -1.594   8.388   7.875 -4.8409 -0.7510  1.0893
  655MOL0     H88389  -1.583   9.136   8.085 -0.8299  0.2562 -0.3661
  655MOL0     H88390  -1.751   9.277   8.164 -0.6133 -2.3107  4.5441
  655MOL0     H88391  -2.192   9.206   8.016  2.3416 -0.3087 -1.6732
  655MOL0     H88392  -2.161   9.149   8.185  0.1039 -0.0772  0.1822
  655MOL0     H88393  -2.230   9.360   8.277  0.0590  2.9935 -0.5121
  655MOL0     H88394  -2.252   9.427   8.119  6.4897  1.8633  1.6867
  655MOL0     H88395  -2.402   9.177   8.227 -3.6625 -1.2230 -3.4350
  655MOL0     H88396  -2.425   9.240   8.068  0.8751 -2.6227  0.0975
  655MOL0     H88397  -2.580   9.301   8.260  0.3032 -1.1772 -0.3504
  655MOL0     H88398  -2.459   9.408   8.336 -2.3205  4.1858  0.4722
  655MOL0     H88399  -2.458   9.550   8.123 -1.3886  1.9119 -1.2154
  655MOL0     H88400  -2.604   9.546   8.218  0.8534  0.4435  0.9854
  655MOL0     H88401  -2.562   9.422   7.941 -0.7378 -0.0672 -0.4905
  655MOL0     H88402  -2.681   9.350   8.046 -0.3017  1.2207  2.1419
  655MOL0     H88403  -2.692   9.646   8.014 -1.1541  0.6856 -0.8078
  655MOL0     H88404  -2.815   9.539   8.064  3.1098 -0.0318  2.4914
  655MOL0     H88405  -2.816   9.438   7.828 -0.6816  0.0108  0.3884
  655MOL0     H88406  -2.731   9.583   7.774  0.0899 -1.9228 -0.7823
  655MOL0     H88407  -2.057   9.061   7.956 -1.1549 -1.2653  1.5542
  655MOL0     H88408  -1.888   8.905   7.878  1.5105  0.8528 -0.1862
  655MOL0     H88409  -1.401   8.898   7.838 -0.2566 -1.0679  1.7676
  655MOL0     H88410  -1.251   8.802   7.685 -3.3125  2.4166  0.8783
  655MOL0     H88411   0.886   8.749   7.412  0.2141 -1.7323  1.2881
  655MOL0     H88412   1.100   8.711   7.286  1.2336 -1.1414 -1.5153
  655MOL0     H88413   1.297   8.728   6.721 -2.2212 -0.1147  1.7693
  655MOL0     H88414   1.525   8.715   6.676  0.2457  3.4855  2.6643
  655MOL0     H88415   1.726   8.758   6.680  2.2882  1.6546  1.5246
  655MOL0     H88416   1.874   8.710   6.756  1.0590 -0.6063 -2.3089
  655MOL0     H88417   1.687   8.534   6.604 -2.4276  4.8406  0.7431
  655MOL0     H88418   1.840   8.474   6.645 -1.0293 -2.0591 -3.0464
  655MOL0     H88419   1.897   8.550   6.428 -0.3031  0.3483 -0.3474
  655MOL0     H88420   1.911   8.710   6.506  2.5710 -1.4091  0.2347
  655MOL0     H88421   1.769   8.754   6.329  2.5468 -1.7387 -1.1686
  655MOL0     H88422   1.645   8.728   6.450  0.4861  0.1581  0.6985
  655MOL0     H88423   1.564   8.404   6.205 -1.0345  0.6615  1.3358
  655MOL0     H88424   1.600   8.527   7.048 -0.4574 -0.6566  1.2977
  655MOL0     H88425   1.367   8.518   7.092 -0.9499  0.3104  0.3266
  656MOL0     O88426   2.985   1.219   2.105 -0.3675  0.2335  0.6972
  656MOL0     C88427   3.042   1.306   2.039  0.2710 -0.5983 -0.2227
  656MOL0     O88428   2.985   1.382   1.951  0.7318  0.6083 -0.1586
  656MOL0     C88429   2.868   1.340   1.907  0.5832 -0.9664  0.6399
  656MOL0     C88430   2.854   1.226   1.839  0.5189 -0.1336  0.1251
  656MOL0     C88431   2.724   1.193   1.776  0.2229  0.0806  0.1062
  656MOL0     C88432   2.607   1.275   1.792  0.0911  0.1431 -0.4024
  656MOL0     O88433   2.492   1.260   1.721 -0.1882 -0.1633 -0.1024
  656MOL0     C88434   2.458   1.125   1.710 -0.1679 -0.9849 -0.2094
  656MOL0     C88435   2.341   1.116   1.601  0.6602 -0.5522  0.2690
  656MOL0     C88436   2.386   1.165   1.462  0.3849 -0.3522  0.6278
  656MOL0     C88437   2.303   1.102   1.349 -0.8570  0.3145 -0.7742
  656MOL0     C88438   2.168   1.167   1.340 -0.2600  0.5396 -0.8320
  656MOL0     C88439   2.083   1.105   1.236 -0.1390 -0.3527  0.1550
  656MOL0     C88440   2.019   0.971   1.275 -1.1046 -0.1973  0.5685
  656MOL0     C88441   1.928   0.915   1.170  0.3585 -0.9788 -0.0164
  656MOL0     N88442   1.823   1.016   1.141 -0.1240 -0.1741  0.1567
  656MOL0     C88443   1.752   1.097   1.228 -0.7361  0.1576  0.1243
  656MOL0     C88444   1.674   1.180   1.158 -0.4657  0.4926  0.1425
  656MOL0     C88445   1.583   1.285   1.205  0.3704  0.8232  0.2033
  656MOL0     C88446   1.489   1.244   1.320 -0.3730 -0.2517 -1.1772
  656MOL0     C88447   1.388   1.147   1.268 -0.2851  0.8758  0.2963
  656MOL0     C88448   1.304   1.086   1.382 -0.3883  0.2702  0.2785
  656MOL0     O88449   1.257   1.185   1.471  0.4218  0.0123  0.3722
  656MOL0     C88450   1.157   1.153   1.554  0.1103  0.2898  0.2694
  656MOL0     C88451   1.025   1.155   1.512 -0.5595 -0.7996 -0.5559
  656MOL0     C88452   0.914   1.128   1.598 -0.3833 -0.3195  0.5054
  656MOL0     C88453   0.775   1.158   1.550  0.1813 -0.9138 -0.3508
  656MOL0     C88454   0.943   1.086   1.728  0.1778 -0.1351  0.2434
  656MOL0     C88455   0.840   1.037   1.825 -0.7175  0.4325 -0.3290
  656MOL0     O88456   0.709   1.025   1.788 -0.1381  0.4698 -0.4787
  656MOL0     C88457   0.628   0.968   1.874 -0.7374  0.0126 -0.5228
  656MOL0     C88458   0.580   1.037   1.981 -0.0302 -0.3304 -0.3331
  656MOL0     C88459   0.487   0.977   2.069  0.7521 -0.3097 -0.2038
  656MOL0     C88460   0.454   0.836   2.059  0.5659  0.5072  0.4172
  656MOL0     O88461   0.373   0.770   2.151  0.0649 -0.8143  0.3360
  656MOL0     C88462   0.306   0.653   2.120 -0.3261  0.1084  0.4597
  656MOL0     C88463   0.208   0.681   2.003 -0.5379  0.2451 -0.4035
  656MOL0     C88464   0.101   0.779   2.056  0.9988 -0.1714 -0.1820
  656MOL0     C88465  -0.035   0.740   1.994  0.4189  0.2406 -0.2045
  656MOL0     C88466  -0.139   0.851   2.032 -1.2067  0.2315 -0.4105
  656MOL0     C88467  -0.191   0.850   2.176 -0.4051  0.8789 -0.2264
  656MOL0     C88468  -0.242   0.996   2.203  0.3583 -0.4442 -0.9984
  656MOL0     C88469  -0.301   0.995   2.342  0.0537  0.1895  0.1372
  656MOL0    Cl88470  -0.185   0.982   2.465 -0.0224  0.1055 -0.5704
  656MOL0     C88471   0.510   0.765   1.962 -0.2765  0.1537 -0.4325
  656MOL0     C88472   0.602   0.822   1.868 -0.3043 -0.5359 -0.2556
  656MOL0     O88473   0.884   1.002   1.945 -0.1835  0.1054  0.3569
  656MOL0     C88474   1.078   1.072   1.768  0.4202 -0.2301  0.8551
  656MOL0     C88475   1.182   1.101   1.680 -0.9794 -0.7068 -0.4696
  656MOL0     N88476   1.696   1.147   1.025 -0.1851  0.0481 -0.2430
  656MOL0     N88477   1.782   1.057   1.011  0.3711 -0.0953 -0.6656
  656MOL0     C88478   2.628   1.393   1.860 -0.0110 -0.0618  1.0434
  656MOL0     C88479   2.755   1.425   1.911 -0.1788 -0.7299  0.9231
  656MOL0     C88480   3.184   1.333   2.059 -0.3628  0.2801  1.1730
  656MOL0     C88481   3.244   1.431   1.977 -0.1016 -0.5422  0.3254
  656MOL0     C88482   3.380   1.447   1.967 -0.1835  0.7969 -0.0389
  656MOL0     C88483   3.462   1.388   2.060  1.1701  0.6955  0.6984
  656MOL0     O88484   3.592   1.427   2.047 -0.7256  0.0859  0.2211
  656MOL0     C88485   3.690   1.356   2.122 -0.3754  0.1410  0.0369
  656MOL0     C88486   3.821   1.352   2.046 -0.6295  0.1670 -0.2299
  656MOL0     C88487   3.856   1.494   1.973  0.1432 -0.0506 -1.7717
  656MOL0     C88488   3.998   1.499   1.935 -0.4873  0.1492  0.9086
  656MOL0     C88489   4.020   1.615   1.844  1.1887  0.3377 -0.5160
  656MOL0     C88490   4.032   1.720   1.789  0.1940  1.6377  0.1747
  656MOL0     C88491   3.408   1.297   2.153  0.1664 -0.9750  0.3547
  656MOL0     C88492   3.268   1.278   2.154 -0.9195  0.1306 -0.5678
  656MOL0     H88493   2.945   1.167   1.829 -0.4990 -1.7419 -0.0595
  656MOL0     H88494   2.735   1.101   1.720 -0.4576 -0.0311  0.1473
  656MOL0     H88495   2.541   1.059   1.685  0.7644 -0.4239  1.3038
  656MOL0     H88496   2.432   1.083   1.807 -1.1379  2.0566  0.9865
  656MOL0     H88497   2.312   1.011   1.593 -0.6075 -0.2785  0.9341
  656MOL0     H88498   2.254   1.169   1.642 -0.6710 -2.1116 -0.4415
  656MOL0     H88499   2.372   1.273   1.455  1.1906 -0.3385 -1.5901
  656MOL0     H88500   2.492   1.136   1.460  0.2589 -0.7895  0.1782
  656MOL0     H88501   2.359   1.107   1.256 -3.6274 -0.8446 -2.6256
  656MOL0     H88502   2.286   0.994   1.359 -0.0007  0.2948  0.7569
  656MOL0     H88503   2.111   1.177   1.433  0.7308 -0.3762 -0.1027
  656MOL0     H88504   2.185   1.266   1.296 -0.8909 -0.5177 -3.6981
  656MOL0     H88505   2.012   1.187   1.227  0.6582  0.4983  1.4035
  656MOL0     H88506   2.138   1.091   1.142  2.1597 -3.7937  1.7793
  656MOL0     H88507   2.098   0.895   1.275 -2.9646 -2.2984 -0.6848
  656MOL0     H88508   1.973   0.964   1.374  1.7844 -2.4017  1.9045
  656MOL0     H88509   1.882   0.822   1.204 -0.8110 -0.0766  0.9381
  656MOL0     H88510   1.987   0.906   1.078  0.3221  4.8130 -0.9659
  656MOL0     H88511   1.755   1.091   1.336 -1.2432  2.2669  0.2899
  656MOL0     H88512   1.657   1.363   1.225  1.9139 -0.4849 -0.1766
  656MOL0     H88513   1.525   1.310   1.115  0.8425  3.8983  0.6499
  656MOL0     H88514   1.423   1.324   1.358 -0.0199 -0.5868  0.2068
  656MOL0     H88515   1.542   1.194   1.401  0.9164 -0.1013 -1.8981
  656MOL0     H88516   1.439   1.060   1.224 -2.8952 -0.7108  0.2203
  656MOL0     H88517   1.324   1.192   1.192 -1.0677 -0.4455  0.1343
  656MOL0     H88518   1.361   1.015   1.442 -0.1325 -1.9724 -2.4252
  656MOL0     H88519   1.220   1.029   1.341 -1.5351  1.0153  1.5073
  656MOL0     H88520   1.006   1.191   1.412  0.4039  2.2444  0.2612
  656MOL0     H88521   0.777   1.227   1.465  0.3800 -0.4961 -0.0102
  656MOL0     H88522   0.712   1.074   1.520 -1.0507 -0.1203 -0.0649
  656MOL0     H88523   0.716   1.196   1.634 -0.6508  3.0267 -2.4812
  656MOL0     H88524   0.625   1.133   2.003 -0.0434 -0.6493  1.2515
  656MOL0     H88525   0.446   1.035   2.151 -2.0072 -1.5732 -0.5847
  656MOL0     H88526   0.367   0.566   2.093 -2.6525 -1.7638  0.9160
  656MOL0     H88527   0.252   0.619   2.209 -2.9093  1.4322 -0.5302
  656MOL0     H88528   0.256   0.720   1.913  3.2584 -2.4330  0.1942
  656MOL0     H88529   0.156   0.589   1.974 -2.0197  0.2613  1.9551
  656MOL0     H88530   0.140   0.878   2.028  1.3073  0.0514  0.9718
  656MOL0     H88531   0.093   0.767   2.164 -1.2939  0.3152 -0.2488
  656MOL0     H88532  -0.016   0.731   1.887 -0.9350  2.1667 -0.6682
  656MOL0     H88533  -0.066   0.643   2.033  3.0816 -0.4561  0.3770
  656MOL0     H88534  -0.220   0.865   1.960 -0.3301  1.8329 -1.1599
  656MOL0     H88535  -0.087   0.948   2.031 -0.3025 -0.1873  1.3797
  656MOL0     H88536  -0.260   0.765   2.178  1.2437 -0.5113 -0.5076
  656MOL0     H88537  -0.104   0.824   2.237  0.6842  0.1255 -2.0501
  656MOL0     H88538  -0.320   1.018   2.129 -0.9661 -0.0317  0.4707
  656MOL0     H88539  -0.163   1.070   2.188 -0.2019 -0.4357 -5.2522
  656MOL0     H88540  -0.368   0.911   2.364 -0.0664  0.3783  0.5024
  656MOL0     H88541  -0.363   1.084   2.354 -1.3013 -0.6691 -0.1639
  656MOL0     H88542   0.485   0.660   1.952  3.0896 -1.1258  2.3809
  656MOL0     H88543   0.652   0.758   1.795 -1.1936 -2.6518  0.9201
  656MOL0     H88544   1.097   1.039   1.870 -0.7988 -0.1828  1.1181
  656MOL0     H88545   1.283   1.095   1.721 -0.4860 -2.2339 -1.8129
  656MOL0     H88546   2.543   1.458   1.879 -0.6893 -1.9432  5.8219
  656MOL0     H88547   2.763   1.526   1.949  1.8812 -0.6745  0.4767
  656MOL0     H88548   3.190   1.494   1.908  0.0155  2.2462  2.5893
  656MOL0     H88549   3.406   1.515   1.886 -3.4373  1.4327 -0.6966
  656MOL0     H88550   3.711   1.422   2.207  3.0897 -1.1258  0.3141
  656MOL0     H88551   3.660   1.261   2.167 -4.1466  0.4838 -1.3481
  656MOL0     H88552   3.813   1.271   1.973 -0.4043 -2.0342  2.0325
  656MOL0     H88553   3.905   1.339   2.114 -0.2958 -1.5608 -0.9173
  656MOL0     H88554   3.852   1.580   2.041 -0.0407 -1.8111  0.5910
  656MOL0     H88555   3.785   1.509   1.892 -2.8094  0.7488  0.7694
  656MOL0     H88556   4.018   1.402   1.890  1.6434  1.1472 -0.4551
  656MOL0     H88557   4.070   1.515   2.016  0.4008  1.1412 -0.0356
  656MOL0     H88558   4.059   1.807   1.732  0.9620  0.7068 -0.9411
  656MOL0     H88559   3.469   1.247   2.228  0.0898  1.7609  2.4329
  656MOL0     H88560   3.219   1.215   2.228  1.5797 -0.3532  0.7919
  657MOL0     O88561   6.953   2.487  10.866  0.7506 -0.4218 -1.0948
  657MOL0     C88562   6.893   2.448  10.768 -0.4295  0.6395 -0.8744
  657MOL0     O88563   6.756   2.463  10.752  0.1671 -0.7283  0.3689
  657MOL0     C88564   6.673   2.523  10.847  0.1106  0.0611 -0.1323
  657MOL0     C88565   6.687   2.512  10.985 -0.5274 -1.0626  0.0781
  657MOL0     C88566   6.589   2.563  11.070  0.6057 -0.8622  0.4122
  657MOL0     C88567   6.480   2.638  11.025 -0.8807  0.9641 -0.2159
  657MOL0     O88568   6.396   2.675  11.123  0.6792  0.3384  0.4445
  657MOL0     C88569   6.257   2.691  11.094  0.9877  0.0397  0.5646
  657MOL0     C88570   6.183   2.558  11.143 -0.5678  0.1259 -0.0055
  657MOL0     C88571   6.033   2.579  11.191  0.5509  0.7321  0.3566
  657MOL0     C88572   5.991   2.467  11.283  0.7945 -0.4217 -0.0916
  657MOL0     C88573   5.845   2.475  11.329 -0.5240  0.6297 -0.8366
  657MOL0     C88574   5.744   2.437  11.225  0.4708  0.1652  0.0553
  657MOL0     C88575   5.607   2.457  11.292 -0.0729  0.3103 -0.0993
  657MOL0     C88576   5.487   2.454  11.196  0.3624  0.3294  0.2500
  657MOL0     N88577   5.363   2.431  11.275 -0.0255  0.4545  0.2285
  657MOL0     C88578   5.308   2.511  11.368 -0.2543 -0.6681 -0.4112
  657MOL0     C88579   5.191   2.459  11.398  0.5103 -0.8965 -0.2610
  657MOL0     C88580   5.074   2.511  11.481  0.1086  0.6204  0.4783
  657MOL0     C88581   4.947   2.452  11.418  0.4924  0.3525 -0.2254
  657MOL0     C88582   4.824   2.506  11.500  0.0595 -0.8646 -0.0029
  657MOL0     C88583   4.688   2.481  11.445  0.9893 -0.5567  0.0502
  657MOL0     O88584   4.661   2.347  11.475 -0.7437 -0.3338  0.5845
  657MOL0     C88585   4.528   2.306  11.451 -0.8976 -0.6366  0.3401
  657MOL0     C88586   4.418   2.392  11.433 -0.1873  0.1796  0.2851
  657MOL0     C88587   4.290   2.338  11.420  0.1787 -0.2627  0.5275
  657MOL0     C88588   4.180   2.438  11.396 -0.0665  0.3704  1.0812
  657MOL0     C88589   4.272   2.201  11.423  0.8895  0.2465 -0.3522
  657MOL0     C88590   4.143   2.134  11.383 -0.1312  0.2369 -0.3584
  657MOL0     O88591   4.025   2.197  11.427 -0.2168  0.5808 -0.4661
  657MOL0     C88592   3.901   2.136  11.439  0.6536 -0.4850 -0.5540
  657MOL0     C88593   3.870   1.997  11.454 -0.7819  0.3883  0.3223
  657MOL0     C88594   3.742   1.950  11.475 -0.1081 -0.5830  0.6172
  657MOL0     C88595   3.634   2.041  11.489 -0.2065 -0.3147 -0.1156
  657MOL0     O88596   3.517   1.984  11.501  1.1810  0.1245 -0.6326
  657MOL0     C88597   3.417   2.029  11.403  0.0362  0.1589  0.6182
  657MOL0     C88598   3.312   2.114  11.473 -0.6827  0.5949 -0.4623
  657MOL0     C88599   3.216   2.024  11.546  0.2033  0.2759 -0.4741
  657MOL0     C88600   3.118   2.109  11.631 -0.4303 -0.0689  0.2431
  657MOL0     C88601   3.016   2.190  11.545 -0.4475  0.1102 -0.2510
  657MOL0     C88602   2.938   2.101  11.448 -0.2453  0.0248  0.4877
  657MOL0     C88603   2.787   2.127  11.418  0.9767 -1.0717 -0.0367
  657MOL0     C88604   2.737   2.014  11.321  1.1321  0.5182  0.4063
  657MOL0    Cl88605   2.575   2.062  11.270  0.0936 -0.3339  0.4369
  657MOL0     C88606   3.656   2.177  11.483  0.9416  0.3635  0.8513
  657MOL0     C88607   3.785   2.225  11.461  0.5777  0.1125  0.0837
  657MOL0     O88608   4.154   2.024  11.333  0.3274  0.5227 -0.8213
  657MOL0     C88609   4.383   2.116  11.448  0.7728  0.0308  0.5554
  657MOL0     C88610   4.509   2.166  11.454  0.3369  0.3563 -0.1439
  657MOL0     N88611   5.194   2.330  11.352 -0.0120  0.4412 -0.0877
  657MOL0     N88612   5.289   2.317  11.267  0.1007 -0.0850  1.2824
  657MOL0     C88613   6.457   2.653  10.886  0.0004  0.2503  1.6545
  657MOL0     C88614   6.553   2.594  10.798 -0.1939  0.4213  0.3920
  657MOL0     C88615   6.960   2.373  10.665  0.1274 -0.7766 -0.1483
  657MOL0     C88616   7.097   2.374  10.653  0.3928  0.1019  0.4053
  657MOL0     C88617   7.159   2.301  10.549 -0.9904 -0.8858 -0.1527
  657MOL0     C88618   7.092   2.238  10.447  0.2565  0.5505 -0.6000
  657MOL0     O88619   7.152   2.161  10.349 -0.0569 -0.5250 -0.0991
  657MOL0     C88620   7.291   2.122  10.354 -0.4988  0.2285 -0.3546
  657MOL0     C88621   7.325   2.017  10.243 -0.8171 -0.2511  0.8839
  657MOL0     C88622   7.234   1.894  10.260  1.1190 -0.6010  0.3162
  657MOL0     C88623   7.278   1.784  10.166  0.0170 -0.2604 -0.2759
  657MOL0     C88624   7.192   1.677  10.186 -0.3769  0.1596  0.8809
  657MOL0     C88625   7.107   1.594  10.198  1.0276  0.3075  0.5565
  657MOL0     C88626   6.957   2.260  10.448  0.4133  0.0085  0.3350
  657MOL0     C88627   6.887   2.316  10.560 -0.3386 -0.6738  0.4445
  657MOL0     H88628   6.765   2.454  11.033  0.0116  1.6808  2.7770
  657MOL0     H88629   6.591   2.539  11.176  1.7165  0.5535  0.7468
  657MOL0     H88630   6.224   2.772  11.159  2.9320 -0.2650  2.0259
  657MOL0     H88631   6.236   2.722  10.991  2.5747 -1.2370 -0.1954
  657MOL0     H88632   6.178   2.494  11.054  0.3920  2.1503 -1.5825
  657MOL0     H88633   6.234   2.511  11.228  1.5418 -0.3689 -1.4888
  657MOL0     H88634   6.023   2.671  11.248 -1.8120  1.4296 -1.0517
  657MOL0     H88635   5.977   2.581  11.097 -1.6696 -0.5019  1.5595
  657MOL0     H88636   5.996   2.363  11.249  2.0630 -0.0979 -0.9927
  657MOL0     H88637   6.060   2.464  11.368  0.8024 -1.7633 -0.1162
  657MOL0     H88638   5.838   2.402  11.410 -1.4761  0.7224 -0.8238
  657MOL0     H88639   5.827   2.576  11.366  0.8971  0.9945 -1.0780
  657MOL0     H88640   5.751   2.505  11.139 -0.4848  2.3225  1.6073
  657MOL0     H88641   5.750   2.335  11.185 -2.0113  0.3311 -0.9407
  657MOL0     H88642   5.599   2.381  11.370  0.2070 -2.4793 -2.6294
  657MOL0     H88643   5.620   2.560  11.327 -0.5388 -0.1107  1.4229
  657MOL0     H88644   5.502   2.382  11.115  1.3426  1.8834 -1.0205
  657MOL0     H88645   5.476   2.542  11.131  2.7381  0.7080  0.2569
  657MOL0     H88646   5.347   2.609  11.393  0.9971 -0.8519 -1.5036
  657MOL0     H88647   5.088   2.466  11.580  1.8627 -0.9562 -0.4141
  657MOL0     H88648   5.072   2.620  11.482  0.3998  0.6860 -1.5614
  657MOL0     H88649   4.961   2.344  11.433  0.5415  0.1023 -1.9122
  657MOL0     H88650   4.929   2.478  11.314 -3.6123  2.7090  0.8585
  657MOL0     H88651   4.846   2.614  11.498  1.7441 -1.1959 -0.4160
  657MOL0     H88652   4.816   2.482  11.606 -2.1072 -0.4912 -0.0307
  657MOL0     H88653   4.687   2.505  11.338 -0.2495 -0.4987  0.0622
  657MOL0     H88654   4.626   2.553  11.498  1.3253 -1.4875  1.7928
  657MOL0     H88655   4.431   2.499  11.435 -0.1866  0.2189 -0.9944
  657MOL0     H88656   4.121   2.463  11.484 -3.3803 -0.5088 -0.6909
  657MOL0     H88657   4.214   2.533  11.352  2.4598 -1.2110 -0.6392
  657MOL0     H88658   4.109   2.386  11.331 -0.5482  0.0695  1.8466
  657MOL0     H88659   3.953   1.926  11.446  0.4498  1.9395 -1.9226
  657MOL0     H88660   3.714   1.845  11.469 -1.5715 -0.1612 -0.4033
  657MOL0     H88661   3.465   2.082  11.321 -3.0282  1.7666 -0.2903
  657MOL0     H88662   3.368   1.939  11.362  0.7979 -1.1356  2.4152
  657MOL0     H88663   3.365   2.172  11.549  1.6447 -1.0106 -0.7537
  657MOL0     H88664   3.260   2.188  11.412 -0.4200  0.7890 -0.4535
  657MOL0     H88665   3.270   1.964  11.620 -0.4565  0.5831  0.2735
  657MOL0     H88666   3.169   1.967  11.465  1.5807 -0.4652 -0.7832
  657MOL0     H88667   3.070   2.030  11.689  0.9899 -1.5706 -0.5534
  657MOL0     H88668   3.177   2.171  11.701  2.4121 -2.4211  0.1295
  657MOL0     H88669   3.048   2.275  11.484  1.3551 -0.2202  0.1861
  657MOL0     H88670   2.946   2.238  11.614 -2.1014  0.0884 -1.8499
  657MOL0     H88671   2.981   2.086  11.349  0.4119 -1.1179  0.9289
  657MOL0     H88672   2.942   2.001  11.492  4.4232 -1.1350 -1.9052
  657MOL0     H88673   2.773   2.216  11.355 -0.9076 -1.3862 -0.1076
  657MOL0     H88674   2.729   2.134  11.510  0.0104  0.7298 -0.7156
  657MOL0     H88675   2.729   1.920  11.376 -3.3718  0.4744  0.1183
  657MOL0     H88676   2.793   1.998  11.228  0.9273  1.9002  0.0095
  657MOL0     H88677   3.574   2.245  11.504  1.6248  1.1430  1.0253
  657MOL0     H88678   3.800   2.332  11.467 -4.7696  1.0936  2.1477
  657MOL0     H88679   4.383   2.008  11.439 -0.2098 -0.1609  2.4382
  657MOL0     H88680   4.600   2.109  11.467  0.4846  0.8260  0.9055
  657MOL0     H88681   6.370   2.707  10.851  0.3794 -0.2790 -0.1883
  657MOL0     H88682   6.548   2.607  10.691 -2.6837 -2.2575  0.0479
  657MOL0     H88683   7.147   2.419  10.738  2.0995  1.3045 -1.1422
  657MOL0     H88684   7.265   2.314  10.569 -0.9087 -2.6915  0.8016
  657MOL0     H88685   7.344   2.218  10.346  1.0953 -0.3720  2.0159
  657MOL0     H88686   7.309   2.078  10.452 -1.0610 -0.2813 -0.4726
  657MOL0     H88687   7.431   1.991  10.249 -0.8186 -0.4110  0.3087
  657MOL0     H88688   7.304   2.063  10.146  3.9684 -1.7597 -1.2033
  657MOL0     H88689   7.131   1.918  10.233  2.0401  1.6128 -1.6794
  657MOL0     H88690   7.250   1.865  10.364  1.8005  2.2563  1.0944
  657MOL0     H88691   7.373   1.736  10.191 -0.2914 -0.9381 -0.3633
  657MOL0     H88692   7.284   1.826  10.065 -0.8475 -1.5919 -0.9116
  657MOL0     H88693   7.032   1.517  10.200  0.2261  0.9209 -2.1485
  657MOL0     H88694   6.896   2.210  10.373 -0.3027  1.0331  0.2182
  657MOL0     H88695   6.778   2.318  10.566 -0.2674  1.3482  3.3535
  658MOL0     O88696   1.993   4.501   4.311  0.2619  0.3057  0.0531
  658MOL0     C88697   2.063   4.413   4.266 -0.1240  0.2487 -0.3748
  658MOL0     O88698   2.023   4.285   4.217  0.5588 -0.2381  0.0589
  658MOL0     C88699   1.889   4.251   4.253  0.4268 -0.8148 -0.4446
  658MOL0     C88700   1.873   4.149   4.347  0.7474  0.3583 -0.2193
  658MOL0     C88701   1.746   4.097   4.380  0.1008 -0.5695  0.4349
  658MOL0     C88702   1.636   4.146   4.307 -0.0671 -0.6274 -0.1245
  658MOL0     O88703   1.506   4.106   4.307  0.0179  0.4077 -0.2649
  658MOL0     C88704   1.429   4.138   4.426 -0.2445 -0.4276 -0.9623
  658MOL0     C88705   1.402   4.005   4.501 -0.3413 -0.6283  0.6480
  658MOL0     C88706   1.310   4.015   4.624 -0.0367 -0.1493 -0.4298
  658MOL0     C88707   1.285   4.156   4.680 -0.5095 -0.2976  0.0497
  658MOL0     C88708   1.226   4.149   4.827 -0.4484  0.3666  0.0806
  658MOL0     C88709   1.071   4.120   4.803 -0.7916 -0.2979  0.1196
  658MOL0     C88710   0.991   4.148   4.928  0.1930  0.9530 -0.4226
  658MOL0     C88711   1.042   4.047   5.038 -0.0433 -0.7473 -0.3332
  658MOL0     N88712   0.940   3.995   5.126  0.2935 -0.2319 -0.5401
  658MOL0     C88713   0.856   4.079   5.202  0.3900 -0.1325 -0.0382
  658MOL0     C88714   0.767   3.990   5.249  0.4190 -0.5707 -0.3141
  658MOL0     C88715   0.669   4.008   5.357  0.0327  0.6287  0.5090
  658MOL0     C88716   0.517   4.012   5.316 -0.9877  0.1092  0.7441
  658MOL0     C88717   0.463   3.880   5.267 -0.4620 -0.3210  0.0728
  658MOL0     C88718   0.435   3.785   5.377  0.1022 -0.0677  0.1336
  658MOL0     O88719   0.321   3.699   5.343 -0.1233  0.0505 -1.0078
  658MOL0     C88720   0.184   3.730   5.382 -1.0646 -0.2406  0.3960
  658MOL0     C88721   0.146   3.842   5.453  0.0522  0.5283 -0.0790
  658MOL0     C88722   0.013   3.877   5.468  0.2836 -0.1464 -1.2340
  658MOL0     C88723  -0.013   4.012   5.539  0.1652  0.3485  0.4991
  658MOL0     C88724  -0.079   3.776   5.442 -0.5919  0.5513  0.0524
  658MOL0     C88725  -0.220   3.811   5.463 -0.0016 -0.6062 -0.5691
  658MOL0     O88726  -0.293   3.792   5.349 -0.2654 -0.2885 -0.8097
  658MOL0     C88727  -0.428   3.814   5.356  0.4600  0.0604 -0.5737
  658MOL0     C88728  -0.517   3.711   5.330 -0.2306 -0.0892 -0.0766
  658MOL0     C88729  -0.657   3.742   5.344  0.3747  0.1456  0.4581
  658MOL0     C88730  -0.699   3.868   5.371  0.1761 -0.7809 -0.0226
  658MOL0     O88731  -0.829   3.905   5.371 -0.0556 -0.2281  0.0000
  658MOL0     C88732  -0.939   3.813   5.378  0.7801  0.0580 -0.3568
  658MOL0     C88733  -1.068   3.897   5.408 -0.4923  0.4189  0.7632
  658MOL0     C88734  -1.179   3.797   5.412  0.0218  0.5371  0.2050
  658MOL0     C88735  -1.317   3.858   5.437 -0.0653  0.4170  0.4395
  658MOL0     C88736  -1.351   3.897   5.586  0.3119 -0.7566  0.0132
  658MOL0     C88737  -1.505   3.909   5.592  0.2027  0.0606 -0.4776
  658MOL0     C88738  -1.535   3.916   5.738  0.3750 -0.4043  0.3056
  658MOL0     C88739  -1.683   3.935   5.759  0.3450  0.4621 -0.2018
  658MOL0    Cl88740  -1.757   3.768   5.753  0.4022 -0.3357  0.1109
  658MOL0     C88741  -0.605   3.976   5.379  0.4722  0.4222 -0.0860
  658MOL0     C88742  -0.471   3.946   5.373 -0.5398  0.8369 -0.5217
  658MOL0     O88743  -0.258   3.861   5.567 -0.1003  0.3670  0.5955
  658MOL0     C88744  -0.048   3.652   5.383  0.6750  0.8732 -0.4392
  658MOL0     C88745   0.089   3.636   5.350 -0.1876 -0.1152 -0.7454
  658MOL0     N88746   0.789   3.864   5.195  0.7253 -0.4194  0.2021
  658MOL0     N88747   0.879   3.877   5.112 -0.4739  0.3580  0.1521
  658MOL0     C88748   1.652   4.248   4.217 -0.5602  0.4107  0.3890
  658MOL0     C88749   1.772   4.310   4.195  0.4276  1.6659  0.0264
  658MOL0     C88750   2.210   4.450   4.251 -0.2321  0.4937  0.2005
  658MOL0     C88751   2.302   4.372   4.174 -0.8233  0.6190  0.7963
  658MOL0     C88752   2.433   4.403   4.185 -1.2638 -0.1139 -0.2580
  658MOL0     C88753   2.493   4.513   4.256 -0.4988  0.1306 -0.3376
  658MOL0     O88754   2.629   4.544   4.267 -0.5096  0.2959 -0.7779
  658MOL0     C88755   2.727   4.478   4.189 -0.5763  0.0734 -0.2464
  658MOL0     C88756   2.859   4.531   4.220 -0.3344  0.4975  0.0245
  658MOL0     C88757   2.922   4.479   4.352 -0.6533  0.1119  0.0426
  658MOL0     C88758   2.919   4.327   4.379 -0.2511 -0.0613  0.7019
  658MOL0     C88759   3.027   4.277   4.301 -0.0352 -0.5481 -0.9548
  658MOL0     C88760   3.120   4.220   4.250  0.6937  0.2908 -0.4470
  658MOL0     C88761   2.400   4.590   4.323 -0.2029 -0.0775  0.3669
  658MOL0     C88762   2.257   4.565   4.315  0.4544  0.3680  0.9332
  658MOL0     H88763   1.957   4.112   4.404  1.7641  1.9046 -0.6583
  658MOL0     H88764   1.748   4.022   4.458  5.0559 -1.8592 -0.6152
  658MOL0     H88765   1.476   4.215   4.488 -1.1271 -0.4569 -0.2275
  658MOL0     H88766   1.337   4.192   4.403  0.1948  1.0279  0.4974
  658MOL0     H88767   1.366   3.943   4.418 -1.6562  2.3730 -1.2462
  658MOL0     H88768   1.497   3.963   4.533 -0.4049 -3.6954 -2.6071
  658MOL0     H88769   1.212   3.972   4.603 -0.4298 -1.6844  3.5612
  658MOL0     H88770   1.358   3.947   4.695  1.7139 -0.1387 -1.5286
  658MOL0     H88771   1.388   4.194   4.682 -0.5873 -0.1219  1.4057
  658MOL0     H88772   1.218   4.223   4.626 -0.7520 -0.0321  0.6737
  658MOL0     H88773   1.279   4.082   4.894  0.7067  2.2386  1.1344
  658MOL0     H88774   1.247   4.250   4.863  1.4614  0.1733 -0.3809
  658MOL0     H88775   1.034   4.189   4.727  1.3421  0.2786 -0.4532
  658MOL0     H88776   1.067   4.018   4.763 -0.3320 -0.2264 -0.1116
  658MOL0     H88777   0.988   4.251   4.964 -0.0878  0.2131  1.8258
  658MOL0     H88778   0.886   4.127   4.905  1.4766 -3.4458 -3.5763
  658MOL0     H88779   1.120   4.101   5.092 -1.1159 -2.0088  2.7357
  658MOL0     H88780   1.081   3.957   4.991 -3.2561 -2.3319 -0.2048
  658MOL0     H88781   0.867   4.182   5.235  1.2851 -1.0686  2.8518
  658MOL0     H88782   0.682   3.924   5.427  2.1365 -0.1649 -0.7612
  658MOL0     H88783   0.698   4.102   5.406 -0.3055  0.5633  0.8447
  658MOL0     H88784   0.524   4.074   5.227  0.0348  1.4595  1.7115
  658MOL0     H88785   0.455   4.065   5.389 -1.7520  0.5118 -0.1786
  658MOL0     H88786   0.534   3.842   5.193 -0.5780 -0.6148  0.1088
  658MOL0     H88787   0.366   3.907   5.225 -0.0419  3.3479  1.1583
  658MOL0     H88788   0.424   3.853   5.462 -0.2256  2.3577 -1.7028
  658MOL0     H88789   0.516   3.718   5.406  3.2581  1.9846 -3.0828
  658MOL0     H88790   0.219   3.916   5.485  1.0647 -0.6073  0.3234
  658MOL0     H88791   0.074   4.078   5.547  0.1913  0.3648  0.1164
  658MOL0     H88792  -0.086   4.066   5.477 -1.3883 -1.0591  1.0227
  658MOL0     H88793  -0.059   4.002   5.638 -1.9046  4.0907  0.1137
  658MOL0     H88794  -0.477   3.610   5.321 -1.0716 -0.3242 -1.4460
  658MOL0     H88795  -0.733   3.664   5.351 -0.3858  0.9157  0.9388
  658MOL0     H88796  -0.952   3.749   5.291  0.9637  1.4266 -1.4216
  658MOL0     H88797  -0.933   3.745   5.464 -0.6441 -2.1059 -1.8660
  658MOL0     H88798  -1.039   3.943   5.503  0.2408  1.0480  0.2456
  658MOL0     H88799  -1.076   3.971   5.328 -3.1029  1.4252  1.8504
  658MOL0     H88800  -1.159   3.718   5.485  0.8077  0.7015  0.1674
  658MOL0     H88801  -1.188   3.747   5.315  0.6485  1.3908 -0.3038
  658MOL0     H88802  -1.329   3.944   5.371 -0.9342 -1.4262 -1.9842
  658MOL0     H88803  -1.393   3.787   5.403 -2.5685  2.1460  2.0605
  658MOL0     H88804  -1.306   3.993   5.611  1.4034 -0.6908 -1.9531
  658MOL0     H88805  -1.321   3.821   5.658 -3.6883 -0.9244  1.7767
  658MOL0     H88806  -1.538   3.999   5.539 -4.5139 -1.1714 -0.0973
  658MOL0     H88807  -1.555   3.819   5.553 -0.4752 -1.2159  2.9803
  658MOL0     H88808  -1.489   4.005   5.782  0.4105  0.8051 -2.0232
  658MOL0     H88809  -1.505   3.827   5.795 -2.0856  0.1530  2.6728
  658MOL0     H88810  -1.724   3.994   5.676 -1.2107 -1.3847 -0.8312
  658MOL0     H88811  -1.708   3.982   5.855 -0.0276 -2.8573  1.4808
  658MOL0     H88812  -0.630   4.081   5.376 -1.0637  0.0846 -3.1697
  658MOL0     H88813  -0.397   4.025   5.386  0.7756 -0.0017 -2.4080
  658MOL0     H88814  -0.114   3.568   5.367 -0.1163  0.9864  1.8520
  658MOL0     H88815   0.107   3.542   5.299 -2.7765 -2.5227  2.2993
  658MOL0     H88816   1.560   4.282   4.169  0.0846 -1.0422 -2.0602
  658MOL0     H88817   1.772   4.401   4.134 -0.4433  0.8156 -1.3093
  658MOL0     H88818   2.262   4.293   4.112 -0.3581  0.4631  0.6950
  658MOL0     H88819   2.493   4.341   4.120  0.4744  0.2702  0.9247
  658MOL0     H88820   2.728   4.369   4.193  2.6365 -0.0557 -1.8448
  658MOL0     H88821   2.696   4.502   4.086 -1.0001 -0.1723 -0.1775
  658MOL0     H88822   2.848   4.634   4.257 -0.2990  0.0581  1.3154
  658MOL0     H88823   2.926   4.512   4.136  0.1380 -2.6940  1.0074
  658MOL0     H88824   2.887   4.546   4.431 -0.0674 -0.2939  0.6508
  658MOL0     H88825   3.023   4.519   4.344 -0.4404 -0.5735 -0.9104
  658MOL0     H88826   2.824   4.280   4.353  0.2767 -0.3054 -0.8883
  658MOL0     H88827   2.941   4.292   4.481  0.4865  2.6005  1.5318
  658MOL0     H88828   3.207   4.164   4.224  1.0286 -0.4861  2.1036
  658MOL0     H88829   2.419   4.678   4.383 -0.8065  0.6174 -0.4286
  658MOL0     H88830   2.188   4.636   4.359  1.5440  1.5771  0.7817
  659MOL0     O88831   1.975   7.895   1.176  0.9625 -0.2328  0.3203
  659MOL0     C88832   2.019   7.951   1.278  1.2148  0.2019  0.1255
  659MOL0     O88833   1.950   8.043   1.356  0.2740  0.3709  0.3849
  659MOL0     C88834   1.814   8.048   1.330  0.9703 -0.2264 -0.0349
  659MOL0     C88835   1.758   8.130   1.228  0.2605  0.3470  0.2482
  659MOL0     C88836   1.621   8.131   1.202 -0.5725 -0.0978  0.7707
  659MOL0     C88837   1.534   8.052   1.280 -0.0295  0.7504 -0.6695
  659MOL0     O88838   1.398   8.046   1.281 -0.7010 -0.3330 -0.0834
  659MOL0     C88839   1.324   8.140   1.205  0.0015  0.0095  0.2273
  659MOL0     C88840   1.176   8.114   1.245  0.4756 -0.4794 -0.3884
  659MOL0     C88841   1.093   8.223   1.185  0.2353  0.1504  0.3025
  659MOL0     C88842   0.956   8.234   1.245 -0.7503 -0.1141 -0.0996
  659MOL0     C88843   0.862   8.121   1.179  0.0739 -0.9961 -0.8409
  659MOL0     C88844   0.715   8.170   1.195  0.4173  0.6611 -0.1336
  659MOL0     C88845   0.611   8.058   1.188 -1.3132  0.0558 -0.3528
  659MOL0     C88846   0.464   8.111   1.199  0.3048  0.0689  0.1205
  659MOL0     N88847   0.369   8.014   1.127 -1.2078 -0.4882 -0.3885
  659MOL0     C88848   0.248   8.050   1.078  0.2515  0.5379  0.3024
  659MOL0     C88849   0.192   7.927   1.040  0.5206  0.4162  0.3285
  659MOL0     C88850   0.046   7.884   1.013  0.7559  0.4438 -0.2406
  659MOL0     C88851  -0.024   7.975   0.915  0.7787  1.2130  0.5346
  659MOL0     C88852  -0.156   7.911   0.871  0.6739 -1.2064 -1.0064
  659MOL0     C88853  -0.214   7.983   0.750 -0.9818 -0.4333  0.7095
  659MOL0     O88854  -0.342   7.937   0.715  0.6383  0.6689 -0.3672
  659MOL0     C88855  -0.415   8.015   0.631  0.2170  0.7926 -0.4178
  659MOL0     C88856  -0.434   8.000   0.493 -0.3888  0.3824 -0.8322
  659MOL0     C88857  -0.524   8.077   0.415 -0.0644 -0.7110  1.0475
  659MOL0     C88858  -0.565   8.026   0.281  1.1965 -0.0584  0.4950
  659MOL0     C88859  -0.601   8.176   0.481  1.1651  0.2974 -0.4457
  659MOL0     C88860  -0.705   8.256   0.409 -0.0271  0.1500  0.3381
  659MOL0     O88861  -0.826   8.274   0.473 -0.0328 -0.5448 -0.1898
  659MOL0     C88862  -0.920   8.323   0.394  0.3118 -0.5078 -0.8854
  659MOL0     C88863  -0.974   8.454   0.406 -0.4910  0.4142 -0.0304
  659MOL0     C88864  -1.069   8.502   0.312 -0.2653 -0.4364 -0.1479
  659MOL0     C88865  -1.132   8.419   0.219 -0.2194 -0.4120 -0.8141
  659MOL0     O88866  -1.233   8.455   0.137 -0.6107  0.4104  0.4122
  659MOL0     C88867  -1.331   8.547   0.179  0.1313  1.0327 -0.5530
  659MOL0     C88868  -1.474   8.514   0.131  0.4601 -0.2544 -0.3979
  659MOL0     C88869  -1.559   8.616   0.196  0.4576  0.3214 -0.2892
  659MOL0     C88870  -1.705   8.566   0.175 -0.3571 -0.2679  0.4126
  659MOL0     C88871  -1.800   8.684   0.176 -0.5708 -0.5313  0.5851
  659MOL0     C88872  -1.947   8.645   0.138 -0.1158  0.4894  0.1371
  659MOL0     C88873  -2.006   8.533   0.233  0.5782 -0.2624  0.1469
  659MOL0     C88874  -2.158   8.507   0.218  0.3961 -0.0435 -1.3205
  659MOL0    Cl88875  -2.243   8.636   0.302 -0.7341  0.1282 -0.1670
  659MOL0     C88876  -1.075   8.296   0.207  0.1166  0.6709 -0.6337
  659MOL0     C88877  -0.977   8.244   0.290  0.5485  0.1643 -0.2052
  659MOL0     O88878  -0.677   8.313   0.304 -0.3729  0.0071  0.1362
  659MOL0     C88879  -0.576   8.202   0.615  0.0723 -0.0176  0.2458
  659MOL0     C88880  -0.484   8.123   0.690  0.0134  0.7244 -0.1214
  659MOL0     N88881   0.273   7.827   1.085 -0.4090  0.5202  0.0258
  659MOL0     N88882   0.374   7.880   1.142 -0.3814 -0.4881 -0.6747
  659MOL0     C88883   1.585   7.979   1.390 -0.0503  0.5580  0.9281
  659MOL0     C88884   1.725   7.982   1.418  0.1089  0.7643 -0.0136
  659MOL0     C88885   2.153   7.922   1.314 -0.4258 -1.5073 -0.3730
  659MOL0     C88886   2.253   7.865   1.230 -0.4003 -0.0738 -0.4095
  659MOL0     C88887   2.387   7.868   1.270 -0.8275  0.4406 -0.1820
  659MOL0     C88888   2.426   7.902   1.400 -0.2502  0.7881  0.4268
  659MOL0     O88889   2.554   7.867   1.433 -0.0199  0.1354  0.3005
  659MOL0     C88890   2.617   7.903   1.555  0.1643 -0.0576  0.7281
  659MOL0     C88891   2.769   7.873   1.549 -0.5524 -1.4790 -0.3162
  659MOL0     C88892   2.834   7.951   1.441  0.1889 -0.3871 -1.1847
  659MOL0     C88893   2.986   7.956   1.441  0.4466 -0.0221 -0.2306
  659MOL0     C88894   3.046   8.019   1.557 -0.2552  0.7218 -0.7001
  659MOL0     C88895   3.103   8.053   1.664  0.8086  0.0735 -0.2740
  659MOL0     C88896   2.331   7.970   1.483  0.3955 -0.1082  0.0088
  659MOL0     C88897   2.196   7.974   1.443 -0.1488  0.6025  0.5659
  659MOL0     H88898   1.826   8.195   1.175 -0.2669 -0.6583 -1.7801
  659MOL0     H88899   1.585   8.200   1.126 -2.7861 -1.1446  0.7788
  659MOL0     H88900   1.352   8.244   1.219 -0.4232  0.1618 -0.0218
  659MOL0     H88901   1.329   8.108   1.100  0.9708 -1.4159  0.6789
  659MOL0     H88902   1.150   8.012   1.218  1.7915 -1.5473  2.0746
  659MOL0     H88903   1.161   8.122   1.353  0.1316 -1.2182 -0.3771
  659MOL0     H88904   1.135   8.320   1.212 -1.2833  0.6160  1.1397
  659MOL0     H88905   1.089   8.214   1.076 -0.7293 -3.2702  0.4751
  659MOL0     H88906   0.956   8.223   1.354 -2.5546  0.6141  0.0233
  659MOL0     H88907   0.911   8.332   1.226  0.6178  0.3445 -1.0900
  659MOL0     H88908   0.880   8.116   1.072 -1.3482  0.4608 -1.1794
  659MOL0     H88909   0.882   8.025   1.229 -1.2332 -0.9493 -0.1935
  659MOL0     H88910   0.706   8.228   1.287 -1.5024  3.2419 -1.7851
  659MOL0     H88911   0.697   8.238   1.111 -1.9382  1.8582  1.2291
  659MOL0     H88912   0.622   8.019   1.086  1.2604  0.2882 -0.2090
  659MOL0     H88913   0.641   7.986   1.265 -3.0033 -0.7855 -0.4285
  659MOL0     H88914   0.452   8.206   1.147 -0.9887 -1.1520 -1.9461
  659MOL0     H88915   0.435   8.127   1.304  1.2104  3.7897 -0.0693
  659MOL0     H88916   0.209   8.149   1.060  2.3798  1.3276 -0.1693
  659MOL0     H88917   0.055   7.783   0.972 -0.7952  0.1889 -0.0413
  659MOL0     H88918  -0.007   7.887   1.109  1.9860 -0.6959  0.5099
  659MOL0     H88919   0.041   8.015   0.837 -0.0376  0.3757 -0.6112
  659MOL0     H88920  -0.058   8.059   0.976 -2.1915  1.5394 -1.3708
  659MOL0     H88921  -0.222   7.918   0.958  2.0852  0.3205 -0.0007
  659MOL0     H88922  -0.166   7.806   0.843 -3.0512 -0.6463 -2.4211
  659MOL0     H88923  -0.148   7.976   0.663 -1.1847 -0.7474  0.5783
  659MOL0     H88924  -0.218   8.091   0.768 -0.5202 -0.2062 -0.4790
  659MOL0     H88925  -0.387   7.912   0.452 -0.2622  0.5032 -0.9427
  659MOL0     H88926  -0.567   8.107   0.207  0.0007  1.3002  1.9189
  659MOL0     H88927  -0.492   7.951   0.253  0.9169  0.5273 -2.0650
  659MOL0     H88928  -0.660   7.971   0.283  1.1464 -0.1984 -2.4479
  659MOL0     H88929  -0.946   8.515   0.492 -1.5788 -0.6198  1.1041
  659MOL0     H88930  -1.107   8.604   0.316  0.4427 -0.0363 -2.2668
  659MOL0     H88931  -1.332   8.555   0.288 -0.1116  0.0267 -0.4671
  659MOL0     H88932  -1.309   8.648   0.144  0.3626  1.2917  0.3035
  659MOL0     H88933  -1.508   8.518   0.027 -3.3584  0.3799  0.7248
  659MOL0     H88934  -1.502   8.415   0.169 -1.0437  0.3283  0.0545
  659MOL0     H88935  -1.552   8.710   0.140 -3.4523  0.8446 -0.2328
  659MOL0     H88936  -1.522   8.627   0.298  0.6622  0.1044 -0.3389
  659MOL0     H88937  -1.711   8.519   0.077 -1.5550  2.1194 -0.7450
  659MOL0     H88938  -1.727   8.498   0.258 -4.3625 -0.2297 -0.4430
  659MOL0     H88939  -1.758   8.760   0.109 -0.4492 -1.8586 -0.8769
  659MOL0     H88940  -1.797   8.722   0.279 -0.8479 -4.2380  2.1217
  659MOL0     H88941  -2.009   8.730   0.168 -2.1989 -1.4580  1.7291
  659MOL0     H88942  -1.964   8.607   0.037 -0.4013 -2.1010  1.0866
  659MOL0     H88943  -1.988   8.553   0.339 -0.6334 -5.2372  1.5574
  659MOL0     H88944  -1.956   8.440   0.205 -2.1665 -2.1290  1.0336
  659MOL0     H88945  -2.189   8.415   0.269 -1.0072 -0.2476 -2.4633
  659MOL0     H88946  -2.188   8.501   0.113 -2.6705 -1.9923 -0.4911
  659MOL0     H88947  -1.115   8.234   0.127 -1.6151  1.4917 -0.4472
  659MOL0     H88948  -0.942   8.142   0.280 -0.6334 -0.5309  2.0984
  659MOL0     H88949  -0.626   8.289   0.658 -2.9761 -0.6783 -1.6488
  659MOL0     H88950  -0.476   8.136   0.797  2.2780  1.7852 -0.3698
  659MOL0     H88951   1.501   7.945   1.449 -0.4694 -2.8516 -1.3623
  659MOL0     H88952   1.761   7.950   1.515 -0.4824  2.5682  0.8412
  659MOL0     H88953   2.234   7.824   1.131  0.7496 -0.6630 -0.3993
  659MOL0     H88954   2.463   7.819   1.210  0.7979 -0.5055  2.4310
  659MOL0     H88955   2.597   8.010   1.567 -0.5742  0.2435 -2.3669
  659MOL0     H88956   2.583   7.841   1.638  1.1241 -1.3409  0.2017
  659MOL0     H88957   2.792   7.770   1.518 -0.0455 -1.5824  0.3654
  659MOL0     H88958   2.821   7.895   1.643 -2.3054  1.9015  0.0303
  659MOL0     H88959   2.799   8.055   1.446  0.0343 -0.4688 -0.2283
  659MOL0     H88960   2.810   7.913   1.342 -0.2978 -0.0963 -1.1812
  659MOL0     H88961   3.006   8.014   1.350 -2.0451  0.7152 -0.3945
  659MOL0     H88962   3.024   7.854   1.433  0.4748 -0.1385  1.1334
  659MOL0     H88963   3.149   8.079   1.757  2.2324 -2.6036 -0.1307
  659MOL0     H88964   2.351   8.005   1.584 -1.1375 -0.8532  0.6000
  659MOL0     H88965   2.126   8.018   1.513  0.0479  3.3824 -0.8332
  660MOL0     O88966   2.743   6.499  10.016 -0.5893  0.8004  0.4987
  660MOL0     C88967   2.835   6.529  10.098 -0.9148  0.3173 -0.8472
  660MOL0     O88968   2.827   6.529  10.232  0.7981 -0.4609 -0.4237
  660MOL0     C88969   2.708   6.506  10.292  0.3442 -0.2584  0.7485
  660MOL0     C88970   2.593   6.585  10.271  0.3105  0.6322 -0.3631
  660MOL0     C88971   2.467   6.566  10.342 -1.3433  0.9334  0.7984
  660MOL0     C88972   2.467   6.459  10.432 -0.2605  0.5628  0.6372
  660MOL0     O88973   2.355   6.434  10.507  0.0002  0.2934  0.2485
  660MOL0     C88974   2.227   6.412  10.440 -0.0772  0.1002  0.0156
  660MOL0     C88975   2.139   6.310  10.516 -0.6367 -0.0867 -0.4843
  660MOL0     C88976   2.156   6.317  10.668  1.1296 -0.1521 -0.0549
  660MOL0     C88977   2.054   6.408  10.738  0.3366  0.5932  0.4598
  660MOL0     C88978   2.066   6.408  10.889  0.2464  0.0762 -0.9714
  660MOL0     C88979   1.955   6.487  10.959  0.1958  0.3784 -0.2989
  660MOL0     C88980   1.974   6.475  11.111 -0.1520  0.5116  0.3160
  660MOL0     C88981   1.899   6.580  11.193  0.6243 -0.2007  0.1163
  660MOL0     N88982   1.931   6.578  11.338  0.2811 -0.1224  0.2199
  660MOL0     C88983   2.066   6.611  11.371  0.7557 -1.0351  0.5935
  660MOL0     C88984   2.065   6.587  11.504 -1.5363  0.1758 -0.1157
  660MOL0     C88985   2.186   6.567  11.603 -0.3076 -0.0254 -0.6004
  660MOL0     C88986   2.312   6.592  11.531  0.7470 -0.1274  1.2508
  660MOL0     C88987   2.436   6.554  11.605 -1.2063 -0.6466  0.2701
  660MOL0     C88988   2.559   6.602  11.535 -1.1126  0.4918  0.9208
  660MOL0     O88989   2.675   6.561  11.609 -0.6006 -0.5603  0.0077
  660MOL0     C88990   2.791   6.573  11.541  0.7728  1.1456 -0.1497
  660MOL0     C88991   2.804   6.643  11.424 -0.0977  0.2427 -0.1889
  660MOL0     C88992   2.929   6.662  11.364  0.6005  0.2595 -0.2480
  660MOL0     C88993   2.928   6.744  11.232  0.0072 -0.2849 -0.5991
  660MOL0     C88994   3.041   6.593  11.412 -0.5380  0.1420  1.2756
  660MOL0     C88995   3.171   6.584  11.347 -0.0880  0.1394  0.4636
  660MOL0     O88996   3.251   6.474  11.381  0.2466  0.1026  0.4924
  660MOL0     C88997   3.372   6.463  11.317  0.1527 -0.3022  0.1517
  660MOL0     C88998   3.479   6.552  11.304 -0.5552  0.8133 -0.4472
  660MOL0     C88999   3.609   6.514  11.252  1.3092  0.2935  0.4141
  660MOL0     C89000   3.616   6.381  11.196 -0.1788 -1.0423  0.1139
  660MOL0     O89001   3.725   6.331  11.141 -0.1521  0.3638 -0.2506
  660MOL0     C89002   3.850   6.405  11.130  0.9492  0.0607  0.5664
  660MOL0     C89003   3.962   6.331  11.061  0.6243 -0.1384  0.9332
  660MOL0     C89004   4.029   6.238  11.167 -0.4662 -1.1517  0.2734
  660MOL0     C89005   4.160   6.185  11.113  0.0260 -0.5334  0.1359
  660MOL0     C89006   4.258   6.156  11.224 -0.4252 -0.0738 -0.1844
  660MOL0     C89007   4.216   6.035  11.310 -0.5568  0.7870  0.2297
  660MOL0     C89008   4.343   5.942  11.341 -0.1503 -0.1517 -0.3213
  660MOL0     C89009   4.375   5.954  11.493  0.1283  0.3132 -0.0556
  660MOL0    Cl89010   4.544   5.885  11.514  0.5055  0.1331  0.0458
  660MOL0     C89011   3.509   6.290  11.205  1.0859  0.3040  0.7808
  660MOL0     C89012   3.393   6.333  11.269  0.7532  0.4209  0.4326
  660MOL0     O89013   3.204   6.676  11.263 -0.1077  0.1244  1.0121
  660MOL0     C89014   3.034   6.530  11.540  0.3358 -0.3705  1.0780
  660MOL0     C89015   2.909   6.509  11.593  0.2597 -0.7972 -1.4327
  660MOL0     N89016   1.931   6.545  11.546  1.1925 -0.1435 -0.1271
  660MOL0     N89017   1.858   6.534  11.441 -0.1375 -0.2103 -0.2805
  660MOL0     C89018   2.580   6.379  10.451 -0.1404  0.4980 -0.7423
  660MOL0     C89019   2.706   6.399  10.390 -0.3647 -0.4113 -0.2028
  660MOL0     C89020   2.966   6.566  10.043  0.1429 -0.5018 -0.1226
  660MOL0     C89021   3.076   6.604  10.129 -0.4877 -0.5988  0.2510
  660MOL0     C89022   3.198   6.629  10.077 -0.2534 -0.2660  0.1963
  660MOL0     C89023   3.233   6.626   9.943 -0.5207 -0.4426 -1.2039
  660MOL0     O89024   3.369   6.657   9.918  0.0340 -0.0389  0.9755
  660MOL0     C89025   3.432   6.584   9.814  0.0839 -0.2445  0.3500
  660MOL0     C89026   3.583   6.606   9.819  0.1609 -0.3252  0.6433
  660MOL0     C89027   3.624   6.738   9.758  0.7157  0.8141 -0.6076
  660MOL0     C89028   3.769   6.784   9.779  0.2974 -0.5254  0.2750
  660MOL0     C89029   3.868   6.683   9.733  0.4128 -0.0298 -0.4061
  660MOL0     C89030   3.930   6.585   9.708 -0.7727 -0.3350 -1.1329
  660MOL0     C89031   3.132   6.588   9.853 -0.0228  0.3935  0.0079
  660MOL0     C89032   3.001   6.556   9.902  0.0323  0.0759 -0.2203
  660MOL0     H89033   2.610   6.666  10.201 -0.9110  1.9413  0.7926
  660MOL0     H89034   2.385   6.623  10.300  0.4425  4.9897  2.2952
  660MOL0     H89035   2.175   6.508  10.439 -0.4912 -0.1031 -1.6783
  660MOL0     H89036   2.239   6.377  10.337 -0.6436  0.9395 -0.3552
  660MOL0     H89037   2.044   6.300  10.464  0.5463 -2.0839 -2.4358
  660MOL0     H89038   2.182   6.213  10.488 -0.9170  0.0862 -1.5852
  660MOL0     H89039   2.147   6.219  10.715  1.3153 -0.1432  0.0020
  660MOL0     H89040   2.257   6.345  10.700  0.7967 -1.0956  1.9598
  660MOL0     H89041   2.066   6.511  10.701 -0.5402  0.6744  0.3922
  660MOL0     H89042   1.957   6.366  10.713  0.3631 -0.1546  1.5361
  660MOL0     H89043   2.069   6.303  10.921  3.0511 -0.8849 -3.8716
  660MOL0     H89044   2.160   6.457  10.913  0.5942 -0.7538 -0.5854
  660MOL0     H89045   1.947   6.592  10.930  2.1608  0.5332 -0.3909
  660MOL0     H89046   1.853   6.456  10.935 -0.5573  2.8923 -0.6872
  660MOL0     H89047   1.956   6.371  11.140  0.2142 -0.0098 -1.2066
  660MOL0     H89048   2.078   6.496  11.136  0.4453 -0.8479 -0.8256
  660MOL0     H89049   1.792   6.578  11.172  0.6801  1.3870 -0.3905
  660MOL0     H89050   1.917   6.685  11.171  1.1603 -0.0215  1.2983
  660MOL0     H89051   2.148   6.637  11.305 -1.7146  4.3916 -0.9205
  660MOL0     H89052   2.179   6.632  11.690 -3.5124 -0.5264 -0.3453
  660MOL0     H89053   2.199   6.461  11.627  1.9798  0.4868  0.6902
  660MOL0     H89054   2.330   6.696  11.503 -2.1618 -0.2803 -1.8957
  660MOL0     H89055   2.309   6.529  11.441  2.0078  0.5728  0.6847
  660MOL0     H89056   2.456   6.447  11.614  1.0138 -0.2663  0.2768
  660MOL0     H89057   2.419   6.601  11.702 -5.2121  0.8547 -0.9166
  660MOL0     H89058   2.565   6.710  11.516  0.6247 -0.0032 -1.9751
  660MOL0     H89059   2.553   6.556  11.436  0.2728  1.0170  0.5710
  660MOL0     H89060   2.719   6.681  11.368 -0.3492  0.8060  0.5650
  660MOL0     H89061   2.916   6.686  11.140  0.3601 -1.5598  0.1347
  660MOL0     H89062   2.854   6.824  11.230  1.7264  1.3983  0.2373
  660MOL0     H89063   3.016   6.808  11.225 -0.5409  0.3727 -1.7025
  660MOL0     H89064   3.477   6.655  11.338 -1.7146  0.9153 -0.7811
  660MOL0     H89065   3.693   6.582  11.245  2.7870 -1.5049 -0.4904
  660MOL0     H89066   3.837   6.503  11.084 -1.2182  1.1266  3.1853
  660MOL0     H89067   3.876   6.417  11.236  2.5649 -0.1319  0.2217
  660MOL0     H89068   3.919   6.282  10.973  1.2390  2.2708 -0.8375
  660MOL0     H89069   4.031   6.408  11.025  0.0157  0.6294  1.3759
  660MOL0     H89070   3.960   6.154  11.184 -1.3550 -1.0851 -2.4386
  660MOL0     H89071   4.061   6.312  11.241 -0.8283 -0.1901 -0.5112
  660MOL0     H89072   4.141   6.090  11.062 -0.3501 -1.1471  1.3700
  660MOL0     H89073   4.193   6.254  11.035 -2.9122  1.0432  0.1377
  660MOL0     H89074   4.283   6.241  11.288 -2.0148 -1.0539  1.8768
  660MOL0     H89075   4.345   6.115  11.173 -1.2435  0.9377 -2.5153
  660MOL0     H89076   4.166   6.069  11.401  2.2557  1.7694  1.5267
  660MOL0     H89077   4.135   5.980  11.262 -1.1272  2.2601 -0.5392
  660MOL0     H89078   4.433   5.976  11.290 -1.4640  0.4755 -2.3610
  660MOL0     H89079   4.325   5.839  11.308  1.0224 -0.4573 -0.0368
  660MOL0     H89080   4.297   5.908  11.555 -0.1869  0.9001 -0.0096
  660MOL0     H89081   4.382   6.061  11.512  1.5267  0.6586 -2.1514
  660MOL0     H89082   3.516   6.191  11.162 -2.8618  0.1566  0.1641
  660MOL0     H89083   3.311   6.264  11.287 -0.7288  1.6983 -1.1175
  660MOL0     H89084   3.121   6.477  11.577  0.1290 -0.3493  1.6012
  660MOL0     H89085   2.911   6.451  11.685 -2.4718 -0.8634 -1.3121
  660MOL0     H89086   2.583   6.305  10.530  1.4426 -0.1686 -1.3830
  660MOL0     H89087   2.788   6.330  10.408 -0.6146 -0.5296  0.4972
  660MOL0     H89088   3.058   6.624  10.235 -0.5511  0.9212 -0.0234
  660MOL0     H89089   3.267   6.671  10.149  0.9725 -4.6266  1.8805
  660MOL0     H89090   3.406   6.478   9.819 -0.2761 -0.1421  0.7510
  660MOL0     H89091   3.401   6.630   9.720  1.5155 -0.0764 -0.0651
  660MOL0     H89092   3.628   6.528   9.757 -2.7729 -2.9757  1.5632
  660MOL0     H89093   3.619   6.598   9.922  0.9954  1.1401  0.4918
  660MOL0     H89094   3.550   6.814   9.787 -1.2441 -0.9482 -0.7517
  660MOL0     H89095   3.607   6.720   9.652  2.0007  0.6874 -0.8115
  660MOL0     H89096   3.785   6.807   9.885  1.1786 -3.5877  0.8950
  660MOL0     H89097   3.791   6.875   9.722 -0.3390 -0.9321 -0.6369
  660MOL0     H89098   3.973   6.487   9.698  0.2534 -0.0859  0.5189
  660MOL0     H89099   3.157   6.560   9.751  1.2650 -2.9409  1.1119
  660MOL0     H89100   2.929   6.528   9.826  0.3283  2.9953 -1.7177
  661MOL0     O89101   5.168   2.825   3.292 -0.0955 -0.5847 -0.1396
  661MOL0     C89102   5.183   2.948   3.311  0.0697  1.0049  0.0626
  661MOL0     O89103   5.080   3.038   3.305 -0.4572  0.5021 -0.3599
  661MOL0     C89104   4.950   2.997   3.279 -0.7027 -0.2997 -0.2546
  661MOL0     C89105   4.865   2.963   3.384 -0.8175  0.0599 -0.9220
  661MOL0     C89106   4.740   2.899   3.358 -0.2223 -0.3713  0.0224
  661MOL0     C89107   4.688   2.886   3.228 -1.0774 -0.5497 -0.4365
  661MOL0     O89108   4.554   2.855   3.208 -0.4142  0.1538  0.4700
  661MOL0     C89109   4.515   2.821   3.077  0.0035  0.1897  0.5196
  661MOL0     C89110   4.369   2.817   3.072  0.8938  0.0865 -0.1792
  661MOL0     C89111   4.304   2.740   3.180  0.3197  0.6579 -0.0435
  661MOL0     C89112   4.160   2.687   3.137 -0.9325 -0.2387 -0.3161
  661MOL0     C89113   4.105   2.577   3.233 -0.5460 -0.0456 -0.0790
  661MOL0     C89114   3.987   2.499   3.174 -0.7049 -0.1309  0.5367
  661MOL0     C89115   3.923   2.417   3.287  0.5350 -0.3676  0.1286
  661MOL0     C89116   3.870   2.500   3.410 -0.0759  0.5024 -1.1206
  661MOL0     N89117   3.790   2.406   3.488  0.5739  0.2123 -0.1018
  661MOL0     C89118   3.655   2.382   3.465  0.2307 -0.2499 -0.2497
  661MOL0     C89119   3.637   2.276   3.558 -0.1444  0.1581  1.1167
  661MOL0     C89120   3.510   2.216   3.598  0.0711 -0.1838  0.2757
  661MOL0     C89121   3.477   2.237   3.747 -0.8310 -1.5893  0.1723
  661MOL0     C89122   3.320   2.215   3.757  0.3900 -0.2690 -0.0813
  661MOL0     C89123   3.273   2.209   3.903  0.1037  0.4742  0.0750
  661MOL0     O89124   3.317   2.329   3.960 -0.7500  0.5301 -0.0186
  661MOL0     C89125   3.284   2.350   4.091 -0.3630 -0.6804  0.0116
  661MOL0     C89126   3.305   2.263   4.199  0.4212  1.3030  0.2917
  661MOL0     C89127   3.286   2.309   4.332 -0.0265 -0.0602  0.5011
  661MOL0     C89128   3.341   2.222   4.440  0.2605  0.6461 -0.3587
  661MOL0     C89129   3.221   2.432   4.357 -0.4302 -0.1819 -0.4168
  661MOL0     C89130   3.184   2.480   4.498 -0.0064 -0.4048  0.3605
  661MOL0     O89131   3.204   2.616   4.515 -0.0090  0.5064 -1.0471
  661MOL0     C89132   3.142   2.680   4.614 -0.7822 -0.1653 -0.2606
  661MOL0     C89133   3.231   2.732   4.715 -0.1939 -0.9009  0.4667
  661MOL0     C89134   3.171   2.802   4.819 -0.4989  1.1496  0.3997
  661MOL0     C89135   3.038   2.826   4.832  0.1522  0.2870  0.3229
  661MOL0     O89136   2.970   2.892   4.938  0.4321 -0.3414 -0.3060
  661MOL0     C89137   3.056   2.961   5.029 -0.0869  0.2112  0.5137
  661MOL0     C89138   2.956   3.034   5.124 -0.2813  0.8946  0.2107
  661MOL0     C89139   2.890   2.925   5.213 -0.2608  0.2206 -0.2186
  661MOL0     C89140   2.795   2.992   5.323  0.3897  1.0032  0.0892
  661MOL0     C89141   2.755   2.887   5.431 -0.6647 -0.5170  0.1090
  661MOL0     C89142   2.637   2.924   5.513 -0.8120 -0.0072  0.4783
  661MOL0     C89143   2.604   2.800   5.599 -0.2482  0.4234 -0.3622
  661MOL0     C89144   2.456   2.802   5.656  0.5626  0.9601  0.4757
  661MOL0    Cl89145   2.447   2.907   5.801  0.0084  0.2943  0.1865
  661MOL0     C89146   2.950   2.783   4.723 -0.4508  0.0279 -0.7645
  661MOL0     C89147   3.011   2.708   4.620  0.5997 -0.0805 -0.3054
  661MOL0     O89148   3.138   2.405   4.582  0.3143  0.1551  0.7193
  661MOL0     C89149   3.193   2.516   4.256  0.8971 -0.0063  0.6668
  661MOL0     C89150   3.231   2.474   4.122  0.4138 -0.0907 -0.3571
  661MOL0     N89151   3.759   2.239   3.620 -0.6494  0.0995  0.6016
  661MOL0     N89152   3.849   2.312   3.573  0.8761  0.4456  0.0419
  661MOL0     C89153   4.780   2.919   3.127  0.9129 -0.6242  0.7540
  661MOL0     C89154   4.904   2.978   3.150  0.9742  0.0878 -0.2671
  661MOL0     C89155   5.316   2.988   3.356  0.1792 -0.1407 -0.4637
  661MOL0     C89156   5.330   3.126   3.395 -0.0466  0.8447  0.7138
  661MOL0     C89157   5.457   3.183   3.414  0.6150  0.5234 -0.1616
  661MOL0     C89158   5.574   3.099   3.394  0.2686 -0.4305  0.4374
  661MOL0     O89159   5.706   3.156   3.395  0.1995 -0.5459  0.3956
  661MOL0     C89160   5.734   3.266   3.477  0.0474 -0.1860 -1.0206
  661MOL0     C89161   5.878   3.266   3.521 -0.4204  0.2465 -0.5288
  661MOL0     C89162   5.965   3.329   3.413  0.2620 -0.3316  0.8323
  661MOL0     C89163   6.101   3.260   3.387  0.1670  0.5116  0.3952
  661MOL0     C89164   6.160   3.170   3.484  0.9361 -0.4223  0.5243
  661MOL0     C89165   6.223   3.120   3.573 -0.3267  0.2387 -0.1012
  661MOL0     C89166   5.550   2.963   3.360 -0.1376  0.6260 -0.4198
  661MOL0     C89167   5.431   2.904   3.338  0.0839 -0.0229 -0.2732
  661MOL0     H89168   4.906   2.966   3.484 -1.3708 -1.2588 -0.6227
  661MOL0     H89169   4.674   2.878   3.442  0.4843 -0.5879  0.5278
  661MOL0     H89170   4.554   2.890   3.002  2.9140 -0.9555  0.8576
  661MOL0     H89171   4.557   2.727   3.040 -2.8420 -0.0129 -2.6984
  661MOL0     H89172   4.331   2.920   3.068 -0.1498 -0.1566  1.8492
  661MOL0     H89173   4.338   2.767   2.980 -1.9264 -1.3077  1.3917
  661MOL0     H89174   4.355   2.647   3.205  0.4448  0.2906 -1.5511
  661MOL0     H89175   4.303   2.802   3.270  1.0352  0.4201  0.1296
  661MOL0     H89176   4.092   2.772   3.126  0.5413  0.7390 -2.5517
  661MOL0     H89177   4.163   2.639   3.039 -2.1567 -3.6678  1.1440
  661MOL0     H89178   4.186   2.517   3.275  0.5618  1.0904 -0.5042
  661MOL0     H89179   4.074   2.638   3.319  0.2205  1.1804 -0.6453
  661MOL0     H89180   3.902   2.562   3.145 -1.6202 -0.8851  1.4844
  661MOL0     H89181   4.016   2.413   3.113  1.1617  0.5895  0.3633
  661MOL0     H89182   3.833   2.368   3.250 -0.4896  2.4684 -1.4531
  661MOL0     H89183   3.993   2.336   3.310 -1.1993 -2.0605 -0.3174
  661MOL0     H89184   3.803   2.578   3.375  1.4146  2.4633  0.1636
  661MOL0     H89185   3.946   2.546   3.475 -1.1958 -0.2031  0.7759
  661MOL0     H89186   3.577   2.430   3.407 -0.3870  0.0930  0.8267
  661MOL0     H89187   3.438   2.266   3.532  0.7056  0.5736  0.1448
  661MOL0     H89188   3.502   2.113   3.563 -2.3497  1.0107 -3.2765
  661MOL0     H89189   3.506   2.342   3.764 -0.0449 -1.4947 -1.5558
  661MOL0     H89190   3.534   2.168   3.810  1.7987  0.1841 -0.0732
  661MOL0     H89191   3.284   2.122   3.712 -0.2687 -0.2604  0.4030
  661MOL0     H89192   3.281   2.302   3.702  1.0781 -0.4022 -0.7917
  661MOL0     H89193   3.316   2.117   3.945  0.0142 -2.4663 -5.3342
  661MOL0     H89194   3.164   2.199   3.905 -0.0161  1.0225  3.5441
  661MOL0     H89195   3.334   2.160   4.180 -1.9610  0.5071  0.6367
  661MOL0     H89196   3.385   2.294   4.510 -0.4313 -1.1289  2.0467
  661MOL0     H89197   3.260   2.167   4.488 -0.5465  2.1304  0.0468
  661MOL0     H89198   3.414   2.148   4.406  0.3035  0.2261  0.6174
  661MOL0     H89199   3.339   2.730   4.702  0.2852  0.4154  3.4541
  661MOL0     H89200   3.256   2.825   4.883 -0.3686  0.1057  0.6207
  661MOL0     H89201   3.136   2.903   5.077 -0.2278 -0.1359  0.3303
  661MOL0     H89202   3.103   3.041   4.970  1.2386  0.9049  2.3883
  661MOL0     H89203   3.009   3.103   5.190 -3.4227  1.4928  2.3561
  661MOL0     H89204   2.882   3.091   5.067  0.8063 -0.7468 -3.0462
  661MOL0     H89205   2.974   2.873   5.258 -0.0009  1.9558  1.4415
  661MOL0     H89206   2.819   2.869   5.151 -0.7353  1.0605 -0.4638
  661MOL0     H89207   2.837   3.079   5.374 -2.2326  1.0555  2.4687
  661MOL0     H89208   2.706   3.029   5.271 -1.0555  0.9752  2.3674
  661MOL0     H89209   2.836   2.867   5.502  1.4874  3.3965 -0.9217
  661MOL0     H89210   2.738   2.793   5.378  0.4660 -0.5912 -0.1446
  661MOL0     H89211   2.652   3.012   5.576 -3.2110  2.0261 -1.6207
  661MOL0     H89212   2.559   2.943   5.439  1.8658  1.3146 -2.2517
  661MOL0     H89213   2.675   2.778   5.679 -1.4853 -1.2149  0.3497
  661MOL0     H89214   2.588   2.724   5.521  0.8263 -0.7792  0.5533
  661MOL0     H89215   2.415   2.701   5.665 -4.4825  2.8289  2.5920
  661MOL0     H89216   2.386   2.846   5.584  1.9900  2.4173 -0.0735
  661MOL0     H89217   2.843   2.793   4.716 -0.9047 -3.0309  0.5080
  661MOL0     H89218   2.951   2.661   4.542 -0.4645 -1.7059  1.4080
  661MOL0     H89219   3.136   2.608   4.258  1.4246  0.3777 -0.8266
  661MOL0     H89220   3.209   2.524   4.028  1.7681  1.2433 -0.0160
  661MOL0     H89221   4.750   2.910   3.023 -0.1082  0.4931  0.9342
  661MOL0     H89222   4.979   2.990   3.073 -0.2645  1.3908 -1.3260
  661MOL0     H89223   5.243   3.184   3.423  2.6003  5.4081  0.3887
  661MOL0     H89224   5.471   3.288   3.437  0.2201  1.5233 -3.7817
  661MOL0     H89225   5.706   3.361   3.430  2.3241 -0.0680 -2.2797
  661MOL0     H89226   5.677   3.262   3.571 -0.3936  2.2685 -1.1115
  661MOL0     H89227   5.911   3.162   3.531  0.8806  0.4728 -2.0892
  661MOL0     H89228   5.885   3.311   3.621  2.0140 -1.7527  0.3243
  661MOL0     H89229   5.986   3.435   3.430 -0.5698  0.2568 -1.4031
  661MOL0     H89230   5.912   3.330   3.317  0.9198  1.7381  0.4231
  661MOL0     H89231   6.167   3.345   3.369 -1.4738  1.2703 -2.6443
  661MOL0     H89232   6.112   3.209   3.291  2.6867  0.3480  0.7015
  661MOL0     H89233   6.284   3.060   3.636 -0.4585 -0.4749 -0.6371
  661MOL0     H89234   5.637   2.898   3.346 -0.1125  0.4254  0.5809
  661MOL0     H89235   5.406   2.806   3.296 -3.6356  0.4032  0.6043
  662MOL0     O89236  10.319  10.457   9.376  0.6503  0.2761 -0.4911
  662MOL0     C89237  10.372  10.345   9.383 -0.0026  0.4172 -0.4265
  662MOL0     O89238  10.319  10.225   9.426  0.6158 -0.0956 -0.0112
  662MOL0     C89239  10.200  10.223   9.489  0.4103  0.0159 -0.6025
  662MOL0     C89240  10.201  10.138   9.602  0.4018 -0.3916  0.3159
  662MOL0     C89241  10.073  10.099   9.656  0.0874 -0.6432 -0.6344
  662MOL0     C89242   9.956  10.151   9.609 -0.5110 -0.1852 -0.2550
  662MOL0     O89243   9.851  10.100   9.683 -0.1876 -0.6379 -0.5915
  662MOL0     C89244   9.721  10.150   9.637 -0.9405 -0.4753 -0.9905
  662MOL0     C89245   9.611  10.049   9.682  0.9785 -0.3762  0.0272
  662MOL0     C89246   9.479  10.086   9.605 -0.0965  0.9541 -0.3338
  662MOL0     C89247   9.370   9.982   9.636 -0.8479  0.0133  0.5618
  662MOL0     C89248   9.227  10.027   9.592  0.3234 -0.5946  0.6696
  662MOL0     C89249   9.225  10.086   9.450 -0.7036 -0.3101  0.9400
  662MOL0     C89250   9.083  10.115   9.404 -0.3324  0.6545 -0.7435
  662MOL0     C89251   9.042  10.255   9.442 -0.3727  0.2110  0.7233
  662MOL0     N89252   8.936  10.281   9.347  0.3874 -0.4765 -0.1175
  662MOL0     C89253   8.803  10.255   9.367  0.0007  0.1772  0.9813
  662MOL0     C89254   8.746  10.270   9.242 -0.5569 -0.0576 -0.3971
  662MOL0     C89255   8.596  10.242   9.213  0.3043 -0.1346 -0.2175
  662MOL0     C89256   8.506  10.366   9.246 -0.5336  0.4508 -0.1057
  662MOL0     C89257   8.532  10.492   9.157  0.4572  0.1060 -1.3164
  662MOL0     C89258   8.462  10.607   9.232 -1.0697  0.0123  0.6645
  662MOL0     O89259   8.327  10.607   9.168 -0.0705 -0.1452  0.5192
  662MOL0     C89260   8.226  10.629   9.252 -0.2878  0.7265 -0.1562
  662MOL0     C89261   8.192  10.764   9.252 -0.0867 -0.0531 -0.3861
  662MOL0     C89262   8.094  10.806   9.343 -0.6175 -0.5589  0.9880
  662MOL0     C89263   8.036  10.948   9.329 -0.8813  0.5975  0.9405
  662MOL0     C89264   8.047  10.717   9.438 -0.0868  0.2681 -0.9663
  662MOL0     C89265   7.958  10.755   9.549 -0.1134 -0.3896  0.2029
  662MOL0     O89266   7.854  10.830   9.500 -0.2813 -0.5312 -0.4556
  662MOL0     C89267   7.768  10.890   9.592  0.5737  0.8396 -0.3413
  662MOL0     C89268   7.684  10.807   9.667  0.0603  0.4556  1.0662
  662MOL0     C89269   7.591  10.856   9.758  0.5826 -0.7456 -0.8984
  662MOL0     C89270   7.564  10.992   9.759 -0.6842  0.2968  0.0914
  662MOL0     O89271   7.456  11.017   9.838 -0.6689  0.2278 -0.6205
  662MOL0     C89272   7.411  11.151   9.848 -0.8954  0.4560 -0.5281
  662MOL0     C89273   7.284  11.150   9.921  0.2579 -0.3361  0.1793
  662MOL0     C89274   7.305  11.090  10.073  0.6753 -0.1085  0.6565
  662MOL0     C89275   7.167  11.080  10.148  0.1674  0.2289  0.2073
  662MOL0     C89276   7.170  10.984  10.272  0.1529  0.2665  0.4116
  662MOL0     C89277   7.044  11.004  10.344  0.3741  0.7618  0.2354
  662MOL0     C89278   7.026  10.888  10.452 -0.5715 -0.2604 -0.6729
  662MOL0     C89279   6.895  10.898  10.538  0.3628 -0.0992  0.8443
  662MOL0    Cl89280   6.751  10.915  10.433  0.1734  0.1607 -0.3820
  662MOL0     C89281   7.646  11.078   9.682 -0.6198 -0.6967  0.9238
  662MOL0     C89282   7.749  11.026   9.601  0.5218 -0.1787  0.3515
  662MOL0     O89283   7.979  10.718   9.666 -0.5453  0.3709  0.2975
  662MOL0     C89284   8.090  10.582   9.437  0.0802  0.3671  0.1528
  662MOL0     C89285   8.185  10.537   9.348 -0.2140 -0.5579 -0.2748
  662MOL0     N89286   8.842  10.314   9.155 -0.1152  0.3028  0.4277
  662MOL0     N89287   8.953  10.314   9.215  0.6698 -0.5192  0.1709
  662MOL0     C89288   9.963  10.232   9.492 -1.0199  0.5865 -0.3801
  662MOL0     C89289  10.081  10.261   9.428  0.8942 -0.0810 -0.8372
  662MOL0     C89290  10.518  10.338   9.349 -0.5000 -0.3096  0.3400
  662MOL0     C89291  10.604  10.236   9.398  0.3700 -0.1716 -0.4325
  662MOL0     C89292  10.736  10.239   9.371 -0.1773 -0.0757 -1.2250
  662MOL0     C89293  10.791  10.350   9.297  0.1725 -0.3131  0.5063
  662MOL0     O89294  10.925  10.343   9.278 -0.1707  0.1534 -0.0010
  662MOL0     C89295  10.990  10.445   9.198  0.0627 -0.2847 -0.2475
  662MOL0     C89296  11.132  10.422   9.154  0.0060 -0.1553 -0.0101
  662MOL0     C89297  11.178  10.272   9.141  0.3146 -1.0272  0.4318
  662MOL0     C89298  11.079  10.174   9.066  0.6101 -0.5422 -0.3294
  662MOL0     C89299  11.041  10.226   8.931 -0.1963 -0.1822 -0.3265
  662MOL0     C89300  11.025  10.280   8.824  0.0817  0.0585 -0.3158
  662MOL0     C89301  10.713  10.452   9.253  0.3587 -1.0714 -0.3516
  662MOL0     C89302  10.572  10.445   9.269  0.6525  0.0216 -0.3422
  662MOL0     H89303  10.294  10.101   9.644  0.9234  2.6328  2.1409
  662MOL0     H89304  10.069  10.027   9.737 -1.9469  0.0512 -0.0483
  662MOL0     H89305   9.702  10.248   9.682  1.0226  0.1526 -1.4231
  662MOL0     H89306   9.716  10.167   9.529 -0.5255 -0.1275 -0.9549
  662MOL0     H89307   9.640   9.949   9.649  0.8028  0.6662 -3.9276
  662MOL0     H89308   9.593  10.058   9.789 -1.4554  2.6969 -0.4752
  662MOL0     H89309   9.444  10.183   9.641  0.7758  1.3571 -0.5488
  662MOL0     H89310   9.494  10.097   9.497 -1.2286  1.0930 -0.4883
  662MOL0     H89311   9.386   9.884   9.590 -0.0583  0.1511  0.5244
  662MOL0     H89312   9.364   9.957   9.742 -2.6983 -5.2365 -0.4895
  662MOL0     H89313   9.165   9.937   9.593  1.9330 -1.7700  0.4056
  662MOL0     H89314   9.193  10.104   9.661  1.3130 -1.7846  2.5725
  662MOL0     H89315   9.301  10.157   9.418  2.0912 -3.3615  0.2733
  662MOL0     H89316   9.260  10.004   9.386  2.7700  0.3213  1.8558
  662MOL0     H89317   9.084  10.110   9.294  0.3433 -1.6357 -0.6969
  662MOL0     H89318   9.014  10.038   9.440 -1.6697  2.1507  0.0116
  662MOL0     H89319   9.118  10.324   9.405 -0.3184 -0.0392  0.3657
  662MOL0     H89320   9.017  10.281   9.546 -3.2207  1.6048 -0.1986
  662MOL0     H89321   8.742  10.227   9.452 -2.3352 -0.1364 -0.7095
  662MOL0     H89322   8.585  10.199   9.113  1.6740 -3.6402  0.9791
  662MOL0     H89323   8.566  10.163   9.283  2.7096 -1.0076 -0.0813
  662MOL0     H89324   8.531  10.378   9.352  3.0793 -1.1665 -0.6200
  662MOL0     H89325   8.405  10.328   9.231  0.3073 -2.5130  1.0547
  662MOL0     H89326   8.499  10.476   9.054 -0.6530  0.1829 -0.9888
  662MOL0     H89327   8.640  10.510   9.155  0.5195 -0.2944 -1.4858
  662MOL0     H89328   8.515  10.697   9.202  0.5104 -0.8394  0.8002
  662MOL0     H89329   8.450  10.597   9.340 -0.8669 -1.0348  0.6018
  662MOL0     H89330   8.237  10.834   9.182 -0.1676  1.4151  0.9878
  662MOL0     H89331   7.944  10.934   9.272  0.8216  0.1338 -1.8558
  662MOL0     H89332   8.017  10.987   9.430 -6.3929 -2.1946  1.3844
  662MOL0     H89333   8.113  11.006   9.277 -0.4318  0.9410  1.9451
  662MOL0     H89334   7.676  10.700   9.657  1.6287  0.3920  0.2508
  662MOL0     H89335   7.523  10.792   9.813  1.9427 -0.8764  0.7129
  662MOL0     H89336   7.483  11.217   9.897 -0.7287 -0.7243  0.9045
  662MOL0     H89337   7.385  11.188   9.749  0.7273 -1.2574 -1.6660
  662MOL0     H89338   7.230  11.245   9.931 -0.4352 -0.6095 -0.8519
  662MOL0     H89339   7.225  11.087   9.854 -1.9156  0.7738  0.9232
  662MOL0     H89340   7.374  11.156  10.126 -0.4293  1.0643  0.7009
  662MOL0     H89341   7.343  10.988  10.071 -2.9558 -1.6198  0.6128
  662MOL0     H89342   7.133  11.180  10.175 -1.8078  0.3059 -2.2291
  662MOL0     H89343   7.096  11.043  10.073  0.1812  0.4511  0.0819
  662MOL0     H89344   7.260  11.011  10.328  1.6866 -1.1655 -1.2212
  662MOL0     H89345   7.184  10.880  10.240  0.7798  0.7817 -1.0751
  662MOL0     H89346   7.046  11.104  10.390 -1.0022  0.3596  1.2228
  662MOL0     H89347   6.963  11.003  10.271  1.2342  0.2013 -0.7329
  662MOL0     H89348   7.115  10.881  10.515 -2.1032 -0.3089  1.5838
  662MOL0     H89349   7.022  10.792  10.400 -0.5102  0.0543 -1.2659
  662MOL0     H89350   6.904  10.979  10.612 -0.5520  0.4856  0.3393
  662MOL0     H89351   6.889  10.804  10.593 -2.8551 -0.9005 -0.6674
  662MOL0     H89352   7.631  11.185   9.695  0.3975 -0.0995 -2.0829
  662MOL0     H89353   7.814  11.090   9.543 -1.8903  3.3587  1.1932
  662MOL0     H89354   8.059  10.504   9.506  2.1825 -1.9250 -1.3483
  662MOL0     H89355   8.230  10.439   9.357 -0.9257 -0.8078  0.7107
  662MOL0     H89356   9.878  10.270   9.436  0.4013  2.6265 -1.3184
  662MOL0     H89357  10.081  10.327   9.342 -1.6688  2.1674  0.7341
  662MOL0     H89358  10.570  10.145   9.448 -0.2184  0.6720  0.7533
  662MOL0     H89359  10.809  10.170   9.414  1.3622  1.6394 -0.9503
  662MOL0     H89360  10.943  10.463   9.101  0.0352  2.4717  0.1967
  662MOL0     H89361  10.985  10.539   9.253  3.7730 -0.3128  0.3578
  662MOL0     H89362  11.202  10.465   9.227 -0.0759 -1.6315  0.9916
  662MOL0     H89363  11.149  10.466   9.055  0.6494 -0.9201 -0.2568
  662MOL0     H89364  11.206  10.241   9.242 -0.8753 -3.7930 -0.0013
  662MOL0     H89365  11.271  10.276   9.084  1.8780  2.3832  2.8750
  662MOL0     H89366  10.981  10.153   9.110 -0.0627 -1.9907 -2.3890
  662MOL0     H89367  11.136  10.082   9.050 -0.0770 -1.1969  0.8039
  662MOL0     H89368  11.004  10.314   8.725 -1.9119 -0.6304 -0.1658
  662MOL0     H89369  10.750  10.537   9.196 -2.4426  0.4236 -0.1112
  662MOL0     H89370  10.502  10.515   9.225  0.5917  0.1562 -0.0361
  663MOL0     O89371   4.601   8.893   1.088  0.4299 -0.5903 -0.1713
  663MOL0     C89372   4.624   8.819   0.990 -0.1550  0.2668  0.0112
  663MOL0     O89373   4.541   8.798   0.886  0.2577  0.2063 -0.2410
  663MOL0     C89374   4.411   8.851   0.891  0.2023  0.1117 -0.6058
  663MOL0     C89375   4.310   8.768   0.956 -0.4803  0.1591  0.1063
  663MOL0     C89376   4.171   8.805   0.962 -0.2777 -1.3851  0.3187
  663MOL0     C89377   4.141   8.925   0.890 -0.3747 -0.6206 -0.7038
  663MOL0     O89378   4.014   8.976   0.877 -0.5116  0.0400  0.4333
  663MOL0     C89379   3.898   8.906   0.915  0.6867  0.8990  0.3339
  663MOL0     C89380   3.785   8.952   0.829  0.0678 -0.7293  0.3026
  663MOL0     C89381   3.663   8.898   0.909  1.5097  0.5220  0.4184
  663MOL0     C89382   3.536   8.943   0.841 -0.0183  0.2427  0.1189
  663MOL0     C89383   3.402   8.895   0.884  0.2458  0.0861 -0.1931
  663MOL0     C89384   3.294   8.937   0.783  0.6724 -0.0442  0.1953
  663MOL0     C89385   3.157   8.882   0.836  0.3795 -0.1572 -0.1947
  663MOL0     C89386   3.046   8.943   0.742 -0.2391  0.3768 -0.9903
  663MOL0     N89387   2.910   8.934   0.794  0.1457  0.4392 -0.2051
  663MOL0     C89388   2.868   8.987   0.916 -0.0261  0.2958 -0.5601
  663MOL0     C89389   2.740   8.958   0.924 -0.7284  0.6309  0.0464
  663MOL0     C89390   2.660   8.985   1.049  0.8170  0.6283  0.0939
  663MOL0     C89391   2.601   9.116   1.027 -0.0122 -0.0141 -0.2422
  663MOL0     C89392   2.528   9.178   1.142  0.0884 -0.5392  0.1613
  663MOL0     C89393   2.450   9.313   1.102 -0.1043 -0.2318  0.9840
  663MOL0     O89394   2.316   9.278   1.042 -0.3190 -0.3898  0.0939
  663MOL0     C89395   2.227   9.386   1.027 -0.1769  0.5922  0.2804
  663MOL0     C89396   2.231   9.518   1.085  0.5425 -0.1924 -0.9220
  663MOL0     C89397   2.135   9.620   1.046  0.1608  0.3768  0.1755
  663MOL0     C89398   2.165   9.757   1.098  0.5716 -0.7533 -0.2948
  663MOL0     C89399   2.018   9.580   0.970 -0.3077 -0.5557 -0.1928
  663MOL0     C89400   1.904   9.666   0.934 -0.2050 -0.2233 -0.4953
  663MOL0     O89401   1.822   9.617   0.838 -0.0934  0.3407 -0.4055
  663MOL0     C89402   1.696   9.651   0.810 -0.4807 -1.6814 -0.3522
  663MOL0     C89403   1.612   9.549   0.754  0.2864  0.0048 -0.4731
  663MOL0     C89404   1.484   9.575   0.713 -0.0980 -0.4407  0.4292
  663MOL0     C89405   1.429   9.706   0.731 -0.5135 -0.5740  0.0710
  663MOL0     O89406   1.295   9.732   0.703  0.5007 -0.0653 -0.4584
  663MOL0     C89407   1.229   9.852   0.760  0.0562  0.4072  0.1182
  663MOL0     C89408   1.081   9.823   0.766  0.4220 -0.0122  0.5789
  663MOL0     C89409   1.033   9.724   0.876  0.8482  0.0035 -0.3377
  663MOL0     C89410   0.881   9.744   0.895  0.6152 -1.2737 -0.0791
  663MOL0     C89411   0.826   9.672   1.029 -0.0813  0.2920  1.3761
  663MOL0     C89412   0.687   9.720   1.068  0.0299  0.2114 -1.0396
  663MOL0     C89413   0.666   9.697   1.221  0.1560 -0.2399  0.1195
  663MOL0     C89414   0.592   9.565   1.244  0.4302  0.4824  0.5028
  663MOL0    Cl89415   0.531   9.570   1.407  0.2025  0.2402  0.1100
  663MOL0     C89416   1.511   9.809   0.782 -0.3795 -0.7143  0.3424
  663MOL0     C89417   1.644   9.781   0.821 -0.3805 -1.0487  0.0576
  663MOL0     O89418   1.890   9.773   0.993  0.9054 -0.3731 -0.7671
  663MOL0     C89419   2.022   9.452   0.918 -0.4844  0.2496  0.2849
  663MOL0     C89420   2.123   9.354   0.947 -0.3266 -0.8699 -0.3334
  663MOL0     N89421   2.703   8.889   0.813  0.3891 -0.0499  0.1975
  663MOL0     N89422   2.800   8.882   0.732  0.4558  0.1136 -0.0729
  663MOL0     C89423   4.235   9.001   0.830  0.0264 -0.1398  0.4118
  663MOL0     C89424   4.367   8.963   0.821 -0.3981  0.5445 -0.7800
  663MOL0     C89425   4.762   8.750   0.989  0.3126 -0.7588 -0.3883
  663MOL0     C89426   4.867   8.793   1.075  0.1161 -0.2272 -0.1502
  663MOL0     C89427   4.995   8.737   1.044  0.5272 -0.2960  0.3174
  663MOL0     C89428   5.021   8.645   0.935 -0.5194  0.4214 -0.5509
  663MOL0     O89429   5.150   8.602   0.917 -0.4707 -0.3541  0.0984
  663MOL0     C89430   5.194   8.511   0.808  0.3421 -1.0162  0.8075
  663MOL0     C89431   5.173   8.369   0.864  0.1859  1.3124 -0.1747
  663MOL0     C89432   5.228   8.257   0.775  0.0622  0.2480  1.0221
  663MOL0     C89433   5.174   8.255   0.627  0.8160 -0.2701 -1.0369
  663MOL0     C89434   5.026   8.218   0.626 -0.0204 -1.1993  0.3719
  663MOL0     C89435   4.909   8.196   0.628 -0.4261  0.0374  0.6480
  663MOL0     C89436   4.914   8.611   0.852 -1.2813  0.3200 -0.2001
  663MOL0     C89437   4.782   8.665   0.883  0.2551 -0.2060  1.2933
  663MOL0     H89438   4.337   8.677   1.009  1.2913  0.2300 -0.5964
  663MOL0     H89439   4.098   8.749   1.018 -0.2833 -0.9582  0.7518
  663MOL0     H89440   3.908   8.800   0.889 -1.3255 -0.0589  3.0204
  663MOL0     H89441   3.892   8.912   1.024 -1.4316  1.8936  0.2037
  663MOL0     H89442   3.795   9.061   0.837 -0.6233 -0.4096 -2.3058
  663MOL0     H89443   3.791   8.918   0.725  1.0834 -0.3491  0.2197
  663MOL0     H89444   3.673   8.789   0.912  0.3542  0.1779 -3.2384
  663MOL0     H89445   3.658   8.938   1.011 -1.3445  4.9130 -1.1523
  663MOL0     H89446   3.544   9.051   0.852  0.4222  0.0299  2.3558
  663MOL0     H89447   3.541   8.921   0.733  2.2261  0.9686  0.0332
  663MOL0     H89448   3.406   8.786   0.889 -0.7195  0.0727  0.6765
  663MOL0     H89449   3.376   8.932   0.984 -0.1778  1.4324 -0.7704
  663MOL0     H89450   3.304   9.046   0.777  1.7112 -0.1172  0.3817
  663MOL0     H89451   3.316   8.918   0.677  0.9131  1.2049 -0.0014
  663MOL0     H89452   3.147   8.773   0.837 -2.2247  0.0112 -0.9759
  663MOL0     H89453   3.151   8.915   0.940  2.5188  2.8013 -0.8820
  663MOL0     H89454   3.055   8.909   0.638  2.6065  1.8488 -1.3287
  663MOL0     H89455   3.077   9.048   0.742  4.7098 -0.7771  1.9024
  663MOL0     H89456   2.931   9.043   0.985  0.6117 -0.7767 -0.2580
  663MOL0     H89457   2.586   8.904   1.053 -0.0835  1.4904  2.7018
  663MOL0     H89458   2.722   8.978   1.138 -0.8314 -2.2482  1.1541
  663MOL0     H89459   2.523   9.099   0.952 -0.5323 -1.6989  0.6263
  663MOL0     H89460   2.683   9.183   0.998  0.2726  0.8795  2.3763
  663MOL0     H89461   2.589   9.203   1.229 -1.2422 -0.8865  1.2227
  663MOL0     H89462   2.454   9.108   1.181  1.7761 -0.2868  4.2643
  663MOL0     H89463   2.509   9.373   1.032 -1.2044  0.0554  0.2811
  663MOL0     H89464   2.443   9.372   1.194  3.9401  3.3941 -0.7026
  663MOL0     H89465   2.316   9.542   1.149 -0.1463 -0.6584  0.2075
  663MOL0     H89466   2.091   9.787   1.172 -1.6267 -0.9540 -2.2885
  663MOL0     H89467   2.270   9.775   1.122  0.5410 -0.8778 -0.0698
  663MOL0     H89468   2.153   9.822   1.011 -1.0147 -1.4958 -0.6714
  663MOL0     H89469   1.642   9.445   0.756 -0.8911 -0.4813  4.3489
  663MOL0     H89470   1.427   9.494   0.667  1.4866 -1.8560  0.8432
  663MOL0     H89471   1.277   9.863   0.858  2.7771  2.8113 -1.3229
  663MOL0     H89472   1.237   9.941   0.697 -0.9967  0.1152 -0.4484
  663MOL0     H89473   1.039   9.922   0.786  0.3073 -0.4915  3.0013
  663MOL0     H89474   1.042   9.786   0.670 -1.6383  0.7143  1.0905
  663MOL0     H89475   1.079   9.753   0.971 -1.0219  0.8292  0.3475
  663MOL0     H89476   1.058   9.621   0.847 -1.6503 -0.3572 -1.5140
  663MOL0     H89477   0.858   9.850   0.897  1.4517 -1.1009  1.1199
  663MOL0     H89478   0.822   9.702   0.813 -0.8517 -0.5746  0.5800
  663MOL0     H89479   0.895   9.697   1.110  1.3559  1.6464 -0.1827
  663MOL0     H89480   0.843   9.564   1.020 -0.5669  0.3663 -1.3101
  663MOL0     H89481   0.671   9.828   1.062  0.2251  0.8223  4.4479
  663MOL0     H89482   0.621   9.662   1.002  2.8502 -5.2631  0.2854
  663MOL0     H89483   0.596   9.778   1.245  0.5863  1.8873 -4.6706
  663MOL0     H89484   0.755   9.709   1.283 -0.0544 -0.5454  0.4838
  663MOL0     H89485   0.658   9.478   1.244 -0.3259 -0.1220  1.4104
  663MOL0     H89486   0.507   9.551   1.177  0.1897  2.2157  0.4105
  663MOL0     H89487   1.483   9.914   0.794 -1.3940 -1.0047  0.6267
  663MOL0     H89488   1.718   9.854   0.853 -0.4407 -1.7318  1.9013
  663MOL0     H89489   1.952   9.428   0.839 -0.9305  2.1136  0.0617
  663MOL0     H89490   2.117   9.253   0.910  2.2466 -0.8912 -0.8232
  663MOL0     H89491   4.214   9.097   0.784  0.8877 -0.7186 -1.2764
  663MOL0     H89492   4.433   9.024   0.760  0.7695 -0.3901 -0.4858
  663MOL0     H89493   4.850   8.853   1.163 -1.5232 -0.1052 -0.5073
  663MOL0     H89494   5.072   8.767   1.114  0.2369  0.5657  0.2786
  663MOL0     H89495   5.131   8.528   0.721  2.0254  0.2324 -0.2172
  663MOL0     H89496   5.301   8.526   0.791 -0.1004  1.3793 -0.1481
  663MOL0     H89497   5.065   8.358   0.878  0.2345 -2.6852 -1.4786
  663MOL0     H89498   5.229   8.360   0.957 -0.7347 -1.7462  0.1834
  663MOL0     H89499   5.206   8.163   0.826 -3.5067  1.8849  2.8715
  663MOL0     H89500   5.337   8.261   0.763 -0.2348 -0.4655 -3.5300
  663MOL0     H89501   5.228   8.180   0.569  1.7365  0.8696 -1.7073
  663MOL0     H89502   5.196   8.348   0.574 -0.6141  0.5466 -0.2712
  663MOL0     H89503   4.806   8.167   0.635 -1.2550  1.8362 -2.2702
  663MOL0     H89504   4.930   8.546   0.767 -1.1692  0.4961 -0.3140
  663MOL0     H89505   4.695   8.635   0.827  0.4421 -2.3544  2.0726
  664MOL0     O89506   1.508   0.006   0.571  0.0793  0.2588  0.2015
  664MOL0     C89507   1.548  -0.030   0.688  1.0547  0.0587  0.2943
  664MOL0     O89508   1.473  -0.043   0.801 -0.5408  0.5486  1.1997
  664MOL0     C89509   1.361   0.033   0.813  0.6957  1.4139  0.2123
  664MOL0     C89510   1.242  -0.015   0.888  0.3893 -0.3179  0.0812
  664MOL0     C89511   1.136   0.072   0.927  0.8268  0.4003 -0.5421
  664MOL0     C89512   1.141   0.207   0.872  0.3240  0.7936  0.3877
  664MOL0     O89513   1.045   0.290   0.904  0.5937 -0.9496  0.3775
  664MOL0     C89514   0.919   0.250   0.848 -0.1415  1.1101  0.0651
  664MOL0     C89515   0.806   0.301   0.932  0.1890  0.1148 -1.1691
  664MOL0     C89516   0.662   0.278   0.877  0.3143 -0.4383  0.1461
  664MOL0     C89517   0.550   0.343   0.957 -0.0389 -0.3614 -0.2914
  664MOL0     C89518   0.422   0.349   0.882  0.3531  0.0729  1.1060
  664MOL0     C89519   0.311   0.428   0.952 -0.2375 -0.3528 -0.6492
  664MOL0     C89520   0.248   0.333   1.051 -0.4388  0.2059 -0.9509
  664MOL0     C89521   0.094   0.346   1.047 -0.5895  0.7024  0.3991
  664MOL0     N89522   0.050   0.489   1.064 -0.5336 -0.0282 -0.1135
  664MOL0     C89523   0.080   0.558   1.170 -1.1096 -0.7318  0.0614
  664MOL0     C89524   0.034   0.688   1.138  0.2822 -0.2829 -0.0058
  664MOL0     C89525   0.045   0.799   1.241  0.0480  0.6892  0.0073
  664MOL0     C89526  -0.062   0.908   1.219 -0.1875  0.1189 -0.1730
  664MOL0     C89527  -0.213   0.858   1.243 -0.9614  0.0706 -0.0099
  664MOL0     C89528  -0.318   0.975   1.210  0.1803  0.2327  0.3802
  664MOL0     O89529  -0.448   0.928   1.229 -0.1814  0.0085  0.2289
  664MOL0     C89530  -0.558   1.009   1.226  0.7841  1.0296 -0.2379
  664MOL0     C89531  -0.562   1.140   1.180 -0.0776  0.5922  0.6666
  664MOL0     C89532  -0.678   1.215   1.207  0.8408  0.5073 -1.3972
  664MOL0     C89533  -0.664   1.371   1.214 -0.2422 -0.7103  1.4655
  664MOL0     C89534  -0.801   1.152   1.248  0.0151  0.0510 -0.2616
  664MOL0     C89535  -0.934   1.222   1.272 -0.4603  0.0199  0.3672
  664MOL0     O89536  -1.020   1.152   1.351  0.6413 -0.8591  0.3892
  664MOL0     C89537  -1.142   1.215   1.370 -0.0263  0.9235  0.0334
  664MOL0     C89538  -1.151   1.313   1.467 -0.7398 -0.1133  0.8456
  664MOL0     C89539  -1.279   1.369   1.493 -0.4055 -0.0994 -0.1579
  664MOL0     C89540  -1.386   1.327   1.424 -0.4735 -0.4060 -0.2182
  664MOL0     O89541  -1.515   1.368   1.461 -0.3296 -0.3321 -0.5860
  664MOL0     C89542  -1.562   1.467   1.370  0.9832 -0.8031  0.1728
  664MOL0     C89543  -1.664   1.571   1.427 -0.4846 -0.0256 -0.8541
  664MOL0     C89544  -1.606   1.622   1.558  0.8944  0.4623  1.1139
  664MOL0     C89545  -1.699   1.726   1.621 -0.6462  0.4863  0.1305
  664MOL0     C89546  -1.807   1.670   1.707 -0.5680 -0.2167 -0.6575
  664MOL0     C89547  -1.898   1.772   1.784  0.5307 -0.3269  0.6269
  664MOL0     C89548  -2.035   1.718   1.841 -0.8941  0.0000 -0.6170
  664MOL0     C89549  -2.096   1.820   1.942 -0.1137 -0.7527 -0.1830
  664MOL0    Cl89550  -2.116   1.971   1.857  0.2423 -0.0725  0.2806
  664MOL0     C89551  -1.373   1.231   1.327  0.0317 -0.6856 -0.2591
  664MOL0     C89552  -1.254   1.166   1.301 -0.3531 -0.0458  0.3846
  664MOL0     O89553  -0.948   1.333   1.232  0.3652  0.5912 -1.0119
  664MOL0     C89554  -0.793   1.016   1.282  0.3890  1.1441 -0.4179
  664MOL0     C89555  -0.673   0.949   1.279  0.3150 -0.8669  0.0549
  664MOL0     N89556  -0.018   0.692   1.013  0.8064  0.2557  0.9098
  664MOL0     N89557  -0.011   0.572   0.972 -0.0616  0.1357 -0.1467
  664MOL0     C89558   1.252   0.246   0.797 -0.2948  0.3818 -0.1598
  664MOL0     C89559   1.357   0.169   0.778 -0.2225  0.2171  1.0737
  664MOL0     C89560   1.680  -0.091   0.690  0.2301 -1.2502 -0.5523
  664MOL0     C89561   1.722  -0.154   0.804 -0.2717  0.1258  0.0355
  664MOL0     C89562   1.848  -0.218   0.813  0.1028 -0.0679  0.1978
  664MOL0     C89563   1.931  -0.216   0.703 -0.3917  0.9409  0.4683
  664MOL0     O89564   2.052  -0.281   0.702  0.1798 -0.3904  0.6334
  664MOL0     C89565   2.125  -0.298   0.820 -0.5783  0.5858  0.9547
  664MOL0     C89566   2.219  -0.405   0.796 -0.4758  0.6288 -0.1626
  664MOL0     C89567   2.343  -0.400   0.891 -0.7000 -0.0630 -0.7131
  664MOL0     C89568   2.402  -0.259   0.892  0.3468  0.2192 -0.0598
  664MOL0     C89569   2.543  -0.260   0.933  0.2073  0.5417  0.7431
  664MOL0     C89570   2.666  -0.269   0.922  0.0125 -0.1968 -0.9811
  664MOL0     C89571   1.885  -0.164   0.578  0.0838  0.4542 -0.6843
  664MOL0     C89572   1.760  -0.095   0.577 -0.0392 -0.7443 -0.5032
  664MOL0     H89573   1.254  -0.117   0.922  2.3308 -0.6979 -1.5821
  664MOL0     H89574   1.046   0.053   0.984  1.8941  1.8634  1.7625
  664MOL0     H89575   0.918   0.292   0.747 -1.2957  0.7795 -0.0771
  664MOL0     H89576   0.918   0.141   0.833 -0.4026  1.2306 -0.8914
  664MOL0     H89577   0.818   0.243   1.024  2.5344  1.0488 -0.8136
  664MOL0     H89578   0.815   0.407   0.955 -2.1458  0.1656 -0.2449
  664MOL0     H89579   0.673   0.308   0.773  3.1521 -1.6084 -0.0086
  664MOL0     H89580   0.639   0.171   0.878 -2.7964  0.1264 -1.0287
  664MOL0     H89581   0.557   0.279   1.045  1.7287 -0.8937 -0.7685
  664MOL0     H89582   0.584   0.446   0.972  1.4520 -0.6134 -1.7295
  664MOL0     H89583   0.434   0.384   0.779  2.7744 -1.2913  0.8433
  664MOL0     H89584   0.388   0.246   0.867 -0.3865  0.2614  1.4452
  664MOL0     H89585   0.354   0.515   1.003  0.9238 -1.1633 -0.2135
  664MOL0     H89586   0.235   0.455   0.878 -0.7486 -1.6240 -0.6149
  664MOL0     H89587   0.277   0.228   1.040  0.1427  0.4254 -1.6008
  664MOL0     H89588   0.285   0.369   1.147 -1.3354 -0.9836 -0.1414
  664MOL0     H89589   0.042   0.291   1.126 -1.2494 -0.6759 -0.9540
  664MOL0     H89590   0.057   0.305   0.953 -0.2134 -1.0823  0.9883
  664MOL0     H89591   0.134   0.530   1.260  1.8304 -0.2901 -1.4418
  664MOL0     H89592   0.032   0.759   1.342  0.0037  0.0879 -0.2290
  664MOL0     H89593   0.150   0.829   1.237  1.7702 -4.3810 -1.0616
  664MOL0     H89594  -0.055   0.948   1.118  0.2031 -2.0659 -1.0548
  664MOL0     H89595  -0.050   0.989   1.292 -0.8684 -0.2521  0.3695
  664MOL0     H89596  -0.216   0.828   1.349  2.6726  2.7525  1.0749
  664MOL0     H89597  -0.235   0.767   1.187 -2.4656  0.6530 -0.4105
  664MOL0     H89598  -0.299   1.007   1.107 -0.4284 -0.5200  0.0292
  664MOL0     H89599  -0.294   1.058   1.277 -1.1109 -0.2065  1.4173
  664MOL0     H89600  -0.474   1.195   1.148 -1.0067  0.0517 -3.3006
  664MOL0     H89601  -0.563   1.413   1.218 -1.3775  2.3485  0.9837
  664MOL0     H89602  -0.718   1.402   1.124 -0.5749  1.2286  2.2739
  664MOL0     H89603  -0.717   1.414   1.300 -0.4633 -1.7672  1.8701
  664MOL0     H89604  -1.057   1.340   1.514  0.4081 -0.7457 -0.9707
  664MOL0     H89605  -1.279   1.440   1.575  1.6419 -0.6372  0.3589
  664MOL0     H89606  -1.472   1.521   1.338  0.6811  0.8460  1.9369
  664MOL0     H89607  -1.615   1.427   1.283 -0.7965  0.2247  0.7406
  664MOL0     H89608  -1.658   1.656   1.359  2.3209  1.9408  1.6243
  664MOL0     H89609  -1.765   1.529   1.437 -0.4977  0.1474 -0.2158
  664MOL0     H89610  -1.507   1.669   1.550 -0.1754  2.4677 -1.7807
  664MOL0     H89611  -1.579   1.537   1.622  2.6645 -0.4714 -0.7700
  664MOL0     H89612  -1.631   1.784   1.686  0.9778  1.1061 -1.9872
  664MOL0     H89613  -1.735   1.797   1.546  0.4457 -0.4194 -1.2937
  664MOL0     H89614  -1.768   1.597   1.778 -0.6771  1.3884  1.1127
  664MOL0     H89615  -1.878   1.620   1.640  1.7789 -3.8684 -0.6671
  664MOL0     H89616  -1.843   1.822   1.865  1.2443  1.1658 -0.7417
  664MOL0     H89617  -1.912   1.843   1.703  2.3924 -1.1853 -0.5134
  664MOL0     H89618  -2.014   1.627   1.899  0.9392 -0.4995 -1.9583
  664MOL0     H89619  -2.101   1.690   1.759  0.0906  2.3498 -2.3273
  664MOL0     H89620  -2.030   1.847   2.024  0.5861 -0.2008 -0.9164
  664MOL0     H89621  -2.185   1.783   1.993 -0.3936  0.2657  0.0867
  664MOL0     H89622  -1.460   1.219   1.263  0.1319  0.4175 -0.6319
  664MOL0     H89623  -1.243   1.108   1.210 -2.5313  1.2719 -0.8120
  664MOL0     H89624  -0.879   0.957   1.311  0.0410  0.6631 -2.2834
  664MOL0     H89625  -0.666   0.845   1.309 -1.4256 -0.5892  1.6020
  664MOL0     H89626   1.258   0.349   0.761 -1.7379  0.3875 -0.4602
  664MOL0     H89627   1.447   0.214   0.737  0.9160 -1.7675  1.2587
  664MOL0     H89628   1.662  -0.175   0.892 -0.6224 -3.3518 -0.8954
  664MOL0     H89629   1.871  -0.263   0.909 -2.4183  0.2577  1.0087
  664MOL0     H89630   2.158  -0.198   0.846 -1.2829  1.0584  0.1055
  664MOL0     H89631   2.056  -0.322   0.901 -1.2685  0.3281  0.3017
  664MOL0     H89632   2.256  -0.397   0.693 -0.1425  1.5568  0.0188
  664MOL0     H89633   2.173  -0.504   0.794  1.0350 -0.1834  1.9518
  664MOL0     H89634   2.419  -0.474   0.865 -1.3263 -1.4111  1.1261
  664MOL0     H89635   2.319  -0.418   0.997  2.2787 -2.3514 -0.2856
  664MOL0     H89636   2.344  -0.196   0.960 -0.0372  0.2309 -0.3936
  664MOL0     H89637   2.396  -0.208   0.795  0.2720  2.5457  1.1093
  664MOL0     H89638   2.773  -0.277   0.913  0.0118 -2.4087  0.3913
  664MOL0     H89639   1.952  -0.163   0.492 -0.3983 -3.9386 -1.3357
  664MOL0     H89640   1.730  -0.040   0.489  1.2491 -0.9958 -1.1216
  665MOL0     O89641   6.439   9.197   0.153  0.3127 -0.8569  0.1106
  665MOL0     C89642   6.428   9.175   0.028  0.4540  0.6959 -0.6111
  665MOL0     O89643   6.529   9.147  -0.048 -0.3619 -0.0478  0.0255
  665MOL0     C89644   6.654   9.119   0.006  0.3087 -0.6959  0.3690
  665MOL0     C89645   6.711   8.996  -0.022 -0.4653  0.1123  0.0036
  665MOL0     C89646   6.838   8.956   0.037 -0.4017 -0.0966  0.0005
  665MOL0     C89647   6.909   9.053   0.113  0.6264  0.9658  0.3341
  665MOL0     O89648   7.034   9.027   0.158 -0.3468 -0.0692  0.1356
  665MOL0     C89649   7.065   8.882   0.177  0.2019  0.9181  0.2307
  665MOL0     C89650   7.182   8.868   0.266 -0.0062  0.3668 -0.5811
  665MOL0     C89651   7.319   8.870   0.188 -0.8697  0.1314  0.1792
  665MOL0     C89652   7.416   8.853   0.297 -0.6388  0.4422  0.4823
  665MOL0     C89653   7.554   8.857   0.233  0.2501 -0.4263  0.3765
  665MOL0     C89654   7.664   8.800   0.325 -1.3697  0.3698 -0.1947
  665MOL0     C89655   7.693   8.890   0.442 -0.2151  1.0493  0.3885
  665MOL0     C89656   7.797   8.836   0.547 -0.1508 -1.0073 -0.0330
  665MOL0     N89657   7.776   8.897   0.682 -0.3443 -0.8287 -0.1486
  665MOL0     C89658   7.799   9.026   0.725 -0.4400  0.9337  0.0798
  665MOL0     C89659   7.754   9.040   0.853 -0.7134  0.3830 -0.4961
  665MOL0     C89660   7.773   9.169   0.944  0.3930 -0.8178 -0.2252
  665MOL0     C89661   7.916   9.154   1.000 -0.8776  0.0305 -0.2600
  665MOL0     C89662   7.961   9.276   1.079 -0.0109  0.1572  0.0736
  665MOL0     C89663   7.978   9.410   0.998 -0.1132  0.3937  0.3136
  665MOL0     O89664   8.036   9.409   0.860  0.0579 -0.3662 -0.7714
  665MOL0     C89665   8.162   9.365   0.842 -0.0618  0.0110 -0.4410
  665MOL0     C89666   8.201   9.330   0.712 -0.4447  0.0286 -0.5792
  665MOL0     C89667   8.328   9.289   0.687  0.0067  0.2179  0.6960
  665MOL0     C89668   8.377   9.275   0.542 -0.4790  0.3374  0.5111
  665MOL0     C89669   8.418   9.275   0.792  0.0687 -0.1220  0.7209
  665MOL0     C89670   8.560   9.235   0.770  0.6257 -0.2683  0.2488
  665MOL0     O89671   8.595   9.127   0.696  0.6445  0.4651 -0.2160
  665MOL0     C89672   8.719   9.080   0.700  0.6957  1.3381  0.2419
  665MOL0     C89673   8.771   8.992   0.790  0.5034 -0.3707  0.2147
  665MOL0     C89674   8.898   8.924   0.778  0.2221 -0.9172 -0.4464
  665MOL0     C89675   8.984   8.966   0.679 -0.0023 -0.5469  0.0123
  665MOL0     O89676   9.114   8.916   0.684 -0.1633 -0.0780 -0.5788
  665MOL0     C89677   9.199   8.937   0.579 -0.7157 -0.1247 -0.0949
  665MOL0     C89678   9.345   8.914   0.623  0.1484 -0.2612  0.2679
  665MOL0     C89679   9.457   8.915   0.510 -0.5300  0.6991  0.2653
  665MOL0     C89680   9.598   8.873   0.570 -0.2005 -0.5559 -0.3336
  665MOL0     C89681   9.716   8.945   0.512  1.2150  0.4485 -0.4503
  665MOL0     C89682   9.849   8.877   0.560  0.2325  0.0737 -0.3181
  665MOL0     C89683   9.954   8.987   0.565  0.2891  0.0541  0.2828
  665MOL0     C89684  10.089   8.932   0.607  0.0122 -1.1565 -0.2969
  665MOL0    Cl89685  10.169   8.816   0.487 -0.3342  0.5615  0.2616
  665MOL0     C89686   8.931   9.058   0.583 -0.1195  0.1649  0.0069
  665MOL0     C89687   8.802   9.114   0.589 -0.4467  0.3294  0.3535
  665MOL0     O89688   8.634   9.299   0.839 -0.4209 -0.0117 -0.5838
  665MOL0     C89689   8.375   9.299   0.922  0.0354 -0.6320  0.7525
  665MOL0     C89690   8.247   9.341   0.944  0.9964  0.1028  0.5411
  665MOL0     N89691   7.713   8.908   0.892 -0.1719 -0.4940  0.5646
  665MOL0     N89692   7.721   8.830   0.782  0.3589 -0.2099 -0.7985
  665MOL0     C89693   6.848   9.179   0.136 -0.3249  0.5945  0.1880
  665MOL0     C89694   6.723   9.208   0.087 -1.1596 -0.3684 -0.2971
  665MOL0     C89695   6.299   9.203  -0.031  0.6400  0.4744 -0.1240
  665MOL0     C89696   6.289   9.222  -0.165 -0.8684 -0.5230 -0.6416
  665MOL0     C89697   6.162   9.249  -0.212 -0.4254  0.5966 -0.2306
  665MOL0     C89698   6.044   9.227  -0.142  0.4873 -1.0321 -0.3923
  665MOL0     O89699   5.935   9.235  -0.219 -0.7373 -0.1176  0.5550
  665MOL0     C89700   5.874   9.107  -0.241 -0.3704 -0.5820  0.1629
  665MOL0     C89701   5.738   9.111  -0.165  0.2206 -0.0655  0.0256
  665MOL0     C89702   5.648   8.995  -0.197  0.4044  0.0902 -0.4925
  665MOL0     C89703   5.508   9.006  -0.140 -0.4198 -0.7096  0.4499
  665MOL0     C89704   5.416   8.902  -0.207  0.5006  0.0384 -0.3080
  665MOL0     C89705   5.343   8.810  -0.256  0.6162 -0.4467  0.2981
  665MOL0     C89706   6.043   9.209  -0.011 -0.6797  0.1927  0.5660
  665MOL0     C89707   6.177   9.189   0.047  0.7839 -0.1966 -0.7562
  665MOL0     H89708   6.649   8.930  -0.081  0.7688 -0.6929 -0.4303
  665MOL0     H89709   6.876   8.859   0.007 -2.6687 -0.8086 -0.7537
  665MOL0     H89710   6.983   8.834   0.231 -1.1134  1.4019 -1.2445
  665MOL0     H89711   7.087   8.827   0.085 -1.0273 -0.6642  0.8186
  665MOL0     H89712   7.186   8.944   0.344  1.7187  0.7198 -0.9754
  665MOL0     H89713   7.171   8.769   0.312  0.2970 -0.3794 -2.0277
  665MOL0     H89714   7.322   8.795   0.108  2.0485  1.6080 -1.2239
  665MOL0     H89715   7.342   8.964   0.137  1.0268 -1.5699 -2.3543
  665MOL0     H89716   7.402   8.925   0.378 -2.8375 -0.5875  1.0927
  665MOL0     H89717   7.395   8.756   0.343 -1.5912  0.0258 -0.7669
  665MOL0     H89718   7.563   8.802   0.139  0.2550  1.0848 -0.5414
  665MOL0     H89719   7.575   8.958   0.198  0.5410 -0.9239 -0.9290
  665MOL0     H89720   7.642   8.703   0.370  1.7480  0.1686  1.1166
  665MOL0     H89721   7.751   8.788   0.261 -2.1675  0.8974 -1.4074
  665MOL0     H89722   7.730   8.986   0.407 -0.8284  1.2124  0.1871
  665MOL0     H89723   7.601   8.910   0.498  1.1034  2.0268  2.3504
  665MOL0     H89724   7.893   8.873   0.509 -1.4793  4.7112  1.1465
  665MOL0     H89725   7.802   8.727   0.544  2.5710 -0.9820  0.6297
  665MOL0     H89726   7.848   9.099   0.661 -0.0391  0.3049 -0.3444
  665MOL0     H89727   7.752   9.263   0.891 -2.5236 -1.9510 -1.3099
  665MOL0     H89728   7.704   9.167   1.028  2.4951  0.0355  1.6090
  665MOL0     H89729   7.983   9.146   0.914 -1.4287  1.8461 -0.9004
  665MOL0     H89730   7.924   9.066   1.065 -0.8898  0.4987  0.3802
  665MOL0     H89731   8.058   9.260   1.128 -0.9062 -0.1355  1.8191
  665MOL0     H89732   7.888   9.299   1.156  0.1873  0.2744  0.2272
  665MOL0     H89733   8.038   9.460   1.074 -0.8960 -2.9232  3.4303
  665MOL0     H89734   7.879   9.457   0.992  0.4361  1.5329 -0.1060
  665MOL0     H89735   8.133   9.358   0.633 -0.4754  4.6735  0.7892
  665MOL0     H89736   8.471   9.330   0.529 -1.5300  2.4583  1.4190
  665MOL0     H89737   8.399   9.172   0.514  0.0935 -0.3955  3.3135
  665MOL0     H89738   8.313   9.320   0.466 -0.7313 -0.5854  0.1625
  665MOL0     H89739   8.711   8.967   0.877  1.7380 -1.6701  0.7372
  665MOL0     H89740   8.912   8.861   0.865 -1.7200  1.3378  1.6682
  665MOL0     H89741   9.178   8.864   0.500 -1.7829  1.3001 -1.1693
  665MOL0     H89742   9.184   9.038   0.540  1.1406  0.0360 -0.5011
  665MOL0     H89743   9.367   8.984   0.704  1.3071 -1.0616  0.6634
  665MOL0     H89744   9.359   8.813   0.661 -2.7852  0.8031  4.9730
  665MOL0     H89745   9.462   9.017   0.471  2.7112 -0.0583 -1.7130
  665MOL0     H89746   9.430   8.861   0.419  2.5959 -0.5896 -0.0209
  665MOL0     H89747   9.590   8.883   0.678  0.0103  2.5161 -0.5239
  665MOL0     H89748   9.614   8.767   0.548  4.3510  0.1431 -1.4630
  665MOL0     H89749   9.712   9.049   0.545  1.7453  0.0732  0.8610
  665MOL0     H89750   9.703   8.934   0.404  0.6697  0.2850 -0.3691
  665MOL0     H89751   9.841   8.846   0.665  0.0138  2.3543  0.3761
  665MOL0     H89752   9.881   8.798   0.492 -0.0560  0.0445 -0.4213
  665MOL0     H89753   9.930   9.064   0.639  3.6786 -0.4660  2.1135
  665MOL0     H89754   9.965   9.030   0.464  1.5873  1.9824  1.1782
  665MOL0     H89755  10.087   8.893   0.710  1.2160  2.3675  1.2103
  665MOL0     H89756  10.154   9.020   0.608 -2.1902  0.6694 -2.9519
  665MOL0     H89757   8.998   9.096   0.506  0.9220 -1.1021  0.2549
  665MOL0     H89758   8.778   9.188   0.514 -1.0939  1.6674  1.8262
  665MOL0     H89759   8.447   9.299   1.003  0.8273  1.4636  0.1283
  665MOL0     H89760   8.220   9.369   1.046 -0.2550 -0.3259  0.3381
  665MOL0     H89761   6.906   9.247   0.197  1.5548 -0.4441 -0.3336
  665MOL0     H89762   6.690   9.309   0.109  0.6950  0.1531  0.2533
  665MOL0     H89763   6.371   9.229  -0.236  2.8888 -1.5364  3.1899
  665MOL0     H89764   6.154   9.289  -0.312 -1.2568  1.4925  0.1717
  665MOL0     H89765   5.871   9.085  -0.349  1.3984  2.0639 -0.5053
  665MOL0     H89766   5.920   9.017  -0.200 -1.4251 -1.5071 -0.6036
  665MOL0     H89767   5.697   9.199  -0.215  0.7501 -0.6558 -1.5070
  665MOL0     H89768   5.740   9.129  -0.057 -1.9122 -1.4392  0.3377
  665MOL0     H89769   5.696   8.908  -0.151  1.2513  0.1652 -1.2015
  665MOL0     H89770   5.636   8.982  -0.305  2.2627 -0.7868 -0.6274
  665MOL0     H89771   5.475   9.110  -0.148  1.6057 -0.1820 -3.0211
  665MOL0     H89772   5.504   8.985  -0.032 -0.9330  1.2634  0.8489
  665MOL0     H89773   5.283   8.734  -0.302 -0.3469 -0.3831  1.4189
  665MOL0     H89774   5.951   9.199   0.045 -0.4194  1.9392  1.3779
  665MOL0     H89775   6.172   9.160   0.152 -2.7667 -0.2701 -0.8273
  666MOL0     O89776   2.231   9.192   7.707  0.5823  0.0677 -0.2957
  666MOL0     C89777   2.272   9.135   7.610 -0.6250 -0.5752  0.3428
  666MOL0     O89778   2.202   9.059   7.519 -0.0054  0.0244 -0.2894
  666MOL0     C89779   2.070   9.047   7.554 -0.4833 -0.3531 -0.9506
  666MOL0     C89780   1.982   9.159   7.575  0.4546  0.5719 -0.4203
  666MOL0     C89781   1.844   9.139   7.606 -0.7237 -0.6983 -0.2933
  666MOL0     C89782   1.799   9.012   7.623  0.2618  0.4028 -0.8954
  666MOL0     O89783   1.670   8.975   7.652  0.0387  0.1142 -0.0811
  666MOL0     C89784   1.570   9.078   7.660 -0.5279  0.7081 -0.3848
  666MOL0     C89785   1.442   9.008   7.662  0.6065 -0.8648  0.1368
  666MOL0     C89786   1.327   9.118   7.663  0.3024  0.0712  0.1941
  666MOL0     C89787   1.181   9.078   7.645 -0.1016 -0.0855  0.2149
  666MOL0     C89788   1.096   9.201   7.593  0.4026 -0.1191 -0.9697
  666MOL0     C89789   0.948   9.187   7.620 -0.1751 -0.7308 -0.0087
  666MOL0     C89790   0.881   9.062   7.570 -0.5588  0.3381 -0.3978
  666MOL0     C89791   0.851   9.078   7.418  0.0680  0.3521 -0.1500
  666MOL0     N89792   0.750   9.184   7.382  0.7014  0.5441 -0.4074
  666MOL0     C89793   0.766   9.258   7.272 -0.2789 -0.5150  0.3485
  666MOL0     C89794   0.653   9.328   7.271  0.2676 -0.7190 -0.0161
  666MOL0     C89795   0.611   9.423   7.158  0.4659  0.1597  0.5694
  666MOL0     C89796   0.585   9.346   7.026 -0.3174 -0.5182  0.9677
  666MOL0     C89797   0.510   9.411   6.912 -0.1073  0.5206  0.1459
  666MOL0     C89798   0.553   9.550   6.873 -0.5065 -0.4712 -0.4765
  666MOL0     O89799   0.697   9.550   6.853  0.2918  0.4979 -0.1949
  666MOL0     C89800   0.751   9.654   6.789 -0.6023  0.6040  0.9260
  666MOL0     C89801   0.704   9.718   6.682 -0.1338  0.0056  0.8291
  666MOL0     C89802   0.758   9.832   6.617  0.6597  0.1463  0.4301
  666MOL0     C89803   0.697   9.878   6.485  0.4924  0.5299  0.6484
  666MOL0     C89804   0.867   9.894   6.688 -0.2492 -0.0063  0.0099
  666MOL0     C89805   0.926  10.021   6.640 -0.2592  0.2512 -0.5446
  666MOL0     O89806   1.057  10.038   6.664 -0.2033  0.1584  0.4629
  666MOL0     C89807   1.101  10.171   6.649 -0.1984 -0.0931  0.3298
  666MOL0     C89808   1.106  10.236   6.527  0.6036 -0.3593  0.8252
  666MOL0     C89809   1.150  10.363   6.512  0.5669  0.6702 -0.8839
  666MOL0     C89810   1.195  10.427   6.629  0.9292 -0.5155 -0.0755
  666MOL0     O89811   1.247  10.555   6.609 -0.5731  0.2249 -0.2804
  666MOL0     C89812   1.309  10.626   6.729  0.3501  1.1447  0.0062
  666MOL0     C89813   1.356  10.765   6.707  0.1061  0.3581  0.2166
  666MOL0     C89814   1.374  10.830   6.844  0.6108 -0.7015 -0.3765
  666MOL0     C89815   1.400  10.982   6.840  0.1034  0.2538 -0.9163
  666MOL0     C89816   1.444  11.029   6.977  0.2588 -0.3220  0.3324
  666MOL0     C89817   1.502  11.165   6.980  1.0084 -0.7871 -0.6739
  666MOL0     C89818   1.426  11.271   6.902  0.5559  0.0804 -0.1904
  666MOL0     C89819   1.463  11.413   6.951  0.0598  0.8458  0.4620
  666MOL0    Cl89820   1.649  11.447   6.923 -0.7479 -0.5199 -0.3542
  666MOL0     C89821   1.201  10.364   6.750 -0.3951  0.6040 -0.0510
  666MOL0     C89822   1.139  10.242   6.763 -0.1838  0.4207 -0.5364
  666MOL0     O89823   0.848  10.112   6.608  0.7770  0.1039  0.0035
  666MOL0     C89824   0.919   9.828   6.804 -0.2511 -0.1498  0.5244
  666MOL0     C89825   0.865   9.704   6.850 -0.9999 -0.2020  0.2917
  666MOL0     N89826   0.567   9.306   7.378 -0.5264  0.7545  0.7168
  666MOL0     N89827   0.627   9.215   7.444  0.5693 -0.1930  0.1311
  666MOL0     C89828   1.884   8.903   7.599  0.8156 -0.9737  0.2402
  666MOL0     C89829   2.020   8.919   7.567 -0.0803  0.1222  0.2206
  666MOL0     C89830   2.423   9.130   7.589  1.3567  0.1344 -0.6626
  666MOL0     C89831   2.473   9.105   7.467 -0.5849 -0.1502  0.8817
  666MOL0     C89832   2.619   9.110   7.449  0.5045 -0.1823 -1.0270
  666MOL0     C89833   2.710   9.125   7.557 -1.0936 -0.2641  0.1130
  666MOL0     O89834   2.848   9.138   7.555  0.4746 -0.3570  0.1080
  666MOL0     C89835   2.914   9.182   7.427 -0.0309 -0.4520 -0.5547
  666MOL0     C89836   2.910   9.327   7.406  0.9082 -0.6929  0.8435
  666MOL0     C89837   2.955   9.405   7.523 -0.6941  0.1620 -0.5028
  666MOL0     C89838   2.971   9.550   7.477 -0.2391  0.3743  0.8347
  666MOL0     C89839   2.965   9.637   7.589 -0.1344 -0.8094 -0.4884
  666MOL0     C89840   2.968   9.715   7.682 -0.4702  0.6643 -0.2270
  666MOL0     C89841   2.655   9.150   7.684  0.7312 -1.0179 -0.6829
  666MOL0     C89842   2.510   9.159   7.697 -0.9536  0.1745 -0.2777
  666MOL0     H89843   2.024   9.255   7.549  0.4372  0.5171 -0.6487
  666MOL0     H89844   1.778   9.225   7.609 -0.1761 -0.2359 -1.2007
  666MOL0     H89845   1.563   9.131   7.755 -0.8284 -1.2236  0.7129
  666MOL0     H89846   1.584   9.148   7.577 -0.3192 -0.0575 -1.0096
  666MOL0     H89847   1.445   8.951   7.569 -1.0114 -0.3217 -0.2842
  666MOL0     H89848   1.424   8.935   7.742  0.6533 -1.8442 -0.7278
  666MOL0     H89849   1.326   9.193   7.744  5.7259 -0.5344  1.2039
  666MOL0     H89850   1.337   9.173   7.569 -2.9359 -1.1060 -0.9689
  666MOL0     H89851   1.177   8.988   7.583  1.9877 -2.7882  3.6131
  666MOL0     H89852   1.128   9.050   7.736 -0.8859  0.6134 -0.0130
  666MOL0     H89853   1.129   9.290   7.648  1.1800 -0.8723 -0.1808
  666MOL0     H89854   1.101   9.214   7.485 -0.8786 -3.1131 -1.4927
  666MOL0     H89855   0.923   9.188   7.726 -3.9721  0.3777 -0.7816
  666MOL0     H89856   0.893   9.273   7.583  0.8475  0.0702  0.2829
  666MOL0     H89857   0.944   8.977   7.597 -0.3916  1.3885  3.0067
  666MOL0     H89858   0.783   9.059   7.618 -0.9534  2.8926 -0.8763
  666MOL0     H89859   0.803   8.983   7.391  1.8010 -0.3440 -0.9039
  666MOL0     H89860   0.947   9.087   7.367  1.1619 -2.7170  1.1183
  666MOL0     H89861   0.849   9.265   7.203 -1.9839  0.6644 -1.7212
  666MOL0     H89862   0.519   9.478   7.181 -0.1356 -1.0808  1.2396
  666MOL0     H89863   0.693   9.491   7.132  0.2236 -0.2520 -1.4549
  666MOL0     H89864   0.540   9.248   7.045 -0.1232 -1.6333 -3.3284
  666MOL0     H89865   0.686   9.317   6.996  0.8582 -0.2123  4.2174
  666MOL0     H89866   0.407   9.417   6.949  1.4220  0.6811  5.0736
  666MOL0     H89867   0.524   9.350   6.823 -0.0669 -0.2798  0.6919
  666MOL0     H89868   0.520   9.623   6.947  3.1128 -0.1028  0.9756
  666MOL0     H89869   0.495   9.574   6.783 -1.2026  2.4940  0.6540
  666MOL0     H89870   0.615   9.676   6.636  0.6489  0.9146 -1.6770
  666MOL0     H89871   0.693   9.793   6.417 -1.0555 -0.2485  1.6492
  666MOL0     H89872   0.599   9.922   6.503 -0.4177 -2.1578  3.0331
  666MOL0     H89873   0.755   9.962   6.446  0.9526  1.6990  3.5384
  666MOL0     H89874   1.076  10.176   6.441 -0.1200  2.2482 -0.8730
  666MOL0     H89875   1.147  10.415   6.417 -3.2171  1.2583 -0.5907
  666MOL0     H89876   1.246  10.618   6.818  0.2975  1.3312 -0.0126
  666MOL0     H89877   1.398  10.565   6.750  0.0873 -0.1941 -2.4005
  666MOL0     H89878   1.452  10.763   6.655 -1.5620  1.0092 -3.1887
  666MOL0     H89879   1.286  10.817   6.641 -2.9330 -3.7346 -0.1761
  666MOL0     H89880   1.460  10.775   6.883  0.5221 -1.0516 -0.6617
  666MOL0     H89881   1.297  10.812   6.919  0.8919 -0.2562  0.0219
  666MOL0     H89882   1.476  11.016   6.768  1.2468  5.2951  2.1771
  666MOL0     H89883   1.311  11.041   6.816 -1.1564 -0.3660  1.8989
  666MOL0     H89884   1.512  10.957   7.024 -0.0597 -2.3073 -2.0845
  666MOL0     H89885   1.362  11.048   7.046 -0.3859 -0.6998 -0.3205
  666MOL0     H89886   1.517  11.206   7.080 -3.6448  1.3126 -0.5798
  666MOL0     H89887   1.599  11.161   6.929  0.1926 -0.7254 -2.2976
  666MOL0     H89888   1.317  11.258   6.906  0.5028  0.9000  1.6404
  666MOL0     H89889   1.469  11.262   6.802  0.1438 -0.3956 -0.3323
  666MOL0     H89890   1.452  11.427   7.059  0.5955  1.2086  0.4768
  666MOL0     H89891   1.400  11.480   6.892  0.1470 -1.4076 -2.4524
  666MOL0     H89892   1.249  10.408   6.837 -3.3427 -2.4216  3.4279
  666MOL0     H89893   1.122  10.195   6.860 -0.0559 -2.0544 -1.6202
  666MOL0     H89894   1.001   9.873   6.858 -1.9294  3.9911  0.0066
  666MOL0     H89895   0.886   9.648   6.940 -0.8583 -0.5165  0.0649
  666MOL0     H89896   1.845   8.802   7.611 -0.6885 -0.5163 -0.5603
  666MOL0     H89897   2.084   8.832   7.558 -0.9922 -0.4198 -1.6674
  666MOL0     H89898   2.405   9.090   7.384 -0.4493  2.2367  0.2591
  666MOL0     H89899   2.661   9.104   7.349  3.8057  2.6302 -0.0253
  666MOL0     H89900   3.020   9.155   7.427  1.1152  3.4908 -1.7150
  666MOL0     H89901   2.876   9.130   7.339 -2.6778 -2.4296  1.5355
  666MOL0     H89902   2.813   9.368   7.376  1.5703  0.5756  0.3808
  666MOL0     H89903   2.984   9.346   7.328  0.2251  2.0916  0.7621
  666MOL0     H89904   3.055   9.366   7.543 -1.3392 -2.2472 -1.6189
  666MOL0     H89905   2.881   9.400   7.604  0.4673  0.5347  0.6106
  666MOL0     H89906   2.901   9.571   7.395 -2.6135 -1.3698  2.2885
  666MOL0     H89907   3.065   9.564   7.422 -0.7697  1.3436  0.1544
  666MOL0     H89908   2.970   9.786   7.762 -1.8295 -0.5028  0.9024
  666MOL0     H89909   2.713   9.152   7.775  0.0382 -0.2603 -0.2545
  666MOL0     H89910   2.481   9.175   7.800  0.3802  1.1685 -0.0254
  667MOL0     O89911   8.843   9.248   9.578  0.5121 -0.2993  0.6257
  667MOL0     C89912   8.813   9.147   9.517 -0.5073  0.1036  0.5940
  667MOL0     O89913   8.701   9.076   9.533  0.2478 -1.0189 -0.6829
  667MOL0     C89914   8.595   9.137   9.596 -0.2869  0.3201 -0.5862
  667MOL0     C89915   8.590   9.170   9.733  0.3933 -1.1573  0.3100
  667MOL0     C89916   8.470   9.220   9.788  0.6275  0.7411 -0.0054
  667MOL0     C89917   8.350   9.220   9.717  0.6250  0.0840  0.0356
  667MOL0     O89918   8.229   9.261   9.771 -0.9351  0.2998  0.2926
  667MOL0     C89919   8.229   9.339   9.891 -0.0392 -0.0250  0.3987
  667MOL0     C89920   8.090   9.403   9.912  0.0268 -0.5990  0.3933
  667MOL0     C89921   8.090   9.498  10.032 -0.4317  1.1692 -0.4811
  667MOL0     C89922   8.088   9.437  10.175  0.4646 -0.2280  0.6010
  667MOL0     C89923   7.964   9.339  10.202  0.0584 -0.3838  0.0318
  667MOL0     C89924   7.937   9.291  10.346  0.9906  0.0661  0.6396
  667MOL0     C89925   7.816   9.195  10.351 -1.4391 -0.0193 -0.8390
  667MOL0     C89926   7.673   9.247  10.334 -0.5984 -0.2878 -1.0936
  667MOL0     N89927   7.576   9.139  10.340  0.4666  0.0293 -0.1267
  667MOL0     C89928   7.559   9.079  10.453  0.6234  0.3991  0.0929
  667MOL0     C89929   7.477   8.970  10.413 -0.4428 -0.5657 -0.3793
  667MOL0     C89930   7.436   8.846  10.491 -0.1800  0.0445  0.8200
  667MOL0     C89931   7.350   8.876  10.625  0.5922 -0.7851  0.3115
  667MOL0     C89932   7.211   8.935  10.596  0.3931 -0.4821 -0.2019
  667MOL0     C89933   7.106   8.845  10.539 -0.3381  0.1969 -0.8028
  667MOL0     O89934   6.985   8.918  10.531 -1.0034  0.1298  0.1043
  667MOL0     C89935   6.876   8.872  10.460  0.7124 -0.0239 -0.4955
  667MOL0     C89936   6.869   8.745  10.401  0.5116 -0.6539  0.2084
  667MOL0     C89937   6.734   8.696  10.369 -0.2077  0.4939 -0.7159
  667MOL0     C89938   6.732   8.547  10.331  0.6513  0.2946  0.4257
  667MOL0     C89939   6.622   8.780  10.363 -0.0158 -0.9750 -0.4393
  667MOL0     C89940   6.480   8.758  10.320  0.0449  0.4788  0.1018
  667MOL0     O89941   6.392   8.863  10.334 -0.1947  0.5661 -0.4338
  667MOL0     C89942   6.261   8.839  10.344  0.4325  0.5351  0.2539
  667MOL0     C89943   6.185   8.913  10.269 -0.5671  0.7322  0.4092
  667MOL0     C89944   6.047   8.878  10.252 -0.0233  0.8780 -0.0423
  667MOL0     C89945   5.986   8.782  10.327 -0.1006 -0.5025  0.3743
  667MOL0     O89946   5.850   8.766  10.332 -0.3271  0.6368 -0.5781
  667MOL0     C89947   5.778   8.806  10.223 -0.2856 -0.5601 -0.3427
  667MOL0     C89948   5.628   8.766  10.238  0.5566 -0.2655 -0.9352
  667MOL0     C89949   5.552   8.820  10.121  0.4294 -0.0580  0.3984
  667MOL0     C89950   5.399   8.795  10.103  0.1278  0.1497 -0.4854
  667MOL0     C89951   5.309   8.870  10.203  0.6417  0.7761  0.0930
  667MOL0     C89952   5.178   8.906  10.134 -0.0260 -0.8904  0.4638
  667MOL0     C89953   5.105   8.786  10.075 -0.5828  0.2016  0.7893
  667MOL0     C89954   4.952   8.811  10.057  0.1598  0.5765 -0.4253
  667MOL0    Cl89955   4.924   8.970   9.980  0.0136 -0.0420  0.0853
  667MOL0     C89956   6.066   8.719  10.426  0.6675  0.4384  0.2335
  667MOL0     C89957   6.201   8.742  10.427  0.0388  0.4438 -0.0422
  667MOL0     O89958   6.442   8.642  10.285 -0.3082  0.3130 -0.6653
  667MOL0     C89959   6.639   8.912  10.417 -0.3610  0.2613 -0.5228
  667MOL0     C89960   6.767   8.949  10.460 -0.0238 -0.8743 -0.2733
  667MOL0     N89961   7.441   8.992  10.275  0.1689 -0.5472 -0.0421
  667MOL0     N89962   7.516   9.086  10.230 -0.2891 -0.4084 -0.0950
  667MOL0     C89963   8.357   9.193   9.582 -0.0419  0.3793 -0.0958
  667MOL0     C89964   8.475   9.151   9.523  0.0972 -0.6574  0.6229
  667MOL0     C89965   8.901   9.098   9.414 -0.1958  0.5693  0.3198
  667MOL0     C89966   8.887   8.963   9.370 -0.4624  0.4272  0.6650
  667MOL0     C89967   8.971   8.912   9.263  0.4333 -0.5412 -0.5223
  667MOL0     C89968   9.076   8.984   9.217 -0.1456  0.1484 -0.4813
  667MOL0     O89969   9.161   8.940   9.119  0.2111 -0.7618  0.4627
  667MOL0     C89970   9.193   8.806   9.120 -0.3374  0.8597  0.5100
  667MOL0     C89971   9.314   8.772   9.040 -0.5736 -0.2220  0.1081
  667MOL0     C89972   9.336   8.612   9.040 -0.6469 -1.3542 -0.2425
  667MOL0     C89973   9.460   8.578   8.953  0.7669  0.1720  0.5235
  667MOL0     C89974   9.577   8.647   9.008  0.1561 -1.3547  0.4042
  667MOL0     C89975   9.663   8.717   9.068 -0.2784 -0.7514 -0.1891
  667MOL0     C89976   9.089   9.117   9.260  0.1266  0.0412 -0.8329
  667MOL0     C89977   9.008   9.169   9.367  0.4582 -0.1020 -0.6069
  667MOL0     H89978   8.678   9.152   9.794  0.5273  1.0367  0.8382
  667MOL0     H89979   8.472   9.248   9.893  2.1789 -0.9739  0.4631
  667MOL0     H89980   8.255   9.272   9.973  0.9050  2.1479  1.9812
  667MOL0     H89981   8.307   9.416   9.902  0.6632 -0.8348  1.2578
  667MOL0     H89982   8.075   9.464   9.822  2.2236  2.5392  1.9266
  667MOL0     H89983   8.015   9.325   9.922 -0.3685 -0.1926  0.6489
  667MOL0     H89984   8.172   9.569  10.017 -0.2280  1.3509  1.2045
  667MOL0     H89985   8.003   9.564  10.026 -0.3422  1.3510  0.1256
  667MOL0     H89986   8.180   9.384  10.201 -0.3475 -1.7287  0.5650
  667MOL0     H89987   8.073   9.529  10.233  1.8134  0.1156  0.4328
  667MOL0     H89988   7.878   9.398  10.171  2.0572  1.2958 -2.7555
  667MOL0     H89989   7.968   9.254  10.133  0.0085  1.3370 -2.1897
  667MOL0     H89990   8.020   9.229  10.382  0.6981 -0.9267 -0.3660
  667MOL0     H89991   7.921   9.381  10.406 -2.6178 -0.5599  0.8516
  667MOL0     H89992   7.834   9.125  10.269 -0.1064  1.0634 -1.5158
  667MOL0     H89993   7.814   9.147  10.449 -1.5037  1.7319  0.0526
  667MOL0     H89994   7.661   9.314  10.248 -1.7990  3.2491  1.5603
  667MOL0     H89995   7.659   9.320  10.415 -4.2377  0.4649 -2.2432
  667MOL0     H89996   7.601   9.094  10.552  1.2822 -0.7463  0.0012
  667MOL0     H89997   7.386   8.777  10.422  0.5146 -1.7771  2.0750
  667MOL0     H89998   7.531   8.800  10.518  1.5221  2.8091 -0.0231
  667MOL0     H89999   7.409   8.953  10.674  0.5496 -1.3914  1.3367
  667MOL0     H90000   7.352   8.787  10.689  0.2433  0.8878  2.7443
  667MOL0     H90001   7.230   9.027  10.542  2.0564  0.7060  2.2204
  667MOL0     H90002   7.170   8.970  10.692 -0.2663  1.0983 -1.0290
  667MOL0     H90003   7.102   8.749  10.592  1.2931 -0.2116 -1.3697
  667MOL0     H90004   7.143   8.821  10.439  0.2669 -1.8524 -0.1353
  667MOL0     H90005   6.960   8.685  10.399  3.4334  3.3982 -0.4030
  667MOL0     H90006   6.639   8.506  10.372 -0.6136  1.2676 -1.2891
  667MOL0     H90007   6.734   8.538  10.222 -0.8532 -0.0953  0.4042
  667MOL0     H90008   6.817   8.501  10.381  0.7133  1.5034  1.4849
  667MOL0     H90009   6.221   8.998  10.213 -1.3678  0.2642 -0.8711
  667MOL0     H90010   5.992   8.937  10.180  0.2292  3.0658  1.4818
  667MOL0     H90011   5.795   8.914  10.216  3.9456 -1.0569 -0.3622
  667MOL0     H90012   5.820   8.756  10.135  0.1467 -2.0761  0.6711
  667MOL0     H90013   5.632   8.657  10.228  0.3393 -0.4744  0.9186
  667MOL0     H90014   5.599   8.805  10.336 -1.0869 -3.9241  0.2291
  667MOL0     H90015   5.591   8.775  10.030 -1.3448 -4.6319  1.6077
  667MOL0     H90016   5.570   8.928  10.118  1.3929  0.1920  5.2721
  667MOL0     H90017   5.367   8.842  10.010 -1.7576  0.0231  0.0571
  667MOL0     H90018   5.384   8.687  10.109  3.4762 -0.3356  3.0133
  667MOL0     H90019   5.359   8.960  10.241  2.2624  0.3514 -0.9389
  667MOL0     H90020   5.297   8.804  10.291  2.7220 -0.9311 -0.8046
  667MOL0     H90021   5.107   8.950  10.203 -0.8327 -0.6925 -0.4706
  667MOL0     H90022   5.202   8.964  10.044 -0.6858 -1.3485 -0.0156
  667MOL0     H90023   5.113   8.691  10.130  0.7691  0.2240  0.6650
  667MOL0     H90024   5.141   8.768   9.974 -2.1299  4.6107 -0.7856
  667MOL0     H90025   4.897   8.814  10.151 -0.7298 -0.8360 -0.8819
  667MOL0     H90026   4.903   8.728  10.006  2.0289 -1.4796  0.9000
  667MOL0     H90027   6.010   8.652  10.490 -1.1263 -1.0347 -2.6419
  667MOL0     H90028   6.249   8.674  10.497 -3.2773  0.9898  3.0820
  667MOL0     H90029   6.572   8.997  10.414  1.6142  1.8628 -1.9284
  667MOL0     H90030   6.764   9.051  10.498 -1.4853 -1.2416  0.6615
  667MOL0     H90031   8.270   9.212   9.520  0.6153 -0.9947 -1.4997
  667MOL0     H90032   8.490   9.115   9.421  2.5421 -0.5487  0.8787
  667MOL0     H90033   8.801   8.905   9.401 -1.4022  0.1080 -2.2069
  667MOL0     H90034   8.954   8.820   9.208 -2.0664  0.2594 -1.2305
  667MOL0     H90035   9.216   8.778   9.223 -0.6736  1.9293  0.8822
  667MOL0     H90036   9.110   8.755   9.069  0.8246  0.9367 -1.5782
  667MOL0     H90037   9.400   8.826   9.078 -1.1785  0.2157  0.8992
  667MOL0     H90038   9.295   8.805   8.938  2.0394 -1.3526 -0.8097
  667MOL0     H90039   9.251   8.562   8.994 -0.7312  0.0778 -1.7312
  667MOL0     H90040   9.346   8.580   9.144 -0.3058 -0.5384 -0.0219
  667MOL0     H90041   9.449   8.619   8.852  1.0404  1.9880  1.1992
  667MOL0     H90042   9.478   8.470   8.943 -1.1229 -0.1252  0.0149
  667MOL0     H90043   9.744   8.769   9.114 -0.3094 -0.6617 -0.2365
  667MOL0     H90044   9.176   9.174   9.229  1.1044 -0.6283  0.5483
  667MOL0     H90045   9.031   9.273   9.389  0.8484 -0.2381 -0.3468
  668MOL0     O90046  11.049  11.076  11.034  0.2878 -0.5174  0.7401
  668MOL0     C90047  11.057  10.955  11.028  0.8622 -1.0833 -0.6483
  668MOL0     O90048  10.964  10.863  11.050  0.1113 -0.9234 -0.0565
  668MOL0     C90049  10.839  10.897  11.078  1.0250 -0.7482  0.2534
  668MOL0     C90050  10.783  10.839  11.191  0.3465  0.0590 -0.1776
  668MOL0     C90051  10.650  10.855  11.216 -0.3937 -0.7447 -0.8592
  668MOL0     C90052  10.566  10.939  11.133 -0.8420 -0.4495 -0.0041
  668MOL0     O90053  10.429  10.936  11.165  0.5606 -0.6685  0.2401
  668MOL0     C90054  10.336  11.054  11.152 -0.7928  0.2010 -0.0056
  668MOL0     C90055  10.200  10.998  11.141  1.0103 -0.2754  0.4066
  668MOL0     C90056  10.164  10.895  11.251 -0.1370  0.5029 -0.3094
  668MOL0     C90057  10.020  10.856  11.238  0.2244  0.2535 -0.5519
  668MOL0     C90058   9.967  10.733  11.321 -0.4110 -1.1575  1.0460
  668MOL0     C90059   9.831  10.758  11.375 -0.5127  0.6489  0.2981
  668MOL0     C90060   9.722  10.743  11.279  0.3963  0.5078 -0.2782
  668MOL0     C90061   9.590  10.775  11.353 -0.3040  0.9379  0.5903
  668MOL0     N90062   9.468  10.745  11.271 -0.9044 -0.3514 -0.0634
  668MOL0     C90063   9.399  10.632  11.283  0.9883 -0.3944  0.2679
  668MOL0     C90064   9.320  10.631  11.171 -0.0178 -0.7208 -0.1817
  668MOL0     C90065   9.211  10.529  11.140  0.7793 -0.3256 -0.4180
  668MOL0     C90066   9.071  10.579  11.185 -0.3061  0.1353  0.0340
  668MOL0     C90067   8.965  10.471  11.155 -0.0411  0.4876  0.6652
  668MOL0     C90068   8.824  10.532  11.203  0.1272 -0.7463 -0.2609
  668MOL0     O90069   8.736  10.422  11.180  0.5834  1.4140  0.1553
  668MOL0     C90070   8.610  10.421  11.237  0.5637  0.1007 -0.9226
  668MOL0     C90071   8.544  10.547  11.254  0.4989 -0.2864 -0.9325
  668MOL0     C90072   8.411  10.555  11.303  0.3960 -0.4131 -0.2856
  668MOL0     C90073   8.334  10.687  11.285 -0.0422  0.6442  0.1844
  668MOL0     C90074   8.347  10.440  11.342  0.3556 -0.4647 -0.8381
  668MOL0     C90075   8.209  10.445  11.397  0.9182  0.5292 -0.2243
  668MOL0     O90076   8.167  10.565  11.460 -0.7471 -0.1977  0.0737
  668MOL0     C90077   8.037  10.585  11.503 -0.6499 -0.2769  0.0095
  668MOL0     C90078   7.942  10.582  11.403 -0.0203 -0.0077  0.1720
  668MOL0     C90079   7.810  10.593  11.454  0.5185 -0.6922  0.4142
  668MOL0     C90080   7.780  10.628  11.593 -0.2900 -0.3364  0.2867
  668MOL0     O90081   7.647  10.646  11.629 -0.1924  0.1821 -0.1063
  668MOL0     C90082   7.604  10.605  11.752 -0.4844 -0.2988  0.3227
  668MOL0     C90083   7.459  10.647  11.781 -0.3602 -0.2137  0.3865
  668MOL0     C90084   7.350  10.577  11.703 -0.1866  0.0551 -0.0013
  668MOL0     C90085   7.204  10.618  11.743  0.6271 -0.0808  0.5391
  668MOL0     C90086   7.102  10.542  11.655 -0.0302  0.1685  0.4449
  668MOL0     C90087   6.968  10.607  11.674  0.6909 -0.7560  0.1219
  668MOL0     C90088   6.881  10.580  11.551  0.3061 -0.8628  0.4357
  668MOL0     C90089   6.741  10.649  11.558 -0.8713  0.2055 -0.0727
  668MOL0    Cl90090   6.679  10.667  11.733 -0.2069 -0.0294  0.1218
  668MOL0     C90091   7.884  10.623  11.681 -0.8029  0.5368 -0.3356
  668MOL0     C90092   8.010  10.602  11.634 -0.2083 -0.0270 -0.5931
  668MOL0     O90093   8.149  10.340  11.413  0.7505 -0.2474  0.0230
  668MOL0     C90094   8.419  10.320  11.349  1.1364 -0.2753  0.3403
  668MOL0     C90095   8.545  10.303  11.291 -0.5904 -0.3796  0.7470
  668MOL0     N90096   9.361  10.727  11.085 -0.0440 -0.1712  0.5433
  668MOL0     N90097   9.444  10.803  11.143 -0.5901  0.6419  0.0598
  668MOL0     C90098  10.633  10.998  11.020  0.5959 -0.3931 -0.2276
  668MOL0     C90099  10.761  10.973  10.988 -0.3291  0.8792 -0.1173
  668MOL0     C90100  11.195  10.914  10.991  0.9106  0.8521 -0.7780
  668MOL0     C90101  11.309  10.986  11.027  1.0616 -0.3670 -0.4342
  668MOL0     C90102  11.440  10.940  10.998 -0.0460  0.4111  0.4869
  668MOL0     C90103  11.454  10.816  10.941  0.9704  0.1328  0.1907
  668MOL0     O90104  11.578  10.765  10.924 -0.2990 -0.2805 -0.2330
  668MOL0     C90105  11.606  10.630  10.895 -0.3310  0.5862 -0.2095
  668MOL0     C90106  11.739  10.576  10.951  1.5542 -0.0752  0.0929
  668MOL0     C90107  11.867  10.644  10.905 -0.4568  0.1256  0.6565
  668MOL0     C90108  12.001  10.582  10.949  0.9759 -0.5424 -0.3525
  668MOL0     C90109  12.108  10.636  10.865  0.9187  0.2362  0.1203
  668MOL0     C90110  12.206  10.672  10.798 -0.7424  0.1611 -0.3431
  668MOL0     C90111  11.342  10.735  10.905 -0.1510  0.0974  0.1077
  668MOL0     C90112  11.215  10.789  10.932 -0.4340  0.6990  0.0261
  668MOL0     H90113  10.859  10.782  11.244  1.1899  0.5009 -0.8885
  668MOL0     H90114  10.610  10.800  11.300  1.3441  0.0166  0.5298
  668MOL0     H90115  10.348  11.117  11.241  0.0659  1.5547 -1.0479
  668MOL0     H90116  10.348  11.120  11.067 -0.6601  0.8177  0.4846
  668MOL0     H90117  10.127  11.078  11.129  0.2411 -1.2109 -1.6654
  668MOL0     H90118  10.196  10.948  11.044  0.2439 -1.3799  0.9766
  668MOL0     H90119  10.224  10.804  11.241 -1.1032 -0.1571 -0.2492
  668MOL0     H90120  10.170  10.935  11.353 -2.1419 -0.6217  0.3215
  668MOL0     H90121   9.964  10.949  11.252  0.3441  0.2702 -0.1584
  668MOL0     H90122  10.004  10.841  11.131  0.7151  0.2210 -0.6253
  668MOL0     H90123   9.960  10.650  11.250  4.0211 -0.9824  0.1185
  668MOL0     H90124  10.036  10.716  11.404 -1.2542  2.0042  2.5143
  668MOL0     H90125   9.807  10.690  11.457 -3.5582  3.1049  1.6726
  668MOL0     H90126   9.823  10.858  11.420  5.1830  1.5099  0.0778
  668MOL0     H90127   9.741  10.806  11.192 -0.2323  1.4816  0.2777
  668MOL0     H90128   9.715  10.637  11.254  3.0878  0.4458 -1.0967
  668MOL0     H90129   9.586  10.882  11.378  1.7185  3.0945 -6.0901
  668MOL0     H90130   9.589  10.711  11.441  3.7205 -2.4206 -1.4412
  668MOL0     H90131   9.396  10.562  11.366  0.1876  1.4685  1.9007
  668MOL0     H90132   9.220  10.512  11.032  0.6631 -1.8218 -0.2082
  668MOL0     H90133   9.229  10.437  11.196 -1.4808  0.1027  1.1463
  668MOL0     H90134   9.052  10.672  11.131  2.4474 -0.0964 -1.4748
  668MOL0     H90135   9.063  10.595  11.293 -3.8550  3.8357 -0.5130
  668MOL0     H90136   8.988  10.374  11.200  1.8749 -0.6836 -2.4579
  668MOL0     H90137   8.955  10.451  11.048 -1.8719 -2.1703  1.2460
  668MOL0     H90138   8.792  10.621  11.148 -2.7912 -0.7163  1.3193
  668MOL0     H90139   8.821  10.557  11.310 -0.7230  2.5620 -0.9411
  668MOL0     H90140   8.585  10.640  11.215  0.2752  1.1051  1.9085
  668MOL0     H90141   8.239  10.668  11.234  0.6292 -1.8556 -0.2571
  668MOL0     H90142   8.317  10.729  11.384 -1.0626  0.6757  0.0002
  668MOL0     H90143   8.397  10.754  11.225  1.9556 -1.1084  0.2094
  668MOL0     H90144   7.970  10.569  11.299  1.7109  2.5764  0.2190
  668MOL0     H90145   7.726  10.602  11.386  0.3243 -0.8477  0.6316
  668MOL0     H90146   7.607  10.497  11.771 -3.9405 -0.3950  1.0346
  668MOL0     H90147   7.673  10.655  11.822  1.7001 -0.2769 -1.7057
  668MOL0     H90148   7.443  10.642  11.889  0.7081 -0.7959  0.5390
  668MOL0     H90149   7.459  10.755  11.761 -3.1613 -0.0256  0.9945
  668MOL0     H90150   7.360  10.470  11.723  1.5459  0.1282 -0.3410
  668MOL0     H90151   7.365  10.585  11.595  1.9096 -2.4389  0.0192
  668MOL0     H90152   7.174  10.607  11.847 -1.6531  1.5886  0.1510
  668MOL0     H90153   7.194  10.726  11.726  2.4320 -0.2434 -2.2231
  668MOL0     H90154   7.109  10.438  11.688  3.7289  0.6211  1.5578
  668MOL0     H90155   7.127  10.548  11.548 -1.0941 -0.3922  0.1501
  668MOL0     H90156   6.925  10.567  11.767  1.1901 -2.1653 -0.2217
  668MOL0     H90157   6.985  10.715  11.673  2.1746 -0.8833  2.4824
  668MOL0     H90158   6.874  10.471  11.551 -1.0233 -0.8301 -1.5091
  668MOL0     H90159   6.927  10.616  11.459  3.8187  1.1736  2.7540
  668MOL0     H90160   6.677  10.593  11.489 -0.3517 -0.5268  0.0368
  668MOL0     H90161   6.753  10.752  11.522 -0.0950 -0.0266 -0.4899
  668MOL0     H90162   7.886  10.628  11.790  2.7251  1.7866 -0.3377
  668MOL0     H90163   8.093  10.593  11.703 -0.7517 -1.8037 -0.1195
  668MOL0     H90164   8.375  10.230  11.390  1.3678 -0.5197  0.0519
  668MOL0     H90165   8.588  10.204  11.289 -2.4053 -1.2089 -0.7074
  668MOL0     H90166  10.569  11.058  10.956 -0.3845 -2.4987 -1.3566
  668MOL0     H90167  10.796  10.989  10.886  0.3082 -1.7331 -0.3840
  668MOL0     H90168  11.289  11.084  11.070  0.6260 -1.1612  1.2574
  668MOL0     H90169  11.530  10.994  11.024  0.3078 -0.1699  0.4828
  668MOL0     H90170  11.526  10.560  10.922  1.0767  0.0067  2.8366
  668MOL0     H90171  11.610  10.636  10.785 -0.7311 -0.1424 -0.2697
  668MOL0     H90172  11.733  10.473  10.916 -0.6479  0.1471 -0.3704
  668MOL0     H90173  11.736  10.571  11.060  2.7078 -1.9862  0.0812
  668MOL0     H90174  11.862  10.748  10.937 -3.6135  0.7304 -1.3952
  668MOL0     H90175  11.869  10.635  10.796  0.4936 -1.4391  0.7703
  668MOL0     H90176  11.981  10.475  10.937  0.2725 -0.2844 -1.6207
  668MOL0     H90177  12.032  10.608  11.051  2.3149  0.2165 -0.9274
  668MOL0     H90178  12.278  10.708  10.727 -0.8510 -1.6516 -1.4357
  668MOL0     H90179  11.350  10.635  10.864 -0.2865  0.3252 -0.4859
  668MOL0     H90180  11.131  10.728  10.900 -0.5476  0.7382  0.2475
  669MOL0     O90181   8.891   1.471   8.941 -0.4491 -0.6489  0.2239
  669MOL0     C90182   8.975   1.456   9.036  0.6085  0.4793  0.6419
  669MOL0     O90183   8.967   1.369   9.132 -0.5604  0.7271  0.4167
  669MOL0     C90184   8.858   1.292   9.141  0.0260  1.0818  0.7638
  669MOL0     C90185   8.820   1.194   9.045 -0.6390  0.3224 -0.3148
  669MOL0     C90186   8.702   1.122   9.075  0.7915 -1.0876  0.9027
  669MOL0     C90187   8.630   1.131   9.195  0.3900 -0.0517 -0.5853
  669MOL0     O90188   8.516   1.053   9.200  0.2043 -0.0210  0.3298
  669MOL0     C90189   8.398   1.117   9.260 -0.5311 -0.5308 -0.1044
  669MOL0     C90190   8.280   1.019   9.241  0.0414 -0.2884  0.5139
  669MOL0     C90191   8.138   1.063   9.270 -0.2003  0.7557  0.0687
  669MOL0     C90192   8.066   1.103   9.135 -0.1655 -0.0380 -0.5757
  669MOL0     C90193   7.913   1.130   9.147  0.6195  0.3823  0.8095
  669MOL0     C90194   7.843   1.114   9.012 -0.0416 -0.4408  0.5291
  669MOL0     C90195   7.879   1.208   8.902  0.3497  0.4869 -0.3028
  669MOL0     C90196   7.798   1.158   8.782 -0.4007  0.4064  0.6410
  669MOL0     N90197   7.655   1.185   8.783 -0.6693  0.5386  0.1283
  669MOL0     C90198   7.550   1.108   8.749  0.3307  0.7288  0.9428
  669MOL0     C90199   7.436   1.192   8.750  0.5195  0.2957  0.4752
  669MOL0     C90200   7.296   1.148   8.705  0.2488  0.7032 -0.4372
  669MOL0     C90201   7.179   1.214   8.780 -0.3641  0.1393 -0.5622
  669MOL0     C90202   7.192   1.166   8.928 -0.0445  0.0693 -0.2686
  669MOL0     C90203   7.055   1.172   9.005  0.9417  0.4642 -1.1946
  669MOL0     O90204   7.044   1.282   9.089  0.2333 -0.5597  0.6499
  669MOL0     C90205   6.955   1.382   9.059 -0.3040 -0.0689 -0.5637
  669MOL0     C90206   7.013   1.496   9.009  0.2808  0.2670 -0.8383
  669MOL0     C90207   6.936   1.604   8.972  0.3266 -1.1393  0.3467
  669MOL0     C90208   7.013   1.718   8.914 -0.1001  0.3190  0.8298
  669MOL0     C90209   6.803   1.612   9.022 -0.6324 -0.0103 -0.4115
  669MOL0     C90210   6.706   1.723   9.002 -1.0420  0.4719 -0.6136
  669MOL0     O90211   6.585   1.717   9.073 -0.6220  0.3194 -0.2453
  669MOL0     C90212   6.487   1.810   9.035  0.3836  1.2429 -0.5711
  669MOL0     C90213   6.431   1.800   8.907  0.1161  0.8673  0.1229
  669MOL0     C90214   6.338   1.895   8.871  0.3340  1.2778 -0.3206
  669MOL0     C90215   6.301   2.004   8.958 -0.0302 -0.4135 -1.3068
  669MOL0     O90216   6.203   2.090   8.910  0.2170 -0.5481 -0.8209
  669MOL0     C90217   6.111   2.144   9.012 -0.0203  0.4827  0.3594
  669MOL0     C90218   5.972   2.185   8.967  1.0804 -0.2016  0.0363
  669MOL0     C90219   5.876   2.066   8.921  0.5665  0.4000 -0.3827
  669MOL0     C90220   5.921   1.983   8.806  0.2803  0.2804 -0.4345
  669MOL0     C90221   5.821   1.865   8.774  0.2614  0.8005 -0.2514
  669MOL0     C90222   5.684   1.906   8.722 -0.5849 -0.0733  0.5262
  669MOL0     C90223   5.591   1.794   8.740 -0.0313 -0.4466  0.0285
  669MOL0     C90224   5.624   1.676   8.639 -0.0438  0.3955 -0.6377
  669MOL0    Cl90225   5.643   1.736   8.469  0.0474  0.4186 -0.4419
  669MOL0     C90226   6.348   2.002   9.084  0.3920 -0.6455  0.0620
  669MOL0     C90227   6.443   1.913   9.124 -0.6457 -0.1427 -0.3982
  669MOL0     O90228   6.728   1.807   8.914 -0.5861 -0.3237 -0.4178
  669MOL0     C90229   6.745   1.496   9.087 -0.0897  0.0199  0.2847
  669MOL0     C90230   6.822   1.376   9.098  0.5780 -0.4419  0.0167
  669MOL0     N90231   7.468   1.316   8.787 -0.7595 -0.1794  0.2497
  669MOL0     N90232   7.597   1.309   8.819  0.0163  0.8472 -0.0146
  669MOL0     C90233   8.679   1.217   9.296 -0.5947 -0.8924  0.7887
  669MOL0     C90234   8.791   1.293   9.266 -0.4481 -0.0819 -0.3108
  669MOL0     C90235   9.082   1.546   9.067 -0.2278  0.7090  0.0826
  669MOL0     C90236   9.073   1.683   9.030 -0.9221  0.5138 -0.2332
  669MOL0     C90237   9.187   1.760   9.053 -0.0369  0.3678 -0.4669
  669MOL0     C90238   9.311   1.714   9.096 -0.7366  0.9844  0.6188
  669MOL0     O90239   9.405   1.808   9.127  0.5669  0.1477  0.0280
  669MOL0     C90240   9.520   1.763   9.185 -0.1170  0.0163 -0.5963
  669MOL0     C90241   9.607   1.871   9.241 -0.5407  0.1995  0.1236
  669MOL0     C90242   9.535   1.984   9.312  0.2686 -0.0466  0.3887
  669MOL0     C90243   9.626   2.096   9.368  0.1998 -0.6673  0.0442
  669MOL0     C90244   9.543   2.191   9.450  0.2850 -0.3297  0.6693
  669MOL0     C90245   9.476   2.263   9.525 -0.2505 -0.0320  0.5952
  669MOL0     C90246   9.311   1.570   9.120 -0.0190  0.9011 -0.2567
  669MOL0     C90247   9.199   1.485   9.103  0.1001 -0.1264 -0.3685
  669MOL0     H90248   8.887   1.192   8.959  2.8340 -1.8605  2.1587
  669MOL0     H90249   8.662   1.048   9.006  1.1841 -0.3993 -0.0789
  669MOL0     H90250   8.406   1.154   9.363 -0.7690 -1.9152  0.4366
  669MOL0     H90251   8.377   1.209   9.205 -0.7442 -0.5946 -0.1298
  669MOL0     H90252   8.294   0.981   9.139  0.4116  0.0621  0.4297
  669MOL0     H90253   8.303   0.945   9.318  1.6916 -0.0275  0.3141
  669MOL0     H90254   8.088   0.983   9.327  0.5845  1.0721  1.2407
  669MOL0     H90255   8.142   1.148   9.338 -1.0597  0.1212  0.9651
  669MOL0     H90256   8.113   1.189   9.088 -3.5632  2.1532 -0.3097
  669MOL0     H90257   8.080   1.030   9.055 -0.3648 -0.1705 -0.4925
  669MOL0     H90258   7.866   1.057   9.213 -0.3151 -2.2985 -2.5458
  669MOL0     H90259   7.893   1.225   9.198 -0.1577  1.2592 -1.0231
  669MOL0     H90260   7.870   1.010   8.991 -1.2551 -0.5259 -0.7762
  669MOL0     H90261   7.735   1.121   9.028 -0.5276 -2.1566 -1.4827
  669MOL0     H90262   7.853   1.312   8.923  0.3926  0.2527  0.9618
  669MOL0     H90263   7.985   1.202   8.872  0.0101  0.6036 -1.5902
  669MOL0     H90264   7.811   1.050   8.782 -0.0546  0.4340 -0.4006
  669MOL0     H90265   7.856   1.197   8.697 -1.9449 -0.9723 -1.1263
  669MOL0     H90266   7.540   1.004   8.720 -0.1579  1.7792 -3.1877
  669MOL0     H90267   7.279   1.176   8.601  2.7304  1.7192 -0.6321
  669MOL0     H90268   7.286   1.039   8.705  0.1552  0.7097  0.0870
  669MOL0     H90269   7.081   1.186   8.740 -0.8518  0.2511  0.5320
  669MOL0     H90270   7.187   1.323   8.781  1.5036  0.0369  1.6230
  669MOL0     H90271   7.275   1.214   8.980  0.4595  0.9856 -1.8405
  669MOL0     H90272   7.214   1.059   8.927 -2.2609 -0.4614 -1.5108
  669MOL0     H90273   7.044   1.087   9.072  1.4368  0.3155 -1.2983
  669MOL0     H90274   6.966   1.171   8.941  0.5401 -0.3799 -0.6383
  669MOL0     H90275   7.122   1.494   9.008  0.2835 -1.7927 -0.9382
  669MOL0     H90276   7.035   1.707   8.808  2.4387  1.1419  1.1869
  669MOL0     H90277   6.975   1.818   8.937 -0.1093  1.0806 -2.1095
  669MOL0     H90278   7.115   1.708   8.953  0.3711  1.0569 -0.1663
  669MOL0     H90279   6.451   1.716   8.842 -0.1953  0.4538  0.5558
  669MOL0     H90280   6.285   1.899   8.776 -0.2824 -1.2055 -0.1583
  669MOL0     H90281   6.091   2.071   9.092 -0.8842  2.5535  2.1265
  669MOL0     H90282   6.154   2.238   9.047 -0.7636  1.0245 -0.1852
  669MOL0     H90283   5.932   2.252   9.044 -0.3744  0.6794 -1.4120
  669MOL0     H90284   5.983   2.250   8.879 -1.4411  1.3153  0.7236
  669MOL0     H90285   5.780   2.111   8.895  0.9933  1.6430  0.0749
  669MOL0     H90286   5.858   1.989   8.997 -1.6370  1.5948  0.3810
  669MOL0     H90287   5.926   2.058   8.727  0.2829  0.7229 -0.0195
  669MOL0     H90288   6.015   1.933   8.830  1.7072  3.3808  0.9858
  669MOL0     H90289   5.805   1.814   8.870  2.5528  1.9517  0.8378
  669MOL0     H90290   5.869   1.804   8.697 -0.9839 -1.5221  0.7240
  669MOL0     H90291   5.647   1.982   8.792 -2.0430 -1.6086  1.5056
  669MOL0     H90292   5.690   1.955   8.624  0.5545  2.3421  1.7121
  669MOL0     H90293   5.490   1.829   8.716  0.4412 -0.5050 -2.1985
  669MOL0     H90294   5.599   1.764   8.845  1.5422  2.1288  0.7280
  669MOL0     H90295   5.536   1.611   8.652  1.4854 -1.1745  3.4711
  669MOL0     H90296   5.714   1.624   8.673  0.6052  1.0933 -1.2545
  669MOL0     H90297   6.326   2.081   9.154 -0.2485 -0.9420  0.1985
  669MOL0     H90298   6.484   1.925   9.224  0.5892 -2.4411 -0.5683
  669MOL0     H90299   6.649   1.494   9.136 -0.0097  1.0450  0.5174
  669MOL0     H90300   6.788   1.289   9.154 -1.5360  2.5354  3.7962
  669MOL0     H90301   8.627   1.219   9.391 -0.1300 -2.4354  1.1094
  669MOL0     H90302   8.829   1.366   9.337  1.9071  0.5151 -2.0778
  669MOL0     H90303   8.981   1.712   8.980 -0.0579  0.9190 -1.6418
  669MOL0     H90304   9.185   1.865   9.025 -0.1758  0.8999  1.4494
  669MOL0     H90305   9.483   1.693   9.261 -3.0480  2.7509  0.7272
  669MOL0     H90306   9.579   1.719   9.104 -0.9104 -1.3621 -0.4530
  669MOL0     H90307   9.663   1.911   9.156  1.1715  1.5184  1.7676
  669MOL0     H90308   9.684   1.824   9.303 -0.0791  2.1846  1.1595
  669MOL0     H90309   9.465   1.948   9.389  0.4240  0.1609  0.6321
  669MOL0     H90310   9.459   2.021   9.242 -1.1221 -2.0938  0.7250
  669MOL0     H90311   9.667   2.142   9.277  0.8212 -0.7685  0.2623
  669MOL0     H90312   9.707   2.055   9.429 -0.6370 -0.4938  1.3055
  669MOL0     H90313   9.409   2.320   9.586 -1.3554  0.4255 -1.0007
  669MOL0     H90314   9.399   1.520   9.157 -1.9313 -1.2879  1.6726
  669MOL0     H90315   9.211   1.378   9.106 -0.2475 -0.1510  0.1748
  670MOL0     O90316   0.148   4.050   8.958 -0.1502 -0.3002 -0.2197
  670MOL0     C90317   0.130   3.932   8.922 -0.6062 -0.4287 -0.0253
  670MOL0     O90318   0.007   3.893   8.874  1.0369 -0.2884  0.2901
  670MOL0     C90319  -0.096   3.981   8.875 -0.6556  0.0084 -0.5324
  670MOL0     C90320  -0.198   3.966   8.969 -0.8749  0.1294 -0.0123
  670MOL0     C90321  -0.294   4.066   8.984  0.8815  0.6348  0.5837
  670MOL0     C90322  -0.309   4.154   8.877 -0.0895 -0.0385  0.1150
  670MOL0     O90323  -0.417   4.245   8.888 -0.3052  0.1930  0.0087
  670MOL0     C90324  -0.434   4.347   8.778  0.6320 -0.0567 -0.9776
  670MOL0     C90325  -0.555   4.431   8.820 -0.5243  0.1641 -1.0379
  670MOL0     C90326  -0.529   4.496   8.960 -0.4277 -0.4233 -0.7138
  670MOL0     C90327  -0.647   4.584   8.985  0.3685 -0.2620 -0.1939
  670MOL0     C90328  -0.621   4.662   9.112  0.3224  1.1942 -0.0158
  670MOL0     C90329  -0.532   4.789   9.098  0.3955  0.1260  0.1162
  670MOL0     C90330  -0.514   4.859   9.240  0.1970 -0.4022  0.7784
  670MOL0     C90331  -0.450   5.001   9.230  0.1642  0.5034  0.2938
  670MOL0     N90332  -0.314   4.998   9.172 -0.2177 -0.0458 -0.2937
  670MOL0     C90333  -0.204   4.934   9.226 -0.0431  0.1038 -0.7000
  670MOL0     C90334  -0.097   4.971   9.151  1.1861  0.5867  0.7919
  670MOL0     C90335   0.036   4.908   9.168 -0.4324  0.2023  1.1182
  670MOL0     C90336   0.121   4.961   9.286  0.1108  0.5509  1.1013
  670MOL0     C90337   0.174   5.099   9.257 -0.7775 -0.1918  0.6270
  670MOL0     C90338   0.304   5.101   9.188 -0.1311  0.3503  0.0538
  670MOL0     O90339   0.418   5.074   9.275  0.0955 -0.1510 -0.2311
  670MOL0     C90340   0.545   5.050   9.222  0.0710 -0.3389 -1.4692
  670MOL0     C90341   0.638   5.014   9.315 -0.9011  0.1293 -0.1008
  670MOL0     C90342   0.772   5.007   9.274  0.6407 -0.0935  0.2928
  670MOL0     C90343   0.864   4.968   9.386 -0.0712  0.1282 -0.1555
  670MOL0     C90344   0.810   5.028   9.140 -0.1615 -0.1543 -0.0843
  670MOL0     C90345   0.953   5.034   9.091 -0.5371 -0.3385  0.9850
  670MOL0     O90346   0.965   5.008   8.952  0.8970  0.3732  0.4129
  670MOL0     C90347   1.094   5.016   8.895 -0.2234 -0.0883  0.2025
  670MOL0     C90348   1.111   4.928   8.791 -0.5639  0.8197 -0.2755
  670MOL0     C90349   1.232   4.921   8.725  0.1319  0.1757  0.2002
  670MOL0     C90350   1.331   5.013   8.749 -0.2470  0.0127 -0.5983
  670MOL0     O90351   1.452   5.012   8.680 -1.2622  0.8309  0.7146
  670MOL0     C90352   1.472   4.937   8.560 -0.3903 -0.0323  0.6847
  670MOL0     C90353   1.622   4.934   8.547 -0.0757 -0.2270 -0.3185
  670MOL0     C90354   1.676   4.833   8.451  0.4637  0.0761 -0.2789
  670MOL0     C90355   1.630   4.864   8.309  0.1074  0.1377 -0.0120
  670MOL0     C90356   1.687   4.763   8.205  0.3231 -0.3038 -0.6733
  670MOL0     C90357   1.827   4.717   8.228  0.0704  0.5775  0.7701
  670MOL0     C90358   1.861   4.614   8.120 -0.3055 -0.2730  0.2992
  670MOL0     C90359   1.998   4.556   8.141 -0.0286 -0.0976 -0.7329
  670MOL0    Cl90360   2.055   4.452   8.012 -0.1186 -0.8777  0.2837
  670MOL0     C90361   1.317   5.107   8.852 -0.4323  0.0611  1.0254
  670MOL0     C90362   1.200   5.100   8.935 -0.7760 -0.4532 -0.9124
  670MOL0     O90363   1.050   5.056   9.169  0.1443 -0.1913  0.1591
  670MOL0     C90364   0.701   5.039   9.048 -0.3294 -0.8538  1.1056
  670MOL0     C90365   0.572   5.068   9.086 -0.1377  0.1775 -0.1800
  670MOL0     N90366  -0.150   5.047   9.050  0.4951 -1.0338  0.1667
  670MOL0     N90367  -0.277   5.064   9.057 -0.6331  0.6056  0.2295
  670MOL0     C90368  -0.214   4.157   8.775  0.2343 -0.4008  0.6532
  670MOL0     C90369  -0.099   4.075   8.775  0.5789 -1.0595 -0.9605
  670MOL0     C90370   0.245   3.838   8.918  0.9049  0.5785 -0.6231
  670MOL0     C90371   0.231   3.701   8.884  0.1424  1.3074 -0.1641
  670MOL0     C90372   0.345   3.614   8.872  0.9625 -0.1734  0.8762
  670MOL0     C90373   0.472   3.658   8.891  0.2658 -0.2176  0.4116
  670MOL0     O90374   0.574   3.575   8.867  0.3316 -0.0303  0.3661
  670MOL0     C90375   0.697   3.611   8.928 -0.4339 -0.3934  0.8945
  670MOL0     C90376   0.777   3.476   8.931 -0.1598 -0.5409  0.1317
  670MOL0     C90377   0.917   3.526   8.985 -0.9786  0.8210  0.3676
  670MOL0     C90378   0.999   3.404   9.016  0.4012  0.4492 -1.0810
  670MOL0     C90379   0.942   3.341   9.138  0.3296 -0.0184  0.5593
  670MOL0     C90380   0.883   3.282   9.231  0.2434  0.7007  0.0993
  670MOL0     C90381   0.487   3.789   8.931 -0.6644  0.0669  1.5471
  670MOL0     C90382   0.381   3.882   8.935  0.2819 -0.7029 -1.1346
  670MOL0     H90383  -0.190   3.888   9.044 -0.4303 -0.5255 -0.7244
  670MOL0     H90384  -0.360   4.063   9.070  1.1944 -0.4677  0.8036
  670MOL0     H90385  -0.356   4.420   8.755  1.7190 -0.7299  0.3989
  670MOL0     H90386  -0.467   4.295   8.688 -2.3475 -1.7461  0.9043
  670MOL0     H90387  -0.572   4.510   8.747 -0.2467  0.9169 -0.3098
  670MOL0     H90388  -0.644   4.366   8.827  0.3706 -0.9407  0.9323
  670MOL0     H90389  -0.516   4.416   9.033  1.9727 -0.6859 -1.3081
  670MOL0     H90390  -0.436   4.553   8.973 -0.6320 -0.6996  2.8593
  670MOL0     H90391  -0.661   4.647   8.897 -0.0488 -2.9638 -2.2100
  670MOL0     H90392  -0.733   4.519   8.999  0.4656 -0.6450 -1.2729
  670MOL0     H90393  -0.719   4.704   9.136  0.2905  2.1698 -1.6871
  670MOL0     H90394  -0.590   4.593   9.191  2.1254 -0.1257 -1.7835
  670MOL0     H90395  -0.433   4.766   9.058  0.9014  0.4879  1.1025
  670MOL0     H90396  -0.579   4.872   9.044  2.0252  0.4064 -0.9477
  670MOL0     H90397  -0.614   4.867   9.283  1.0836  1.1369  2.7131
  670MOL0     H90398  -0.445   4.803   9.304 -0.9254 -0.2978  2.1169
  670MOL0     H90399  -0.457   5.045   9.329 -1.2315 -0.5340  0.6902
  670MOL0     H90400  -0.520   5.066   9.176  0.9711  0.7553 -0.4665
  670MOL0     H90401  -0.187   4.866   9.308  0.4552  1.6898  0.5611
  670MOL0     H90402   0.036   4.799   9.175  3.3142  0.0320  0.3865
  670MOL0     H90403   0.101   4.914   9.080 -0.2620 -2.0215  1.0245
  670MOL0     H90404   0.205   4.895   9.312  1.1086 -0.4599 -3.7637
  670MOL0     H90405   0.048   4.969   9.367  0.9130 -0.0502  1.9076
  670MOL0     H90406   0.179   5.151   9.354 -2.3828 -1.5820  1.4915
  670MOL0     H90407   0.100   5.148   9.194  1.3468 -0.3615 -2.2330
  670MOL0     H90408   0.307   5.203   9.148  0.2161 -0.1070 -1.1252
  670MOL0     H90409   0.308   5.025   9.109 -0.9432  0.1417  0.2032
  670MOL0     H90410   0.608   4.995   9.417 -0.7671 -0.4384 -0.1619
  670MOL0     H90411   0.817   4.968   9.485  0.0119 -1.6653 -0.0856
  670MOL0     H90412   0.918   4.873   9.381  0.1436  0.2998 -1.5422
  670MOL0     H90413   0.938   5.049   9.395  0.5545 -0.5285  0.8929
  670MOL0     H90414   1.021   4.877   8.761 -3.1651  3.8793  1.6779
  670MOL0     H90415   1.249   4.852   8.643  1.2315  0.2138  0.3749
  670MOL0     H90416   1.438   4.834   8.577  2.6185 -0.9403  1.8722
  670MOL0     H90417   1.411   4.985   8.483 -1.2653 -4.5983 -1.8569
  670MOL0     H90418   1.641   5.037   8.516 -3.8445  0.3159 -1.4320
  670MOL0     H90419   1.655   4.924   8.650  1.5083  1.4545 -0.6212
  670MOL0     H90420   1.646   4.731   8.479 -0.2740 -0.1489 -1.7968
  670MOL0     H90421   1.786   4.831   8.458  0.5543 -5.3174  1.8283
  670MOL0     H90422   1.522   4.850   8.314  0.1739  0.0236  3.5586
  670MOL0     H90423   1.658   4.967   8.282  0.0962 -0.4036 -2.2600
  670MOL0     H90424   1.688   4.813   8.107  0.4977  0.7432 -0.1515
  670MOL0     H90425   1.613   4.686   8.181  0.2062  1.0663 -6.0096
  670MOL0     H90426   1.896   4.802   8.224  1.7375 -0.7790 -0.4177
  670MOL0     H90427   1.839   4.677   8.329 -0.1046  2.0571  1.4095
  670MOL0     H90428   1.867   4.671   8.027  0.9495  1.7886  1.5514
  670MOL0     H90429   1.782   4.538   8.119 -0.6378  0.0630  0.7801
  670MOL0     H90430   1.994   4.505   8.237  0.2847  0.9017 -0.1677
  670MOL0     H90431   2.071   4.638   8.143 -2.0111  1.8456 -2.6123
  670MOL0     H90432   1.402   5.172   8.867  0.0424  0.0467 -1.2037
  670MOL0     H90433   1.212   5.171   9.016  0.1323 -0.6543 -0.8545
  670MOL0     H90434   0.715   5.043   8.940 -3.7255  0.6217  0.5726
  670MOL0     H90435   0.497   5.078   9.009  0.2605  2.3462 -0.3406
  670MOL0     H90436  -0.222   4.215   8.684  1.6069 -1.9200 -0.4955
  670MOL0     H90437  -0.011   4.074   8.712  2.4548 -1.8288  1.5273
  670MOL0     H90438   0.132   3.661   8.866  0.2560  0.8618  0.1824
  670MOL0     H90439   0.324   3.511   8.848  0.0138  0.4099 -0.9839
  670MOL0     H90440   0.749   3.679   8.859  0.2496  0.4449  2.1864
  670MOL0     H90441   0.690   3.655   9.027 -1.3903 -0.1395  0.7195
  670MOL0     H90442   0.778   3.427   8.833 -3.2043  0.8733 -0.7327
  670MOL0     H90443   0.742   3.401   9.001 -1.1925 -2.0699 -1.8996
  670MOL0     H90444   0.911   3.605   9.061 -3.4709  3.2993 -2.2007
  670MOL0     H90445   0.968   3.585   8.909 -1.8864  1.3825  0.1805
  670MOL0     H90446   1.103   3.430   9.038  0.7578 -1.0504 -0.8896
  670MOL0     H90447   0.995   3.333   8.933 -0.7674  0.5742 -1.1542
  670MOL0     H90448   0.839   3.232   9.315 -0.0063 -1.3586 -1.1837
  670MOL0     H90449   0.587   3.828   8.950  0.8900 -3.0215  0.2975
  670MOL0     H90450   0.413   3.986   8.939 -1.6633  0.1908 -4.4765
  671MOL0     O90451   0.214   5.629   5.915  0.1259  0.5936  0.4979
  671MOL0     C90452   0.314   5.677   5.963  0.5562  0.5513  0.5218
  671MOL0     O90453   0.317   5.761   6.065 -0.2236 -0.8498  0.5540
  671MOL0     C90454   0.199   5.802   6.118 -0.1187  0.1802 -0.9424
  671MOL0     C90455   0.189   5.937   6.150 -0.4345 -0.3576  0.3575
  671MOL0     C90456   0.076   5.994   6.195 -0.0317 -0.7834  0.0050
  671MOL0     C90457  -0.025   5.909   6.248 -0.0136 -0.5875 -0.3992
  671MOL0     O90458  -0.132   5.982   6.296  0.6062  0.6778 -0.0495
  671MOL0     C90459  -0.262   5.935   6.258 -0.2689  0.7310  0.4917
  671MOL0     C90460  -0.371   6.050   6.273  0.3463  0.9289 -0.0988
  671MOL0     C90461  -0.409   6.053   6.425  1.1657  0.4604  1.2083
  671MOL0     C90462  -0.467   6.193   6.441  0.2349 -0.1527  0.2444
  671MOL0     C90463  -0.523   6.226   6.580 -0.2383 -0.1114 -0.3084
  671MOL0     C90464  -0.416   6.213   6.686  0.5498 -0.1478 -0.8657
  671MOL0     C90465  -0.305   6.317   6.677 -0.8337 -0.9801 -0.6209
  671MOL0     C90466  -0.192   6.318   6.778  0.1320  0.1982 -0.1633
  671MOL0     N90467  -0.125   6.187   6.770  0.2368 -0.0037  0.4280
  671MOL0     C90468  -0.037   6.143   6.674 -0.1883 -0.2132  0.1986
  671MOL0     C90469  -0.009   6.013   6.703  0.0411 -0.4468 -0.1766
  671MOL0     C90470   0.094   5.932   6.638 -0.6686  0.4263  0.6043
  671MOL0     C90471   0.226   5.996   6.669 -0.5470  0.7253  0.0874
  671MOL0     C90472   0.339   5.912   6.611 -0.5168  0.7015  0.2821
  671MOL0     C90473   0.476   5.979   6.619 -0.6148 -1.0445  0.1742
  671MOL0     O90474   0.499   6.029   6.484  0.7196 -0.6027  0.3078
  671MOL0     C90475   0.587   5.961   6.404 -0.0812 -0.3010  0.0774
  671MOL0     C90476   0.674   6.039   6.326 -0.7542  0.0978  0.1483
  671MOL0     C90477   0.768   5.985   6.234 -0.3300  0.1839  0.7399
  671MOL0     C90478   0.838   6.088   6.142 -0.1209 -0.2739  0.1978
  671MOL0     C90479   0.786   5.837   6.230 -0.0292 -0.1666  0.1037
  671MOL0     C90480   0.887   5.783   6.140  0.8665  0.5965 -0.4715
  671MOL0     O90481   0.980   5.861   6.091  0.3496 -0.0566  0.0954
  671MOL0     C90482   1.066   5.813   5.988 -0.0443 -0.5998 -0.9638
  671MOL0     C90483   1.179   5.888   5.984  0.3560  0.0378  0.3916
  671MOL0     C90484   1.278   5.859   5.885 -0.8763  0.5350 -0.0376
  671MOL0     C90485   1.263   5.757   5.793  0.3477  0.3528  0.0111
  671MOL0     O90486   1.362   5.750   5.706  0.0340  0.5919  0.2804
  671MOL0     C90487   1.466   5.649   5.726 -0.1557 -1.4033  0.5297
  671MOL0     C90488   1.464   5.543   5.614 -0.3936  0.5536  0.5834
  671MOL0     C90489   1.537   5.594   5.487  0.2523 -0.3171 -0.1392
  671MOL0     C90490   1.683   5.589   5.505  0.0985 -0.6249  0.2549
  671MOL0     C90491   1.753   5.597   5.373  0.9605  0.0252 -0.1476
  671MOL0     C90492   1.909   5.600   5.401 -0.0581  0.3697  0.1694
  671MOL0     C90493   1.993   5.604   5.277 -0.4584  0.4034  0.0731
  671MOL0     C90494   2.131   5.651   5.304  0.1333  0.4201 -0.2062
  671MOL0    Cl90495   2.130   5.829   5.352 -0.1306 -0.0412 -0.0636
  671MOL0     C90496   1.158   5.676   5.800 -0.3072  0.1698 -0.1158
  671MOL0     C90497   1.056   5.702   5.895  0.0955  0.1660  0.2356
  671MOL0     O90498   0.865   5.668   6.111 -0.0142  0.5475 -0.2225
  671MOL0     C90499   0.701   5.759   6.310  0.3194 -0.4210  0.1098
  671MOL0     C90500   0.603   5.821   6.389  0.3453 -0.4668  0.2300
  671MOL0     N90501  -0.077   5.990   6.823 -0.2624  0.3264  0.8825
  671MOL0     N90502  -0.151   6.086   6.853 -0.6111 -0.4055  0.4233
  671MOL0     C90503  -0.023   5.774   6.227  0.2957 -0.0920  0.2338
  671MOL0     C90504   0.088   5.721   6.167 -0.6379  1.0030 -0.1127
  671MOL0     C90505   0.442   5.634   5.897 -0.6419 -0.3364  0.2348
  671MOL0     C90506   0.567   5.698   5.922  1.1454  0.0295  0.5057
  671MOL0     C90507   0.676   5.655   5.847 -0.7884 -0.4223  0.2856
  671MOL0     C90508   0.670   5.551   5.758  0.4821  0.2750  0.7856
  671MOL0     O90509   0.778   5.501   5.687  0.4119  0.0789 -0.3227
  671MOL0     C90510   0.843   5.386   5.751  0.0100 -0.5243 -0.2597
  671MOL0     C90511   0.960   5.354   5.654 -1.2747  0.1783 -0.1155
  671MOL0     C90512   1.050   5.243   5.708 -0.2977 -0.0933 -0.4413
  671MOL0     C90513   1.186   5.222   5.634  0.3694  0.5326 -0.1883
  671MOL0     C90514   1.273   5.138   5.719 -1.1213 -0.6464  0.9992
  671MOL0     C90515   1.343   5.058   5.783 -0.8068 -0.4847 -0.1417
  671MOL0     C90516   0.548   5.499   5.740 -0.6696 -0.7666  0.1146
  671MOL0     C90517   0.433   5.538   5.800  0.2397  0.8219 -0.1470
  671MOL0     H90518   0.268   6.005   6.120 -0.3069 -1.2425 -1.4716
  671MOL0     H90519   0.057   6.100   6.210 -0.4605 -1.2046  3.2344
  671MOL0     H90520  -0.268   5.891   6.158  1.6915  1.0233  0.2011
  671MOL0     H90521  -0.299   5.852   6.319 -1.4382 -1.3482 -2.7366
  671MOL0     H90522  -0.334   6.145   6.234 -0.8144  2.1506  1.6691
  671MOL0     H90523  -0.463   6.027   6.218  0.7393 -3.3326  0.7115
  671MOL0     H90524  -0.484   5.976   6.445 -0.3909  0.8696 -2.3218
  671MOL0     H90525  -0.327   6.043   6.497  0.8958 -1.0690  1.3401
  671MOL0     H90526  -0.395   6.273   6.425  2.2856 -1.0836  3.6485
  671MOL0     H90527  -0.545   6.219   6.369  0.4724 -1.2488 -0.4316
  671MOL0     H90528  -0.563   6.327   6.584 -1.4779 -0.2448 -4.3524
  671MOL0     H90529  -0.612   6.164   6.591 -1.3234  1.2331 -1.2087
  671MOL0     H90530  -0.472   6.214   6.781 -0.1038 -1.2280 -1.2200
  671MOL0     H90531  -0.368   6.115   6.687  2.7264  0.8571 -0.3838
  671MOL0     H90532  -0.258   6.315   6.578  0.5184  0.8586 -0.0669
  671MOL0     H90533  -0.357   6.412   6.687 -0.5805 -0.7783 -1.1910
  671MOL0     H90534  -0.231   6.343   6.877  0.3180  2.7734 -0.6743
  671MOL0     H90535  -0.116   6.394   6.757  2.3616 -0.3119  4.7366
  671MOL0     H90536   0.010   6.207   6.600 -0.7272 -2.1017 -1.8848
  671MOL0     H90537   0.098   5.827   6.668  2.8725 -0.1548 -1.4014
  671MOL0     H90538   0.074   5.931   6.531 -1.2245  0.4278  0.7032
  671MOL0     H90539   0.254   6.005   6.774  1.9330  0.2839 -0.4707
  671MOL0     H90540   0.229   6.095   6.621  0.2510  0.3838 -0.5942
  671MOL0     H90541   0.308   5.895   6.508  2.6956  0.0905 -0.6960
  671MOL0     H90542   0.342   5.811   6.653  2.5992 -1.1440 -3.7068
  671MOL0     H90543   0.561   5.914   6.641  1.1222  0.5294 -1.5515
  671MOL0     H90544   0.470   6.065   6.686  1.0258  0.7069 -1.8002
  671MOL0     H90545   0.656   6.146   6.323 -3.8433 -0.3427 -2.6292
  671MOL0     H90546   0.937   6.110   6.183  0.0430  1.3801 -0.9813
  671MOL0     H90547   0.860   6.057   6.040  1.2112  1.1644  0.0111
  671MOL0     H90548   0.790   6.186   6.135 -0.2028 -0.1623  1.8641
  671MOL0     H90549   1.184   5.979   6.044 -1.8292  1.4515 -1.3782
  671MOL0     H90550   1.366   5.918   5.862 -0.0489 -0.2938  0.9275
  671MOL0     H90551   1.564   5.698   5.728 -0.1151 -1.1782 -2.4429
  671MOL0     H90552   1.462   5.600   5.824 -0.3094 -2.6442 -0.0772
  671MOL0     H90553   1.512   5.454   5.654 -1.0101  0.0615  0.2552
  671MOL0     H90554   1.361   5.521   5.583 -0.2692  0.8954 -0.1044
  671MOL0     H90555   1.515   5.701   5.489  0.8756 -0.1774  2.1595
  671MOL0     H90556   1.505   5.533   5.402 -2.8274  0.9189  0.0160
  671MOL0     H90557   1.719   5.658   5.582  1.3987 -1.0723  0.0728
  671MOL0     H90558   1.700   5.485   5.536 -0.9409 -0.8662  0.0601
  671MOL0     H90559   1.719   5.683   5.315 -1.7969 -0.8642 -0.0109
  671MOL0     H90560   1.716   5.507   5.323  0.8502 -0.5966  1.0283
  671MOL0     H90561   1.934   5.687   5.462  1.0394  0.9383 -1.0551
  671MOL0     H90562   1.930   5.506   5.454  0.8975 -1.0432 -2.4986
  671MOL0     H90563   1.946   5.665   5.199  3.6632  0.5278 -2.6706
  671MOL0     H90564   2.001   5.498   5.253  1.1334  0.3397  0.7602
  671MOL0     H90565   2.178   5.644   5.206  2.1302  1.0421  0.6653
  671MOL0     H90566   2.191   5.598   5.378 -3.0724 -2.8847  0.3110
  671MOL0     H90567   1.156   5.596   5.726 -1.3833 -0.4938  0.5884
  671MOL0     H90568   0.972   5.634   5.888  1.2989 -1.2247 -1.7428
  671MOL0     H90569   0.707   5.651   6.311  1.7629 -0.3914  2.2912
  671MOL0     H90570   0.539   5.756   6.447  0.0894 -0.6709 -0.2786
  671MOL0     H90571  -0.108   5.719   6.267  0.0320  1.0177  1.2505
  671MOL0     H90572   0.089   5.613   6.162 -0.2669  0.7902  2.6970
  671MOL0     H90573   0.574   5.785   5.986  0.4285 -1.3008  2.4888
  671MOL0     H90574   0.771   5.707   5.852 -1.1345  0.1080  1.8783
  671MOL0     H90575   0.865   5.405   5.857 -2.1850  0.1170  0.1316
  671MOL0     H90576   0.775   5.300   5.748  0.7579 -1.1781  0.6474
  671MOL0     H90577   1.018   5.445   5.638 -1.1699 -0.0010 -0.7891
  671MOL0     H90578   0.916   5.324   5.559 -0.5418  0.4989 -0.5648
  671MOL0     H90579   0.999   5.146   5.714 -0.6872  0.0787 -0.9518
  671MOL0     H90580   1.064   5.276   5.812 -1.0871  2.5806 -1.1282
  671MOL0     H90581   1.229   5.316   5.599  2.6317 -0.4443 -0.1935
  671MOL0     H90582   1.163   5.160   5.546 -0.5556 -0.5653  0.7885
  671MOL0     H90583   1.410   4.990   5.831  0.0033  0.7491  0.5360
  671MOL0     H90584   0.539   5.426   5.660  0.6315 -1.9979  1.0439
  671MOL0     H90585   0.342   5.481   5.784  0.6934 -0.0940  0.4643
  672MOL0     O90586  11.143   5.824  11.028 -0.5515  1.3431  0.4531
  672MOL0     C90587  11.170   5.732  11.103 -0.2351  1.0835 -0.5243
  672MOL0     O90588  11.088   5.624  11.123 -0.6288  0.5851  0.3792
  672MOL0     C90589  10.956   5.615  11.076 -0.2791  0.4902 -0.6589
  672MOL0     C90590  10.848   5.584  11.161 -0.8794 -0.0099  0.4299
  672MOL0     C90591  10.718   5.567  11.103  0.2261  0.2256 -0.0828
  672MOL0     C90592  10.694   5.578  10.962  0.1937 -0.1928 -0.2369
  672MOL0     O90593  10.585   5.567  10.892  0.5919  0.6473 -0.5615
  672MOL0     C90594  10.465   5.584  10.967 -0.1674 -0.0388 -0.1373
  672MOL0     C90595  10.338   5.573  10.877 -0.6075 -0.1090 -0.3017
  672MOL0     C90596  10.207   5.596  10.962  0.3104  0.6794 -0.4371
  672MOL0     C90597  10.081   5.604  10.880  0.9822  0.9921  0.3823
  672MOL0     C90598   9.972   5.630  10.970 -0.0447  0.4601 -0.4530
  672MOL0     C90599   9.835   5.605  10.912  0.5030  0.1149 -0.5071
  672MOL0     C90600   9.734   5.628  11.020  0.6453 -0.9052 -0.1873
  672MOL0     C90601   9.580   5.615  10.999 -0.4780 -0.8356 -0.3061
  672MOL0     N90602   9.528   5.749  10.967  0.0007 -0.0476  0.3221
  672MOL0     C90603   9.505   5.858  11.048 -1.0063  0.6766  0.3330
  672MOL0     C90604   9.448   5.954  10.974  0.2255 -0.5254 -0.0451
  672MOL0     C90605   9.426   6.088  11.020  0.2450 -0.5597  0.1673
  672MOL0     C90606   9.522   6.130  11.136 -0.0999  0.0220  0.6950
  672MOL0     C90607   9.511   6.287  11.166 -0.3339  0.0592 -0.3017
  672MOL0     C90608   9.376   6.336  11.217 -0.3481 -0.0539 -0.1049
  672MOL0     O90609   9.264   6.316  11.129 -0.3841 -0.2188 -0.3212
  672MOL0     C90610   9.163   6.412  11.119 -0.0565 -0.2523  0.2106
  672MOL0     C90611   9.078   6.404  11.006 -0.3160 -0.1872 -0.4248
  672MOL0     C90612   8.958   6.486  11.007 -0.0016  0.4850 -0.4112
  672MOL0     C90613   8.862   6.450  10.889  0.9899 -0.1477  0.6978
  672MOL0     C90614   8.938   6.579  11.102  0.1123 -0.2635 -0.5487
  672MOL0     C90615   8.823   6.670  11.092  0.4240 -0.6004 -1.2020
  672MOL0     O90616   8.751   6.704  11.208 -0.7940 -0.2169 -0.7824
  672MOL0     C90617   8.628   6.762  11.205 -0.8409  0.3882 -0.4121
  672MOL0     C90618   8.540   6.780  11.099 -0.4956  0.1550 -0.2199
  672MOL0     C90619   8.415   6.833  11.124  1.0507 -0.3867 -0.5663
  672MOL0     C90620   8.387   6.883  11.250 -0.7685 -0.0977  0.0088
  672MOL0     O90621   8.280   6.966  11.248 -1.0839 -0.0091 -0.7233
  672MOL0     C90622   8.252   7.029  11.370  0.9556 -0.0031 -0.6839
  672MOL0     C90623   8.140   7.115  11.338 -0.5908  0.3953  0.4094
  672MOL0     C90624   8.003   7.047  11.373 -0.4669 -0.5023  0.0151
  672MOL0     C90625   7.885   7.105  11.286  0.2549 -0.2834  0.0855
  672MOL0     C90626   7.749   7.041  11.321 -0.4250 -0.0442 -0.7645
  672MOL0     C90627   7.640   7.092  11.240  0.2071 -0.1631 -0.3833
  672MOL0     C90628   7.518   6.998  11.233  0.2076 -0.4308 -0.2464
  672MOL0     C90629   7.393   7.043  11.152 -0.3868  0.2664  0.8691
  672MOL0    Cl90630   7.446   7.063  10.978  0.2052 -0.1779 -0.2956
  672MOL0     C90631   8.481   6.877  11.352 -0.0851  0.0803 -0.7748
  672MOL0     C90632   8.598   6.804  11.336 -0.6214 -0.0576  0.2006
  672MOL0     O90633   8.799   6.723  10.986  0.0527 -0.0216  0.8060
  672MOL0     C90634   9.021   6.583  11.211  0.5179  0.8923  0.2829
  672MOL0     C90635   9.139   6.507  11.217 -0.1369  0.0314 -0.4837
  672MOL0     N90636   9.417   5.897  10.849 -0.7503  0.0232  0.2945
  672MOL0     N90637   9.481   5.785  10.846 -0.0708  0.6509  0.6561
  672MOL0     C90638  10.803   5.617  10.889 -0.4785  0.0138 -0.0195
  672MOL0     C90639  10.929   5.636  10.941  1.0597  0.0557 -0.1606
  672MOL0     C90640  11.306   5.728  11.162  0.0734  0.0479  0.3006
  672MOL0     C90641  11.364   5.608  11.215  0.1595 -0.7589  0.3714
  672MOL0     C90642  11.492   5.603  11.273 -0.0628 -0.5913 -0.5653
  672MOL0     C90643  11.568   5.720  11.293 -0.2050 -0.0440  0.7310
  672MOL0     O90644  11.686   5.719  11.359  0.0305 -0.3120 -0.3336
  672MOL0     C90645  11.799   5.723  11.266 -0.4583 -0.6183  0.5046
  672MOL0     C90646  11.891   5.838  11.302  0.3862 -0.2607 -0.3700
  672MOL0     C90647  11.995   5.813  11.411 -0.3151 -0.0768 -0.8184
  672MOL0     C90648  12.127   5.756  11.359  0.2258 -0.6538 -0.1360
  672MOL0     C90649  12.205   5.852  11.281  0.3083  0.5676 -0.2884
  672MOL0     C90650  12.256   5.918  11.200  0.1982  0.4559  0.0906
  672MOL0     C90651  11.509   5.838  11.234 -0.9384 -0.6811 -0.6021
  672MOL0     C90652  11.384   5.844  11.173 -0.3172  0.0047  0.3480
  672MOL0     H90653  10.856   5.577  11.269 -0.3093 -0.9450  0.3330
  672MOL0     H90654  10.643   5.535  11.174  0.6022  0.2567  0.3291
  672MOL0     H90655  10.446   5.513  11.048 -4.0065 -1.0939 -1.7041
  672MOL0     H90656  10.477   5.684  11.009  0.6441  1.1046 -2.8229
  672MOL0     H90657  10.338   5.651  10.800 -0.1662 -0.6347 -0.8433
  672MOL0     H90658  10.335   5.474  10.831  2.5388  0.0328 -1.0529
  672MOL0     H90659  10.192   5.517  11.036  0.1382 -0.2582 -1.4454
  672MOL0     H90660  10.221   5.691  11.014  0.1840  0.8809 -0.7637
  672MOL0     H90661  10.074   5.682  10.804  0.4213  0.7946  0.2294
  672MOL0     H90662  10.070   5.505  10.834  1.0800  0.4964  1.3920
  672MOL0     H90663   9.973   5.571  11.062 -0.4118  0.6044 -0.3546
  672MOL0     H90664   9.982   5.737  10.991 -1.6519  0.7349 -0.9562
  672MOL0     H90665   9.822   5.660  10.818 -0.3356  2.0224  0.6615
  672MOL0     H90666   9.831   5.501  10.879 -1.7566  0.1010 -0.3303
  672MOL0     H90667   9.755   5.555  11.099 -0.6194  0.8391  1.8474
  672MOL0     H90668   9.751   5.727  11.063 -1.0742 -1.3150  1.5543
  672MOL0     H90669   9.528   5.584  11.090 -0.0596  0.4844  0.3985
  672MOL0     H90670   9.563   5.542  10.919  1.9201 -3.3337  1.2708
  672MOL0     H90671   9.529   5.863  11.154  2.3240 -0.2185 -0.2880
  672MOL0     H90672   9.438   6.157  10.935  1.6993 -0.8685  0.1050
  672MOL0     H90673   9.324   6.103  11.056 -0.4773  0.7727 -2.1654
  672MOL0     H90674   9.624   6.105  11.107 -0.3701 -1.8895  1.2274
  672MOL0     H90675   9.503   6.072  11.227  1.4599 -0.9004  0.4630
  672MOL0     H90676   9.530   6.352  11.080 -0.0540 -0.6927 -0.8210
  672MOL0     H90677   9.594   6.310  11.234  2.0485 -1.0007 -2.6485
  672MOL0     H90678   9.392   6.441  11.245  0.7312  0.0389 -1.0351
  672MOL0     H90679   9.350   6.291  11.314  1.2405  0.8250  0.7728
  672MOL0     H90680   9.086   6.336  10.922 -0.1947 -0.7884  0.0580
  672MOL0     H90681   8.764   6.415  10.924  0.0756  1.6747  0.1220
  672MOL0     H90682   8.836   6.533  10.822  1.1920 -0.2574  0.4825
  672MOL0     H90683   8.901   6.379  10.816  0.1546 -2.3395  2.2727
  672MOL0     H90684   8.561   6.749  10.997 -1.4901  0.2290 -0.4539
  672MOL0     H90685   8.334   6.854  11.056 -1.1032  1.7764  2.4066
  672MOL0     H90686   8.223   6.948  11.438 -1.6577 -2.9807 -4.9014
  672MOL0     H90687   8.338   7.085  11.410 -0.0759  0.3751  1.1501
  672MOL0     H90688   8.159   7.217  11.373  5.4105 -0.2046  0.0099
  672MOL0     H90689   8.135   7.135  11.230 -0.0153  1.9964  0.6475
  672MOL0     H90690   7.975   7.062  11.478 -0.7141 -0.0814 -0.1105
  672MOL0     H90691   8.011   6.942  11.345  0.2698  0.5021 -4.0905
  672MOL0     H90692   7.888   7.210  11.316  0.5721  0.2300 -1.6369
  672MOL0     H90693   7.909   7.092  11.180  0.7750  2.5787 -0.2313
  672MOL0     H90694   7.724   7.055  11.427 -1.8722 -2.3366 -0.7411
  672MOL0     H90695   7.750   6.932  11.318 -0.4661 -0.2159  2.2455
  672MOL0     H90696   7.614   7.187  11.289  2.9805  0.7110 -0.4233
  672MOL0     H90697   7.666   7.108  11.135  2.2793 -4.3691 -0.7158
  672MOL0     H90698   7.474   6.987  11.333  0.3530 -1.1452 -0.2566
  672MOL0     H90699   7.554   6.899  11.203 -0.0955 -1.4714  2.5421
  672MOL0     H90700   7.353   7.132  11.202 -0.9025  0.5395 -0.0075
  672MOL0     H90701   7.317   6.966  11.166 -2.1447  2.0552  1.6200
  672MOL0     H90702   8.468   6.915  11.453  4.5846 -1.7838  0.7784
  672MOL0     H90703   8.669   6.785  11.416  0.7944  1.3550 -0.6643
  672MOL0     H90704   9.009   6.636  11.305  4.0584 -0.2731  1.5535
  672MOL0     H90705   9.204   6.532  11.300  1.1921  0.6211 -1.6515
  672MOL0     H90706  10.787   5.643  10.785 -3.6748 -1.3151  0.0144
  672MOL0     H90707  11.009   5.665  10.874  1.8645  0.3866  0.9107
  672MOL0     H90708  11.303   5.522  11.192 -1.2611 -0.2836  2.1783
  672MOL0     H90709  11.525   5.503  11.296 -0.1209 -0.2790  0.9892
  672MOL0     H90710  11.854   5.629  11.270 -2.4507 -1.8001  1.5618
  672MOL0     H90711  11.764   5.728  11.163  0.6389  0.6583  0.1587
  672MOL0     H90712  11.833   5.926  11.331 -0.6290  0.5527 -4.3243
  672MOL0     H90713  11.935   5.877  11.210 -2.4745  3.0796 -0.5359
  672MOL0     H90714  11.952   5.749  11.489  1.6787 -0.7001 -0.1546
  672MOL0     H90715  12.021   5.903  11.468 -4.1224 -0.4728  1.9613
  672MOL0     H90716  12.114   5.668  11.296 -0.4795 -0.3376 -0.4497
  672MOL0     H90717  12.189   5.732  11.446 -0.1184  0.3698  0.4196
  672MOL0     H90718  12.290   5.985  11.124  0.0215  0.3433 -0.0895
  672MOL0     H90719  11.575   5.923  11.244 -1.0885 -0.6261 -0.0190
  672MOL0     H90720  11.342   5.935  11.131 -2.0482 -0.1405  1.6508
  673MOL0     O90721   4.191  10.073  11.215  1.2314  0.2144 -1.1656
  673MOL0     C90722   4.168  10.179  11.275  0.3249 -0.1772 -0.1625
  673MOL0     O90723   4.071  10.273  11.239 -0.5124 -0.3269 -0.0599
  673MOL0     C90724   3.971  10.256  11.140  0.2814  0.6863 -0.0878
  673MOL0     C90725   3.850  10.312  11.172  0.4113  0.3229  0.1774
  673MOL0     C90726   3.745  10.320  11.083 -0.0043  0.1367 -0.0169
  673MOL0     C90727   3.752  10.253  10.957  0.2916  0.5326 -0.3103
  673MOL0     O90728   3.648  10.233  10.862  0.0157 -0.4410 -0.0651
  673MOL0     C90729   3.520  10.277  10.912 -0.4452  0.3546 -0.5939
  673MOL0     C90730   3.420  10.251  10.811 -0.1130 -0.7378  0.5842
  673MOL0     C90731   3.281  10.281  10.866  0.5102 -0.3725  0.5427
  673MOL0     C90732   3.183  10.253  10.742 -0.7410 -0.2942 -0.4409
  673MOL0     C90733   3.036  10.302  10.767  0.6302  0.4727  0.0977
  673MOL0     C90734   2.948  10.250  10.650 -1.0296 -0.1766  0.3298
  673MOL0     C90735   2.817  10.315  10.658  0.5585 -0.8569 -0.2066
  673MOL0     C90736   2.736  10.260  10.543 -0.6213 -0.8170 -0.1295
  673MOL0     N90737   2.623  10.343  10.498 -0.2132 -0.2622  0.5822
  673MOL0     C90738   2.557  10.450  10.571  0.4997 -0.0454  0.7174
  673MOL0     C90739   2.444  10.479  10.505 -0.0906  0.5195 -0.8475
  673MOL0     C90740   2.326  10.546  10.569 -0.0389  0.6575 -0.9802
  673MOL0     C90741   2.201  10.461  10.528  0.8868 -0.0051  0.4004
  673MOL0     C90742   2.073  10.531  10.549 -0.6390 -0.0801  0.3525
  673MOL0     C90743   2.014  10.513  10.691 -0.1396  0.0111  0.3780
  673MOL0     O90744   1.923  10.626  10.708 -0.0797 -0.2639 -0.1298
  673MOL0     C90745   1.814  10.612  10.784 -0.8790  0.3066 -0.4140
  673MOL0     C90746   1.815  10.550  10.914  0.0837  0.8054  0.2906
  673MOL0     C90747   1.703  10.575  10.999 -0.3700  0.3904 -1.3604
  673MOL0     C90748   1.712  10.495  11.132  0.1455  0.8545  0.5709
  673MOL0     C90749   1.594  10.650  10.965 -0.0461 -0.1993 -0.2458
  673MOL0     C90750   1.478  10.668  11.051  0.4606 -0.5226  0.1859
  673MOL0     O90751   1.363  10.675  10.986  0.5850 -0.3310  0.7630
  673MOL0     C90752   1.244  10.713  11.044  0.2720 -0.0108 -0.3060
  673MOL0     C90753   1.211  10.684  11.180  0.4494  0.3035 -0.3713
  673MOL0     C90754   1.090  10.729  11.230 -0.4487  0.0544 -0.1754
  673MOL0     C90755   1.005  10.798  11.151  0.7236 -0.3501 -0.3693
  673MOL0     O90756   0.889  10.838  11.217 -0.4433  0.2615  0.3495
  673MOL0     C90757   0.781  10.904  11.147 -1.0831  0.0147  0.3375
  673MOL0     C90758   0.674  10.935  11.255 -0.0161 -0.4533 -0.3116
  673MOL0     C90759   0.548  11.008  11.209 -0.5609  0.2915  0.2341
  673MOL0     C90760   0.457  11.047  11.330  0.4256 -0.6487 -0.1655
  673MOL0     C90761   0.327  10.967  11.314 -0.5367  0.0397 -0.2614
  673MOL0     C90762   0.328  10.811  11.318  0.6017  0.1090  0.7275
  673MOL0     C90763   0.184  10.761  11.292 -0.3629 -0.3917 -0.3885
  673MOL0     C90764   0.151  10.628  11.358  0.3406 -0.5311 -0.2612
  673MOL0    Cl90765   0.080  10.633  11.525  0.4016 -0.3183 -0.0699
  673MOL0     C90766   1.033  10.829  11.018 -0.2454  0.5624  0.4816
  673MOL0     C90767   1.147  10.772  10.964 -1.6480 -0.3868  0.5415
  673MOL0     O90768   1.490  10.676  11.169 -0.3079  0.4104 -0.6619
  673MOL0     C90769   1.595  10.710  10.836 -1.2599 -0.2773  0.1453
  673MOL0     C90770   1.703  10.690  10.747  0.9294  0.3228 -0.9071
  673MOL0     N90771   2.434  10.388  10.404  0.2035  0.0460 -0.2211
  673MOL0     N90772   2.530  10.306  10.404  1.0769 -0.3744 -0.5754
  673MOL0     C90773   3.867  10.178  10.932  0.4663  1.0193 -1.3376
  673MOL0     C90774   3.980  10.181  11.018  0.1566 -0.6379  1.1232
  673MOL0     C90775   4.274  10.223  11.359  0.4221 -0.2119 -0.5959
  673MOL0     C90776   4.371  10.139  11.402  0.0463  0.3648  0.7653
  673MOL0     C90777   4.477  10.186  11.484  0.9413  0.2584 -0.6793
  673MOL0     C90778   4.483  10.323  11.524 -0.4206 -0.0009 -0.3427
  673MOL0     O90779   4.582  10.365  11.620  0.2972  0.6627  0.2337
  673MOL0     C90780   4.609  10.274  11.720 -0.4175  0.2269 -0.6309
  673MOL0     C90781   4.685  10.351  11.830 -0.0006  0.8842 -0.0165
  673MOL0     C90782   4.705  10.262  11.953  0.6295 -0.2975  0.3698
  673MOL0     C90783   4.817  10.320  12.031 -0.4020  0.2279  0.2466
  673MOL0     C90784   4.783  10.454  12.088  0.2672  0.6439  0.0335
  673MOL0     C90785   4.768  10.576  12.116 -0.9047  0.8145  0.3852
  673MOL0     C90786   4.381  10.408  11.484  0.0079  0.1818  0.2859
  673MOL0     C90787   4.285  10.358  11.398 -0.5485  0.4038  0.0344
  673MOL0     H90788   3.851  10.378  11.258  1.8609  0.6942 -0.0960
  673MOL0     H90789   3.663  10.380  11.122 -0.7379 -2.0634  2.1366
  673MOL0     H90790   3.490  10.221  11.001 -0.0893  1.2548  0.1187
  673MOL0     H90791   3.517  10.386  10.925 -1.4331  0.3201 -0.4388
  673MOL0     H90792   3.435  10.308  10.718  0.7082  1.8465  2.1817
  673MOL0     H90793   3.423  10.152  10.766 -0.1083  0.2232 -1.6576
  673MOL0     H90794   3.253  10.210  10.945 -0.8015  0.9738  1.3369
  673MOL0     H90795   3.257  10.381  10.902 -0.3400  0.3656 -1.8682
  673MOL0     H90796   3.221  10.305  10.654 -1.2697  0.4756 -0.2274
  673MOL0     H90797   3.185  10.144  10.734  1.9615 -0.5534  1.9619
  673MOL0     H90798   2.990  10.259  10.857 -0.5550 -0.1171 -0.7617
  673MOL0     H90799   3.038  10.411  10.766 -0.6935  0.5092  0.1413
  673MOL0     H90800   2.997  10.271  10.555  0.9364  0.1831  1.3873
  673MOL0     H90801   2.941  10.141  10.659 -1.8337 -0.2034 -0.3759
  673MOL0     H90802   2.762  10.301  10.751 -0.2435  1.0874 -0.3348
  673MOL0     H90803   2.823  10.424  10.648 -5.7138  0.0351  1.2454
  673MOL0     H90804   2.693  10.164  10.573 -1.0374 -0.0112  2.0436
  673MOL0     H90805   2.800  10.233  10.458 -2.8649 -0.7060 -1.9563
  673MOL0     H90806   2.600  10.495  10.660  2.0485 -0.6718  0.3271
  673MOL0     H90807   2.343  10.532  10.676 -2.9831 -2.2779 -0.7336
  673MOL0     H90808   2.324  10.653  10.544 -0.4146  0.4923 -1.6969
  673MOL0     H90809   2.201  10.362  10.573  0.7371 -0.5043 -0.6849
  673MOL0     H90810   2.202  10.451  10.419 -2.0907  0.7700  0.2086
  673MOL0     H90811   2.005  10.509  10.467  1.3498  2.1066 -2.0624
  673MOL0     H90812   2.093  10.638  10.533 -1.2249 -0.3759 -3.1504
  673MOL0     H90813   2.086  10.533  10.771  0.2110  1.3603 -0.2426
  673MOL0     H90814   1.964  10.418  10.709  0.2506 -0.0934  0.9267
  673MOL0     H90815   1.902  10.491  10.940  1.7683  2.8006 -0.5257
  673MOL0     H90816   1.794  10.424  11.118 -0.7154  0.4220 -3.3662
  673MOL0     H90817   1.727  10.565  11.215  3.2214 -0.1574  0.9908
  673MOL0     H90818   1.621  10.435  11.142  0.1595  0.9813  1.5432
  673MOL0     H90819   1.287  10.642  11.245  1.7638  1.0576 -1.3768
  673MOL0     H90820   1.071  10.718  11.337 -1.9914 -1.0092 -0.5251
  673MOL0     H90821   0.817  10.994  11.097  3.0800 -1.4804  0.2199
  673MOL0     H90822   0.736  10.836  11.074 -2.2947  0.7255  0.3890
  673MOL0     H90823   0.649  10.840  11.303  3.2698 -2.4729 -2.1802
  673MOL0     H90824   0.719  10.998  11.332 -2.5096 -0.9139  1.6369
  673MOL0     H90825   0.492  10.934  11.152  1.2313 -0.2997 -0.8544
  673MOL0     H90826   0.568  11.095  11.146 -0.9073  0.6799  0.6547
  673MOL0     H90827   0.506  11.035  11.427 -1.7553 -0.0198  1.0932
  673MOL0     H90828   0.442  11.155  11.323 -0.9862 -0.8718 -0.9138
  673MOL0     H90829   0.273  10.993  11.222  0.3127  0.4884 -0.6427
  673MOL0     H90830   0.275  11.005  11.403  1.1826 -0.0166  0.8171
  673MOL0     H90831   0.395  10.775  11.239  1.1862  0.8396  0.8838
  673MOL0     H90832   0.384  10.767  11.402  1.3629 -4.6100 -1.8778
  673MOL0     H90833   0.172  10.750  11.184  0.6598  0.6014 -0.6218
  673MOL0     H90834   0.120  10.838  11.335  0.5582  0.2070 -0.0428
  673MOL0     H90835   0.239  10.565  11.342  0.6647 -0.1442 -0.0203
  673MOL0     H90836   0.073  10.580  11.298  0.7355  2.2314 -3.2392
  673MOL0     H90837   0.959  10.880  10.957 -1.1555  1.1798  2.0581
  673MOL0     H90838   1.166  10.771  10.858 -1.9412 -2.0958  0.4897
  673MOL0     H90839   1.522  10.780  10.798 -0.1052  1.7050  1.4128
  673MOL0     H90840   1.705  10.748  10.655  1.1204  0.7142 -0.6596
  673MOL0     H90841   3.872  10.116  10.843  0.4170  0.3155 -0.8642
  673MOL0     H90842   4.077  10.140  10.992 -0.1204 -0.2901 -0.6017
  673MOL0     H90843   4.375  10.035  11.371 -2.5329  0.2184  0.6953
  673MOL0     H90844   4.561  10.126  11.518  1.3143  1.6672  1.0141
  673MOL0     H90845   4.513  10.233  11.751  0.4033 -4.1753 -3.0851
  673MOL0     H90846   4.667  10.193  11.674 -1.6049  0.0876 -1.9304
  673MOL0     H90847   4.621  10.438  11.848 -0.7985 -0.0670  2.0530
  673MOL0     H90848   4.784  10.382  11.797  1.6717 -3.5994  0.0973
  673MOL0     H90849   4.730  10.161  11.920 -1.7021 -0.6257 -0.6069
  673MOL0     H90850   4.620  10.261  12.022  2.2778 -1.8006  2.5026
  673MOL0     H90851   4.908  10.326  11.971 -0.7327 -1.8972 -0.5525
  673MOL0     H90852   4.849  10.248  12.107 -1.9852 -1.2640 -0.4445
  673MOL0     H90853   4.748  10.680  12.136 -0.9985  1.3116 -2.0069
  673MOL0     H90854   4.362  10.504  11.532  1.1689 -0.4304  2.0764
  673MOL0     H90855   4.219  10.438  11.368  1.6440  3.2388  2.1687
  674MOL0     O90856   0.310   6.801   2.498  0.1574  0.2982 -0.2801
  674MOL0     C90857   0.325   6.811   2.377  0.1365 -0.8758 -0.7492
  674MOL0     O90858   0.446   6.804   2.314 -0.0273 -0.8443 -0.4886
  674MOL0     C90859   0.552   6.784   2.389  0.6824  0.1504 -0.3495
  674MOL0     C90860   0.593   6.656   2.424 -0.2479  0.6051  0.0189
  674MOL0     C90861   0.707   6.638   2.497  0.3521  0.2989  0.5493
  674MOL0     C90862   0.776   6.741   2.552 -0.5802  0.6073 -0.2310
  674MOL0     O90863   0.889   6.719   2.626  0.3312 -0.2380  0.1314
  674MOL0     C90864   0.948   6.584   2.641 -0.1910 -0.5149  0.4627
  674MOL0     C90865   1.093   6.594   2.700 -1.2029  0.4685  0.4588
  674MOL0     C90866   1.155   6.455   2.727 -0.5691 -0.4233 -0.2977
  674MOL0     C90867   1.295   6.472   2.787  0.1255 -0.3709  0.2385
  674MOL0     C90868   1.374   6.337   2.785 -0.3430 -0.0152  0.5744
  674MOL0     C90869   1.337   6.249   2.904  0.1218 -0.0244  0.1046
  674MOL0     C90870   1.347   6.104   2.854 -0.4169 -0.0923 -0.3187
  674MOL0     C90871   1.259   6.013   2.931  0.0861  0.4954 -0.0563
  674MOL0     N90872   1.119   6.028   2.903 -0.3223 -0.0193  0.4285
  674MOL0     C90873   1.066   6.014   2.776  0.2555 -0.2499  0.1916
  674MOL0     C90874   0.936   6.052   2.790  0.3662 -1.0906 -0.3808
  674MOL0     C90875   0.835   6.036   2.674  0.3722  0.0402 -0.7871
  674MOL0     C90876   0.834   6.165   2.583  0.5066  0.3088  0.3812
  674MOL0     C90877   0.763   6.148   2.450  0.4970  0.1269  0.0691
  674MOL0     C90878   0.614   6.109   2.440 -0.0766 -0.3794 -0.0683
  674MOL0     O90879   0.530   6.213   2.472 -0.0892  0.6364  0.2712
  674MOL0     C90880   0.399   6.198   2.490 -0.2534 -0.0408 -0.6040
  674MOL0     C90881   0.336   6.280   2.583  0.2769  0.0506 -0.5280
  674MOL0     C90882   0.210   6.256   2.627 -0.5220  0.5933 -0.4541
  674MOL0     C90883   0.160   6.349   2.730 -0.4072 -0.4026  0.1235
  674MOL0     C90884   0.144   6.134   2.589 -0.1331 -0.0438  0.2183
  674MOL0     C90885   0.001   6.109   2.626  0.3204 -0.2673  1.0442
  674MOL0     O90886  -0.036   5.981   2.619  0.4122  0.5149  0.3300
  674MOL0     C90887  -0.166   5.941   2.642 -0.0899 -0.3971 -1.4027
  674MOL0     C90888  -0.260   5.999   2.739 -0.5492 -0.0484 -0.5420
  674MOL0     C90889  -0.389   5.943   2.752 -0.0373  0.0166 -0.2417
  674MOL0     C90890  -0.433   5.829   2.680  0.1042  0.4848 -0.1465
  674MOL0     O90891  -0.555   5.774   2.723 -0.4556  0.8197 -0.3299
  674MOL0     C90892  -0.612   5.668   2.642 -1.0342 -0.5424  0.6527
  674MOL0     C90893  -0.757   5.698   2.665 -0.4614 -0.5537  0.1125
  674MOL0     C90894  -0.845   5.612   2.565 -0.7934  0.9299  0.4397
  674MOL0     C90895  -0.996   5.616   2.595  0.6283 -0.4546  0.0134
  674MOL0     C90896  -1.074   5.512   2.512  0.6633 -1.2163 -0.5703
  674MOL0     C90897  -1.223   5.551   2.513 -0.7145 -0.7046 -0.5136
  674MOL0     C90898  -1.309   5.448   2.443 -0.2470  0.3967  0.3031
  674MOL0     C90899  -1.378   5.507   2.322 -0.2519  0.3431  0.9948
  674MOL0    Cl90900  -1.468   5.651   2.360  0.1437  0.0319 -0.0870
  674MOL0     C90901  -0.336   5.774   2.588 -0.4023 -0.2065  0.0466
  674MOL0     C90902  -0.207   5.825   2.575 -0.1336  0.3797 -0.0373
  674MOL0     O90903  -0.078   6.206   2.637 -0.4605 -0.1201  0.0787
  674MOL0     C90904   0.206   6.045   2.501  0.0404  0.5959 -0.0103
  674MOL0     C90905   0.336   6.076   2.456 -0.1200 -0.2707 -0.3189
  674MOL0     N90906   0.911   6.095   2.924  0.1582 -0.3561 -0.2501
  674MOL0     N90907   1.027   6.089   2.980  0.2968  0.1191 -0.6373
  674MOL0     C90908   0.738   6.874   2.517  0.0724 -0.4465  0.5378
  674MOL0     C90909   0.623   6.893   2.430 -1.2831  0.2326  0.4642
  674MOL0     C90910   0.198   6.849   2.299  0.0014  0.2241  0.3789
  674MOL0     C90911   0.068   6.825   2.343 -0.1886  1.0531 -0.0605
  674MOL0     C90912  -0.042   6.851   2.255 -0.3837 -0.1845 -0.9061
  674MOL0     C90913  -0.018   6.919   2.133 -0.2479 -0.1517 -0.2488
  674MOL0     O90914  -0.133   6.952   2.067  0.1082 -0.7257 -0.2705
  674MOL0     C90915  -0.131   7.025   1.948  0.3369 -0.5566  0.6845
  674MOL0     C90916  -0.114   7.178   1.956 -0.5498 -0.3605 -0.2370
  674MOL0     C90917  -0.156   7.246   1.819 -0.3372 -0.2826 -0.6919
  674MOL0     C90918  -0.205   7.393   1.817 -0.9940  0.7920  0.2817
  674MOL0     C90919  -0.195   7.439   1.676  0.1475  0.0921 -0.4449
  674MOL0     C90920  -0.178   7.472   1.560 -0.5054 -0.5224 -0.0379
  674MOL0     C90921   0.114   6.941   2.089 -0.7795 -0.2762 -0.5461
  674MOL0     C90922   0.220   6.910   2.170  0.2006 -0.0912  0.1901
  674MOL0     H90923   0.529   6.573   2.398 -1.5310  0.8652  2.1058
  674MOL0     H90924   0.736   6.536   2.518 -1.1890  0.1709  2.3002
  674MOL0     H90925   0.881   6.530   2.710 -0.8649  1.7787  1.7135
  674MOL0     H90926   0.953   6.529   2.547  1.1376 -0.8258  0.7024
  674MOL0     H90927   1.158   6.651   2.634 -1.9202  1.3717  0.5045
  674MOL0     H90928   1.091   6.652   2.793  1.4124 -0.3705  1.1127
  674MOL0     H90929   1.101   6.395   2.801 -0.3599  0.0127  0.2134
  674MOL0     H90930   1.158   6.398   2.634  0.4689 -3.3013  1.3964
  674MOL0     H90931   1.365   6.540   2.737  0.2231 -0.3048  0.4629
  674MOL0     H90932   1.287   6.513   2.888 -0.2456 -1.5381  0.7058
  674MOL0     H90933   1.361   6.297   2.684 -1.7175  0.4179  0.5623
  674MOL0     H90934   1.478   6.371   2.782  0.2969 -1.9177 -2.4141
  674MOL0     H90935   1.407   6.249   2.989  1.0933 -0.7689 -0.6723
  674MOL0     H90936   1.241   6.276   2.948 -0.2581  1.1662 -1.3632
  674MOL0     H90937   1.319   6.093   2.749 -1.5811  1.0591 -0.1620
  674MOL0     H90938   1.450   6.070   2.860  0.4089  1.8643 -2.0050
  674MOL0     H90939   1.258   6.034   3.039 -5.5095  1.3398 -0.0068
  674MOL0     H90940   1.289   5.909   2.913  0.3555  0.6368 -0.4453
  674MOL0     H90941   1.099   5.977   2.680 -2.5529  0.7567 -1.2867
  674MOL0     H90942   0.877   5.956   2.611  0.8415  1.1957 -1.9743
  674MOL0     H90943   0.732   6.015   2.704 -0.3854  1.5859 -2.1522
  674MOL0     H90944   0.937   6.200   2.572 -0.0271  3.8769  4.2835
  674MOL0     H90945   0.803   6.250   2.643  1.9437  0.0957  1.4809
  674MOL0     H90946   0.818   6.074   2.392 -0.8790 -0.1100 -0.9889
  674MOL0     H90947   0.782   6.237   2.390  0.0069  1.3097  1.5966
  674MOL0     H90948   0.591   6.024   2.505 -0.3348 -3.0850 -3.4051
  674MOL0     H90949   0.599   6.069   2.339  0.1550 -1.1805  0.2095
  674MOL0     H90950   0.396   6.363   2.619  0.8858 -1.1580  1.4134
  674MOL0     H90951   0.151   6.446   2.680 -1.0836 -1.8695 -2.8168
  674MOL0     H90952   0.062   6.330   2.773 -0.5047  0.2657  0.2146
  674MOL0     H90953   0.239   6.350   2.805  1.8872 -2.4793 -2.0732
  674MOL0     H90954  -0.243   6.073   2.817 -0.5284 -0.5489 -0.0633
  674MOL0     H90955  -0.462   5.972   2.827  0.2801 -0.3709  0.2256
  674MOL0     H90956  -0.575   5.671   2.539 -2.8530  2.9643 -0.0796
  674MOL0     H90957  -0.614   5.566   2.681 -2.5702  0.3117  2.9863
  674MOL0     H90958  -0.792   5.702   2.769 -3.7405  1.6120 -0.9056
  674MOL0     H90959  -0.785   5.801   2.639 -0.2995 -1.1863 -2.9576
  674MOL0     H90960  -0.806   5.513   2.588  3.7220  3.2000  4.2752
  674MOL0     H90961  -0.817   5.626   2.461  3.0098  0.6769  1.3075
  674MOL0     H90962  -1.016   5.593   2.700  1.7907 -4.0565 -0.3900
  674MOL0     H90963  -1.034   5.712   2.560 -3.6268 -1.1557  2.0387
  674MOL0     H90964  -1.063   5.411   2.553 -2.2173 -1.4519 -0.1672
  674MOL0     H90965  -1.035   5.518   2.410  3.3110 -2.3040  0.2863
  674MOL0     H90966  -1.251   5.559   2.619 -2.2863  0.6707 -1.0047
  674MOL0     H90967  -1.238   5.647   2.464 -3.2645 -0.0290  1.3541
  674MOL0     H90968  -1.373   5.395   2.515  0.8824 -3.0964 -1.0420
  674MOL0     H90969  -1.244   5.366   2.410 -2.1256 -0.6841 -0.9390
  674MOL0     H90970  -1.443   5.422   2.296  0.1004  0.2353  0.4556
  674MOL0     H90971  -1.308   5.521   2.239  1.2458 -1.3783  1.8886
  674MOL0     H90972  -0.368   5.699   2.517 -0.3882 -1.4537  1.3049
  674MOL0     H90973  -0.149   5.781   2.494  2.3844  0.2866  1.7181
  674MOL0     H90974   0.157   5.958   2.459  0.6985  0.2067  0.0133
  674MOL0     H90975   0.394   5.999   2.406 -1.4648 -0.7410 -1.2168
  674MOL0     H90976   0.801   6.954   2.555 -2.2104  1.2112  1.0273
  674MOL0     H90977   0.603   6.988   2.382 -3.7498 -0.7661 -0.6748
  674MOL0     H90978   0.048   6.782   2.440 -0.1376 -1.4250 -1.0884
  674MOL0     H90979  -0.142   6.835   2.294  0.2190  0.0013  0.7881
  674MOL0     H90980  -0.061   6.981   1.875  0.7278 -0.1532  0.8121
  674MOL0     H90981  -0.230   7.025   1.903  1.1503  0.3241 -1.2385
  674MOL0     H90982  -0.013   7.212   1.981  0.2779 -2.8551  0.0923
  674MOL0     H90983  -0.176   7.200   2.043 -0.7949  0.2040 -0.5526
  674MOL0     H90984  -0.233   7.181   1.776 -0.0640 -0.1971 -1.3198
  674MOL0     H90985  -0.070   7.231   1.753 -1.8719 -1.7469 -2.4745
  674MOL0     H90986  -0.140   7.460   1.873  0.6103  0.8676 -1.5490
  674MOL0     H90987  -0.309   7.387   1.849 -1.2865  0.3467 -0.7092
  674MOL0     H90988  -0.153   7.499   1.459 -0.8172  1.5971  0.4045
  674MOL0     H90989   0.142   6.988   1.995  0.3911 -0.5212 -0.3255
  674MOL0     H90990   0.325   6.929   2.146 -0.0753  1.2601 -0.0443
  675MOL0     O90991   8.932   2.432   6.868  0.5376  0.1422  0.6062
  675MOL0     C90992   9.012   2.498   6.932  0.1158  0.2964  0.1434
  675MOL0     O90993   8.982   2.600   7.015  0.3669 -0.6942  0.2527
  675MOL0     C90994   8.853   2.655   7.007 -0.6708 -0.5370  0.1653
  675MOL0     C90995   8.764   2.618   7.108 -0.6373  0.1920  0.0336
  675MOL0     C90996   8.631   2.646   7.093 -0.4844 -0.7635  0.5164
  675MOL0     C90997   8.582   2.713   6.983  0.2187  0.4680  0.0290
  675MOL0     O90998   8.451   2.742   6.999 -0.6357  0.2118  0.1332
  675MOL0     C90999   8.381   2.814   6.900  0.1736  0.6672 -0.5820
  675MOL0     C91000   8.229   2.827   6.933 -0.2289 -0.1599 -0.8065
  675MOL0     C91001   8.204   2.913   7.049 -0.2821  0.8168 -0.1889
  675MOL0     C91002   8.053   2.914   7.070 -0.1933 -0.0249  0.5631
  675MOL0     C91003   8.008   3.019   7.166  0.1826 -0.5106 -0.5239
  675MOL0     C91004   8.012   3.167   7.138 -0.0791 -0.2805 -0.2671
  675MOL0     C91005   8.136   3.244   7.192  0.3067  1.1679  0.6334
  675MOL0     C91006   8.107   3.395   7.193  0.1363  0.4420  0.2035
  675MOL0     N91007   8.200   3.467   7.289  0.4627  0.5305  0.4160
  675MOL0     C91008   8.329   3.457   7.278 -0.8263  1.0007  0.5412
  675MOL0     C91009   8.378   3.533   7.378 -0.1090  0.4584  1.2326
  675MOL0     C91010   8.520   3.572   7.416 -0.1748  0.4820  0.5950
  675MOL0     C91011   8.609   3.614   7.299 -0.7791  0.4021  0.0156
  675MOL0     C91012   8.755   3.639   7.347 -0.2307  0.1950 -0.2009
  675MOL0     C91013   8.853   3.661   7.232  0.4294 -0.0758  0.3339
  675MOL0     O91014   8.866   3.535   7.163 -0.1073  0.5646  0.0605
  675MOL0     C91015   8.968   3.533   7.064  0.5594  0.1525 -0.3822
  675MOL0     C91016   9.037   3.652   7.015 -0.3604  0.1095 -0.2258
  675MOL0     C91017   9.148   3.649   6.925  0.4603 -0.4888 -0.3561
  675MOL0     C91018   9.209   3.784   6.890  0.5551  0.6272  0.8434
  675MOL0     C91019   9.198   3.521   6.883 -0.7995  0.3538 -0.2473
  675MOL0     C91020   9.310   3.506   6.793 -0.1387  0.1060  0.7521
  675MOL0     O91021   9.340   3.618   6.714 -0.4542  0.2598 -0.2007
  675MOL0     C91022   9.439   3.587   6.628 -0.9423  0.2042  0.0921
  675MOL0     C91023   9.572   3.584   6.668  0.3457  0.9625  0.7703
  675MOL0     C91024   9.667   3.572   6.570 -1.2328  1.0668 -1.1066
  675MOL0     C91025   9.643   3.565   6.434  0.9471 -0.5711 -0.9704
  675MOL0     O91026   9.729   3.560   6.337 -0.7784 -0.0664 -0.2771
  675MOL0     C91027   9.859   3.496   6.366 -0.4614 -0.6539  0.1271
  675MOL0     C91028   9.972   3.594   6.332 -0.2126  0.3481 -0.2084
  675MOL0     C91029   9.992   3.717   6.432  0.3909 -0.0702 -0.5233
  675MOL0     C91030  10.142   3.773   6.449 -0.2818  0.4419  0.9088
  675MOL0     C91031  10.214   3.825   6.321  0.3779  0.2028 -1.3377
  675MOL0     C91032  10.353   3.867   6.360  0.5928  0.2044  0.5916
  675MOL0     C91033  10.444   3.897   6.241 -0.0397 -0.2561 -0.1934
  675MOL0     C91034  10.577   3.959   6.301 -0.1179  0.6080 -0.0003
  675MOL0    Cl91035  10.542   4.128   6.350  0.4037  0.4401  0.4851
  675MOL0     C91036   9.508   3.555   6.399  0.2169 -0.0655  0.2732
  675MOL0     C91037   9.410   3.567   6.494  0.2297 -0.0768 -0.2949
  675MOL0     O91038   9.361   3.392   6.776 -0.0022 -0.0511  0.6679
  675MOL0     C91039   9.134   3.401   6.937  0.7163 -0.1093 -0.0617
  675MOL0     C91040   9.028   3.413   7.023  0.4159  0.4134 -0.1895
  675MOL0     N91041   8.272   3.578   7.458  0.5052 -0.4624 -0.0970
  675MOL0     N91042   8.170   3.541   7.393  0.9060 -0.2665  0.5583
  675MOL0     C91043   8.664   2.748   6.879 -1.3890 -0.2003  0.5978
  675MOL0     C91044   8.803   2.718   6.888  0.0628  0.0992  0.1778
  675MOL0     C91045   9.154   2.468   6.907 -0.1392  0.2836  0.0307
  675MOL0     C91046   9.256   2.528   6.989  0.0611  0.5942 -0.1254
  675MOL0     C91047   9.391   2.495   6.970  0.4932  0.4457 -0.6080
  675MOL0     C91048   9.428   2.417   6.860 -0.0707 -0.6014 -0.9288
  675MOL0     O91049   9.558   2.400   6.821  0.2926  0.0569 -0.0950
  675MOL0     C91050   9.645   2.362   6.926 -0.4525  0.3462 -0.0586
  675MOL0     C91051   9.796   2.348   6.886  0.6913 -0.4516  0.1207
  675MOL0     C91052   9.854   2.482   6.843  0.4267 -0.2330 -0.1801
  675MOL0     C91053  10.002   2.469   6.831  0.9471 -0.1551  0.1453
  675MOL0     C91054  10.072   2.466   6.961 -0.2776  0.2843 -0.3497
  675MOL0     C91055  10.141   2.463   7.056 -0.0923  0.5520  0.0610
  675MOL0     C91056   9.328   2.367   6.775  0.2702 -0.4991  0.5734
  675MOL0     C91057   9.195   2.388   6.796 -0.4650 -0.3870 -1.5281
  675MOL0     H91058   8.803   2.564   7.195 -2.8636  0.0818  1.0325
  675MOL0     H91059   8.569   2.609   7.173 -2.1187 -2.2983 -1.3401
  675MOL0     H91060   8.419   2.914   6.879 -1.3346  1.0306 -1.7572
  675MOL0     H91061   8.385   2.757   6.807 -0.3975  0.2066 -0.3290
  675MOL0     H91062   8.170   2.866   6.850 -1.0610  1.5799  0.5299
  675MOL0     H91063   8.194   2.727   6.962  2.2693 -0.8257  0.2006
  675MOL0     H91064   8.261   2.892   7.140 -1.0157  3.5958  1.0165
  675MOL0     H91065   8.236   3.013   7.019 -0.7252  1.4488  1.3615
  675MOL0     H91066   7.999   2.942   6.978  0.9040  1.0865  0.2433
  675MOL0     H91067   8.022   2.815   7.104  2.7433 -0.1918  3.1340
  675MOL0     H91068   7.910   2.982   7.197  0.3910 -2.5503 -2.1114
  675MOL0     H91069   8.078   2.997   7.247  2.1687 -0.0555 -2.0446
  675MOL0     H91070   8.009   3.178   7.029  1.3975  1.1533 -0.2066
  675MOL0     H91071   7.919   3.209   7.178 -1.6916 -1.4884 -2.5185
  675MOL0     H91072   8.155   3.201   7.290  0.6761 -3.6545 -1.3035
  675MOL0     H91073   8.227   3.217   7.138 -1.7541 -0.1051 -2.5555
  675MOL0     H91074   8.003   3.421   7.212 -0.5193  0.0149 -2.4546
  675MOL0     H91075   8.129   3.426   7.090  0.5134 -1.0950 -0.2032
  675MOL0     H91076   8.384   3.406   7.200 -0.9775  0.5220  0.7436
  675MOL0     H91077   8.519   3.657   7.486 -2.2773  0.7441  0.3217
  675MOL0     H91078   8.566   3.488   7.467 -1.8682 -1.4544 -0.8822
  675MOL0     H91079   8.581   3.706   7.246 -1.5209 -0.2539 -0.7588
  675MOL0     H91080   8.612   3.539   7.220  0.1632 -0.8339  1.1937
  675MOL0     H91081   8.784   3.547   7.400  0.3613 -2.4336 -4.5631
  675MOL0     H91082   8.754   3.717   7.423 -1.7682 -1.7848  1.9928
  675MOL0     H91083   8.950   3.675   7.281 -0.4919 -1.5671  2.7745
  675MOL0     H91084   8.822   3.744   7.168 -4.2831 -0.9344  1.1426
  675MOL0     H91085   9.007   3.754   7.040 -2.3316 -0.5941  0.4782
  675MOL0     H91086   9.205   3.799   6.782 -1.4575 -3.3654  0.2058
  675MOL0     H91087   9.148   3.868   6.925 -1.6605 -0.3754 -0.4582
  675MOL0     H91088   9.309   3.790   6.934  1.7454 -0.1205 -1.5966
  675MOL0     H91089   9.609   3.586   6.770 -0.1812  3.2317  0.9773
  675MOL0     H91090   9.766   3.593   6.609 -1.0148  1.1785 -1.7203
  675MOL0     H91091   9.880   3.454   6.465 -2.6756 -2.9683 -0.2548
  675MOL0     H91092   9.871   3.408   6.302 -1.3932 -1.2552  0.7464
  675MOL0     H91093  10.065   3.536   6.329  2.2461  4.0149 -2.9767
  675MOL0     H91094   9.967   3.626   6.228  0.8386 -1.0099 -0.7151
  675MOL0     H91095   9.962   3.672   6.527  0.3473 -0.5750 -0.7702
  675MOL0     H91096   9.922   3.798   6.410 -2.2167 -2.8465 -3.2675
  675MOL0     H91097  10.147   3.847   6.529  1.1810  1.6586 -0.2506
  675MOL0     H91098  10.203   3.692   6.490  0.3866  0.6468  0.3380
  675MOL0     H91099  10.154   3.912   6.291 -0.6345  0.9636  2.2981
  675MOL0     H91100  10.227   3.754   6.240  0.8078 -0.8704 -0.3559
  675MOL0     H91101  10.339   3.963   6.411 -1.3233  0.4971 -0.4118
  675MOL0     H91102  10.405   3.790   6.419 -3.5058 -2.0661  1.6725
  675MOL0     H91103  10.398   3.973   6.177  0.2590  0.3883  0.3367
  675MOL0     H91104  10.471   3.806   6.187 -0.0937 -1.2098  1.3116
  675MOL0     H91105  10.657   3.969   6.227 -0.0634  1.3464  0.1512
  675MOL0     H91106  10.623   3.907   6.386  1.0896  2.7281  0.7257
  675MOL0     H91107   9.476   3.532   6.298 -0.5527 -2.2322  0.9710
  675MOL0     H91108   9.303   3.566   6.476 -0.8787  2.6666  4.4015
  675MOL0     H91109   9.162   3.300   6.912  0.7576  0.3253 -1.9231
  675MOL0     H91110   8.983   3.320   7.055 -1.0620  1.6538  1.6227
  675MOL0     H91111   8.635   2.806   6.792  0.4544  1.4655  1.0137
  675MOL0     H91112   8.861   2.730   6.797 -0.4088  1.8792  0.0883
  675MOL0     H91113   9.236   2.574   7.085  2.9263  1.1519  0.2930
  675MOL0     H91114   9.461   2.553   7.029 -1.4680  0.4210  1.9321
  675MOL0     H91115   9.652   2.431   7.011  2.3235 -1.4773  1.3543
  675MOL0     H91116   9.618   2.270   6.977 -2.0570  0.3719 -0.8073
  675MOL0     H91117   9.804   2.284   6.798  0.4093  0.4527 -0.5875
  675MOL0     H91118   9.855   2.302   6.966 -0.3089  0.1821  1.2684
  675MOL0     H91119   9.839   2.557   6.922 -1.2811  0.1257 -0.7837
  675MOL0     H91120   9.815   2.504   6.743 -0.3186 -0.9661 -0.0611
  675MOL0     H91121  10.034   2.559   6.779 -2.9272 -0.6245 -3.5560
  675MOL0     H91122  10.028   2.376   6.779  0.2530 -0.9189  1.1157
  675MOL0     H91123  10.204   2.472   7.143 -1.1304  0.7258  0.8212
  675MOL0     H91124   9.345   2.312   6.683 -1.9044  0.7030 -0.6394
  675MOL0     H91125   9.113   2.352   6.735 -1.3854 -0.4514 -0.3007
  676MOL0     O91126   1.495   1.931   3.252  0.2233  0.6816 -0.5377
  676MOL0     C91127   1.571   1.996   3.329 -0.6562 -0.7645  0.7864
  676MOL0     O91128   1.542   2.118   3.384 -0.4579 -0.2700 -0.0548
  676MOL0     C91129   1.422   2.179   3.366  0.8178  0.5000 -0.9516
  676MOL0     C91130   1.341   2.216   3.484 -0.2758 -0.2222  0.9210
  676MOL0     C91131   1.213   2.267   3.470  0.7953 -0.3717 -0.1169
  676MOL0     C91132   1.154   2.283   3.343 -1.1760  0.0916 -0.8031
  676MOL0     O91133   1.034   2.335   3.334 -0.2104 -0.2437  0.6643
  676MOL0     C91134   1.031   2.477   3.359 -1.0069  0.3548  0.3204
  676MOL0     C91135   0.892   2.529   3.326  0.2590  0.9197  0.1465
  676MOL0     C91136   0.859   2.506   3.173 -0.0625  0.6485  0.1961
  676MOL0     C91137   0.735   2.589   3.132  0.1776  0.1193 -0.2438
  676MOL0     C91138   0.661   2.535   3.008 -0.1574  0.6062 -0.7662
  676MOL0     C91139   0.764   2.541   2.890 -0.0704  0.0354 -0.3674
  676MOL0     C91140   0.698   2.489   2.764  0.2989 -0.9642  0.1933
  676MOL0     C91141   0.802   2.498   2.651  0.4262 -0.3855 -0.3895
  676MOL0     N91142   0.814   2.641   2.627 -0.7585  0.1934 -0.1230
  676MOL0     C91143   0.932   2.705   2.590  0.9299  0.1576  0.1235
  676MOL0     C91144   0.899   2.813   2.519 -0.1919 -0.0260  0.8142
  676MOL0     C91145   0.994   2.906   2.457 -0.3480  0.6456  0.6728
  676MOL0     C91146   1.008   2.881   2.309 -0.0367  0.4288 -0.2067
  676MOL0     C91147   1.074   2.997   2.247 -0.0946 -0.4211  0.1097
  676MOL0     C91148   1.224   3.006   2.300  0.2078  0.1150 -0.2091
  676MOL0     O91149   1.236   3.100   2.399  0.1660  0.3783 -0.5943
  676MOL0     C91150   1.313   3.081   2.512  0.9420 -1.7956  0.1985
  676MOL0     C91151   1.267   3.143   2.629  0.6693 -0.6493  0.3040
  676MOL0     C91152   1.336   3.137   2.749  0.6208  0.2572  0.4182
  676MOL0     C91153   1.265   3.207   2.867  0.1561  0.9664  1.3812
  676MOL0     C91154   1.453   3.051   2.761 -0.2664  0.2481  1.0146
  676MOL0     C91155   1.532   3.042   2.883 -2.1286  1.1009 -0.3583
  676MOL0     O91156   1.544   3.154   2.967  0.2031 -0.0207  0.1458
  676MOL0     C91157   1.602   3.144   3.091  0.2266 -0.2089 -0.3784
  676MOL0     C91158   1.730   3.099   3.116  0.1140 -0.4369 -0.0803
  676MOL0     C91159   1.790   3.097   3.248  0.5222 -0.9175  0.4082
  676MOL0     C91160   1.720   3.152   3.352 -0.7743  0.1229 -0.4577
  676MOL0     O91161   1.767   3.137   3.485 -0.0044  0.3065 -0.8190
  676MOL0     C91162   1.739   3.239   3.590 -0.3272  0.0147 -0.4005
  676MOL0     C91163   1.825   3.369   3.561 -0.8662  0.3693 -0.2746
  676MOL0     C91164   1.956   3.343   3.509  1.2451  0.1668 -0.3756
  676MOL0     C91165   2.040   3.235   3.581 -0.5297  0.2868 -0.1909
  676MOL0     C91166   2.190   3.208   3.539  0.1616 -0.5553  0.8249
  676MOL0     C91167   2.272   3.331   3.572  0.1799  0.2463  0.1023
  676MOL0     C91168   2.418   3.318   3.532  0.4737  0.5266  0.0289
  676MOL0     C91169   2.500   3.437   3.579 -0.4405  0.6063 -0.0971
  676MOL0    Cl91170   2.675   3.412   3.584  0.4704  0.1709  0.3569
  676MOL0     C91171   1.597   3.212   3.323 -0.3321 -0.0338  0.6592
  676MOL0     C91172   1.541   3.196   3.199  0.6840  0.4296 -0.4375
  676MOL0     O91173   1.604   2.948   2.899 -0.0739  0.2509  0.5891
  676MOL0     C91174   1.500   2.987   2.644  0.2761  0.6507  0.0426
  676MOL0     C91175   1.424   3.002   2.529  0.5469  0.2250  0.3163
  676MOL0     N91176   0.767   2.823   2.514  0.4357  0.2286  0.4550
  676MOL0     N91177   0.717   2.722   2.579  0.0140  0.6294  0.8781
  676MOL0     C91178   1.230   2.249   3.230  0.0859 -0.4198 -0.3272
  676MOL0     C91179   1.360   2.198   3.243  0.2460  0.1192  0.3499
  676MOL0     C91180   1.711   1.950   3.336  0.2387  0.3191 -1.1673
  676MOL0     C91181   1.814   2.029   3.397  0.0254  0.1736 -0.4258
  676MOL0     C91182   1.946   1.989   3.406 -0.5357 -1.0194 -0.0412
  676MOL0     C91183   1.969   1.855   3.393 -0.7864 -0.1284  0.5261
  676MOL0     O91184   2.087   1.809   3.445  0.9289  0.2946 -0.8530
  676MOL0     C91185   2.142   1.673   3.428 -0.0228  0.4566  0.6135
  676MOL0     C91186   2.217   1.632   3.548  1.0009  0.2002 -0.1384
  676MOL0     C91187   2.125   1.599   3.676 -0.6273 -0.4137  0.4939
  676MOL0     C91188   2.199   1.580   3.805  0.1172  0.0651 -0.4878
  676MOL0     C91189   2.306   1.479   3.797 -0.4500 -0.3477 -0.1259
  676MOL0     C91190   2.396   1.397   3.790 -0.0335 -0.0978 -0.1932
  676MOL0     C91191   1.882   1.777   3.313 -0.4706  0.1367 -0.6151
  676MOL0     C91192   1.752   1.829   3.277 -0.4961 -0.2607  0.2890
  676MOL0     H91193   1.391   2.211   3.580  1.1305 -1.7191  0.1522
  676MOL0     H91194   1.143   2.302   3.545 -0.0927  1.5179 -1.7104
  676MOL0     H91195   1.061   2.513   3.457 -0.4842  1.0752 -0.0961
  676MOL0     H91196   1.087   2.531   3.282  1.6854 -0.0991  1.8627
  676MOL0     H91197   0.820   2.473   3.386 -1.1304  3.2599  0.7811
  676MOL0     H91198   0.885   2.637   3.342  1.7108  1.8680 -4.2386
  676MOL0     H91199   0.948   2.530   3.115  0.7020 -2.6960 -0.1790
  676MOL0     H91200   0.843   2.401   3.147  1.0624  0.7672 -1.0851
  676MOL0     H91201   0.666   2.585   3.218  1.3450 -0.6784  0.6866
  676MOL0     H91202   0.769   2.690   3.106 -0.9509  0.5619 -0.0613
  676MOL0     H91203   0.641   2.431   3.036 -0.3928  1.2762  1.7510
  676MOL0     H91204   0.563   2.576   2.980 -1.7440 -2.7535 -0.7104
  676MOL0     H91205   0.792   2.646   2.879  2.9098 -0.5915  0.2396
  676MOL0     H91206   0.852   2.481   2.915 -2.0832 -1.7677  3.0849
  676MOL0     H91207   0.661   2.388   2.784 -0.0956 -0.7046  0.8285
  676MOL0     H91208   0.617   2.561   2.749 -0.1659 -1.0750  1.9595
  676MOL0     H91209   0.767   2.434   2.569 -0.0527  0.8108 -1.1415
  676MOL0     H91210   0.901   2.457   2.675  0.9796  0.7848 -0.6055
  676MOL0     H91211   1.035   2.687   2.617  1.3913  2.4897  0.0771
  676MOL0     H91212   0.951   3.005   2.471 -2.2379 -0.2864  1.8720
  676MOL0     H91213   1.096   2.887   2.493  0.2095  0.6039 -0.8486
  676MOL0     H91214   0.912   2.868   2.259  0.1973  0.6117 -0.7067
  676MOL0     H91215   1.068   2.791   2.292 -0.2828 -0.5974  3.4131
  676MOL0     H91216   1.017   3.090   2.250 -0.0562 -0.3423 -1.2190
  676MOL0     H91217   1.086   2.965   2.143 -1.8708 -0.2033 -0.1957
  676MOL0     H91218   1.273   3.061   2.219 -0.4520  3.0614  1.2342
  676MOL0     H91219   1.272   2.914   2.333 -0.6428  0.4270  2.1320
  676MOL0     H91220   1.165   3.177   2.615  0.6741 -0.1697  1.3230
  676MOL0     H91221   1.314   3.295   2.909 -1.7451  1.8989  1.7652
  676MOL0     H91222   1.168   3.243   2.831  1.6190  1.9735 -1.9399
  676MOL0     H91223   1.245   3.126   2.938  0.1686  0.7044  1.0872
  676MOL0     H91224   1.785   3.044   3.039 -1.9197 -0.8583 -1.3177
  676MOL0     H91225   1.891   3.062   3.267  0.4868 -0.5201  1.3939
  676MOL0     H91226   1.634   3.257   3.613  0.0625 -0.4361  1.9904
  676MOL0     H91227   1.771   3.202   3.688 -2.3210 -1.9667 -0.4378
  676MOL0     H91228   1.760   3.431   3.499 -0.2803 -0.7484 -2.0645
  676MOL0     H91229   1.849   3.425   3.652 -3.1644  0.2980  0.4285
  676MOL0     H91230   2.011   3.437   3.521 -1.4062  1.9012 -1.1988
  676MOL0     H91231   1.937   3.312   3.406 -0.0745  0.0540 -0.1192
  676MOL0     H91232   2.033   3.259   3.688  2.1446  1.6048 -0.2462
  676MOL0     H91233   1.997   3.137   3.558 -0.5277  0.5110 -1.1733
  676MOL0     H91234   2.193   3.183   3.433 -1.2885 -1.6608  1.0083
  676MOL0     H91235   2.230   3.118   3.588  0.8906 -0.4847  0.3738
  676MOL0     H91236   2.230   3.406   3.504  1.1175 -1.8895 -3.0390
  676MOL0     H91237   2.269   3.357   3.679  1.4727 -2.5234  0.8939
  676MOL0     H91238   2.427   3.311   3.423  2.5707  1.1055  0.1315
  676MOL0     H91239   2.472   3.231   3.570  0.5687  0.1839 -0.8692
  676MOL0     H91240   2.468   3.468   3.678 -1.2097  1.9346 -0.7358
  676MOL0     H91241   2.478   3.524   3.518 -1.5546 -1.4867 -2.9240
  676MOL0     H91242   1.544   3.265   3.400  2.4448  2.5812  0.9877
  676MOL0     H91243   1.444   3.236   3.172 -0.0100 -2.0612 -1.9236
  676MOL0     H91244   1.589   2.925   2.646 -0.7473 -1.1532 -3.1087
  676MOL0     H91245   1.461   2.942   2.446 -1.6295 -0.6144 -0.1185
  676MOL0     H91246   1.188   2.287   3.138 -1.3677 -0.2831  0.3573
  676MOL0     H91247   1.421   2.165   3.159  2.3601  1.7115  1.1614
  676MOL0     H91248   1.788   2.127   3.435  0.1174 -0.6133  1.8375
  676MOL0     H91249   2.020   2.036   3.470 -2.1077 -1.8853  2.5834
  676MOL0     H91250   2.077   1.587   3.408 -1.6000  1.0161  2.8855
  676MOL0     H91251   2.218   1.682   3.350 -0.2778  0.4149  0.3592
  676MOL0     H91252   2.289   1.710   3.576  0.8158  0.4671 -0.3939
  676MOL0     H91253   2.267   1.540   3.518 -0.5234 -0.5494 -0.4678
  676MOL0     H91254   2.075   1.506   3.647 -0.5269 -0.4543  0.4498
  676MOL0     H91255   2.049   1.676   3.689  1.6091  1.5085  3.7870
  676MOL0     H91256   2.128   1.568   3.887  0.6127  4.3973  0.8401
  676MOL0     H91257   2.243   1.677   3.830 -1.0073  0.6945 -0.8602
  676MOL0     H91258   2.459   1.313   3.770  0.0329 -0.5401  1.7247
  676MOL0     H91259   1.914   1.677   3.289  2.0847  0.3891  1.2968
  676MOL0     H91260   1.687   1.772   3.210 -1.3690  1.8836 -0.8152
  677MOL0     O91261   9.944   0.106   1.035  0.2355  0.0779 -0.1829
  677MOL0     C91262   9.836   0.055   1.047  0.6293  0.6983 -0.1774
  677MOL0     O91263   9.810  -0.066   1.118 -0.6373 -0.2490 -0.5934
  677MOL0     C91264   9.911  -0.125   1.179  0.1592 -0.2819  0.7477
  677MOL0     C91265   9.888  -0.157   1.309  0.4014 -0.5437  0.6819
  677MOL0     C91266   9.971  -0.238   1.377 -0.9570  0.2042 -0.0197
  677MOL0     C91267  10.083  -0.286   1.311 -0.8427 -0.6459 -0.0318
  677MOL0     O91268  10.178  -0.368   1.368 -0.2722  0.1315 -0.2178
  677MOL0     C91269  10.141  -0.498   1.376  0.0119  0.0917 -0.3339
  677MOL0     C91270  10.120  -0.581   1.249  0.6164 -0.6557  0.8637
  677MOL0     C91271  10.097  -0.727   1.250  0.6079  0.5066  0.0602
  677MOL0     C91272  10.104  -0.780   1.107 -0.6241  0.0336  0.4154
  677MOL0     C91273  10.243  -0.801   1.047  0.3077 -0.7566  0.3541
  677MOL0     C91274  10.237  -0.858   0.905 -0.2713 -0.0890  1.1429
  677MOL0     C91275  10.378  -0.888   0.847  0.4225 -0.5055 -0.0174
  677MOL0     C91276  10.454  -1.009   0.918 -0.1799  0.6489 -0.0044
  677MOL0     N91277  10.396  -1.132   0.870  0.0618 -0.6413 -0.1872
  677MOL0     C91278  10.312  -1.212   0.942  0.1643  0.2090  0.1899
  677MOL0     C91279  10.297  -1.334   0.872  0.2213 -0.2247  0.0152
  677MOL0     C91280  10.228  -1.468   0.903 -0.6128 -0.4779  0.4845
  677MOL0     C91281  10.075  -1.441   0.885  0.6264  0.8668 -0.5749
  677MOL0     C91282  10.003  -1.581   0.876 -0.1187  0.7015  0.4198
  677MOL0     C91283   9.857  -1.563   0.857 -0.4399  0.6129  0.3994
  677MOL0     O91284   9.828  -1.519   0.727  0.7277 -0.3212  0.6857
  677MOL0     C91285   9.694  -1.513   0.687 -1.0000  0.8272  0.1032
  677MOL0     C91286   9.587  -1.608   0.720 -0.7914 -0.7043  0.4835
  677MOL0     C91287   9.449  -1.571   0.704 -0.4509  0.0231  0.5292
  677MOL0     C91288   9.348  -1.658   0.779 -0.3073 -0.5522  0.3590
  677MOL0     C91289   9.409  -1.464   0.619 -0.3116 -0.3075 -0.1543
  677MOL0     C91290   9.266  -1.418   0.605  0.4782  0.7461 -0.5203
  677MOL0     O91291   9.172  -1.454   0.692  0.0053  0.3841 -0.3718
  677MOL0     C91292   9.040  -1.418   0.683 -0.0156 -0.3307 -0.4629
  677MOL0     C91293   8.945  -1.514   0.727 -0.1498  0.0093  0.0290
  677MOL0     C91294   8.802  -1.478   0.739  0.7360 -0.6150 -0.5121
  677MOL0     C91295   8.762  -1.346   0.712  0.0209 -0.3260 -0.3928
  677MOL0     O91296   8.630  -1.296   0.710  0.2372  0.1893 -0.0944
  677MOL0     C91297   8.520  -1.371   0.771 -0.1831 -0.0088 -0.3774
  677MOL0     C91298   8.463  -1.460   0.658  0.5575 -0.1030 -0.5992
  677MOL0     C91299   8.321  -1.508   0.675 -0.6797  0.9424  0.0970
  677MOL0     C91300   8.307  -1.658   0.653 -0.3072  0.0615  0.2105
  677MOL0     C91301   8.178  -1.715   0.686 -0.1558  0.2444 -0.2504
  677MOL0     C91302   8.048  -1.631   0.669 -0.8854  0.5293  0.7443
  677MOL0     C91303   7.923  -1.707   0.708 -0.0195  0.3793 -0.2132
  677MOL0     C91304   7.799  -1.619   0.689 -1.2045  0.3025 -0.0580
  677MOL0    Cl91305   7.807  -1.455   0.764  0.5024 -0.6208 -0.3423
  677MOL0     C91306   8.859  -1.254   0.667 -0.9822 -0.5672 -0.1307
  677MOL0     C91307   8.991  -1.287   0.656  0.2392 -0.5246  0.1537
  677MOL0     O91308   9.250  -1.339   0.516 -0.0066  0.3117 -0.1153
  677MOL0     C91309   9.520  -1.389   0.558 -0.4431 -0.0490 -0.1566
  677MOL0     C91310   9.658  -1.413   0.597  0.0792  0.7042 -0.3950
  677MOL0     N91311  10.374  -1.317   0.755  0.4805  0.2664  0.9623
  677MOL0     N91312  10.432  -1.201   0.759 -0.6958 -0.8247  0.7825
  677MOL0     C91313  10.113  -0.243   1.182 -0.3144 -0.2327  0.0296
  677MOL0     C91314  10.026  -0.168   1.117  0.0893 -0.5219  1.1293
  677MOL0     C91315   9.718   0.132   1.001 -0.2184  0.1905  0.6521
  677MOL0     C91316   9.732   0.244   0.909 -0.0471  0.0297  0.1777
  677MOL0     C91317   9.626   0.325   0.868 -0.6666  0.2108  0.2818
  677MOL0     C91318   9.501   0.290   0.913 -0.5468 -0.3000  0.2684
  677MOL0     O91319   9.388   0.356   0.884 -0.3219  0.3342 -1.0766
  677MOL0     C91320   9.371   0.496   0.867 -0.0320  0.1621 -0.3505
  677MOL0     C91321   9.232   0.546   0.854 -0.2813  0.7241 -0.7855
  677MOL0     C91322   9.137   0.466   0.946 -0.1706  0.3910 -0.2628
  677MOL0     C91323   9.017   0.559   0.976 -0.7572  0.4857  0.0642
  677MOL0     C91324   8.923   0.589   0.867  0.1190 -0.4561  0.0822
  677MOL0     C91325   8.845   0.615   0.778 -0.2234 -0.1027 -1.0331
  677MOL0     C91326   9.485   0.194   1.008 -0.3463 -0.2613 -0.2559
  677MOL0     C91327   9.591   0.117   1.056 -0.7710 -0.4653  0.3115
  677MOL0     H91328   9.802  -0.117   1.360  1.4338  5.2699 -1.3673
  677MOL0     H91329   9.938  -0.264   1.478 -1.3346  0.0115 -0.1905
  677MOL0     H91330  10.215  -0.549   1.439 -1.6379 -0.7272  1.0310
  677MOL0     H91331  10.046  -0.508   1.430  0.4978  1.9889  0.9916
  677MOL0     H91332  10.041  -0.524   1.201  2.3433  2.0559  1.0526
  677MOL0     H91333  10.210  -0.564   1.188 -0.6499  0.5049 -0.7935
  677MOL0     H91334  10.177  -0.779   1.302  0.1755  0.1270  0.3561
  677MOL0     H91335  10.000  -0.747   1.296  0.1453 -0.6087 -1.3007
  677MOL0     H91336  10.061  -0.880   1.115 -1.6272  0.2656 -1.5373
  677MOL0     H91337  10.039  -0.721   1.042  0.7467  0.3439 -0.7096
  677MOL0     H91338  10.298  -0.706   1.045  2.1306 -1.7875 -1.8328
  677MOL0     H91339  10.302  -0.858   1.119 -1.2255 -0.8990  1.5636
  677MOL0     H91340  10.165  -0.940   0.893 -0.7677  0.4612  0.3269
  677MOL0     H91341  10.190  -0.775   0.852 -0.5100 -1.0636 -0.2175
  677MOL0     H91342  10.369  -0.907   0.740  2.8055 -1.5228 -0.0958
  677MOL0     H91343  10.431  -0.794   0.859 -0.0052 -0.0706 -1.4339
  677MOL0     H91344  10.427  -1.007   1.024  1.1766  0.5373  0.3629
  677MOL0     H91345  10.558  -1.021   0.889 -0.7566  0.6587 -2.2274
  677MOL0     H91346  10.263  -1.189   1.036  0.3789  1.3462  0.0271
  677MOL0     H91347  10.266  -1.544   0.834  5.1566  0.8949  1.6848
  677MOL0     H91348  10.242  -1.501   1.006 -0.8615  0.7543  0.9291
  677MOL0     H91349  10.059  -1.386   0.792 -0.7212  2.0243  0.3065
  677MOL0     H91350  10.038  -1.381   0.968 -1.2228 -1.5402  0.4623
  677MOL0     H91351  10.024  -1.641   0.965  1.5528  1.8754  0.8777
  677MOL0     H91352  10.049  -1.635   0.792 -0.9817 -1.8341  1.5019
  677MOL0     H91353   9.817  -1.490   0.927 -1.6358  0.3645  0.0041
  677MOL0     H91354   9.809  -1.660   0.876  0.8536 -0.4474 -1.4794
  677MOL0     H91355   9.613  -1.703   0.765  1.2364 -0.4818 -0.1394
  677MOL0     H91356   9.276  -1.688   0.702 -1.3238 -1.4732  1.6154
  677MOL0     H91357   9.387  -1.749   0.827  0.0151 -1.7562 -2.0566
  677MOL0     H91358   9.287  -1.601   0.850  1.9868 -0.0131  2.0469
  677MOL0     H91359   8.978  -1.614   0.751 -1.9725 -0.6633 -0.0475
  677MOL0     H91360   8.720  -1.545   0.764 -1.1672  1.5130 -0.7820
  677MOL0     H91361   8.555  -1.430   0.856 -1.9448  0.3374  0.6236
  677MOL0     H91362   8.448  -1.296   0.806 -3.2102 -2.1169 -1.6631
  677MOL0     H91363   8.447  -1.391   0.574  1.5378 -2.2693 -2.6513
  677MOL0     H91364   8.534  -1.541   0.643  0.8888  0.4440 -2.2116
  677MOL0     H91365   8.251  -1.457   0.608  1.0950  2.4037 -0.7410
  677MOL0     H91366   8.279  -1.507   0.776 -2.2923 -3.7575 -0.3172
  677MOL0     H91367   8.354  -1.681   0.558 -0.4679  1.3620 -0.2081
  677MOL0     H91368   8.376  -1.715   0.716  0.9868 -1.1472 -2.1737
  677MOL0     H91369   8.192  -1.751   0.788  2.5003  1.3357 -0.1545
  677MOL0     H91370   8.165  -1.806   0.625  2.0319  1.3772 -2.5800
  677MOL0     H91371   8.042  -1.544   0.735 -1.4307  1.0824 -0.0253
  677MOL0     H91372   8.031  -1.586   0.571 -0.3414 -0.4264  0.1938
  677MOL0     H91373   7.935  -1.742   0.811 -0.5655 -1.5156 -0.7542
  677MOL0     H91374   7.925  -1.803   0.655 -0.1047 -1.1571  2.3423
  677MOL0     H91375   7.707  -1.674   0.714 -1.1910 -0.4778 -1.5803
  677MOL0     H91376   7.790  -1.592   0.583  3.8428 -1.8215 -1.3225
  677MOL0     H91377   8.846  -1.149   0.644  3.3507  0.3611  0.6639
  677MOL0     H91378   9.055  -1.207   0.621 -0.2495 -0.0904  0.2460
  677MOL0     H91379   9.498  -1.319   0.478  0.3876  0.6307  0.1914
  677MOL0     H91380   9.738  -1.347   0.563 -1.4059  1.7709 -1.9573
  677MOL0     H91381  10.200  -0.280   1.128  1.7395  0.4526  2.6811
  677MOL0     H91382  10.054  -0.140   1.016  2.7683 -2.8147  1.0937
  677MOL0     H91383   9.830   0.275   0.874 -1.3100  2.3345 -1.6745
  677MOL0     H91384   9.646   0.410   0.804 -1.1583 -0.8553 -1.3492
  677MOL0     H91385   9.434   0.540   0.944  2.1818  0.1860 -2.0808
  677MOL0     H91386   9.425   0.517   0.775 -1.0200 -4.3335 -2.2143
  677MOL0     H91387   9.192   0.531   0.754 -0.3636  0.5980 -0.7326
  677MOL0     H91388   9.245   0.651   0.883 -1.1056  1.2270 -2.1373
  677MOL0     H91389   9.188   0.448   1.041  1.5475  1.7380 -0.8718
  677MOL0     H91390   9.099   0.375   0.899  0.8334 -0.0517 -0.2506
  677MOL0     H91391   9.051   0.657   1.012 -1.5157  1.4985 -1.8250
  677MOL0     H91392   8.954   0.524   1.057  2.0351 -0.3240  2.0431
  677MOL0     H91393   8.795   0.641   0.687 -1.5100 -1.3142 -0.7072
  677MOL0     H91394   9.382   0.176   1.036 -0.7931  0.0616 -1.6104
  677MOL0     H91395   9.557   0.051   1.136 -2.7363 -1.3503 -1.1720
  678MOL0     O91396   8.757   6.586   7.195  0.3626  0.6915 -0.2299
  678MOL0     C91397   8.806   6.672   7.269 -0.0833 -0.4331  0.3959
  678MOL0     O91398   8.736   6.738   7.362  0.4016  0.0699  0.1013
  678MOL0     C91399   8.598   6.732   7.370 -0.9615  0.0239 -0.5680
  678MOL0     C91400   8.504   6.710   7.276 -0.2185  0.9194  0.4412
  678MOL0     C91401   8.374   6.684   7.300  0.4054  0.5487  0.1038
  678MOL0     C91402   8.327   6.709   7.428 -0.2142 -0.6932  0.2662
  678MOL0     O91403   8.197   6.676   7.449  0.2787 -0.4494 -1.0190
  678MOL0     C91404   8.160   6.633   7.580 -0.1081  0.3156  0.0649
  678MOL0     C91405   8.014   6.608   7.571  0.8164  0.0447  0.2885
  678MOL0     C91406   7.963   6.471   7.627 -0.3896 -0.6263  0.0357
  678MOL0     C91407   7.817   6.462   7.668  0.7461  0.3250 -0.1170
  678MOL0     C91408   7.780   6.353   7.767  0.2099 -0.6052 -0.0036
  678MOL0     C91409   7.650   6.275   7.738  0.1510  0.1025 -0.4096
  678MOL0     C91410   7.529   6.369   7.714 -0.8737  0.4292 -0.3600
  678MOL0     C91411   7.399   6.308   7.771 -0.4796 -0.6387  0.1855
  678MOL0     N91412   7.379   6.318   7.913 -0.5588  0.6619  0.4917
  678MOL0     C91413   7.444   6.392   8.002  0.8494  0.0083 -0.2679
  678MOL0     C91414   7.416   6.337   8.120 -0.1182  0.8388  0.2312
  678MOL0     C91415   7.479   6.363   8.249  1.0281  0.0669 -0.1265
  678MOL0     C91416   7.631   6.334   8.249  0.2084  0.0446  0.4786
  678MOL0     C91417   7.660   6.195   8.203  0.5010 -0.5067  0.0475
  678MOL0     C91418   7.805   6.163   8.199  0.1612  1.2344  0.5420
  678MOL0     O91419   7.869   6.214   8.085  1.6374 -0.4054  0.1821
  678MOL0     C91420   8.004   6.200   8.091 -0.5278 -0.1577 -0.0441
  678MOL0     C91421   8.071   6.298   8.021  0.6709  0.9348 -0.0377
  678MOL0     C91422   8.206   6.314   8.020 -0.6498 -0.4517  0.2728
  678MOL0     C91423   8.258   6.441   7.942  0.7500  0.1359 -0.4815
  678MOL0     C91424   8.286   6.227   8.095 -0.4158  0.1723  0.8306
  678MOL0     C91425   8.438   6.224   8.098  0.0799  0.7214 -0.3271
  678MOL0     O91426   8.490   6.116   8.163 -0.3552  0.3083 -0.2715
  678MOL0     C91427   8.618   6.084   8.135  0.5875  0.1775  1.1833
  678MOL0     C91428   8.731   6.161   8.175  0.3039 -0.0374 -0.0905
  678MOL0     C91429   8.866   6.118   8.158 -0.1996  0.0224 -0.4481
  678MOL0     C91430   8.883   5.993   8.098 -0.6591 -0.1774 -0.8039
  678MOL0     O91431   9.010   5.941   8.074  0.4424  0.1965  0.0223
  678MOL0     C91432   9.061   5.902   8.200 -0.2161 -0.0965  0.8640
  678MOL0     C91433   9.159   5.796   8.184  0.3478  0.1536 -0.1152
  678MOL0     C91434   9.281   5.835   8.102 -0.5543 -0.4920  0.5157
  678MOL0     C91435   9.375   5.946   8.171 -0.3548 -0.2863  0.8869
  678MOL0     C91436   9.436   5.893   8.311  0.8084 -0.1165  1.1101
  678MOL0     C91437   9.525   5.769   8.303  0.1078 -1.4283  0.2622
  678MOL0     C91438   9.580   5.739   8.449  0.6511  0.0453 -0.5383
  678MOL0     C91439   9.668   5.615   8.440 -0.0758 -0.0843  0.3591
  678MOL0    Cl91440   9.685   5.575   8.611  0.0865  0.2864 -0.3000
  678MOL0     C91441   8.777   5.915   8.054  0.4224  0.6657 -0.7623
  678MOL0     C91442   8.641   5.950   8.079 -0.6432  0.2532  0.6500
  678MOL0     O91443   8.503   6.318   8.050 -0.1631 -0.5456 -0.5612
  678MOL0     C91444   8.223   6.123   8.162 -0.1377  0.3008 -0.5634
  678MOL0     C91445   8.084   6.109   8.156 -0.3300 -0.7723  0.9253
  678MOL0     N91446   7.314   6.242   8.102 -0.4182  0.3163  0.6268
  678MOL0     N91447   7.309   6.222   7.978 -0.1377 -0.6521 -0.2559
  678MOL0     C91448   8.420   6.750   7.522 -1.1893  0.1668  0.1032
  678MOL0     C91449   8.550   6.765   7.501 -0.2823 -0.4109  0.6069
  678MOL0     C91450   8.956   6.688   7.284  0.4288 -0.2178  0.2308
  678MOL0     C91451   9.044   6.591   7.219 -0.0780 -0.2512  0.2169
  678MOL0     C91452   9.188   6.608   7.236  0.0745 -0.0267  0.3670
  678MOL0     C91453   9.246   6.710   7.317  0.4745 -0.1324  0.2220
  678MOL0     O91454   9.374   6.737   7.327  0.4739  0.4541  0.1489
  678MOL0     C91455   9.472   6.627   7.322  0.5126 -0.6744 -0.1445
  678MOL0     C91456   9.488   6.588   7.466  1.2062 -0.0102  0.3809
  678MOL0     C91457   9.608   6.649   7.534 -0.1707  0.6145 -0.6602
  678MOL0     C91458   9.611   6.799   7.518  0.5783  0.2228  0.6539
  678MOL0     C91459   9.701   6.861   7.616 -0.9964  0.5480  0.7565
  678MOL0     C91460   9.762   6.911   7.710  0.2630  0.3084  0.6926
  678MOL0     C91461   9.150   6.802   7.367 -0.7245  0.7838 -0.7634
  678MOL0     C91462   9.012   6.793   7.352  0.4000  0.1611 -0.9641
  678MOL0     H91463   8.537   6.698   7.173  0.4750 -1.3135  0.8789
  678MOL0     H91464   8.309   6.647   7.221 -2.1155  0.4569  2.0643
  678MOL0     H91465   8.218   6.543   7.602 -2.2966 -1.4161 -0.9755
  678MOL0     H91466   8.177   6.702   7.664 -2.4674 -0.4170  1.2381
  678MOL0     H91467   7.959   6.687   7.623 -0.1892  0.4220 -1.3016
  678MOL0     H91468   7.979   6.616   7.468  0.0787 -3.3790  0.1448
  678MOL0     H91469   7.981   6.390   7.556  2.1323 -1.1474  1.1488
  678MOL0     H91470   8.027   6.445   7.712 -0.5210  1.1851  0.7509
  678MOL0     H91471   7.776   6.562   7.687 -1.3620 -0.2689 -1.3227
  678MOL0     H91472   7.768   6.431   7.576  0.0072 -0.5807  0.5690
  678MOL0     H91473   7.861   6.281   7.786  0.7626 -0.1253 -0.4887
  678MOL0     H91474   7.775   6.410   7.861  0.9648 -0.3122 -0.1342
  678MOL0     H91475   7.669   6.222   7.644  0.5779  5.1334 -3.5525
  678MOL0     H91476   7.624   6.215   7.826 -1.1886  0.8508 -0.2791
  678MOL0     H91477   7.538   6.468   7.759 -1.0925  1.5973 -2.7525
  678MOL0     H91478   7.526   6.389   7.606  0.0319 -1.2331 -0.7212
  678MOL0     H91479   7.398   6.205   7.733 -1.2119 -0.3623 -0.5668
  678MOL0     H91480   7.313   6.370   7.745  2.5257  4.9544  1.8560
  678MOL0     H91481   7.524   6.465   7.988  0.6589  0.6373  1.6102
  678MOL0     H91482   7.458   6.465   8.285 -0.3958 -0.7439  1.5148
  678MOL0     H91483   7.436   6.302   8.330  1.2866  0.5888  0.4136
  678MOL0     H91484   7.663   6.338   8.353  3.6927 -2.0562 -0.3331
  678MOL0     H91485   7.683   6.406   8.185  0.6961 -1.5579 -1.0213
  678MOL0     H91486   7.615   6.180   8.104  1.0603  1.1761 -0.4885
  678MOL0     H91487   7.611   6.122   8.269  2.4390 -1.9854 -0.0677
  678MOL0     H91488   7.814   6.054   8.192  2.0497  1.4463 -2.0243
  678MOL0     H91489   7.847   6.204   8.292 -0.8394  2.6902  0.3762
  678MOL0     H91490   8.020   6.380   7.971  0.7507  2.2379  1.9004
  678MOL0     H91491   8.319   6.506   8.006  0.4928 -0.3843  0.3053
  678MOL0     H91492   8.308   6.420   7.848 -1.1758  2.2618 -2.1029
  678MOL0     H91493   8.177   6.510   7.913  0.8029  1.3793  2.0344
  678MOL0     H91494   8.719   6.261   8.216  3.2240  0.5266 -0.4374
  678MOL0     H91495   8.949   6.180   8.190  0.7640 -1.3348 -0.2814
  678MOL0     H91496   9.108   5.994   8.235 -1.4501  0.9333 -0.1399
  678MOL0     H91497   8.992   5.871   8.279 -0.2675  0.4268  1.0289
  678MOL0     H91498   9.191   5.758   8.281 -1.6665  0.6612  0.8061
  678MOL0     H91499   9.100   5.714   8.142 -1.2227  0.4755  1.3187
  678MOL0     H91500   9.245   5.870   8.005  0.5691  1.4424  0.7425
  678MOL0     H91501   9.345   5.746   8.103 -1.9622 -1.5696 -0.8065
  678MOL0     H91502   9.460   5.961   8.104  0.1926  0.1020  1.6526
  678MOL0     H91503   9.320   6.041   8.183  0.2040  0.3019 -0.9206
  678MOL0     H91504   9.348   5.870   8.372  0.2409 -1.4569 -0.1580
  678MOL0     H91505   9.482   5.979   8.361 -0.8884  1.6197 -0.1444
  678MOL0     H91506   9.467   5.683   8.267 -0.9703 -0.8895  0.6770
  678MOL0     H91507   9.607   5.787   8.232 -0.6640 -1.1373 -0.5813
  678MOL0     H91508   9.495   5.720   8.515  0.4341 -2.0874 -1.3729
  678MOL0     H91509   9.635   5.826   8.485  0.0877  0.2557 -0.1652
  678MOL0     H91510   9.769   5.635   8.402 -0.2102  0.7559  0.4170
  678MOL0     H91511   9.616   5.536   8.385 -1.4503  2.2146 -1.8712
  678MOL0     H91512   8.815   5.822   8.012  0.9909 -0.7303  2.4911
  678MOL0     H91513   8.569   5.887   8.029 -0.2061  1.2842 -1.4010
  678MOL0     H91514   8.276   6.051   8.224 -0.8363 -0.0402 -0.3554
  678MOL0     H91515   8.030   6.024   8.196  0.5127 -0.8712  1.9188
  678MOL0     H91516   8.384   6.759   7.624 -0.4754  0.9164  0.2995
  678MOL0     H91517   8.619   6.779   7.583  1.0248 -0.3051 -0.4694
  678MOL0     H91518   8.996   6.512   7.164 -0.4198 -0.4192  0.7475
  678MOL0     H91519   9.262   6.540   7.194  1.9649  2.3028 -0.2745
  678MOL0     H91520   9.437   6.542   7.262 -1.2782  0.3102 -0.5835
  678MOL0     H91521   9.568   6.661   7.282  0.2972  2.8815  1.9738
  678MOL0     H91522   9.489   6.478   7.473  1.0326 -0.0675 -0.4074
  678MOL0     H91523   9.402   6.627   7.521  0.6130 -0.4683 -0.2106
  678MOL0     H91524   9.699   6.615   7.483  0.3650  1.3535 -0.2252
  678MOL0     H91525   9.621   6.619   7.638 -1.0985  2.2993 -0.0159
  678MOL0     H91526   9.510   6.835   7.542  0.8116 -0.9882  4.0499
  678MOL0     H91527   9.631   6.824   7.414 -1.4307 -1.6075 -0.2479
  678MOL0     H91528   9.814   6.969   7.783  0.0161  4.9490 -2.4123
  678MOL0     H91529   9.192   6.866   7.444  0.3156 -2.5262  1.7093
  678MOL0     H91530   8.945   6.870   7.390 -1.5095 -1.5246 -0.7520
  679MOL0     O91531   6.867   7.418  11.260  0.6347 -0.1709  0.3549
  679MOL0     C91532   6.927   7.346  11.340  1.0576 -0.8154  0.9655
  679MOL0     O91533   6.864   7.264  11.428  0.7508 -0.3676 -0.9543
  679MOL0     C91534   6.728   7.260  11.429 -0.3614 -0.2300  0.5446
  679MOL0     C91535   6.659   7.362  11.497  0.6330  0.0518 -0.7532
  679MOL0     C91536   6.520   7.372  11.480  0.1818 -0.0799 -0.6203
  679MOL0     C91537   6.448   7.279  11.400 -0.6819  0.5915 -0.1430
  679MOL0     O91538   6.320   7.314  11.381  0.0381  0.5619 -0.5496
  679MOL0     C91539   6.221   7.223  11.443  0.9803 -0.6452  0.7141
  679MOL0     C91540   6.090   7.281  11.384  0.6967 -0.2471 -0.2098
  679MOL0     C91541   5.960   7.217  11.444 -0.2148  0.1819  0.1086
  679MOL0     C91542   5.928   7.077  11.400  0.5443 -0.9293 -0.0355
  679MOL0     C91543   5.846   6.999  11.500  0.2180  0.2598  0.6685
  679MOL0     C91544   5.694   7.010  11.490  0.5221  0.4553  0.1871
  679MOL0     C91545   5.630   7.131  11.426  0.1744  0.1500 -0.3097
  679MOL0     C91546   5.485   7.158  11.455 -0.7889  0.3801  0.1992
  679MOL0     N91547   5.386   7.070  11.387  0.4357 -0.2191  0.5601
  679MOL0     C91548   5.345   6.942  11.432 -0.4720 -0.3303 -0.6045
  679MOL0     C91549   5.266   6.897  11.329 -0.1701  0.2421 -0.5911
  679MOL0     C91550   5.207   6.756  11.344  0.5918  0.2993 -0.4927
  679MOL0     C91551   5.069   6.774  11.415 -0.0561  0.0084  0.5717
  679MOL0     C91552   4.975   6.659  11.421 -0.1908 -0.0691 -0.2440
  679MOL0     C91553   4.845   6.691  11.494  0.0843  0.3253 -0.5433
  679MOL0     O91554   4.802   6.827  11.464 -0.0744  0.0965  0.2481
  679MOL0     C91555   4.674   6.870  11.459  0.3970 -0.9396 -0.3109
  679MOL0     C91556   4.650   6.992  11.400  0.2543 -0.3284 -0.3068
  679MOL0     C91557   4.517   7.042  11.389 -0.3936  0.1994 -0.8474
  679MOL0     C91558   4.512   7.177  11.330  0.0750 -0.7628 -0.4061
  679MOL0     C91559   4.402   6.962  11.422 -0.8000  0.3314 -0.8726
  679MOL0     C91560   4.258   6.993  11.406  0.0996 -0.0243  0.4020
  679MOL0     O91561   4.222   7.115  11.349  0.2660 -0.0338  0.6204
  679MOL0     C91562   4.094   7.167  11.380  0.1727 -0.1723  0.6148
  679MOL0     C91563   4.044   7.163  11.512 -0.5362  0.0607 -0.6993
  679MOL0     C91564   3.908   7.197  11.541 -0.8795 -0.1325 -0.3906
  679MOL0     C91565   3.826   7.258  11.448  0.5938 -0.4402  0.2215
  679MOL0     O91566   3.697   7.309  11.479 -0.0057 -0.0424  0.9507
  679MOL0     C91567   3.631   7.234  11.577 -0.2787  0.7537 -0.7938
  679MOL0     C91568   3.479   7.242  11.556 -0.0388 -0.3325 -0.6399
  679MOL0     C91569   3.398   7.187  11.677  0.8149  0.5646 -0.7014
  679MOL0     C91570   3.255   7.217  11.655 -0.1010 -0.3312 -1.0130
  679MOL0     C91571   3.181   7.194  11.787  0.0645 -0.1794  0.2784
  679MOL0     C91572   3.042   7.252  11.788  0.3694 -0.9100 -0.5757
  679MOL0     C91573   2.955   7.178  11.891 -0.7064 -0.5557 -0.1569
  679MOL0     C91574   2.822   7.242  11.912 -0.0462  0.9824 -0.3376
  679MOL0    Cl91575   2.743   7.279  11.757  0.0954 -0.3295 -0.0419
  679MOL0     C91576   3.880   7.276  11.318  0.5729 -0.0780 -0.0871
  679MOL0     C91577   4.015   7.222  11.280 -0.3550 -0.8280 -0.1278
  679MOL0     O91578   4.178   6.913  11.456 -0.5343  0.4077  0.0073
  679MOL0     C91579   4.440   6.834  11.483  0.9397 -0.8586  0.0292
  679MOL0     C91580   4.568   6.792  11.504 -0.6997  0.0025 -0.2639
  679MOL0     N91581   5.243   6.996  11.237  0.1263 -0.1757 -0.3244
  679MOL0     N91582   5.308   7.100  11.274 -0.0118 -0.1280 -0.7454
  679MOL0     C91583   6.519   7.160  11.357  0.1017 -0.5660  1.4027
  679MOL0     C91584   6.659   7.158  11.371  0.1854 -0.1000 -0.5391
  679MOL0     C91585   7.077   7.351  11.347  0.0604 -0.8515 -0.4415
  679MOL0     C91586   7.147   7.289  11.453 -0.1957 -0.5558  0.9664
  679MOL0     C91587   7.279   7.312  11.475  0.5795  0.0671  0.4154
  679MOL0     C91588   7.344   7.401  11.397  0.7927 -0.5653  1.0041
  679MOL0     O91589   7.478   7.451  11.404  0.1404  0.0033 -0.1452
  679MOL0     C91590   7.543   7.405  11.518 -0.2220  0.1485 -0.4752
  679MOL0     C91591   7.698   7.441  11.508  0.5298 -0.3934  0.1294
  679MOL0     C91592   7.770   7.335  11.589 -0.8553 -0.3074 -0.2117
  679MOL0     C91593   7.926   7.361  11.602 -0.5602 -0.3080 -0.0064
  679MOL0     C91594   7.952   7.486  11.672  0.7474  0.2994 -0.8939
  679MOL0     C91595   7.981   7.591  11.735  0.2165  0.2244  0.1047
  679MOL0     C91596   7.274   7.446  11.278  0.2609 -0.4295  0.1413
  679MOL0     C91597   7.142   7.421  11.252  0.0127  0.2907 -0.0127
  679MOL0     H91598   6.709   7.432  11.564 -0.3828 -2.1213  2.5253
  679MOL0     H91599   6.464   7.459  11.513 -1.0562 -1.3197  0.7504
  679MOL0     H91600   6.229   7.120  11.407 -2.3150 -0.9114  0.4231
  679MOL0     H91601   6.217   7.221  11.552  1.6788 -0.4075  0.7478
  679MOL0     H91602   6.098   7.389  11.402  1.5632  0.0620 -2.2745
  679MOL0     H91603   6.083   7.282  11.275  0.4421  0.7882 -0.1970
  679MOL0     H91604   5.954   7.236  11.552 -0.6774 -2.2198  0.5605
  679MOL0     H91605   5.884   7.278  11.393  0.2174 -2.2727 -3.8713
  679MOL0     H91606   5.876   7.071  11.304  0.7879  1.7406 -0.4087
  679MOL0     H91607   6.026   7.028  11.395  0.8443 -0.3297 -0.1311
  679MOL0     H91608   5.871   6.893  11.498 -0.7699  0.0016 -2.0680
  679MOL0     H91609   5.871   7.033  11.601 -1.1248  2.5858  0.2999
  679MOL0     H91610   5.650   6.937  11.421 -0.7980  0.0745  1.3773
  679MOL0     H91611   5.651   6.986  11.587  0.8489 -0.3596  0.1465
  679MOL0     H91612   5.676   7.218  11.474  0.9727 -0.4751  0.1024
  679MOL0     H91613   5.652   7.140  11.319 -0.1595  2.5421 -0.2244
  679MOL0     H91614   5.475   7.267  11.449  1.6860  1.0006  3.9069
  679MOL0     H91615   5.476   7.151  11.564  1.3501  1.0033  0.4652
  679MOL0     H91616   5.386   6.896  11.522  2.4302  3.7267  0.4297
  679MOL0     H91617   5.191   6.709  11.246  0.3011  1.1065 -0.8446
  679MOL0     H91618   5.266   6.684  11.402  0.3070 -0.3598 -1.0017
  679MOL0     H91619   5.016   6.849  11.355 -1.8609 -2.4518 -1.0669
  679MOL0     H91620   5.091   6.818  11.513  0.5902  1.7632 -0.3113
  679MOL0     H91621   5.033   6.583  11.474  1.9044  0.9013 -1.0636
  679MOL0     H91622   4.934   6.639  11.322 -2.9327  3.0153  0.1040
  679MOL0     H91623   4.862   6.682  11.602 -1.2295 -0.8577 -0.4195
  679MOL0     H91624   4.761   6.628  11.465 -1.3657  1.9032  0.0140
  679MOL0     H91625   4.721   7.064  11.361 -1.0625  1.6461  0.7814
  679MOL0     H91626   4.481   7.184  11.225 -2.4568  0.3686  0.3392
  679MOL0     H91627   4.451   7.245  11.390  0.0143 -0.4764 -0.7898
  679MOL0     H91628   4.610   7.224  11.340 -0.8608  1.2782 -0.2813
  679MOL0     H91629   4.100   7.131  11.599 -0.7489  0.4957 -0.3972
  679MOL0     H91630   3.871   7.170  11.639  1.5120  1.6444  1.1099
  679MOL0     H91631   3.657   7.129  11.595 -1.5138  0.8547  2.0283
  679MOL0     H91632   3.645   7.278  11.676  1.5042 -0.0839 -0.6234
  679MOL0     H91633   3.449   7.343  11.530  2.1329  0.3618 -0.5902
  679MOL0     H91634   3.449   7.184  11.468 -2.5882 -2.8439  1.6701
  679MOL0     H91635   3.423   7.244  11.768 -0.3915 -1.2259  0.8226
  679MOL0     H91636   3.419   7.080  11.683  1.3697  0.4402 -3.7186
  679MOL0     H91637   3.235   7.319  11.622 -0.7213 -0.3665 -0.7651
  679MOL0     H91638   3.205   7.153  11.582 -4.1012 -0.4590  1.5462
  679MOL0     H91639   3.243   7.240  11.864 -0.4788  1.4922 -0.2345
  679MOL0     H91640   3.174   7.089  11.816 -1.3973  0.5015  2.6392
  679MOL0     H91641   3.052   7.358  11.812  0.6420 -1.1016  0.2007
  679MOL0     H91642   2.993   7.234  11.692  0.8325  0.1917 -1.0386
  679MOL0     H91643   3.002   7.179  11.990 -3.4861 -4.4857  1.4528
  679MOL0     H91644   2.950   7.075  11.854  4.8446 -1.1855 -0.0317
  679MOL0     H91645   2.831   7.327  11.979 -0.7035 -0.3337  1.4946
  679MOL0     H91646   2.755   7.180  11.973  0.1811  0.5821 -0.4888
  679MOL0     H91647   3.814   7.308  11.239  2.1670 -1.7258 -2.1957
  679MOL0     H91648   4.054   7.227  11.179  2.9825  1.4009  1.1217
  679MOL0     H91649   4.347   6.781  11.502  0.9626 -0.8590  0.1406
  679MOL0     H91650   4.598   6.696  11.545  2.4358  1.0515  0.1921
  679MOL0     H91651   6.465   7.071  11.327 -0.4090 -0.1122  0.9493
  679MOL0     H91652   6.711   7.070  11.335 -1.4274  0.0325 -3.5463
  679MOL0     H91653   7.099   7.237  11.536  2.2590 -0.1901  2.7355
  679MOL0     H91654   7.323   7.257  11.558  0.4987 -0.1053  0.3439
  679MOL0     H91655   7.509   7.449  11.612  2.5550  1.8106 -0.1201
  679MOL0     H91656   7.528   7.297  11.511  1.3021 -0.0580 -1.0112
  679MOL0     H91657   7.709   7.541  11.551 -0.5537 -0.3689  0.3979
  679MOL0     H91658   7.735   7.441  11.405  0.0383 -0.3516 -0.0545
  679MOL0     H91659   7.768   7.245  11.528  0.6813 -0.4704 -0.0414
  679MOL0     H91660   7.728   7.318  11.689  0.4961 -2.5020  0.0321
  679MOL0     H91661   7.964   7.380  11.502 -1.2719  1.0054 -0.0421
  679MOL0     H91662   7.981   7.272  11.636  2.1384  0.8283 -1.1031
  679MOL0     H91663   8.006   7.683  11.782 -0.2443  0.5412 -0.2598
  679MOL0     H91664   7.327   7.510  11.209  1.0145 -1.8381 -0.6294
  679MOL0     H91665   7.086   7.465  11.170  2.6350  2.1734 -0.9171
  680MOL0     O91666   2.496  11.023  10.296  0.3739  0.2910  0.8512
  680MOL0     C91667   2.487  10.991  10.175 -0.1024  0.6289 -0.0496
  680MOL0     O91668   2.541  11.068  10.073 -0.1207 -0.2997  0.9385
  680MOL0     C91669   2.646  11.151  10.117  0.2813 -0.0439 -0.0565
  680MOL0     C91670   2.623  11.268  10.187  0.0157  0.0007 -0.2266
  680MOL0     C91671   2.732  11.341  10.230 -0.3654  0.4701  0.1437
  680MOL0     C91672   2.867  11.307  10.202 -0.6925  0.1396 -0.2392
  680MOL0     O91673   2.965  11.386  10.253 -0.2994  0.3422 -0.6957
  680MOL0     C91674   3.097  11.367  10.193 -0.2274  0.0990 -0.2995
  680MOL0     C91675   3.199  11.479  10.233  0.2408  0.8151 -0.2059
  680MOL0     C91676   3.317  11.435  10.142  0.3579  0.0128  0.2520
  680MOL0     C91677   3.428  11.526  10.185 -1.4034 -0.1161  1.1951
  680MOL0     C91678   3.548  11.510  10.110 -0.2335 -0.3843 -0.8058
  680MOL0     C91679   3.665  11.598  10.162  0.0745 -0.9512 -0.1135
  680MOL0     C91680   3.783  11.573  10.071  0.5252  0.1091  0.2278
  680MOL0     C91681   3.869  11.691  10.061  0.0086  0.6045  0.4224
  680MOL0     N91682   4.002  11.657  10.003  0.2639  0.4400  0.1029
  680MOL0     C91683   4.019  11.642   9.867 -0.6861  0.1030  0.3446
  680MOL0     C91684   4.146  11.593   9.857  0.0712 -0.4919  0.1692
  680MOL0     C91685   4.211  11.559   9.724  0.6599 -0.1503 -0.2123
  680MOL0     C91686   4.336  11.640   9.690 -0.7898 -0.6237  0.2078
  680MOL0     C91687   4.461  11.550   9.718 -0.1241 -0.4012  0.2375
  680MOL0     C91688   4.598  11.617   9.692  0.1982  0.1769 -0.4962
  680MOL0     O91689   4.614  11.736   9.766  0.2367  0.0631 -0.1254
  680MOL0     C91690   4.655  11.728   9.896 -0.6041 -0.8357  0.9731
  680MOL0     C91691   4.573  11.743  10.010  0.2369 -0.1148  0.5351
  680MOL0     C91692   4.626  11.741  10.139  0.0202 -0.6636  0.2112
  680MOL0     C91693   4.515  11.750  10.246 -0.2500  0.0394  0.0489
  680MOL0     C91694   4.766  11.730  10.154 -0.6545 -0.0143  0.1052
  680MOL0     C91695   4.818  11.721  10.287  0.4645  0.4990 -0.8799
  680MOL0     O91696   4.937  11.650  10.285 -0.2520  0.0082  0.9548
  680MOL0     C91697   4.984  11.607  10.403 -0.0343 -0.3416 -0.3200
  680MOL0     C91698   4.937  11.491  10.465 -0.9431  0.1181  0.3975
  680MOL0     C91699   4.989  11.441  10.592 -0.3745  0.1204  0.2814
  680MOL0     C91700   5.088  11.513  10.653 -0.0447 -0.3326 -0.1811
  680MOL0     O91701   5.116  11.467  10.777 -0.0531 -0.6717  0.3792
  680MOL0     C91702   5.173  11.575  10.874  0.3816  0.1591  0.3597
  680MOL0     C91703   5.121  11.549  11.012  0.1019 -0.6586  0.4181
  680MOL0     C91704   4.971  11.509  11.011 -0.7904 -0.5868  0.7089
  680MOL0     C91705   4.887  11.612  10.941 -0.7526 -0.1832  0.9709
  680MOL0     C91706   4.738  11.574  10.923  0.4602 -0.2471  0.4232
  680MOL0     C91707   4.725  11.509  10.782  0.3190  0.3143 -0.0007
  680MOL0     C91708   4.578  11.486  10.768  0.2886  0.7917 -1.3748
  680MOL0     C91709   4.556  11.371  10.676 -0.1773  0.2952  0.3386
  680MOL0    Cl91710   4.545  11.422  10.506  0.0647  0.1915  0.1948
  680MOL0     C91711   5.155  11.620  10.581  0.2327 -0.0150 -0.5178
  680MOL0     C91712   5.098  11.673  10.463  0.2784  0.4168 -0.1583
  680MOL0     O91713   4.760  11.770  10.391  0.2464  0.0166  0.4757
  680MOL0     C91714   4.853  11.716  10.041 -1.1122  0.9004 -0.2005
  680MOL0     C91715   4.795  11.716   9.913 -0.6465 -0.5533 -0.4990
  680MOL0     N91716   4.199  11.594   9.989  0.0309 -1.1977  0.0305
  680MOL0     N91717   4.118  11.637  10.077  0.1380 -0.7423 -0.2923
  680MOL0     C91718   2.887  11.189  10.127 -0.8976 -0.3343 -0.4251
  680MOL0     C91719   2.776  11.112  10.079 -0.0372  0.0100 -0.5057
  680MOL0     C91720   2.417  10.872  10.129 -0.5509  0.5747  0.3838
  680MOL0     C91721   2.385  10.848   9.992  0.1694 -0.9326 -0.4806
  680MOL0     C91722   2.313  10.742   9.940  0.4029 -0.2485 -0.3771
  680MOL0     C91723   2.275  10.632  10.026  0.0375 -0.4007  0.1028
  680MOL0     O91724   2.207  10.527   9.970  0.0885  0.8461 -0.6436
  680MOL0     C91725   2.300  10.415   9.939 -0.1006  0.1247  0.0390
  680MOL0     C91726   2.258  10.284   9.994  0.5369 -0.4992 -0.0031
  680MOL0     C91727   2.103  10.271   9.969  0.6313  0.6598  0.3749
  680MOL0     C91728   2.047  10.136  10.016 -0.4982  0.8598  0.1759
  680MOL0     C91729   1.903  10.137  10.026 -0.0083 -0.4360 -1.0485
  680MOL0     C91730   1.782  10.141  10.044  0.4008 -0.0905 -0.7395
  680MOL0     C91731   2.308  10.649  10.163  0.2921  0.2100 -0.5526
  680MOL0     C91732   2.382  10.763  10.215 -0.4478 -1.2425 -0.3236
  680MOL0     H91733   2.523  11.307  10.200 -0.7714 -1.3012 -2.0043
  680MOL0     H91734   2.725  11.431  10.290 -1.5144  0.5894 -0.1509
  680MOL0     H91735   3.137  11.266  10.206  3.8290  1.5776  0.2215
  680MOL0     H91736   3.081  11.377  10.085 -1.5819 -2.0717 -0.3460
  680MOL0     H91737   3.162  11.578  10.203 -3.0429 -0.8840 -2.3247
  680MOL0     H91738   3.227  11.472  10.338  0.9924 -0.5168 -0.4706
  680MOL0     H91739   3.344  11.331  10.161 -2.3275 -0.9775 -0.8964
  680MOL0     H91740   3.304  11.442  10.033  0.3108 -1.6351  0.1337
  680MOL0     H91741   3.394  11.630  10.178  0.1413  0.4324  1.4762
  680MOL0     H91742   3.452  11.509  10.290 -1.0574 -0.9133  0.9940
  680MOL0     H91743   3.574  11.405  10.125 -0.8439 -0.5169 -0.6307
  680MOL0     H91744   3.527  11.523  10.003 -2.7143  0.9002 -0.2314
  680MOL0     H91745   3.641  11.704  10.170 -1.4880 -1.2845 -0.0012
  680MOL0     H91746   3.691  11.565  10.264  0.5050 -0.4975 -0.0712
  680MOL0     H91747   3.834  11.484  10.107  0.1411 -1.8678 -3.5374
  680MOL0     H91748   3.756  11.542   9.969 -1.5696  2.5345 -0.0692
  680MOL0     H91749   3.890  11.720  10.165 -0.6892 -0.5919  0.9207
  680MOL0     H91750   3.817  11.761   9.995  0.0711  0.0816 -0.1805
  680MOL0     H91751   3.951  11.660   9.785  1.8557 -0.6237 -2.0913
  680MOL0     H91752   4.235  11.453   9.732  0.0001 -0.2985 -0.1597
  680MOL0     H91753   4.141  11.575   9.641  0.5452  1.1730  0.1165
  680MOL0     H91754   4.333  11.729   9.753  1.8886  0.2740 -0.7750
  680MOL0     H91755   4.347  11.678   9.588 -1.7636 -0.4415  0.1641
  680MOL0     H91756   4.459  11.461   9.656  1.5192  0.2147 -0.7565
  680MOL0     H91757   4.457  11.516   9.822 -2.2004  0.0037  0.3376
  680MOL0     H91758   4.599  11.641   9.585  2.4627 -0.5806 -0.6950
  680MOL0     H91759   4.673  11.539   9.710 -1.2890 -0.9920  0.9810
  680MOL0     H91760   4.468  11.762   9.993  0.3734 -1.3241 -2.1104
  680MOL0     H91761   4.543  11.669  10.314  1.9310  2.2973  2.0629
  680MOL0     H91762   4.514  11.852  10.286  0.9476  0.0516  0.0813
  680MOL0     H91763   4.417  11.730  10.200 -0.5845 -3.0652  1.8335
  680MOL0     H91764   4.855  11.441  10.414  0.0060 -0.9150 -0.1645
  680MOL0     H91765   4.963  11.350  10.646  0.8181  0.1953  1.0232
  680MOL0     H91766   5.282  11.561  10.872  0.2350 -1.5901  2.2758
  680MOL0     H91767   5.150  11.679  10.847  0.1083  0.3611  1.3490
  680MOL0     H91768   5.181  11.466  11.051  1.1159 -0.0280  0.2221
  680MOL0     H91769   5.135  11.630  11.084 -1.5397 -1.3062  1.5347
  680MOL0     H91770   4.942  11.511  11.116 -1.9421  0.3369  0.3932
  680MOL0     H91771   4.951  11.416  10.956 -1.7308 -1.1557  1.9775
  680MOL0     H91772   4.884  11.701  11.005  1.2173  0.7871 -0.2036
  680MOL0     H91773   4.930  11.646  10.846 -2.6843 -2.0136 -0.6537
  680MOL0     H91774   4.688  11.671  10.928  0.9386  0.2562 -2.5852
  680MOL0     H91775   4.687  11.509  10.995 -4.4425  1.7010 -0.9010
  680MOL0     H91776   4.757  11.576  10.702 -0.4199 -0.2883 -0.8239
  680MOL0     H91777   4.784  11.420  10.759  2.6312  2.3943 -2.8953
  680MOL0     H91778   4.533  11.574  10.721 -0.5115 -1.0185 -4.3182
  680MOL0     H91779   4.529  11.476  10.865  2.9316 -0.7630 -0.0800
  680MOL0     H91780   4.464  11.320  10.705  1.0144 -1.8881  0.5257
  680MOL0     H91781   4.634  11.295  10.687 -1.1324 -0.7919 -0.1226
  680MOL0     H91782   5.217  11.689  10.636 -0.1212  0.7149 -1.0127
  680MOL0     H91783   5.138  11.759  10.409  0.3526 -0.9759 -2.4412
  680MOL0     H91784   4.961  11.710  10.048 -1.0466  2.0456 -0.0033
  680MOL0     H91785   4.858  11.695   9.827 -0.5387 -1.1652 -0.2749
  680MOL0     H91786   2.989  11.159  10.110 -0.6741 -1.0413  1.7943
  680MOL0     H91787   2.796  11.024  10.017  1.3666  1.2260 -1.8621
  680MOL0     H91788   2.399  10.923   9.914 -0.5406 -0.5487 -0.2506
  680MOL0     H91789   2.280  10.751   9.837 -0.0744 -3.9894 -0.6764
  680MOL0     H91790   2.303  10.420   9.830 -0.1635  0.6026  0.0572
  680MOL0     H91791   2.402  10.434   9.973  0.1224  2.0995 -1.5879
  680MOL0     H91792   2.278  10.291  10.102  1.9259  1.3421 -0.3298
  680MOL0     H91793   2.315  10.201   9.953  2.4551  1.5080 -1.6497
  680MOL0     H91794   2.093  10.279   9.861  0.7711  1.2867  0.4050
  680MOL0     H91795   2.043  10.351  10.014  0.8299  1.4227 -0.6760
  680MOL0     H91796   2.084  10.116  10.117 -1.2280 -3.5424 -0.2097
  680MOL0     H91797   2.087  10.062   9.945  3.4966  0.6041  2.4117
  680MOL0     H91798   1.676  10.147  10.060  0.4582 -1.2121  0.2361
  680MOL0     H91799   2.278  10.573  10.235  0.8459  0.3865 -0.1258
  680MOL0     H91800   2.381  10.782  10.322 -2.5750 -0.6647 -0.4096
  681MOL0     O91801   2.928   2.012   3.581 -0.1912 -0.9166  0.0241
  681MOL0     C91802   2.906   1.983   3.463 -0.9866  0.1288 -0.4508
  681MOL0     O91803   2.790   1.958   3.411 -0.6678  0.3189  0.0529
  681MOL0     C91804   2.681   1.956   3.498 -0.8442 -0.1061  0.7325
  681MOL0     C91805   2.681   1.863   3.605  1.0811 -0.5287  0.8500
  681MOL0     C91806   2.568   1.859   3.685  0.3094 -0.5059  0.1488
  681MOL0     C91807   2.466   1.951   3.678 -0.5391 -0.3769  0.4539
  681MOL0     O91808   2.357   1.930   3.751  0.7853 -0.0822 -0.7376
  681MOL0     C91809   2.230   1.991   3.724  0.7406  0.5026  0.7743
  681MOL0     C91810   2.142   1.981   3.845 -0.7815 -0.1345 -0.4538
  681MOL0     C91811   2.010   2.059   3.833  0.1415 -0.6006  0.2076
  681MOL0     C91812   1.949   2.136   3.948  0.2548 -0.7025 -0.0277
  681MOL0     C91813   1.797   2.096   3.974  0.0777  0.3774  0.0710
  681MOL0     C91814   1.715   2.191   4.055  0.4850 -0.2750  0.0613
  681MOL0     C91815   1.563   2.166   4.044 -0.2120 -0.6110 -0.8447
  681MOL0     C91816   1.497   2.252   4.147 -0.1360 -0.5011  0.3527
  681MOL0     N91817   1.382   2.191   4.214  0.3813  0.1818  0.3951
  681MOL0     C91818   1.386   2.134   4.332 -0.3008  0.3936 -0.9058
  681MOL0     C91819   1.254   2.099   4.350 -0.5783  0.0380  0.2373
  681MOL0     C91820   1.209   2.048   4.487  0.3294  0.3403 -0.0290
  681MOL0     C91821   1.061   2.097   4.519  0.8049  0.0120  0.0224
  681MOL0     C91822   0.952   2.007   4.456 -0.6831  0.2227 -0.4202
  681MOL0     C91823   0.812   2.040   4.507  0.3790 -0.6182  0.2578
  681MOL0     O91824   0.708   1.961   4.452  0.2105 -0.1729  0.2261
  681MOL0     C91825   0.580   1.985   4.494  1.0216  0.1972 -0.7177
  681MOL0     C91826   0.551   2.077   4.593 -0.4197 -0.0788 -0.0331
  681MOL0     C91827   0.422   2.082   4.644  0.1901 -0.5548 -0.1031
  681MOL0     C91828   0.402   2.186   4.765  0.3374 -0.6000 -0.5665
  681MOL0     C91829   0.320   1.998   4.594 -0.2951  0.6230 -0.9564
  681MOL0     C91830   0.183   2.003   4.646 -0.9826  0.1866 -0.3866
  681MOL0     O91831   0.091   1.963   4.549  0.1670  0.2833 -0.9443
  681MOL0     C91832  -0.038   1.977   4.579 -0.5661 -0.2137 -0.8165
  681MOL0     C91833  -0.119   1.870   4.547  0.3898 -0.1911  0.3817
  681MOL0     C91834  -0.255   1.879   4.572 -0.0877  0.6615  0.3100
  681MOL0     C91835  -0.308   1.986   4.642 -0.7284 -0.6208 -0.6543
  681MOL0     O91836  -0.439   1.983   4.677  0.7463  0.0520  0.5424
  681MOL0     C91837  -0.501   2.073   4.767  0.3020 -0.7977  0.4097
  681MOL0     C91838  -0.650   2.034   4.779  0.3876  0.5398  0.1371
  681MOL0     C91839  -0.732   2.139   4.860 -0.6808 -1.0976 -0.5012
  681MOL0     C91840  -0.879   2.097   4.876  0.3504 -0.0588  0.4379
  681MOL0     C91841  -0.958   2.209   4.944  0.2544 -0.8435 -0.0938
  681MOL0     C91842  -1.105   2.182   4.971  0.1374 -0.2285 -0.5847
  681MOL0     C91843  -1.176   2.147   4.844 -0.7908  0.1897 -0.0952
  681MOL0     C91844  -1.328   2.132   4.858 -1.1448 -0.3991 -0.5667
  681MOL0    Cl91845  -1.391   1.996   4.945  0.0128  0.5718 -0.0850
  681MOL0     C91846  -0.223   2.103   4.674  0.4989  0.7844  0.2012
  681MOL0     C91847  -0.088   2.094   4.633  1.0653  0.5380  0.1900
  681MOL0     O91848   0.167   2.042   4.762 -0.4485 -0.0576  0.8258
  681MOL0     C91849   0.343   1.908   4.486 -1.2124  0.0796 -0.0288
  681MOL0     C91850   0.480   1.901   4.437  0.9614  0.2504 -0.4834
  681MOL0     N91851   1.187   2.150   4.251  0.5839  0.4680  0.9715
  681MOL0     N91852   1.263   2.192   4.156 -0.7931 -0.2477  0.0931
  681MOL0     C91853   2.470   2.038   3.572  0.1797  0.8837  0.5743
  681MOL0     C91854   2.574   2.045   3.479 -0.6761  0.3696  0.8098
  681MOL0     C91855   3.024   1.990   3.369 -0.6771  0.2356 -0.9998
  681MOL0     C91856   3.157   2.012   3.426 -0.2631  0.0496  0.4373
  681MOL0     C91857   3.266   2.012   3.343 -0.5570  1.2288  0.2524
  681MOL0     C91858   3.237   2.005   3.205 -0.2929 -0.3757 -0.7412
  681MOL0     O91859   3.355   2.020   3.132 -0.1973 -0.1852  0.4715
  681MOL0     C91860   3.361   2.041   2.991  0.0320  0.1816 -0.2889
  681MOL0     C91861   3.292   2.167   2.935  0.3989  0.3878  0.4870
  681MOL0     C91862   3.391   2.289   2.936  0.7001  0.8421  0.4972
  681MOL0     C91863   3.471   2.316   3.070  0.1287  0.6929 -0.8026
  681MOL0     C91864   3.376   2.341   3.187  0.3207 -0.5328  0.0397
  681MOL0     C91865   3.303   2.366   3.284  0.0393  0.4130  1.0453
  681MOL0     C91866   3.113   1.982   3.151  0.9061  0.1933 -0.5495
  681MOL0     C91867   3.009   1.971   3.238  0.2529  0.7709  0.3687
  681MOL0     H91868   2.749   1.779   3.615 -0.4411 -1.6703  2.2588
  681MOL0     H91869   2.559   1.779   3.757 -1.7836  0.4448  1.0127
  681MOL0     H91870   2.231   2.098   3.702 -0.2333  1.0122  2.8990
  681MOL0     H91871   2.186   1.924   3.649 -0.0877 -1.0100  2.5201
  681MOL0     H91872   2.118   1.876   3.864 -2.3012  0.1266 -0.8004
  681MOL0     H91873   2.203   2.024   3.925 -0.0477 -0.0278 -1.0556
  681MOL0     H91874   2.011   2.135   3.754 -2.8428  1.6568  2.1164
  681MOL0     H91875   1.938   1.988   3.792  0.6296 -0.7073 -0.4838
  681MOL0     H91876   2.006   2.103   4.035  0.6572 -1.0509 -0.4157
  681MOL0     H91877   1.961   2.244   3.935 -2.1244 -0.4018 -0.1840
  681MOL0     H91878   1.761   2.085   3.872  2.3757  3.1841 -1.2103
  681MOL0     H91879   1.797   2.000   4.027  0.2100  1.4565  2.1447
  681MOL0     H91880   1.753   2.194   4.158  2.9351  1.4310 -0.8244
  681MOL0     H91881   1.723   2.293   4.018  0.3694  0.0608  0.9435
  681MOL0     H91882   1.519   2.189   3.946 -1.7820 -1.8470 -0.4727
  681MOL0     H91883   1.557   2.058   4.059  4.1738 -0.6942  2.3471
  681MOL0     H91884   1.448   2.332   4.091 -1.1858 -1.9795 -0.9336
  681MOL0     H91885   1.566   2.300   4.217 -0.4013 -1.6880  1.4759
  681MOL0     H91886   1.470   2.104   4.394 -0.5436 -3.7605 -2.3114
  681MOL0     H91887   1.210   1.939   4.486 -1.3895  0.2686  1.0584
  681MOL0     H91888   1.273   2.070   4.573 -0.1911 -1.8583  1.0044
  681MOL0     H91889   1.040   2.199   4.485 -0.7130  0.6108  2.4838
  681MOL0     H91890   1.040   2.110   4.626 -1.6443  1.7732 -0.5635
  681MOL0     H91891   0.956   1.902   4.487  0.3703  0.2086 -0.5455
  681MOL0     H91892   0.956   2.032   4.350  3.3359  0.7062 -0.3151
  681MOL0     H91893   0.790   2.143   4.476  2.0160 -0.5100 -0.6352
  681MOL0     H91894   0.817   2.040   4.616 -0.9333 -0.5105  0.3382
  681MOL0     H91895   0.624   2.146   4.635  1.1025 -0.0962 -2.4521
  681MOL0     H91896   0.372   2.135   4.857  2.5432 -1.4545 -0.2623
  681MOL0     H91897   0.500   2.221   4.797 -0.1211 -0.3661  0.6021
  681MOL0     H91898   0.338   2.264   4.723  0.7778 -1.3881 -2.9088
  681MOL0     H91899  -0.066   1.781   4.517  1.4799 -0.1150  2.0016
  681MOL0     H91900  -0.324   1.799   4.548 -0.1621  1.2488 -1.5704
  681MOL0     H91901  -0.460   2.055   4.867 -0.0334 -0.1053  0.6725
  681MOL0     H91902  -0.475   2.176   4.743  1.6977 -1.0873  0.5726
  681MOL0     H91903  -0.691   2.029   4.678 -1.9077  2.5020  0.8925
  681MOL0     H91904  -0.664   1.937   4.829  2.0958  0.0545 -0.2403
  681MOL0     H91905  -0.727   2.243   4.826 -0.3666 -0.1962  2.0636
  681MOL0     H91906  -0.689   2.134   4.960  1.1648  2.3773 -0.9598
  681MOL0     H91907  -0.922   2.065   4.780  2.2166  1.5247 -1.0026
  681MOL0     H91908  -0.885   2.004   4.934  1.2205 -0.3180  0.1311
  681MOL0     H91909  -0.943   2.298   4.883  2.6929 -0.3402  1.1218
  681MOL0     H91910  -0.907   2.230   5.038  0.8121  1.1347 -0.7891
  681MOL0     H91911  -1.120   2.096   5.036  1.3907 -1.7268 -2.1723
  681MOL0     H91912  -1.161   2.263   5.018 -0.2310  0.0692 -1.5022
  681MOL0     H91913  -1.134   2.050   4.815 -1.1312  0.1808 -0.5751
  681MOL0     H91914  -1.159   2.224   4.767  1.6857  0.7515  0.9111
  681MOL0     H91915  -1.373   2.114   4.760 -0.1393 -0.5775 -1.0079
  681MOL0     H91916  -1.362   2.229   4.896  1.2513  0.8425 -1.3158
  681MOL0     H91917  -0.270   2.187   4.722  1.7206  1.1082  0.8490
  681MOL0     H91918  -0.019   2.175   4.655  3.9833 -0.7040 -3.3519
  681MOL0     H91919   0.268   1.845   4.440 -0.7320  0.1287 -0.9049
  681MOL0     H91920   0.505   1.832   4.356  0.5240 -0.6679  0.1534
  681MOL0     H91921   2.388   2.103   3.548 -0.1461 -0.6293 -2.9298
  681MOL0     H91922   2.577   2.118   3.399 -0.6403  1.5670  1.8772
  681MOL0     H91923   3.180   2.031   3.530  2.2216 -0.6129  0.0836
  681MOL0     H91924   3.368   2.036   3.371  0.3349 -1.9766  0.1925
  681MOL0     H91925   3.469   2.029   2.975 -0.2398 -0.1732 -2.0950
  681MOL0     H91926   3.322   1.954   2.938  2.6419 -0.7394 -0.8680
  681MOL0     H91927   3.201   2.185   2.992  0.5216  1.0096  0.4954
  681MOL0     H91928   3.265   2.150   2.831  1.5616 -0.6623  0.3316
  681MOL0     H91929   3.334   2.379   2.912 -3.3775 -1.2410  1.4805
  681MOL0     H91930   3.469   2.272   2.861 -0.0171  1.5693 -0.4451
  681MOL0     H91931   3.534   2.405   3.064  0.6990  0.6720  2.8852
  681MOL0     H91932   3.534   2.230   3.092  0.0782  0.9206  0.2855
  681MOL0     H91933   3.216   2.385   3.344  2.1177 -0.1863  4.5379
  681MOL0     H91934   3.103   1.983   3.043 -0.1942 -1.1351 -0.4964
  681MOL0     H91935   2.910   1.958   3.195  1.2796 -2.8114 -1.3126
  682MOL0     O91936  11.017   9.939  11.360  0.4360  0.0647  0.1827
  682MOL0     C91937  10.966   9.945  11.254 -0.0454 -0.4933 -0.2866
  682MOL0     O91938  10.837   9.980  11.232 -0.1468  0.1086  0.1453
  682MOL0     C91939  10.744  10.036  11.318  0.1626 -0.4570  0.2758
  682MOL0     C91940  10.779  10.092  11.440  0.0229  0.7216 -0.3687
  682MOL0     C91941  10.682  10.146  11.528 -0.9198 -0.2595 -0.1369
  682MOL0     C91942  10.548  10.164  11.490 -0.7144  1.2991 -0.2525
  682MOL0     O91943  10.456  10.237  11.550  0.1212 -0.5341  0.1807
  682MOL0     C91944  10.496  10.337  11.642  0.0689 -0.1856  0.1545
  682MOL0     C91945  10.466  10.315  11.785  0.2618  0.6981 -0.1864
  682MOL0     C91946  10.320  10.330  11.831  0.1055 -0.1686  0.5443
  682MOL0     C91947  10.237  10.209  11.807 -0.1970  0.1413 -0.5170
  682MOL0     C91948  10.091  10.245  11.825 -0.4185 -1.3282  0.4866
  682MOL0     C91949  10.054  10.232  11.970 -0.1833  1.0756 -0.2346
  682MOL0     C91950   9.899  10.240  11.994  0.3755 -0.0945  0.6210
  682MOL0     C91951   9.868  10.383  12.037 -0.3448  0.4740 -0.8797
  682MOL0     N91952   9.730  10.387  12.091  0.1691  0.2559 -0.1489
  682MOL0     C91953   9.609  10.361  12.027 -0.9694 -0.2300  0.4256
  682MOL0     C91954   9.519  10.346  12.125 -0.8053 -1.0457 -1.6788
  682MOL0     C91955   9.369  10.330  12.101 -0.1001 -0.9374  0.2442
  682MOL0     C91956   9.294  10.440  12.169  0.4614  0.1300  0.1894
  682MOL0     C91957   9.147  10.464  12.135  0.4155  0.0115 -1.1417
  682MOL0     C91958   9.118  10.474  11.988  0.1714  0.4635 -0.1896
  682MOL0     O91959   8.975  10.494  11.985  0.4156  0.7023 -0.0492
  682MOL0     C91960   8.926  10.617  12.004 -0.3731 -0.1275 -0.4941
  682MOL0     C91961   8.991  10.730  11.972 -0.1619 -1.4607  0.1534
  682MOL0     C91962   8.929  10.857  12.007 -0.5599 -0.5841  0.1181
  682MOL0     C91963   9.006  10.985  12.024  0.1375  0.5285 -0.8715
  682MOL0     C91964   8.790  10.858  12.046 -0.7764 -0.4382  0.1168
  682MOL0     C91965   8.722  10.981  12.103 -0.4040 -0.6169  0.2796
  682MOL0     O91966   8.620  10.969  12.193  0.6569  0.4605  0.5781
  682MOL0     C91967   8.522  11.065  12.212  0.6660  0.8462 -0.3586
  682MOL0     C91968   8.547  11.194  12.256 -0.3292 -0.5610 -0.1764
  682MOL0     C91969   8.443  11.274  12.287 -0.3023 -0.1289 -1.0095
  682MOL0     C91970   8.311  11.254  12.246  0.0697  0.2403 -0.2729
  682MOL0     O91971   8.209  11.347  12.263  0.0189 -0.1576 -0.4482
  682MOL0     C91972   8.214  11.447  12.373 -0.3235  1.4599  0.5427
  682MOL0     C91973   8.073  11.503  12.372 -0.7862  0.1235  0.2061
  682MOL0     C91974   8.059  11.608  12.256 -0.9287  1.0136  1.0177
  682MOL0     C91975   7.902  11.624  12.241 -1.0200 -0.0668  0.0369
  682MOL0     C91976   7.868  11.713  12.117 -0.1651 -0.0290 -1.0501
  682MOL0     C91977   7.730  11.789  12.126  0.6269 -0.4655 -0.3857
  682MOL0     C91978   7.708  11.915  12.037  0.1681 -0.1628  0.0257
  682MOL0     C91979   7.566  11.955  12.033 -0.6211 -0.4949 -0.6778
  682MOL0    Cl91980   7.554  12.074  11.897 -0.0472 -0.7286  0.5499
  682MOL0     C91981   8.286  11.135  12.178  0.0517 -1.0011  1.0408
  682MOL0     C91982   8.389  11.037  12.173  0.0141  0.6995 -0.7403
  682MOL0     O91983   8.748  11.090  12.051 -0.0802  0.0152  0.0509
  682MOL0     C91984   8.728  10.736  12.063 -0.1934 -0.5659 -0.5191
  682MOL0     C91985   8.792  10.615  12.044 -0.6043 -0.1463 -0.8383
  682MOL0     N91986   9.586  10.349  12.243  0.2127  0.4177 -0.5690
  682MOL0     N91987   9.715  10.371  12.226  0.3016  0.2298 -0.1072
  682MOL0     C91988  10.516  10.105  11.364 -0.4765  0.3264  0.7794
  682MOL0     C91989  10.609  10.042  11.280  0.0026  0.0749 -0.2195
  682MOL0     C91990  11.047   9.921  11.134  0.8548  0.1661 -0.6535
  682MOL0     C91991  11.006   9.957  11.013  0.6027  1.1940  0.1353
  682MOL0     C91992  11.081   9.925  10.903 -0.6045 -0.2633  0.0563
  682MOL0     C91993  11.214   9.876  10.914 -0.1485  0.4731 -0.1710
  682MOL0     O91994  11.288   9.846  10.802 -0.5365  0.1068 -0.4857
  682MOL0     C91995  11.434   9.836  10.818 -0.3383  0.7509 -0.1998
  682MOL0     C91996  11.507   9.958  10.869  0.2688 -0.1205  0.7722
  682MOL0     C91997  11.651   9.936  10.855 -0.1219  0.6165 -1.1474
  682MOL0     C91998  11.715   9.917  10.998 -0.2203  0.9234 -0.1887
  682MOL0     C91999  11.857   9.948  10.995  0.0154 -0.8660  0.2192
  682MOL0     C92000  11.972   9.982  10.977  0.1686  1.1748  0.2050
  682MOL0     C92001  11.261   9.834  11.045 -0.4665  0.9891 -0.1478
  682MOL0     C92002  11.173   9.857  11.155 -0.4562  0.3312  0.0927
  682MOL0     H92003  10.881  10.102  11.475 -0.1688  1.2605  0.0471
  682MOL0     H92004  10.722  10.178  11.624  4.2396 -0.0081 -2.0768
  682MOL0     H92005  10.601  10.366  11.633 -1.0774  5.1276  0.5642
  682MOL0     H92006  10.441  10.429  11.620  2.8600  2.1883  2.4496
  682MOL0     H92007  10.498  10.214  11.816 -0.5490  0.7725  0.9674
  682MOL0     H92008  10.519  10.394  11.839 -0.1251 -0.0942  1.4459
  682MOL0     H92009  10.315  10.368  11.933  1.0691  0.6119  0.3205
  682MOL0     H92010  10.284  10.419  11.779  2.2572 -0.4666 -1.7001
  682MOL0     H92011  10.253  10.179  11.703  1.3887  0.1507 -0.3089
  682MOL0     H92012  10.267  10.130  11.878 -2.6001  0.3700  0.8384
  682MOL0     H92013  10.067  10.343  11.781 -0.4299 -2.1529 -1.4433
  682MOL0     H92014  10.031  10.174  11.766 -2.8820  1.5727 -0.8098
  682MOL0     H92015  10.080  10.132  12.006 -2.0302 -0.4183 -2.7309
  682MOL0     H92016  10.109  10.301  12.035 -0.3186  1.6495 -0.7207
  682MOL0     H92017   9.849  10.215  11.900  0.0361  1.1945  0.4414
  682MOL0     H92018   9.861  10.170  12.068  0.7965  2.0589  3.0090
  682MOL0     H92019   9.867  10.458  11.958  0.4554  3.2817  1.5986
  682MOL0     H92020   9.941  10.422  12.108 -1.1912  1.2947 -0.4523
  682MOL0     H92021   9.589  10.369  11.921 -1.2755  0.3384  0.5173
  682MOL0     H92022   9.353  10.335  11.993 -1.2867 -0.1449  0.4447
  682MOL0     H92023   9.333  10.233  12.134  1.5988 -1.2427  1.3177
  682MOL0     H92024   9.347  10.525  12.126  0.7734 -0.9757 -1.7525
  682MOL0     H92025   9.299  10.438  12.278  3.0196  1.8352  0.1817
  682MOL0     H92026   9.119  10.559  12.180 -0.9375 -0.3505 -1.1953
  682MOL0     H92027   9.075  10.400  12.186  2.1407 -0.4587  0.8838
  682MOL0     H92028   9.140  10.375  11.947 -0.8993  0.4108 -0.6729
  682MOL0     H92029   9.178  10.546  11.933 -0.2422  1.2988  0.4349
  682MOL0     H92030   9.092  10.744  11.937 -0.9289 -0.2097 -1.7007
  682MOL0     H92031   8.980  11.039  12.115  3.2860 -2.8260  2.3056
  682MOL0     H92032   9.108  10.957  12.049 -0.9609  0.2030  4.4817
  682MOL0     H92033   8.999  11.041  11.930 -0.0420  0.1251 -1.1005
  682MOL0     H92034   8.645  11.234  12.280 -0.0277  0.5953 -2.9347
  682MOL0     H92035   8.470  11.370  12.330 -0.5260 -0.2824 -0.5170
  682MOL0     H92036   8.228  11.398  12.470  0.1070  1.4371  0.4691
  682MOL0     H92037   8.302  11.508  12.350 -0.6827  1.2877 -1.4349
  682MOL0     H92038   7.996  11.425  12.372 -0.8553  0.1702 -1.1635
  682MOL0     H92039   8.063  11.560  12.465 -0.8154 -1.0077  0.9121
  682MOL0     H92040   8.097  11.563  12.164 -0.9828  2.8542  0.0430
  682MOL0     H92041   8.122  11.694  12.280  0.4177  0.9548 -1.8118
  682MOL0     H92042   7.860  11.527  12.215  0.1646 -0.2506 -1.3473
  682MOL0     H92043   7.849  11.660  12.330 -1.4025  0.6539 -0.4734
  682MOL0     H92044   7.880  11.650  12.029 -0.7401 -1.2974 -0.2364
  682MOL0     H92045   7.950  11.786  12.120  1.9127 -2.1856  2.5986
  682MOL0     H92046   7.663  11.705  12.104  1.5831 -1.9400  1.9357
  682MOL0     H92047   7.716  11.832  12.225 -0.4760 -0.1223 -0.6763
  682MOL0     H92048   7.738  11.894  11.934 -0.1173  3.8871 -1.0401
  682MOL0     H92049   7.771  11.994  12.079 -0.4012 -0.1928  0.9674
  682MOL0     H92050   7.550  11.996  12.133  0.4059 -2.9530  0.5904
  682MOL0     H92051   7.507  11.865  12.013  1.1595 -2.4048  1.9924
  682MOL0     H92052   8.186  11.106  12.148  0.6851 -3.1362  0.8093
  682MOL0     H92053   8.369  10.935  12.141 -3.1903  1.5279 -1.6283
  682MOL0     H92054   8.632  10.741  12.113  0.5398  1.0711  0.7927
  682MOL0     H92055   8.748  10.516  12.044  0.6724 -0.7432  0.1044
  682MOL0     H92056  10.412  10.098  11.331  0.0792  1.3308 -1.4279
  682MOL0     H92057  10.578  10.010  11.181 -0.6404 -1.8120  0.5493
  682MOL0     H92058  10.905   9.991  10.991  0.5567 -0.0502 -1.7852
  682MOL0     H92059  11.034   9.956  10.810  0.7718  3.3700  0.3747
  682MOL0     H92060  11.462   9.744  10.870  0.2076  1.4693  0.7934
  682MOL0     H92061  11.460   9.821  10.713 -0.3896 -0.7286 -0.0238
  682MOL0     H92062  11.475   9.990  10.968  2.5637  3.5327  0.5328
  682MOL0     H92063  11.467  10.029  10.795 -1.5385 -0.1509  1.6708
  682MOL0     H92064  11.698  10.028  10.819 -0.0275  1.4797  1.0207
  682MOL0     H92065  11.695   9.861  10.788  4.1234  2.9972 -1.4001
  682MOL0     H92066  11.709   9.813  11.029  2.2723  0.8946  0.4054
  682MOL0     H92067  11.672   9.965  11.086 -1.1198 -0.6222  0.2484
  682MOL0     H92068  12.074   9.999  10.950  0.9656 -1.6961  1.0739
  682MOL0     H92069  11.345   9.766  11.052 -2.2993 -1.8928 -2.9708
  682MOL0     H92070  11.203   9.808  11.247 -2.4668 -0.4642  0.3571
  683MOL0     O92071   7.235   3.246   1.297  0.4271  0.2275  0.0643
  683MOL0     C92072   7.182   3.174   1.378  0.8533 -0.5084  0.4965
  683MOL0     O92073   7.053   3.185   1.423  0.2985  0.3075 -0.1491
  683MOL0     C92074   6.959   3.177   1.328 -0.0745  1.0992  0.1224
  683MOL0     C92075   6.952   3.251   1.206 -0.6838 -0.1124  0.4216
  683MOL0     C92076   6.857   3.234   1.111  0.0407 -0.5790 -0.6817
  683MOL0     C92077   6.753   3.135   1.125 -0.2986 -0.3415  0.1333
  683MOL0     O92078   6.653   3.126   1.026 -0.2578  0.1443  0.6439
  683MOL0     C92079   6.537   3.047   1.068 -0.4258  0.4605  0.1129
  683MOL0     C92080   6.430   3.099   0.977  0.8790 -0.2397  0.0434
  683MOL0     C92081   6.288   3.063   1.038 -0.4039 -0.4293 -0.0915
  683MOL0     C92082   6.183   3.120   0.940 -0.1576  0.1224  0.1415
  683MOL0     C92083   6.035   3.088   0.977  0.6909  0.0734  1.1470
  683MOL0     C92084   5.998   2.935   1.009  0.3298 -0.5453  0.3685
  683MOL0     C92085   5.845   2.903   0.976 -0.6847  0.2355  0.1510
  683MOL0     C92086   5.829   2.763   0.997  0.3006  0.1406  0.0824
  683MOL0     N92087   5.692   2.720   0.948 -0.0982  0.5574 -0.5367
  683MOL0     C92088   5.648   2.723   0.816  0.4125 -0.2437 -0.7695
  683MOL0     C92089   5.520   2.681   0.820  0.3614 -0.6335 -0.4281
  683MOL0     C92090   5.443   2.680   0.682  0.4020  0.6631 -0.2507
  683MOL0     C92091   5.310   2.617   0.700  0.7175 -0.5018 -0.7539
  683MOL0     C92092   5.218   2.728   0.759 -0.7423  0.0534 -0.4027
  683MOL0     C92093   5.066   2.675   0.759  0.0271  0.2188 -0.2995
  683MOL0     O92094   4.979   2.770   0.825 -0.4984  0.6531 -0.7102
  683MOL0     C92095   4.841   2.756   0.835  0.0130  0.1356  0.6432
  683MOL0     C92096   4.762   2.866   0.869  0.2921  0.0456  0.0326
  683MOL0     C92097   4.626   2.859   0.889  0.0414 -0.0763 -0.6692
  683MOL0     C92098   4.551   2.984   0.939  0.6966 -0.5285 -0.1355
  683MOL0     C92099   4.560   2.736   0.871  0.0166 -0.2350  0.3223
  683MOL0     C92100   4.422   2.724   0.869  0.0519 -0.3198  0.2281
  683MOL0     O92101   4.364   2.767   0.758  0.0924 -0.5154  0.1662
  683MOL0     C92102   4.230   2.737   0.744  0.5561  0.0318 -0.1433
  683MOL0     C92103   4.185   2.602   0.703 -0.5248 -0.6179 -0.7703
  683MOL0     C92104   4.052   2.577   0.717  0.1169 -0.1665  0.0751
  683MOL0     C92105   3.954   2.664   0.776 -0.5974 -0.2583  0.1163
  683MOL0     O92106   3.816   2.651   0.778 -0.0552 -0.0849 -0.3770
  683MOL0     C92107   3.776   2.562   0.682 -0.2822 -0.1097  0.4122
  683MOL0     C92108   3.623   2.580   0.677 -0.5037  0.2876  0.7906
  683MOL0     C92109   3.580   2.729   0.673 -0.4058  0.2850 -0.2357
  683MOL0     C92110   3.435   2.742   0.632  0.0384  0.2560  0.3932
  683MOL0     C92111   3.380   2.875   0.673  0.5201 -0.2729  0.0595
  683MOL0     C92112   3.236   2.892   0.635 -0.0669 -0.5593 -1.2674
  683MOL0     C92113   3.144   2.785   0.658  0.3661 -0.1331  0.1565
  683MOL0     C92114   3.004   2.829   0.615 -0.4319 -0.4557 -0.4290
  683MOL0    Cl92115   2.932   2.930   0.737 -0.6168 -0.4984  0.4106
  683MOL0     C92116   4.001   2.794   0.802 -0.2424  0.4149  0.8403
  683MOL0     C92117   4.140   2.828   0.789  0.5222 -0.1041  0.4046
  683MOL0     O92118   4.374   2.663   0.963 -0.7863 -0.1951 -0.3128
  683MOL0     C92119   4.637   2.623   0.840  0.4598  0.4671 -0.0484
  683MOL0     C92120   4.770   2.633   0.816  0.5471  0.6322  0.0861
  683MOL0     N92121   5.487   2.650   0.953  0.9350  0.4203 -0.1802
  683MOL0     N92122   5.593   2.670   1.033  0.1310  0.0402  0.3768
  683MOL0     C92123   6.772   3.041   1.237 -0.3443 -0.1140 -0.3781
  683MOL0     C92124   6.853   3.078   1.340 -0.5983  0.0258  0.6408
  683MOL0     C92125   7.272   3.099   1.459 -0.1802 -0.0187 -0.6891
  683MOL0     C92126   7.233   2.978   1.523  0.6296  0.0649 -0.2233
  683MOL0     C92127   7.323   2.921   1.610  0.3913 -0.1374 -0.4726
  683MOL0     C92128   7.452   2.971   1.640  0.7180 -1.5130 -0.0030
  683MOL0     O92129   7.536   2.907   1.732  0.3529  0.5140  0.5440
  683MOL0     C92130   7.678   2.908   1.726 -0.0669 -0.3573  0.2094
  683MOL0     C92131   7.736   2.809   1.626 -0.4264  0.5596  0.0498
  683MOL0     C92132   7.728   2.662   1.679  0.0202  0.6578  0.3671
  683MOL0     C92133   7.592   2.592   1.678 -0.7975  0.1466  1.1755
  683MOL0     C92134   7.597   2.442   1.675 -0.2201 -0.3246  0.7023
  683MOL0     C92135   7.601   2.323   1.676 -0.1599 -0.3415  0.2538
  683MOL0     C92136   7.481   3.099   1.586 -0.0406 -0.1618 -1.2187
  683MOL0     C92137   7.397   3.155   1.497 -0.7195 -0.0669  0.1495
  683MOL0     H92138   7.038   3.317   1.194 -0.2413 -0.1537  2.8791
  683MOL0     H92139   6.874   3.284   1.017  1.3483  0.4840  0.0866
  683MOL0     H92140   6.545   2.939   1.050  1.8188  0.7596 -1.0951
  683MOL0     H92141   6.504   3.066   1.170  0.1321  0.5846  0.2756
  683MOL0     H92142   6.433   3.209   0.981  0.1522 -0.1934 -0.5344
  683MOL0     H92143   6.443   3.071   0.873  0.1861  0.8643 -0.3637
  683MOL0     H92144   6.268   2.957   1.059  2.4708 -0.9740  0.3134
  683MOL0     H92145   6.284   3.121   1.130 -2.1077 -0.1043 -0.3471
  683MOL0     H92146   6.200   3.227   0.952 -0.4409  0.4701 -2.2491
  683MOL0     H92147   6.196   3.089   0.836  0.6128 -0.9484  0.5392
  683MOL0     H92148   5.997   3.161   1.048  1.7110 -0.2712  2.0651
  683MOL0     H92149   5.981   3.101   0.882  1.5852 -0.5863  0.5264
  683MOL0     H92150   6.053   2.869   0.942  1.8944  1.9785 -0.9639
  683MOL0     H92151   6.004   2.917   1.117 -0.9196  0.9944  0.7360
  683MOL0     H92152   5.781   2.967   1.037  1.9631  2.2510  1.0101
  683MOL0     H92153   5.825   2.923   0.871  1.7614 -0.7776 -0.5784
  683MOL0     H92154   5.833   2.746   1.105 -2.2437 -1.1387  0.0449
  683MOL0     H92155   5.913   2.713   0.948  1.8411  2.1540  0.5189
  683MOL0     H92156   5.702   2.763   0.731  0.5972 -0.6573 -0.8538
  683MOL0     H92157   5.433   2.779   0.636 -3.3232 -0.3915 -2.1801
  683MOL0     H92158   5.494   2.610   0.616 -1.3520  0.7805 -1.8155
  683MOL0     H92159   5.314   2.534   0.771  2.7875  1.9254  2.2439
  683MOL0     H92160   5.275   2.572   0.607 -1.1058 -0.7986  0.0378
  683MOL0     H92161   5.221   2.824   0.706  2.4213 -0.3681 -1.1717
  683MOL0     H92162   5.252   2.741   0.862  2.3454  1.9322 -1.5145
  683MOL0     H92163   5.054   2.568   0.780  1.7390  0.0287 -0.0829
  683MOL0     H92164   5.038   2.679   0.654 -1.7350  0.3697  0.1477
  683MOL0     H92165   4.822   2.950   0.903 -1.1912  0.2395  2.4358
  683MOL0     H92166   4.529   2.974   1.046  1.9686 -1.0235  0.0909
  683MOL0     H92167   4.613   3.074   0.929  2.1135 -1.5780 -1.0019
  683MOL0     H92168   4.453   3.001   0.891  0.8285  0.1689 -0.1742
  683MOL0     H92169   4.248   2.530   0.652 -0.7767  1.5429 -4.5975
  683MOL0     H92170   4.030   2.481   0.672 -0.9834  0.4721 -0.7774
  683MOL0     H92171   3.811   2.583   0.580 -1.2685  1.8671  0.4395
  683MOL0     H92172   3.792   2.458   0.711  1.1953 -0.3199 -1.0323
  683MOL0     H92173   3.579   2.522   0.596 -0.3877  1.5250 -0.2003
  683MOL0     H92174   3.575   2.540   0.767 -0.1015 -1.1487  0.3803
  683MOL0     H92175   3.649   2.776   0.603 -0.8467  1.1506 -0.0917
  683MOL0     H92176   3.599   2.766   0.774 -2.0563 -2.3765  1.1856
  683MOL0     H92177   3.436   2.724   0.524 -0.9862  0.6874  0.3063
  683MOL0     H92178   3.377   2.660   0.675  0.7709 -0.6718 -0.3309
  683MOL0     H92179   3.428   2.964   0.633 -1.5868  0.2180 -1.5697
  683MOL0     H92180   3.382   2.880   0.783  1.2839 -2.0937  0.1628
  683MOL0     H92181   3.201   2.983   0.685  0.5735 -2.0846  2.2230
  683MOL0     H92182   3.238   2.914   0.528 -1.0745 -1.9174 -1.5847
  683MOL0     H92183   3.150   2.752   0.762  1.4642 -0.3871  0.0254
  683MOL0     H92184   3.165   2.703   0.590 -0.1766  0.6735 -1.0041
  683MOL0     H92185   2.938   2.742   0.604  0.3285 -1.3452  1.6248
  683MOL0     H92186   3.004   2.889   0.523  0.7026  3.8977  2.1153
  683MOL0     H92187   3.923   2.862   0.833 -0.1069  0.1643  1.7772
  683MOL0     H92188   4.173   2.926   0.821 -0.3151 -0.3147  2.0345
  683MOL0     H92189   4.584   2.528   0.848  0.4277  0.6450  2.6374
  683MOL0     H92190   4.825   2.539   0.818  2.6485  1.8135  1.7701
  683MOL0     H92191   6.707   2.954   1.244  0.8616 -1.1127 -1.2178
  683MOL0     H92192   6.862   3.013   1.426  3.0772  0.9438  1.1666
  683MOL0     H92193   7.133   2.940   1.507  1.3475 -1.6420 -0.9221
  683MOL0     H92194   7.294   2.822   1.642  0.1515  0.3449  0.8903
  683MOL0     H92195   7.711   3.008   1.696  2.2417 -0.0100  3.4073
  683MOL0     H92196   7.740   2.883   1.813  4.5308 -0.0376 -2.5905
  683MOL0     H92197   7.840   2.818   1.593 -0.5384 -1.4017 -1.0109
  683MOL0     H92198   7.683   2.818   1.531 -0.5666  0.6096  0.1326
  683MOL0     H92199   7.769   2.659   1.780 -1.8646  0.3548  1.1526
  683MOL0     H92200   7.801   2.597   1.628  0.5191  0.8564  0.8203
  683MOL0     H92201   7.531   2.624   1.593  1.1927  2.2839  0.4289
  683MOL0     H92202   7.534   2.600   1.770 -1.0797 -2.7875  1.3383
  683MOL0     H92203   7.601   2.216   1.672  1.8945 -0.3552 -0.4391
  683MOL0     H92204   7.565   3.155   1.624  0.1211  0.4030 -2.3921
  683MOL0     H92205   7.432   3.252   1.464  0.5889  0.1084  1.9160
  684MOL0     O92206   6.575  10.407   7.122 -0.2952  0.2288  0.4281
  684MOL0     C92207   6.573  10.523   7.157  0.3360 -0.7338  0.0499
  684MOL0     O92208   6.685  10.592   7.208 -0.4761 -0.7185  0.5024
  684MOL0     C92209   6.800  10.527   7.253  1.2936 -0.0253  0.6626
  684MOL0     C92210   6.920  10.590   7.238  0.5231  0.2471 -0.0413
  684MOL0     C92211   7.031  10.533   7.283  0.0677  0.4835  0.7049
  684MOL0     C92212   7.032  10.408   7.331  0.4844 -0.2620  0.2332
  684MOL0     O92213   7.155  10.347   7.341  0.8343  0.5502 -0.4960
  684MOL0     C92214   7.175  10.203   7.331  0.4696 -0.0965 -0.3704
  684MOL0     C92215   7.317  10.161   7.368  0.0537  0.0745 -0.8205
  684MOL0     C92216   7.342  10.020   7.351  0.1241  1.2206  0.5212
  684MOL0     C92217   7.364   9.976   7.198  0.4818  0.0088  0.2064
  684MOL0     C92218   7.394   9.826   7.194  0.0196  0.0625  0.6403
  684MOL0     C92219   7.405   9.764   7.049 -0.1781  0.2311  0.5938
  684MOL0     C92220   7.510   9.826   6.975 -0.7343  0.4879  1.0787
  684MOL0     C92221   7.551   9.744   6.856 -0.6677 -0.4287 -0.4886
  684MOL0     N92222   7.640   9.816   6.762  0.1134 -0.6002 -0.4444
  684MOL0     C92223   7.605   9.933   6.701 -0.0266 -0.7259 -0.8254
  684MOL0     C92224   7.715   9.981   6.646 -0.2939 -0.0983  0.5357
  684MOL0     C92225   7.712  10.110   6.573 -0.3339 -1.6748  0.6785
  684MOL0     C92226   7.624  10.121   6.453  0.6975  0.1125 -0.5850
  684MOL0     C92227   7.646  10.254   6.389  1.1506  0.0877  1.0010
  684MOL0     C92228   7.527  10.310   6.308 -0.2967  0.2123 -1.1930
  684MOL0     O92229   7.421  10.330   6.400  0.0338  0.3485  0.0785
  684MOL0     C92230   7.300  10.330   6.336 -0.4203  0.6975 -0.5981
  684MOL0     C92231   7.245  10.224   6.272 -0.0761  0.9778 -0.4084
  684MOL0     C92232   7.128  10.224   6.190 -0.8820  0.5242  0.6989
  684MOL0     C92233   7.094  10.088   6.130 -0.5328 -0.0635 -0.2099
  684MOL0     C92234   7.062  10.349   6.170 -0.1392  0.6234 -0.1459
  684MOL0     C92235   6.946  10.367   6.084 -0.2201  0.6797  0.7148
  684MOL0     O92236   6.890  10.485   6.074 -0.0432  0.4638 -0.2654
  684MOL0     C92237   6.757  10.489   6.026  0.5643  0.8479  0.1698
  684MOL0     C92238   6.741  10.547   5.897  0.1992  0.5078 -0.5834
  684MOL0     C92239   6.617  10.529   5.837  0.3260  0.0029  0.0115
  684MOL0     C92240   6.505  10.470   5.905 -0.2115 -0.4571 -0.2619
  684MOL0     O92241   6.378  10.444   5.864  0.2914  0.5455  0.0674
  684MOL0     C92242   6.346  10.450   5.725  0.5285 -0.0871  0.3071
  684MOL0     C92243   6.234  10.353   5.697 -0.1708  0.4639  0.6582
  684MOL0     C92244   6.100  10.412   5.740 -0.5411  0.0277 -0.0945
  684MOL0     C92245   6.039  10.499   5.635  0.3546 -0.3075  0.4468
  684MOL0     C92246   5.900  10.547   5.674 -0.5537  0.4761  0.0442
  684MOL0     C92247   5.806  10.579   5.562  0.1853 -0.5538  0.0150
  684MOL0     C92248   5.666  10.623   5.610  0.6721 -0.4876  0.1659
  684MOL0     C92249   5.568  10.511   5.650 -0.8104 -0.0070 -0.2780
  684MOL0    Cl92250   5.542  10.402   5.524  0.5801  0.2327  0.2010
  684MOL0     C92251   6.523  10.444   6.042 -0.0392  0.2482 -0.2864
  684MOL0     C92252   6.650  10.455   6.106  0.0487 -0.8009 -0.0841
  684MOL0     O92253   6.907  10.262   6.027  0.1585 -0.0251  0.4468
  684MOL0     C92254   7.112  10.456   6.239  0.4655 -0.2952 -1.2635
  684MOL0     C92255   7.225  10.445   6.320  1.0510  0.2020  0.3100
  684MOL0     N92256   7.825   9.904   6.679  0.1914 -0.2589 -0.4863
  684MOL0     N92257   7.777   9.794   6.742 -0.2221  0.9275  0.2702
  684MOL0     C92258   6.913  10.328   7.344  0.0978  0.2675 -0.1783
  684MOL0     C92259   6.798  10.393   7.308  0.3958  0.3328  0.5704
  684MOL0     C92260   6.446  10.597   7.138  0.4140  0.6564 -0.2494
  684MOL0     C92261   6.330  10.534   7.076  0.2663  0.1346  0.6541
  684MOL0     C92262   6.214  10.608   7.061  0.3503  0.1103 -0.5922
  684MOL0     C92263   6.199  10.732   7.123 -0.6019 -0.5721  0.3326
  684MOL0     O92264   6.084  10.808   7.121 -0.9990  0.3078 -0.1398
  684MOL0     C92265   6.095  10.943   7.081  0.1577  0.4170 -0.4863
  684MOL0     C92266   5.956  10.982   7.026 -0.1671 -0.1744 -0.3673
  684MOL0     C92267   5.892  10.888   6.921 -0.3249  0.7393  0.3096
  684MOL0     C92268   5.745  10.907   6.901  0.0279  0.5318  0.6249
  684MOL0     C92269   5.709  11.050   6.901  0.8085 -0.2358 -0.4956
  684MOL0     C92270   5.709  11.167   6.893  1.0435  0.2294 -0.7074
  684MOL0     C92271   6.309  10.783   7.190 -0.1476  0.0818 -0.9850
  684MOL0     C92272   6.430  10.723   7.197  0.5960 -0.7424  0.9473
  684MOL0     H92273   6.915  10.690   7.197 -1.5751  0.7904  1.3637
  684MOL0     H92274   7.126  10.585   7.287  2.4840 -3.5392  1.0534
  684MOL0     H92275   7.107  10.154   7.401  0.6764 -1.8504 -1.3302
  684MOL0     H92276   7.149  10.172   7.229  0.5842 -0.6069 -0.2504
  684MOL0     H92277   7.383  10.228   7.312 -1.0211  1.7741 -0.1188
  684MOL0     H92278   7.336  10.189   7.472 -1.0493 -0.3371 -0.4938
  684MOL0     H92279   7.434   9.998   7.407  0.9906  1.5198 -0.7209
  684MOL0     H92280   7.263   9.959   7.394  0.4636 -0.6137 -1.3018
  684MOL0     H92281   7.281  10.009   7.135  0.1484 -1.7866 -0.3500
  684MOL0     H92282   7.458  10.023   7.168  2.0837 -1.8228  1.9751
  684MOL0     H92283   7.487   9.807   7.249 -0.0938  0.6105  1.0307
  684MOL0     H92284   7.316   9.770   7.244  0.9904 -1.1109  0.8891
  684MOL0     H92285   7.424   9.657   7.060  2.3066  0.7872  2.5051
  684MOL0     H92286   7.309   9.785   7.000  0.9920  3.6097 -0.5005
  684MOL0     H92287   7.474   9.924   6.942 -3.0239 -0.5256  0.3811
  684MOL0     H92288   7.592   9.839   7.046  0.2835 -0.8033  0.1948
  684MOL0     H92289   7.464   9.716   6.796 -0.2841 -0.5742 -0.9857
  684MOL0     H92290   7.603   9.651   6.880 -1.5356 -1.4542 -2.3495
  684MOL0     H92291   7.506   9.975   6.688 -0.7423 -1.3090  1.9617
  684MOL0     H92292   7.677  10.188   6.641  0.7514 -2.1985  1.8935
  684MOL0     H92293   7.817  10.126   6.547  0.1485  1.4651  3.8159
  684MOL0     H92294   7.519  10.105   6.480  0.8264 -0.2761 -0.3122
  684MOL0     H92295   7.643  10.046   6.376  1.1548  0.3155 -0.6749
  684MOL0     H92296   7.732  10.242   6.322  1.3213 -1.1489  1.4230
  684MOL0     H92297   7.667  10.325   6.469 -1.8437  2.0464  0.2182
  684MOL0     H92298   7.506  10.235   6.232 -0.6947  0.5369 -1.4101
  684MOL0     H92299   7.550  10.403   6.255 -2.0184  1.7149  0.5173
  684MOL0     H92300   7.295  10.128   6.280 -0.7462  0.6801  0.3561
  684MOL0     H92301   6.999  10.052   6.172 -1.7674  0.3038 -2.4985
  684MOL0     H92302   7.086  10.087   6.021 -1.2344  0.1857 -0.1661
  684MOL0     H92303   7.172  10.015   6.151  0.0162  0.2055 -1.2848
  684MOL0     H92304   6.832  10.589   5.856  0.9203  2.3793  2.5384
  684MOL0     H92305   6.609  10.552   5.731 -1.0315  4.0061  0.8046
  684MOL0     H92306   6.316  10.553   5.703 -0.0478 -0.2638  0.2514
  684MOL0     H92307   6.436  10.427   5.666  0.3828 -1.1544  0.4846
  684MOL0     H92308   6.228  10.327   5.591  3.4186  2.7110 -0.2582
  684MOL0     H92309   6.256  10.261   5.751 -0.1783 -0.3188 -0.6470
  684MOL0     H92310   6.108  10.448   5.843  0.9171 -1.3015  0.3065
  684MOL0     H92311   6.029  10.329   5.753  0.1990 -0.8014 -1.1578
  684MOL0     H92312   6.107  10.578   5.601  0.9280 -2.1497 -3.2422
  684MOL0     H92313   6.033  10.426   5.553 -0.4318 -1.1725  1.2538
  684MOL0     H92314   5.911  10.634   5.739 -0.1628 -0.7158  1.6583
  684MOL0     H92315   5.853  10.470   5.737  0.7577 -1.6084 -1.3824
  684MOL0     H92316   5.843  10.665   5.507  0.1223 -0.7683 -0.3703
  684MOL0     H92317   5.782  10.489   5.503 -4.2665 -0.2103  0.9569
  684MOL0     H92318   5.627  10.697   5.539  2.8651  1.5784  0.9567
  684MOL0     H92319   5.683  10.690   5.695  1.4767 -1.2676  0.6465
  684MOL0     H92320   5.471  10.557   5.672 -0.7356 -0.2360  0.5310
  684MOL0     H92321   5.624  10.459   5.728  1.7347  0.6839 -1.5348
  684MOL0     H92322   6.444  10.401   6.103 -2.3557  2.4213 -1.5233
  684MOL0     H92323   6.676  10.454   6.211  5.4185  3.2219 -0.8950
  684MOL0     H92324   7.046  10.542   6.238 -1.0808 -1.4403 -2.5541
  684MOL0     H92325   7.245  10.540   6.370 -3.1234  1.5670 -0.2684
  684MOL0     H92326   6.912  10.224   7.374  1.5675 -0.6399 -2.8706
  684MOL0     H92327   6.709  10.330   7.301  1.5147 -1.1364 -1.6827
  684MOL0     H92328   6.351  10.433   7.043 -3.5489 -0.8389  0.6727
  684MOL0     H92329   6.132  10.567   7.003 -1.7038  2.9938  0.0319
  684MOL0     H92330   6.132  11.010   7.159  0.4397 -0.6419  0.3122
  684MOL0     H92331   6.175  10.953   7.007  1.0417  1.9847  0.6204
  684MOL0     H92332   5.958  11.086   6.993  1.5433  0.4308  1.4839
  684MOL0     H92333   5.894  10.981   7.116  0.3660  1.7145  0.0505
  684MOL0     H92334   5.899  10.779   6.935  0.3806  0.8156  0.5898
  684MOL0     H92335   5.957  10.906   6.834  4.6161  0.2998  3.5006
  684MOL0     H92336   5.693  10.848   6.976  2.0809 -1.8535  0.2882
  684MOL0     H92337   5.704  10.876   6.804 -0.3878 -1.2018  1.3335
  684MOL0     H92338   5.729  11.272   6.905 -1.0312  0.6195 -0.2753
  684MOL0     H92339   6.296  10.876   7.243  1.4186  1.4305 -2.8271
  684MOL0     H92340   6.505  10.766   7.263  0.2943 -2.3189  2.4099
  685MOL0     O92341   0.744   0.767   3.082 -0.5386  0.2052  0.3174
  685MOL0     C92342   0.780   0.878   3.048  0.9827  0.5609 -0.0399
  685MOL0     O92343   0.699   0.988   3.032 -0.0670  0.1256  0.4443
  685MOL0     C92344   0.567   0.980   3.025  0.3161 -0.7638  0.4154
  685MOL0     C92345   0.482   0.875   3.000 -1.4206 -0.4313 -0.8797
  685MOL0     C92346   0.342   0.893   3.004 -0.5840  0.8960 -0.7769
  685MOL0     C92347   0.282   1.008   3.052  0.3425  0.0394 -0.2288
  685MOL0     O92348   0.145   1.013   3.058  0.3669 -0.2996  0.5225
  685MOL0     C92349   0.060   1.016   2.940 -0.0689  0.2344 -0.7623
  685MOL0     C92350  -0.080   1.032   2.980 -0.0852 -0.2010  0.4942
  685MOL0     C92351  -0.168   1.015   2.863 -0.4251  0.7284  0.2793
  685MOL0     C92352  -0.311   1.048   2.906  0.2888 -0.1257  0.3556
  685MOL0     C92353  -0.327   1.192   2.901  0.1618 -0.0834 -0.5059
  685MOL0     C92354  -0.451   1.246   2.981 -0.2457  0.5341  0.1923
  685MOL0     C92355  -0.497   1.380   2.935  0.3563  1.6350  0.6262
  685MOL0     C92356  -0.631   1.429   3.006  0.2532  0.3510 -0.4576
  685MOL0     N92357  -0.653   1.561   2.963 -0.2185 -0.0333 -0.0533
  685MOL0     C92358  -0.721   1.588   2.845 -0.6770 -0.0240 -0.6565
  685MOL0     C92359  -0.691   1.720   2.824  0.1246 -0.0658  0.2909
  685MOL0     C92360  -0.726   1.796   2.700 -0.2841  0.8183 -0.9561
  685MOL0     C92361  -0.881   1.811   2.682  0.4687 -0.4466  0.9752
  685MOL0     C92362  -0.913   1.930   2.587  0.1618  0.6366 -0.3636
  685MOL0     C92363  -1.065   1.956   2.575 -0.6823 -0.0569  0.1330
  685MOL0     O92364  -1.086   2.085   2.517 -0.4773  1.0048  0.4348
  685MOL0     C92365  -1.207   2.138   2.499 -0.5322 -0.4887  0.5941
  685MOL0     C92366  -1.331   2.081   2.535  0.0419  0.3384 -0.2323
  685MOL0     C92367  -1.449   2.156   2.514 -0.1027  0.0548  0.0734
  685MOL0     C92368  -1.577   2.087   2.563  0.0789  0.1702  0.0690
  685MOL0     C92369  -1.447   2.292   2.465  0.0897  0.2435 -0.1196
  685MOL0     C92370  -1.571   2.372   2.433 -0.1469  0.7258 -0.0787
  685MOL0     O92371  -1.685   2.299   2.389 -0.6377  0.5042 -0.9479
  685MOL0     C92372  -1.802   2.367   2.381  0.2141  0.1259 -0.8924
  685MOL0     C92373  -1.898   2.366   2.491 -0.1231  0.3259  0.3060
  685MOL0     C92374  -2.024   2.420   2.475 -0.8909  0.7136  0.1882
  685MOL0     C92375  -2.060   2.468   2.350 -0.3323 -1.0376  0.7913
  685MOL0     O92376  -2.182   2.519   2.331 -0.1205  0.2465 -0.6310
  685MOL0     C92377  -2.295   2.429   2.323  0.0614  0.3766 -0.0650
  685MOL0     C92378  -2.376   2.438   2.453 -0.9530 -1.1246 -0.3428
  685MOL0     C92379  -2.529   2.460   2.442 -0.0452 -0.1317 -0.5682
  685MOL0     C92380  -2.595   2.490   2.580  1.0818  0.0545  0.4537
  685MOL0     C92381  -2.747   2.523   2.561 -0.0261  0.0462 -0.1568
  685MOL0     C92382  -2.807   2.555   2.694 -0.2200  0.5691 -0.3928
  685MOL0     C92383  -2.947   2.615   2.688  0.1895  0.1852  0.1612
  685MOL0     C92384  -3.055   2.518   2.636  1.0357 -0.0111 -0.3693
  685MOL0    Cl92385  -3.061   2.375   2.743  0.3212  0.2055  0.2643
  685MOL0     C92386  -1.972   2.476   2.249  0.7284 -0.1011 -0.9082
  685MOL0     C92387  -1.833   2.432   2.262  0.3922 -0.7323 -0.3288
  685MOL0     O92388  -1.555   2.491   2.444 -0.0967  0.4616  0.2454
  685MOL0     C92389  -1.323   2.351   2.428 -0.1532 -0.5186  0.4524
  685MOL0     C92390  -1.205   2.276   2.456  0.0372  0.3436  0.6806
  685MOL0     N92391  -0.593   1.764   2.917  0.1652  0.0798 -0.1325
  685MOL0     N92392  -0.573   1.660   2.993  0.6361 -0.2255 -0.0265
  685MOL0     C92393   0.368   1.116   3.069  0.1522 -0.0107 -0.2055
  685MOL0     C92394   0.507   1.108   3.054 -0.1052 -0.1235 -0.2345
  685MOL0     C92395   0.924   0.899   3.033 -0.1932  0.0076 -0.1763
  685MOL0     C92396   1.013   0.802   3.077  0.1529  0.1703 -0.1608
  685MOL0     C92397   1.154   0.823   3.050 -0.7363 -0.1712 -0.6431
  685MOL0     C92398   1.201   0.945   2.999  0.3114  0.6428  0.6268
  685MOL0     O92399   1.331   0.966   2.949 -0.2214  0.0141 -0.6640
  685MOL0     C92400   1.402   0.846   2.918 -0.3089  0.8580 -0.4286
  685MOL0     C92401   1.543   0.866   2.859  0.6979  0.0685 -0.2454
  685MOL0     C92402   1.650   0.903   2.958 -0.5361 -0.9572 -0.3496
  685MOL0     C92403   1.788   0.933   2.898  0.4523 -0.4825  0.8284
  685MOL0     C92404   1.877   0.998   3.001 -0.1863 -0.0276  0.0535
  685MOL0     C92405   1.952   1.040   3.093  0.0702  0.2785  0.2306
  685MOL0     C92406   1.108   1.049   2.978  0.7643 -0.2654 -0.1567
  685MOL0     C92407   0.970   1.020   2.994  0.2173 -0.5444 -0.3239
  685MOL0     H92408   0.512   0.772   2.983 -1.7774 -0.6413 -0.2608
  685MOL0     H92409   0.269   0.817   2.975 -1.9749  2.1131 -0.6180
  685MOL0     H92410   0.105   1.090   2.873  2.9945 -1.3070 -0.5694
  685MOL0     H92411   0.076   0.926   2.880  0.1816  1.1764 -2.1792
  685MOL0     H92412  -0.088   0.965   3.066  0.8925  2.4267  2.7800
  685MOL0     H92413  -0.093   1.134   3.016  2.3159 -0.2041  1.5600
  685MOL0     H92414  -0.135   1.082   2.784  1.8157  2.2133  2.3105
  685MOL0     H92415  -0.155   0.913   2.824 -0.8814  1.4144 -1.7580
  685MOL0     H92416  -0.381   0.997   2.839  1.9000  0.6794 -2.0944
  685MOL0     H92417  -0.328   1.017   3.010  1.3476 -1.2280  0.2254
  685MOL0     H92418  -0.241   1.244   2.943 -0.2129  0.6379 -0.6090
  685MOL0     H92419  -0.352   1.209   2.796  1.2278  2.9600 -0.3653
  685MOL0     H92420  -0.526   1.167   2.986 -0.1222  0.4789  3.3867
  685MOL0     H92421  -0.426   1.255   3.087 -0.1208 -2.7805  0.5333
  685MOL0     H92422  -0.418   1.455   2.947  1.3387  0.6396  0.6222
  685MOL0     H92423  -0.503   1.366   2.827  0.0734 -0.9842  0.9158
  685MOL0     H92424  -0.616   1.419   3.114  1.3502 -0.0553 -0.6336
  685MOL0     H92425  -0.715   1.362   2.986  1.4933 -0.9214 -1.5892
  685MOL0     H92426  -0.785   1.541   2.771  0.8127 -0.0052 -2.0188
  685MOL0     H92427  -0.679   1.894   2.715 -0.3161  0.7263 -0.2514
  685MOL0     H92428  -0.687   1.745   2.611  0.4776 -2.7182  1.2062
  685MOL0     H92429  -0.922   1.835   2.781 -0.3998 -0.2796  0.5903
  685MOL0     H92430  -0.917   1.712   2.652  2.1753 -0.4901 -1.1860
  685MOL0     H92431  -0.856   1.915   2.495  3.5792 -1.1233  1.7999
  685MOL0     H92432  -0.876   2.023   2.632  1.2389  1.0565 -2.0272
  685MOL0     H92433  -1.114   1.962   2.673 -1.2608 -1.1808 -0.0755
  685MOL0     H92434  -1.108   1.880   2.509 -1.6083  0.6392 -0.0949
  685MOL0     H92435  -1.331   1.979   2.572 -3.1122  0.2535 -0.1248
  685MOL0     H92436  -1.544   1.999   2.620  0.3684 -1.1584 -2.0080
  685MOL0     H92437  -1.632   2.162   2.618  1.3358  1.0549  0.1617
  685MOL0     H92438  -1.638   2.057   2.477 -1.3377 -0.0615  1.1186
  685MOL0     H92439  -1.866   2.324   2.586 -3.7012 -1.3800  0.9305
  685MOL0     H92440  -2.088   2.417   2.562 -1.1830 -3.2042  0.0141
  685MOL0     H92441  -2.354   2.463   2.237  2.2106  3.1406 -0.6188
  685MOL0     H92442  -2.270   2.324   2.303 -1.4409 -0.4160  1.9114
  685MOL0     H92443  -2.363   2.346   2.509 -3.7534 -0.6701  1.2587
  685MOL0     H92444  -2.337   2.520   2.514  0.3168 -1.8358 -0.1649
  685MOL0     H92445  -2.565   2.374   2.386 -0.4803 -0.0265 -0.4556
  685MOL0     H92446  -2.550   2.551   2.385  1.5435  1.3307  1.0794
  685MOL0     H92447  -2.585   2.404   2.647  2.4387 -0.8867 -0.8786
  685MOL0     H92448  -2.544   2.578   2.621 -1.8665  0.1581  4.4552
  685MOL0     H92449  -2.794   2.434   2.517 -1.9143 -0.1354  2.0776
  685MOL0     H92450  -2.750   2.604   2.488  2.8206  1.4420  1.1034
  685MOL0     H92451  -2.817   2.463   2.753  0.9407 -0.8456 -2.2665
  685MOL0     H92452  -2.735   2.629   2.731  0.8585  1.0011 -3.1256
  685MOL0     H92453  -2.952   2.703   2.624  0.9504  0.0104 -0.1498
  685MOL0     H92454  -2.973   2.660   2.785  0.2919  2.3504 -0.7653
  685MOL0     H92455  -3.053   2.488   2.531 -0.6824 -1.9604  0.1074
  685MOL0     H92456  -3.147   2.572   2.662 -0.2722 -1.8546 -0.9981
  685MOL0     H92457  -2.005   2.520   2.155 -2.0054 -0.0085  0.0087
  685MOL0     H92458  -1.764   2.433   2.178  0.2767 -2.8693 -0.5008
  685MOL0     H92459  -1.324   2.451   2.387 -2.1606 -0.7057 -0.0365
  685MOL0     H92460  -1.111   2.329   2.446 -0.2698  0.5963 -1.5608
  685MOL0     H92461   0.329   1.213   3.099  1.1871  0.9545 -1.8115
  685MOL0     H92462   0.555   1.201   3.081 -2.1038  0.0784  3.3322
  685MOL0     H92463   0.979   0.719   3.139  1.9086 -0.1074  0.4977
  685MOL0     H92464   1.219   0.738   3.068 -1.0146 -0.1878  0.3215
  685MOL0     H92465   1.421   0.791   3.011 -1.3956  0.2305 -0.5574
  685MOL0     H92466   1.345   0.783   2.849 -1.5767  1.6860 -0.1650
  685MOL0     H92467   1.536   0.931   2.771  0.8540  2.2880  1.2914
  685MOL0     H92468   1.566   0.769   2.815 -1.8322 -0.8205  0.2482
  685MOL0     H92469   1.667   0.825   3.034  1.4003 -0.1124  0.1428
  685MOL0     H92470   1.627   0.999   3.004 -0.1189 -0.1720 -1.7289
  685MOL0     H92471   1.778   1.003   2.815  0.0651  0.8507  1.9525
  685MOL0     H92472   1.842   0.844   2.867  2.2017  0.3919  1.2221
  685MOL0     H92473   2.014   1.071   3.175 -1.6034 -1.3527  2.2530
  685MOL0     H92474   1.119   1.152   2.946 -0.7169  0.0177  0.1596
  685MOL0     H92475   0.908   1.105   2.970  2.7487  1.2072 -1.1609
  686MOL0     O92476   0.595   8.309   6.883 -0.0806  0.6457  0.1746
  686MOL0     C92477   0.642   8.393   6.804 -0.5897  0.3532  0.0197
  686MOL0     O92478   0.568   8.494   6.756  0.1461 -0.3563 -0.1994
  686MOL0     C92479   0.439   8.513   6.802  0.3961 -1.0343  1.2913
  686MOL0     C92480   0.330   8.527   6.713 -0.2054  0.1482 -0.4970
  686MOL0     C92481   0.195   8.546   6.750 -0.3368 -0.0162 -0.7122
  686MOL0     C92482   0.158   8.553   6.882 -0.8462 -0.1566 -0.0397
  686MOL0     O92483   0.028   8.554   6.921  0.2446 -0.2760 -0.1689
  686MOL0     C92484  -0.060   8.456   6.856  0.3541 -0.4397 -0.3567
  686MOL0     C92485  -0.191   8.467   6.933 -0.5021 -0.7143  0.1500
  686MOL0     C92486  -0.276   8.348   6.883  0.3794  0.2052  0.5499
  686MOL0     C92487  -0.387   8.311   6.986 -0.3051  0.1830  1.5536
  686MOL0     C92488  -0.461   8.195   6.921  0.3054  0.3686  0.7161
  686MOL0     C92489  -0.571   8.147   7.015 -0.0192 -0.4267 -0.8296
  686MOL0     C92490  -0.660   8.059   6.933  0.8326  0.9738 -0.2461
  686MOL0     C92491  -0.786   8.015   7.020 -0.7201  0.4033  0.0176
  686MOL0     N92492  -0.875   8.116   7.081 -0.0613  0.0119 -0.4279
  686MOL0     C92493  -0.982   8.183   7.021 -0.3161  0.3599  0.2329
  686MOL0     C92494  -1.021   8.266   7.123  0.5305 -0.9242 -0.4025
  686MOL0     C92495  -1.145   8.352   7.097 -0.0691  0.4165  0.2967
  686MOL0     C92496  -1.166   8.446   7.219 -0.2761  1.0527 -0.4788
  686MOL0     C92497  -1.095   8.578   7.205 -0.7820 -0.4284  0.1108
  686MOL0     C92498  -0.953   8.572   7.150 -0.3701 -0.0996  0.2823
  686MOL0     O92499  -0.897   8.707   7.151  0.0694 -0.9673  0.3332
  686MOL0     C92500  -0.783   8.730   7.066 -0.1460 -0.5602 -1.2923
  686MOL0     C92501  -0.781   8.850   6.999 -0.3374  0.4976 -0.5913
  686MOL0     C92502  -0.677   8.881   6.906  0.1291  0.8953 -0.3244
  686MOL0     C92503  -0.678   9.009   6.835  0.4482 -0.4023 -0.5156
  686MOL0     C92504  -0.572   8.788   6.881  0.2012  0.1438  1.3057
  686MOL0     C92505  -0.458   8.810   6.794  0.5307 -0.6466  0.6762
  686MOL0     O92506  -0.371   8.709   6.784 -0.1650  0.7507 -0.7300
  686MOL0     C92507  -0.257   8.733   6.715  0.2449 -0.9862 -0.0284
  686MOL0     C92508  -0.223   8.672   6.592 -0.4466  0.4313 -0.2860
  686MOL0     C92509  -0.100   8.701   6.525 -0.0614 -0.2329 -0.0804
  686MOL0     C92510  -0.018   8.800   6.571  0.9669  1.0003 -0.3721
  686MOL0     O92511   0.095   8.837   6.510 -0.7874  0.0453  0.5871
  686MOL0     C92512   0.129   8.794   6.372 -0.7351 -0.1063  0.1777
  686MOL0     C92513   0.242   8.886   6.319  0.1146 -0.6013  0.3560
  686MOL0     C92514   0.367   8.915   6.404 -0.0619  0.8036 -0.0237
  686MOL0     C92515   0.464   8.795   6.420 -0.5315 -0.2038  0.2831
  686MOL0     C92516   0.547   8.752   6.298  0.2794 -0.1972 -1.8171
  686MOL0     C92517   0.608   8.610   6.315  0.6456 -0.4233  0.0749
  686MOL0     C92518   0.682   8.562   6.187 -0.3695 -0.8495  0.2154
  686MOL0     C92519   0.820   8.633   6.172  0.2965  0.1454  0.2773
  686MOL0    Cl92520   0.896   8.585   6.013 -0.1587 -0.1355 -0.2211
  686MOL0     C92521  -0.035   8.839   6.699  0.1235  0.5999  0.1568
  686MOL0     C92522  -0.153   8.813   6.766  0.3490 -0.5913 -0.6487
  686MOL0     O92523  -0.440   8.920   6.744  0.0529 -0.0331  0.3384
  686MOL0     C92524  -0.590   8.653   6.938  0.7984 -0.6131  0.1662
  686MOL0     C92525  -0.698   8.632   7.027  0.2421 -0.0854 -0.6839
  686MOL0     N92526  -0.947   8.238   7.240  1.2009 -0.5823  0.1074
  686MOL0     N92527  -0.864   8.159   7.207  0.7436 -0.2180 -0.3258
  686MOL0     C92528   0.265   8.549   6.978 -0.3333 -0.0693  1.2761
  686MOL0     C92529   0.401   8.535   6.932  0.1406 -1.0550 -0.4332
  686MOL0     C92530   0.785   8.388   6.769 -0.6682 -0.6258 -0.2109
  686MOL0     C92531   0.858   8.290   6.808 -0.1648  1.2144 -0.1929
  686MOL0     C92532   0.986   8.272   6.764 -0.1704  0.0851  0.3389
  686MOL0     C92533   1.048   8.360   6.677 -0.3068  0.2103 -0.4208
  686MOL0     O92534   1.177   8.337   6.638 -0.7088 -0.4299  0.4125
  686MOL0     C92535   1.253   8.421   6.554 -1.4106  0.3968  0.0826
  686MOL0     C92536   1.383   8.338   6.525 -0.2981 -0.1381  0.1833
  686MOL0     C92537   1.369   8.249   6.400 -0.2786 -0.6014 -0.4750
  686MOL0     C92538   1.396   8.103   6.418 -0.4990 -0.5856 -0.1228
  686MOL0     C92539   1.285   8.048   6.500 -0.9314  0.0732  0.5966
  686MOL0     C92540   1.192   8.002   6.557 -0.6868  0.2748  0.4959
  686MOL0     C92541   0.964   8.466   6.635  0.2228  0.2068 -0.0046
  686MOL0     C92542   0.839   8.483   6.682 -0.4468  0.0372  0.2216
  686MOL0     H92543   0.349   8.521   6.606  0.5205  1.9364 -0.4923
  686MOL0     H92544   0.121   8.555   6.671 -1.3108  0.7858  0.2572
  686MOL0     H92545  -0.077   8.479   6.750 -1.1543  0.0784 -0.0250
  686MOL0     H92546  -0.024   8.353   6.861 -3.8640 -2.0627  0.3178
  686MOL0     H92547  -0.159   8.463   7.037  1.6626 -0.8163 -0.4696
  686MOL0     H92548  -0.238   8.565   6.923  2.0195  0.4078 -1.6107
  686MOL0     H92549  -0.323   8.377   6.789 -0.0636  4.3687  1.8763
  686MOL0     H92550  -0.218   8.255   6.878  2.3863  1.3652  1.0424
  686MOL0     H92551  -0.358   8.280   7.087 -0.1001  0.3939  1.5594
  686MOL0     H92552  -0.454   8.397   6.999  0.1901  1.0272 -0.9480
  686MOL0     H92553  -0.503   8.234   6.828 -0.7517  2.2683  1.9261
  686MOL0     H92554  -0.391   8.114   6.898 -0.5456  0.3326 -2.1983
  686MOL0     H92555  -0.524   8.094   7.099 -0.6508 -0.0987 -0.2575
  686MOL0     H92556  -0.624   8.234   7.056 -0.3239 -0.8840 -0.2484
  686MOL0     H92557  -0.700   8.119   6.851 -1.9784 -0.0391  0.2809
  686MOL0     H92558  -0.606   7.974   6.891  1.6643  0.8897  0.9389
  686MOL0     H92559  -0.746   7.937   7.085 -0.5563 -0.8506 -1.5296
  686MOL0     H92560  -0.852   7.952   6.960  1.0732 -2.3929  0.8030
  686MOL0     H92561  -1.026   8.172   6.923  0.3271 -2.7009  0.1994
  686MOL0     H92562  -1.139   8.408   7.003  0.9880  0.8799  0.6249
  686MOL0     H92563  -1.236   8.293   7.084  1.3725 -1.3229 -3.2289
  686MOL0     H92564  -1.140   8.392   7.310 -1.3407 -0.7176 -1.1666
  686MOL0     H92565  -1.273   8.470   7.226 -0.1015  2.2112 -1.4215
  686MOL0     H92566  -1.096   8.622   7.305 -0.0132  0.5653 -0.2992
  686MOL0     H92567  -1.159   8.640   7.142 -0.3352  0.5722  0.6120
  686MOL0     H92568  -0.948   8.533   7.048  1.9119  0.7796 -0.0025
  686MOL0     H92569  -0.897   8.508   7.220 -0.8421 -1.2411 -0.3599
  686MOL0     H92570  -0.861   8.923   7.003  0.4295  1.3374 -0.1462
  686MOL0     H92571  -0.613   9.081   6.884  0.6233 -0.3339 -0.8429
  686MOL0     H92572  -0.657   8.996   6.728 -2.1310  1.2084 -1.3334
  686MOL0     H92573  -0.779   9.052   6.842  0.1495 -0.7612 -2.1078
  686MOL0     H92574  -0.292   8.601   6.549  0.8463  0.7687 -3.1591
  686MOL0     H92575  -0.079   8.641   6.437 -2.6465 -1.4880  0.0607
  686MOL0     H92576   0.153   8.688   6.372 -3.3311 -0.8011 -2.3577
  686MOL0     H92577   0.035   8.810   6.319 -0.7558  0.7848  0.4636
  686MOL0     H92578   0.266   8.846   6.220 -0.9711 -2.4971  0.8082
  686MOL0     H92579   0.208   8.989   6.302  2.1622 -0.1083 -1.1402
  686MOL0     H92580   0.335   8.951   6.502  0.5294 -0.4534  0.6446
  686MOL0     H92581   0.426   8.999   6.366  1.1500  0.5874  1.3119
  686MOL0     H92582   0.535   8.828   6.497 -0.0841 -0.8130  0.1386
  686MOL0     H92583   0.407   8.719   6.475 -1.9129  1.0085  0.5852
  686MOL0     H92584   0.628   8.824   6.283  3.0830 -2.8977 -0.7950
  686MOL0     H92585   0.475   8.756   6.216 -0.5050  2.6393 -1.0758
  686MOL0     H92586   0.676   8.604   6.401  0.2928  1.0715  0.4942
  686MOL0     H92587   0.532   8.535   6.338  0.4024 -0.0217  0.5745
  686MOL0     H92588   0.617   8.572   6.099  0.2117 -3.3987 -0.5916
  686MOL0     H92589   0.703   8.455   6.193  0.4283 -0.8157 -1.4880
  686MOL0     H92590   0.888   8.623   6.258  0.1881  4.0257  0.9792
  686MOL0     H92591   0.815   8.742   6.169  0.5008  0.1445 -0.2674
  686MOL0     H92592   0.041   8.900   6.748 -0.2457 -0.0348  1.5862
  686MOL0     H92593  -0.169   8.855   6.865 -1.1605 -1.2248 -0.6040
  686MOL0     H92594  -0.519   8.580   6.903 -0.7077 -1.3033 -1.6579
  686MOL0     H92595  -0.703   8.537   7.078  0.9312  1.6684  2.9666
  686MOL0     H92596   0.229   8.561   7.080  0.7159 -0.4860  1.7082
  686MOL0     H92597   0.478   8.529   7.008 -1.4746 -0.4832  1.3710
  686MOL0     H92598   0.817   8.214   6.874  1.4297  0.5399  0.0651
  686MOL0     H92599   1.046   8.189   6.800  1.1151  0.7141 -0.2811
  686MOL0     H92600   1.196   8.433   6.461 -1.5966  0.0133  0.1447
  686MOL0     H92601   1.271   8.520   6.596  0.4053 -0.3245  1.1569
  686MOL0     H92602   1.421   8.285   6.612  2.1957  2.3414  0.7430
  686MOL0     H92603   1.461   8.412   6.507 -1.3767  0.8379 -0.6845
  686MOL0     H92604   1.452   8.282   6.337  1.6062 -2.0231  1.1440
  686MOL0     H92605   1.281   8.262   6.336 -0.0623 -0.7937 -0.8117
  686MOL0     H92606   1.484   8.097   6.483  1.5090  1.6515 -2.3829
  686MOL0     H92607   1.408   8.048   6.324 -0.2598 -0.0864 -0.3891
  686MOL0     H92608   1.111   7.958   6.611 -0.2256 -3.0864 -1.3169
  686MOL0     H92609   1.014   8.541   6.575 -0.4236  2.6051  2.2438
  686MOL0     H92610   0.773   8.561   6.646  1.0272 -0.0655 -3.0149
  687MOL0     O92611   5.944   6.874   3.746 -0.2984 -0.8391  0.2753
  687MOL0     C92612   5.943   6.954   3.654  0.3167 -0.5158  0.6776
  687MOL0     O92613   5.858   7.062   3.640 -0.1262  0.3661  0.3920
  687MOL0     C92614   5.755   7.047   3.731 -0.0462 -0.0996  0.1459
  687MOL0     C92615   5.644   6.966   3.701  0.5611  0.5046 -0.3524
  687MOL0     C92616   5.533   6.953   3.786 -0.9284  0.4810  0.0345
  687MOL0     C92617   5.536   7.030   3.906 -0.2440 -0.3307  0.5442
  687MOL0     O92618   5.425   7.047   3.981 -0.9445  0.4105  0.3883
  687MOL0     C92619   5.421   6.985   4.108 -0.0710  0.2924 -0.0724
  687MOL0     C92620   5.368   7.096   4.202 -0.8089  0.3128  0.3414
  687MOL0     C92621   5.209   7.101   4.193  0.7856 -0.3011  1.6278
  687MOL0     C92622   5.160   7.236   4.134  0.2555  0.8292 -0.1366
  687MOL0     C92623   5.211   7.358   4.212 -0.2053 -0.0996  0.6636
  687MOL0     C92624   5.153   7.483   4.154  0.7099 -0.4048 -0.2986
  687MOL0     C92625   5.179   7.613   4.236  0.2052  0.8577 -0.9291
  687MOL0     C92626   5.176   7.748   4.167  0.5508  0.1195 -0.3685
  687MOL0     N92627   5.231   7.852   4.260  0.1010  0.1519  0.1182
  687MOL0     C92628   5.147   7.957   4.299  0.3189 -0.4363  0.6345
  687MOL0     C92629   5.233   8.052   4.360 -0.2903  0.6920 -1.3621
  687MOL0     C92630   5.194   8.182   4.430 -0.5580  0.0279 -0.3194
  687MOL0     C92631   5.216   8.304   4.335  1.0499 -0.0449  0.6094
  687MOL0     C92632   5.137   8.283   4.199 -0.1729  0.2995  0.1403
  687MOL0     C92633   4.988   8.294   4.208  0.2294 -0.2574  1.0841
  687MOL0     O92634   4.932   8.199   4.297 -0.2175  0.6862  0.0293
  687MOL0     C92635   4.806   8.166   4.279  0.7012 -0.0426 -0.3292
  687MOL0     C92636   4.699   8.236   4.219  0.3277 -0.3804  0.3759
  687MOL0     C92637   4.563   8.191   4.230 -0.1609 -0.3775  0.7835
  687MOL0     C92638   4.464   8.288   4.178 -0.2353  0.2581  0.9669
  687MOL0     C92639   4.537   8.068   4.280 -0.4514  0.4909 -0.3274
  687MOL0     C92640   4.403   8.017   4.294 -0.0386  1.6248  0.0076
  687MOL0     O92641   4.307   8.056   4.211 -0.0712  0.5552 -0.9670
  687MOL0     C92642   4.182   7.992   4.210 -0.4398  0.0353  0.5129
  687MOL0     C92643   4.178   7.859   4.167  0.0960 -0.4328 -0.2279
  687MOL0     C92644   4.057   7.785   4.165  0.0283  0.6202  0.3563
  687MOL0     C92645   3.940   7.853   4.184  0.7837  0.9391  0.3290
  687MOL0     O92646   3.823   7.778   4.173 -0.0971 -0.6662  0.8441
  687MOL0     C92647   3.701   7.849   4.205 -0.3471 -0.3281 -0.3469
  687MOL0     C92648   3.592   7.746   4.206  0.1269  0.3695  0.6434
  687MOL0     C92649   3.567   7.661   4.089  0.6509  0.7891  0.8257
  687MOL0     C92650   3.431   7.596   4.120  0.3542  1.3920  0.1972
  687MOL0     C92651   3.391   7.477   4.023  0.1295 -0.3822 -0.7671
  687MOL0     C92652   3.254   7.407   4.059 -0.5607 -0.2592  0.1429
  687MOL0     C92653   3.205   7.321   3.943 -0.2088 -0.3978 -0.2192
  687MOL0     C92654   3.057   7.271   3.945 -0.2325  1.0872 -0.5036
  687MOL0    Cl92655   3.048   7.187   4.116 -0.0935 -0.3320  0.1603
  687MOL0     C92656   3.938   7.989   4.218  0.0269 -0.1711  0.8296
  687MOL0     C92657   4.056   8.058   4.236 -0.7466 -0.2949 -0.0675
  687MOL0     O92658   4.380   7.926   4.380 -0.4809  0.2919  0.0607
  687MOL0     C92659   4.648   7.991   4.332 -0.8620  0.2633 -0.3249
  687MOL0     C92660   4.781   8.042   4.336  0.0828  0.3621  0.8335
  687MOL0     N92661   5.360   8.000   4.350 -0.0381 -0.8736  0.0567
  687MOL0     N92662   5.359   7.882   4.290 -0.8951 -0.1769 -0.3747
  687MOL0     C92663   5.647   7.113   3.939 -0.1205  0.0438 -0.3515
  687MOL0     C92664   5.762   7.108   3.851 -0.0489 -0.1495 -0.3748
  687MOL0     C92665   6.026   6.920   3.535  0.8549  0.2977  0.4732
  687MOL0     C92666   6.032   6.990   3.411  0.2554 -1.0483 -0.6100
  687MOL0     C92667   6.101   6.937   3.297 -0.2984  0.3141  0.5888
  687MOL0     C92668   6.165   6.814   3.307 -0.5027 -0.7295  0.9297
  687MOL0     O92669   6.231   6.744   3.211  0.2125 -0.2597 -0.3581
  687MOL0     C92670   6.227   6.794   3.080 -0.8140  0.8349 -0.1319
  687MOL0     C92671   6.302   6.711   2.985 -0.8003 -0.4357 -0.7128
  687MOL0     C92672   6.286   6.553   2.988 -0.0196 -0.7335 -0.7983
  687MOL0     C92673   6.397   6.486   2.913  0.3928 -0.6188 -0.1891
  687MOL0     C92674   6.528   6.519   2.982 -0.4897 -0.5834  0.2058
  687MOL0     C92675   6.632   6.548   3.041  0.0920 -0.3760  0.5646
  687MOL0     C92676   6.167   6.753   3.431 -0.1348  0.0352  0.6139
  687MOL0     C92677   6.105   6.802   3.537 -0.7048  0.5534 -0.5527
  687MOL0     H92678   5.650   6.902   3.614 -0.5384  0.5131 -0.4549
  687MOL0     H92679   5.450   6.888   3.761 -0.6122  0.0035  0.2142
  687MOL0     H92680   5.349   6.906   4.086  2.3394 -1.6295 -1.6337
  687MOL0     H92681   5.511   6.931   4.138 -0.5417 -0.3343  0.2451
  687MOL0     H92682   5.405   7.068   4.301 -0.1386 -1.7744 -0.4457
  687MOL0     H92683   5.424   7.185   4.172  0.7365 -0.7029  0.0822
  687MOL0     H92684   5.160   7.017   4.143 -1.0978  1.6728 -0.0311
  687MOL0     H92685   5.161   7.101   4.291 -1.7334  1.2179  0.4893
  687MOL0     H92686   5.194   7.255   4.031  0.1978  1.8359  0.0258
  687MOL0     H92687   5.051   7.226   4.136  0.3744 -0.6342  0.0717
  687MOL0     H92688   5.191   7.336   4.318 -0.8931  0.1164  0.5796
  687MOL0     H92689   5.320   7.362   4.196  0.0428 -5.7187 -1.3639
  687MOL0     H92690   5.192   7.496   4.053 -1.2561  1.4252 -0.9169
  687MOL0     H92691   5.045   7.473   4.140  0.6543 -1.6107  0.8736
  687MOL0     H92692   5.114   7.592   4.322  1.4689 -2.4763 -0.6307
  687MOL0     H92693   5.279   7.601   4.278  0.8999 -1.7517 -3.0648
  687MOL0     H92694   5.071   7.773   4.149  0.0488 -1.3326  0.4114
  687MOL0     H92695   5.231   7.756   4.072  2.9839  0.9765  1.0245
  687MOL0     H92696   5.040   7.956   4.279  0.5296 -3.4280 -0.8799
  687MOL0     H92697   5.091   8.176   4.467 -1.2001 -1.1116 -2.2014
  687MOL0     H92698   5.254   8.205   4.519 -0.6117 -0.7704 -0.0733
  687MOL0     H92699   5.323   8.304   4.311  1.0630 -3.5955  0.0999
  687MOL0     H92700   5.176   8.397   4.376  0.4936  0.0366 -0.1035
  687MOL0     H92701   5.164   8.182   4.165  2.3726  1.5449 -1.8667
  687MOL0     H92702   5.177   8.351   4.123 -1.0027  1.3361  0.6097
  687MOL0     H92703   4.945   8.296   4.108  0.2037 -0.3218  1.0939
  687MOL0     H92704   4.970   8.394   4.249 -1.6648 -1.0737  2.3423
  687MOL0     H92705   4.719   8.337   4.183  1.1798  0.8366  3.8835
  687MOL0     H92706   4.409   8.255   4.090 -0.7919  1.1550  0.9594
  687MOL0     H92707   4.396   8.310   4.261  0.5859  0.9614  1.4811
  687MOL0     H92708   4.517   8.382   4.158  4.1241 -1.9084  1.1721
  687MOL0     H92709   4.273   7.808   4.155  1.4637  1.5537  1.3413
  687MOL0     H92710   4.063   7.681   4.135  1.6809  0.3225  1.5930
  687MOL0     H92711   3.704   7.897   4.302  1.4814 -2.5743  0.8194
  687MOL0     H92712   3.689   7.911   4.116 -2.0491 -1.7523 -1.1707
  687MOL0     H92713   3.611   7.672   4.283  3.5957  0.3604 -0.0822
  687MOL0     H92714   3.497   7.792   4.234  1.8944  3.1204  2.5996
  687MOL0     H92715   3.650   7.590   4.084  0.1111  0.1195  1.2718
  687MOL0     H92716   3.568   7.714   3.993  1.8080  0.1820  0.4777
  687MOL0     H92717   3.444   7.545   4.215 -1.8105  0.1841 -0.0813
  687MOL0     H92718   3.356   7.676   4.125 -1.6497 -0.4495  1.2828
  687MOL0     H92719   3.464   7.396   4.030 -0.0322 -0.4914 -0.3440
  687MOL0     H92720   3.386   7.518   3.921  1.5280  0.2450 -0.6125
  687MOL0     H92721   3.271   7.354   4.153 -1.7902  0.7572  0.9623
  687MOL0     H92722   3.183   7.488   4.079 -2.4403 -1.9473  0.6036
  687MOL0     H92723   3.266   7.232   3.926  0.2371 -0.0729 -0.3114
  687MOL0     H92724   3.221   7.378   3.851 -1.3484 -0.2135 -0.3229
  687MOL0     H92725   3.035   7.194   3.871 -0.9280  0.1654  0.6238
  687MOL0     H92726   2.979   7.348   3.937  0.0660  1.6641  1.4975
  687MOL0     H92727   3.850   8.046   4.244 -0.7041 -1.6001  1.5918
  687MOL0     H92728   4.059   8.164   4.259 -1.5925 -0.4822  1.0179
  687MOL0     H92729   4.629   7.890   4.367 -1.1430 -0.7960 -3.3002
  687MOL0     H92730   4.856   7.981   4.384  0.3836 -0.7346 -0.9691
  687MOL0     H92731   5.633   7.181   4.022  0.3662 -0.0632 -0.1803
  687MOL0     H92732   5.852   7.164   3.870  0.7549 -0.4529 -2.8582
  687MOL0     H92733   5.968   7.077   3.408 -1.7166 -2.2720  2.2755
  687MOL0     H92734   6.096   6.993   3.204  0.1242  0.9051  0.9248
  687MOL0     H92735   6.120   6.795   3.058 -1.2090  0.2953  1.5805
  687MOL0     H92736   6.266   6.897   3.079  1.6775  0.0192  1.8075
  687MOL0     H92737   6.406   6.744   3.000 -1.4813  2.1792 -1.3931
  687MOL0     H92738   6.278   6.762   2.891 -1.8220  0.2797 -0.0770
  687MOL0     H92739   6.197   6.513   2.939 -0.4289 -0.7587 -0.0618
  687MOL0     H92740   6.287   6.519   3.092  2.2439  2.0501  0.2315
  687MOL0     H92741   6.386   6.493   2.804 -0.8964 -1.9505 -0.1734
  687MOL0     H92742   6.400   6.378   2.932 -0.1436 -0.1899  2.9085
  687MOL0     H92743   6.725   6.557   3.095  0.6285 -0.3359 -0.3389
  687MOL0     H92744   6.222   6.661   3.446 -1.4881 -1.2907 -1.8447
  687MOL0     H92745   6.123   6.753   3.632 -1.5421  1.9116  0.3413
  688MOL0     O92746   5.819   5.976   1.414 -0.0387  1.4480  0.4028
  688MOL0     C92747   5.765   5.873   1.372  0.4131 -0.0645 -0.1999
  688MOL0     O92748   5.630   5.847   1.398 -0.1415 -0.0478 -0.2469
  688MOL0     C92749   5.540   5.928   1.468 -0.7987 -0.5700 -0.1224
  688MOL0     C92750   5.401   5.919   1.431 -0.1926 -0.9008 -0.1084
  688MOL0     C92751   5.302   6.002   1.494 -0.1822  0.0178 -1.0646
  688MOL0     C92752   5.337   6.067   1.615  0.1121 -0.4698 -0.7653
  688MOL0     O92753   5.252   6.139   1.691  0.3701 -0.3105 -0.2421
  688MOL0     C92754   5.227   6.278   1.649  0.2180  0.1922 -0.2985
  688MOL0     C92755   5.121   6.321   1.755  0.0996 -0.7602 -0.4722
  688MOL0     C92756   5.102   6.473   1.744  0.2894  0.4932  0.3100
  688MOL0     C92757   4.984   6.527   1.826  0.2044 -0.9443  0.8162
  688MOL0     C92758   4.991   6.678   1.828  0.3291 -0.6086 -0.0763
  688MOL0     C92759   4.863   6.745   1.875  0.3234 -0.7028  0.6954
  688MOL0     C92760   4.882   6.893   1.888 -0.0983  0.2002 -0.1714
  688MOL0     C92761   4.769   6.961   1.963 -0.4465 -0.0869  0.6376
  688MOL0     N92762   4.786   7.102   1.987 -0.6130 -0.0556 -0.4794
  688MOL0     C92763   4.904   7.166   2.018  0.0688 -1.4195  0.0400
  688MOL0     C92764   4.844   7.291   2.063 -0.1080  0.8183  0.2928
  688MOL0     C92765   4.922   7.396   2.131 -0.1783  0.5009 -0.0574
  688MOL0     C92766   4.933   7.523   2.043 -0.7191  0.1619 -0.2301
  688MOL0     C92767   4.803   7.593   2.010 -1.1715  0.0847 -0.4684
  688MOL0     C92768   4.711   7.608   2.129  0.6497 -0.5145  0.4412
  688MOL0     O92769   4.754   7.718   2.206 -0.1474 -0.1315 -0.1322
  688MOL0     C92770   4.650   7.768   2.292  0.0598  0.1841 -0.3872
  688MOL0     C92771   4.670   7.895   2.356 -0.0241 -0.2159  0.2288
  688MOL0     C92772   4.579   7.956   2.439 -0.4824  0.9902 -0.5562
  688MOL0     C92773   4.618   8.097   2.488  0.1710 -0.4164  0.0252
  688MOL0     C92774   4.452   7.894   2.458  0.4659  0.1477  0.3203
  688MOL0     C92775   4.342   7.959   2.537  0.0111  0.2390  0.2722
  688MOL0     O92776   4.266   7.869   2.604 -0.1402 -0.5032 -0.1600
  688MOL0     C92777   4.151   7.913   2.665 -0.2097  0.3538  0.4766
  688MOL0     C92778   4.140   7.906   2.801  0.8935  0.5310 -0.1363
  688MOL0     C92779   4.014   7.947   2.858  0.1846  0.7892  0.0765
  688MOL0     C92780   3.909   7.989   2.778 -0.3226  0.2065 -0.4188
  688MOL0     O92781   3.781   8.017   2.824 -0.6848 -0.5000  0.1933
  688MOL0     C92782   3.705   8.116   2.754  0.4648 -0.2716  0.4359
  688MOL0     C92783   3.647   8.198   2.859 -0.3039  0.2695  0.3995
  688MOL0     C92784   3.563   8.309   2.795  0.6116  0.5137  0.1870
  688MOL0     C92785   3.505   8.420   2.885  0.0628 -0.0785 -0.2861
  688MOL0     C92786   3.399   8.509   2.818 -0.4973  0.2191  0.0848
  688MOL0     C92787   3.270   8.439   2.783 -0.4157  0.0770  0.2379
  688MOL0     C92788   3.153   8.529   2.747  0.0708 -0.7797 -0.1116
  688MOL0     C92789   3.108   8.625   2.858  0.4338 -0.1888 -0.3381
  688MOL0    Cl92790   3.037   8.529   2.989  0.2592 -0.3889 -0.2852
  688MOL0     C92791   3.929   7.995   2.636  0.3006  0.8517 -0.2603
  688MOL0     C92792   4.044   7.952   2.586 -0.8398 -0.4758 -0.7128
  688MOL0     O92793   4.309   8.077   2.517  0.6325  0.6069 -0.1738
  688MOL0     C92794   4.435   7.769   2.402  0.7703  1.2896  0.2253
  688MOL0     C92795   4.528   7.704   2.321  0.1124 -0.0125  0.2291
  688MOL0     N92796   4.708   7.296   2.041  0.4791 -0.0764  0.1616
  688MOL0     N92797   4.675   7.179   2.002  0.6057  0.6868  0.5243
  688MOL0     C92798   5.471   6.077   1.659  0.0423  0.3452 -0.3917
  688MOL0     C92799   5.565   6.006   1.584 -0.5728 -0.2122  0.6879
  688MOL0     C92800   5.850   5.771   1.301 -0.1325 -1.2717 -0.4706
  688MOL0     C92801   5.982   5.798   1.265  0.0510  0.6177  0.5202
  688MOL0     C92802   6.061   5.695   1.208  0.0710  0.3723  0.4194
  688MOL0     C92803   6.019   5.569   1.202  0.2961  0.9602 -0.0187
  688MOL0     O92804   6.104   5.476   1.149  0.4412 -0.7029 -0.0215
  688MOL0     C92805   6.058   5.381   1.052  0.9022  0.2632 -0.6522
  688MOL0     C92806   6.009   5.438   0.920 -0.3473  0.3285 -0.2007
  688MOL0     C92807   5.964   5.330   0.825  0.3112  0.2789  0.3793
  688MOL0     C92808   5.880   5.390   0.709 -0.7034 -0.2020  0.2061
  688MOL0     C92809   5.977   5.439   0.609  0.3642  0.7465  0.4535
  688MOL0     C92810   6.061   5.494   0.544 -0.0654  0.4221  1.0678
  688MOL0     C92811   5.884   5.538   1.255  0.3771 -0.6709 -0.4608
  688MOL0     C92812   5.802   5.642   1.291 -0.3106  0.1275 -0.3116
  688MOL0     H92813   5.378   5.858   1.344 -1.1475 -0.8513  0.0938
  688MOL0     H92814   5.204   6.020   1.452 -0.7827  0.0092  0.2582
  688MOL0     H92815   5.324   6.329   1.660 -0.4588  1.6664 -0.9937
  688MOL0     H92816   5.192   6.294   1.547 -1.6931  0.4243  0.3658
  688MOL0     H92817   5.034   6.255   1.750  0.1465 -1.2174  2.6331
  688MOL0     H92818   5.163   6.295   1.853 -3.0434  1.0891  1.5395
  688MOL0     H92819   5.195   6.522   1.775  0.3599 -0.7103  2.1437
  688MOL0     H92820   5.077   6.501   1.641 -2.3205 -0.1564  0.7067
  688MOL0     H92821   4.896   6.488   1.774  0.4562  1.0835 -1.2826
  688MOL0     H92822   4.987   6.487   1.928  2.6407 -1.0670  0.7555
  688MOL0     H92823   5.071   6.713   1.895  0.0845  3.8509 -1.7552
  688MOL0     H92824   5.016   6.714   1.728 -0.9879 -3.4914 -1.5446
  688MOL0     H92825   4.770   6.723   1.822 -0.9768  2.8099  1.2370
  688MOL0     H92826   4.836   6.717   1.977 -0.8515  1.7496  1.1365
  688MOL0     H92827   4.979   6.915   1.933 -1.0941  0.8143  1.7966
  688MOL0     H92828   4.874   6.931   1.786 -1.6352 -3.7058 -1.6824
  688MOL0     H92829   4.765   6.913   2.061  2.6818  0.7533  1.2798
  688MOL0     H92830   4.681   6.940   1.902 -2.4851 -1.8246  3.9013
  688MOL0     H92831   5.003   7.127   2.032  1.3839  0.8645 -1.9889
  688MOL0     H92832   4.882   7.424   2.228 -2.4753  1.6912 -1.2605
  688MOL0     H92833   5.023   7.355   2.135 -0.9814 -1.8829 -1.7970
  688MOL0     H92834   4.985   7.495   1.951  3.5007  0.2262  1.9260
  688MOL0     H92835   4.996   7.593   2.098 -0.9401  0.0887  0.1163
  688MOL0     H92836   4.757   7.542   1.925  0.6621  0.2830 -1.6231
  688MOL0     H92837   4.816   7.697   1.978 -0.1855  0.6283  1.5137
  688MOL0     H92838   4.698   7.515   2.185  0.8222  0.5120  2.2543
  688MOL0     H92839   4.619   7.633   2.075  0.5292  1.6019  1.5092
  688MOL0     H92840   4.761   7.947   2.328 -2.2098  4.3001  0.6456
  688MOL0     H92841   4.587   8.124   2.590 -0.3695 -0.6223 -0.0824
  688MOL0     H92842   4.727   8.099   2.495  0.0670  0.2570  3.2745
  688MOL0     H92843   4.596   8.174   2.413  0.5026 -1.1929 -0.8839
  688MOL0     H92844   4.224   7.866   2.858  0.4389 -2.1459 -1.1900
  688MOL0     H92845   4.002   7.941   2.965 -0.8752  0.5802 -0.0464
  688MOL0     H92846   3.763   8.171   2.680 -0.8765  0.9860  0.2672
  688MOL0     H92847   3.630   8.054   2.705  3.8012 -2.6126 -2.1881
  688MOL0     H92848   3.584   8.148   2.933 -1.8010  0.2800 -0.8363
  688MOL0     H92849   3.729   8.246   2.914 -1.0201 -1.5853  3.3317
  688MOL0     H92850   3.477   8.264   2.744  0.0311  1.6131  0.1623
  688MOL0     H92851   3.624   8.355   2.717  1.6671 -1.0590  0.0536
  688MOL0     H92852   3.469   8.372   2.977  2.6766  0.2048  0.9574
  688MOL0     H92853   3.584   8.493   2.901 -3.3648  3.6758  1.5156
  688MOL0     H92854   3.427   8.539   2.717 -1.4734  3.8717  0.7574
  688MOL0     H92855   3.382   8.597   2.881 -1.8286  1.6640 -2.1632
  688MOL0     H92856   3.289   8.381   2.692  1.1513 -0.2312  0.7296
  688MOL0     H92857   3.247   8.365   2.861  5.7309 -2.1364  0.5600
  688MOL0     H92858   3.067   8.462   2.743 -0.3332 -0.3776  1.2463
  688MOL0     H92859   3.175   8.573   2.649  0.4066 -0.2573  0.1911
  688MOL0     H92860   3.028   8.695   2.835  1.4445  1.4631  0.9174
  688MOL0     H92861   3.196   8.684   2.886  0.6549 -1.3838  1.7207
  688MOL0     H92862   3.845   8.011   2.569 -1.0271 -0.1828  1.0797
  688MOL0     H92863   4.043   7.954   2.478 -0.7999 -0.5996 -0.7148
  688MOL0     H92864   4.340   7.717   2.410  0.6179  1.4911 -0.2390
  688MOL0     H92865   4.511   7.602   2.289 -1.5995  0.4700 -0.5797
  688MOL0     H92866   5.504   6.147   1.736  1.6667 -1.5342  0.7212
  688MOL0     H92867   5.670   6.023   1.605 -1.1640  2.6333  1.9435
  688MOL0     H92868   6.024   5.898   1.264  0.0503  0.6170  0.2297
  688MOL0     H92869   6.155   5.720   1.161  0.7165 -0.3356  1.3094
  688MOL0     H92870   6.138   5.310   1.028  0.3136  0.0550 -2.0802
  688MOL0     H92871   5.976   5.323   1.094 -0.1601 -0.4613 -3.5006
  688MOL0     H92872   6.082   5.492   0.860 -0.9827  0.4442 -0.8923
  688MOL0     H92873   5.930   5.513   0.932 -1.1231 -0.5424  0.2477
  688MOL0     H92874   5.895   5.266   0.880  0.1776  2.1832  2.5976
  688MOL0     H92875   6.042   5.266   0.782 -1.2351 -1.3664 -0.0873
  688MOL0     H92876   5.808   5.466   0.739 -1.6285  0.0065 -2.3678
  688MOL0     H92877   5.819   5.313   0.662  0.7688 -1.7771  0.7425
  688MOL0     H92878   6.140   5.564   0.522 -1.9361  3.2777  2.7342
  688MOL0     H92879   5.854   5.434   1.244  1.1056 -0.8592 -0.7574
  688MOL0     H92880   5.702   5.606   1.312  0.2646 -0.7770  0.9737
  689MOL0     O92881   0.560   0.176  11.038  0.4141 -0.1685  0.1188
  689MOL0     C92882   0.541   0.232  11.147 -0.0407 -0.1041 -0.2815
  689MOL0     O92883   0.628   0.227  11.248  0.7479 -0.1282 -0.2226
  689MOL0     C92884   0.742   0.148  11.243  0.8829 -0.5825  0.2044
  689MOL0     C92885   0.865   0.197  11.262 -0.5701  0.5130 -0.3477
  689MOL0     C92886   0.980   0.106  11.268 -1.0259 -0.0993  0.4314
  689MOL0     C92887   0.957  -0.030  11.260  0.5927 -0.1321 -0.1705
  689MOL0     O92888   1.065  -0.105  11.290 -0.2163 -0.4582 -0.6573
  689MOL0     C92889   1.080  -0.235  11.234 -0.5003 -0.5329 -0.0670
  689MOL0     C92890   1.205  -0.302  11.282  0.1204 -0.1766 -0.1696
  689MOL0     C92891   1.336  -0.231  11.254  0.6667  0.0956  0.1334
  689MOL0     C92892   1.444  -0.328  11.302  0.0153  0.2792 -0.1119
  689MOL0     C92893   1.578  -0.260  11.327 -0.4560 -0.7643  0.4730
  689MOL0     C92894   1.696  -0.370  11.336 -0.5649 -0.1700 -0.3833
  689MOL0     C92895   1.683  -0.415  11.483  0.2455  1.1285 -0.4885
  689MOL0     C92896   1.785  -0.543  11.497  0.0120 -0.4520 -1.0523
  689MOL0     N92897   1.806  -0.566  11.636  0.4358 -0.6710 -0.7591
  689MOL0     C92898   1.711  -0.570  11.743 -0.7488 -1.1518  0.3221
  689MOL0     C92899   1.778  -0.544  11.862  0.1388 -0.6509  0.0510
  689MOL0     C92900   1.718  -0.512  12.002 -0.6507 -0.3831  0.3241
  689MOL0     C92901   1.576  -0.440  11.980  0.0843  0.2769  0.0212
  689MOL0     C92902   1.486  -0.462  12.105  0.0873 -0.8108 -0.6299
  689MOL0     C92903   1.340  -0.406  12.081 -0.4893 -0.7804 -0.3801
  689MOL0     O92904   1.263  -0.435  12.199 -0.0955  0.0895 -0.9267
  689MOL0     C92905   1.146  -0.370  12.199  0.1233  0.1595  0.2938
  689MOL0     C92906   1.088  -0.292  12.096  0.0269 -0.0987  0.4104
  689MOL0     C92907   0.959  -0.223  12.108 -0.1672 -0.4465 -0.2053
  689MOL0     C92908   0.909  -0.135  12.003  0.0891  0.0989 -0.3726
  689MOL0     C92909   0.894  -0.233  12.231 -0.1932 -0.6194 -0.2920
  689MOL0     C92910   0.767  -0.163  12.272 -0.3341 -0.3745  0.1757
  689MOL0     O92911   0.742  -0.144  12.408 -0.0623 -0.2204  0.0796
  689MOL0     C92912   0.633  -0.080  12.453  0.0679 -0.5610  0.4607
  689MOL0     C92913   0.656   0.028  12.544 -0.6285 -0.3370  0.3438
  689MOL0     C92914   0.546   0.097  12.598  0.3621  0.3264  0.2304
  689MOL0     C92915   0.414   0.048  12.584  0.4338 -0.2525 -0.1121
  689MOL0     O92916   0.308   0.090  12.651 -0.9618  0.0379  0.5598
  689MOL0     C92917   0.318   0.065  12.794  0.5094  0.0312  0.3370
  689MOL0     C92918   0.199   0.112  12.886  0.5499 -0.4924  0.0304
  689MOL0     C92919   0.187   0.263  12.891  0.2515 -0.2343 -1.0353
  689MOL0     C92920   0.043   0.296  12.937  0.2281 -0.6203  0.3425
  689MOL0     C92921   0.021   0.444  12.957 -0.0729  0.2542  0.8752
  689MOL0     C92922  -0.130   0.462  12.967 -0.0445  0.3063  0.2701
  689MOL0     C92923  -0.173   0.611  12.970 -0.0514  0.3999 -0.0787
  689MOL0     C92924  -0.326   0.616  12.947  0.9786 -0.0809 -0.6968
  689MOL0    Cl92925  -0.380   0.779  12.941  0.4154  0.0914 -0.0390
  689MOL0     C92926   0.387  -0.052  12.495 -0.7911  0.5732 -0.6828
  689MOL0     C92927   0.499  -0.107  12.422 -0.0604  0.5538  0.0477
  689MOL0     O92928   0.687  -0.128  12.181 -0.2309 -0.3328 -0.4915
  689MOL0     C92929   0.951  -0.304  12.329  0.0070 -0.1980  0.6892
  689MOL0     C92930   1.070  -0.382  12.314 -0.8254  0.0909  0.0785
  689MOL0     N92931   1.910  -0.537  11.835 -0.3311 -0.5632 -0.4746
  689MOL0     N92932   1.915  -0.534  11.705 -0.5678 -0.8159  0.0468
  689MOL0     C92933   0.823  -0.079  11.242  0.0312 -0.5410  0.6176
  689MOL0     C92934   0.720   0.014  11.219 -0.1341 -0.4520 -0.9678
  689MOL0     C92935   0.399   0.272  11.168 -0.3566  0.8992  0.3600
  689MOL0     C92936   0.310   0.291  11.058  0.3437  0.0956 -0.3010
  689MOL0     C92937   0.171   0.311  11.083 -0.8198  0.5182 -0.3782
  689MOL0     C92938   0.120   0.333  11.213 -0.3732 -0.4854  0.1035
  689MOL0     O92939  -0.011   0.357  11.247  0.3468  0.2204  0.2679
  689MOL0     C92940  -0.124   0.357  11.158  0.2598  0.0869  0.0963
  689MOL0     C92941  -0.137   0.494  11.082 -0.3421 -0.2202  0.4022
  689MOL0     C92942  -0.231   0.470  10.960 -0.4099  0.1831 -0.2866
  689MOL0     C92943  -0.281   0.588  10.883 -0.1699  0.9817 -0.4648
  689MOL0     C92944  -0.175   0.664  10.822  0.7752 -0.0694  0.6131
  689MOL0     C92945  -0.099   0.751  10.787  0.1690 -0.4863  0.8931
  689MOL0     C92946   0.216   0.327  11.314  0.4581 -0.0751 -0.4271
  689MOL0     C92947   0.353   0.299  11.300  0.4523  1.3347  0.8277
  689MOL0     H92948   0.872   0.305  11.266  1.3865  0.6980 -4.2431
  689MOL0     H92949   1.084   0.137  11.271  0.4434 -4.1139 -1.5362
  689MOL0     H92950   0.995  -0.295  11.266 -0.1356 -0.6884  0.6297
  689MOL0     H92951   1.085  -0.236  11.124 -0.0716  0.3614 -0.0706
  689MOL0     H92952   1.182  -0.315  11.388 -0.9296  1.8910 -0.0930
  689MOL0     H92953   1.224  -0.403  11.245  1.7052 -0.2259  0.7025
  689MOL0     H92954   1.343  -0.205  11.148 -1.4967  0.6047  0.0634
  689MOL0     H92955   1.347  -0.137  11.310  0.1452 -0.2410  0.8293
  689MOL0     H92956   1.404  -0.365  11.396 -1.1767 -0.1859 -0.7724
  689MOL0     H92957   1.452  -0.413  11.234 -0.3461  1.0476 -1.1655
  689MOL0     H92958   1.607  -0.192  11.246 -2.6724  0.1149  0.3231
  689MOL0     H92959   1.569  -0.202  11.420  0.9633 -0.1938  0.2718
  689MOL0     H92960   1.676  -0.454  11.269 -0.2618 -0.7832  0.2763
  689MOL0     H92961   1.798  -0.332  11.331 -0.2429 -0.5834  1.8842
  689MOL0     H92962   1.707  -0.329  11.545 -0.4616  0.5962  0.5481
  689MOL0     H92963   1.582  -0.447  11.509  1.7201 -1.3534  3.0132
  689MOL0     H92964   1.883  -0.532  11.450  0.2243 -0.0620 -0.5339
  689MOL0     H92965   1.731  -0.626  11.452  0.1855 -0.8406 -0.5512
  689MOL0     H92966   1.605  -0.575  11.720 -0.9576 -4.2579  1.4307
  689MOL0     H92967   1.714  -0.597  12.071  0.7604 -0.1310  0.7439
  689MOL0     H92968   1.787  -0.436  12.040 -2.0937  0.1681  1.9481
  689MOL0     H92969   1.527  -0.474  11.889  0.7262  2.0382 -1.0274
  689MOL0     H92970   1.586  -0.332  11.971 -1.3834  0.5607  1.3616
  689MOL0     H92971   1.525  -0.411  12.193 -0.2393  0.8537 -1.4262
  689MOL0     H92972   1.489  -0.572  12.112  0.5011 -1.0895 -3.8245
  689MOL0     H92973   1.303  -0.451  11.989  2.7681  1.6501 -3.1672
  689MOL0     H92974   1.337  -0.299  12.059 -2.2066 -0.7612 -0.1882
  689MOL0     H92975   1.126  -0.283  11.995 -0.0948 -2.6118  0.0789
  689MOL0     H92976   0.901  -0.031  12.037 -0.5763 -0.5079  1.4561
  689MOL0     H92977   0.974  -0.150  11.916 -1.2505  0.2490 -1.4302
  689MOL0     H92978   0.817  -0.183  11.969 -0.9340 -0.1443  2.4602
  689MOL0     H92979   0.757   0.047  12.577 -0.9257 -1.0656  1.7258
  689MOL0     H92980   0.551   0.185  12.661 -0.1114 -0.3229  1.1835
  689MOL0     H92981   0.330  -0.044  12.797  2.5936  0.2018 -0.2204
  689MOL0     H92982   0.406   0.115  12.834  0.2196 -0.4185  1.5819
  689MOL0     H92983   0.113   0.060  12.843  1.5347 -0.7461 -1.7265
  689MOL0     H92984   0.207   0.078  12.990  0.8949 -0.1976  0.1021
  689MOL0     H92985   0.211   0.288  12.787  3.8409 -1.2100 -0.5981
  689MOL0     H92986   0.254   0.304  12.967  0.5870  3.1634 -2.9839
  689MOL0     H92987  -0.027   0.255  12.863 -1.8341  0.6035  1.5219
  689MOL0     H92988   0.024   0.249  13.034  1.4595  0.1275  0.9780
  689MOL0     H92989   0.052   0.495  12.865 -1.1230  2.7877  1.8115
  689MOL0     H92990   0.078   0.487  13.040 -0.3209  0.1350  1.1083
  689MOL0     H92991  -0.171   0.411  12.880  3.7909 -2.3061 -0.2838
  689MOL0     H92992  -0.168   0.397  13.046 -1.6503  0.9520  0.0710
  689MOL0     H92993  -0.126   0.665  12.887 -1.2848 -0.6368 -1.5123
  689MOL0     H92994  -0.139   0.661  13.061  0.2023 -0.6906  0.4410
  689MOL0     H92995  -0.381   0.569  13.029  2.0751 -0.0886  0.0533
  689MOL0     H92996  -0.362   0.577  12.851 -4.4324  0.1136  0.9138
  689MOL0     H92997   0.286  -0.083  12.471 -0.5348 -0.9508  0.0915
  689MOL0     H92998   0.480  -0.188  12.352 -3.7778 -0.2664  1.7656
  689MOL0     H92999   0.913  -0.308  12.430  0.9054 -0.6444  1.0213
  689MOL0     H93000   1.103  -0.445  12.397 -1.4968  1.2928  1.3073
  689MOL0     H93001   0.791  -0.183  11.241  1.6086 -1.1164 -2.6823
  689MOL0     H93002   0.626  -0.030  11.186 -0.5586 -0.6406  0.4374
  689MOL0     H93003   0.349   0.283  10.957  0.3550  2.2646 -0.5241
  689MOL0     H93004   0.105   0.310  10.997 -1.7940  2.4165  0.2586
  689MOL0     H93005  -0.115   0.287  11.074 -0.6938  0.3803 -0.2658
  689MOL0     H93006  -0.211   0.323  11.214 -1.2807  2.2697 -0.8228
  689MOL0     H93007  -0.036   0.524  11.053 -1.1135  1.9850 -0.2625
  689MOL0     H93008  -0.165   0.573  11.152  0.3602  0.8579 -0.4994
  689MOL0     H93009  -0.315   0.404  10.985  0.4987 -1.6043 -1.6819
  689MOL0     H93010  -0.177   0.409  10.887 -0.9503 -2.4329  1.3289
  689MOL0     H93011  -0.319   0.659  10.957  4.1511  0.4139  2.6668
  689MOL0     H93012  -0.361   0.557  10.815  0.3387  0.4100 -0.8152
  689MOL0     H93013  -0.023   0.823  10.764 -0.1066 -0.7672 -1.1603
  689MOL0     H93014   0.188   0.338  11.418  0.8221  1.0295 -0.4357
  689MOL0     H93015   0.413   0.291  11.390  2.7288 -1.7127 -0.8062
  690MOL0     O93016   3.679   0.490   1.219  0.0142  0.1537  0.3126
  690MOL0     C93017   3.718   0.475   1.334 -1.1168 -0.0544  0.0923
  690MOL0     O93018   3.667   0.537   1.444  0.5448  0.0980 -0.4988
  690MOL0     C93019   3.544   0.595   1.437  0.4201 -0.8491  0.0234
  690MOL0     C93020   3.530   0.709   1.516  0.4210 -0.0022 -0.3016
  690MOL0     C93021   3.400   0.772   1.528 -0.2128 -0.0643 -0.7601
  690MOL0     C93022   3.291   0.727   1.457 -0.6478  0.4736  0.1663
  690MOL0     O93023   3.172   0.801   1.463 -0.5557 -0.4937  0.5386
  690MOL0     C93024   3.048   0.736   1.440  0.0590 -0.1343 -0.3721
  690MOL0     C93025   2.918   0.816   1.489 -0.6743 -0.0915  0.0944
  690MOL0     C93026   2.936   0.889   1.615 -0.3211 -0.1932  0.3413
  690MOL0     C93027   2.939   0.799   1.738 -0.0250 -0.1260  0.0449
  690MOL0     C93028   2.797   0.775   1.792 -0.1647  0.2995 -0.6779
  690MOL0     C93029   2.818   0.688   1.920 -0.0239 -0.2210  0.1261
  690MOL0     C93030   2.679   0.640   1.958 -1.1262  0.8754 -0.0613
  690MOL0     C93031   2.597   0.747   2.028  0.2293  0.0274  0.2195
  690MOL0     N93032   2.471   0.697   2.091 -0.3678  0.1925  0.9655
  690MOL0     C93033   2.388   0.611   2.028  0.1382 -0.4336  0.1799
  690MOL0     C93034   2.303   0.565   2.120  0.0615 -0.5659  0.9052
  690MOL0     C93035   2.186   0.475   2.096 -0.0428  0.0871  0.2077
  690MOL0     C93036   2.064   0.532   2.019  0.0666  0.0632  0.5204
  690MOL0     C93037   1.991   0.656   2.077 -1.0343  0.5500 -0.5098
  690MOL0     C93038   1.868   0.619   2.161 -0.9450  0.2906 -0.4705
  690MOL0     O93039   1.907   0.540   2.285 -0.5273 -0.1205  0.4455
  690MOL0     C93040   1.808   0.495   2.373 -1.0620 -0.5272  0.0087
  690MOL0     C93041   1.692   0.446   2.318 -1.7414 -0.3056  0.2560
  690MOL0     C93042   1.593   0.396   2.399  0.6023 -0.8051 -0.2593
  690MOL0     C93043   1.467   0.352   2.330  0.7543 -0.6838  0.9037
  690MOL0     C93044   1.622   0.383   2.542  0.5062 -0.6945  0.2114
  690MOL0     C93045   1.533   0.311   2.641 -0.1137 -0.4677  0.4964
  690MOL0     O93046   1.405   0.293   2.598 -0.5476  0.3088  0.6872
  690MOL0     C93047   1.314   0.232   2.679 -0.2397  0.2214 -0.1377
  690MOL0     C93048   1.173   0.263   2.659 -1.0357  0.0531 -0.1868
  690MOL0     C93049   1.068   0.196   2.717 -0.4796 -0.0892  0.2299
  690MOL0     C93050   1.101   0.092   2.802 -1.2427  0.6640  0.3339
  690MOL0     O93051   1.005   0.009   2.841  0.2459 -0.1055 -0.0893
  690MOL0     C93052   0.968   0.040   2.973  1.2885 -0.2406  0.1988
  690MOL0     C93053   0.859  -0.060   3.007 -0.1975 -0.0310 -1.5378
  690MOL0     C93054   0.922  -0.176   3.090  0.2998  0.2911 -0.5083
  690MOL0     C93055   1.008  -0.271   3.002 -0.1780 -0.4204 -0.3003
  690MOL0     C93056   1.103  -0.366   3.072  0.1888 -0.1504  0.0694
  690MOL0     C93057   1.037  -0.492   3.127  1.2989  1.3053 -0.1368
  690MOL0     C93058   0.966  -0.583   3.018  0.2661  0.9303 -0.6601
  690MOL0     C93059   0.962  -0.729   3.066  0.8674  0.1135  0.4225
  690MOL0    Cl93060   1.123  -0.806   3.057  0.2309 -0.2114 -0.1519
  690MOL0     C93061   1.236   0.058   2.829 -0.1531 -0.4806  0.0685
  690MOL0     C93062   1.342   0.126   2.768  1.1207  0.8540 -0.5538
  690MOL0     O93063   1.585   0.264   2.738  0.0585 -0.7044  0.5244
  690MOL0     C93064   1.735   0.446   2.596 -0.1591  0.5989 -0.0615
  690MOL0     C93065   1.828   0.498   2.512  0.3393  0.5065  0.5727
  690MOL0     N93066   2.342   0.614   2.246  0.2959 -0.1525 -0.6438
  690MOL0     N93067   2.446   0.690   2.224  1.1325  0.3343 -0.9061
  690MOL0     C93068   3.308   0.607   1.380  0.0349  0.2696 -0.3683
  690MOL0     C93069   3.435   0.552   1.362 -0.5597  1.0143 -0.3709
  690MOL0     C93070   3.842   0.395   1.354  0.2478  0.2967  0.4053
  690MOL0     C93071   3.893   0.373   1.483  0.2419  0.4458 -0.6591
  690MOL0     C93072   4.012   0.307   1.508 -1.3084  0.9214 -0.0881
  690MOL0     C93073   4.091   0.262   1.398 -0.9004 -0.3389 -0.9153
  690MOL0     O93074   4.209   0.192   1.419 -0.2593 -0.2069 -0.6141
  690MOL0     C93075   4.258   0.167   1.550  0.4679 -0.3216  0.6145
  690MOL0     C93076   4.401   0.107   1.544  0.1559 -0.0209  0.6770
  690MOL0     C93077   4.494   0.209   1.483 -0.0898  0.0856 -0.3228
  690MOL0     C93078   4.641   0.185   1.515  0.1775 -0.4380  0.0906
  690MOL0     C93079   4.671   0.047   1.458  0.5885 -0.1406 -0.1739
  690MOL0     C93080   4.709  -0.058   1.437 -0.0704  0.8117 -0.5925
  690MOL0     C93081   4.048   0.283   1.263  0.3324  0.3236  0.0654
  690MOL0     C93082   3.918   0.349   1.244 -0.4902  0.7831 -0.1305
  690MOL0     H93083   3.617   0.747   1.569  1.1690 -1.1912 -0.6451
  690MOL0     H93084   3.364   0.852   1.591 -0.2844 -0.2486 -0.5664
  690MOL0     H93085   3.043   0.731   1.331  0.6200  2.1660 -0.5554
  690MOL0     H93086   3.030   0.638   1.484 -1.9455 -0.3873 -1.6311
  690MOL0     H93087   2.893   0.891   1.413 -3.9225  1.1986  2.2296
  690MOL0     H93088   2.830   0.752   1.504 -0.9512 -0.6683 -3.2592
  690MOL0     H93089   3.022   0.957   1.604  0.9834 -2.0096 -1.4004
  690MOL0     H93090   2.843   0.946   1.618 -0.9635 -1.2036  0.0949
  690MOL0     H93091   2.990   0.704   1.721 -1.2196 -0.3356 -3.1064
  690MOL0     H93092   2.987   0.852   1.820 -2.7942 -1.8930  3.0636
  690MOL0     H93093   2.731   0.861   1.805 -0.1668  0.1513  0.4064
  690MOL0     H93094   2.743   0.712   1.722 -1.9820 -0.0379  0.9318
  690MOL0     H93095   2.879   0.597   1.915 -0.7030 -0.6410 -0.9870
  690MOL0     H93096   2.865   0.740   2.004 -0.4742 -3.7982  2.7851
  690MOL0     H93097   2.611   0.596   1.885 -1.5064  2.5193 -0.7375
  690MOL0     H93098   2.698   0.566   2.037  0.1626  1.7610  0.4931
  690MOL0     H93099   2.550   0.813   1.955  1.1809 -0.7483 -1.1613
  690MOL0     H93100   2.669   0.792   2.097  3.3357 -0.6684 -2.3021
  690MOL0     H93101   2.392   0.591   1.922  0.7428  0.7762 -0.0491
  690MOL0     H93102   2.230   0.393   2.038 -2.9657 -0.7111 -1.0680
  690MOL0     H93103   2.154   0.439   2.194 -1.2954  0.5585 -0.0150
  690MOL0     H93104   1.986   0.457   2.005 -0.8551  0.5531  2.6106
  690MOL0     H93105   2.102   0.574   1.925 -0.1274  0.7157  0.7281
  690MOL0     H93106   1.955   0.728   2.003 -1.7665  0.9594  0.2259
  690MOL0     H93107   2.060   0.725   2.126 -0.8195  1.8807 -2.5482
  690MOL0     H93108   1.799   0.570   2.091 -2.0284  1.4282 -0.2292
  690MOL0     H93109   1.820   0.705   2.208  1.1307  1.8194 -0.9945
  690MOL0     H93110   1.682   0.462   2.211 -2.6393  2.7291  0.6949
  690MOL0     H93111   1.371   0.378   2.374 -0.5754 -1.1825 -1.5420
  690MOL0     H93112   1.461   0.395   2.229 -2.5869  0.3474  1.4170
  690MOL0     H93113   1.478   0.244   2.325  0.8164 -0.6649  0.6058
  690MOL0     H93114   1.150   0.346   2.593  0.1718  2.1068  1.7975
  690MOL0     H93115   0.965   0.221   2.697 -0.1239  1.2328 -0.0838
  690MOL0     H93116   1.049   0.042   3.047  1.7044 -0.3369 -0.2500
  690MOL0     H93117   0.914   0.135   2.968 -0.0024 -0.9985 -0.7978
  690MOL0     H93118   0.785  -0.007   3.066  0.0091  1.0541 -2.2237
  690MOL0     H93119   0.811  -0.094   2.914 -0.5614 -0.4201 -1.2115
  690MOL0     H93120   0.850  -0.245   3.134  3.0258 -2.0774  0.5464
  690MOL0     H93121   0.986  -0.138   3.170  0.7200 -2.8233  0.7536
  690MOL0     H93122   0.947  -0.330   2.933  0.6471 -1.1350 -0.4319
  690MOL0     H93123   1.075  -0.204   2.947  1.0425 -0.6625  0.8395
  690MOL0     H93124   1.143  -0.314   3.159  1.3629 -1.5748  0.4305
  690MOL0     H93125   1.181  -0.402   3.004 -2.6867 -3.4369 -1.8545
  690MOL0     H93126   1.108  -0.559   3.177 -2.7343 -3.7909 -0.5175
  690MOL0     H93127   0.953  -0.467   3.192 -1.2180 -1.4298 -2.1391
  690MOL0     H93128   1.028  -0.580   2.928  2.0149 -2.7234  0.2142
  690MOL0     H93129   0.866  -0.543   3.002 -1.0760 -1.7009  0.5897
  690MOL0     H93130   0.888  -0.769   2.996 -0.6029  3.6887 -0.2526
  690MOL0     H93131   0.925  -0.738   3.169 -3.6341  1.4765 -0.8458
  690MOL0     H93132   1.268  -0.025   2.891 -1.4125 -2.4386 -1.7594
  690MOL0     H93133   1.442   0.086   2.779  0.5462 -0.4477  0.1483
  690MOL0     H93134   1.756   0.434   2.702  0.4736  2.1739  0.0150
  690MOL0     H93135   1.909   0.548   2.564  0.8412 -1.6535  1.9688
  690MOL0     H93136   3.217   0.577   1.330  0.0641  0.9785 -0.8566
  690MOL0     H93137   3.449   0.462   1.303  2.1631  0.0645  1.5022
  690MOL0     H93138   3.834   0.416   1.563  1.2522  0.7630 -0.0524
  690MOL0     H93139   4.055   0.283   1.605  3.6681  0.5968 -2.0708
  690MOL0     H93140   4.259   0.254   1.617 -0.1306  1.7264 -1.8964
  690MOL0     H93141   4.189   0.096   1.597 -1.0134  0.4010 -0.3916
  690MOL0     H93142   4.381   0.012   1.495 -3.0762 -0.5826  2.7720
  690MOL0     H93143   4.444   0.078   1.641 -0.9554  0.2233  1.2601
  690MOL0     H93144   4.477   0.310   1.520  1.7646  0.6573 -0.9000
  690MOL0     H93145   4.489   0.212   1.374  1.6836  0.1257 -0.4285
  690MOL0     H93146   4.657   0.198   1.622  4.0924  1.0679 -0.5211
  690MOL0     H93147   4.694   0.257   1.452  0.8415 -3.0855 -2.6455
  690MOL0     H93148   4.742  -0.158   1.414 -2.2756  0.1519 -1.1213
  690MOL0     H93149   4.095   0.248   1.172 -0.6326  1.7044 -1.0158
  690MOL0     H93150   3.882   0.373   1.145 -0.7561 -0.9814 -0.4980
  691MOL0     O93151   2.587   2.235   4.588  0.9124  0.0776  0.1540
  691MOL0     C93152   2.681   2.282   4.534  0.6064 -0.3048  0.4878
  691MOL0     O93153   2.735   2.408   4.557  0.3812 -0.2070  0.5729
  691MOL0     C93154   2.673   2.487   4.650 -0.0007 -0.2806 -0.1721
  691MOL0     C93155   2.746   2.527   4.769  0.7768  0.7175 -0.1902
  691MOL0     C93156   2.680   2.593   4.876  0.2797  0.7246 -0.7314
  691MOL0     C93157   2.551   2.638   4.869  0.1528 -0.3180  0.7304
  691MOL0     O93158   2.495   2.724   4.957  0.4662 -0.6067 -0.1787
  691MOL0     C93159   2.485   2.681   5.099 -0.0388 -0.2182 -0.5277
  691MOL0     C93160   2.409   2.775   5.193 -0.0299 -0.0028 -0.4903
  691MOL0     C93161   2.345   2.897   5.123  0.3147  0.5297 -0.4047
  691MOL0     C93162   2.261   2.993   5.206 -0.4080 -0.3249  0.1364
  691MOL0     C93163   2.276   3.146   5.175 -0.6238 -0.1874 -0.0937
  691MOL0     C93164   2.405   3.200   5.244 -0.4851  0.3741  0.5836
  691MOL0     C93165   2.426   3.350   5.206  0.5688  0.5251  0.3907
  691MOL0     C93166   2.582   3.375   5.230  0.9561 -0.6035  0.0948
  691MOL0     N93167   2.589   3.521   5.274 -0.3980  0.2617  0.4650
  691MOL0     C93168   2.524   3.568   5.390 -0.3715  0.3262 -0.3656
  691MOL0     C93169   2.565   3.695   5.397  0.2938  0.7561  0.0299
  691MOL0     C93170   2.510   3.800   5.492 -0.1813 -0.1112 -0.2283
  691MOL0     C93171   2.438   3.916   5.419  0.1433 -0.1353 -0.2472
  691MOL0     C93172   2.305   3.860   5.362  0.1430 -0.5099 -0.8449
  691MOL0     C93173   2.247   3.956   5.261  0.2592 -0.1487 -0.5414
  691MOL0     O93174   2.109   3.913   5.235 -0.9620 -0.0796  0.7747
  691MOL0     C93175   2.032   3.985   5.146 -0.3072  0.8282  0.2275
  691MOL0     C93176   1.939   3.914   5.077 -0.3839 -0.0785  0.7291
  691MOL0     C93177   1.862   3.979   4.979  0.4908  0.7778  0.1159
  691MOL0     C93178   1.778   3.892   4.886 -0.7221  0.7787 -1.1025
  691MOL0     C93179   1.875   4.119   4.964  1.0972 -0.7493 -0.4334
  691MOL0     C93180   1.782   4.197   4.874  1.4540  0.5322 -0.2279
  691MOL0     O93181   1.834   4.300   4.825  0.1444 -0.1458 -0.2635
  691MOL0     C93182   1.768   4.386   4.735  0.1809  1.4244  0.0214
  691MOL0     C93183   1.662   4.469   4.781  0.0045  0.4734  0.3423
  691MOL0     C93184   1.585   4.550   4.687 -0.2728  0.3134  0.1835
  691MOL0     C93185   1.621   4.552   4.552 -0.2033  0.6519  0.3793
  691MOL0     O93186   1.544   4.627   4.464  0.4026 -0.1118 -0.3621
  691MOL0     C93187   1.529   4.591   4.324 -0.5090 -0.3019  0.3374
  691MOL0     C93188   1.416   4.679   4.264  0.2152  0.6154 -0.8981
  691MOL0     C93189   1.385   4.632   4.117  0.5838  0.0587  0.1991
  691MOL0     C93190   1.249   4.685   4.078 -0.4474  1.0522 -0.0122
  691MOL0     C93191   1.205   4.593   3.954  1.1298 -0.0986 -0.5304
  691MOL0     C93192   1.065   4.641   3.915 -0.0827  0.2464  0.9799
  691MOL0     C93193   1.039   4.799   3.901  0.5903 -0.8453  0.7341
  691MOL0     C93194   0.917   4.822   3.818  0.7188  1.1242  0.6853
  691MOL0    Cl93195   0.924   4.742   3.655 -0.1281 -0.2696 -0.0413
  691MOL0     C93196   1.723   4.466   4.503 -0.2633 -0.4343 -0.1560
  691MOL0     C93197   1.796   4.387   4.598 -0.1820  1.0978  0.1658
  691MOL0     O93198   1.661   4.156   4.847  0.1290  0.0229 -0.0250
  691MOL0     C93199   1.967   4.193   5.033 -0.4768  0.3069 -0.0955
  691MOL0     C93200   2.054   4.123   5.120  0.0094  0.4595  0.5435
  691MOL0     N93201   2.642   3.724   5.283  0.8807  0.0306 -0.4535
  691MOL0     N93202   2.642   3.622   5.199  0.3046 -0.2571  0.5824
  691MOL0     C93203   2.482   2.609   4.747  0.4864  0.4841 -0.0559
  691MOL0     C93204   2.543   2.539   4.635  0.2725 -0.8135  0.3733
  691MOL0     C93205   2.738   2.215   4.417 -0.4379 -0.0633 -0.0787
  691MOL0     C93206   2.844   2.265   4.340  0.2072  0.9901  0.9223
  691MOL0     C93207   2.885   2.217   4.217  0.8310 -0.1678 -0.1879
  691MOL0     C93208   2.826   2.107   4.157  0.5769 -0.8335  0.1103
  691MOL0     O93209   2.859   2.058   4.026  0.4992 -0.2861  0.0237
  691MOL0     C93210   2.792   1.949   3.968  0.2491  0.5484  0.1863
  691MOL0     C93211   2.838   1.819   4.039  1.0090 -0.1971 -0.0838
  691MOL0     C93212   2.979   1.782   4.000  0.4303  0.1811  0.3997
  691MOL0     C93213   3.063   1.820   4.120  0.0594  0.4944  0.3939
  691MOL0     C93214   3.202   1.818   4.089  0.4857 -0.1187  0.4254
  691MOL0     C93215   3.320   1.815   4.069 -0.2474 -0.5819  0.1215
  691MOL0     C93216   2.718   2.058   4.231  0.5368 -0.6740 -0.6513
  691MOL0     C93217   2.669   2.109   4.353  0.3315  0.0103 -0.2759
  691MOL0     H93218   2.839   2.479   4.800 -0.4298 -2.1247 -0.6852
  691MOL0     H93219   2.732   2.602   4.970  2.5105  0.6554 -1.9043
  691MOL0     H93220   2.432   2.585   5.098 -1.7340  0.5606  2.6411
  691MOL0     H93221   2.589   2.673   5.134  0.6969  2.1789 -1.9236
  691MOL0     H93222   2.337   2.711   5.244 -1.9931  2.1344 -0.4067
  691MOL0     H93223   2.471   2.819   5.271 -0.2736 -1.1743  0.3770
  691MOL0     H93224   2.426   2.952   5.073 -1.0498  2.2478 -0.8319
  691MOL0     H93225   2.277   2.875   5.041 -0.4947  2.2891 -0.2533
  691MOL0     H93226   2.157   2.972   5.178  0.4010 -1.8739 -1.9390
  691MOL0     H93227   2.267   2.968   5.312 -3.7386  0.9095  0.7447
  691MOL0     H93228   2.277   3.162   5.067 -1.6091  2.6913  0.2436
  691MOL0     H93229   2.189   3.208   5.198 -0.9177 -0.4120 -0.5910
  691MOL0     H93230   2.407   3.199   5.353 -0.6217  0.2232  0.5850
  691MOL0     H93231   2.493   3.138   5.221 -2.0661 -1.3157 -1.2794
  691MOL0     H93232   2.402   3.375   5.102 -2.0124 -0.6356  0.6067
  691MOL0     H93233   2.358   3.402   5.274  1.2890 -3.0142  4.2610
  691MOL0     H93234   2.631   3.364   5.133 -1.5592 -0.1920 -1.3205
  691MOL0     H93235   2.624   3.305   5.302  1.1305 -1.2575 -0.6267
  691MOL0     H93236   2.469   3.510   5.464 -0.2996 -0.1892 -0.7104
  691MOL0     H93237   2.442   3.766   5.570 -0.8939 -0.8506 -1.1516
  691MOL0     H93238   2.593   3.847   5.546  0.1837 -1.4910  0.4478
  691MOL0     H93239   2.516   3.950   5.350  1.7950 -0.5295  1.3387
  691MOL0     H93240   2.415   3.997   5.489 -3.0034 -0.3546 -0.8767
  691MOL0     H93241   2.240   3.831   5.445 -0.1817 -0.3516 -1.0401
  691MOL0     H93242   2.326   3.773   5.299  1.1900  0.3321 -1.7095
  691MOL0     H93243   2.317   3.950   5.178  0.2546 -0.0338 -0.5549
  691MOL0     H93244   2.251   4.058   5.303  0.0172  0.0975 -1.1030
  691MOL0     H93245   1.937   3.805   5.068 -3.1227 -0.4505  4.0619
  691MOL0     H93246   1.779   3.920   4.780  0.7552 -2.1231 -1.9594
  691MOL0     H93247   1.814   3.790   4.902  2.4554  1.9831  0.2826
  691MOL0     H93248   1.670   3.893   4.908 -0.2701 -0.1795  1.4720
  691MOL0     H93249   1.636   4.477   4.886 -1.2083  4.6402 -0.1247
  691MOL0     H93250   1.497   4.607   4.714  0.0710  0.4289  1.0851
  691MOL0     H93251   1.618   4.615   4.267 -2.3212  0.5175 -2.3521
  691MOL0     H93252   1.505   4.484   4.319  2.5968 -1.0241 -1.1716
  691MOL0     H93253   1.330   4.656   4.327  0.7672  0.1140 -0.3137
  691MOL0     H93254   1.449   4.783   4.261  2.0357  0.2616  2.0121
  691MOL0     H93255   1.393   4.523   4.114  0.1410 -0.0394  1.7184
  691MOL0     H93256   1.462   4.670   4.049 -0.2488  0.0378 -0.7727
  691MOL0     H93257   1.183   4.672   4.164 -1.4064  2.5246 -0.4907
  691MOL0     H93258   1.240   4.792   4.059 -3.4984  1.0498  0.8668
  691MOL0     H93259   1.195   4.490   3.990 -1.6389  0.6342  1.1359
  691MOL0     H93260   1.286   4.599   3.881  1.9414  0.7249  0.4087
  691MOL0     H93261   1.049   4.590   3.820  1.9220 -0.7494  1.1127
  691MOL0     H93262   0.993   4.607   3.990  0.9125  1.0377  2.3361
  691MOL0     H93263   1.121   4.843   3.844 -0.4911  0.0978 -0.1574
  691MOL0     H93264   1.010   4.846   3.995  0.4948 -1.8655  1.2291
  691MOL0     H93265   0.915   4.931   3.803  3.2554  1.1505  0.1617
  691MOL0     H93266   0.829   4.777   3.866  1.9359 -2.5664 -0.2169
  691MOL0     H93267   1.759   4.466   4.401  3.0821  1.7588  0.8435
  691MOL0     H93268   1.876   4.319   4.567 -0.3431  0.8251  0.3500
  691MOL0     H93269   1.976   4.299   5.012 -2.6833  0.4736 -0.4354
  691MOL0     H93270   2.136   4.178   5.164  0.3645  0.3928 -0.0213
  691MOL0     H93271   2.376   2.633   4.750  0.0822 -1.1750  0.2547
  691MOL0     H93272   2.494   2.526   4.539 -0.4673 -1.8284  0.8632
  691MOL0     H93273   2.896   2.355   4.370  1.9470 -0.2024  1.7019
  691MOL0     H93274   2.961   2.278   4.169 -1.0984  2.2950 -0.3570
  691MOL0     H93275   2.684   1.964   3.978 -0.0516 -1.7060  0.9548
  691MOL0     H93276   2.809   1.949   3.860 -1.3256  2.7488 -0.1239
  691MOL0     H93277   2.765   1.745   4.004 -1.6421  2.4214 -0.4501
  691MOL0     H93278   2.823   1.825   4.147 -1.9104 -0.1553 -0.4165
  691MOL0     H93279   3.003   1.844   3.913 -0.5787  0.6379  0.4355
  691MOL0     H93280   2.992   1.676   3.976 -0.5738  0.0911  0.2069
  691MOL0     H93281   3.052   1.746   4.200 -1.7046  0.3461  0.0546
  691MOL0     H93282   3.045   1.923   4.155 -3.2963  0.5674 -1.1858
  691MOL0     H93283   3.424   1.838   4.054 -0.0358 -1.4823  0.1150
  691MOL0     H93284   2.658   1.979   4.188 -2.0340  0.9688 -0.3328
  691MOL0     H93285   2.592   2.058   4.411  1.2344 -1.0599  0.0287
  692MOL0     O93286   3.242   5.755   1.127 -0.6572  0.1258  0.5905
  692MOL0     C93287   3.305   5.674   1.191  0.4906  0.4532  0.4835
  692MOL0     O93288   3.258   5.574   1.263 -0.2877 -0.6599 -0.3530
  692MOL0     C93289   3.128   5.544   1.300 -0.7019 -0.0756  0.3905
  692MOL0     C93290   3.015   5.597   1.232  0.3132 -1.1936 -0.2297
  692MOL0     C93291   2.891   5.583   1.288  1.2514  0.1565 -0.3757
  692MOL0     C93292   2.873   5.519   1.414  0.4741  0.1838  0.5397
  692MOL0     O93293   2.749   5.493   1.467 -0.9667 -0.2477  0.5432
  692MOL0     C93294   2.630   5.519   1.399  1.3452  0.3062 -0.4828
  692MOL0     C93295   2.531   5.431   1.469  0.2508  0.0236  0.7867
  692MOL0     C93296   2.402   5.421   1.397  0.0561  0.9715 -0.6698
  692MOL0     C93297   2.299   5.353   1.493  0.7570  0.5869 -0.9563
  692MOL0     C93298   2.165   5.333   1.427 -0.9616 -0.7503 -0.3750
  692MOL0     C93299   2.056   5.285   1.517 -0.3961  0.5538 -0.4449
  692MOL0     C93300   1.921   5.241   1.458  0.3553 -0.3950 -0.1585
  692MOL0     C93301   1.862   5.371   1.393 -0.4893 -0.5772 -0.1575
  692MOL0     N93302   1.736   5.351   1.335 -0.3073 -0.2537 -0.9065
  692MOL0     C93303   1.618   5.345   1.402  0.2437 -0.3354 -0.7943
  692MOL0     C93304   1.533   5.306   1.305  0.1643 -0.2858 -0.1346
  692MOL0     C93305   1.383   5.280   1.315 -0.3010  0.0317  0.4391
  692MOL0     C93306   1.324   5.243   1.174 -0.6525  0.1578 -1.1740
  692MOL0     C93307   1.176   5.211   1.187  0.0878  0.5405 -0.1161
  692MOL0     C93308   1.121   5.137   1.055 -0.2056  0.0039 -0.5158
  692MOL0     O93309   0.980   5.168   1.046  1.1094  0.7020 -0.1747
  692MOL0     C93310   0.891   5.059   1.056 -0.3842 -0.1629  0.2373
  692MOL0     C93311   0.777   5.063   1.134  1.0605 -1.0832 -0.6578
  692MOL0     C93312   0.683   4.963   1.140 -0.2775 -0.2318 -1.2911
  692MOL0     C93313   0.567   4.984   1.242 -0.4429 -0.1858 -0.0793
  692MOL0     C93314   0.705   4.849   1.060  0.1830 -0.4675  1.1743
  692MOL0     C93315   0.600   4.748   1.040  0.4987 -0.4982 -0.5661
  692MOL0     O93316   0.643   4.622   1.006 -0.1631 -0.1345 -1.0831
  692MOL0     C93317   0.575   4.507   1.020  0.1270 -0.0107  0.2051
  692MOL0     C93318   0.624   4.401   0.954  0.1480 -0.4556 -0.5503
  692MOL0     C93319   0.555   4.280   0.951 -0.5552 -1.0615  0.6294
  692MOL0     C93320   0.455   4.260   1.041  0.0954  0.1326  0.2004
  692MOL0     O93321   0.394   4.136   1.046  0.1778 -0.0241 -0.0263
  692MOL0     C93322   0.402   4.039   0.947 -0.2613 -0.4199  0.4206
  692MOL0     C93323   0.320   4.083   0.818  0.6260 -0.8330 -0.7183
  692MOL0     C93324   0.274   3.971   0.731 -0.3733  0.2422  0.5597
  692MOL0     C93325   0.191   4.010   0.608  0.4413 -0.5016 -0.0062
  692MOL0     C93326   0.140   3.879   0.539  0.5831 -0.2338  0.2681
  692MOL0     C93327   0.029   3.910   0.434 -0.5065  0.3091 -0.2529
  692MOL0     C93328   0.071   4.016   0.332  0.1333 -0.0944  0.6470
  692MOL0     C93329   0.026   3.985   0.191 -0.3749  0.6416  1.1390
  692MOL0    Cl93330  -0.145   3.954   0.195 -0.3700  0.7735 -0.3179
  692MOL0     C93331   0.403   4.370   1.111  0.7024 -0.0604 -0.9560
  692MOL0     C93332   0.459   4.498   1.107 -0.9868  0.7510  0.7119
  692MOL0     O93333   0.481   4.780   1.053  0.0018 -0.4653 -0.3621
  692MOL0     C93334   0.819   4.837   0.986  0.8463  0.3128 -0.2693
  692MOL0     C93335   0.914   4.940   0.992 -0.0408 -0.7863 -0.4153
  692MOL0     N93336   1.596   5.291   1.189  0.1647  0.0872 -0.0617
  692MOL0     N93337   1.716   5.320   1.208  0.2663 -0.5837 -0.2471
  692MOL0     C93338   2.989   5.448   1.469 -0.8423 -0.3508  0.2830
  692MOL0     C93339   3.113   5.467   1.417 -0.3995  0.1735 -0.5589
  692MOL0     C93340   3.450   5.702   1.203 -0.3955 -0.8151 -1.1492
  692MOL0     C93341   3.512   5.813   1.132  0.0622  0.0691  1.0112
  692MOL0     C93342   3.645   5.836   1.139 -0.0861  0.0229  0.0296
  692MOL0     C93343   3.722   5.758   1.222 -0.8759 -0.4813 -0.8490
  692MOL0     O93344   3.863   5.796   1.230  0.6351 -0.1606 -0.9189
  692MOL0     C93345   3.950   5.720   1.314 -0.1251  0.1994 -0.3395
  692MOL0     C93346   4.076   5.707   1.223 -0.2278  0.0064 -0.1907
  692MOL0     C93347   4.189   5.629   1.276 -0.4598  1.5979 -0.0630
  692MOL0     C93348   4.257   5.699   1.392 -1.1146  0.1415 -0.3550
  692MOL0     C93349   4.327   5.822   1.361  0.1911 -0.2651 -0.9950
  692MOL0     C93350   4.364   5.933   1.340  0.9059  0.1612  0.3088
  692MOL0     C93351   3.661   5.662   1.299 -0.1602 -0.8790  0.6625
  692MOL0     C93352   3.533   5.636   1.297 -0.7276  0.7094  0.5399
  692MOL0     H93353   3.036   5.664   1.149 -0.9192 -0.4779  0.0133
  692MOL0     H93354   2.805   5.630   1.241  0.7405 -0.0680  0.3137
  692MOL0     H93355   2.597   5.622   1.415  0.2029 -0.0788 -0.2663
  692MOL0     H93356   2.634   5.493   1.293 -2.4440  1.4639 -1.0489
  692MOL0     H93357   2.574   5.331   1.477  2.0684  0.6587 -0.4695
  692MOL0     H93358   2.521   5.469   1.571 -3.6070  3.3020 -0.5586
  692MOL0     H93359   2.364   5.523   1.381 -0.4134  0.8773 -0.1809
  692MOL0     H93360   2.417   5.373   1.300 -1.8355 -2.8195  0.7296
  692MOL0     H93361   2.343   5.260   1.529 -1.3474 -0.2290 -0.3500
  692MOL0     H93362   2.287   5.415   1.583 -1.9482  0.2067 -0.9782
  692MOL0     H93363   2.124   5.428   1.392 -2.1565 -1.8397 -2.0959
  692MOL0     H93364   2.187   5.274   1.337 -0.9374  0.7514 -1.3961
  692MOL0     H93365   2.091   5.199   1.575 -1.6895 -0.2680 -0.8257
  692MOL0     H93366   2.026   5.361   1.590  2.1120  1.9228 -0.7453
  692MOL0     H93367   1.937   5.176   1.372 -0.9907  1.2892 -1.7950
  692MOL0     H93368   1.853   5.191   1.528 -2.4821  3.4441  0.2190
  692MOL0     H93369   1.936   5.401   1.318 -0.3484 -1.2501 -0.2883
  692MOL0     H93370   1.844   5.445   1.472 -0.2552  2.0644 -2.3907
  692MOL0     H93371   1.594   5.361   1.507  2.8080  2.0042 -0.4519
  692MOL0     H93372   1.375   5.198   1.387 -0.1245 -0.5649 -0.2110
  692MOL0     H93373   1.330   5.367   1.355  0.6934  0.4665  0.8287
  692MOL0     H93374   1.378   5.154   1.140  1.9127  1.2699 -0.2262
  692MOL0     H93375   1.337   5.326   1.104  2.6590  1.4439  0.7112
  692MOL0     H93376   1.131   5.311   1.190  0.3398  0.8159 -2.9652
  692MOL0     H93377   1.158   5.160   1.282 -0.3934  1.1333  0.1192
  692MOL0     H93378   1.138   5.029   1.064  1.6178  0.1566 -1.6889
  692MOL0     H93379   1.171   5.178   0.967  0.3407  3.4206  1.2037
  692MOL0     H93380   0.766   5.155   1.190  2.4512  0.5172 -2.8082
  692MOL0     H93381   0.476   4.966   1.185  0.0870  0.0943 -1.0231
  692MOL0     H93382   0.582   4.919   1.329  3.8370 -0.4602 -0.8225
  692MOL0     H93383   0.568   5.088   1.275 -0.5434 -0.1122 -0.3077
  692MOL0     H93384   0.707   4.415   0.885  0.1264 -0.3371 -0.5520
  692MOL0     H93385   0.584   4.209   0.875  0.7842 -1.3271  1.3626
  692MOL0     H93386   0.504   4.020   0.914  0.3551  1.4554  1.0979
  692MOL0     H93387   0.358   3.949   0.991  0.5610 -0.2047  1.7592
  692MOL0     H93388   0.230   4.140   0.840  1.9502  1.8774 -1.9016
  692MOL0     H93389   0.378   4.147   0.751 -0.3705  1.4715  0.5169
  692MOL0     H93390   0.216   3.906   0.797  0.5031 -1.1465 -0.0119
  692MOL0     H93391   0.363   3.913   0.706 -0.8003  0.2987 -1.1783
  692MOL0     H93392   0.105   4.066   0.644 -0.6942  0.2878 -3.6131
  692MOL0     H93393   0.241   4.071   0.532 -0.7606 -1.0634 -1.3008
  692MOL0     H93394   0.102   3.815   0.619 -3.6030  0.1209 -1.1508
  692MOL0     H93395   0.227   3.835   0.490  0.7423 -1.0861  1.2771
  692MOL0     H93396  -0.007   3.816   0.392 -3.1332  1.2562 -0.3251
  692MOL0     H93397  -0.061   3.956   0.477  0.7832 -1.2795  4.9082
  692MOL0     H93398   0.179   4.034   0.331  0.3651 -1.3640  0.8871
  692MOL0     H93399   0.028   4.112   0.359 -4.1290 -2.3651  3.0220
  692MOL0     H93400   0.081   3.901   0.148 -0.9634  1.6308 -1.8384
  692MOL0     H93401   0.043   4.072   0.126 -0.1710 -2.3991 -3.3931
  692MOL0     H93402   0.319   4.355   1.178  1.6854 -1.4647  0.0318
  692MOL0     H93403   0.425   4.580   1.168 -1.5212  1.3071 -0.2990
  692MOL0     H93404   0.841   4.743   0.935 -0.7055  0.6199 -1.6180
  692MOL0     H93405   1.001   4.945   0.928  0.3545  1.9544  0.2096
  692MOL0     H93406   2.973   5.369   1.542  2.8755 -1.7649 -0.2467
  692MOL0     H93407   3.209   5.442   1.462 -0.7242  0.0691  0.0850
  692MOL0     H93408   3.455   5.859   1.052  0.3079 -1.6188 -0.1792
  692MOL0     H93409   3.684   5.913   1.074  0.5868 -0.6615 -0.4037
  692MOL0     H93410   3.969   5.773   1.408 -0.5391  1.8434 -1.1397
  692MOL0     H93411   3.904   5.622   1.331 -1.3230  1.0430  1.7256
  692MOL0     H93412   4.102   5.808   1.190  1.0733  0.0432  0.8651
  692MOL0     H93413   4.046   5.676   1.122  2.7645  0.9018 -1.4705
  692MOL0     H93414   4.261   5.619   1.194  0.2241  0.5761  0.6388
  692MOL0     H93415   4.149   5.530   1.300  0.6305  1.1933  0.1464
  692MOL0     H93416   4.326   5.639   1.452 -0.7491  1.7642  0.9064
  692MOL0     H93417   4.180   5.727   1.464  0.2691 -3.9825  3.1262
  692MOL0     H93418   4.372   6.037   1.316 -1.3355 -0.3573 -3.2493
  692MOL0     H93419   3.707   5.611   1.383  1.0416 -0.0332  0.5555
  692MOL0     H93420   3.488   5.567   1.367 -1.5397 -0.9608 -1.5092
  693MOL0     O93421   2.088   9.330   0.479 -0.2508 -0.8322 -0.0421
  693MOL0     C93422   2.154   9.299   0.579  0.0171 -0.5709 -0.2415
  693MOL0     O93423   2.103   9.224   0.681  0.4748  0.1107  0.3146
  693MOL0     C93424   1.993   9.148   0.648  0.6837 -0.3429 -0.4126
  693MOL0     C93425   2.017   9.017   0.635  0.2667  0.4070  0.9308
  693MOL0     C93426   1.910   8.939   0.590 -0.2907 -0.5640 -0.2676
  693MOL0     C93427   1.776   8.992   0.580  0.7317 -0.7623 -0.8793
  693MOL0     O93428   1.682   8.893   0.551  0.2259 -0.6164  0.3182
  693MOL0     C93429   1.551   8.919   0.507  0.7401  0.1968  0.5032
  693MOL0     C93430   1.497   8.811   0.419  0.1017 -0.5493  0.3796
  693MOL0     C93431   1.586   8.781   0.299 -0.3349 -0.3015  0.3185
  693MOL0     C93432   1.511   8.668   0.213  0.0231 -0.1637 -0.0575
  693MOL0     C93433   1.562   8.624   0.068 -0.2383 -0.2854 -1.4616
  693MOL0     C93434   1.581   8.742  -0.026  0.0729 -0.4673  0.0416
  693MOL0     C93435   1.526   8.721  -0.177  0.4760  1.0055 -0.6775
  693MOL0     C93436   1.536   8.829  -0.281 -0.2609 -0.3668  0.9038
  693MOL0     N93437   1.496   8.957  -0.221 -0.4142 -0.2450  0.1360
  693MOL0     C93438   1.382   9.033  -0.248 -0.4275  0.8690 -0.5604
  693MOL0     C93439   1.395   9.149  -0.171 -0.0369 -0.0375  0.1154
  693MOL0     C93440   1.304   9.269  -0.167 -0.9656  0.2211 -0.7970
  693MOL0     C93441   1.208   9.270  -0.286  0.3149  0.5038  0.5636
  693MOL0     C93442   1.130   9.405  -0.257  0.4931  0.5784  0.2135
  693MOL0     C93443   1.053   9.433  -0.384 -0.2809  0.2372 -0.4286
  693MOL0     O93444   1.000   9.565  -0.396 -0.2763  0.0737 -0.1217
  693MOL0     C93445   0.886   9.580  -0.315 -0.1644 -0.3437  0.0256
  693MOL0     C93446   0.896   9.641  -0.192 -1.5432 -0.7909  0.9999
  693MOL0     C93447   0.783   9.639  -0.102 -0.1055  0.3225 -0.3141
  693MOL0     C93448   0.818   9.711   0.031 -0.0297 -0.7346 -0.3464
  693MOL0     C93449   0.660   9.578  -0.145  0.4302 -0.2934 -0.2380
  693MOL0     C93450   0.531   9.578  -0.072 -0.0978  0.1711  0.0057
  693MOL0     O93451   0.438   9.477  -0.088  0.6082  0.1545 -0.2507
  693MOL0     C93452   0.310   9.481  -0.032 -0.2617  0.0231 -0.1474
  693MOL0     C93453   0.244   9.604   0.001 -0.0034  1.2509 -0.3315
  693MOL0     C93454   0.119   9.596   0.060 -0.1600 -0.5586 -0.1882
  693MOL0     C93455   0.058   9.473   0.093  0.1617  0.3093 -0.6885
  693MOL0     O93456  -0.067   9.458   0.146  0.0281  0.0897 -0.5878
  693MOL0     C93457  -0.151   9.577   0.145 -0.7265 -0.4437  0.4551
  693MOL0     C93458  -0.286   9.549   0.206 -0.0557  0.4203  0.2131
  693MOL0     C93459  -0.387   9.663   0.191 -0.5750 -0.0169 -0.1151
  693MOL0     C93460  -0.528   9.637   0.253  0.1971 -0.2215  0.7082
  693MOL0     C93461  -0.633   9.744   0.231 -0.3347  0.1388 -0.8328
  693MOL0     C93462  -0.765   9.723   0.313  0.1744  0.5420  0.5847
  693MOL0     C93463  -0.859   9.848   0.283  0.2107 -0.4517  0.6415
  693MOL0     C93464  -0.985   9.843   0.372 -0.7828 -0.6623 -0.7025
  693MOL0    Cl93465  -1.093   9.707   0.337 -0.0125  0.2869  0.0575
  693MOL0     C93466   0.129   9.354   0.054  0.5577 -0.4515 -0.3169
  693MOL0     C93467   0.247   9.355  -0.006 -0.2869 -0.6750 -0.3524
  693MOL0     O93468   0.519   9.672   0.012  0.1056 -0.2058 -0.0408
  693MOL0     C93469   0.658   9.524  -0.277  0.1044  0.2436  0.2376
  693MOL0     C93470   0.768   9.520  -0.362 -0.1394 -0.5988  0.2488
  693MOL0     N93471   1.521   9.140  -0.114  0.8167  0.0189 -0.2518
  693MOL0     N93472   1.575   9.025  -0.133  0.3757 -0.2444 -0.3302
  693MOL0     C93473   1.761   9.127   0.607 -0.2124 -0.6528  0.4340
  693MOL0     C93474   1.865   9.205   0.643 -1.5238 -0.2099 -0.0709
  693MOL0     C93475   2.292   9.355   0.600  0.9565  0.4775 -0.3707
  693MOL0     C93476   2.369   9.305   0.702  0.1093  0.8343  0.5899
  693MOL0     C93477   2.497   9.355   0.728  0.0750 -0.7854 -0.7646
  693MOL0     C93478   2.553   9.456   0.650 -0.6980  0.6176 -0.0023
  693MOL0     O93479   2.680   9.505   0.669 -0.2952  0.2527 -0.8331
  693MOL0     C93480   2.785   9.430   0.736  0.2882 -0.0927 -0.5386
  693MOL0     C93481   2.929   9.476   0.702  0.9297 -0.5409 -0.2192
  693MOL0     C93482   3.045   9.400   0.776  0.0876  0.1902  0.0543
  693MOL0     C93483   3.181   9.457   0.731 -0.1241  0.3256 -0.4478
  693MOL0     C93484   3.298   9.391   0.794 -0.3687 -0.1004 -0.7174
  693MOL0     C93485   3.385   9.322   0.838  0.0531 -0.1725 -0.1011
  693MOL0     C93486   2.473   9.508   0.538  0.5961 -0.0334 -0.0643
  693MOL0     C93487   2.343   9.453   0.517 -1.2687 -0.2167  0.7762
  693MOL0     H93488   2.114   8.972   0.654  1.0003  2.7837  3.4227
  693MOL0     H93489   1.922   8.835   0.562 -1.2081 -0.5812 -0.6407
  693MOL0     H93490   1.475   8.932   0.585  0.4634 -0.9083  0.4255
  693MOL0     H93491   1.568   9.006   0.444  3.3543  1.4405  2.7297
  693MOL0     H93492   1.491   8.722   0.482 -2.1927 -0.3005  0.5890
  693MOL0     H93493   1.398   8.833   0.377  0.6657 -0.5151 -1.0035
  693MOL0     H93494   1.597   8.874   0.243 -2.3781  0.1994  0.6413
  693MOL0     H93495   1.680   8.733   0.328  0.2977  1.1095  0.6629
  693MOL0     H93496   1.499   8.583   0.280  2.6937 -1.0815 -0.6446
  693MOL0     H93497   1.410   8.707   0.194 -0.2275 -0.5056  0.5743
  693MOL0     H93498   1.659   8.577   0.090 -0.1495  0.0706 -1.0820
  693MOL0     H93499   1.492   8.553   0.023  1.4249 -1.0368 -2.9998
  693MOL0     H93500   1.522   8.827   0.006  0.4591  0.5798 -1.8816
  693MOL0     H93501   1.686   8.774  -0.022  0.2161 -0.3059 -2.7804
  693MOL0     H93502   1.576   8.634  -0.222  3.2457  1.4495  1.3563
  693MOL0     H93503   1.422   8.688  -0.164  1.0376  0.2044  2.6839
  693MOL0     H93504   1.476   8.811  -0.370  0.0963 -1.6370  0.8990
  693MOL0     H93505   1.643   8.842  -0.301 -0.5794  0.3839 -0.4090
  693MOL0     H93506   1.294   9.009  -0.305 -0.9015  2.8661 -0.7606
  693MOL0     H93507   1.259   9.255  -0.069  0.0566 -1.2486 -0.4918
  693MOL0     H93508   1.382   9.346  -0.161  1.8530 -2.4959  0.6867
  693MOL0     H93509   1.137   9.187  -0.282  0.7774  0.1366  1.4961
  693MOL0     H93510   1.258   9.280  -0.383 -0.6240 -0.2663 -0.0134
  693MOL0     H93511   1.196   9.491  -0.243  1.0374 -0.1489  2.6337
  693MOL0     H93512   1.057   9.406  -0.176 -2.3812 -1.9770 -2.0925
  693MOL0     H93513   0.976   9.355  -0.391 -0.7316  0.7990 -2.5763
  693MOL0     H93514   1.118   9.421  -0.471 -0.3642 -0.8294 -0.3545
  693MOL0     H93515   0.988   9.687  -0.158 -0.0647 -4.2500  2.1627
  693MOL0     H93516   0.763   9.805   0.040  0.5063 -0.3810 -0.7111
  693MOL0     H93517   0.790   9.654   0.120  2.0164  2.2389  2.3886
  693MOL0     H93518   0.924   9.732   0.043 -0.4786  1.0504  0.8225
  693MOL0     H93519   0.288   9.701  -0.019  2.0353  0.6985  1.1833
  693MOL0     H93520   0.059   9.684   0.078 -2.1338 -1.7954 -0.3792
  693MOL0     H93521  -0.094   9.663   0.183  1.8212 -1.4746 -0.7646
  693MOL0     H93522  -0.171   9.603   0.041  1.3749 -2.2145 -0.4776
  693MOL0     H93523  -0.318   9.465   0.144  1.3677  1.2839 -1.8200
  693MOL0     H93524  -0.277   9.526   0.312  0.8762  0.0193  0.0525
  693MOL0     H93525  -0.402   9.685   0.085 -3.7672 -0.7384  0.0651
  693MOL0     H93526  -0.342   9.748   0.242  1.7032 -1.2094 -0.0265
  693MOL0     H93527  -0.556   9.538   0.216  3.3365 -0.2714 -2.0535
  693MOL0     H93528  -0.508   9.644   0.360 -1.1945  0.2070  0.9591
  693MOL0     H93529  -0.652   9.739   0.123  1.7000 -1.1166 -1.1887
  693MOL0     H93530  -0.597   9.842   0.262 -2.4840  0.6098  0.3508
  693MOL0     H93531  -0.825   9.639   0.275 -0.9176  1.3552  0.4840
  693MOL0     H93532  -0.739   9.712   0.418  0.5059 -0.8118  0.3811
  693MOL0     H93533  -0.896   9.861   0.182 -0.5531 -0.5036  0.9092
  693MOL0     H93534  -0.806   9.942   0.301 -0.5653  0.4945 -1.6689
  693MOL0     H93535  -1.041   9.935   0.358 -0.9382 -0.2671  2.0895
  693MOL0     H93536  -0.958   9.840   0.478 -1.2367  1.5669 -0.4804
  693MOL0     H93537   0.084   9.259   0.081  0.5149  0.5494  3.8489
  693MOL0     H93538   0.296   9.260  -0.026  2.7437  0.5310  0.7351
  693MOL0     H93539   0.570   9.473  -0.314  0.7114 -2.4408  2.1847
  693MOL0     H93540   0.758   9.489  -0.465  2.1426  1.2108 -0.6202
  693MOL0     H93541   1.672   9.181   0.577  1.7963  1.9353 -1.3541
  693MOL0     H93542   1.868   9.310   0.671  5.0034 -0.1992  0.5792
  693MOL0     H93543   2.328   9.232   0.771  1.3458 -0.1971  0.2775
  693MOL0     H93544   2.542   9.325   0.822 -2.1843  0.3240  0.7717
  693MOL0     H93545   2.763   9.444   0.843 -0.3652  3.1805 -0.9874
  693MOL0     H93546   2.779   9.323   0.714 -2.1596  0.3490 -2.4327
  693MOL0     H93547   2.937   9.582   0.726  0.0603 -0.7875  1.3210
  693MOL0     H93548   2.933   9.457   0.594 -0.8755  1.1588 -0.6451
  693MOL0     H93549   3.036   9.300   0.731 -1.9048  0.8434 -1.1667
  693MOL0     H93550   3.038   9.403   0.885 -0.1600 -0.5775  0.0698
  693MOL0     H93551   3.199   9.563   0.746  2.0009 -0.0344 -0.0955
  693MOL0     H93552   3.201   9.434   0.626 -0.4168 -1.1944 -0.1933
  693MOL0     H93553   3.477   9.277   0.871  2.2069  0.9099 -4.0637
  693MOL0     H93554   2.506   9.597   0.486 -0.0694  1.3033  1.7223
  693MOL0     H93555   2.294   9.480   0.424  1.3427 -1.9576 -1.2653
  694MOL0     O93556   6.843   9.470   2.721  0.1478  0.6694 -0.1882
  694MOL0     C93557   6.856   9.442   2.605  0.1557 -0.6610 -0.5076
  694MOL0     O93558   6.825   9.530   2.504  0.5327  0.5035  0.1846
  694MOL0     C93559   6.765   9.650   2.542  1.1884  0.0487  0.7125
  694MOL0     C93560   6.646   9.677   2.477  0.3806 -0.1766  0.2472
  694MOL0     C93561   6.564   9.764   2.530 -0.0879  0.7933  0.1654
  694MOL0     C93562   6.595   9.855   2.627  0.2659  0.2250 -0.3556
  694MOL0     O93563   6.507   9.957   2.664  0.1546  0.2940 -0.4861
  694MOL0     C93564   6.551  10.095   2.654 -0.2330 -0.3167  0.9009
  694MOL0     C93565   6.426  10.179   2.683 -0.1329  1.1712 -0.5758
  694MOL0     C93566   6.308  10.183   2.586  0.1255 -0.5212  0.5978
  694MOL0     C93567   6.346  10.257   2.461 -0.4511 -1.0356  0.1831
  694MOL0     C93568   6.228  10.303   2.369  0.0971  0.7087 -1.1129
  694MOL0     C93569   6.261  10.370   2.233  0.4285 -0.0216  0.6633
  694MOL0     C93570   6.138  10.395   2.145  0.7739 -0.1937  0.4652
  694MOL0     C93571   6.068  10.520   2.192 -0.2206 -0.6489 -0.4823
  694MOL0     N93572   5.970  10.566   2.100 -0.1468 -0.5633 -0.0691
  694MOL0     C93573   5.892  10.481   2.017 -0.0683 -0.4248  0.4854
  694MOL0     C93574   5.804  10.565   1.960 -0.6953 -0.1528 -1.0515
  694MOL0     C93575   5.688  10.541   1.868  0.1010  0.6200  0.2503
  694MOL0     C93576   5.745  10.461   1.747 -0.1847  0.3843  0.6636
  694MOL0     C93577   5.638  10.436   1.641  0.4201 -0.4157  0.4639
  694MOL0     C93578   5.611  10.561   1.565  0.2888 -0.7569  0.1597
  694MOL0     O93579   5.496  10.540   1.475  0.2435  0.4106 -0.4666
  694MOL0     C93580   5.510  10.501   1.345 -0.0207 -0.1397 -0.3139
  694MOL0     C93581   5.481  10.372   1.304 -0.1996  0.1853  0.3508
  694MOL0     C93582   5.520  10.328   1.172  0.1742  0.2365 -0.3721
  694MOL0     C93583   5.480  10.186   1.139  0.5122 -1.2479  0.1195
  694MOL0     C93584   5.587  10.416   1.078 -0.5820 -0.2795  0.7338
  694MOL0     C93585   5.618  10.372   0.942 -0.2379  0.1553  0.0842
  694MOL0     O93586   5.657  10.468   0.855 -0.0203 -0.2261 -0.6604
  694MOL0     C93587   5.623  10.473   0.723  0.0913  0.3181  0.2881
  694MOL0     C93588   5.534  10.571   0.681 -1.0231  0.0596  0.3845
  694MOL0     C93589   5.509  10.599   0.543 -0.5297  0.0565  0.0565
  694MOL0     C93590   5.553  10.501   0.453  0.4110 -1.0534  0.1312
  694MOL0     O93591   5.499  10.504   0.334  0.0232  0.1045 -0.0488
  694MOL0     C93592   5.594  10.476   0.232  0.0161  0.2388  0.6906
  694MOL0     C93593   5.532  10.492   0.092  0.6929 -0.0908 -0.8980
  694MOL0     C93594   5.471  10.356   0.055 -0.1962 -0.5615 -0.0955
  694MOL0     C93595   5.400  10.383  -0.079 -0.2057  0.7123  0.2929
  694MOL0     C93596   5.346  10.257  -0.146  0.7379  0.0183 -0.5341
  694MOL0     C93597   5.280  10.293  -0.280  0.2377 -0.1518 -0.7072
  694MOL0     C93598   5.265  10.166  -0.360  0.1196  0.6324  0.2800
  694MOL0     C93599   5.198  10.201  -0.499  0.0322  0.7040  0.4608
  694MOL0    Cl93600   5.258  10.348  -0.576 -0.1544  0.2584  0.3988
  694MOL0     C93601   5.632  10.396   0.491 -0.0311 -0.3344 -0.5656
  694MOL0     C93602   5.668  10.384   0.624 -0.1039 -1.3123  0.2905
  694MOL0     O93603   5.609  10.253   0.908 -0.1127 -0.4408  0.2010
  694MOL0     C93604   5.608  10.546   1.125  0.7187  0.3119  0.0011
  694MOL0     C93605   5.578  10.582   1.256  0.7753  0.2311 -0.0996
  694MOL0     N93606   5.839  10.689   2.005 -0.2304 -0.5635 -0.0026
  694MOL0     N93607   5.943  10.696   2.079  0.2938 -0.4148 -0.2983
  694MOL0     C93608   6.729   9.857   2.667 -0.2308 -0.4495 -0.1706
  694MOL0     C93609   6.811   9.747   2.636  0.1383 -0.0996  0.9143
  694MOL0     C93610   6.905   9.305   2.591  0.2773  0.7731  0.6597
  694MOL0     C93611   6.902   9.195   2.687 -0.2566  0.5006  0.0762
  694MOL0     C93612   6.974   9.073   2.652 -0.0362  0.1630  0.6355
  694MOL0     C93613   7.044   9.056   2.527  0.1244 -0.7137 -0.5974
  694MOL0     O93614   7.118   8.945   2.515  0.1766 -0.3845  0.4716
  694MOL0     C93615   7.244   8.949   2.442 -0.4399  1.3155 -0.1576
  694MOL0     C93616   7.350   8.869   2.513  0.2907  0.5437 -0.6179
  694MOL0     C93617   7.468   8.859   2.411  0.4625  1.8489 -0.8602
  694MOL0     C93618   7.595   8.806   2.487  0.5579  0.3447 -0.1124
  694MOL0     C93619   7.567   8.680   2.560  0.0629  0.6128  0.8184
  694MOL0     C93620   7.589   8.567   2.613 -1.2332  0.3375 -0.9056
  694MOL0     C93621   7.034   9.163   2.435 -0.6089  0.3229  0.7453
  694MOL0     C93622   6.972   9.280   2.465 -0.2395 -0.2639  0.0804
  694MOL0     H93623   6.608   9.613   2.398  1.0307  2.4888 -2.3841
  694MOL0     H93624   6.465   9.758   2.487  1.2083 -2.9495 -2.8615
  694MOL0     H93625   6.636  10.118   2.718  2.2182  2.7030 -2.9824
  694MOL0     H93626   6.582  10.119   2.552 -0.6798 -2.8270  0.0776
  694MOL0     H93627   6.393  10.143   2.781  0.0580  1.8341 -0.2598
  694MOL0     H93628   6.446  10.285   2.701  0.3020  1.0179 -0.1349
  694MOL0     H93629   6.291  10.079   2.555  0.3834 -0.3035 -0.2921
  694MOL0     H93630   6.218  10.222   2.635  1.4552  0.8416  2.0375
  694MOL0     H93631   6.392  10.347   2.505  0.3789 -2.0345  1.4501
  694MOL0     H93632   6.424  10.202   2.408  1.8862  2.4792 -0.4000
  694MOL0     H93633   6.176  10.209   2.351  2.5259 -1.4557  2.0497
  694MOL0     H93634   6.169  10.368   2.434  0.5548 -1.8166  2.0799
  694MOL0     H93635   6.313  10.463   2.254 -2.8288  1.5447  2.5307
  694MOL0     H93636   6.315  10.290   2.181 -1.5160 -1.1592  0.2857
  694MOL0     H93637   6.168  10.412   2.041  1.2047  2.6315  0.9711
  694MOL0     H93638   6.071  10.308   2.146  1.3237 -0.6173  1.2452
  694MOL0     H93639   6.144  10.596   2.213  0.1454 -1.5414  1.7963
  694MOL0     H93640   6.031  10.506   2.294  2.5465  2.5575  1.1524
  694MOL0     H93641   5.876  10.374   2.010 -0.3315 -0.3573  0.0300
  694MOL0     H93642   5.619  10.479   1.926 -1.1886  3.4987  1.9632
  694MOL0     H93643   5.638  10.634   1.838 -0.9328 -0.0695 -0.2442
  694MOL0     H93644   5.780  10.364   1.784  0.4850 -0.5845 -2.2299
  694MOL0     H93645   5.832  10.518   1.711 -0.0800  0.6484  1.3218
  694MOL0     H93646   5.546  10.399   1.688 -0.8895  1.0611 -0.8117
  694MOL0     H93647   5.671  10.365   1.564  3.5190  0.6293  0.6704
  694MOL0     H93648   5.697  10.582   1.500 -0.8080 -0.3257 -1.2064
  694MOL0     H93649   5.591  10.651   1.624 -0.5116  0.3201 -1.6346
  694MOL0     H93650   5.462  10.298   1.381 -0.6838  0.5017  0.5358
  694MOL0     H93651   5.404  10.149   1.209  0.5627  0.4326  1.1061
  694MOL0     H93652   5.450  10.161   1.037  3.7784 -2.3508 -0.6995
  694MOL0     H93653   5.568  10.122   1.147 -0.8619 -3.0546  2.0460
  694MOL0     H93654   5.497  10.640   0.756 -0.4488  0.3853  0.3735
  694MOL0     H93655   5.465  10.695   0.520  0.0132  0.7097  1.5918
  694MOL0     H93656   5.678  10.546   0.239  0.4927 -0.1151 -1.1145
  694MOL0     H93657   5.652  10.383   0.230 -0.6954 -0.1934 -0.1948
  694MOL0     H93658   5.446  10.559   0.102 -0.6539 -1.8886  0.1536
  694MOL0     H93659   5.600  10.538   0.020  1.2073  2.6281  1.1589
  694MOL0     H93660   5.420  10.308   0.139 -2.4327 -1.4404 -1.8301
  694MOL0     H93661   5.555  10.291   0.027 -1.5110 -1.6272 -1.7842
  694MOL0     H93662   5.312  10.444  -0.057  0.6841  2.1466 -0.0406
  694MOL0     H93663   5.456  10.447  -0.147 -2.5400  1.8876 -0.6428
  694MOL0     H93664   5.279  10.206  -0.077  1.0004  0.1312 -0.1954
  694MOL0     H93665   5.425  10.183  -0.162  1.6842  0.8616  0.0682
  694MOL0     H93666   5.183  10.337  -0.257  0.6966  0.2655  0.5120
  694MOL0     H93667   5.321  10.375  -0.340 -1.7626 -0.7372 -3.0274
  694MOL0     H93668   5.211  10.087  -0.308  0.7187 -1.4539 -2.0882
  694MOL0     H93669   5.366  10.131  -0.378  0.8436  2.4688  0.5025
  694MOL0     H93670   5.091  10.218  -0.485 -1.2821 -2.9347 -3.3805
  694MOL0     H93671   5.215  10.122  -0.572 -2.9041  2.3909 -2.3159
  694MOL0     H93672   5.655  10.309   0.430 -0.6608  0.2124 -1.6123
  694MOL0     H93673   5.737  10.310   0.663  3.3058  1.5863  0.2400
  694MOL0     H93674   5.631  10.631   1.061 -1.2666  2.6180  2.1096
  694MOL0     H93675   5.592  10.683   1.291  1.9094  0.0277  0.0464
  694MOL0     H93676   6.764   9.929   2.741 -3.3583 -0.7748  1.7615
  694MOL0     H93677   6.911   9.739   2.676  1.2834 -0.7744 -1.8680
  694MOL0     H93678   6.854   9.215   2.782  2.3758  2.7920  1.0639
  694MOL0     H93679   7.004   9.004   2.730 -1.0847  1.4063  2.2172
  694MOL0     H93680   7.228   8.904   2.344 -0.9348  1.0497  0.0389
  694MOL0     H93681   7.277   9.053   2.432  1.9927  0.6302  0.2123
  694MOL0     H93682   7.298   8.775   2.536 -1.7512  2.0067  1.1990
  694MOL0     H93683   7.371   8.927   2.603 -1.8036 -2.8732  2.3722
  694MOL0     H93684   7.480   8.946   2.346  2.0123  1.3666 -1.2457
  694MOL0     H93685   7.436   8.775   2.349  0.3284  3.0518 -2.4878
  694MOL0     H93686   7.628   8.885   2.555 -0.4083  2.2176 -1.7020
  694MOL0     H93687   7.671   8.790   2.409  2.4948  0.8323  1.6043
  694MOL0     H93688   7.601   8.485   2.680  1.9499 -0.4064 -2.2077
  694MOL0     H93689   7.076   9.155   2.335 -0.3365 -0.7205  0.9344
  694MOL0     H93690   6.984   9.363   2.396  0.8523  0.6665  1.3293
  695MOL0     O93691   3.263   4.889   0.007  0.5756  0.2721  0.0245
  695MOL0     C93692   3.300   4.845   0.119  0.1197 -0.0678  0.4863
  695MOL0     O93693   3.218   4.816   0.228 -0.2296  0.0149 -0.0629
  695MOL0     C93694   3.090   4.808   0.195  1.0177 -0.3252  0.0797
  695MOL0     C93695   3.012   4.927   0.190  0.7480 -0.0067 -0.9751
  695MOL0     C93696   2.875   4.931   0.151 -0.0031  0.6643  0.7929
  695MOL0     C93697   2.809   4.807   0.118  0.4221  0.6938 -0.3708
  695MOL0     O93698   2.673   4.790   0.097 -0.4183  0.6409  0.2420
  695MOL0     C93699   2.599   4.837   0.211  0.3753  0.6854  0.1198
  695MOL0     C93700   2.452   4.793   0.214  0.3392  0.1529  0.7574
  695MOL0     C93701   2.378   4.776   0.079  0.3505 -0.3423 -0.7800
  695MOL0     C93702   2.233   4.736   0.111  0.6514 -0.0085  0.5652
  695MOL0     C93703   2.135   4.738  -0.016 -1.6182  0.0737 -0.1571
  695MOL0     C93704   2.032   4.639   0.017 -0.1354  0.3157  0.7704
  695MOL0     C93705   1.925   4.634  -0.098 -0.1376 -0.7576 -0.6557
  695MOL0     C93706   1.814   4.532  -0.076 -0.4688  0.0923 -0.5107
  695MOL0     N93707   1.673   4.569  -0.102 -0.2407 -0.3033  0.5595
  695MOL0     C93708   1.577   4.564  -0.005 -0.5152  0.3254 -0.6997
  695MOL0     C93709   1.479   4.650  -0.042 -0.0464  0.6997 -0.9476
  695MOL0     C93710   1.340   4.672   0.013 -0.1407 -0.5246  0.0547
  695MOL0     C93711   1.261   4.539   0.058 -1.0418  0.2238  0.6158
  695MOL0     C93712   1.182   4.471  -0.055 -0.4415  0.0060 -0.2494
  695MOL0     C93713   1.249   4.346  -0.108  0.1088 -0.3572 -0.5733
  695MOL0     O93714   1.150   4.296  -0.194  0.0083  0.4257  0.1994
  695MOL0     C93715   1.179   4.182  -0.264 -0.7888  0.3705 -0.7729
  695MOL0     C93716   1.280   4.089  -0.235  0.5989  0.8353 -0.6356
  695MOL0     C93717   1.311   3.981  -0.318  0.3468 -0.0156  0.3639
  695MOL0     C93718   1.421   3.895  -0.274 -0.5231  0.2262 -0.4441
  695MOL0     C93719   1.236   3.963  -0.436  1.4226 -0.3010  0.3090
  695MOL0     C93720   1.248   3.843  -0.525  0.0420 -0.4481 -0.4643
  695MOL0     O93721   1.143   3.825  -0.610  0.0326  0.0515 -0.1269
  695MOL0     C93722   1.134   3.709  -0.683  0.0134  0.1200 -1.2250
  695MOL0     C93723   1.215   3.591  -0.675 -0.2141  0.4191 -0.7107
  695MOL0     C93724   1.177   3.480  -0.754 -0.7288 -0.0223 -0.7464
  695MOL0     C93725   1.069   3.487  -0.842  0.4598 -0.0743  0.3309
  695MOL0     O93726   1.035   3.374  -0.912  0.2143  0.3365 -0.4004
  695MOL0     C93727   0.939   3.359  -1.021 -0.1781 -0.7366  0.2131
  695MOL0     C93728   0.800   3.345  -0.967  0.5943  0.3755 -0.9071
  695MOL0     C93729   0.716   3.275  -1.073 -0.0450  0.5159 -0.5019
  695MOL0     C93730   0.571   3.253  -1.038  0.2982 -0.3859 -0.6184
  695MOL0     C93731   0.500   3.171  -1.139  0.6916  0.4415  0.1852
  695MOL0     C93732   0.352   3.157  -1.115 -0.2940  0.5110  0.3020
  695MOL0     C93733   0.279   3.046  -1.194 -0.5549 -0.4740 -0.6819
  695MOL0     C93734   0.128   3.052  -1.165 -0.8400  0.0381  0.3258
  695MOL0    Cl93735   0.070   3.189  -1.271 -0.0335 -0.3432  0.4784
  695MOL0     C93736   0.997   3.609  -0.848  0.2274 -0.2955 -0.2650
  695MOL0     C93737   1.035   3.719  -0.776 -0.2267 -0.0244  0.5639
  695MOL0     O93738   1.353   3.781  -0.522  0.0965  0.2543 -0.1030
  695MOL0     C93739   1.135   4.063  -0.468  0.5168  0.7705  0.1816
  695MOL0     C93740   1.113   4.169  -0.381 -0.8334  0.3026  0.1754
  695MOL0     N93741   1.524   4.713  -0.157 -0.9730 -0.2869 -0.2269
  695MOL0     N93742   1.640   4.664  -0.189 -0.3104  0.3291  0.0109
  695MOL0     C93743   2.882   4.692   0.118 -0.8356  0.4909 -0.0334
  695MOL0     C93744   3.026   4.692   0.148 -0.7288  1.5073 -0.2222
  695MOL0     C93745   3.445   4.859   0.148  0.0240  0.9659 -0.7389
  695MOL0     C93746   3.492   4.851   0.281  0.8946  0.1788 -0.3170
  695MOL0     C93747   3.631   4.844   0.305  0.3429 -0.1547 -0.4492
  695MOL0     C93748   3.720   4.856   0.198 -0.1395  0.4143 -0.1365
  695MOL0     O93749   3.861   4.866   0.208  0.7056 -0.1260  0.4728
  695MOL0     C93750   3.936   4.773   0.286  0.1237 -0.4624 -0.2687
  695MOL0     C93751   4.082   4.799   0.264  0.3069  0.2123  0.0018
  695MOL0     C93752   4.172   4.679   0.307  0.1501  0.4054  0.8452
  695MOL0     C93753   4.322   4.723   0.305  0.0094  0.2799  0.3663
  695MOL0     C93754   4.346   4.837   0.392 -0.0089 -0.5840 -0.2333
  695MOL0     C93755   4.351   4.925   0.470 -0.7526  0.7336  0.0009
  695MOL0     C93756   3.671   4.891   0.071 -0.3774 -0.8641  0.1167
  695MOL0     C93757   3.538   4.883   0.048  0.8394  0.5623  0.4999
  695MOL0     H93758   3.062   5.019   0.217 -0.9790  0.7055 -0.0532
  695MOL0     H93759   2.815   5.021   0.140  0.2413  0.4920 -4.1968
  695MOL0     H93760   2.637   4.791   0.303  0.9778  1.5286  0.2989
  695MOL0     H93761   2.602   4.946   0.221  1.7083  0.7566 -0.7429
  695MOL0     H93762   2.453   4.691   0.253  2.0691 -1.9335 -4.0264
  695MOL0     H93763   2.391   4.862   0.275  2.6652  1.6668  1.4899
  695MOL0     H93764   2.385   4.865   0.016 -2.7081 -0.6697 -1.7148
  695MOL0     H93765   2.418   4.685   0.033  1.9789 -0.3645  0.5750
  695MOL0     H93766   2.221   4.644   0.169 -0.4444  0.1444  0.6010
  695MOL0     H93767   2.201   4.814   0.180  1.1382 -0.0174  0.8113
  695MOL0     H93768   2.096   4.840  -0.027 -0.2512  0.8181  1.4559
  695MOL0     H93769   2.183   4.702  -0.107 -3.6363 -0.2158 -1.1712
  695MOL0     H93770   2.080   4.544   0.041  2.6759  1.9952  2.2203
  695MOL0     H93771   1.977   4.679   0.102 -2.4006  2.1686 -1.3908
  695MOL0     H93772   1.883   4.733  -0.116 -1.6045 -1.5968 -2.1023
  695MOL0     H93773   1.970   4.612  -0.196  1.3172  1.0957 -0.4560
  695MOL0     H93774   1.818   4.495   0.027 -1.2626 -1.5162 -1.0218
  695MOL0     H93775   1.846   4.446  -0.135 -1.8596 -0.8096 -0.0084
  695MOL0     H93776   1.585   4.502   0.084  1.2211  2.5739  0.8423
  695MOL0     H93777   1.357   4.737   0.099 -3.0993 -1.0063  1.1383
  695MOL0     H93778   1.287   4.735  -0.058 -1.6403 -1.7483  0.0316
  695MOL0     H93779   1.194   4.566   0.140  1.5344  0.2371  2.8856
  695MOL0     H93780   1.323   4.463   0.106 -2.8805 -1.7882 -0.0177
  695MOL0     H93781   1.167   4.541  -0.137 -0.9259 -0.0516 -0.2119
  695MOL0     H93782   1.079   4.445  -0.026 -0.2582 -0.7095 -0.2162
  695MOL0     H93783   1.272   4.275  -0.027 -2.2561  1.5419  1.9739
  695MOL0     H93784   1.340   4.368  -0.163  0.6811  3.5617  1.5924
  695MOL0     H93785   1.328   4.099  -0.138 -0.8196  0.9770  0.0800
  695MOL0     H93786   1.511   3.912  -0.334 -1.8205 -0.4845 -2.7091
  695MOL0     H93787   1.446   3.910  -0.168 -0.6740 -0.7090 -0.2593
  695MOL0     H93788   1.381   3.793  -0.284 -0.9246  0.4015 -0.6008
  695MOL0     H93789   1.308   3.586  -0.619 -0.5318 -0.5732 -0.2525
  695MOL0     H93790   1.235   3.388  -0.754  0.0134  0.2885 -4.4553
  695MOL0     H93791   0.957   3.441  -1.091  1.1944 -0.8887  0.3545
  695MOL0     H93792   0.968   3.267  -1.073 -0.5148  0.6046 -2.5445
  695MOL0     H93793   0.793   3.273  -0.884  1.5601  1.6969  0.3889
  695MOL0     H93794   0.755   3.442  -0.945 -2.7307 -0.7891 -1.9337
  695MOL0     H93795   0.750   3.172  -1.088  2.8108  1.3125 -0.2336
  695MOL0     H93796   0.721   3.328  -1.168 -1.5428  0.4237 -0.6400
  695MOL0     H93797   0.566   3.199  -0.944  2.4858 -2.9458 -1.8553
  695MOL0     H93798   0.520   3.350  -1.029  2.4663  0.9480 -1.7490
  695MOL0     H93799   0.554   3.076  -1.128 -0.7970 -0.2192  2.4886
  695MOL0     H93800   0.519   3.211  -1.239  1.4296 -0.6001 -0.1071
  695MOL0     H93801   0.341   3.140  -1.007 -1.1481 -0.7122  0.0465
  695MOL0     H93802   0.317   3.259  -1.134  1.2705  0.9947 -0.1346
  695MOL0     H93803   0.312   2.943  -1.177 -1.5208 -0.7381 -0.3321
  695MOL0     H93804   0.301   3.062  -1.300 -0.5800 -5.5325 -1.6990
  695MOL0     H93805   0.112   3.071  -1.059  0.3936 -0.4548  0.6124
  695MOL0     H93806   0.070   2.963  -1.192 -0.8488  0.9030 -2.8745
  695MOL0     H93807   0.906   3.618  -0.905 -0.6693  1.1938  1.3113
  695MOL0     H93808   0.969   3.804  -0.763 -0.9236 -0.5325  0.3712
  695MOL0     H93809   1.079   4.060  -0.561  1.4727  0.4720 -0.4006
  695MOL0     H93810   1.051   4.256  -0.401 -1.1648  0.2382  0.9135
  695MOL0     H93811   2.840   4.601   0.075 -0.5526  1.1764 -1.8515
  695MOL0     H93812   3.085   4.602   0.152  0.3862  2.2666  0.9371
  695MOL0     H93813   3.422   4.821   0.358  0.8407 -2.0230 -1.1582
  695MOL0     H93814   3.669   4.824   0.404 -2.7352 -4.4944  0.1676
  695MOL0     H93815   3.910   4.773   0.393  0.3571 -2.1114 -0.1955
  695MOL0     H93816   3.905   4.675   0.249 -0.4559 -0.5880  0.5106
  695MOL0     H93817   4.107   4.897   0.305 -1.0381  0.9020 -0.7334
  695MOL0     H93818   4.103   4.821   0.159 -1.2637 -0.8417 -0.5757
  695MOL0     H93819   4.169   4.601   0.230 -1.9567  1.6141 -0.3931
  695MOL0     H93820   4.136   4.645   0.404  0.2108  1.9244  1.4319
  695MOL0     H93821   4.343   4.742   0.199 -0.0868 -2.6830 -0.2757
  695MOL0     H93822   4.388   4.643   0.338 -1.3337 -0.4723  1.3158
  695MOL0     H93823   4.363   5.005   0.540  0.0958  1.0818 -0.5464
  695MOL0     H93824   3.739   4.909  -0.011  2.1425 -0.0305  2.2333
  695MOL0     H93825   3.506   4.887  -0.056  2.2694 -1.9581 -0.1373
  696MOL0     O93826   1.004  10.849   4.831  0.2340  0.0204 -0.3103
  696MOL0     C93827   1.050  10.951   4.880  0.5078 -0.7160  0.3044
  696MOL0     O93828   0.991  11.023   4.983 -0.2830 -0.3801 -0.3052
  696MOL0     C93829   0.862  10.981   5.016  0.5267 -0.2675  0.6725
  696MOL0     C93830   0.842  10.963   5.150 -0.6282 -0.4748 -0.2884
  696MOL0     C93831   0.713  10.930   5.203  0.2864 -1.4705 -0.4452
  696MOL0     C93832   0.601  10.943   5.110 -0.3591 -0.2777  0.0122
  696MOL0     O93833   0.481  10.921   5.171  0.1966  0.0551 -0.1063
  696MOL0     C93834   0.368  10.967   5.091  0.1134  0.2097 -0.1566
  696MOL0     C93835   0.246  10.993   5.186  0.4768  0.3270  0.7750
  696MOL0     C93836   0.199  10.872   5.266 -0.5156 -0.1613 -0.1692
  696MOL0     C93837   0.054  10.901   5.327  0.2784  0.1801 -0.1189
  696MOL0     C93838   0.042  11.007   5.436  0.1810  0.8089 -0.2066
  696MOL0     C93839  -0.099  10.997   5.500 -1.2711 -0.8215  0.4531
  696MOL0     C93840  -0.116  11.066   5.636 -0.4862 -0.9821 -0.5140
  696MOL0     C93841  -0.084  11.212   5.617 -0.6043 -0.7167  0.2112
  696MOL0     N93842  -0.195  11.296   5.653 -0.1099 -0.3485  0.8940
  696MOL0     C93843  -0.230  11.321   5.788  1.4675  1.3613  0.7092
  696MOL0     C93844  -0.305  11.429   5.761  0.5362  0.4651 -0.5432
  696MOL0     C93845  -0.364  11.498   5.877 -0.6088 -0.3222  0.6555
  696MOL0     C93846  -0.516  11.474   5.915  0.4423  0.1242  0.8712
  696MOL0     C93847  -0.619  11.558   5.828 -0.1169 -1.1926 -0.2053
  696MOL0     C93848  -0.763  11.547   5.873 -0.0620 -0.4108 -0.0488
  696MOL0     O93849  -0.815  11.412   5.886  0.6619 -0.5198  0.1664
  696MOL0     C93850  -0.935  11.387   5.825  1.3411 -0.0838  0.6065
  696MOL0     C93851  -0.959  11.382   5.680  0.1952 -0.0530  0.5918
  696MOL0     C93852  -1.096  11.374   5.633 -0.1585 -0.2627  0.1910
  696MOL0     C93853  -1.114  11.365   5.480  0.0199  0.1740 -0.2964
  696MOL0     C93854  -1.202  11.375   5.729  0.4119 -0.3555 -0.8943
  696MOL0     C93855  -1.354  11.386   5.707  0.3142 -0.0341 -0.3832
  696MOL0     O93856  -1.446  11.433   5.808  0.2325  0.6747  0.0536
  696MOL0     C93857  -1.580  11.427   5.801  0.1933 -0.3200  1.8155
  696MOL0     C93858  -1.663  11.374   5.701  0.1459 -0.3270  0.1946
  696MOL0     C93859  -1.806  11.395   5.699  0.1420  0.7088  0.7963
  696MOL0     C93860  -1.875  11.454   5.799 -0.8604 -0.2269 -0.1874
  696MOL0     O93861  -2.008  11.489   5.798  0.4778  0.5699  0.2931
  696MOL0     C93862  -2.089  11.415   5.893  0.4442  0.3255  0.4497
  696MOL0     C93863  -2.219  11.375   5.815 -1.0479 -0.3157  0.1599
  696MOL0     C93864  -2.189  11.283   5.697 -0.3875  0.2822 -0.2332
  696MOL0     C93865  -2.320  11.241   5.615 -0.6486  0.2796 -0.7955
  696MOL0     C93866  -2.365  11.110   5.670  0.6065  0.2783  0.1492
  696MOL0     C93867  -2.489  11.055   5.591  0.4899 -0.0583  0.2568
  696MOL0     C93868  -2.533  10.938   5.671 -1.7163  0.5794  0.7298
  696MOL0     C93869  -2.659  10.884   5.611  0.0592 -0.1112  0.1513
  696MOL0    Cl93870  -2.659  10.843   5.434  0.4080 -0.1878 -0.1981
  696MOL0     C93871  -1.788  11.499   5.902  0.4058  0.0089 -0.1247
  696MOL0     C93872  -1.646  11.494   5.902 -0.2308 -0.6529  0.8615
  696MOL0     O93873  -1.384  11.365   5.595  0.5921 -0.0595  0.2514
  696MOL0     C93874  -1.172  11.379   5.869  0.3331 -0.0998  0.1085
  696MOL0     C93875  -1.040  11.375   5.912  1.4107  0.1269  0.4745
  696MOL0     N93876  -0.321  11.474   5.630  0.0673 -0.3692 -0.2718
  696MOL0     N93877  -0.250  11.386   5.559 -0.5739 -0.1521 -0.9981
  696MOL0     C93878   0.630  10.961   4.974 -1.1571  0.1224  0.7470
  696MOL0     C93879   0.763  10.988   4.924  0.6541  0.0915 -0.2354
  696MOL0     C93880   1.166  10.997   4.799  0.4226 -0.1697 -0.5388
  696MOL0     C93881   1.212  11.125   4.818 -0.3023  0.0291  1.3983
  696MOL0     C93882   1.323  11.177   4.743 -0.1041  0.4376 -1.3611
  696MOL0     C93883   1.407  11.084   4.674 -0.4865 -0.7526  0.3745
  696MOL0     O93884   1.533  11.118   4.623  0.5541  0.7990 -0.5201
  696MOL0     C93885   1.612  11.200   4.705 -0.0959  1.1318  0.2694
  696MOL0     C93886   1.647  11.145   4.844 -1.1808  0.4058  0.6575
  696MOL0     C93887   1.727  11.248   4.922  0.7556 -0.7095  0.3866
  696MOL0     C93888   1.847  11.282   4.841  0.7659  0.0674  0.3799
  696MOL0     C93889   1.950  11.330   4.926  0.0618 -0.4454  0.0495
  696MOL0     C93890   2.047  11.376   4.982  0.1485 -0.6688  1.0510
  696MOL0     C93891   1.358  10.956   4.641  0.2721  0.6504  0.7263
  696MOL0     C93892   1.238  10.919   4.709  0.5827 -0.3641 -0.7872
  696MOL0     H93893   0.931  10.959   5.213 -1.7439 -0.9085  1.3264
  696MOL0     H93894   0.679  10.914   5.305 -1.0115  2.0604 -0.1919
  696MOL0     H93895   0.392  11.065   5.049  2.8695 -0.4876 -0.4057
  696MOL0     H93896   0.351  10.889   5.016 -0.8595 -1.1239  1.3725
  696MOL0     H93897   0.279  11.071   5.256  0.0828  0.2996  0.9963
  696MOL0     H93898   0.163  11.031   5.125 -0.3668 -2.9996 -0.3374
  696MOL0     H93899   0.185  10.787   5.199 -1.4331  0.5529 -0.9104
  696MOL0     H93900   0.264  10.848   5.351  1.5312  0.1298 -1.5816
  696MOL0     H93901  -0.014  10.931   5.246  1.0963  2.0767 -0.1533
  696MOL0     H93902   0.025  10.807   5.373  0.3708  1.1347  1.9841
  696MOL0     H93903   0.123  10.993   5.508 -0.8369  2.9328  1.4851
  696MOL0     H93904   0.062  11.106   5.395  0.9753  0.6546 -0.2039
  696MOL0     H93905  -0.170  11.033   5.425 -0.1859 -2.6607 -1.5555
  696MOL0     H93906  -0.116  10.889   5.509 -1.2834 -0.8033  0.6448
  696MOL0     H93907  -0.220  11.053   5.667 -0.4532  1.2437  0.6307
  696MOL0     H93908  -0.055  11.023   5.716 -1.2642 -0.4437  0.3840
  696MOL0     H93909  -0.065  11.235   5.512 -1.2018  1.6853  0.5654
  696MOL0     H93910   0.006  11.242   5.671 -0.3356 -0.1971 -0.5112
  696MOL0     H93911  -0.196  11.280   5.882  3.1305  2.8475  0.7930
  696MOL0     H93912  -0.309  11.463   5.965  2.4145 -0.2386 -1.0491
  696MOL0     H93913  -0.350  11.606   5.866 -1.7749 -0.0464  1.6821
  696MOL0     H93914  -0.528  11.499   6.021  3.6728  0.2831  1.2862
  696MOL0     H93915  -0.551  11.371   5.899 -1.2715  0.8670 -0.4718
  696MOL0     H93916  -0.616  11.515   5.727  1.0210  1.3979 -1.3627
  696MOL0     H93917  -0.581  11.660   5.832  0.8309 -1.5503  0.2962
  696MOL0     H93918  -0.828  11.593   5.797  0.6075 -0.3982 -0.6262
  696MOL0     H93919  -0.777  11.596   5.969  0.3271 -1.7165  0.6907
  696MOL0     H93920  -0.868  11.388   5.621  2.2722 -0.5207  3.5281
  696MOL0     H93921  -1.180  11.447   5.449  0.3481 -0.3333 -2.4135
  696MOL0     H93922  -1.023  11.379   5.421  0.6105  0.6500  0.6943
  696MOL0     H93923  -1.166  11.276   5.446 -0.7143  0.1140  0.9057
  696MOL0     H93924  -1.625  11.320   5.614  0.9904  0.7997 -0.1637
  696MOL0     H93925  -1.855  11.359   5.609  1.1553 -1.2363  0.9638
  696MOL0     H93926  -2.038  11.321   5.914 -1.3611 -0.8095 -0.0579
  696MOL0     H93927  -2.100  11.459   5.993  0.0159  3.0865 -0.7052
  696MOL0     H93928  -2.284  11.315   5.879 -2.3070  0.1587 -0.6336
  696MOL0     H93929  -2.260  11.471   5.782 -3.1032 -0.5714  1.7730
  696MOL0     H93930  -2.123  11.200   5.725 -0.1541  0.2012 -0.9923
  696MOL0     H93931  -2.123  11.333   5.625 -0.3827 -0.4603 -0.7595
  696MOL0     H93932  -2.400  11.316   5.615 -0.6238  0.3710  1.4521
  696MOL0     H93933  -2.281  11.219   5.515  1.0752  3.2318 -0.8867
  696MOL0     H93934  -2.391  11.138   5.773  1.7522  0.4764  0.4006
  696MOL0     H93935  -2.281  11.043   5.654 -0.0169 -0.4537 -0.1218
  696MOL0     H93936  -2.563  11.134   5.577  2.1110  1.4850  0.0347
  696MOL0     H93937  -2.461  11.031   5.488  1.1520  4.0264 -0.6698
  696MOL0     H93938  -2.544  10.955   5.779 -1.1039 -1.9295  1.2441
  696MOL0     H93939  -2.465  10.857   5.644 -4.7849 -1.3997 -1.7050
  696MOL0     H93940  -2.741  10.954   5.631  1.7365  2.0995 -0.2845
  696MOL0     H93941  -2.669  10.784   5.653  2.4970 -0.6061 -0.2841
  696MOL0     H93942  -1.814  11.567   5.982  0.2162  0.8625 -0.8899
  696MOL0     H93943  -1.596  11.536   5.989  0.6950 -0.2427  0.1457
  696MOL0     H93944  -1.251  11.373   5.943 -0.5908 -0.6844 -0.8818
  696MOL0     H93945  -1.017  11.371   6.018 -0.1433  1.3576  0.8933
  696MOL0     H93946   0.552  10.969   4.899 -1.7647  0.2257  1.3690
  696MOL0     H93947   0.766  10.997   4.816 -0.8037  0.9985 -0.2298
  696MOL0     H93948   1.148  11.194   4.872  1.0548  3.1217 -0.6239
  696MOL0     H93949   1.347  11.281   4.764  0.3031 -0.2844  2.3042
  696MOL0     H93950   1.706  11.203   4.649  0.2325 -1.2043  0.5680
  696MOL0     H93951   1.578  11.303   4.718  2.0796  1.8438  0.8308
  696MOL0     H93952   1.695  11.047   4.849 -3.9285 -1.0499  0.6324
  696MOL0     H93953   1.551  11.143   4.897 -1.7442  2.5245 -0.1443
  696MOL0     H93954   1.763  11.205   5.016 -1.4452 -1.5888  0.8865
  696MOL0     H93955   1.670  11.336   4.952 -0.4865 -1.4055  0.1501
  696MOL0     H93956   1.820  11.355   4.764 -1.2143 -0.7402  0.2675
  696MOL0     H93957   1.888  11.200   4.782 -1.0538  0.1172 -1.0244
  696MOL0     H93958   2.135  11.417   5.029 -1.5172  1.5622  2.4033
  696MOL0     H93959   1.413  10.884   4.582 -0.6426 -1.0024  1.8210
  696MOL0     H93960   1.197  10.824   4.677 -0.9079  0.9901 -3.1625
  697MOL0     O93961   3.177   0.664   8.203  0.4063 -0.0454  0.5130
  697MOL0     C93962   3.180   0.551   8.252  0.0088 -0.5962 -0.3658
  697MOL0     O93963   3.093   0.442   8.228  0.2304  0.1458 -0.5994
  697MOL0     C93964   2.991   0.468   8.136 -0.7373 -0.5441 -0.5239
  697MOL0     C93965   2.858   0.451   8.189 -0.6330 -0.4851  1.3441
  697MOL0     C93966   2.750   0.471   8.101 -0.3557 -0.7347 -0.4518
  697MOL0     C93967   2.772   0.506   7.965 -0.2183  0.5882 -0.0016
  697MOL0     O93968   2.667   0.502   7.874 -0.5248 -0.5047  0.2327
  697MOL0     C93969   2.543   0.427   7.893 -0.6017 -0.7538  0.0758
  697MOL0     C93970   2.437   0.501   7.972  0.2394 -0.0185 -0.1364
  697MOL0     C93971   2.327   0.527   7.875  0.4765  0.3891 -0.2123
  697MOL0     C93972   2.211   0.597   7.954 -0.4274 -0.7762 -1.0320
  697MOL0     C93973   2.074   0.600   7.875 -0.4179 -0.2974  0.1162
  697MOL0     C93974   1.956   0.649   7.956  0.4669 -0.4698 -0.2648
  697MOL0     C93975   1.817   0.627   7.882 -0.1946  0.5708 -0.7977
  697MOL0     C93976   1.815   0.673   7.740  0.7290  1.0407 -0.4346
  697MOL0     N93977   1.674   0.683   7.680 -0.3287  0.2260 -0.4984
  697MOL0     C93978   1.636   0.675   7.549  0.4006  0.2198  0.0539
  697MOL0     C93979   1.503   0.697   7.550 -0.0697  0.0310  1.4015
  697MOL0     C93980   1.418   0.666   7.430  0.6577 -0.8845  0.1997
  697MOL0     C93981   1.343   0.794   7.382 -0.7634  0.3056 -1.0163
  697MOL0     C93982   1.219   0.768   7.288 -0.9963  0.8743  0.5365
  697MOL0     C93983   1.240   0.671   7.171 -0.5099 -0.6069  0.1060
  697MOL0     O93984   1.123   0.663   7.084 -0.2592  0.9138 -0.1353
  697MOL0     C93985   1.003   0.613   7.125 -0.4001  0.7192 -1.4001
  697MOL0     C93986   0.895   0.695   7.093  0.3343  0.5901  0.2266
  697MOL0     C93987   0.772   0.664   7.142 -0.0509 -0.0252 -0.7170
  697MOL0     C93988   0.667   0.762   7.098  0.7518  1.1234  0.3575
  697MOL0     C93989   0.746   0.558   7.233 -1.1963  0.3758  0.6451
  697MOL0     C93990   0.613   0.522   7.283 -0.0035  0.0065 -0.3320
  697MOL0     O93991   0.613   0.447   7.402 -0.4046  0.5187  1.4223
  697MOL0     C93992   0.505   0.398   7.466 -0.3165  0.7573 -0.2315
  697MOL0     C93993   0.525   0.383   7.607  0.8813  0.4006 -0.6560
  697MOL0     C93994   0.419   0.348   7.681 -0.4149  0.1110 -0.5332
  697MOL0     C93995   0.290   0.314   7.621 -0.6381 -0.4754 -1.0840
  697MOL0     O93996   0.171   0.282   7.688 -0.0609 -0.1555 -0.6841
  697MOL0     C93997   0.175   0.147   7.720 -0.2245  0.3957  0.1363
  697MOL0     C93998   0.068   0.121   7.827 -0.2819 -0.4543 -0.1021
  697MOL0     C93999  -0.077   0.122   7.763 -0.2663 -0.3694 -0.4140
  697MOL0     C94000  -0.196   0.133   7.862  0.5428 -0.7371  0.3573
  697MOL0     C94001  -0.328   0.108   7.783  0.3107 -0.1899  0.1015
  697MOL0     C94002  -0.454   0.103   7.876  0.0430  0.3999  0.5292
  697MOL0     C94003  -0.592   0.073   7.815 -0.1271  0.1343  0.3255
  697MOL0     C94004  -0.689   0.083   7.932 -0.2385  0.0431 -0.3500
  697MOL0    Cl94005  -0.850   0.005   7.895 -0.0315 -0.0514 -0.3037
  697MOL0     C94006   0.273   0.337   7.485  0.6756  0.5035  0.8909
  697MOL0     C94007   0.386   0.362   7.410  1.1017  0.6843  0.4384
  697MOL0     O94008   0.517   0.557   7.224 -0.0460  0.0220 -0.8247
  697MOL0     C94009   0.866   0.487   7.275  0.2011 -0.6722  0.6684
  697MOL0     C94010   0.994   0.519   7.229  0.3926  0.9017 -0.2479
  697MOL0     N94011   1.466   0.726   7.681  0.6574  0.6386 -0.2488
  697MOL0     N94012   1.562   0.735   7.747  0.4229 -0.1929 -0.4711
  697MOL0     C94013   2.902   0.525   7.917 -0.7829  0.8055  0.8557
  697MOL0     C94014   3.012   0.518   8.006  0.3331  1.0431  0.8803
  697MOL0     C94015   3.297   0.520   8.331  0.2905  1.1772 -0.3097
  697MOL0     C94016   3.326   0.384   8.374  0.0132  0.3381 -0.0757
  697MOL0     C94017   3.441   0.360   8.450  0.1014  0.6388  0.5835
  697MOL0     C94018   3.525   0.457   8.491  1.1058 -0.2090  0.1653
  697MOL0     O94019   3.640   0.436   8.561  0.1779 -0.5997  0.2276
  697MOL0     C94020   3.626   0.384   8.699 -0.1723 -0.7438 -0.5907
  697MOL0     C94021   3.760   0.366   8.773 -0.4812 -0.1530 -0.9523
  697MOL0     C94022   3.846   0.485   8.773 -0.1811 -0.6117  1.0341
  697MOL0     C94023   3.949   0.480   8.892  0.6046 -0.7659 -0.2664
  697MOL0     C94024   4.056   0.380   8.874 -0.4463 -0.5364 -0.2646
  697MOL0     C94025   4.144   0.292   8.879  1.2909 -1.6621 -0.0354
  697MOL0     C94026   3.494   0.595   8.466  0.0812 -0.1210  0.1924
  697MOL0     C94027   3.379   0.620   8.386  0.7925 -0.6621 -0.8242
  697MOL0     H94028   2.834   0.432   8.293  1.8895 -3.1479  1.5851
  697MOL0     H94029   2.654   0.450   8.148 -0.0617 -1.4202 -0.1482
  697MOL0     H94030   2.507   0.418   7.790 -0.4469 -4.8513  0.1972
  697MOL0     H94031   2.559   0.323   7.923 -1.3667 -0.2885  2.2669
  697MOL0     H94032   2.397   0.436   8.049 -1.1414  1.2054  0.2085
  697MOL0     H94033   2.467   0.595   8.019  1.1081  2.1660 -4.5443
  697MOL0     H94034   2.360   0.590   7.792 -2.4910  2.1000 -0.2436
  697MOL0     H94035   2.300   0.429   7.837  2.4084  0.2153 -1.2586
  697MOL0     H94036   2.196   0.540   8.047  1.6145 -0.5421 -0.5027
  697MOL0     H94037   2.237   0.699   7.985  0.3950 -1.6436  1.3671
  697MOL0     H94038   2.081   0.657   7.782  4.3348  0.3588  0.6714
  697MOL0     H94039   2.052   0.497   7.846  1.3986 -0.9747  1.0288
  697MOL0     H94040   1.951   0.602   8.055 -0.7428 -2.2479 -1.1263
  697MOL0     H94041   1.966   0.755   7.981 -1.5286  0.4981 -3.1456
  697MOL0     H94042   1.804   0.519   7.891 -0.6535  0.6990  0.3226
  697MOL0     H94043   1.735   0.666   7.944 -1.3803 -0.6593 -1.5510
  697MOL0     H94044   1.871   0.596   7.686  0.1287 -1.9418  2.7889
  697MOL0     H94045   1.869   0.767   7.729 -0.3350  1.6803 -0.3180
  697MOL0     H94046   1.688   0.639   7.461 -1.3883 -1.7466 -0.2873
  697MOL0     H94047   1.480   0.627   7.349  0.2978 -0.9909 -0.0272
  697MOL0     H94048   1.352   0.589   7.472 -0.8229 -0.7920 -1.7932
  697MOL0     H94049   1.413   0.867   7.340 -1.5430  2.2676  0.8978
  697MOL0     H94050   1.297   0.848   7.465 -1.0432 -0.7371 -0.4768
  697MOL0     H94051   1.194   0.866   7.248  1.1576  1.3704  0.2680
  697MOL0     H94052   1.135   0.740   7.352  0.3099 -0.0001  1.9453
  697MOL0     H94053   1.265   0.571   7.206 -0.6297  0.2218  2.8292
  697MOL0     H94054   1.323   0.705   7.109  0.0716  1.6220  1.9517
  697MOL0     H94055   0.909   0.786   7.036  1.2295  1.0850  1.2033
  697MOL0     H94056   0.583   0.769   7.168 -0.5434 -0.5069 -0.9532
  697MOL0     H94057   0.709   0.862   7.081  2.2673  0.3703 -0.6269
  697MOL0     H94058   0.629   0.726   7.002 -1.5462  0.1688  1.5386
  697MOL0     H94059   0.620   0.407   7.653  0.6875 -0.0973  0.0132
  697MOL0     H94060   0.437   0.327   7.786  1.1258 -0.3066 -0.8624
  697MOL0     H94061   0.158   0.074   7.640  1.1752 -0.9687  1.0105
  697MOL0     H94062   0.265   0.128   7.780 -0.0012  0.3984 -0.1981
  697MOL0     H94063   0.094   0.037   7.892 -0.9820 -0.1623  0.5690
  697MOL0     H94064   0.066   0.213   7.888 -1.0741  1.4740 -2.8545
  697MOL0     H94065  -0.082   0.022   7.718  2.3874 -1.3012  1.1344
  697MOL0     H94066  -0.086   0.204   7.691  1.8995 -0.5435 -0.9545
  697MOL0     H94067  -0.191   0.054   7.938  0.6712 -0.5947  0.4959
  697MOL0     H94068  -0.191   0.224   7.922 -2.3708  0.3003 -0.7730
  697MOL0     H94069  -0.314   0.018   7.722 -2.4244 -1.0948  0.6659
  697MOL0     H94070  -0.341   0.185   7.707 -1.3740  0.7319  1.2616
  697MOL0     H94071  -0.426   0.023   7.946  2.4930  0.9473  0.2538
  697MOL0     H94072  -0.464   0.196   7.934  2.5088  0.5757  0.7616
  697MOL0     H94073  -0.591  -0.033   7.788 -0.8492  0.4515 -1.0158
  697MOL0     H94074  -0.617   0.145   7.737 -1.6892 -0.2319  0.4522
  697MOL0     H94075  -0.708   0.183   7.973  0.5399 -0.4740  1.3830
  697MOL0     H94076  -0.633   0.037   8.014  0.8270 -1.6834 -1.9627
  697MOL0     H94077   0.184   0.333   7.423  1.2753  0.3980  0.0363
  697MOL0     H94078   0.375   0.346   7.303 -2.0797 -0.2720  0.7875
  697MOL0     H94079   0.865   0.407   7.348  1.8953 -2.4134 -1.0751
  697MOL0     H94080   1.070   0.452   7.267 -1.2984 -1.6138 -1.0404
  697MOL0     H94081   2.904   0.549   7.812 -1.8225  0.0040  0.6416
  697MOL0     H94082   3.116   0.535   7.978  0.4092  0.0983  0.5391
  697MOL0     H94083   3.252   0.312   8.340 -3.3230  2.1504  2.6501
  697MOL0     H94084   3.453   0.255   8.476  0.3548  0.2660 -0.9508
  697MOL0     H94085   3.567   0.449   8.765 -0.3689 -0.2286 -1.2551
  697MOL0     H94086   3.578   0.286   8.694  2.0823 -1.8715 -2.4148
  697MOL0     H94087   3.824   0.288   8.731 -1.5341 -1.5527 -0.0363
  697MOL0     H94088   3.730   0.334   8.873 -2.4369  1.1470 -1.0690
  697MOL0     H94089   3.790   0.576   8.794  2.5753  0.8387  2.7831
  697MOL0     H94090   3.903   0.498   8.681 -1.3786  2.3485  0.6001
  697MOL0     H94091   3.896   0.467   8.986  1.5366  1.4519  0.6163
  697MOL0     H94092   3.995   0.579   8.903 -2.6742  0.7380  0.9901
  697MOL0     H94093   4.224   0.221   8.886  0.6270 -2.6425 -1.9495
  697MOL0     H94094   3.560   0.677   8.496  1.2751 -1.0565  0.2082
  697MOL0     H94095   3.353   0.718   8.346  2.1719 -0.2195 -0.6983
  698MOL0     O94096   4.802   9.562   6.937 -0.4835 -0.5088  0.4370
  698MOL0     C94097   4.814   9.534   7.057  0.0581  0.1047  0.2704
  698MOL0     O94098   4.713   9.501   7.138 -0.5645 -0.1264  1.1805
  698MOL0     C94099   4.592   9.500   7.078 -0.2666 -0.6905  0.8286
  698MOL0     C94100   4.545   9.376   7.031 -0.7495  0.7116 -0.6920
  698MOL0     C94101   4.413   9.373   6.984  0.3057 -0.1322 -0.1154
  698MOL0     C94102   4.324   9.483   7.003 -0.2823 -0.4688  0.1835
  698MOL0     O94103   4.193   9.460   6.964  0.0050  0.0026  0.4777
  698MOL0     C94104   4.114   9.571   6.926  0.3622  0.6115 -0.0647
  698MOL0     C94105   3.992   9.512   6.862  0.7016  1.0924  0.6891
  698MOL0     C94106   4.023   9.430   6.732 -0.1255 -0.4370 -0.4370
  698MOL0     C94107   3.895   9.358   6.682 -0.4373 -0.5432 -1.0549
  698MOL0     C94108   3.910   9.319   6.539 -0.3263  0.2274 -0.2900
  698MOL0     C94109   3.783   9.252   6.480  0.6898  1.0621 -0.1820
  698MOL0     C94110   3.803   9.221   6.333  1.2978  0.9059 -0.2673
  698MOL0     C94111   3.894   9.098   6.307 -0.0410 -0.4118  0.6390
  698MOL0     N94112   3.875   9.062   6.168  0.4880  0.3295  0.5351
  698MOL0     C94113   3.857   9.139   6.057 -1.1201 -0.5366  1.1835
  698MOL0     C94114   3.826   9.061   5.949 -0.4409 -0.3336 -1.2424
  698MOL0     C94115   3.787   9.122   5.818  0.1857  0.1784  0.0061
  698MOL0     C94116   3.708   9.020   5.739  0.0910 -0.4549  1.9132
  698MOL0     C94117   3.702   9.066   5.592  0.7171  0.0763  0.1178
  698MOL0     C94118   3.608   8.990   5.505  0.6052  0.7167  0.2035
  698MOL0     O94119   3.479   9.051   5.516  0.3802  0.3106 -0.3083
  698MOL0     C94120   3.410   9.087   5.396  0.4532  0.8889  0.0473
  698MOL0     C94121   3.463   9.138   5.279  0.1212  0.0157  0.4098
  698MOL0     C94122   3.392   9.193   5.169  0.2319 -0.6121 -0.9108
  698MOL0     C94123   3.460   9.229   5.045  0.5123  0.3646 -0.3626
  698MOL0     C94124   3.250   9.184   5.191 -0.0425  0.1256 -0.2910
  698MOL0     C94125   3.160   9.223   5.084  0.7647  0.8855 -0.4429
  698MOL0     O94126   3.188   9.316   4.999 -0.2609 -0.4542 -0.5198
  698MOL0     C94127   3.116   9.347   4.889  0.5078  0.5222  0.6578
  698MOL0     C94128   3.177   9.335   4.761 -0.2557 -0.1694  0.6937
  698MOL0     C94129   3.108   9.365   4.647  0.0230 -0.0702  1.3592
  698MOL0     C94130   2.974   9.408   4.653  0.0124 -0.4418 -0.8954
  698MOL0     O94131   2.910   9.436   4.531 -0.3931  0.3295 -0.4230
  698MOL0     C94132   2.842   9.561   4.530 -0.0724 -0.2216  0.1390
  698MOL0     C94133   2.739   9.558   4.416 -0.1619 -0.2950 -0.7747
  698MOL0     C94134   2.782   9.609   4.278  0.5351  0.8931 -0.3609
  698MOL0     C94135   2.727   9.751   4.244 -0.1112 -0.7021 -0.2943
  698MOL0     C94136   2.783   9.824   4.126 -0.5022 -1.1130 -0.1149
  698MOL0     C94137   2.686   9.937   4.073  0.2909 -0.0661 -0.9348
  698MOL0     C94138   2.766  10.036   3.989  0.6981 -0.3713  0.3131
  698MOL0     C94139   2.670  10.142   3.926  0.2590  0.5600 -0.0420
  698MOL0    Cl94140   2.621  10.088   3.762  0.3797  0.3653  0.3105
  698MOL0     C94141   2.902   9.397   4.774  0.6235 -0.2007  0.8377
  698MOL0     C94142   2.976   9.368   4.892 -0.2092 -0.2408  0.3516
  698MOL0     O94143   3.052   9.163   5.086  0.1953 -0.5394  0.4815
  698MOL0     C94144   3.200   9.141   5.318  0.0523  0.4119  0.4374
  698MOL0     C94145   3.271   9.089   5.413 -1.2905 -0.9191  0.0985
  698MOL0     N94146   3.808   8.938   5.996  0.1624 -0.3838 -0.7679
  698MOL0     N94147   3.839   8.937   6.123 -0.8219 -0.0233 -0.1427
  698MOL0     C94148   4.375   9.607   7.049 -0.2538 -0.0257  0.3799
  698MOL0     C94149   4.511   9.614   7.100  0.4101 -0.3603 -0.1922
  698MOL0     C94150   4.954   9.523   7.119  0.0150 -0.5461 -0.5683
  698MOL0     C94151   5.063   9.498   7.038  0.7557 -0.5061 -0.2622
  698MOL0     C94152   5.197   9.491   7.088  0.5229  0.3890 -0.6091
  698MOL0     C94153   5.217   9.513   7.224 -0.7559 -0.1406  0.7349
  698MOL0     O94154   5.339   9.518   7.284  0.3014 -0.2857 -0.5088
  698MOL0     C94155   5.407   9.392   7.267  0.0926 -0.0295 -0.1767
  698MOL0     C94156   5.362   9.283   7.368 -0.3920  0.0240 -0.2734
  698MOL0     C94157   5.395   9.317   7.511 -0.1400 -0.8918 -0.4736
  698MOL0     C94158   5.426   9.205   7.600 -0.7019 -0.1107 -0.4180
  698MOL0     C94159   5.324   9.104   7.606  0.6156 -0.1322 -0.4651
  698MOL0     C94160   5.227   9.024   7.602 -1.0678  0.3824 -0.1117
  698MOL0     C94161   5.104   9.524   7.310 -0.7389 -0.3274 -0.0641
  698MOL0     C94162   4.972   9.536   7.262 -0.1059  0.4632  0.7598
  698MOL0     H94163   4.607   9.287   7.033 -1.5643  0.1374  1.5497
  698MOL0     H94164   4.385   9.277   6.941  0.1333 -0.4637  0.7188
  698MOL0     H94165   4.077   9.619   7.017 -1.2545 -0.9543  0.1823
  698MOL0     H94166   4.162   9.644   6.861  2.2756  1.8175  2.5384
  698MOL0     H94167   3.939   9.443   6.928 -2.1075  2.6913  0.2366
  698MOL0     H94168   3.924   9.595   6.842 -1.1995 -0.5065  0.2687
  698MOL0     H94169   4.074   9.484   6.652  0.2897  1.2995  0.9447
  698MOL0     H94170   4.092   9.348   6.754  4.1599  3.5486  3.0791
  698MOL0     H94171   3.861   9.274   6.744  0.9065 -1.6107 -1.7179
  698MOL0     H94172   3.814   9.432   6.685  0.9330  0.9706  0.8130
  698MOL0     H94173   3.919   9.412   6.483 -2.1681  1.0989  0.7616
  698MOL0     H94174   4.000   9.257   6.531  1.3334  1.6635  4.0407
  698MOL0     H94175   3.765   9.160   6.536  4.2981 -1.6832 -3.0450
  698MOL0     H94176   3.699   9.321   6.495 -0.5949 -0.5222  0.1532
  698MOL0     H94177   3.707   9.197   6.288 -0.2567  1.3331  2.5959
  698MOL0     H94178   3.839   9.308   6.277 -3.1454  1.3882 -2.8660
  698MOL0     H94179   3.876   9.004   6.358  0.1064 -2.4675 -2.8032
  698MOL0     H94180   3.999   9.117   6.332  0.1867  0.3385 -0.7787
  698MOL0     H94181   3.861   9.247   6.050  0.1946 -0.6581 -0.5342
  698MOL0     H94182   3.740   9.220   5.831  1.4403  0.8118 -0.0692
  698MOL0     H94183   3.878   9.147   5.764 -0.0016  2.6840  0.7340
  698MOL0     H94184   3.609   9.004   5.782 -0.1376 -1.5790  1.0170
  698MOL0     H94185   3.762   8.925   5.742 -1.0404 -1.3318 -1.4973
  698MOL0     H94186   3.800   9.049   5.545 -0.0428 -1.2467 -1.0950
  698MOL0     H94187   3.684   9.173   5.579 -2.1681 -0.4808 -1.2830
  698MOL0     H94188   3.604   8.881   5.512  1.1486  0.7306  0.8495
  698MOL0     H94189   3.654   9.004   5.407  2.8392 -0.3716  1.0152
  698MOL0     H94190   3.571   9.151   5.273  0.2804 -0.9980  0.8599
  698MOL0     H94191   3.436   9.330   5.009 -1.9032 -0.1840 -0.4225
  698MOL0     H94192   3.568   9.231   5.066  1.1176  1.5272 -3.1162
  698MOL0     H94193   3.445   9.164   4.958  4.2212  0.8883 -1.6086
  698MOL0     H94194   3.281   9.302   4.758 -0.7903 -2.0308  1.0827
  698MOL0     H94195   3.145   9.358   4.546 -0.1460 -0.9064  1.3445
  698MOL0     H94196   2.786   9.590   4.620 -0.9327  3.3080 -1.3842
  698MOL0     H94197   2.909   9.646   4.516 -1.1580  0.6222 -0.0322
  698MOL0     H94198   2.707   9.454   4.407  0.6818 -0.5550 -0.9033
  698MOL0     H94199   2.655   9.620   4.449  1.2958  0.6135  1.4505
  698MOL0     H94200   2.747   9.537   4.204 -1.0578  2.4513 -1.2098
  698MOL0     H94201   2.890   9.619   4.269  0.4349 -0.2052 -5.6160
  698MOL0     H94202   2.619   9.745   4.225 -0.4523  4.0986 -1.0781
  698MOL0     H94203   2.743   9.817   4.329 -0.0758  0.9952 -1.5564
  698MOL0     H94204   2.805   9.744   4.054 -1.5823  0.9971 -3.0017
  698MOL0     H94205   2.881   9.867   4.148 -1.9631  2.1610  0.6305
  698MOL0     H94206   2.610   9.891   4.009  0.9168 -2.1929 -0.2106
  698MOL0     H94207   2.634   9.991   4.153  1.1909  1.5146 -1.3613
  698MOL0     H94208   2.811   9.977   3.909 -1.7124 -2.4249  0.3321
  698MOL0     H94209   2.840  10.083   4.055  0.1649  1.1921 -0.1636
  698MOL0     H94210   2.727  10.235   3.917  2.4149 -0.4610  1.9366
  698MOL0     H94211   2.585  10.155   3.993  0.4878 -2.0090  0.8430
  698MOL0     H94212   2.794   9.400   4.766  0.7818  0.0262 -1.9755
  698MOL0     H94213   2.930   9.339   4.985  2.9933  0.2185  2.2233
  698MOL0     H94214   3.092   9.150   5.323  0.1257  1.4286  0.3944
  698MOL0     H94215   3.230   9.042   5.502 -1.5473 -0.1646  0.3898
  698MOL0     H94216   4.320   9.700   7.047 -1.2869 -0.5567 -3.6699
  698MOL0     H94217   4.533   9.701   7.161  0.3398 -1.1145  0.9204
  698MOL0     H94218   5.035   9.475   6.935 -3.1506 -0.4026  0.6239
  698MOL0     H94219   5.283   9.476   7.022  0.1663  1.9223 -1.4864
  698MOL0     H94220   5.385   9.355   7.167 -3.2582  0.2498  0.3503
  698MOL0     H94221   5.512   9.425   7.267  1.2195 -3.3097 -0.6211
  698MOL0     H94222   5.407   9.184   7.353  0.7025  0.4053  0.3979
  698MOL0     H94223   5.254   9.269   7.357 -0.1867  0.3427 -3.3487
  698MOL0     H94224   5.317   9.382   7.552  1.9546  1.9055 -0.6263
  698MOL0     H94225   5.478   9.387   7.504 -1.1935  0.2322 -2.9880
  698MOL0     H94226   5.431   9.250   7.700 -2.6104 -1.3163  0.2615
  698MOL0     H94227   5.523   9.159   7.578 -0.8504  0.3485 -2.1807
  698MOL0     H94228   5.147   8.953   7.605  1.2068 -2.3921  1.5061
  698MOL0     H94229   5.119   9.540   7.417 -3.0360 -1.9460  0.5787
  698MOL0     H94230   4.899   9.551   7.341 -1.0677  2.0083 -0.3598
  699MOL0     O94231   1.041   5.926   9.060 -0.8914 -0.3782  0.2016
  699MOL0     C94232   1.082   5.995   9.153 -0.0405 -0.0689  0.2328
  699MOL0     O94233   0.995   6.074   9.224  0.2023 -0.2472  0.1186
  699MOL0     C94234   0.863   6.068   9.221  0.1174  0.3328 -0.1080
  699MOL0     C94235   0.799   6.041   9.335 -0.3478  0.7218 -1.1656
  699MOL0     C94236   0.655   6.022   9.345 -0.5808 -0.6215  0.2001
  699MOL0     C94237   0.575   6.049   9.232 -0.0841  1.1391  0.3456
  699MOL0     O94238   0.440   6.048   9.224  0.4064 -0.0545 -0.3530
  699MOL0     C94239   0.366   6.023   9.347 -0.4729 -0.1923  0.0273
  699MOL0     C94240   0.219   6.082   9.345 -0.2715 -0.3016 -0.2441
  699MOL0     C94241   0.132   6.005   9.240 -0.6454  0.1071  0.1409
  699MOL0     C94242  -0.008   6.071   9.253  0.3549  0.5139 -0.0732
  699MOL0     C94243  -0.104   6.025   9.134  0.3172  0.8445 -0.1903
  699MOL0     C94244  -0.134   5.878   9.139  0.4147 -0.9873 -0.3304
  699MOL0     C94245  -0.236   5.834   9.035 -0.4061  0.2882  0.1570
  699MOL0     C94246  -0.203   5.871   8.893 -0.5846 -0.4373 -0.4966
  699MOL0     N94247  -0.299   5.824   8.800 -0.2654 -0.6279 -0.0369
  699MOL0     C94248  -0.294   5.734   8.701 -0.1058  0.5453  0.3066
  699MOL0     C94249  -0.416   5.743   8.628  0.0914  0.3695 -0.1154
  699MOL0     C94250  -0.475   5.659   8.523  1.2122  0.3568  0.2928
  699MOL0     C94251  -0.623   5.639   8.514 -0.0450 -0.4448  0.6792
  699MOL0     C94252  -0.673   5.561   8.390  0.4545 -0.7641 -0.4139
  699MOL0     C94253  -0.832   5.571   8.388 -0.9448  0.2004  0.3386
  699MOL0     O94254  -0.870   5.589   8.241  0.2889  0.3958  0.2132
  699MOL0     C94255  -0.978   5.514   8.208 -0.1514  0.2114  0.5402
  699MOL0     C94256  -0.983   5.480   8.078  0.0604 -0.1700 -0.7590
  699MOL0     C94257  -1.089   5.398   8.024 -0.1894  0.2875 -0.3629
  699MOL0     C94258  -1.076   5.360   7.872  0.7069  0.4089 -0.3626
  699MOL0     C94259  -1.194   5.355   8.113 -0.1909  0.8043  0.1551
  699MOL0     C94260  -1.303   5.267   8.076  0.8838  0.0405 -0.7222
  699MOL0     O94261  -1.278   5.176   7.984 -0.0468 -0.6760 -0.0146
  699MOL0     C94262  -1.385   5.102   7.945 -0.4827  0.9817  0.0260
  699MOL0     C94263  -1.455   5.148   7.833  0.8930  0.3776 -0.1658
  699MOL0     C94264  -1.549   5.063   7.779 -0.0064 -0.1115  0.0928
  699MOL0     C94265  -1.564   4.926   7.837  0.0104 -0.2301 -0.8267
  699MOL0     O94266  -1.670   4.856   7.793 -0.0325  0.1215  0.3818
  699MOL0     C94267  -1.677   4.713   7.815  0.2909 -1.6133  0.8909
  699MOL0     C94268  -1.558   4.637   7.746 -0.0592 -0.0012  0.0818
  699MOL0     C94269  -1.604   4.489   7.704 -0.5465 -0.1376 -0.4378
  699MOL0     C94270  -1.478   4.428   7.655 -0.0697 -0.2098  0.5745
  699MOL0     C94271  -1.471   4.283   7.697  0.6028 -0.6110  1.1502
  699MOL0     C94272  -1.324   4.221   7.672  0.1560 -0.7852  0.9985
  699MOL0     C94273  -1.245   4.187   7.800  0.3712  0.4590  0.9713
  699MOL0     C94274  -1.315   4.080   7.889 -0.6266  0.1622 -0.5123
  699MOL0    Cl94275  -1.247   4.067   8.049 -0.0765 -0.0404 -0.3051
  699MOL0     C94276  -1.490   4.887   7.954  0.2551 -0.3866  0.0911
  699MOL0     C94277  -1.392   4.966   7.999  0.0121 -1.4605 -0.9903
  699MOL0     O94278  -1.413   5.294   8.133  0.7814 -0.1021  0.0124
  699MOL0     C94279  -1.184   5.396   8.248  0.0224  0.7559 -0.2586
  699MOL0     C94280  -1.083   5.482   8.290  1.7548  0.2986  0.6765
  699MOL0     N94281  -0.481   5.853   8.691  0.4306 -0.4206  0.1137
  699MOL0     N94282  -0.416   5.897   8.794  0.2399  0.1422 -0.3670
  699MOL0     C94283   0.642   6.081   9.118  0.1840  0.3492  0.5091
  699MOL0     C94284   0.784   6.085   9.110 -0.4811 -0.5214  0.5989
  699MOL0     C94285   1.232   5.994   9.184  0.3614 -0.4062  0.5637
  699MOL0     C94286   1.308   5.902   9.111  0.1741  0.3351 -0.3181
  699MOL0     C94287   1.452   5.891   9.119 -0.5390 -0.0072 -0.4170
  699MOL0     C94288   1.520   5.968   9.211  0.0923  0.0182 -0.3418
  699MOL0     O94289   1.659   5.963   9.227  0.2870 -0.6471  0.0643
  699MOL0     C94290   1.721   5.836   9.203  0.7955 -0.4593  0.1034
  699MOL0     C94291   1.841   5.830   9.297  0.6637  0.1742 -0.2483
  699MOL0     C94292   1.892   5.681   9.301  0.2829 -0.7409 -0.0447
  699MOL0     C94293   2.003   5.677   9.397 -0.1896  1.0015 -0.3926
  699MOL0     C94294   2.073   5.546   9.410  1.3074  0.2494  0.3261
  699MOL0     C94295   2.144   5.442   9.411 -0.3047 -0.8203 -0.9726
  699MOL0     C94296   1.444   6.042   9.296  0.3964 -0.0122  0.3412
  699MOL0     C94297   1.301   6.068   9.288  0.2806 -0.3119  0.7005
  699MOL0     H94298   0.850   6.028   9.430  0.0488 -1.4627 -1.6342
  699MOL0     H94299   0.608   5.995   9.439  1.9772  0.1160  1.7864
  699MOL0     H94300   0.358   5.914   9.361  0.8932 -0.6044 -1.9711
  699MOL0     H94301   0.416   6.077   9.428 -0.1958 -0.5256  0.0804
  699MOL0     H94302   0.178   6.061   9.444 -1.0538  0.6474 -0.3585
  699MOL0     H94303   0.215   6.188   9.317  1.9222 -0.9586 -3.6914
  699MOL0     H94304   0.163   6.023   9.137 -1.3052 -0.8629 -0.2399
  699MOL0     H94305   0.133   5.898   9.264  1.1230  0.1866  0.5718
  699MOL0     H94306  -0.057   6.035   9.344 -2.6093  0.3605 -1.6069
  699MOL0     H94307   0.004   6.179   9.253  0.3357  0.5168  0.3348
  699MOL0     H94308  -0.199   6.080   9.138 -1.0581 -1.1773 -2.4935
  699MOL0     H94309  -0.059   6.040   9.035 -0.1407  0.7986 -0.4070
  699MOL0     H94310  -0.043   5.817   9.148  0.4902 -0.8329 -0.0271
  699MOL0     H94311  -0.177   5.854   9.237  2.0892 -1.2014  0.3901
  699MOL0     H94312  -0.244   5.725   9.034  2.6701 -0.0427 -0.2984
  699MOL0     H94313  -0.323   5.898   9.053  0.3656  1.1299  1.0158
  699MOL0     H94314  -0.105   5.833   8.864 -0.3616  1.0981 -1.9302
  699MOL0     H94315  -0.197   5.979   8.877 -1.3796 -0.2516  0.3951
  699MOL0     H94316  -0.220   5.658   8.679  0.1236  1.2338 -1.4555
  699MOL0     H94317  -0.435   5.706   8.433  2.0087  1.3053  1.1233
  699MOL0     H94318  -0.427   5.561   8.526 -0.0841 -0.3453 -0.8124
  699MOL0     H94319  -0.662   5.741   8.512 -1.2746 -0.8829  1.3361
  699MOL0     H94320  -0.652   5.588   8.606  0.0479 -0.1539  0.8689
  699MOL0     H94321  -0.636   5.458   8.389 -1.7040 -1.5941 -2.0603
  699MOL0     H94322  -0.635   5.616   8.303 -0.7470  3.3169  1.3833
  699MOL0     H94323  -0.880   5.642   8.457 -3.7723 -2.8258  1.7792
  699MOL0     H94324  -0.872   5.474   8.419 -2.3155  0.0920 -1.6149
  699MOL0     H94325  -0.902   5.516   8.016 -0.0224 -1.3470 -1.5640
  699MOL0     H94326  -1.084   5.251   7.875 -3.2315  0.5586  2.3517
  699MOL0     H94327  -1.170   5.389   7.824  0.2228 -2.8095 -1.5951
  699MOL0     H94328  -0.998   5.418   7.823 -2.1771  1.4668 -4.1106
  699MOL0     H94329  -1.431   5.241   7.783  1.3094 -0.0695 -0.8124
  699MOL0     H94330  -1.618   5.103   7.706  1.5629  1.5913 -0.5506
  699MOL0     H94331  -1.685   4.687   7.921  0.9904  3.3630  2.4084
  699MOL0     H94332  -1.767   4.683   7.760  2.1844 -2.6401 -1.8932
  699MOL0     H94333  -1.520   4.681   7.654 -2.6921 -1.7579 -1.9980
  699MOL0     H94334  -1.477   4.634   7.819 -0.6803  0.1913  0.7994
  699MOL0     H94335  -1.684   4.484   7.629 -1.3528  2.8723  0.0689
  699MOL0     H94336  -1.642   4.430   7.788 -1.2895  0.2897 -0.4606
  699MOL0     H94337  -1.475   4.431   7.545  2.7101 -0.7621  0.5501
  699MOL0     H94338  -1.386   4.481   7.679  2.3547 -4.0469  0.6145
  699MOL0     H94339  -1.546   4.224   7.644 -0.4038  1.9700 -0.4608
  699MOL0     H94340  -1.506   4.272   7.800  1.8756  2.0519  1.9364
  699MOL0     H94341  -1.339   4.124   7.625 -0.1773 -2.0695  3.5579
  699MOL0     H94342  -1.264   4.297   7.622 -2.9456  1.4296  0.3120
  699MOL0     H94343  -1.250   4.283   7.853  1.5079  1.5553 -0.8029
  699MOL0     H94344  -1.139   4.158   7.795 -0.1581 -1.8062  1.6452
  699MOL0     H94345  -1.306   3.981   7.844 -0.0604  0.4826 -1.1218
  699MOL0     H94346  -1.422   4.100   7.900 -1.3541 -3.7591  0.9284
  699MOL0     H94347  -1.517   4.791   7.997 -0.9535  0.3065  0.9521
  699MOL0     H94348  -1.327   4.934   8.079 -1.8372 -0.4960  1.0063
  699MOL0     H94349  -1.257   5.376   8.325 -1.4956  0.1692 -1.8045
  699MOL0     H94350  -1.075   5.515   8.393  1.0693  1.9104  0.2457
  699MOL0     H94351   0.583   6.109   9.032  1.0348 -0.2320 -0.2927
  699MOL0     H94352   0.816   6.121   9.013 -0.2449 -2.1865  0.0212
  699MOL0     H94353   1.252   5.864   9.026 -0.0809  0.0872 -0.0416
  699MOL0     H94354   1.502   5.829   9.045 -0.9279 -2.5898  1.3446
  699MOL0     H94355   1.663   5.745   9.218  0.5744 -0.2916  0.2554
  699MOL0     H94356   1.744   5.833   9.096 -2.2224 -0.7161 -0.6278
  699MOL0     H94357   1.820   5.846   9.403 -3.2241 -4.3380  0.0039
  699MOL0     H94358   1.917   5.898   9.259 -0.0408  0.9295 -0.3252
  699MOL0     H94359   1.923   5.640   9.204  1.7035 -1.7375  0.7924
  699MOL0     H94360   1.812   5.611   9.325 -0.6230  0.3434  0.1438
  699MOL0     H94361   1.968   5.715   9.493  3.0752 -1.6057  2.0542
  699MOL0     H94362   2.073   5.755   9.365 -1.8439  1.9892 -1.8760
  699MOL0     H94363   2.188   5.345   9.416 -1.1837 -1.1974 -0.3240
  699MOL0     H94364   1.507   6.092   9.368  1.7295 -1.1461  0.0077
  699MOL0     H94365   1.240   6.132   9.352 -0.8224 -1.3615  0.7278
  700MOL0     O94366   2.925   6.690   0.470  0.3270 -0.0492  0.1868
  700MOL0     C94367   2.966   6.771   0.385 -0.9184 -0.5058  1.0614
  700MOL0     O94368   2.888   6.870   0.329  0.5770 -0.9082 -0.0539
  700MOL0     C94369   2.761   6.888   0.386 -0.2247  0.4075 -0.1329
  700MOL0     C94370   2.670   6.937   0.297 -0.1428 -1.1342 -0.4574
  700MOL0     C94371   2.536   6.957   0.344 -0.6623 -0.5608  0.2800
  700MOL0     C94372   2.492   6.910   0.472  0.9588  0.0902 -0.3191
  700MOL0     O94373   2.365   6.925   0.516 -0.6531 -0.5660 -0.1584
  700MOL0     C94374   2.260   6.854   0.452 -0.4740  0.7749 -0.5134
  700MOL0     C94375   2.160   6.950   0.396  0.2661  0.0253 -0.0329
  700MOL0     C94376   2.034   6.890   0.344  1.0627 -0.4233  0.4971
  700MOL0     C94377   1.951   6.811   0.440 -0.5951  0.3126 -0.2906
  700MOL0     C94378   1.808   6.814   0.403  0.0361 -0.7160 -0.3740
  700MOL0     C94379   1.751   6.950   0.466 -0.2055 -0.2813 -0.2701
  700MOL0     C94380   1.601   6.948   0.449 -0.6616 -0.7555  0.9039
  700MOL0     C94381   1.545   6.871   0.571  0.0793  0.7500 -0.2531
  700MOL0     N94382   1.398   6.866   0.561 -0.2091 -0.5164 -0.2047
  700MOL0     C94383   1.338   6.805   0.451 -0.4868  0.3457 -0.6768
  700MOL0     C94384   1.208   6.815   0.488  0.5742  1.0225 -0.5581
  700MOL0     C94385   1.102   6.755   0.400 -0.0374 -0.0494  0.4944
  700MOL0     C94386   1.023   6.656   0.481 -0.5959 -0.2210  0.5992
  700MOL0     C94387   0.973   6.538   0.392  0.2412 -0.3058  0.1651
  700MOL0     C94388   0.875   6.458   0.467 -0.2106  0.0995  0.5155
  700MOL0     O94389   0.763   6.542   0.498  0.2067 -0.8127  0.5821
  700MOL0     C94390   0.656   6.475   0.545 -0.4260  0.0594 -0.3144
  700MOL0     C94391   0.608   6.508   0.667 -0.0296 -0.7330  0.1021
  700MOL0     C94392   0.489   6.451   0.721 -0.1619  0.0844 -0.0906
  700MOL0     C94393   0.440   6.488   0.859  0.0972  0.0908 -0.4891
  700MOL0     C94394   0.413   6.354   0.644 -0.0368  0.7020  0.2515
  700MOL0     C94395   0.289   6.284   0.686  0.6032  0.5917 -0.0144
  700MOL0     O94396   0.264   6.161   0.626 -0.9770  1.0831 -0.6487
  700MOL0     C94397   0.132   6.116   0.647 -0.0256  0.3875  0.1903
  700MOL0     C94398   0.086   6.061   0.770 -0.2465  0.3172  0.5240
  700MOL0     C94399  -0.034   5.993   0.781  0.1468  0.0372 -0.7733
  700MOL0     C94400  -0.120   5.992   0.671  0.0978  0.2473  0.3574
  700MOL0     O94401  -0.240   5.934   0.672  0.3269 -0.0561  0.2046
  700MOL0     C94402  -0.312   5.934   0.797 -1.0328  0.1753  0.0516
  700MOL0     C94403  -0.459   5.927   0.762 -0.6616  0.2603 -0.1479
  700MOL0     C94404  -0.538   5.943   0.899  0.3422  0.1199 -0.0947
  700MOL0     C94405  -0.689   5.924   0.868 -0.0993 -0.1773  1.0724
  700MOL0     C94406  -0.765   5.940   1.000  0.9336 -0.1236  0.3918
  700MOL0     C94407  -0.911   5.868   1.003 -0.4170 -0.3645  1.0222
  700MOL0     C94408  -1.007   5.938   0.904  1.0529  0.8211  0.0779
  700MOL0     C94409  -1.153   5.901   0.926  1.1475  0.7563  0.7580
  700MOL0    Cl94410  -1.224   5.945   1.074 -0.2312  0.1359 -0.2822
  700MOL0     C94411  -0.072   6.039   0.550  0.5564 -0.4932 -0.0299
  700MOL0     C94412   0.053   6.102   0.530 -0.6326  0.2866 -0.1506
  700MOL0     O94413   0.216   6.334   0.770 -0.1346  0.1819 -0.6481
  700MOL0     C94414   0.470   6.311   0.518 -0.5568  0.1656  0.1273
  700MOL0     C94415   0.591   6.372   0.472  0.5809  0.2715  0.6552
  700MOL0     N94416   1.190   6.882   0.604 -0.5086 -0.7042  0.2779
  700MOL0     N94417   1.309   6.901   0.656  0.2721 -0.4061 -0.1145
  700MOL0     C94418   2.584   6.871   0.562 -0.4991 -0.1484  0.0638
  700MOL0     C94419   2.714   6.860   0.523  0.6468 -0.9875  0.8723
  700MOL0     C94420   3.113   6.764   0.367 -0.1917  0.3593  0.3645
  700MOL0     C94421   3.167   6.840   0.261 -1.1468 -0.4133  0.0390
  700MOL0     C94422   3.309   6.834   0.241 -1.9035 -0.8161 -0.2150
  700MOL0     C94423   3.394   6.749   0.314  0.7576 -0.0641 -0.2698
  700MOL0     O94424   3.524   6.770   0.291  0.2890 -0.2317  0.0982
  700MOL0     C94425   3.628   6.673   0.326  0.3482  0.1921 -0.4000
  700MOL0     C94426   3.764   6.737   0.330  0.0675  0.0633 -0.8705
  700MOL0     C94427   3.806   6.816   0.204 -0.7066  0.5868  0.0027
  700MOL0     C94428   3.803   6.735   0.072  0.4241 -0.3967 -0.4567
  700MOL0     C94429   3.886   6.617   0.066  0.1933 -0.1491 -0.7339
  700MOL0     C94430   3.956   6.519   0.079 -0.3401  0.4675 -0.8349
  700MOL0     C94431   3.333   6.663   0.410  0.8746 -0.4278  0.2150
  700MOL0     C94432   3.190   6.660   0.436 -0.6727  0.0232 -0.2143
  700MOL0     H94433   2.707   6.954   0.196  0.5592  2.8700  0.3030
  700MOL0     H94434   2.453   7.008   0.296  1.3060  1.2340 -1.4495
  700MOL0     H94435   2.304   6.797   0.370 -0.1206 -0.7973  0.7190
  700MOL0     H94436   2.222   6.777   0.519 -0.5478  2.5759  1.6534
  700MOL0     H94437   2.128   7.019   0.475 -1.2349 -1.7313  0.9672
  700MOL0     H94438   2.214   7.007   0.321  2.7397 -1.1192  0.7786
  700MOL0     H94439   1.978   6.973   0.300  0.5802 -1.1573 -0.3066
  700MOL0     H94440   2.061   6.831   0.256  0.8224  0.9061 -0.4862
  700MOL0     H94441   1.987   6.707   0.444  0.2363  0.6302  0.6510
  700MOL0     H94442   1.969   6.860   0.536  0.5825  0.9303 -0.8043
  700MOL0     H94443   1.786   6.814   0.296  1.8974  0.6216 -0.8185
  700MOL0     H94444   1.780   6.719   0.450 -3.1499  0.2278 -0.1309
  700MOL0     H94445   1.777   6.966   0.571 -0.9907 -2.0981  0.2594
  700MOL0     H94446   1.780   7.036   0.405 -0.6693 -1.3263 -2.0229
  700MOL0     H94447   1.576   7.054   0.458  0.9831 -0.3151  0.5938
  700MOL0     H94448   1.576   6.905   0.352 -1.4033  0.8857  0.3204
  700MOL0     H94449   1.577   6.916   0.666  0.5371  2.7248 -1.2829
  700MOL0     H94450   1.571   6.765   0.569 -3.1784 -0.1523 -0.1521
  700MOL0     H94451   1.397   6.759   0.373  2.7674  1.1106  1.1423
  700MOL0     H94452   1.026   6.831   0.380 -2.0571 -1.4116  2.5453
  700MOL0     H94453   1.143   6.711   0.308  0.0791 -1.0663  1.0142
  700MOL0     H94454   0.935   6.702   0.525 -1.5340 -0.4453 -0.9661
  700MOL0     H94455   1.081   6.609   0.561 -0.5844  0.3099  0.9045
  700MOL0     H94456   1.055   6.473   0.361  0.4124 -0.8107  1.6069
  700MOL0     H94457   0.915   6.563   0.303  2.2680 -0.7151 -1.3183
  700MOL0     H94458   0.934   6.418   0.550  0.7133  1.2822  0.4471
  700MOL0     H94459   0.845   6.374   0.403  3.3266  0.0837 -1.3427
  700MOL0     H94460   0.669   6.574   0.728 -2.7193 -0.6749  3.0058
  700MOL0     H94461   0.428   6.416   0.940 -3.3568  0.0709 -0.8734
  700MOL0     H94462   0.508   6.564   0.898 -2.8659  1.0854  3.4095
  700MOL0     H94463   0.346   6.543   0.847  0.1094  0.9518  2.5320
  700MOL0     H94464   0.158   6.083   0.848  0.5432  0.3403 -0.1997
  700MOL0     H94465  -0.070   5.947   0.873 -2.4528 -0.6329 -2.0515
  700MOL0     H94466  -0.288   5.843   0.853 -0.7781  0.8728  1.0875
  700MOL0     H94467  -0.292   6.021   0.861 -0.1898 -0.6073  0.8796
  700MOL0     H94468  -0.484   6.000   0.684 -3.4000 -1.5290 -1.1123
  700MOL0     H94469  -0.480   5.837   0.703 -0.0411 -1.7055  2.4441
  700MOL0     H94470  -0.520   6.040   0.946 -0.0171  0.9357 -1.5596
  700MOL0     H94471  -0.507   5.860   0.963 -0.4129 -2.1044 -2.4224
  700MOL0     H94472  -0.716   6.000   0.794 -0.5859 -1.0806  0.2825
  700MOL0     H94473  -0.718   5.826   0.828 -2.1172  0.2557  1.3562
  700MOL0     H94474  -0.766   6.048   1.022 -0.5575  0.1783 -0.9655
  700MOL0     H94475  -0.702   5.893   1.076  2.5121  3.1155  1.2952
  700MOL0     H94476  -0.898   5.761   0.982 -2.8751 -0.9661  2.1560
  700MOL0     H94477  -0.947   5.851   1.105 -1.1901 -0.5724  0.7235
  700MOL0     H94478  -0.988   5.919   0.798 -0.8264  4.1808 -1.0267
  700MOL0     H94479  -0.996   6.046   0.915 -1.3567  1.1746 -0.3363
  700MOL0     H94480  -1.165   5.792   0.917  4.9922  0.0196  2.5208
  700MOL0     H94481  -1.211   5.938   0.841 -0.3909  1.9223  2.2623
  700MOL0     H94482  -0.139   6.023   0.466 -2.4397 -0.3032  2.1406
  700MOL0     H94483   0.094   6.142   0.438  1.3438  0.6220  0.8094
  700MOL0     H94484   0.433   6.235   0.450  1.1546 -1.2416  0.7008
  700MOL0     H94485   0.626   6.356   0.371 -0.4458  0.1861  0.2950
  700MOL0     H94486   2.567   6.854   0.667 -3.5803  0.2685 -0.2776
  700MOL0     H94487   2.779   6.822   0.601  0.1811 -2.4858  0.5655
  700MOL0     H94488   3.114   6.913   0.201  1.4239  1.8698  0.3510
  700MOL0     H94489   3.357   6.908   0.177 -0.3402  0.3125  2.1340
  700MOL0     H94490   3.608   6.629   0.425 -1.1336  0.5616 -0.5181
  700MOL0     H94491   3.633   6.588   0.257  2.8633 -1.7376  1.8759
  700MOL0     H94492   3.842   6.664   0.351  0.4562  0.5717 -0.5150
  700MOL0     H94493   3.762   6.811   0.411  0.0590 -1.2349  0.3497
  700MOL0     H94494   3.909   6.850   0.222 -0.7944 -0.1363  2.2043
  700MOL0     H94495   3.738   6.899   0.182 -1.8567 -0.4286 -0.4071
  700MOL0     H94496   3.834   6.808  -0.003 -1.2357  0.8489  0.0106
  700MOL0     H94497   3.697   6.711   0.057  1.0257 -3.1630 -0.8465
  700MOL0     H94498   4.018   6.432   0.074 -2.2847 -0.9667 -1.4777
  700MOL0     H94499   3.400   6.590   0.455 -1.3298 -2.3731  0.5569
  700MOL0     H94500   3.147   6.588   0.505 -1.6118  1.3680  0.6543
  701MOL0     O94501   2.842   5.975   8.607  0.5839 -0.9470  0.2522
  701MOL0     C94502   2.782   6.053   8.532 -0.6203  0.7632  0.3606
  701MOL0     O94503   2.671   6.129   8.563  0.3333  0.2005 -0.0980
  701MOL0     C94504   2.622   6.110   8.688  0.2028 -0.0592  0.4289
  701MOL0     C94505   2.654   6.202   8.779 -0.2361  0.2015  0.0841
  701MOL0     C94506   2.621   6.191   8.916 -0.0101  0.1835  0.4484
  701MOL0     C94507   2.541   6.080   8.955  0.5976 -0.3366  0.7753
  701MOL0     O94508   2.503   6.048   9.085  0.5860  0.1393 -0.1288
  701MOL0     C94509   2.486   6.159   9.170  0.8072 -0.6316  0.4323
  701MOL0     C94510   2.438   6.116   9.311 -0.2526 -0.5552  0.2937
  701MOL0     C94511   2.285   6.084   9.313 -0.4047 -0.2710 -0.1757
  701MOL0     C94512   2.211   6.217   9.329  0.0293 -1.1117  0.3134
  701MOL0     C94513   2.056   6.193   9.345 -0.1999  0.0185  0.5922
  701MOL0     C94514   2.023   6.143   9.484 -0.6001  0.0959 -0.8023
  701MOL0     C94515   1.866   6.169   9.501 -0.2949  0.4624 -0.3489
  701MOL0     C94516   1.834   6.115   9.643 -0.4485  0.0798  0.4669
  701MOL0     N94517   1.700   6.138   9.696 -0.1157  0.1386 -0.4945
  701MOL0     C94518   1.593   6.051   9.680  0.0905  0.0377 -0.2733
  701MOL0     C94519   1.485   6.129   9.698  0.5219  0.4150 -0.6192
  701MOL0     C94520   1.336   6.095   9.698 -0.6708 -0.4354  0.0291
  701MOL0     C94521   1.267   6.162   9.823 -0.0672  0.2198  0.3931
  701MOL0     C94522   1.135   6.089   9.839  0.4306  0.1440  1.0535
  701MOL0     C94523   1.040   6.127   9.725  0.3641  0.4163 -0.1368
  701MOL0     O94524   0.973   6.251   9.744 -0.3019  0.4280 -0.4102
  701MOL0     C94525   0.832   6.243   9.751  0.6604  0.0318 -0.2237
  701MOL0     C94526   0.759   6.319   9.658 -1.0149  0.7072 -0.4891
  701MOL0     C94527   0.611   6.316   9.659  0.0027  0.7167  0.0317
  701MOL0     C94528   0.542   6.395   9.554 -0.0207  0.0597  0.3913
  701MOL0     C94529   0.548   6.242   9.765  0.4717 -0.6496 -1.0066
  701MOL0     C94530   0.403   6.226   9.780 -1.4149 -0.2972  0.0775
  701MOL0     O94531   0.357   6.189   9.900  0.1641 -0.6744 -0.5852
  701MOL0     C94532   0.227   6.198   9.955  0.4498 -0.1109 -0.1725
  701MOL0     C94533   0.192   6.119  10.064  0.5656 -0.1193  0.2094
  701MOL0     C94534   0.063   6.116  10.109  0.3951  0.3103 -0.2745
  701MOL0     C94535  -0.039   6.196  10.049  0.9375  0.6843  0.8059
  701MOL0     O94536  -0.169   6.180  10.098  0.5132 -0.1588 -0.0289
  701MOL0     C94537  -0.271   6.269  10.046  0.6978  0.0495  0.3526
  701MOL0     C94538  -0.404   6.269  10.143 -0.0703  0.4551 -0.1147
  701MOL0     C94539  -0.369   6.349  10.264 -0.5796  0.4866  1.2608
  701MOL0     C94540  -0.482   6.356  10.365  0.6195 -1.0078  0.6562
  701MOL0     C94541  -0.438   6.442  10.485 -0.4494  0.5188  0.2825
  701MOL0     C94542  -0.538   6.499  10.588  0.3843 -0.2066 -0.1682
  701MOL0     C94543  -0.650   6.403  10.624  0.8157  0.4772  0.0777
  701MOL0     C94544  -0.720   6.443  10.749 -0.0864 -0.1782  0.2980
  701MOL0    Cl94545  -0.826   6.585  10.722 -0.0118  0.0357 -0.0774
  701MOL0     C94546  -0.004   6.280   9.947  0.1553  0.5057 -0.4186
  701MOL0     C94547   0.121   6.282   9.897 -0.7019  0.4967 -0.0945
  701MOL0     O94548   0.332   6.247   9.689 -0.4525  0.9862  0.2032
  701MOL0     C94549   0.632   6.165   9.850  0.9204 -0.3178  0.2051
  701MOL0     C94550   0.770   6.170   9.848 -0.1193  0.4101  1.0097
  701MOL0     N94551   1.526   6.258   9.735 -0.0863  0.3539  0.5070
  701MOL0     N94552   1.659   6.255   9.737  0.5476  0.1381 -0.4544
  701MOL0     C94553   2.490   5.998   8.852  1.5224 -0.0191 -0.5437
  701MOL0     C94554   2.532   6.009   8.725  0.9353  0.0361 -0.1708
  701MOL0     C94555   2.864   6.086   8.407  0.0366 -0.8257  0.4160
  701MOL0     C94556   2.962   5.997   8.347  0.1904 -0.4760  0.8951
  701MOL0     C94557   3.025   6.034   8.237 -0.4476  0.7260 -0.0232
  701MOL0     C94558   3.018   6.158   8.181  0.5372 -0.1584  1.6914
  701MOL0     O94559   3.077   6.194   8.065 -0.0898  0.0525 -0.3132
  701MOL0     C94560   3.137   6.097   7.972 -0.1569 -0.1302  0.3348
  701MOL0     C94561   3.024   6.008   7.912 -0.5064 -0.4068  0.5770
  701MOL0     C94562   3.078   5.899   7.818  0.3628 -0.4562 -0.4784
  701MOL0     C94563   2.993   5.778   7.811 -0.2404  0.1320 -0.9791
  701MOL0     C94564   3.065   5.694   7.714 -0.2373  1.1823 -0.7466
  701MOL0     C94565   3.130   5.624   7.638  0.5583 -0.5213  0.2076
  701MOL0     C94566   2.927   6.248   8.236 -0.1511 -0.8428  0.2880
  701MOL0     C94567   2.854   6.216   8.348 -0.7979  0.3532  0.6483
  701MOL0     H94568   2.714   6.288   8.752 -2.1210  1.6344  0.3238
  701MOL0     H94569   2.658   6.258   8.994  0.0973  0.2947  0.3020
  701MOL0     H94570   2.583   6.209   9.176  0.9148 -0.5154 -1.6636
  701MOL0     H94571   2.413   6.222   9.119  0.9688 -0.1771  0.7484
  701MOL0     H94572   2.509   6.038   9.338  2.6992  1.3039 -1.4890
  701MOL0     H94573   2.457   6.191   9.389 -0.3470 -3.6405  3.5741
  701MOL0     H94574   2.259   6.022   9.226 -1.1913  0.4947 -0.5006
  701MOL0     H94575   2.259   6.022   9.399  0.2463 -1.0970 -0.5566
  701MOL0     H94576   2.244   6.274   9.417 -1.0583  2.6354 -1.4723
  701MOL0     H94577   2.232   6.278   9.241  2.0383  0.8677  2.0520
  701MOL0     H94578   2.015   6.290   9.318  0.0069 -0.0474  0.0139
  701MOL0     H94579   2.017   6.112   9.282  0.1345 -0.5343  1.0934
  701MOL0     H94580   2.046   6.037   9.494  1.1493  0.4970 -0.3801
  701MOL0     H94581   2.080   6.185   9.567 -1.1780 -0.9166  0.1363
  701MOL0     H94582   1.848   6.276   9.494  1.4343  1.1160  2.8451
  701MOL0     H94583   1.815   6.105   9.429 -0.1652 -2.1016  1.6583
  701MOL0     H94584   1.906   6.169   9.705 -0.7586  0.2725  0.6624
  701MOL0     H94585   1.851   6.008   9.632  0.3865  0.0927  1.5030
  701MOL0     H94586   1.592   5.944   9.661 -1.4378  0.0693 -0.4868
  701MOL0     H94587   1.290   6.127   9.605  0.5734 -0.1189 -0.4968
  701MOL0     H94588   1.336   5.986   9.698  0.5474 -0.4740 -1.4899
  701MOL0     H94589   1.247   6.268   9.804 -1.2378 -0.0373  0.0671
  701MOL0     H94590   1.325   6.153   9.915  1.3039 -1.9741 -0.6072
  701MOL0     H94591   1.088   6.128   9.930  0.0832 -0.1730  1.0106
  701MOL0     H94592   1.136   5.980   9.845 -2.4546  0.0321  0.9440
  701MOL0     H94593   0.977   6.040   9.708  0.0470  0.5255  0.4757
  701MOL0     H94594   1.086   6.131   9.626  0.3011 -1.9619 -0.3110
  701MOL0     H94595   0.804   6.397   9.596 -0.2877  1.5731  1.0766
  701MOL0     H94596   0.462   6.459   9.593 -0.2440 -0.2729  0.4878
  701MOL0     H94597   0.609   6.459   9.497  1.2917 -0.9136  0.7802
  701MOL0     H94598   0.494   6.329   9.481 -0.9592 -2.1245  2.8049
  701MOL0     H94599   0.265   6.059  10.118 -0.2568 -0.6446  0.7597
  701MOL0     H94600   0.026   6.054  10.190 -2.0800 -0.5508 -1.9373
  701MOL0     H94601  -0.243   6.374  10.037  0.3965  0.4896  3.4897
  701MOL0     H94602  -0.301   6.227   9.950 -0.9112 -2.3689  1.8021
  701MOL0     H94603  -0.488   6.313  10.089 -2.0300 -2.3495  0.4428
  701MOL0     H94604  -0.427   6.163  10.160 -0.6273  0.4110 -1.0819
  701MOL0     H94605  -0.326   6.441  10.226  1.2178 -2.2742 -4.5596
  701MOL0     H94606  -0.285   6.294  10.308 -1.2488 -1.1228  0.6249
  701MOL0     H94607  -0.565   6.405  10.314  2.2052  2.2474  0.9558
  701MOL0     H94608  -0.506   6.255  10.400 -3.6886 -0.5500 -0.4465
  701MOL0     H94609  -0.371   6.524  10.456 -0.2729  0.4081  0.3742
  701MOL0     H94610  -0.361   6.378  10.530 -0.3323 -2.1329 -3.2044
  701MOL0     H94611  -0.486   6.524  10.681 -1.9595 -1.7177  1.6683
  701MOL0     H94612  -0.591   6.591  10.562 -0.4686 -0.3361  1.0129
  701MOL0     H94613  -0.616   6.304  10.655 -2.6878 -1.0828 -0.5899
  701MOL0     H94614  -0.727   6.383  10.549  1.0033 -2.2514  0.5271
  701MOL0     H94615  -0.642   6.454  10.825  0.7420  1.0307 -0.6686
  701MOL0     H94616  -0.784   6.359  10.775  0.5133 -1.8360 -3.0276
  701MOL0     H94617  -0.081   6.340   9.901 -1.1741  0.2344  1.3636
  701MOL0     H94618   0.145   6.354   9.820  4.0962 -0.2027  0.3991
  701MOL0     H94619   0.587   6.102   9.926 -2.3007 -4.2176 -4.3467
  701MOL0     H94620   0.818   6.103   9.920  0.4607 -1.7030 -1.2169
  701MOL0     H94621   2.418   5.921   8.878  0.4222  1.0254 -0.3610
  701MOL0     H94622   2.489   5.935   8.657 -1.6732  0.7464  0.6138
  701MOL0     H94623   2.964   5.893   8.377 -1.0888 -0.2010  2.0263
  701MOL0     H94624   3.089   5.958   8.191 -0.0153  1.3753 -0.5200
  701MOL0     H94625   3.194   6.152   7.897  4.6578 -0.6220  3.1932
  701MOL0     H94626   3.216   6.032   8.011  0.3821  0.9861  1.1719
  701MOL0     H94627   2.942   6.062   7.863 -1.1966  0.0644  2.1741
  701MOL0     H94628   2.967   5.962   7.993 -3.9888  0.9576 -0.9218
  701MOL0     H94629   3.174   5.875   7.864  0.8640  0.3668 -1.0522
  701MOL0     H94630   3.081   5.951   7.721  2.5749 -1.4698 -1.0119
  701MOL0     H94631   2.891   5.806   7.781 -1.1795 -0.1099  1.7230
  701MOL0     H94632   2.980   5.725   7.906 -2.9346  0.2318 -1.2049
  701MOL0     H94633   3.185   5.561   7.572  0.4885 -0.2680 -0.0936
  701MOL0     H94634   2.911   6.344   8.188 -0.4742 -0.8446  0.3931
  701MOL0     H94635   2.790   6.295   8.386 -1.0664  0.4990 -0.0792
  702MOL0     O94636   2.585   6.471   9.117  0.1405 -0.2111  0.2564
  702MOL0     C94637   2.519   6.567   9.098 -1.0846 -0.1879  0.2585
  702MOL0     O94638   2.528   6.648   8.988  0.4451  0.1181  0.1186
  702MOL0     C94639   2.614   6.640   8.881  0.1573 -0.6481 -0.3603
  702MOL0     C94640   2.746   6.591   8.893  0.2257  0.6294 -0.8960
  702MOL0     C94641   2.828   6.569   8.786 -0.7580 -0.4978  0.0086
  702MOL0     C94642   2.775   6.603   8.663 -0.2509  0.2044  0.0994
  702MOL0     O94643   2.869   6.580   8.561  0.4250 -0.2874 -0.0861
  702MOL0     C94644   2.853   6.630   8.424  0.8962  0.2203 -0.9955
  702MOL0     C94645   2.994   6.608   8.357 -0.4893 -0.3659 -0.1461
  702MOL0     C94646   2.992   6.679   8.218  0.4523  0.1699 -0.7584
  702MOL0     C94647   3.136   6.701   8.164 -0.6641 -0.4719  0.7851
  702MOL0     C94648   3.139   6.826   8.067 -0.4080 -0.6855 -0.4775
  702MOL0     C94649   3.275   6.852   8.000  0.0125  0.6541 -0.1194
  702MOL0     C94650   3.289   6.985   7.920 -0.7975 -0.8016  0.3411
  702MOL0     C94651   3.412   6.995   7.820  0.0044  0.0671  0.0529
  702MOL0     N94652   3.547   7.026   7.868  0.2176  0.0272  0.4242
  702MOL0     C94653   3.645   7.074   7.781  0.7018 -0.6080  0.3318
  702MOL0     C94654   3.749   7.102   7.859 -0.9930 -0.1457 -0.0752
  702MOL0     C94655   3.890   7.164   7.827  1.2558 -0.3408 -1.1111
  702MOL0     C94656   4.000   7.070   7.883 -0.2987  0.0733  1.0522
  702MOL0     C94657   4.000   6.945   7.794  0.5969 -0.2583  0.4077
  702MOL0     C94658   4.125   6.856   7.822  0.2241 -0.1608 -0.1996
  702MOL0     O94659   4.139   6.822   7.956  0.6757 -0.7244 -0.0293
  702MOL0     C94660   4.037   6.757   8.025 -0.1330  0.4588  0.6016
  702MOL0     C94661   4.033   6.791   8.154  0.2013  0.2723  0.5893
  702MOL0     C94662   3.940   6.734   8.240 -0.9944 -0.5640 -0.5946
  702MOL0     C94663   3.955   6.777   8.389  0.1081  0.3485 -0.0330
  702MOL0     C94664   3.831   6.657   8.185  0.4598  0.4215 -1.0921
  702MOL0     C94665   3.704   6.614   8.262 -0.7756 -0.0042 -0.2004
  702MOL0     O94666   3.628   6.509   8.215  0.8641 -0.1043 -1.0431
  702MOL0     C94667   3.532   6.449   8.297 -0.1800  0.0435  0.1934
  702MOL0     C94668   3.406   6.426   8.237 -0.0127  0.3485  0.0830
  702MOL0     C94669   3.317   6.343   8.302  0.6795  0.3042 -0.7532
  702MOL0     C94670   3.338   6.296   8.432 -0.5715  0.2448  0.2615
  702MOL0     O94671   3.236   6.224   8.497 -0.1719 -0.0167  0.0145
  702MOL0     C94672   3.240   6.223   8.640 -0.0609 -0.3211 -0.0225
  702MOL0     C94673   3.121   6.153   8.691  0.1089  0.2624  0.4215
  702MOL0     C94674   3.102   6.141   8.840 -0.2909  0.0934 -0.3652
  702MOL0     C94675   3.020   6.253   8.898 -1.0771  0.4014  1.3337
  702MOL0     C94676   3.021   6.224   9.050 -0.3221 -0.7537  0.3339
  702MOL0     C94677   2.965   6.338   9.145 -0.3826  0.1058  0.4077
  702MOL0     C94678   2.997   6.316   9.292 -1.0066  0.0562 -0.1806
  702MOL0     C94679   2.914   6.375   9.399 -0.4688  0.0764  0.0575
  702MOL0    Cl94680   3.018   6.375   9.542  0.0648  0.2264 -0.1070
  702MOL0     C94681   3.463   6.322   8.487 -0.4306 -0.2808 -0.4253
  702MOL0     C94682   3.550   6.404   8.425  0.3984 -0.0911  0.8848
  702MOL0     O94683   3.677   6.672   8.368 -0.1008  0.4796 -0.8913
  702MOL0     C94684   3.840   6.626   8.050 -0.0341  0.5332  0.0500
  702MOL0     C94685   3.953   6.665   7.971 -0.2579  0.6929  0.6500
  702MOL0     N94686   3.719   7.065   7.995  0.3029 -0.1798 -1.3045
  702MOL0     N94687   3.594   7.031   7.999  0.8938  0.2680 -0.5647
  702MOL0     C94688   2.652   6.665   8.637  0.7130  1.1383  0.2763
  702MOL0     C94689   2.572   6.682   8.751 -0.0405 -0.3353  0.8554
  702MOL0     C94690   2.430   6.605   9.211 -0.1694  0.1946  0.0950
  702MOL0     C94691   2.400   6.516   9.316 -0.5219 -0.1675  1.1448
  702MOL0     C94692   2.308   6.539   9.415 -0.3407  0.6488  0.1674
  702MOL0     C94693   2.243   6.665   9.412 -0.0767 -0.5079  0.6249
  702MOL0     O94694   2.133   6.699   9.491  0.3593  0.0599 -0.0482
  702MOL0     C94695   2.053   6.594   9.542  1.0178  0.2182 -0.7408
  702MOL0     C94696   1.921   6.649   9.589  0.3861 -0.4712 -0.4170
  702MOL0     C94697   1.834   6.549   9.654 -0.1560  0.7631  0.3733
  702MOL0     C94698   1.684   6.591   9.643  0.6175 -0.4457 -0.2004
  702MOL0     C94699   1.664   6.702   9.740  0.9167 -0.5866 -0.1025
  702MOL0     C94700   1.669   6.798   9.820 -0.2125 -0.1929 -0.7425
  702MOL0     C94701   2.277   6.759   9.314 -0.0567 -0.2129 -0.5330
  702MOL0     C94702   2.367   6.730   9.209  0.6534  0.0570 -0.3317
  702MOL0     H94703   2.787   6.550   8.985 -2.2705 -0.5203 -0.2281
  702MOL0     H94704   2.924   6.518   8.793  1.3114  2.8324 -1.5608
  702MOL0     H94705   2.774   6.573   8.375 -0.7886  2.5524 -1.1697
  702MOL0     H94706   2.830   6.737   8.423  2.2206  0.5184 -1.8564
  702MOL0     H94707   3.074   6.649   8.420  2.1588 -5.2012  0.0564
  702MOL0     H94708   3.012   6.502   8.339 -1.2557 -0.2530 -1.8104
  702MOL0     H94709   2.942   6.609   8.151  0.9975 -0.8917 -0.0888
  702MOL0     H94710   2.929   6.769   8.212 -2.7013 -1.8831 -0.7559
  702MOL0     H94711   3.215   6.717   8.238 -0.3815  0.0617  0.3809
  702MOL0     H94712   3.165   6.613   8.106 -0.0320 -0.5483  1.2087
  702MOL0     H94713   3.054   6.814   7.999  0.1009  0.0473 -1.2661
  702MOL0     H94714   3.120   6.916   8.126 -1.2575 -1.0736 -0.1386
  702MOL0     H94715   3.346   6.862   8.082 -1.6871  0.4454  1.4354
  702MOL0     H94716   3.301   6.766   7.938  0.5986  1.5512 -1.1608
  702MOL0     H94717   3.202   7.009   7.858 -1.8132 -1.2951  1.5190
  702MOL0     H94718   3.288   7.069   7.990  1.2639 -0.4063 -0.0289
  702MOL0     H94719   3.384   7.081   7.759  0.3252  0.7946  0.8954
  702MOL0     H94720   3.414   6.915   7.745 -0.0688 -0.3460  0.4841
  702MOL0     H94721   3.640   7.094   7.675  2.3145  0.3666  0.4135
  702MOL0     H94722   3.901   7.173   7.718  3.8070  0.9978 -0.8115
  702MOL0     H94723   3.892   7.265   7.868  3.7459 -0.9015  0.3244
  702MOL0     H94724   3.982   7.036   7.985 -0.0687 -1.6967  0.5365
  702MOL0     H94725   4.097   7.120   7.879 -0.3028  0.0657 -2.3748
  702MOL0     H94726   4.005   6.967   7.687  2.1843  0.7929  0.6763
  702MOL0     H94727   3.909   6.887   7.811 -0.8677  0.9840 -2.4419
  702MOL0     H94728   4.214   6.908   7.785  1.0670  0.5986  2.6388
  702MOL0     H94729   4.116   6.759   7.770  1.3771 -0.4723  0.1333
  702MOL0     H94730   4.103   6.868   8.184  1.7223  0.1415 -2.2908
  702MOL0     H94731   4.046   6.836   8.401  0.4700 -0.1235 -0.3815
  702MOL0     H94732   3.864   6.833   8.413 -0.0075 -0.6018  1.9770
  702MOL0     H94733   3.950   6.688   8.453 -3.3953 -0.6944 -1.5341
  702MOL0     H94734   3.387   6.461   8.136 -3.1388 -0.8989  0.1184
  702MOL0     H94735   3.219   6.321   8.260  0.3862  3.2050 -1.8209
  702MOL0     H94736   3.324   6.172   8.688 -1.3488 -0.8328  1.8383
  702MOL0     H94737   3.239   6.326   8.677  0.0751 -1.0437  2.1599
  702MOL0     H94738   3.034   6.199   8.644  1.7781  1.6012 -1.5823
  702MOL0     H94739   3.121   6.057   8.640  0.4472 -0.0213  0.9497
  702MOL0     H94740   3.198   6.125   8.890  0.7727  0.1361 -2.2990
  702MOL0     H94741   3.045   6.050   8.861  0.2828 -0.2206 -0.1431
  702MOL0     H94742   3.070   6.349   8.881  1.7051 -0.8683  1.9097
  702MOL0     H94743   2.917   6.257   8.860 -0.7328 -0.9126  0.1966
  702MOL0     H94744   3.125   6.204   9.081 -0.3110 -0.8168  0.2539
  702MOL0     H94745   2.964   6.135   9.077 -0.1733 -1.3429 -1.1964
  702MOL0     H94746   2.996   6.441   9.122  2.2437 -0.5519  0.6310
  702MOL0     H94747   2.857   6.326   9.140 -0.2170 -1.0827 -3.0839
  702MOL0     H94748   3.094   6.367   9.288 -1.9837  1.9474 -1.1162
  702MOL0     H94749   3.011   6.208   9.307  0.0629  0.1433 -0.5009
  702MOL0     H94750   2.823   6.316   9.413  0.1842 -1.2699 -1.1324
  702MOL0     H94751   2.886   6.476   9.365  2.3543  0.8766 -0.1089
  702MOL0     H94752   3.492   6.263   8.573  0.1001 -2.0882 -1.7721
  702MOL0     H94753   3.653   6.417   8.458  0.6263  1.7666 -0.4118
  702MOL0     H94754   3.751   6.585   8.003 -0.2066 -0.0103  0.8326
  702MOL0     H94755   3.960   6.643   7.865  0.1193 -2.5061  1.2319
  702MOL0     H94756   2.631   6.706   8.539 -1.4650  1.2561  0.7492
  702MOL0     H94757   2.475   6.727   8.735 -0.2918 -0.5237  1.7882
  702MOL0     H94758   2.452   6.421   9.320  0.2764  0.2659  1.3566
  702MOL0     H94759   2.294   6.460   9.488  0.2017 -0.2742 -0.6912
  702MOL0     H94760   2.039   6.522   9.460 -0.9647 -3.7971  2.6827
  702MOL0     H94761   2.091   6.530   9.622 -3.3708 -1.7816  0.0781
  702MOL0     H94762   1.876   6.697   9.502  0.5107 -2.2519 -1.5244
  702MOL0     H94763   1.949   6.728   9.660 -1.7233 -1.6595  1.9243
  702MOL0     H94764   1.866   6.537   9.758 -1.3626 -2.2356  0.5070
  702MOL0     H94765   1.846   6.448   9.613  0.2359  0.8579  0.2477
  702MOL0     H94766   1.629   6.507   9.687  0.5218 -0.2248  0.1083
  702MOL0     H94767   1.653   6.613   9.540 -1.8525  0.4674  0.6562
  702MOL0     H94768   1.681   6.870   9.898  0.5310 -0.6641 -0.4136
  702MOL0     H94769   2.222   6.851   9.333 -2.7511 -2.4081  3.7244
  702MOL0     H94770   2.391   6.805   9.135  1.6755 -1.6627 -1.8400
  703MOL0     O94771   5.091   5.947   3.729 -0.8833  0.2544  0.0282
  703MOL0     C94772   5.118   5.829   3.762 -0.2153  0.1879  0.0642
  703MOL0     O94773   5.023   5.726   3.754 -0.0011 -0.7091 -0.0440
  703MOL0     C94774   4.900   5.750   3.693 -0.5473  0.8616  1.0740
  703MOL0     C94775   4.790   5.786   3.770 -0.3689 -0.4328  0.2471
  703MOL0     C94776   4.665   5.796   3.717 -0.5100  0.6568 -0.2681
  703MOL0     C94777   4.648   5.781   3.581 -0.8188 -0.1545  0.2595
  703MOL0     O94778   4.522   5.786   3.524  0.9992 -0.5847 -0.0772
  703MOL0     C94779   4.418   5.861   3.584 -0.0215  0.5425 -0.3234
  703MOL0     C94780   4.298   5.881   3.476 -0.9924  0.6812 -1.0589
  703MOL0     C94781   4.199   5.976   3.520  0.2011  0.1327  0.2292
  703MOL0     C94782   4.226   6.115   3.476 -0.5609  0.8159  0.5460
  703MOL0     C94783   4.095   6.194   3.496 -0.3377 -0.1828 -0.2485
  703MOL0     C94784   4.117   6.343   3.482 -0.3117  0.0366  0.4422
  703MOL0     C94785   4.141   6.376   3.334  0.3149 -0.7507  0.0490
  703MOL0     C94786   4.157   6.524   3.315  0.1667  0.0698  0.1445
  703MOL0     N94787   4.028   6.582   3.343  0.5291 -0.6954 -0.1540
  703MOL0     C94788   4.018   6.695   3.423  0.3064  0.5844  0.2827
  703MOL0     C94789   3.888   6.740   3.396 -0.4097  0.2090 -0.2539
  703MOL0     C94790   3.810   6.837   3.468 -0.2540 -0.4609  0.2596
  703MOL0     C94791   3.659   6.801   3.481 -0.7836 -0.0473 -0.6691
  703MOL0     C94792   3.562   6.806   3.361  0.3287 -0.0366 -0.5809
  703MOL0     C94793   3.420   6.781   3.423 -0.4763 -0.3256  0.4961
  703MOL0     O94794   3.384   6.887   3.511 -0.4967 -0.1519  0.3888
  703MOL0     C94795   3.265   6.869   3.580  0.3151 -0.1517 -0.4869
  703MOL0     C94796   3.250   6.896   3.715 -1.1022  0.1904 -0.1612
  703MOL0     C94797   3.133   6.868   3.786 -0.0713  0.1807 -1.2299
  703MOL0     C94798   3.145   6.860   3.942 -0.2754 -0.4767 -0.3327
  703MOL0     C94799   3.019   6.838   3.718 -0.6132  0.3128 -0.1251
  703MOL0     C94800   2.888   6.822   3.784 -0.4312 -0.3739  0.7416
  703MOL0     O94801   2.791   6.749   3.718  0.6134 -0.6307 -0.2328
  703MOL0     C94802   2.668   6.752   3.780  0.4703 -0.0133  0.4079
  703MOL0     C94803   2.574   6.823   3.705  0.3158  0.0709  0.4338
  703MOL0     C94804   2.444   6.840   3.762 -0.0401  0.0610 -0.2196
  703MOL0     C94805   2.412   6.790   3.884 -0.3969  0.2293 -0.9969
  703MOL0     O94806   2.289   6.810   3.922  0.6849 -0.1573 -0.2869
  703MOL0     C94807   2.223   6.732   4.017  0.3556 -0.4846  0.8326
  703MOL0     C94808   2.082   6.781   4.063 -0.5948 -0.4087  0.5165
  703MOL0     C94809   2.024   6.695   4.178  0.0304 -0.0356 -0.1603
  703MOL0     C94810   1.872   6.706   4.197 -0.4169 -0.7013 -0.2003
  703MOL0     C94811   1.829   6.621   4.321 -0.6696 -0.3559  0.2314
  703MOL0     C94812   1.703   6.688   4.393 -0.3284 -0.1200  0.0388
  703MOL0     C94813   1.684   6.623   4.528 -0.1636  0.1611 -0.4922
  703MOL0     C94814   1.625   6.485   4.524  0.1347 -0.2205  0.4740
  703MOL0    Cl94815   1.444   6.486   4.512 -0.1184 -0.0230 -0.2374
  703MOL0     C94816   2.510   6.717   3.958  0.5618 -0.5406 -0.0595
  703MOL0     C94817   2.636   6.704   3.910 -0.1731 -0.1037  0.5831
  703MOL0     O94818   2.873   6.888   3.881  0.2135 -0.8745 -0.3686
  703MOL0     C94819   3.032   6.815   3.585 -0.3042 -0.5697 -0.1997
  703MOL0     C94820   3.142   6.841   3.516 -1.3824 -0.8555 -0.1689
  703MOL0     N94821   3.841   6.663   3.290  0.3478 -0.5110 -0.0980
  703MOL0     N94822   3.925   6.576   3.257  0.1352 -0.4057  0.0367
  703MOL0     C94823   4.754   5.746   3.504  0.4896  0.4195  0.8496
  703MOL0     C94824   4.881   5.722   3.560  0.0924  0.4840 -0.1618
  703MOL0     C94825   5.234   5.802   3.849  0.3784  0.2333 -0.0152
  703MOL0     C94826   5.342   5.889   3.847  0.3479 -0.6222  0.2563
  703MOL0     C94827   5.458   5.876   3.926  0.1538 -0.4247 -0.3187
  703MOL0     C94828   5.470   5.769   4.018 -0.2506 -0.3049  0.5464
  703MOL0     O94829   5.574   5.763   4.110 -0.0327 -0.1758  0.2092
  703MOL0     C94830   5.605   5.636   4.168  0.8976 -0.3955  0.0632
  703MOL0     C94831   5.661   5.533   4.058 -0.0341 -0.8202 -0.6892
  703MOL0     C94832   5.757   5.431   4.101  0.0557 -0.3206 -0.4447
  703MOL0     C94833   5.714   5.315   4.195  0.1764  0.1644  0.8183
  703MOL0     C94834   5.598   5.248   4.143  0.3077 -0.1716  0.8591
  703MOL0     C94835   5.511   5.206   4.072  0.3716 -0.3447 -0.7351
  703MOL0     C94836   5.362   5.672   4.009 -0.1734  0.5874  0.3731
  703MOL0     C94837   5.243   5.686   3.930 -0.3593  0.2192 -0.3391
  703MOL0     H94838   4.810   5.807   3.875  1.8714  0.8800 -0.3919
  703MOL0     H94839   4.584   5.795   3.790 -1.5926  1.6956 -1.3985
  703MOL0     H94840   4.380   5.808   3.672  0.6397  0.0457 -0.3259
  703MOL0     H94841   4.460   5.960   3.604  1.6060  0.3034 -2.2263
  703MOL0     H94842   4.351   5.900   3.382  1.2348  1.4147  0.2760
  703MOL0     H94843   4.243   5.789   3.453  0.0447  0.3230 -2.2903
  703MOL0     H94844   4.102   5.945   3.481 -0.3947 -0.0304  1.7551
  703MOL0     H94845   4.192   5.966   3.629 -2.5253 -0.3999  0.0816
  703MOL0     H94846   4.310   6.149   3.537  0.2540  1.1110 -0.7227
  703MOL0     H94847   4.250   6.116   3.370 -1.1038  0.4293  0.4138
  703MOL0     H94848   4.007   6.167   3.436  0.2625 -0.1408 -1.1679
  703MOL0     H94849   4.077   6.184   3.603  0.2608  0.9843 -0.0294
  703MOL0     H94850   4.033   6.398   3.527  0.6231  0.7109  1.4186
  703MOL0     H94851   4.205   6.378   3.537  0.2757  1.2773 -1.2111
  703MOL0     H94852   4.233   6.326   3.304  1.1595  0.0229  1.2457
  703MOL0     H94853   4.066   6.333   3.267 -1.9429  1.6528  0.8309
  703MOL0     H94854   4.191   6.550   3.214  0.7650  0.8388  0.5352
  703MOL0     H94855   4.239   6.555   3.381 -0.1688  1.2978  0.0003
  703MOL0     H94856   4.092   6.736   3.491  0.8175 -0.5154  0.4124
  703MOL0     H94857   3.851   6.861   3.567 -1.6165 -0.4297  0.8289
  703MOL0     H94858   3.814   6.933   3.416  1.5080 -0.4195  0.4105
  703MOL0     H94859   3.618   6.872   3.553  1.5738  1.8166 -1.0284
  703MOL0     H94860   3.653   6.699   3.520 -0.2551  0.1865  0.0576
  703MOL0     H94861   3.592   6.735   3.283  0.9048 -1.8224  1.1991
  703MOL0     H94862   3.558   6.908   3.321 -0.2260  0.9093  1.7456
  703MOL0     H94863   3.409   6.684   3.472 -0.7004 -0.0134  1.0695
  703MOL0     H94864   3.359   6.780   3.332  0.0345  1.5600  0.0903
  703MOL0     H94865   3.337   6.915   3.777 -0.5418 -2.6773  0.1103
  703MOL0     H94866   3.106   6.947   3.995 -0.8815 -0.0998 -1.3612
  703MOL0     H94867   3.091   6.770   3.973 -2.3903  1.6415  2.6999
  703MOL0     H94868   3.249   6.839   3.970 -0.3676 -3.6943 -1.9590
  703MOL0     H94869   2.583   6.876   3.611 -2.0755  0.0921  0.1486
  703MOL0     H94870   2.362   6.892   3.713 -1.0008 -1.5800 -0.4111
  703MOL0     H94871   2.208   6.629   3.982 -1.3241 -0.8705  2.5023
  703MOL0     H94872   2.289   6.739   4.104 -0.6312  2.9622  1.4367
  703MOL0     H94873   2.088   6.886   4.094 -0.2585 -1.3437  4.1177
  703MOL0     H94874   2.013   6.773   3.979 -1.0381  2.4134  0.5057
  703MOL0     H94875   2.073   6.708   4.275  1.3484 -0.2636 -0.7775
  703MOL0     H94876   2.031   6.590   4.149  1.6673 -0.5095  1.7289
  703MOL0     H94877   1.851   6.810   4.221  0.7245 -0.2035 -1.2532
  703MOL0     H94878   1.828   6.676   4.102  0.1906 -1.7796 -0.1595
  703MOL0     H94879   1.916   6.601   4.383 -0.3960 -2.5693 -0.7894
  703MOL0     H94880   1.786   6.528   4.284 -1.1986 -0.4124  0.9725
  703MOL0     H94881   1.722   6.794   4.409  2.9336 -0.7894  1.2456
  703MOL0     H94882   1.611   6.681   4.333 -1.8903 -1.1510  2.3904
  703MOL0     H94883   1.617   6.678   4.594 -0.8466 -0.6138 -0.5279
  703MOL0     H94884   1.780   6.617   4.580 -1.6806 -2.3336  2.2873
  703MOL0     H94885   1.658   6.431   4.612 -1.1285  1.1760  1.8740
  703MOL0     H94886   1.662   6.439   4.432 -1.4760 -0.1259 -0.2631
  703MOL0     H94887   2.475   6.673   4.051 -2.9510 -0.9126 -1.3724
  703MOL0     H94888   2.707   6.667   3.984  2.3634 -0.3282 -1.8086
  703MOL0     H94889   2.944   6.804   3.522 -1.3819  1.2993  0.8813
  703MOL0     H94890   3.141   6.825   3.409  0.2188 -2.9733  0.0668
  703MOL0     H94891   4.747   5.736   3.396  0.1245  0.1040  0.8994
  703MOL0     H94892   4.969   5.694   3.503 -1.6528 -3.8176 -1.1582
  703MOL0     H94893   5.339   5.967   3.772  1.7562 -1.6402 -0.9192
  703MOL0     H94894   5.534   5.952   3.944  0.8694 -1.7835  3.2971
  703MOL0     H94895   5.687   5.657   4.237  2.3183 -1.5139 -1.2186
  703MOL0     H94896   5.517   5.597   4.221  0.4569  1.5159  0.8108
  703MOL0     H94897   5.719   5.590   3.986  0.2609 -1.4953 -0.9918
  703MOL0     H94898   5.579   5.486   4.002 -0.7423 -0.8259  0.3138
  703MOL0     H94899   5.837   5.489   4.148 -0.7840  0.6412 -0.1843
  703MOL0     H94900   5.793   5.377   4.013 -0.0578 -2.2138  0.5986
  703MOL0     H94901   5.684   5.359   4.291  1.5962  1.8104  0.5623
  703MOL0     H94902   5.795   5.245   4.214 -0.0047  0.1417  1.5540
  703MOL0     H94903   5.438   5.177   3.999  2.0553 -1.5518 -2.0209
  703MOL0     H94904   5.367   5.576   4.060 -1.6851 -1.1448 -2.5065
  703MOL0     H94905   5.171   5.604   3.933 -0.5722  0.4374  0.8479
  704MOL0     O94906   6.467  10.657   2.313 -0.0653 -0.7270  0.0819
  704MOL0     C94907   6.562  10.640   2.240  0.5639  0.0235  0.6916
  704MOL0     O94908   6.697  10.646   2.267 -0.3465 -0.7899  0.3905
  704MOL0     C94909   6.723  10.667   2.396 -0.8608  0.6931 -0.5724
  704MOL0     C94910   6.773  10.793   2.435 -0.9392 -0.3887 -0.0818
  704MOL0     C94911   6.816  10.818   2.565  0.7591 -0.1632  0.0632
  704MOL0     C94912   6.777  10.731   2.660  0.9725 -0.5334 -0.1725
  704MOL0     O94913   6.815  10.765   2.792 -0.1307  0.4431  0.3076
  704MOL0     C94914   6.844  10.655   2.879  0.9091 -1.1913 -0.3000
  704MOL0     C94915   6.920  10.705   3.005 -1.3796 -0.6303 -0.4260
  704MOL0     C94916   7.055  10.776   2.981  0.3049 -0.1973  0.0180
  704MOL0     C94917   7.153  10.715   2.878 -0.3070 -0.0635 -0.0243
  704MOL0     C94918   7.201  10.572   2.919 -0.2997 -0.1243 -0.4146
  704MOL0     C94919   7.299  10.571   3.043  0.6128 -0.3410  0.1235
  704MOL0     C94920   7.428  10.632   3.008 -0.2288 -0.3352 -0.0394
  704MOL0     C94921   7.526  10.597   3.128  0.2342 -0.9797  0.7359
  704MOL0     N94922   7.658  10.669   3.108 -0.6448  1.3893  0.1623
  704MOL0     C94923   7.745  10.714   3.210  0.4713 -0.4295  0.0130
  704MOL0     C94924   7.847  10.771   3.142 -0.3838  0.5017  0.9145
  704MOL0     C94925   7.962  10.849   3.214 -1.0517  0.4539  0.0013
  704MOL0     C94926   8.097  10.785   3.215 -0.2117 -0.1124  0.2423
  704MOL0     C94927   8.109  10.669   3.310  0.0909  0.6929 -0.1144
  704MOL0     C94928   8.259  10.620   3.329 -0.3433 -0.5737 -0.2859
  704MOL0     O94929   8.263  10.500   3.409 -0.2775 -0.3639  0.5091
  704MOL0     C94930   8.384  10.461   3.466  1.1143 -0.5473  0.4370
  704MOL0     C94931   8.503  10.536   3.459  1.0302  0.1164 -0.0260
  704MOL0     C94932   8.626  10.493   3.514 -0.6725  0.6375  0.0946
  704MOL0     C94933   8.741  10.584   3.500  0.1469  0.1099 -0.4275
  704MOL0     C94934   8.626  10.370   3.587  0.9167  0.9333 -0.3596
  704MOL0     C94935   8.743  10.312   3.660 -0.2493  0.5396  0.1158
  704MOL0     O94936   8.864  10.374   3.657  0.0540 -0.3210 -0.0745
  704MOL0     C94937   8.964  10.312   3.711 -0.3931  0.4385 -0.5480
  704MOL0     C94938   9.070  10.250   3.636  0.2448 -0.3758 -0.5723
  704MOL0     C94939   9.184  10.193   3.697  0.0073 -0.2372  0.1249
  704MOL0     C94940   9.203  10.209   3.831 -0.5331 -0.9034  0.0942
  704MOL0     O94941   9.321  10.160   3.875  0.0146 -0.7020  0.4173
  704MOL0     C94942   9.367  10.190   4.004 -1.0208 -0.2627 -0.5489
  704MOL0     C94943   9.321  10.079   4.093  0.2349  0.4419 -0.1581
  704MOL0     C94944   9.444  10.020   4.165  0.7807  0.1241 -0.4478
  704MOL0     C94945   9.408   9.909   4.267  0.6827  0.1199  0.6192
  704MOL0     C94946   9.503   9.904   4.385 -0.3173  0.4744 -0.1026
  704MOL0     C94947   9.626   9.811   4.352 -0.5624 -1.2606 -0.2572
  704MOL0     C94948   9.585   9.668   4.316  0.0445  0.0286 -0.0072
  704MOL0     C94949   9.704   9.575   4.304  0.0673  0.8642  0.0861
  704MOL0    Cl94950   9.653   9.427   4.202  0.0246 -0.5413 -0.1428
  704MOL0     C94951   9.101  10.264   3.903 -0.7164  0.3162  0.0405
  704MOL0     C94952   8.984  10.315   3.849  0.2144  0.0856 -0.6102
  704MOL0     O94953   8.723  10.205   3.718 -0.5868 -0.3669 -0.8906
  704MOL0     C94954   8.497  10.301   3.602  0.1326 -0.6904 -0.3082
  704MOL0     C94955   8.387  10.344   3.531  0.5458 -0.1708  0.1076
  704MOL0     N94956   7.817  10.764   3.003 -0.5661  0.6475 -0.7719
  704MOL0     N94957   7.713  10.708   2.989  0.6138  1.0804 -0.5589
  704MOL0     C94958   6.704  10.616   2.631 -0.2155 -0.4257 -1.3168
  704MOL0     C94959   6.666  10.587   2.499 -0.3648  0.2957 -0.1316
  704MOL0     C94960   6.522  10.586   2.102 -0.7873 -0.1583 -1.0058
  704MOL0     C94961   6.624  10.513   2.035 -0.2068  0.2617 -0.3632
  704MOL0     C94962   6.594  10.462   1.908  0.3928  0.0432 -0.4724
  704MOL0     C94963   6.467  10.467   1.856 -0.2568  0.5735  0.3862
  704MOL0     O94964   6.458  10.407   1.737  0.9162 -0.1104  0.1277
  704MOL0     C94965   6.362  10.435   1.639 -1.2145  0.9134 -0.2223
  704MOL0     C94966   6.271  10.316   1.634  0.5466  0.3803  0.8070
  704MOL0     C94967   6.170  10.302   1.750  0.0317  0.2795 -0.2315
  704MOL0     C94968   6.089  10.164   1.749  0.1021 -0.5143  0.6404
  704MOL0     C94969   5.986  10.152   1.651  0.6617 -1.6407 -0.0233
  704MOL0     C94970   5.897  10.139   1.573  0.0193 -0.1720  0.4420
  704MOL0     C94971   6.370  10.544   1.921  0.2486 -0.4005  0.7783
  704MOL0     C94972   6.397  10.604   2.042  0.2280  0.3025 -0.5241
  704MOL0     H94973   6.790  10.863   2.353 -1.5674 -0.6372 -0.4335
  704MOL0     H94974   6.869  10.912   2.580 -1.2174  1.8146 -3.7645
  704MOL0     H94975   6.751  10.604   2.908 -1.6280  2.1674 -1.7615
  704MOL0     H94976   6.911  10.585   2.828  2.0046 -0.6679  0.3847
  704MOL0     H94977   6.855  10.764   3.070 -0.0116 -0.1707  0.5616
  704MOL0     H94978   6.948  10.614   3.058  1.0010 -0.6005 -1.4814
  704MOL0     H94979   7.037  10.880   2.951  1.6259 -0.6981 -2.7920
  704MOL0     H94980   7.104  10.775   3.079  2.6364 -1.8888 -1.0768
  704MOL0     H94981   7.118  10.704   2.775  2.1125 -0.0971 -0.9048
  704MOL0     H94982   7.239  10.782   2.874 -1.4682  1.6860  2.0538
  704MOL0     H94983   7.121  10.497   2.923 -2.0718  1.6597 -0.6435
  704MOL0     H94984   7.255  10.545   2.827 -1.0312  3.4214 -2.0575
  704MOL0     H94985   7.251  10.620   3.127  2.2189 -2.4643  2.4462
  704MOL0     H94986   7.315  10.470   3.084  4.0686 -0.1822 -0.4959
  704MOL0     H94987   7.468  10.582   2.919 -1.7587 -1.9465  0.1165
  704MOL0     H94988   7.423  10.741   2.997 -0.6353 -0.3912 -0.4332
  704MOL0     H94989   7.537  10.488   3.120 -4.9566 -1.6069 -2.7298
  704MOL0     H94990   7.470  10.626   3.217 -1.4305  3.4508 -1.4683
  704MOL0     H94991   7.728  10.706   3.317 -1.8152  0.2832 -0.2424
  704MOL0     H94992   7.980  10.943   3.160 -0.5098  1.2142  1.4791
  704MOL0     H94993   7.930  10.864   3.317 -0.1152  1.9217  0.1055
  704MOL0     H94994   8.176  10.856   3.244  1.4472 -1.5875 -0.5028
  704MOL0     H94995   8.124  10.747   3.116  0.5123  0.7576  0.0891
  704MOL0     H94996   8.041  10.590   3.279  2.1257 -0.9117 -0.6982
  704MOL0     H94997   8.076  10.704   3.409  2.0404 -0.0624  0.8421
  704MOL0     H94998   8.325  10.700   3.363 -0.1679 -1.5547  1.8903
  704MOL0     H94999   8.285  10.597   3.225 -1.0346 -0.6450 -0.4485
  704MOL0     H95000   8.503  10.627   3.399 -1.1294 -0.1553 -0.4938
  704MOL0     H95001   8.821  10.537   3.443  1.5561  3.0129 -0.9745
  704MOL0     H95002   8.721  10.677   3.446 -1.7568 -0.9486 -1.6764
  704MOL0     H95003   8.765  10.619   3.601  1.1005  0.7412 -0.8627
  704MOL0     H95004   9.052  10.240   3.530 -3.1013 -0.3565 -0.0905
  704MOL0     H95005   9.256  10.141   3.635 -0.6851 -0.9683 -0.0704
  704MOL0     H95006   9.476  10.183   3.998 -0.9665 -1.7474  1.2261
  704MOL0     H95007   9.335  10.285   4.047  6.2725  3.5201 -2.0490
  704MOL0     H95008   9.234  10.103   4.155  0.1498 -1.5440  0.5810
  704MOL0     H95009   9.289   9.999   4.025 -1.0695  1.3606 -0.6532
  704MOL0     H95010   9.509  10.094   4.211 -0.3089  0.2401  0.9947
  704MOL0     H95011   9.502   9.965   4.090  1.7634  1.9669 -1.0930
  704MOL0     H95012   9.308   9.910   4.311  0.9442 -0.7778  1.2616
  704MOL0     H95013   9.405   9.818   4.205 -1.9468  1.4027 -1.3746
  704MOL0     H95014   9.453   9.855   4.468  1.3924 -1.6986 -0.2758
  704MOL0     H95015   9.531  10.005   4.417 -0.9108  0.8579 -0.7492
  704MOL0     H95016   9.669   9.860   4.264  0.1761 -0.3260  0.6037
  704MOL0     H95017   9.693   9.802   4.438 -3.2241 -1.7779  1.8854
  704MOL0     H95018   9.528   9.651   4.224  0.5210 -2.4031  0.0664
  704MOL0     H95019   9.522   9.636   4.400  2.0193 -0.5922  1.3110
  704MOL0     H95020   9.732   9.539   4.404 -0.6476  0.8769  0.3004
  704MOL0     H95021   9.797   9.614   4.262  1.4943 -1.6240  0.7174
  704MOL0     H95022   9.108  10.274   4.011 -3.2681 -1.8189  0.5131
  704MOL0     H95023   8.900  10.339   3.912 -1.3350 -2.2077 -1.6772
  704MOL0     H95024   8.490  10.213   3.665  2.5630 -0.5834  0.2189
  704MOL0     H95025   8.314  10.264   3.521  2.8484 -2.4809  0.7550
  704MOL0     H95026   6.662  10.548   2.703 -2.1360  1.9153 -0.1002
  704MOL0     H95027   6.599  10.502   2.487  0.8928 -0.8856  0.8179
  704MOL0     H95028   6.721  10.490   2.078 -1.4136 -3.0782  0.9315
  704MOL0     H95029   6.663  10.401   1.850 -2.3370 -2.9732 -0.8183
  704MOL0     H95030   6.296  10.521   1.651 -1.9096  0.9926 -3.5261
  704MOL0     H95031   6.412  10.443   1.542 -2.9631 -2.9872 -1.6435
  704MOL0     H95032   6.330  10.224   1.623 -0.6329 -0.0900 -2.7349
  704MOL0     H95033   6.210  10.318   1.544  1.6832 -0.3577 -0.0170
  704MOL0     H95034   6.095  10.381   1.756 -0.1210  0.3438 -2.3587
  704MOL0     H95035   6.222  10.307   1.847 -1.3759  1.5771  0.5050
  704MOL0     H95036   6.036  10.142   1.842 -1.1509  0.4769  0.1828
  704MOL0     H95037   6.169  10.090   1.735  1.0535  0.7784 -1.0735
  704MOL0     H95038   5.817  10.138   1.501  0.4151 -1.8469 -0.0271
  704MOL0     H95039   6.272  10.549   1.875  0.8118  3.7698 -0.3932
  704MOL0     H95040   6.314  10.659   2.085  1.9131  0.8224  2.3461
  705MOL0     O95041   8.173   0.478   4.956  0.0138  0.4878 -0.7103
  705MOL0     C95042   8.195   0.423   5.058  0.2552 -0.0022  0.5221
  705MOL0     O95043   8.107   0.335   5.121  0.2523 -0.7166  0.1205
  705MOL0     C95044   7.988   0.322   5.051  0.0801 -1.1964 -0.2541
  705MOL0     C95045   7.974   0.267   4.922  0.1758  0.3459  0.3217
  705MOL0     C95046   7.846   0.226   4.871 -0.1530 -0.0113  0.5445
  705MOL0     C95047   7.729   0.274   4.931  0.8918 -0.1318 -0.2402
  705MOL0     O95048   7.595   0.257   4.884 -0.5965 -0.3091  0.7905
  705MOL0     C95049   7.561   0.178   4.771 -0.7839  0.0839 -0.6835
  705MOL0     C95050   7.570   0.275   4.648  0.2384  0.3629 -0.5454
  705MOL0     C95051   7.525   0.193   4.524 -0.1596  0.4241  0.5262
  705MOL0     C95052   7.529   0.284   4.407  0.9355 -0.8113  0.0613
  705MOL0     C95053   7.442   0.413   4.407  0.7502  1.3742 -0.0008
  705MOL0     C95054   7.292   0.379   4.431  0.7731  0.7913  0.0277
  705MOL0     C95055   7.231   0.280   4.333  0.4522  0.6064 -0.0977
  705MOL0     C95056   7.077   0.284   4.333 -0.4797  0.1577  0.6378
  705MOL0     N95057   7.023   0.262   4.463 -0.2865 -1.4902 -0.3619
  705MOL0     C95058   7.027   0.149   4.534 -0.9949 -0.4796 -0.6931
  705MOL0     C95059   6.988   0.190   4.664  0.3697 -0.2918 -0.2096
  705MOL0     C95060   6.997   0.123   4.791  0.5303 -0.2970 -0.3982
  705MOL0     C95061   7.077  -0.003   4.783 -0.0220 -0.1402  0.5468
  705MOL0     C95062   7.123  -0.068   4.915 -0.4029  0.3683 -0.5195
  705MOL0     C95063   7.181  -0.208   4.881 -0.7497  0.7642  0.1320
  705MOL0     O95064   7.244  -0.290   4.977 -0.0018 -1.4527  0.2209
  705MOL0     C95065   7.332  -0.383   4.930 -0.8589 -0.2993 -0.2354
  705MOL0     C95066   7.380  -0.411   4.796 -0.7645 -0.1237 -0.4399
  705MOL0     C95067   7.477  -0.507   4.773  0.0211  0.7462  0.5762
  705MOL0     C95068   7.515  -0.533   4.624  0.2054  0.0939 -0.2132
  705MOL0     C95069   7.529  -0.586   4.878 -0.0896 -0.7296 -0.2089
  705MOL0     C95070   7.623  -0.698   4.864  0.4665 -0.7864  0.3019
  705MOL0     O95071   7.689  -0.746   4.972  0.0830  1.0910 -0.2202
  705MOL0     C95072   7.801  -0.827   4.947 -1.1153 -1.2782 -0.5532
  705MOL0     C95073   7.792  -0.963   4.932  0.0069  0.0425  0.3404
  705MOL0     C95074   7.905  -1.045   4.919 -0.9448 -0.7412  0.1975
  705MOL0     C95075   8.037  -0.983   4.910  0.8567  0.2791 -0.1572
  705MOL0     O95076   8.158  -1.047   4.901  0.7442 -0.7520 -0.4601
  705MOL0     C95077   8.177  -1.176   4.943 -0.2660 -0.8996  1.0917
  705MOL0     C95078   8.328  -1.212   4.958  0.2316  0.1874  0.3338
  705MOL0     C95079   8.414  -1.122   5.050 -1.0223 -0.2952  0.5425
  705MOL0     C95080   8.550  -1.190   5.049  0.4157  0.0004 -0.0756
  705MOL0     C95081   8.649  -1.107   5.123 -0.3003 -0.1952  1.2511
  705MOL0     C95082   8.784  -1.175   5.151  0.8144  0.1546  0.4776
  705MOL0     C95083   8.884  -1.178   5.027  0.8588  0.2072  0.4027
  705MOL0     C95084   9.026  -1.199   5.072 -0.6388  1.3826  0.0587
  705MOL0    Cl95085   9.054  -1.369   5.130  0.3652 -0.5404  0.2717
  705MOL0     C95086   8.041  -0.846   4.919  0.7090  0.0910 -1.0078
  705MOL0     C95087   7.925  -0.760   4.942  0.2128  0.2161 -0.4637
  705MOL0     O95088   7.644  -0.741   4.750 -0.6046 -0.5075 -0.7350
  705MOL0     C95089   7.488  -0.554   5.005  0.4886 -0.3614 -0.6413
  705MOL0     C95090   7.395  -0.457   5.029 -0.9319  0.6472 -0.5703
  705MOL0     N95091   6.969   0.332   4.658 -0.1950  0.0555  0.8858
  705MOL0     N95092   6.997   0.377   4.540  0.1939  0.2148 -0.4659
  705MOL0     C95093   7.745   0.324   5.063 -0.1844  0.0572  0.5088
  705MOL0     C95094   7.868   0.354   5.115  0.4575 -0.5982 -0.1173
  705MOL0     C95095   8.332   0.433   5.105 -1.0009  0.5703  0.4059
  705MOL0     C95096   8.409   0.543   5.068  0.8628  0.4149  0.2278
  705MOL0     C95097   8.535   0.569   5.105  0.3920  0.4292 -0.6681
  705MOL0     C95098   8.603   0.467   5.179  0.3597 -0.2022  0.2824
  705MOL0     O95099   8.725   0.489   5.233 -0.9058 -0.2509 -0.5308
  705MOL0     C95100   8.820   0.554   5.145  0.2738 -0.9198 -0.2388
  705MOL0     C95101   8.962   0.557   5.204  0.5492 -0.1597 -0.6435
  705MOL0     C95102   9.007   0.418   5.251  0.5095  0.1092 -0.0493
  705MOL0     C95103   9.154   0.407   5.291 -0.3593  0.0204 -0.1006
  705MOL0     C95104   9.179   0.303   5.385 -0.6637 -0.0827  0.2186
  705MOL0     C95105   9.206   0.227   5.472 -0.6615 -0.6889  0.6321
  705MOL0     C95106   8.546   0.344   5.207 -0.1215  0.0005 -0.7097
  705MOL0     C95107   8.404   0.323   5.173 -0.1404 -0.1955  0.0893
  705MOL0     H95108   8.059   0.235   4.863  1.1111  0.2206  1.6761
  705MOL0     H95109   7.836   0.172   4.778 -0.3080  0.0579  0.5199
  705MOL0     H95110   7.629   0.097   4.743 -1.9149 -0.0494 -3.4444
  705MOL0     H95111   7.459   0.141   4.791  0.0573 -0.1430  4.8384
  705MOL0     H95112   7.493   0.353   4.657 -0.0077  0.3753 -2.3784
  705MOL0     H95113   7.668   0.320   4.631  0.4183 -0.2352 -1.1564
  705MOL0     H95114   7.597   0.114   4.502 -0.3184 -0.9478  4.1645
  705MOL0     H95115   7.432   0.140   4.542 -2.0965  2.1050 -3.3725
  705MOL0     H95116   7.634   0.303   4.387  1.3210 -1.8125  1.0488
  705MOL0     H95117   7.493   0.227   4.320  2.9920 -0.6963 -0.9269
  705MOL0     H95118   7.461   0.485   4.487 -0.1698  0.2245  1.3013
  705MOL0     H95119   7.458   0.465   4.312 -0.4978  2.9181  0.5751
  705MOL0     H95120   7.286   0.336   4.531  0.7510  1.8880  0.5132
  705MOL0     H95121   7.226   0.466   4.423  0.3131  0.5061  0.6410
  705MOL0     H95122   7.276   0.293   4.234  1.2222  0.6696  0.2554
  705MOL0     H95123   7.260   0.177   4.357 -0.4690  0.5495  0.8470
  705MOL0     H95124   7.043   0.207   4.263  0.1909  1.3272 -1.0524
  705MOL0     H95125   7.029   0.380   4.311  0.2794  0.7426  1.4649
  705MOL0     H95126   7.062   0.052   4.501  1.5322  0.6763 -1.6801
  705MOL0     H95127   7.045   0.194   4.858  1.8072 -0.8566 -0.6894
  705MOL0     H95128   6.899   0.088   4.826 -0.7115  1.2806 -2.1211
  705MOL0     H95129   7.165   0.012   4.720 -0.9139  1.3583 -0.4013
  705MOL0     H95130   7.022  -0.075   4.721  4.1727 -0.7090 -2.9939
  705MOL0     H95131   7.029  -0.099   4.962 -0.0006 -0.5565 -0.3055
  705MOL0     H95132   7.187   0.001   4.970 -1.5425  2.3425 -1.5479
  705MOL0     H95133   7.261  -0.182   4.811  0.5090 -2.2987  0.2587
  705MOL0     H95134   7.106  -0.276   4.839  0.5627 -1.1671  0.7718
  705MOL0     H95135   7.350  -0.350   4.711  0.5788 -1.2388 -1.7618
  705MOL0     H95136   7.491  -0.637   4.601  1.3814 -0.4114  0.7200
  705MOL0     H95137   7.450  -0.473   4.559 -1.2218 -1.3311 -0.1643
  705MOL0     H95138   7.619  -0.520   4.592  0.1638 -2.3124 -1.5597
  705MOL0     H95139   7.698  -1.018   4.939  0.3564 -0.5704  0.3536
  705MOL0     H95140   7.897  -1.153   4.918 -1.3560 -0.7195  0.9454
  705MOL0     H95141   8.135  -1.197   5.042 -1.0525  1.0378  1.2169
  705MOL0     H95142   8.122  -1.231   4.867 -0.9494  0.3866  0.6219
  705MOL0     H95143   8.343  -1.314   4.995 -0.0768 -0.4818 -1.2813
  705MOL0     H95144   8.363  -1.209   4.854  0.8635  0.8026  0.5588
  705MOL0     H95145   8.368  -1.128   5.149  1.3889 -0.7226  1.7269
  705MOL0     H95146   8.418  -1.017   5.017 -1.1549 -0.2325  0.7240
  705MOL0     H95147   8.538  -1.286   5.100  2.2589  0.9006  2.2268
  705MOL0     H95148   8.578  -1.205   4.945  0.7819 -2.2567  0.2915
  705MOL0     H95149   8.607  -1.076   5.219 -1.5510  1.7706  0.1480
  705MOL0     H95150   8.656  -1.014   5.065 -0.9584 -1.2807 -0.6304
  705MOL0     H95151   8.835  -1.107   5.220  1.8359 -0.4114  0.2971
  705MOL0     H95152   8.769  -1.273   5.197  4.0245 -0.6073  0.1116
  705MOL0     H95153   8.894  -1.079   4.983  2.3677  0.2598  0.8020
  705MOL0     H95154   8.852  -1.256   4.957  0.6248  1.2804 -0.7148
  705MOL0     H95155   9.062  -1.137   5.154  0.1387 -0.7390  1.3981
  705MOL0     H95156   9.093  -1.186   4.986  1.7081 -0.8088  1.4238
  705MOL0     H95157   8.140  -0.801   4.918  0.4006  1.1348  2.5413
  705MOL0     H95158   7.941  -0.653   4.957 -0.4818  0.4318 -1.1593
  705MOL0     H95159   7.511  -0.618   5.090 -1.0463 -1.9884 -1.3971
  705MOL0     H95160   7.378  -0.436   5.134  1.4674 -0.0388  0.0325
  705MOL0     H95161   7.657   0.340   5.124 -0.4933  0.2643  0.0153
  705MOL0     H95162   7.878   0.383   5.220  0.5637  0.9054 -0.5211
  705MOL0     H95163   8.349   0.615   5.014 -1.1807 -0.5103  1.1542
  705MOL0     H95164   8.587   0.663   5.088 -0.0779  0.6018 -1.2124
  705MOL0     H95165   8.816   0.508   5.046  2.4004  2.3191 -1.9799
  705MOL0     H95166   8.782   0.655   5.128 -1.1926 -1.8285 -3.1485
  705MOL0     H95167   8.960   0.621   5.293  1.2225 -1.9506  0.7312
  705MOL0     H95168   9.043   0.586   5.137  1.4453  0.6617  0.7386
  705MOL0     H95169   8.998   0.363   5.157 -0.1366  2.2090 -1.2956
  705MOL0     H95170   8.934   0.382   5.324  0.9674 -1.5207 -0.3535
  705MOL0     H95171   9.201   0.497   5.332  2.7290 -1.6647  0.3675
  705MOL0     H95172   9.219   0.388   5.205 -0.4470 -2.0551  0.2428
  705MOL0     H95173   9.224   0.159   5.553 -1.8652  0.1402  1.6350
  705MOL0     H95174   8.611   0.273   5.256  1.8874  1.8617 -0.5589
  705MOL0     H95175   8.354   0.232   5.205  1.5708 -0.0940  3.5522
  706MOL0     O95176   0.555   6.956   1.980  0.5089 -0.0715  0.2844
  706MOL0     C95177   0.659   7.000   1.931 -0.4424 -0.4786  0.2948
  706MOL0     O95178   0.677   7.052   1.807  0.2620 -1.3073 -0.1212
  706MOL0     C95179   0.571   7.036   1.723 -0.8302  0.1452  0.2124
  706MOL0     C95180   0.533   6.912   1.663 -0.9900 -0.1260  0.4658
  706MOL0     C95181   0.420   6.899   1.575  0.0367 -0.4444 -0.4477
  706MOL0     C95182   0.328   7.012   1.556  0.0996 -1.0025  0.2755
  706MOL0     O95183   0.213   6.999   1.476  0.1503  0.1860 -0.8138
  706MOL0     C95184   0.132   7.111   1.439 -0.7876  0.4366  0.3007
  706MOL0     C95185  -0.012   7.084   1.386 -0.3424  0.1576  0.7517
  706MOL0     C95186  -0.076   6.973   1.473  1.1589 -0.0122 -0.1485
  706MOL0     C95187  -0.220   6.942   1.435  0.2491 -0.5862  0.2432
  706MOL0     C95188  -0.295   6.851   1.541 -0.1048  0.2749 -0.3484
  706MOL0     C95189  -0.382   6.743   1.476 -0.5030 -0.4796 -0.7005
  706MOL0     C95190  -0.521   6.797   1.470  0.1238 -1.1549 -0.6580
  706MOL0     C95191  -0.626   6.713   1.404 -0.6123  0.1412 -0.6680
  706MOL0     N95192  -0.619   6.717   1.262 -0.1715  0.2246 -0.1175
  706MOL0     C95193  -0.640   6.832   1.200 -0.4312  0.2083  0.6540
  706MOL0     C95194  -0.683   6.795   1.077  0.2566  0.0900  0.2780
  706MOL0     C95195  -0.729   6.889   0.967 -0.1860 -0.3858  0.8323
  706MOL0     C95196  -0.830   6.996   1.007  1.0705 -0.6418  0.6745
  706MOL0     C95197  -0.773   7.121   1.078 -0.0006  0.4716 -0.9844
  706MOL0     C95198  -0.879   7.216   1.129 -0.2797  0.2841 -0.5695
  706MOL0     O95199  -0.967   7.161   1.232  0.1317  0.0963  0.0128
  706MOL0     C95200  -0.911   7.122   1.357  0.1957  0.1398 -0.0582
  706MOL0     C95201  -0.984   7.027   1.423  0.1215 -1.2502 -0.3177
  706MOL0     C95202  -0.935   6.993   1.554 -1.3153 -0.0943 -0.0998
  706MOL0     C95203  -1.015   6.871   1.613 -0.5179 -0.6460  0.3974
  706MOL0     C95204  -0.835   7.066   1.623 -0.3424  0.1537 -0.8744
  706MOL0     C95205  -0.797   7.032   1.762  0.7961  0.4105  0.0130
  706MOL0     O95206  -0.666   7.060   1.783  0.5766  0.0716 -0.2055
  706MOL0     C95207  -0.623   7.043   1.905 -0.4698  0.0702 -0.3006
  706MOL0     C95208  -0.523   6.947   1.923  0.0052  0.2925  0.4943
  706MOL0     C95209  -0.458   6.936   2.046  0.2343 -0.6980 -0.6415
  706MOL0     C95210  -0.494   7.032   2.152 -0.8284  0.1260  0.3830
  706MOL0     O95211  -0.431   7.021   2.273  0.6450  0.0123 -0.0540
  706MOL0     C95212  -0.498   7.075   2.393 -0.6181 -0.3255 -0.5240
  706MOL0     C95213  -0.625   6.989   2.432 -0.1559  0.1952 -0.1572
  706MOL0     C95214  -0.679   7.007   2.570  0.7890 -0.7655 -0.3756
  706MOL0     C95215  -0.747   7.140   2.577  0.3091  0.0952 -0.2118
  706MOL0     C95216  -0.801   7.157   2.712  0.0158  0.2373 -0.0401
  706MOL0     C95217  -0.872   7.303   2.734  0.9690  0.2962 -0.0912
  706MOL0     C95218  -0.921   7.289   2.884  2.1072 -0.4527 -0.3557
  706MOL0     C95219  -1.006   7.413   2.918 -1.0787 -0.9495  0.5310
  706MOL0    Cl95220  -1.168   7.412   2.843 -0.5846  0.0985  0.0476
  706MOL0     C95221  -0.588   7.132   2.120 -0.6528 -0.0426 -0.6460
  706MOL0     C95222  -0.654   7.137   2.002 -0.2300 -0.6469 -0.1892
  706MOL0     O95223  -0.894   7.003   1.840 -0.7203  0.1890  0.3717
  706MOL0     C95224  -0.775   7.177   1.560  0.2555  0.1633  0.1521
  706MOL0     C95225  -0.807   7.197   1.426 -0.3510 -0.3448  0.3136
  706MOL0     N95226  -0.674   6.665   1.066  0.7346  0.5409 -0.5522
  706MOL0     N95227  -0.624   6.608   1.174  0.3071  0.0355 -0.2081
  706MOL0     C95228   0.374   7.130   1.613  0.2538  0.3180 -1.4072
  706MOL0     C95229   0.488   7.140   1.691  0.7471  0.2499 -0.4964
  706MOL0     C95230   0.779   6.985   2.017  0.0810 -0.7708 -0.2253
  706MOL0     C95231   0.894   7.058   2.007 -0.3360  0.0777 -0.2681
  706MOL0     C95232   1.014   7.038   2.082  0.1255 -0.0208  0.1111
  706MOL0     C95233   1.017   6.927   2.171  0.7200 -0.4907  0.5187
  706MOL0     O95234   1.122   6.915   2.250  0.2151  0.2088  0.5487
  706MOL0     C95235   1.118   6.871   2.385 -0.2374 -0.1314  0.1459
  706MOL0     C95236   1.093   7.003   2.484  0.0566 -0.3197 -0.4154
  706MOL0     C95237   1.198   7.112   2.451  0.7160 -0.1810 -0.6537
  706MOL0     C95238   1.335   7.078   2.499 -0.9591  0.4934 -0.6023
  706MOL0     C95239   1.433   7.121   2.400  0.9061  0.1214  0.1684
  706MOL0     C95240   1.510   7.184   2.324 -0.4130  0.0574  0.4721
  706MOL0     C95241   0.896   6.855   2.185  0.4958  1.0607 -0.0445
  706MOL0     C95242   0.781   6.885   2.115  0.3500 -0.3217 -0.9279
  706MOL0     H95243   0.590   6.822   1.685 -3.0648 -1.2811  1.4732
  706MOL0     H95244   0.387   6.802   1.540 -1.2308 -2.8522  6.0760
  706MOL0     H95245   0.117   7.185   1.518 -1.8767  1.7325 -1.0482
  706MOL0     H95246   0.193   7.167   1.367 -0.9430  0.4626  0.1889
  706MOL0     H95247  -0.073   7.173   1.400 -2.7515 -1.3166  0.1602
  706MOL0     H95248  -0.023   7.059   1.280  1.0433  1.4908  0.2557
  706MOL0     H95249  -0.007   6.888   1.481  0.0593 -0.8558  0.7699
  706MOL0     H95250  -0.074   7.006   1.577  2.7448 -0.6921  0.0568
  706MOL0     H95251  -0.264   7.041   1.423 -0.4856 -0.8777  0.4537
  706MOL0     H95252  -0.223   6.898   1.334 -0.3374  2.2125 -1.0601
  706MOL0     H95253  -0.213   6.786   1.573  1.2620  2.3036  0.4627
  706MOL0     H95254  -0.345   6.899   1.626 -1.8191 -2.4982  0.3709
  706MOL0     H95255  -0.353   6.725   1.372 -0.3553 -0.5021 -0.6560
  706MOL0     H95256  -0.363   6.655   1.537  0.1691 -0.3698 -0.7365
  706MOL0     H95257  -0.561   6.814   1.570  2.1717 -1.3585  0.2379
  706MOL0     H95258  -0.506   6.898   1.430  0.2658 -1.4153 -1.2794
  706MOL0     H95259  -0.722   6.750   1.440 -1.9484 -3.0792 -0.6056
  706MOL0     H95260  -0.615   6.607   1.429 -3.7401 -1.0774 -3.6242
  706MOL0     H95261  -0.611   6.930   1.235  2.6377 -0.6995  0.9760
  706MOL0     H95262  -0.642   6.941   0.926 -0.6492 -0.0055  0.3282
  706MOL0     H95263  -0.774   6.838   0.882 -0.7782  0.3661  0.6836
  706MOL0     H95264  -0.902   6.948   1.073  0.1010  1.3429  1.1524
  706MOL0     H95265  -0.891   7.028   0.922  0.8835  2.3699  1.8052
  706MOL0     H95266  -0.701   7.165   1.009  1.1453 -0.4246 -0.3889
  706MOL0     H95267  -0.709   7.096   1.163  1.0167  0.0417 -1.8710
  706MOL0     H95268  -0.938   7.241   1.041  1.7523 -2.9177 -3.0629
  706MOL0     H95269  -0.820   7.305   1.156 -0.5071  0.8600 -1.9219
  706MOL0     H95270  -1.069   6.988   1.369 -0.9731 -0.0055  0.4512
  706MOL0     H95271  -1.042   6.806   1.529 -1.6109 -0.3438  0.5068
  706MOL0     H95272  -0.967   6.798   1.680 -0.8583 -1.0331  0.2266
  706MOL0     H95273  -1.096   6.906   1.677  1.6152  3.6632  1.0927
  706MOL0     H95274  -0.510   6.883   1.836 -0.2938  3.0987 -1.7833
  706MOL0     H95275  -0.394   6.853   2.073 -3.0126 -3.7376 -1.4790
  706MOL0     H95276  -0.425   7.063   2.474 -0.9904  0.5869 -0.0424
  706MOL0     H95277  -0.517   7.182   2.400 -2.2338 -0.6799  1.6168
  706MOL0     H95278  -0.705   6.994   2.357 -0.1017  0.5287 -0.1953
  706MOL0     H95279  -0.592   6.886   2.420  0.6893  0.5244 -0.7950
  706MOL0     H95280  -0.598   6.992   2.641  1.8731  2.1796 -0.8621
  706MOL0     H95281  -0.756   6.931   2.590  0.0345  0.1535  0.2784
  706MOL0     H95282  -0.686   7.229   2.559 -0.0976  1.1267  2.9247
  706MOL0     H95283  -0.835   7.144   2.512 -0.4855 -3.1542  0.4859
  706MOL0     H95284  -0.721   7.140   2.785  1.1503  0.0996 -1.2896
  706MOL0     H95285  -0.865   7.069   2.729  3.0203 -2.3118 -0.9886
  706MOL0     H95286  -0.800   7.383   2.713 -3.1397  4.0789 -1.5160
  706MOL0     H95287  -0.955   7.322   2.665 -0.1325 -3.8294 -0.1603
  706MOL0     H95288  -0.835   7.280   2.950  2.4751 -4.3801 -1.1247
  706MOL0     H95289  -0.992   7.206   2.896 -1.8367  2.8059  1.5296
  706MOL0     H95290  -0.946   7.501   2.894 -0.3925 -0.9820  1.9650
  706MOL0     H95291  -1.024   7.411   3.026 -1.1290  2.6182  0.6838
  706MOL0     H95292  -0.611   7.211   2.191 -0.0326  1.0900 -1.6639
  706MOL0     H95293  -0.723   7.219   1.986  0.4727 -0.5713 -3.7376
  706MOL0     H95294  -0.693   7.237   1.599  1.4251 -0.4627 -1.2611
  706MOL0     H95295  -0.770   7.284   1.373  0.5472 -2.3320 -2.6276
  706MOL0     H95296   0.311   7.217   1.594 -2.6775 -1.5925 -1.1281
  706MOL0     H95297   0.512   7.238   1.733  1.0409 -0.0059 -0.0681
  706MOL0     H95298   0.903   7.133   1.929 -0.3780 -1.2675 -1.6263
  706MOL0     H95299   1.100   7.103   2.069  0.4813 -0.9702 -3.0470
  706MOL0     H95300   1.046   6.791   2.404  0.0923 -0.5550 -0.3432
  706MOL0     H95301   1.218   6.830   2.403 -0.2988  0.5941  2.5356
  706MOL0     H95302   1.109   6.971   2.588 -0.0148  0.5649 -0.1248
  706MOL0     H95303   0.991   7.037   2.468  0.2086 -0.5927 -2.1105
  706MOL0     H95304   1.177   7.208   2.499 -1.8467 -0.7623 -0.4237
  706MOL0     H95305   1.191   7.136   2.345 -0.9257 -3.4762 -1.4512
  706MOL0     H95306   1.348   6.975   2.535  1.9484  1.3300  1.0600
  706MOL0     H95307   1.362   7.134   2.589  1.1952 -3.2740  1.3734
  706MOL0     H95308   1.576   7.219   2.247 -2.3670  1.2881 -0.7216
  706MOL0     H95309   0.882   6.773   2.255  0.4621 -0.6400 -1.9509
  706MOL0     H95310   0.703   6.815   2.141  0.3509 -0.5662 -1.5762
  707MOL0     O95311  10.363   8.002   4.248  0.2998 -0.5689  0.3754
  707MOL0     C95312  10.305   7.927   4.163  0.0518 -0.0357  0.4115
  707MOL0     O95313  10.182   7.948   4.112 -0.7395 -1.1576  0.2264
  707MOL0     C95314  10.120   8.060   4.139  1.0208 -0.3823 -1.0660
  707MOL0     C95315  10.168   8.191   4.146 -0.1333  0.1993  0.2604
  707MOL0     C95316  10.074   8.306   4.152 -0.0343  0.1696 -0.0018
  707MOL0     C95317   9.940   8.286   4.168  1.5060  0.3699 -0.3436
  707MOL0     O95318   9.840   8.380   4.166 -0.8882  0.3273 -0.7635
  707MOL0     C95319   9.874   8.523   4.165 -0.7265 -0.8636 -0.2065
  707MOL0     C95320   9.747   8.593   4.179  0.4673 -0.0861  0.7894
  707MOL0     C95321   9.760   8.749   4.160 -0.3827  0.4492  0.0991
  707MOL0     C95322   9.628   8.816   4.147  0.0249  0.2857 -0.1436
  707MOL0     C95323   9.634   8.967   4.142 -0.2470 -0.7587 -0.4610
  707MOL0     C95324   9.496   9.015   4.102  0.3939 -0.3354 -0.8107
  707MOL0     C95325   9.491   9.169   4.080  0.0497  0.8047 -0.2064
  707MOL0     C95326   9.363   9.212   4.005 -0.1181  0.4882 -0.2681
  707MOL0     N95327   9.248   9.176   4.088 -0.0970  0.1401 -0.6887
  707MOL0     C95328   9.140   9.097   4.050 -0.4509  0.6557 -0.4514
  707MOL0     C95329   9.073   9.075   4.165  0.0051  0.3804 -0.5580
  707MOL0     C95330   8.953   8.992   4.183  0.3818 -0.5294 -0.2475
  707MOL0     C95331   8.838   9.034   4.086  1.8032  0.2044 -0.1086
  707MOL0     C95332   8.709   8.961   4.117  0.4862 -0.9443 -0.0356
  707MOL0     C95333   8.599   9.013   4.027  0.8333 -0.2720 -1.1019
  707MOL0     O95334   8.544   9.144   4.071  0.5084  0.0188 -0.0343
  707MOL0     C95335   8.461   9.229   3.990 -0.3701 -0.8037 -0.6334
  707MOL0     C95336   8.474   9.218   3.851  0.8884  0.3042 -0.2987
  707MOL0     C95337   8.383   9.294   3.770  0.2071  0.1407  0.8241
  707MOL0     C95338   8.387   9.276   3.623 -0.4584  0.5033  0.9107
  707MOL0     C95339   8.294   9.397   3.818 -0.4899  0.8536 -0.7524
  707MOL0     C95340   8.215   9.492   3.741 -1.0130 -1.4937  0.8963
  707MOL0     O95341   8.102   9.549   3.792  0.1268 -0.2724 -0.3108
  707MOL0     C95342   8.003   9.605   3.713 -0.1560  0.1140 -0.3605
  707MOL0     C95343   7.961   9.544   3.586  1.0098  0.0353 -0.1572
  707MOL0     C95344   7.854   9.605   3.513 -0.1271 -0.2912  0.3547
  707MOL0     C95345   7.779   9.714   3.565  0.1052 -0.7590  0.0863
  707MOL0     O95346   7.693   9.769   3.476 -0.0288 -0.2945 -1.1840
  707MOL0     C95347   7.583   9.845   3.524  0.3171 -0.6479  0.1545
  707MOL0     C95348   7.473   9.831   3.423  0.1292 -0.3017  0.5474
  707MOL0     C95349   7.416   9.688   3.436 -0.5239  0.2079  0.5735
  707MOL0     C95350   7.269   9.703   3.474 -0.6090  0.0911 -1.2396
  707MOL0     C95351   7.213   9.563   3.440  1.0838  0.1736 -0.6251
  707MOL0     C95352   7.057   9.550   3.481 -0.4207  0.0613 -0.8168
  707MOL0     C95353   7.002   9.414   3.422  0.6266  0.4407 -0.0504
  707MOL0     C95354   6.849   9.406   3.427  0.1619  0.2355  0.3521
  707MOL0    Cl95355   6.788   9.276   3.313  0.1108 -0.0341 -0.3963
  707MOL0     C95356   7.821   9.772   3.683  0.6726 -0.0360  0.5130
  707MOL0     C95357   7.933   9.719   3.756 -0.3658  0.1186 -0.1053
  707MOL0     O95358   8.271   9.526   3.638 -0.6367  0.1623  0.0236
  707MOL0     C95359   8.295   9.412   3.952 -0.8719 -0.8291 -0.2323
  707MOL0     C95360   8.370   9.334   4.039 -0.2805 -0.0583 -0.3844
  707MOL0     N95361   9.132   9.138   4.262  1.0481  0.6464 -0.3151
  707MOL0     N95362   9.223   9.212   4.216  0.0750 -0.4311  0.2902
  707MOL0     C95363   9.890   8.156   4.174  0.1981 -0.1508  0.4020
  707MOL0     C95364   9.976   8.049   4.152 -0.4268 -0.7741 -0.1700
  707MOL0     C95365  10.374   7.809   4.109 -0.4103  0.0069 -0.5733
  707MOL0     C95366  10.354   7.761   3.980 -0.3028  0.4416  1.0614
  707MOL0     C95367  10.414   7.640   3.939 -0.0479 -0.0580  0.3335
  707MOL0     C95368  10.485   7.561   4.026 -0.3450 -0.1085  0.7818
  707MOL0     O95369  10.536   7.444   3.976 -0.1008  0.4201  0.1274
  707MOL0     C95370  10.603   7.346   4.056  0.7503  0.5869  0.1914
  707MOL0     C95371  10.554   7.198   4.017 -0.1431 -0.0539 -0.1120
  707MOL0     C95372  10.558   7.137   3.875  0.5782 -0.8400  0.0958
  707MOL0     C95373  10.697   7.105   3.832  0.0286  0.0909 -0.3382
  707MOL0     C95374  10.740   6.974   3.886  0.4760 -0.3714 -0.2852
  707MOL0     C95375  10.783   6.881   3.945 -0.6172  0.7784  0.0054
  707MOL0     C95376  10.505   7.606   4.159  0.0593  0.7680  0.4736
  707MOL0     C95377  10.443   7.725   4.195  0.3764 -0.2241  0.4478
  707MOL0     H95378  10.268   8.211   4.112 -0.6609  1.5323 -0.5976
  707MOL0     H95379  10.101   8.411   4.145 -0.1861  0.1133 -1.8885
  707MOL0     H95380   9.936   8.556   4.249 -1.7522 -0.1286  0.2927
  707MOL0     H95381   9.923   8.555   4.072 -0.1428 -4.1171 -1.1283
  707MOL0     H95382   9.671   8.548   4.115  2.4354 -1.6198 -0.5708
  707MOL0     H95383   9.706   8.569   4.278  0.1089 -2.4057  0.1460
  707MOL0     H95384   9.820   8.780   4.247  0.9369 -2.5958  0.4419
  707MOL0     H95385   9.819   8.765   4.069 -0.8651  0.4748 -0.2074
  707MOL0     H95386   9.594   8.776   4.051  0.7989  1.6645 -1.0246
  707MOL0     H95387   9.555   8.787   4.223  1.9227  0.6692  1.9180
  707MOL0     H95388   9.657   9.001   4.243  0.7163 -1.4661 -0.4243
  707MOL0     H95389   9.718   8.995   4.078  0.6676  0.9176  1.3525
  707MOL0     H95390   9.474   8.963   4.008 -1.2018 -0.8814 -0.1807
  707MOL0     H95391   9.427   8.978   4.179 -0.3223 -2.2148 -2.2632
  707MOL0     H95392   9.501   9.216   4.178  0.4765 -0.3850  0.3366
  707MOL0     H95393   9.579   9.205   4.026 -0.9622  1.8858 -1.1895
  707MOL0     H95394   9.352   9.156   3.912 -0.0071 -1.2886  0.7516
  707MOL0     H95395   9.369   9.318   3.979  1.6719  0.0516 -1.8235
  707MOL0     H95396   9.101   9.065   3.954 -1.3994 -1.4792  0.5834
  707MOL0     H95397   8.985   8.889   4.166  3.9711  0.4996 -0.5200
  707MOL0     H95398   8.918   8.993   4.286  0.2221 -0.6717 -0.2998
  707MOL0     H95399   8.874   9.029   3.983 -0.9738  3.7249 -1.4402
  707MOL0     H95400   8.814   9.140   4.103  0.0751 -0.2379  0.4497
  707MOL0     H95401   8.676   8.987   4.218  0.5801  1.4598 -0.5549
  707MOL0     H95402   8.713   8.853   4.101  0.1934 -0.6792 -2.1864
  707MOL0     H95403   8.508   8.955   4.049 -0.3649  0.6374 -3.2804
  707MOL0     H95404   8.628   8.998   3.922  0.6474 -2.3594 -0.8906
  707MOL0     H95405   8.546   9.150   3.807 -0.0867 -0.6739 -0.4488
  707MOL0     H95406   8.429   9.358   3.564 -1.5572 -0.4293 -1.2788
  707MOL0     H95407   8.449   9.187   3.610 -1.2765  0.1706 -1.1540
  707MOL0     H95408   8.281   9.269   3.595 -0.2135 -3.1859  0.4322
  707MOL0     H95409   8.003   9.445   3.570  1.6992 -0.3895  3.3557
  707MOL0     H95410   7.818   9.560   3.420  0.6713  0.2609 -0.2399
  707MOL0     H95411   7.558   9.808   3.624 -2.5634 -0.2381 -0.3083
  707MOL0     H95412   7.608   9.950   3.541 -0.8426  0.2775 -3.0584
  707MOL0     H95413   7.396   9.907   3.442 -0.1686 -0.4385 -0.0956
  707MOL0     H95414   7.513   9.837   3.322 -0.9704 -2.0537 -0.0379
  707MOL0     H95415   7.461   9.624   3.512 -4.3839  0.8463  3.7584
  707MOL0     H95416   7.431   9.637   3.341  3.9392  0.6644  0.8403
  707MOL0     H95417   7.267   9.722   3.581 -0.1069  0.2689 -1.2601
  707MOL0     H95418   7.213   9.790   3.439  0.1673  2.6361  3.2021
  707MOL0     H95419   7.258   9.477   3.490 -4.6346 -3.6043 -0.9669
  707MOL0     H95420   7.220   9.551   3.332  1.8899 -0.8571 -0.4683
  707MOL0     H95421   7.037   9.538   3.588 -1.1187 -0.7624 -1.0197
  707MOL0     H95422   7.007   9.639   3.440  1.5916  0.8700 -1.6142
  707MOL0     H95423   7.041   9.331   3.482 -2.9110 -1.8315 -0.6382
  707MOL0     H95424   7.036   9.409   3.318 -2.0858  1.3850 -1.0701
  707MOL0     H95425   6.805   9.503   3.403 -4.5522 -1.5772  0.5620
  707MOL0     H95426   6.828   9.382   3.531  1.3603  2.5564  1.1856
  707MOL0     H95427   7.769   9.861   3.715  0.1497 -0.2024  0.1337
  707MOL0     H95428   7.964   9.772   3.846  3.1440  0.1739 -1.1939
  707MOL0     H95429   8.226   9.484   3.995 -2.6013 -1.9088 -1.0946
  707MOL0     H95430   8.373   9.341   4.148  0.8360 -2.6125 -0.1707
  707MOL0     H95431   9.784   8.135   4.187 -0.0899 -2.2909 -3.7249
  707MOL0     H95432   9.941   7.946   4.147 -0.9463 -0.5531 -2.6178
  707MOL0     H95433  10.296   7.815   3.906  0.9875  1.7003  0.9180
  707MOL0     H95434  10.391   7.603   3.839  0.8052  0.7465 -0.1783
  707MOL0     H95435  10.712   7.356   4.044  0.8783  1.1001  1.5722
  707MOL0     H95436  10.587   7.360   4.163  0.9614  0.4701  0.2410
  707MOL0     H95437  10.451   7.185   4.051 -0.4000  1.7466 -0.1181
  707MOL0     H95438  10.621   7.138   4.080  2.0156  2.3634  0.0824
  707MOL0     H95439  10.515   7.213   3.808 -0.2436 -0.0073  1.4958
  707MOL0     H95440  10.488   7.054   3.867  1.2378 -1.2872 -1.2070
  707MOL0     H95441  10.775   7.181   3.842  1.8919 -1.6577 -0.9190
  707MOL0     H95442  10.687   7.083   3.725 -0.0170 -2.0841  0.0626
  707MOL0     H95443  10.824   6.800   4.003  2.1100  1.2812 -1.0597
  707MOL0     H95444  10.567   7.552   4.231 -2.9798 -3.5182  0.2598
  707MOL0     H95445  10.446   7.751   4.300  3.9701 -0.7597  0.6129
  708MOL0     O95446  10.549   0.846   9.772  1.6441 -0.7065 -0.5168
  708MOL0     C95447  10.601   0.748   9.828 -0.0308 -0.3517 -1.2119
  708MOL0     O95448  10.550   0.684   9.939  0.5067 -0.0482  0.6127
  708MOL0     C95449  10.424   0.710   9.983  0.3529  0.1212  0.2284
  708MOL0     C95450  10.400   0.706  10.120  0.2635  0.1473 -0.1336
  708MOL0     C95451  10.265   0.706  10.172 -0.0463  0.1033  0.2577
  708MOL0     C95452  10.152   0.730  10.091 -0.8065  0.1798  0.7955
  708MOL0     O95453  10.024   0.756  10.142  0.5946 -0.1479  0.7366
  708MOL0     C95454  10.013   0.823  10.268  0.4666 -0.4583 -0.0115
  708MOL0     C95455   9.859   0.860  10.292  0.6574 -0.4430  0.8198
  708MOL0     C95456   9.786   0.935  10.176  0.2397 -0.6182 -0.1197
  708MOL0     C95457   9.823   1.081  10.165 -0.8539 -0.7563  0.0843
  708MOL0     C95458   9.719   1.159  10.087  0.9959 -0.0221  0.2632
  708MOL0     C95459   9.746   1.135   9.940  0.3577 -0.0210  0.2581
  708MOL0     C95460   9.673   1.241   9.860 -0.8184 -0.0334  0.8675
  708MOL0     C95461   9.683   1.238   9.706  0.1156 -0.0998 -0.3225
  708MOL0     N95462   9.608   1.345   9.648  0.2489 -0.1194 -0.1214
  708MOL0     C95463   9.471   1.375   9.680 -0.1876 -1.0540 -0.0603
  708MOL0     C95464   9.427   1.445   9.573  0.8231  0.4372 -0.7223
  708MOL0     C95465   9.278   1.481   9.546  0.1391  1.4183 -0.7347
  708MOL0     C95466   9.188   1.354   9.553  0.1907 -0.8164 -0.6317
  708MOL0     C95467   9.037   1.382   9.566 -0.1804  0.6026  0.5454
  708MOL0     C95468   9.006   1.453   9.698 -0.5640  0.1341  0.6354
  708MOL0     O95469   8.865   1.455   9.717  0.7536  0.3541  0.1255
  708MOL0     C95470   8.818   1.488   9.840  0.4847 -0.1593  0.3906
  708MOL0     C95471   8.689   1.452   9.877  0.1466  0.2838  1.0181
  708MOL0     C95472   8.621   1.482   9.997  0.1848 -0.0034  0.2483
  708MOL0     C95473   8.475   1.436  10.010 -0.4582  0.0738  0.1598
  708MOL0     C95474   8.685   1.564  10.097 -0.8984  0.1522 -0.7532
  708MOL0     C95475   8.617   1.613  10.228  0.1642 -0.7227 -0.2061
  708MOL0     O95476   8.497   1.576  10.275  0.2311  0.5120 -0.3478
  708MOL0     C95477   8.476   1.599  10.416  0.9316 -0.5324 -0.2493
  708MOL0     C95478   8.547   1.527  10.509 -0.4158  0.1666 -0.3585
  708MOL0     C95479   8.574   1.578  10.639  0.1179  0.0582  0.0111
  708MOL0     C95480   8.509   1.692  10.680 -0.2361 -0.0638  0.7067
  708MOL0     O95481   8.527   1.749  10.800 -0.0382  0.3366 -0.1744
  708MOL0     C95482   8.581   1.680  10.920  0.1722 -0.6226  0.4445
  708MOL0     C95483   8.723   1.714  10.934 -0.7796 -0.1036  0.4282
  708MOL0     C95484   8.796   1.589  10.976 -0.4221  1.1396 -0.4021
  708MOL0     C95485   8.935   1.614  11.028  0.0039  0.2983 -0.5881
  708MOL0     C95486   8.987   1.484  11.093  0.6323 -0.5427 -0.2304
  708MOL0     C95487   9.125   1.524  11.165  0.1900 -0.3102  0.5205
  708MOL0     C95488   9.143   1.653  11.248  0.1579  0.1456  0.1289
  708MOL0     C95489   9.061   1.643  11.374 -0.0225 -0.6254 -0.0587
  708MOL0    Cl95490   9.065   1.482  11.453  0.3009 -0.6586 -0.0086
  708MOL0     C95491   8.425   1.758  10.593  0.5382  0.4762  0.4264
  708MOL0     C95492   8.417   1.724  10.461  0.3414 -0.2918  0.3091
  708MOL0     O95493   8.680   1.702  10.279 -0.1230 -0.4953 -0.5177
  708MOL0     C95494   8.814   1.615  10.056 -0.3063  0.9695 -0.0998
  708MOL0     C95495   8.877   1.573   9.930 -0.6940 -0.8290  0.6886
  708MOL0     N95496   9.533   1.466   9.488  0.4131  0.1031 -0.0340
  708MOL0     N95497   9.642   1.414   9.535  0.3980 -0.4156 -0.3535
  708MOL0     C95498  10.177   0.734   9.954 -0.4252  0.6569 -0.6869
  708MOL0     C95499  10.314   0.730   9.903  0.0508 -0.2055  0.0544
  708MOL0     C95500  10.725   0.709   9.772 -0.7694 -0.2097  0.6094
  708MOL0     C95501  10.740   0.578   9.715 -0.9426  0.2173 -0.7363
  708MOL0     C95502  10.865   0.536   9.668 -0.2379  0.2491  0.2964
  708MOL0     C95503  10.969   0.627   9.659 -0.7896 -0.4921  0.3924
  708MOL0     O95504  11.081   0.577   9.601 -0.4274  0.0265  0.5745
  708MOL0     C95505  11.204   0.606   9.679 -0.0703  0.2354  0.2331
  708MOL0     C95506  11.310   0.656   9.586  0.2033  0.0228  0.0168
  708MOL0     C95507  11.449   0.614   9.625  0.3020  0.8243 -0.3921
  708MOL0     C95508  11.571   0.671   9.539  1.4145  0.0234  0.5496
  708MOL0     C95509  11.574   0.821   9.531  0.6839  0.1068 -0.5599
  708MOL0     C95510  11.569   0.939   9.532 -0.9677  0.2083  0.8052
  708MOL0     C95511  10.949   0.758   9.720 -1.0026  0.4425  0.4841
  708MOL0     C95512  10.825   0.800   9.770  0.1394 -0.2347 -0.1366
  708MOL0     H95513  10.491   0.676  10.171  0.2032 -0.4396 -0.3697
  708MOL0     H95514  10.249   0.697  10.279  1.4039 -0.3979  0.4502
  708MOL0     H95515  10.046   0.756  10.348 -2.3825 -1.4344  0.4600
  708MOL0     H95516  10.078   0.911  10.272 -1.1139  0.7410  0.1072
  708MOL0     H95517   9.820   0.760  10.314 -1.6806 -0.2679 -1.9356
  708MOL0     H95518   9.864   0.930  10.376  0.5518  2.3880 -1.3557
  708MOL0     H95519   9.817   0.879  10.087  2.3339  2.5142 -1.5463
  708MOL0     H95520   9.682   0.918  10.206  0.2604 -0.4595  0.0416
  708MOL0     H95521   9.836   1.117  10.268 -0.7581 -1.0275  0.1666
  708MOL0     H95522   9.917   1.088  10.110 -0.1861 -0.4678  1.2286
  708MOL0     H95523   9.617   1.124  10.109  0.3600  1.2282 -0.5477
  708MOL0     H95524   9.720   1.266  10.107 -0.3610  0.3832 -1.5762
  708MOL0     H95525   9.852   1.155   9.922  1.0111  0.5337  3.9667
  708MOL0     H95526   9.717   1.035   9.908  3.1799 -0.9457  0.3078
  708MOL0     H95527   9.566   1.238   9.883 -1.6647  0.1635 -2.6341
  708MOL0     H95528   9.718   1.335   9.892 -0.2153 -0.4893  1.3870
  708MOL0     H95529   9.634   1.144   9.676 -0.0233  0.2072 -1.0671
  708MOL0     H95530   9.790   1.239   9.684  0.0943  0.1430 -0.4129
  708MOL0     H95531   9.407   1.350   9.764  1.2550 -0.8486  1.1461
  708MOL0     H95532   9.240   1.553   9.618 -2.1339  0.1474 -0.5667
  708MOL0     H95533   9.269   1.530   9.448  0.8152  1.2429 -0.8916
  708MOL0     H95534   9.219   1.293   9.639  0.4684 -0.5304 -0.5254
  708MOL0     H95535   9.208   1.297   9.462  1.7641 -0.3953 -0.5815
  708MOL0     H95536   8.975   1.292   9.559  2.1338 -1.0526 -0.2679
  708MOL0     H95537   9.014   1.446   9.480  0.3303  2.7419  1.9527
  708MOL0     H95538   9.032   1.559   9.685 -5.8826  2.0284  2.4157
  708MOL0     H95539   9.052   1.404   9.784  0.6014 -2.8194 -1.5372
  708MOL0     H95540   8.655   1.396   9.791 -0.5034  0.7183  0.9835
  708MOL0     H95541   8.429   1.458   9.913  1.2562  1.0831 -0.4821
  708MOL0     H95542   8.473   1.327  10.020 -0.6546 -0.0916 -1.4615
  708MOL0     H95543   8.400   1.472  10.080 -1.4022 -1.6531  0.0824
  708MOL0     H95544   8.612   1.452  10.465  1.3289  1.7927 -0.6815
  708MOL0     H95545   8.648   1.537  10.708  2.2019  4.9629  1.2266
  708MOL0     H95546   8.518   1.707  11.005  0.2820  0.2782  0.2520
  708MOL0     H95547   8.560   1.574  10.908 -4.0746  0.1595 -0.8670
  708MOL0     H95548   8.771   1.746  10.842  1.5551  1.4149  2.0644
  708MOL0     H95549   8.717   1.799  11.003 -3.7226 -0.8674  1.2957
  708MOL0     H95550   8.814   1.518  10.895  0.2616 -0.7089  1.2690
  708MOL0     H95551   8.741   1.542  11.059  0.6103 -2.0193 -1.3411
  708MOL0     H95552   9.003   1.647  10.949 -1.3686 -0.6339 -2.2415
  708MOL0     H95553   8.927   1.687  11.109 -0.8908  0.6681 -0.9788
  708MOL0     H95554   9.001   1.406  11.019 -0.8299  0.0678 -1.1999
  708MOL0     H95555   8.910   1.450  11.163 -0.9053  1.2893 -0.9194
  708MOL0     H95556   9.159   1.435  11.217 -1.1415  0.2904  2.5488
  708MOL0     H95557   9.192   1.549  11.082  1.1094 -1.2928  0.9506
  708MOL0     H95558   9.113   1.741  11.190  0.4135  1.8518  2.4409
  708MOL0     H95559   9.244   1.678  11.282 -0.0778  0.1247  0.8768
  708MOL0     H95560   8.961   1.678  11.347 -0.5844 -0.2433  2.2697
  708MOL0     H95561   9.094   1.714  11.450  2.2421 -2.3894  0.7487
  708MOL0     H95562   8.382   1.850  10.631 -2.0391 -0.9395  1.1270
  708MOL0     H95563   8.360   1.790  10.395  2.1419  1.0496  0.0021
  708MOL0     H95564   8.873   1.686  10.113  0.8645  0.4192 -0.5858
  708MOL0     H95565   8.978   1.610   9.915 -0.5009 -1.2224  1.0067
  708MOL0     H95566  10.093   0.733   9.885  0.4390 -1.5756 -1.8049
  708MOL0     H95567  10.319   0.723   9.795  2.8852 -4.5347  0.2438
  708MOL0     H95568  10.665   0.500   9.721 -0.1390 -0.9150 -3.6543
  708MOL0     H95569  10.870   0.438   9.622 -1.1236  0.2406  0.1938
  708MOL0     H95570  11.194   0.674   9.765 -1.8479  0.3572 -0.0407
  708MOL0     H95571  11.232   0.518   9.738 -0.1418  0.5107  0.6842
  708MOL0     H95572  11.308   0.766   9.585 -0.3480  0.0348 -1.9362
  708MOL0     H95573  11.294   0.607   9.490  2.3498 -0.4268 -0.1690
  708MOL0     H95574  11.450   0.506   9.606 -0.7998 -0.3102  4.6728
  708MOL0     H95575  11.474   0.635   9.729 -1.1950  0.8545 -0.0156
  708MOL0     H95576  11.564   0.625   9.439 -0.6416  3.3347 -0.9900
  708MOL0     H95577  11.666   0.635   9.581  0.8589 -0.9774  0.9980
  708MOL0     H95578  11.559   1.045   9.548 -1.7248  0.2857 -0.0467
  708MOL0     H95579  11.040   0.818   9.717 -0.0801 -0.7632  2.5493
  708MOL0     H95580  10.817   0.905   9.795 -1.6914 -0.3227 -0.2030
  709MOL0     O95581   2.047   4.787   8.743 -0.2276 -0.5193  0.3980
  709MOL0     C95582   2.160   4.811   8.703  0.0327  0.8423  0.0324
  709MOL0     O95583   2.194   4.894   8.594 -0.4219  0.0166  0.2946
  709MOL0     C95584   2.097   4.969   8.533  0.2816 -0.4980  0.5878
  709MOL0     C95585   2.020   5.054   8.605 -0.2070 -0.6735 -0.1978
  709MOL0     C95586   1.932   5.137   8.545  0.2675 -1.2677  0.1226
  709MOL0     C95587   1.909   5.143   8.407  0.1181 -0.4529 -0.6621
  709MOL0     O95588   1.804   5.216   8.355  0.1284 -0.3282 -0.1229
  709MOL0     C95589   1.781   5.232   8.217  0.2950 -0.1206 -0.4217
  709MOL0     C95590   1.653   5.309   8.175  1.8680  0.6734  0.0759
  709MOL0     C95591   1.547   5.328   8.282 -0.2873 -0.0052 -0.2215
  709MOL0     C95592   1.411   5.376   8.229  0.5244 -0.6970 -0.1563
  709MOL0     C95593   1.330   5.438   8.346 -0.0538  0.3220 -0.0347
  709MOL0     C95594   1.199   5.483   8.293 -0.2195  0.4197 -0.0099
  709MOL0     C95595   1.130   5.551   8.413 -0.3409  0.6193 -0.4348
  709MOL0     C95596   1.006   5.624   8.366  0.7361 -0.6042  0.2738
  709MOL0     N95597   0.897   5.529   8.323 -0.1351 -0.7047 -0.3264
  709MOL0     C95598   0.880   5.469   8.205 -0.3928  0.0767 -0.1381
  709MOL0     C95599   0.766   5.402   8.216  0.7319 -0.9343  0.8596
  709MOL0     C95600   0.713   5.310   8.106 -0.6341 -0.0246  0.0579
  709MOL0     C95601   0.784   5.178   8.090 -0.4898 -1.0841 -0.2431
  709MOL0     C95602   0.709   5.065   8.018 -0.3143  0.0984  0.0707
  709MOL0     C95603   0.792   4.938   8.008  0.6831  1.3546  0.8536
  709MOL0     O95604   0.705   4.832   7.965  0.2716  0.0430 -0.1138
  709MOL0     C95605   0.757   4.714   7.937  0.5185 -0.0348  0.4832
  709MOL0     C95606   0.663   4.624   7.879  0.4847 -0.0315 -0.7352
  709MOL0     C95607   0.696   4.487   7.844 -0.3054 -0.7959 -0.3698
  709MOL0     C95608   0.593   4.394   7.802  1.0075 -0.0886 -0.0994
  709MOL0     C95609   0.834   4.459   7.836  0.1605 -0.3331 -0.8498
  709MOL0     C95610   0.873   4.341   7.754 -0.6082 -0.0149 -0.3088
  709MOL0     O95611   0.996   4.295   7.794 -0.0646 -0.2694  0.1355
  709MOL0     C95612   1.082   4.217   7.715  0.0469 -0.3009 -0.1608
  709MOL0     C95613   1.146   4.102   7.769 -0.5476  0.8615  0.3207
  709MOL0     C95614   1.233   4.025   7.685 -0.5709 -0.8816 -0.8325
  709MOL0     C95615   1.271   4.060   7.556 -0.2274  0.8045 -0.0972
  709MOL0     O95616   1.356   3.990   7.480 -0.0998 -0.2126  0.0856
  709MOL0     C95617   1.470   3.919   7.542 -0.2732 -0.6580  0.8143
  709MOL0     C95618   1.483   3.770   7.545  1.2959  0.3417 -0.2561
  709MOL0     C95619   1.500   3.694   7.412 -0.5657  0.3798 -0.5139
  709MOL0     C95620   1.625   3.737   7.333 -0.3029  0.2772  0.5581
  709MOL0     C95621   1.757   3.689   7.398 -0.0463 -0.7409  0.4637
  709MOL0     C95622   1.870   3.640   7.305  0.2467 -0.3115  0.0599
  709MOL0     C95623   1.999   3.634   7.379  0.4575  0.3518 -0.1717
  709MOL0     C95624   2.110   3.588   7.283 -0.4953 -0.5695  0.4680
  709MOL0    Cl95625   2.102   3.413   7.243 -0.0093 -0.3384  0.4440
  709MOL0     C95626   1.210   4.173   7.505  0.1010  0.3749  0.2325
  709MOL0     C95627   1.109   4.246   7.582  0.7023  0.8702 -0.0305
  709MOL0     O95628   0.825   4.326   7.640 -0.1585  0.2046  0.0038
  709MOL0     C95629   0.928   4.547   7.885 -0.0662 -0.0176  1.0063
  709MOL0     C95630   0.891   4.671   7.937  0.1598  0.5485  0.1441
  709MOL0     N95631   0.716   5.431   8.340  0.7250  0.3234  0.1048
  709MOL0     N95632   0.792   5.507   8.405 -0.2864  0.1848 -0.3512
  709MOL0     C95633   1.986   5.058   8.328 -0.2673  0.1963 -0.7308
  709MOL0     C95634   2.079   4.965   8.396  0.7541 -0.3015  0.1179
  709MOL0     C95635   2.264   4.741   8.778 -0.1613 -0.1467  0.2731
  709MOL0     C95636   2.396   4.757   8.726  0.1906  0.0058 -0.7516
  709MOL0     C95637   2.503   4.688   8.780 -0.3530 -0.2702  0.3658
  709MOL0     C95638   2.489   4.604   8.897 -0.2980  0.1339 -0.0153
  709MOL0     O95639   2.602   4.550   8.944 -0.6629 -0.0508  0.0503
  709MOL0     C95640   2.611   4.481   9.068 -0.3027 -0.0588  0.0450
  709MOL0     C95641   2.571   4.327   9.063 -0.4659  0.2539 -0.4422
  709MOL0     C95642   2.639   4.236   8.964  0.3227  0.1122  0.3299
  709MOL0     C95643   2.591   4.090   8.977  1.0413  0.2695  0.4033
  709MOL0     C95644   2.443   4.077   8.952  0.1390  0.7299  0.4023
  709MOL0     C95645   2.325   4.058   8.947  0.8398 -0.3153 -0.7884
  709MOL0     C95646   2.353   4.586   8.950  0.2222  0.5388 -0.1594
  709MOL0     C95647   2.245   4.655   8.888 -0.6533  0.2405 -0.7179
  709MOL0     H95648   2.016   5.035   8.712 -1.1420 -1.2657 -0.3336
  709MOL0     H95649   1.865   5.210   8.590  0.8206 -0.1330 -0.8380
  709MOL0     H95650   1.863   5.282   8.164  0.8679 -1.9880 -1.3897
  709MOL0     H95651   1.768   5.134   8.171 -0.9216  0.2851 -0.9900
  709MOL0     H95652   1.676   5.412   8.148  0.0737  1.5519  1.6352
  709MOL0     H95653   1.604   5.255   8.093 -0.6533  1.8724  0.6765
  709MOL0     H95654   1.522   5.229   8.322 -0.3843  0.4166  0.8055
  709MOL0     H95655   1.588   5.382   8.368  1.3495 -1.5542  0.0388
  709MOL0     H95656   1.418   5.456   8.155 -1.5475  1.2501  1.6304
  709MOL0     H95657   1.356   5.291   8.187 -2.2333 -0.1846  2.1478
  709MOL0     H95658   1.313   5.358   8.419 -0.8616 -0.0290 -0.5973
  709MOL0     H95659   1.393   5.519   8.386 -0.5382 -0.2102  1.9512
  709MOL0     H95660   1.220   5.551   8.210  1.3419  0.5820  0.4753
  709MOL0     H95661   1.145   5.393   8.260 -0.0529  0.5719 -0.7019
  709MOL0     H95662   1.107   5.483   8.495  2.3434  0.3435  0.1761
  709MOL0     H95663   1.196   5.629   8.452  1.8653 -1.5989  0.5126
  709MOL0     H95664   1.032   5.704   8.295  2.3271 -1.5689 -0.2852
  709MOL0     H95665   0.962   5.672   8.454  0.0373  0.1160 -0.4410
  709MOL0     H95666   0.949   5.477   8.122  1.6311 -0.0454  1.4670
  709MOL0     H95667   0.609   5.286   8.129 -0.4880 -0.3551  0.3811
  709MOL0     H95668   0.714   5.372   8.016 -1.5958  0.2637  0.2398
  709MOL0     H95669   0.818   5.148   8.189 -1.2140  2.5192  1.2916
  709MOL0     H95670   0.873   5.196   8.029 -0.2688  1.3070  0.6733
  709MOL0     H95671   0.692   5.091   7.912  1.9768 -3.1940 -1.2503
  709MOL0     H95672   0.613   5.038   8.062  0.0695 -1.8773 -0.2414
  709MOL0     H95673   0.832   4.911   8.107 -0.9070  0.4757  1.2960
  709MOL0     H95674   0.867   4.954   7.930 -2.7548 -0.0294 -3.1059
  709MOL0     H95675   0.566   4.669   7.860 -0.3019 -1.2128  0.3225
  709MOL0     H95676   0.599   4.289   7.834  0.8760 -0.2698 -0.6513
  709MOL0     H95677   0.498   4.434   7.838  0.5333  0.6841 -2.1007
  709MOL0     H95678   0.574   4.384   7.695 -2.1693  0.6854  0.2844
  709MOL0     H95679   1.133   4.077   7.874 -0.1871 -1.1894 -0.0817
  709MOL0     H95680   1.267   3.927   7.717  1.9566 -0.3539 -1.6874
  709MOL0     H95681   1.553   3.955   7.479  0.3385 -2.2216  0.6819
  709MOL0     H95682   1.484   3.981   7.631  1.3096  3.2815 -1.8888
  709MOL0     H95683   1.562   3.747   7.617  2.0148  1.0980 -0.7917
  709MOL0     H95684   1.382   3.743   7.577 -0.0766  1.7448 -3.1003
  709MOL0     H95685   1.410   3.724   7.358  1.3230  3.1074 -2.4683
  709MOL0     H95686   1.505   3.585   7.421 -2.0396  0.3776  0.5082
  709MOL0     H95687   1.612   3.665   7.251  1.9706 -0.6721  0.9673
  709MOL0     H95688   1.623   3.840   7.299 -2.0485 -0.1033 -0.5980
  709MOL0     H95689   1.733   3.613   7.472  0.7710  0.2605  1.8237
  709MOL0     H95690   1.779   3.783   7.451  0.8589 -0.6281 -0.0920
  709MOL0     H95691   1.841   3.545   7.259 -2.9056  1.2804 -1.5957
  709MOL0     H95692   1.873   3.710   7.220  1.7054 -2.6686 -1.9858
  709MOL0     H95693   1.989   3.557   7.456 -0.2486  0.2747 -0.3370
  709MOL0     H95694   2.021   3.732   7.423  0.0082 -0.0167  0.9095
  709MOL0     H95695   2.200   3.607   7.342  0.2809 -0.8826 -0.5860
  709MOL0     H95696   2.113   3.647   7.192  0.1471 -1.5740 -0.1894
  709MOL0     H95697   1.238   4.203   7.405  2.4503  3.3593  1.6449
  709MOL0     H95698   1.054   4.327   7.537  0.5539  0.6582 -0.2307
  709MOL0     H95699   1.035   4.528   7.881 -0.2327 -1.0798  1.3298
  709MOL0     H95700   0.955   4.752   7.971  1.3099  0.1231 -0.9290
  709MOL0     H95701   1.981   5.057   8.219 -1.2233  0.8116 -0.7102
  709MOL0     H95702   2.126   4.895   8.327 -0.7874 -0.7997 -0.4675
  709MOL0     H95703   2.416   4.828   8.646 -1.3422 -1.2510 -2.3364
  709MOL0     H95704   2.602   4.687   8.735 -1.2001  0.3429 -1.6224
  709MOL0     H95705   2.716   4.485   9.098 -1.1631 -0.1858  3.4352
  709MOL0     H95706   2.561   4.515   9.159  0.7822  1.8735 -0.0482
  709MOL0     H95707   2.465   4.327   9.040 -0.9335 -2.0441  1.3577
  709MOL0     H95708   2.590   4.289   9.164 -0.1964 -1.4479 -1.1005
  709MOL0     H95709   2.745   4.227   8.986  0.0854  0.6991  1.8282
  709MOL0     H95710   2.634   4.279   8.863 -0.6736 -0.8707 -0.0684
  709MOL0     H95711   2.610   4.055   9.079  0.9217 -2.1515 -0.3480
  709MOL0     H95712   2.637   4.021   8.906 -1.1324 -0.6975 -0.1491
  709MOL0     H95713   2.219   4.045   8.952  0.6838  0.8502 -0.6375
  709MOL0     H95714   2.335   4.519   9.033 -1.5518  0.4549 -0.5768
  709MOL0     H95715   2.148   4.645   8.936 -0.3130  2.0535  0.4189
  710MOL0     O95716   9.700   5.121  10.906 -0.7423  0.6419  0.6026
  710MOL0     C95717   9.785   5.180  10.832 -0.0611  0.1103 -0.0975
  710MOL0     O95718   9.759   5.241  10.722  0.0040 -0.0805 -0.3212
  710MOL0     C95719   9.628   5.238  10.688  0.5736  0.0078  0.2525
  710MOL0     C95720   9.554   5.368  10.682  0.3872 -0.4725  0.6655
  710MOL0     C95721   9.416   5.374  10.651  0.0264  0.2055  0.1987
  710MOL0     C95722   9.349   5.251  10.627 -0.0883 -0.4242 -0.6590
  710MOL0     O95723   9.221   5.264  10.590 -0.1512 -0.0884  0.5352
  710MOL0     C95724   9.159   5.148  10.533 -0.0292  0.2170  0.1801
  710MOL0     C95725   9.019   5.178  10.488 -0.3411 -0.4811  0.0777
  710MOL0     C95726   8.999   5.273  10.363  0.3509  0.2427 -0.0890
  710MOL0     C95727   8.855   5.310  10.329 -1.2487  0.0795  0.4048
  710MOL0     C95728   8.754   5.196  10.328 -0.0403  0.0309  0.7541
  710MOL0     C95729   8.616   5.257  10.290  0.1425 -0.1173 -0.4923
  710MOL0     C95730   8.493   5.172  10.310  0.0450 -0.1505 -0.5449
  710MOL0     C95731   8.374   5.245  10.249 -0.3479  0.0583  0.0609
  710MOL0     N95732   8.260   5.157  10.233  0.1674 -0.0601  0.2640
  710MOL0     C95733   8.248   5.022  10.192  0.2007  0.0070 -0.8140
  710MOL0     C95734   8.116   4.995  10.196 -0.3485 -1.3259 -0.5092
  710MOL0     C95735   8.055   4.853  10.178  0.5711 -0.9284  0.0219
  710MOL0     C95736   8.079   4.766  10.309 -0.2707  0.2039  0.1574
  710MOL0     C95737   8.009   4.840  10.429 -0.2939 -0.0620 -0.1111
  710MOL0     C95738   8.036   4.772  10.570 -0.2829 -0.6658 -0.8936
  710MOL0     O95739   8.169   4.748  10.612  0.5584 -0.6973 -0.3102
  710MOL0     C95740   8.176   4.715  10.745 -0.0853 -0.0865 -0.2423
  710MOL0     C95741   8.162   4.807  10.854 -1.4385 -0.2133  0.2481
  710MOL0     C95742   8.174   4.769  10.985  0.2511  0.1926 -0.5324
  710MOL0     C95743   8.163   4.878  11.093  0.6906  0.4671  0.6306
  710MOL0     C95744   8.199   4.632  11.016  0.7677 -0.0687 -0.2397
  710MOL0     C95745   8.235   4.579  11.153  0.0709 -0.0270  0.2719
  710MOL0     O95746   8.345   4.498  11.149 -0.0754  0.2921  0.4597
  710MOL0     C95747   8.400   4.452  11.268 -0.1444  0.5989  0.2023
  710MOL0     C95748   8.447   4.550  11.355  0.0653 -0.0766 -0.9741
  710MOL0     C95749   8.508   4.520  11.473 -0.3610  0.4398  0.1684
  710MOL0     C95750   8.525   4.393  11.519  0.5498 -0.0908 -0.0291
  710MOL0     O95751   8.592   4.381  11.637 -0.3758 -0.5360 -0.8285
  710MOL0     C95752   8.582   4.254  11.713 -0.5630  0.2328  0.7317
  710MOL0     C95753   8.698   4.160  11.658 -0.4682 -0.5525  0.1927
  710MOL0     C95754   8.831   4.228  11.644  0.3858  0.1310 -0.2923
  710MOL0     C95755   8.888   4.268  11.778 -0.3285 -1.0302  0.6891
  710MOL0     C95756   8.996   4.377  11.754 -0.7467 -0.0142  0.5456
  710MOL0     C95757   9.114   4.307  11.693 -0.8318  0.6207 -0.5963
  710MOL0     C95758   9.221   4.411  11.671 -0.4982 -0.2436 -0.4497
  710MOL0     C95759   9.338   4.350  11.596 -0.1000 -0.8825 -0.6617
  710MOL0    Cl95760   9.288   4.292  11.440 -0.1152 -0.0813  0.1059
  710MOL0     C95761   8.462   4.291  11.442  0.4129 -0.0049  0.1298
  710MOL0     C95762   8.391   4.326  11.327 -0.2569 -0.5529  0.6381
  710MOL0     O95763   8.171   4.614  11.253  0.8077 -0.0577  0.0311
  710MOL0     C95764   8.208   4.537  10.906  0.0082 -0.4464 -0.4280
  710MOL0     C95765   8.191   4.581  10.774 -0.2940 -0.8212  0.2224
  710MOL0     N95766   8.050   5.112  10.234 -0.2940  0.2826 -0.2047
  710MOL0     N95767   8.132   5.201  10.253 -0.4330 -0.2670 -0.1212
  710MOL0     C95768   9.422   5.125  10.637 -0.2650 -0.8127  1.3949
  710MOL0     C95769   9.559   5.120  10.663 -0.0800  0.7190  0.2519
  710MOL0     C95770   9.914   5.197  10.890 -1.5792  0.3978  0.6445
  710MOL0     C95771   9.934   5.208  11.022 -0.7422  0.1355  0.6811
  710MOL0     C95772  10.064   5.220  11.061  0.3156 -0.0574 -0.7098
  710MOL0     C95773  10.174   5.206  10.990 -0.5325  0.1614  0.3042
  710MOL0     O95774  10.299   5.196  11.056  0.4694 -0.7437  0.3810
  710MOL0     C95775  10.418   5.188  10.992 -0.7917 -0.3091 -0.0385
  710MOL0     C95776  10.478   5.051  11.028  0.8572 -0.3037  0.4882
  710MOL0     C95777  10.378   4.939  11.037 -0.4112  0.4210 -0.1763
  710MOL0     C95778  10.452   4.806  11.062  0.5802  0.0779  0.6441
  710MOL0     C95779  10.492   4.760  10.929  0.3297 -0.0074  0.1193
  710MOL0     C95780  10.541   4.712  10.832 -0.5710 -0.8977  0.4033
  710MOL0     C95781  10.155   5.219  10.849 -0.2474  0.6452  0.3488
  710MOL0     C95782  10.027   5.213  10.803 -0.2979 -0.2877  1.0522
  710MOL0     H95783   9.607   5.456  10.713  0.0573 -0.5531  1.4735
  710MOL0     H95784   9.358   5.465  10.646 -1.7078 -0.8601  0.1587
  710MOL0     H95785   9.210   5.117  10.441 -0.8015  2.9200 -1.2626
  710MOL0     H95786   9.153   5.066  10.606  2.3636  0.0435  0.2708
  710MOL0     H95787   8.971   5.082  10.466 -0.2773 -0.6132  0.5079
  710MOL0     H95788   8.968   5.230  10.570  1.5797  1.1416  0.3050
  710MOL0     H95789   9.066   5.359  10.374  1.9257 -1.1095  1.7381
  710MOL0     H95790   9.049   5.217  10.284 -1.2588 -1.2756 -0.0999
  710MOL0     H95791   8.821   5.386  10.401  0.7259  0.6767  0.7655
  710MOL0     H95792   8.859   5.349  10.227  0.0237  2.1790  1.1968
  710MOL0     H95793   8.789   5.122  10.256 -0.8243 -1.4612  1.8532
  710MOL0     H95794   8.745   5.141  10.422 -0.8079 -1.2495 -0.0262
  710MOL0     H95795   8.600   5.348  10.349 -0.7231 -0.1976 -0.5880
  710MOL0     H95796   8.620   5.287  10.185 -0.1094  0.8183 -0.2413
  710MOL0     H95797   8.507   5.075  10.261  2.5801 -0.7931  1.2105
  710MOL0     H95798   8.472   5.155  10.417  0.1016 -1.9922 -0.7828
  710MOL0     H95799   8.397   5.282  10.149  0.0955 -0.2067  0.0608
  710MOL0     H95800   8.362   5.331  10.316  1.2432  1.1526 -0.9837
  710MOL0     H95801   8.329   4.956  10.164 -0.3863 -0.0812 -2.3842
  710MOL0     H95802   7.947   4.865  10.163  0.3564  3.1198  3.0144
  710MOL0     H95803   8.104   4.806  10.093  0.2440  1.1812 -1.4020
  710MOL0     H95804   8.185   4.780  10.333 -1.1172  0.2001  4.5838
  710MOL0     H95805   8.060   4.658  10.299 -0.6982  0.3912 -1.2549
  710MOL0     H95806   7.902   4.849  10.408 -1.0416  0.4046  3.3443
  710MOL0     H95807   8.052   4.941  10.427  1.7789 -0.9030 -0.9195
  710MOL0     H95808   7.985   4.675  10.563 -0.3264 -0.6695 -0.5038
  710MOL0     H95809   7.985   4.836  10.643  1.7989  1.6056 -1.2855
  710MOL0     H95810   8.151   4.908  10.817  1.1980 -0.2212 -0.8089
  710MOL0     H95811   8.216   4.841  11.181  1.5700 -2.6040 -1.0398
  710MOL0     H95812   8.201   4.971  11.049  0.5811  1.1402  1.9075
  710MOL0     H95813   8.056   4.887  11.113  0.4759 -0.8221  0.1704
  710MOL0     H95814   8.443   4.655  11.327  2.4531 -0.9733 -5.6461
  710MOL0     H95815   8.539   4.599  11.541 -1.0042  2.9593 -2.2970
  710MOL0     H95816   8.603   4.271  11.819  2.3753 -0.6976  0.3903
  710MOL0     H95817   8.481   4.214  11.696 -1.0869  0.4109  3.1158
  710MOL0     H95818   8.707   4.073  11.724  2.2176 -1.1096 -0.7563
  710MOL0     H95819   8.662   4.118  11.564 -1.2550  1.6964 -0.5707
  710MOL0     H95820   8.819   4.320  11.587  0.2694  1.7766  2.2428
  710MOL0     H95821   8.890   4.152  11.591 -1.6708 -3.0762  1.6176
  710MOL0     H95822   8.815   4.318  11.843  0.2448  4.5404 -2.3644
  710MOL0     H95823   8.936   4.183  11.827  1.7228 -0.6401 -0.5343
  710MOL0     H95824   9.023   4.434  11.843 -0.0176  1.0702 -0.3397
  710MOL0     H95825   8.966   4.451  11.679  1.8332  2.2656  1.6096
  710MOL0     H95826   9.152   4.232  11.763  1.4613  1.6712 -0.6165
  710MOL0     H95827   9.092   4.264  11.595 -0.3985  1.5365 -1.1135
  710MOL0     H95828   9.260   4.442  11.768 -1.5389 -2.5795  0.7847
  710MOL0     H95829   9.178   4.489  11.606 -1.0192  0.3334  0.5628
  710MOL0     H95830   9.374   4.265  11.654  0.5125 -1.6140 -2.0656
  710MOL0     H95831   9.426   4.416  11.594  0.1555 -1.2112 -0.2619
  710MOL0     H95832   8.454   4.190  11.483  1.7277  0.8567  2.7843
  710MOL0     H95833   8.339   4.244  11.278  0.1401 -0.4406  0.0213
  710MOL0     H95834   8.221   4.430  10.922 -4.1678 -0.9671  0.9416
  710MOL0     H95835   8.208   4.502  10.702  2.7776 -2.8402  2.8698
  710MOL0     H95836   9.366   5.032  10.640  0.3298 -1.2460 -0.1277
  710MOL0     H95837   9.619   5.030  10.660  1.1693  1.5339 -1.7958
  710MOL0     H95838   9.861   5.211  11.102  0.3054 -0.2414  1.6776
  710MOL0     H95839  10.069   5.241  11.167 -4.5452  1.9501 -0.6154
  710MOL0     H95840  10.402   5.193  10.884 -0.4788  1.5874 -0.0160
  710MOL0     H95841  10.478   5.274  11.024 -3.4352  1.9898 -0.9017
  710MOL0     H95842  10.508   5.067  11.132 -1.3890  1.1542  0.9879
  710MOL0     H95843  10.563   5.034  10.962  1.3341  1.1091  0.7035
  710MOL0     H95844  10.315   4.930  10.948 -1.1974  0.1916  0.3856
  710MOL0     H95845  10.304   4.949  11.118 -2.5257 -2.4716 -1.5601
  710MOL0     H95846  10.375   4.736  11.095 -0.5567 -0.5565 -2.9572
  710MOL0     H95847  10.533   4.818  11.135  0.1600  3.2097  0.7643
  710MOL0     H95848  10.583   4.672  10.742 -0.3184  4.7433 -2.4310
  710MOL0     H95849  10.239   5.232  10.782  0.8165  0.1552  1.5450
  710MOL0     H95850  10.023   5.218  10.695  0.4023 -2.5573  0.8768
  711MOL0     O95851   8.932   3.317   4.151 -0.4796  0.3949  0.5280
  711MOL0     C95852   8.932   3.439   4.137  0.1096  0.7013  0.2123
  711MOL0     O95853   8.825   3.512   4.122  0.0433 -0.6384 -0.0501
  711MOL0     C95854   8.695   3.464   4.125  0.0104  0.0296 -0.2164
  711MOL0     C95855   8.641   3.333   4.093 -0.2730 -0.7844  0.1275
  711MOL0     C95856   8.505   3.299   4.089  0.7145  0.3175  0.0194
  711MOL0     C95857   8.409   3.403   4.100  0.0587  0.2658  0.5775
  711MOL0     O95858   8.274   3.390   4.105  0.0160  0.0038  0.5388
  711MOL0     C95859   8.216   3.268   4.065  0.0804 -0.3383  0.6897
  711MOL0     C95860   8.066   3.259   4.091 -0.5443  0.6342 -0.2908
  711MOL0     C95861   7.981   3.375   4.047 -0.3992  0.1674 -0.2663
  711MOL0     C95862   7.836   3.349   4.075 -0.0869 -0.0588  0.1287
  711MOL0     C95863   7.753   3.478   4.057  0.4702  0.5577  0.3085
  711MOL0     C95864   7.605   3.450   4.097 -0.2280  0.3951 -0.2031
  711MOL0     C95865   7.503   3.553   4.049 -0.1759  0.0299  0.1970
  711MOL0     C95866   7.369   3.536   4.122 -0.7437 -0.2102 -0.1651
  711MOL0     N95867   7.275   3.642   4.092  0.7310 -0.1306  0.4434
  711MOL0     C95868   7.208   3.734   4.174  0.6033  0.9067  0.7803
  711MOL0     C95869   7.125   3.797   4.097  0.0053  0.5928  0.3662
  711MOL0     C95870   7.013   3.891   4.122  0.5979 -0.2858 -1.4534
  711MOL0     C95871   6.875   3.828   4.081  0.3127 -0.3180 -0.3170
  711MOL0     C95872   6.837   3.856   3.934  0.4296  0.1020 -0.7008
  711MOL0     C95873   6.783   3.995   3.931 -0.4597 -1.0031 -1.3055
  711MOL0     O95874   6.775   4.044   3.787 -0.1217 -0.0692 -1.1005
  711MOL0     C95875   6.647   4.052   3.727  1.0733 -0.3672 -0.4797
  711MOL0     C95876   6.646   4.092   3.593  0.2761 -0.7319 -0.3635
  711MOL0     C95877   6.533   4.101   3.519  0.8073  0.9990 -0.1384
  711MOL0     C95878   6.553   4.167   3.383 -0.2361 -0.8887 -0.3607
  711MOL0     C95879   6.408   4.054   3.573 -0.3974  0.6976 -0.2448
  711MOL0     C95880   6.277   4.063   3.499 -0.7678  0.6792  0.3131
  711MOL0     O95881   6.172   3.991   3.559  0.4933  0.2300  0.6553
  711MOL0     C95882   6.048   4.014   3.504 -0.4334  0.1836 -0.4083
  711MOL0     C95883   5.965   4.116   3.545 -0.3445  0.0769 -0.0043
  711MOL0     C95884   5.841   4.136   3.491  0.3871 -0.6739 -0.4815
  711MOL0     C95885   5.792   4.052   3.397 -0.3545 -0.3639 -0.2574
  711MOL0     O95886   5.657   4.075   3.358 -0.2631  0.1772  0.6029
  711MOL0     C95887   5.636   4.030   3.221  0.5120  0.2438 -0.1652
  711MOL0     C95888   5.558   3.899   3.213  0.1728 -0.8977  0.7712
  711MOL0     C95889   5.445   3.920   3.310  0.0854 -0.3704  0.0784
  711MOL0     C95890   5.339   3.820   3.284 -0.1824  0.4116  0.0032
  711MOL0     C95891   5.217   3.850   3.368  1.0790 -0.0731 -0.2754
  711MOL0     C95892   5.116   3.738   3.352 -1.5584 -0.7393 -0.6575
  711MOL0     C95893   4.972   3.783   3.392  1.1776  0.8566 -0.3421
  711MOL0     C95894   4.900   3.678   3.467 -0.3467  0.2959 -0.5744
  711MOL0    Cl95895   4.724   3.697   3.470  0.0894 -0.0277  0.4080
  711MOL0     C95896   5.873   3.942   3.351 -0.0208 -0.7675 -0.2987
  711MOL0     C95897   5.998   3.927   3.405 -0.0833 -0.1220  0.7103
  711MOL0     O95898   6.263   4.141   3.404 -0.5833 -0.3515 -0.3798
  711MOL0     C95899   6.413   4.017   3.706  0.3454  0.0236  0.6918
  711MOL0     C95900   6.524   4.021   3.788 -0.4573 -0.8770 -1.2405
  711MOL0     N95901   7.135   3.745   3.968 -0.5465  0.1781  0.4636
  711MOL0     N95902   7.225   3.658   3.967  0.7883 -0.2468 -0.6678
  711MOL0     C95903   8.459   3.529   4.141 -0.0548 -0.5292  0.3620
  711MOL0     C95904   8.594   3.558   4.157  0.7313 -0.1439  0.4983
  711MOL0     C95905   9.055   3.512   4.110 -1.0560  1.4133  0.3996
  711MOL0     C95906   9.067   3.623   4.035  0.9686  0.5024 -0.4796
  711MOL0     C95907   9.187   3.697   4.023 -0.4252 -0.6617  0.3777
  711MOL0     C95908   9.297   3.666   4.097 -1.1381 -0.5671 -0.6419
  711MOL0     O95909   9.418   3.728   4.113 -0.7237  0.0812 -0.2247
  711MOL0     C95910   9.416   3.864   4.058  0.6245  0.7943 -0.0643
  711MOL0     C95911   9.525   3.943   4.131  0.0247  0.8483  0.3334
  711MOL0     C95912   9.669   3.880   4.111 -0.1386  0.4289  0.2453
  711MOL0     C95913   9.770   3.990   4.173 -0.4079  0.9225 -0.1410
  711MOL0     C95914   9.901   3.927   4.180 -0.3130 -0.4868  0.2453
  711MOL0     C95915  10.021   3.893   4.187  0.0301  0.4240  0.3369
  711MOL0     C95916   9.294   3.553   4.182 -0.6461 -0.3570 -0.4185
  711MOL0     C95917   9.171   3.475   4.187  0.6214  0.8081 -0.3487
  711MOL0     H95918   8.709   3.254   4.063 -1.6763 -0.9502 -3.0442
  711MOL0     H95919   8.472   3.196   4.078 -0.0943  0.4089  1.3627
  711MOL0     H95920   8.228   3.261   3.957 -1.0234 -2.4546  0.6480
  711MOL0     H95921   8.260   3.183   4.118 -1.0591 -1.3778  0.0076
  711MOL0     H95922   8.035   3.164   4.044  0.5821 -1.5253  2.9644
  711MOL0     H95923   8.066   3.236   4.198  3.9271  1.3112  0.0517
  711MOL0     H95924   8.017   3.469   4.090 -0.8103  0.8049 -1.2870
  711MOL0     H95925   8.004   3.379   3.941 -1.2129  2.6504 -0.4125
  711MOL0     H95926   7.802   3.264   4.016  0.6092 -0.1511 -0.1456
  711MOL0     H95927   7.830   3.318   4.180 -0.7603 -1.5671 -0.3275
  711MOL0     H95928   7.787   3.557   4.124 -0.3311  0.5504  0.7342
  711MOL0     H95929   7.768   3.518   3.956 -0.1959  1.0227  0.3848
  711MOL0     H95930   7.571   3.355   4.056 -0.8598 -0.7149  2.6777
  711MOL0     H95931   7.613   3.445   4.206  4.4739  1.9492 -0.2163
  711MOL0     H95932   7.554   3.644   4.081 -0.1261  0.1334 -0.1715
  711MOL0     H95933   7.480   3.534   3.943 -1.0286 -0.7445  0.5077
  711MOL0     H95934   7.379   3.527   4.230  0.5702  1.6437 -0.0775
  711MOL0     H95935   7.319   3.446   4.084  1.4022 -1.0164 -1.2235
  711MOL0     H95936   7.226   3.742   4.280  0.6909  1.3296  0.7365
  711MOL0     H95937   7.024   3.915   4.228  1.2012  1.2178 -1.8434
  711MOL0     H95938   7.025   3.985   4.068  0.1315  1.1104  0.7382
  711MOL0     H95939   6.800   3.875   4.146  1.5280  1.3873 -0.0750
  711MOL0     H95940   6.867   3.721   4.102 -1.0004 -0.2473 -0.3632
  711MOL0     H95941   6.759   3.787   3.901 -1.3663 -1.1738  5.0592
  711MOL0     H95942   6.923   3.845   3.867  0.3735 -2.3250 -0.4764
  711MOL0     H95943   6.845   4.072   3.978 -3.4457  0.8602 -0.1244
  711MOL0     H95944   6.696   4.017   3.993  0.9377  1.3841 -0.0026
  711MOL0     H95945   6.742   4.123   3.553 -0.3556  0.5563 -0.9532
  711MOL0     H95946   6.518   4.109   3.297 -0.2176  0.0194 -0.9960
  711MOL0     H95947   6.494   4.260   3.387 -0.0843 -0.8219  0.6971
  711MOL0     H95948   6.655   4.200   3.364  0.8991 -3.4333  0.8768
  711MOL0     H95949   6.000   4.174   3.629  4.4612 -1.0552 -0.9249
  711MOL0     H95950   5.779   4.221   3.519  0.8507 -0.9648  1.5887
  711MOL0     H95951   5.590   4.114   3.168  1.2618  0.2744 -0.7735
  711MOL0     H95952   5.725   4.014   3.160 -1.0272 -1.0853 -2.1803
  711MOL0     H95953   5.512   3.898   3.114 -1.0921 -2.7303  1.3165
  711MOL0     H95954   5.610   3.806   3.237  0.2076 -1.4634 -1.2907
  711MOL0     H95955   5.395   4.016   3.291 -1.7913 -0.9374  1.7783
  711MOL0     H95956   5.478   3.919   3.414 -0.5657 -0.5653  0.2945
  711MOL0     H95957   5.306   3.815   3.180 -0.8007  2.7284  0.0461
  711MOL0     H95958   5.375   3.721   3.315  1.2733  0.6197 -0.9172
  711MOL0     H95959   5.175   3.946   3.339 -3.2053 -0.8752  2.4546
  711MOL0     H95960   5.232   3.849   3.477 -1.2157 -5.2044  0.2905
  711MOL0     H95961   5.115   3.698   3.250  2.1230 -0.0825 -1.1016
  711MOL0     H95962   5.151   3.655   3.415  0.3872  2.5195  3.0338
  711MOL0     H95963   4.904   3.813   3.311  0.2860  0.2678  0.1721
  711MOL0     H95964   4.985   3.872   3.454  0.3668  0.6910  0.0780
  711MOL0     H95965   4.929   3.691   3.572  0.1754  5.3240 -1.1062
  711MOL0     H95966   4.923   3.579   3.427 -2.5607 -0.6768  0.3478
  711MOL0     H95967   5.832   3.867   3.284 -3.4737  1.3090 -0.7553
  711MOL0     H95968   6.068   3.850   3.376  0.0286  0.3291 -0.2465
  711MOL0     H95969   6.313   4.009   3.749  0.2198 -0.7124  0.2771
  711MOL0     H95970   6.503   3.993   3.891 -2.8704 -0.7527 -1.6346
  711MOL0     H95971   8.388   3.608   4.165 -1.5956 -1.8362  0.2929
  711MOL0     H95972   8.631   3.653   4.194  0.6463 -0.4939  1.5299
  711MOL0     H95973   8.977   3.651   3.981 -2.1429 -1.5034  3.1135
  711MOL0     H95974   9.184   3.792   3.970 -3.5012 -0.0429  1.4647
  711MOL0     H95975   9.442   3.859   3.952 -0.9219 -1.7001 -0.4059
  711MOL0     H95976   9.317   3.911   4.064  0.9175  1.4847 -0.5267
  711MOL0     H95977   9.498   3.951   4.236  1.2099  0.5273  0.6875
  711MOL0     H95978   9.528   4.047   4.097 -0.0249  0.9762  0.7161
  711MOL0     H95979   9.688   3.868   4.004 -4.0815  0.2717 -0.5908
  711MOL0     H95980   9.686   3.785   4.164 -0.3760  1.7696  2.9023
  711MOL0     H95981   9.736   4.024   4.271  0.6471  0.0918  0.5350
  711MOL0     H95982   9.783   4.078   4.109 -0.0579 -0.2927 -1.7916
  711MOL0     H95983  10.123   3.873   4.213 -0.7153 -2.1682  1.6475
  711MOL0     H95984   9.369   3.523   4.254 -2.7872 -2.2235  1.1776
  711MOL0     H95985   9.166   3.381   4.240 -0.0551  0.1662 -1.5044
  712MOL0     O95986   7.295   6.304   3.823  0.1130  0.0563  0.2238
  712MOL0     C95987   7.284   6.202   3.755 -0.2038  0.2106 -0.5499
  712MOL0     O95988   7.391   6.125   3.722 -0.2988 -0.4943 -0.3703
  712MOL0     C95989   7.515   6.171   3.700 -0.1306  0.3013 -0.1887
  712MOL0     C95990   7.571   6.301   3.731 -0.0071  0.3313 -0.0341
  712MOL0     C95991   7.689   6.344   3.661 -1.5077 -0.7853 -0.1330
  712MOL0     C95992   7.770   6.250   3.594  0.1199 -0.2401  0.5645
  712MOL0     O95993   7.893   6.285   3.528 -0.0173  0.9240 -0.7394
  712MOL0     C95994   7.935   6.418   3.528  0.3900 -0.0666 -0.2475
  712MOL0     C95995   8.073   6.413   3.464 -0.4316 -0.4015 -0.3215
  712MOL0     C95996   8.121   6.563   3.451  0.5505  0.4460  0.1765
  712MOL0     C95997   8.260   6.584   3.391  0.6960 -0.1999  0.8545
  712MOL0     C95998   8.309   6.724   3.413 -0.7412  0.4049  0.5711
  712MOL0     C95999   8.446   6.743   3.358 -0.1214 -0.0082  0.4381
  712MOL0     C96000   8.504   6.871   3.420  0.3951 -0.2411  0.4827
  712MOL0     C96001   8.633   6.904   3.359 -0.6614 -0.2033 -0.9139
  712MOL0     N96002   8.741   6.811   3.395  0.1265  1.0390 -0.0953
  712MOL0     C96003   8.829   6.831   3.499  0.1594  0.8185  0.0635
  712MOL0     C96004   8.916   6.726   3.498 -0.0761  0.2762  0.2871
  712MOL0     C96005   9.043   6.704   3.567  0.6270 -0.3940  0.3857
  712MOL0     C96006   9.018   6.633   3.692 -0.1711 -0.4177  0.0607
  712MOL0     C96007   9.140   6.618   3.777 -0.4206 -0.1134 -0.9230
  712MOL0     C96008   9.138   6.537   3.905  0.3836 -0.1735 -0.7145
  712MOL0     O96009   9.274   6.545   3.969  0.2159  0.1492 -0.7577
  712MOL0     C96010   9.360   6.446   3.958 -0.4448 -0.5257 -0.1000
  712MOL0     C96011   9.362   6.331   3.871 -0.2422 -0.2847  0.5271
  712MOL0     C96012   9.479   6.254   3.850 -0.2735  0.4431  0.7474
  712MOL0     C96013   9.479   6.141   3.747 -0.7759 -0.6239 -0.1008
  712MOL0     C96014   9.594   6.279   3.931 -0.0618 -0.3147 -0.1300
  712MOL0     C96015   9.716   6.188   3.930  0.0852 -0.3144 -0.2287
  712MOL0     O96016   9.831   6.255   3.967 -0.4871  0.6428  0.6185
  712MOL0     C96017   9.960   6.200   3.962 -0.3011  0.2117 -0.6262
  712MOL0     C96018  10.061   6.274   4.029 -0.6127 -0.0092  0.2727
  712MOL0     C96019  10.193   6.221   4.018  0.3012 -1.1774 -0.3060
  712MOL0     C96020  10.229   6.112   3.939  0.1125  0.4506 -0.9977
  712MOL0     O96021  10.354   6.055   3.934  0.7406 -0.5227 -0.5601
  712MOL0     C96022  10.469   6.137   3.948  0.2546  0.8263 -0.0531
  712MOL0     C96023  10.596   6.064   3.884 -0.0624  0.2850 -0.6872
  712MOL0     C96024  10.743   6.119   3.907  0.8647  0.7035 -0.5635
  712MOL0     C96025  10.776   6.070   4.050 -0.0550 -0.0210  0.5610
  712MOL0     C96026  10.924   6.094   4.087  0.8401 -0.0138 -0.9237
  712MOL0     C96027  11.017   5.974   4.035  0.2586  0.3357  0.0797
  712MOL0     C96028  11.156   5.999   4.082 -0.2881  0.5328 -0.5902
  712MOL0     C96029  11.254   5.907   4.018  0.4596 -0.4887 -0.2087
  712MOL0    Cl96030  11.244   5.916   3.836 -0.1947 -0.2216 -0.2515
  712MOL0     C96031  10.131   6.051   3.865 -0.1386  0.4134  1.3477
  712MOL0     C96032  10.000   6.095   3.883  0.2304  0.8016 -0.5411
  712MOL0     O96033   9.711   6.065   3.908  0.0629 -0.1824 -0.0049
  712MOL0     C96034   9.584   6.386   4.030  0.5436  0.1770  0.3407
  712MOL0     C96035   9.473   6.469   4.036  0.1001  0.2361  0.2614
  712MOL0     N96036   8.868   6.642   3.398 -0.3002  0.1441 -1.0812
  712MOL0     N96037   8.779   6.699   3.327 -0.2153 -0.4281 -1.6234
  712MOL0     C96038   7.725   6.115   3.590  0.4065 -0.0097 -0.3537
  712MOL0     C96039   7.597   6.083   3.625 -0.1843  0.4346 -0.0225
  712MOL0     C96040   7.145   6.151   3.720 -0.0488  1.1127 -0.0295
  712MOL0     C96041   7.136   6.011   3.678 -0.2979  0.2277  1.0822
  712MOL0     C96042   7.010   5.957   3.664 -0.3690  0.0482 -0.7244
  712MOL0     C96043   6.884   6.028   3.677 -0.0926  0.5695 -0.7394
  712MOL0     O96044   6.753   5.979   3.666 -0.8676  0.2723 -0.5560
  712MOL0     C96045   6.736   5.836   3.639  0.3197 -0.0170 -0.5222
  712MOL0     C96046   6.590   5.812   3.614  0.6897 -0.6728  0.2055
  712MOL0     C96047   6.522   5.914   3.515  0.8280  0.2832 -0.2246
  712MOL0     C96048   6.395   5.863   3.450  0.7727  0.4853  1.0050
  712MOL0     C96049   6.416   5.744   3.357  0.2667 -0.2915 -0.0338
  712MOL0     C96050   6.423   5.647   3.277 -0.1776 -0.2132  0.8102
  712MOL0     C96051   6.893   6.158   3.730  0.2117 -0.3159  0.1908
  712MOL0     C96052   7.022   6.219   3.745 -0.1141  0.6528 -0.5739
  712MOL0     H96053   7.522   6.350   3.815  1.4700 -0.5526  1.4051
  712MOL0     H96054   7.724   6.445   3.681 -1.2473 -0.9699  0.3522
  712MOL0     H96055   7.862   6.470   3.465 -0.8124 -1.1939  0.1640
  712MOL0     H96056   7.938   6.469   3.625  0.2247 -2.0350  0.8449
  712MOL0     H96057   8.138   6.362   3.536  0.0677 -0.1204 -0.5646
  712MOL0     H96058   8.087   6.358   3.371  1.0818 -1.8276  0.6847
  712MOL0     H96059   8.045   6.619   3.395 -0.8600 -0.5848  0.9860
  712MOL0     H96060   8.123   6.621   3.544 -0.1098 -0.1243  0.5612
  712MOL0     H96061   8.328   6.510   3.433 -0.5745 -3.0570 -1.6938
  712MOL0     H96062   8.250   6.567   3.283 -0.6021  2.3957  0.4752
  712MOL0     H96063   8.239   6.788   3.358  2.1493  1.5609 -2.1023
  712MOL0     H96064   8.325   6.749   3.518 -0.7687 -1.2990  1.0195
  712MOL0     H96065   8.514   6.659   3.365  0.0590  0.1780  1.0117
  712MOL0     H96066   8.431   6.762   3.252 -2.3470 -0.2235  0.6539
  712MOL0     H96067   8.429   6.950   3.408  1.7390  1.1021  0.5486
  712MOL0     H96068   8.521   6.869   3.528  0.0770  1.6157  0.5959
  712MOL0     H96069   8.662   7.006   3.385 -3.4706  0.3701  0.3582
  712MOL0     H96070   8.621   6.898   3.250  3.5099 -1.7471 -1.4714
  712MOL0     H96071   8.840   6.912   3.569  0.2484 -1.5192  2.9457
  712MOL0     H96072   9.103   6.633   3.508  1.7642 -0.9781  2.1699
  712MOL0     H96073   9.103   6.791   3.593 -0.1801 -0.5952  3.1985
  712MOL0     H96074   8.984   6.533   3.665  1.8529 -0.7145 -1.7595
  712MOL0     H96075   8.940   6.690   3.742 -1.2290 -0.2808 -1.6718
  712MOL0     H96076   9.184   6.716   3.796 -1.9215  0.6308 -1.1089
  712MOL0     H96077   9.204   6.561   3.709  2.1187  0.2047  1.0601
  712MOL0     H96078   9.108   6.433   3.885  0.6776 -0.7316  1.4931
  712MOL0     H96079   9.066   6.579   3.975 -0.6726  0.9829 -2.4153
  712MOL0     H96080   9.268   6.303   3.824 -0.8543 -1.3029  2.2684
  712MOL0     H96081   9.552   6.158   3.667  0.4592 -1.8240  0.7250
  712MOL0     H96082   9.506   6.049   3.798 -2.4623 -1.4990 -0.7158
  712MOL0     H96083   9.387   6.135   3.688  0.6056 -2.1925 -2.2715
  712MOL0     H96084  10.034   6.368   4.077 -1.8173 -0.0884 -0.2052
  712MOL0     H96085  10.263   6.277   4.081 -0.2358 -1.8075  0.8815
  712MOL0     H96086  10.449   6.235   3.904  0.7833  0.5549 -0.9141
  712MOL0     H96087  10.473   6.158   4.055 -3.8624  0.8892  0.2441
  712MOL0     H96088  10.592   5.959   3.913  3.2189  0.5527  1.1978
  712MOL0     H96089  10.592   6.077   3.775  3.2917  2.6803 -0.6814
  712MOL0     H96090  10.737   6.227   3.896  0.2869  0.6018 -1.3785
  712MOL0     H96091  10.820   6.087   3.837  1.4324 -1.0263  0.7690
  712MOL0     H96092  10.723   6.127   4.127  1.1275 -2.4470  3.3817
  712MOL0     H96093  10.755   5.963   4.058 -0.3543 -0.0205 -0.1249
  712MOL0     H96094  10.918   6.101   4.196 -3.1298  0.3706 -1.0336
  712MOL0     H96095  10.967   6.187   4.050  1.7259  0.2061  0.5564
  712MOL0     H96096  10.991   5.878   4.080  3.6087  0.3006  2.2256
  712MOL0     H96097  11.004   5.970   3.926 -0.2775 -0.0186  0.1541
  712MOL0     H96098  11.156   5.981   4.190  2.5035 -3.5237 -1.0385
  712MOL0     H96099  11.193   6.097   4.052  1.3870  0.2639  0.4223
  712MOL0     H96100  11.235   5.803   4.046 -0.0478  0.2396  2.4967
  712MOL0     H96101  11.354   5.940   4.046  0.0717  0.7950 -0.2525
  712MOL0     H96102  10.156   5.960   3.812  0.3063  1.6165 -0.6131
  712MOL0     H96103   9.929   6.050   3.815 -0.6420 -3.6419  2.7666
  712MOL0     H96104   9.675   6.404   4.087  1.8185  1.8756 -2.0582
  712MOL0     H96105   9.485   6.550   4.107  1.3487 -0.3920  0.7942
  712MOL0     H96106   7.778   6.040   3.533 -3.5353 -3.6908  0.2921
  712MOL0     H96107   7.558   5.986   3.599 -3.1190  1.5752 -0.2841
  712MOL0     H96108   7.227   5.956   3.657 -0.7638  0.0381 -0.6106
  712MOL0     H96109   7.001   5.853   3.635 -2.7377  0.1111 -0.4565
  712MOL0     H96110   6.799   5.809   3.554  0.0962  1.0507 -1.0501
  712MOL0     H96111   6.761   5.774   3.725 -0.1253 -0.6301 -0.8286
  712MOL0     H96112   6.533   5.816   3.707 -0.3857  2.4400 -0.4832
  712MOL0     H96113   6.593   5.710   3.573  1.2105 -0.9542  0.9156
  712MOL0     H96114   6.592   5.924   3.432  1.2997  0.7724  0.2247
  712MOL0     H96115   6.519   6.011   3.566  0.0795 -0.5726  1.4239
  712MOL0     H96116   6.345   5.940   3.391 -0.1357 -2.0704 -1.8691
  712MOL0     H96117   6.328   5.832   3.531 -1.4518  1.9771 -0.1551
  712MOL0     H96118   6.425   5.558   3.217  0.3851  0.7737 -0.7248
  712MOL0     H96119   6.797   6.203   3.755  0.4324 -0.6195  1.6487
  712MOL0     H96120   7.032   6.322   3.778  0.9409 -0.3670  2.6333
  713MOL0     O96121   3.643   0.171   0.790 -0.2037 -0.2316  0.2618
  713MOL0     C96122   3.648   0.051   0.765  0.4731  0.8738 -0.2661
  713MOL0     O96123   3.536  -0.034   0.738 -0.6533 -0.0102 -0.3711
  713MOL0     C96124   3.411   0.008   0.760 -0.5214  0.6022  0.1669
  713MOL0     C96125   3.361   0.124   0.702  0.3735 -0.1253  0.7814
  713MOL0     C96126   3.226   0.166   0.729 -0.9396  0.3606 -0.0893
  713MOL0     C96127   3.144   0.090   0.805  0.1193  0.6758 -0.0799
  713MOL0     O96128   3.009   0.131   0.817  0.2809 -0.5852 -0.0603
  713MOL0     C96129   2.922   0.062   0.913 -0.0330 -0.3972  0.1823
  713MOL0     C96130   2.782   0.114   0.895  1.1502  0.1431 -0.1980
  713MOL0     C96131   2.706   0.144   1.032 -0.6796 -0.2823  0.4385
  713MOL0     C96132   2.559   0.102   1.018 -0.4846 -1.1039  0.1767
  713MOL0     C96133   2.482   0.126   1.151  1.3551 -0.3037  0.0041
  713MOL0     C96134   2.561   0.066   1.276 -0.0271 -0.1045 -0.0158
  713MOL0     C96135   2.504   0.101   1.418  0.6846 -0.2885 -0.7586
  713MOL0     C96136   2.362   0.066   1.435 -0.1285  0.4260  0.4273
  713MOL0     N96137   2.346  -0.080   1.456  0.0840 -0.0512  0.0851
  713MOL0     C96138   2.313  -0.164   1.352 -0.4744 -0.0098  0.7110
  713MOL0     C96139   2.287  -0.282   1.416  0.6451 -0.6694  0.3053
  713MOL0     C96140   2.252  -0.401   1.338  0.1484  0.0546 -0.5865
  713MOL0     C96141   2.101  -0.415   1.331  0.1100 -0.0405 -0.0485
  713MOL0     C96142   2.072  -0.534   1.248 -0.6639 -0.2545 -0.6457
  713MOL0     C96143   1.917  -0.550   1.230  0.4216  0.1353  0.3875
  713MOL0     O96144   1.848  -0.449   1.154 -0.1856  0.2134 -0.0068
  713MOL0     C96145   1.746  -0.394   1.216  0.2200 -0.4041 -0.5229
  713MOL0     C96146   1.623  -0.401   1.150  0.4972 -0.6304 -0.0035
  713MOL0     C96147   1.504  -0.334   1.194  0.6342  0.0684 -0.2723
  713MOL0     C96148   1.380  -0.354   1.110  0.0928 -0.1359  1.1685
  713MOL0     C96149   1.511  -0.259   1.316  0.9017 -0.3134 -0.3145
  713MOL0     C96150   1.391  -0.211   1.388 -0.6947 -0.2121  0.5333
  713MOL0     O96151   1.292  -0.301   1.398 -0.3569  0.0111  0.0887
  713MOL0     C96152   1.170  -0.252   1.430  0.6430  0.6591  0.1279
  713MOL0     C96153   1.111  -0.281   1.555 -0.0434 -0.5372  0.1530
  713MOL0     C96154   0.978  -0.248   1.585  1.0628 -0.0697 -0.2742
  713MOL0     C96155   0.902  -0.178   1.493  0.3707  0.0132  0.0047
  713MOL0     O96156   0.776  -0.147   1.509  0.3528 -0.0848 -0.1719
  713MOL0     C96157   0.702  -0.174   1.632  0.3387  0.4032  0.5633
  713MOL0     C96158   0.549  -0.152   1.602 -0.2685 -0.0277 -0.0220
  713MOL0     C96159   0.464  -0.171   1.730  0.0487  0.4455  0.0226
  713MOL0     C96160   0.320  -0.216   1.694 -0.3601 -0.2787  0.3744
  713MOL0     C96161   0.233  -0.211   1.824 -0.0904  0.0094 -0.2646
  713MOL0     C96162   0.260  -0.316   1.925  0.7370  0.3102 -1.5614
  713MOL0     C96163   0.176  -0.277   2.052  0.4556 -0.1696  0.0108
  713MOL0     C96164   0.200  -0.376   2.168  0.9154  0.5693  0.6950
  713MOL0    Cl96165   0.156  -0.548   2.151 -0.3604  0.1011  0.1220
  713MOL0     C96166   0.964  -0.133   1.385  0.2518  0.7083  0.4394
  713MOL0     C96167   1.100  -0.160   1.354 -0.1970 -0.3003 -0.2220
  713MOL0     O96168   1.388  -0.091   1.431 -0.3286 -0.2480  0.8716
  713MOL0     C96169   1.631  -0.267   1.386  0.5711  0.3004  0.3058
  713MOL0     C96170   1.751  -0.330   1.335  0.1220  0.6309 -0.5672
  713MOL0     N96171   2.319  -0.263   1.556 -0.2284  0.3833  0.9705
  713MOL0     N96172   2.356  -0.143   1.575  0.8042  0.1594 -0.3864
  713MOL0     C96173   3.195  -0.020   0.876 -0.0588 -0.0553 -0.1089
  713MOL0     C96174   3.333  -0.060   0.851  0.2978  0.5404 -0.0973
  713MOL0     C96175   3.774  -0.014   0.758 -0.1028  0.3338  0.0193
  713MOL0     C96176   3.888   0.066   0.761  0.2008  0.0933  0.4573
  713MOL0     C96177   4.015   0.009   0.755 -0.4410  0.3565  0.2112
  713MOL0     C96178   4.030  -0.137   0.746 -0.1385  1.5268  0.9024
  713MOL0     O96179   4.153  -0.210   0.750  0.3736 -0.8669  0.5019
  713MOL0     C96180   4.279  -0.136   0.761  0.2405  0.4605  0.2437
  713MOL0     C96181   4.396  -0.238   0.756  0.4039 -0.4402 -0.4026
  713MOL0     C96182   4.422  -0.308   0.618  0.3063  0.2506  0.5616
  713MOL0     C96183   4.573  -0.339   0.605  1.0399  0.6331 -0.4661
  713MOL0     C96184   4.599  -0.469   0.544 -0.1545 -0.1063 -0.9485
  713MOL0     C96185   4.611  -0.584   0.508 -0.3649  0.4481  0.4788
  713MOL0     C96186   3.914  -0.208   0.757  0.7892  0.6471  0.3122
  713MOL0     C96187   3.783  -0.150   0.759 -0.2241  0.4313  0.0431
  713MOL0     H96188   3.420   0.177   0.628 -0.9903 -2.4217 -2.1900
  713MOL0     H96189   3.195   0.262   0.688 -1.3476 -0.1753 -1.0940
  713MOL0     H96190   2.913  -0.046   0.899  2.6520 -0.7102  0.3443
  713MOL0     H96191   2.959   0.089   1.013  2.8162  1.3486 -1.2187
  713MOL0     H96192   2.766   0.196   0.825 -4.3114 -1.0740 -0.8590
  713MOL0     H96193   2.717   0.037   0.850 -1.4107  0.9951  1.8129
  713MOL0     H96194   2.748   0.071   1.102  2.2085 -0.3644 -1.2038
  713MOL0     H96195   2.723   0.248   1.063  1.6398 -0.5274  0.2040
  713MOL0     H96196   2.511   0.156   0.937  1.4655 -3.0278 -2.4187
  713MOL0     H96197   2.549  -0.006   1.002  2.4528 -1.0724 -2.8555
  713MOL0     H96198   2.464   0.233   1.164  0.8462 -0.6856  3.1905
  713MOL0     H96199   2.394   0.062   1.146  0.4691  0.9333 -0.9408
  713MOL0     H96200   2.571  -0.043   1.283  0.1084 -0.0196  1.4430
  713MOL0     H96201   2.653   0.125   1.282 -0.5526  0.6843  0.4862
  713MOL0     H96202   2.570   0.059   1.495  0.7866  2.5132  0.7976
  713MOL0     H96203   2.510   0.210   1.425 -0.6561 -0.0425 -2.6757
  713MOL0     H96204   2.312   0.115   1.351  0.2204 -0.6379 -0.4243
  713MOL0     H96205   2.328   0.115   1.527  1.7726  2.1861  0.2489
  713MOL0     H96206   2.312  -0.143   1.246  1.2531  4.2457  1.3630
  713MOL0     H96207   2.303  -0.396   1.241  0.0206 -1.1825 -0.7300
  713MOL0     H96208   2.292  -0.485   1.395  1.1372  0.0720 -1.2249
  713MOL0     H96209   2.064  -0.325   1.282  1.6226  1.1502  0.8778
  713MOL0     H96210   2.058  -0.431   1.430  0.3535 -1.0964 -0.1029
  713MOL0     H96211   2.117  -0.622   1.295  0.2595  0.9373  0.7522
  713MOL0     H96212   2.114  -0.530   1.147 -0.2000 -0.6173 -0.4709
  713MOL0     H96213   1.884  -0.550   1.334 -0.3815 -1.6918  0.1698
  713MOL0     H96214   1.879  -0.645   1.189 -1.4368  1.7903 -2.0030
  713MOL0     H96215   1.617  -0.444   1.051 -2.4172 -0.5183  0.0472
  713MOL0     H96216   1.314  -0.437   1.138 -0.4018 -0.3983 -0.6419
  713MOL0     H96217   1.313  -0.269   1.126 -0.4036 -0.7794  2.6595
  713MOL0     H96218   1.403  -0.360   1.003 -0.9789 -0.0372  0.9225
  713MOL0     H96219   1.163  -0.344   1.627 -1.9726 -1.0555  1.1497
  713MOL0     H96220   0.939  -0.282   1.680  2.1753  1.1581  0.6464
  713MOL0     H96221   0.713  -0.277   1.668  0.6617  0.3746  0.3875
  713MOL0     H96222   0.726  -0.103   1.711 -0.6230  0.0763  1.1673
  713MOL0     H96223   0.540  -0.050   1.563  2.7272 -0.1041 -1.1971
  713MOL0     H96224   0.511  -0.224   1.529 -1.3844 -1.6404  2.0334
  713MOL0     H96225   0.447  -0.072   1.773 -0.3881 -0.5404  2.2401
  713MOL0     H96226   0.516  -0.232   1.804 -0.3889 -1.3960 -1.1258
  713MOL0     H96227   0.274  -0.151   1.619  0.7041  1.6336  1.3103
  713MOL0     H96228   0.314  -0.316   1.649  0.7333 -0.3054  0.2707
  713MOL0     H96229   0.129  -0.229   1.795  0.3800 -1.5369 -1.1354
  713MOL0     H96230   0.231  -0.111   1.867 -2.5570 -0.3205  0.5545
  713MOL0     H96231   0.241  -0.415   1.884 -0.9933 -0.0066 -0.1170
  713MOL0     H96232   0.366  -0.313   1.952  0.9674  1.0718 -2.4978
  713MOL0     H96233   0.072  -0.273   2.020  0.1001  0.0859  1.1570
  713MOL0     H96234   0.204  -0.175   2.079  1.9173 -0.6253  0.2928
  713MOL0     H96235   0.158  -0.331   2.258  2.9058  2.9571  0.5318
  713MOL0     H96236   0.305  -0.365   2.197  1.1802 -0.1575  0.0274
  713MOL0     H96237   0.911  -0.067   1.316 -1.0739  0.1282  0.8708
  713MOL0     H96238   1.145  -0.134   1.259 -0.9876  2.6890  0.1192
  713MOL0     H96239   1.642  -0.233   1.489  1.5748 -0.7455  0.5712
  713MOL0     H96240   1.835  -0.330   1.404  1.9845 -1.7548 -2.6849
  713MOL0     H96241   3.142  -0.070   0.957 -0.4909  0.8451  0.1818
  713MOL0     H96242   3.381  -0.147   0.894  0.2072  0.2631 -0.5501
  713MOL0     H96243   3.877   0.173   0.779  1.5388  0.2893  0.1745
  713MOL0     H96244   4.096   0.077   0.779  0.1630  0.4454 -1.8896
  713MOL0     H96245   4.294  -0.063   0.682  2.0808 -0.3253 -0.1815
  713MOL0     H96246   4.281  -0.084   0.858  3.3787  0.8063  0.0722
  713MOL0     H96247   4.380  -0.314   0.833 -0.3256 -1.3575 -1.4219
  713MOL0     H96248   4.486  -0.179   0.772  1.1431 -1.2032 -1.5422
  713MOL0     H96249   4.398  -0.233   0.542  0.6624 -0.4137 -0.2249
  713MOL0     H96250   4.358  -0.396   0.619  0.6555 -0.1252 -2.4451
  713MOL0     H96251   4.623  -0.344   0.702  1.1162 -0.1985 -0.5417
  713MOL0     H96252   4.622  -0.259   0.549  2.7498  0.4416  0.7046
  713MOL0     H96253   4.612  -0.683   0.466  0.4709  0.3717  0.6617
  713MOL0     H96254   3.921  -0.316   0.753 -0.4949  0.4306  2.2067
  713MOL0     H96255   3.695  -0.212   0.757  0.8077 -1.2725 -4.2490
  714MOL0     O96256  10.804  10.896   2.261  0.3117  0.0966 -0.0677
  714MOL0     C96257  10.910  10.900   2.199  0.1799 -0.0699 -0.0778
  714MOL0     O96258  10.982  10.787   2.145 -0.2807 -0.4435 -0.8034
  714MOL0     C96259  10.913  10.671   2.113 -0.2655 -0.1118 -0.7210
  714MOL0     C96260  10.904  10.567   2.206 -0.6683  0.1653 -0.1305
  714MOL0     C96261  10.818  10.456   2.181  1.3303 -0.6629 -0.0127
  714MOL0     C96262  10.749  10.454   2.059 -0.5838  0.1691 -0.1094
  714MOL0     O96263  10.643  10.368   2.016  0.3775  0.2751 -0.1759
  714MOL0     C96264  10.614  10.267   2.109  0.0535 -0.0957 -0.2553
  714MOL0     C96265  10.544  10.153   2.038  0.1072 -0.4331 -0.1075
  714MOL0     C96266  10.485  10.050   2.139  0.3501 -0.4486  0.2238
  714MOL0     C96267  10.368  10.101   2.224  0.1603 -0.2558  0.5992
  714MOL0     C96268  10.253  10.161   2.140  0.2185  0.0089 -0.1677
  714MOL0     C96269  10.119  10.152   2.214  0.6607  0.8079 -0.1681
  714MOL0     C96270  10.007  10.232   2.135 -0.1529  0.2917 -0.2783
  714MOL0     C96271   9.976  10.165   2.002 -0.0470 -0.0993  0.3205
  714MOL0     N96272   9.926  10.034   2.029  0.4656  0.4867 -0.3256
  714MOL0     C96273   9.797   9.994   2.069 -0.1806  0.3213  0.2808
  714MOL0     C96274   9.796   9.861   2.060  0.8878  0.4104  0.3569
  714MOL0     C96275   9.683   9.777   2.107  0.3261  0.1425  0.5537
  714MOL0     C96276   9.704   9.730   2.251  0.0635 -0.1606  0.2719
  714MOL0     C96277   9.636   9.593   2.273  0.0646 -0.6603 -0.1719
  714MOL0     C96278   9.486   9.596   2.263  0.0958  0.6748 -0.1696
  714MOL0     O96279   9.412   9.680   2.356 -0.9563 -0.0039  0.1045
  714MOL0     C96280   9.276   9.648   2.354 -0.5146  0.4977 -0.0395
  714MOL0     C96281   9.209   9.583   2.252  0.1813  0.3180 -0.5899
  714MOL0     C96282   9.067   9.578   2.239  0.6205 -0.3012 -0.5044
  714MOL0     C96283   9.013   9.507   2.120 -0.1538 -0.2809  1.4110
  714MOL0     C96284   8.982   9.628   2.343  0.0274 -0.1002 -0.9096
  714MOL0     C96285   8.833   9.620   2.350  0.9279 -0.8599 -0.0090
  714MOL0     O96286   8.771   9.563   2.242 -0.6768 -0.2978 -0.1690
  714MOL0     C96287   8.631   9.541   2.249 -0.6852 -0.7846 -0.7964
  714MOL0     C96288   8.556   9.607   2.153  0.1029 -0.8224 -0.9278
  714MOL0     C96289   8.417   9.589   2.150  0.2752  0.3002  0.2225
  714MOL0     C96290   8.348   9.500   2.240  0.1498  0.3544  0.2810
  714MOL0     O96291   8.218   9.465   2.218  1.2903  0.0799  0.3839
  714MOL0     C96292   8.136   9.563   2.151 -0.3975 -0.1100 -0.8952
  714MOL0     C96293   7.994   9.524   2.164  0.0547 -0.1428  0.4520
  714MOL0     C96294   7.910   9.644   2.120  0.7360 -1.1674  0.2894
  714MOL0     C96295   7.770   9.604   2.108 -0.1316 -0.0579  0.4217
  714MOL0     C96296   7.701   9.544   2.228 -0.3831  0.7895 -0.1492
  714MOL0     C96297   7.549   9.515   2.201  0.2931 -0.0027  0.0380
  714MOL0     C96298   7.471   9.476   2.329  0.4920 -0.0134 -0.5291
  714MOL0     C96299   7.322   9.506   2.306 -0.3737  0.4550 -1.1676
  714MOL0    Cl96300   7.238   9.521   2.461 -0.1399 -0.4622 -0.0478
  714MOL0     C96301   8.429   9.430   2.326  0.8264 -0.7697 -1.0186
  714MOL0     C96302   8.565   9.447   2.332 -0.3421 -0.5068 -0.8340
  714MOL0     O96303   8.778   9.673   2.445  0.2696 -0.0124  0.0548
  714MOL0     C96304   9.051   9.701   2.448 -0.3168  0.3381 -0.4094
  714MOL0     C96305   9.192   9.708   2.459 -0.1450  0.5952  0.0278
  714MOL0     N96306   9.913   9.815   2.011  1.0506  0.2738  0.1950
  714MOL0     N96307   9.994   9.917   2.001 -0.1076 -0.4033  0.3840
  714MOL0     C96308  10.776  10.557   1.962  0.6364  0.0122 -0.5221
  714MOL0     C96309  10.870  10.661   1.983  0.6453  0.6417  0.2378
  714MOL0     C96310  10.979  11.026   2.186 -0.7372 -0.3971  0.0296
  714MOL0     C96311  10.915  11.156   2.200 -0.2266 -0.3639 -0.4274
  714MOL0     C96312  10.994  11.273   2.201 -0.2878 -0.2755  0.6219
  714MOL0     C96313  11.134  11.273   2.172  0.6395  0.0949 -0.5070
  714MOL0     O96314  11.209  11.383   2.165  0.1574  0.3947 -0.2879
  714MOL0     C96315  11.168  11.492   2.090 -0.5265 -0.8031 -0.4766
  714MOL0     C96316  11.290  11.592   2.086  0.6936  0.6583  0.2469
  714MOL0     C96317  11.283  11.695   2.209  0.3516 -0.0018 -0.1153
  714MOL0     C96318  11.402  11.796   2.219  0.9868 -0.3014  0.1404
  714MOL0     C96319  11.497  11.755   2.316 -0.6504  0.7312  0.3504
  714MOL0     C96320  11.551  11.726   2.415  0.4903 -0.3332  0.1948
  714MOL0     C96321  11.183  11.153   2.156  0.1399  0.3446 -0.1201
  714MOL0     C96322  11.117  11.033   2.169 -0.4621  0.5905  0.7656
  714MOL0     H96323  10.951  10.576   2.304 -0.8454  1.5300 -0.1601
  714MOL0     H96324  10.799  10.380   2.256 -0.9937 -1.4923 -1.3512
  714MOL0     H96325  10.702  10.219   2.154  2.1468  0.2093 -3.6442
  714MOL0     H96326  10.556  10.319   2.185  0.0473  0.1234 -0.4108
  714MOL0     H96327  10.468  10.203   1.977  0.7997 -1.0555 -1.5332
  714MOL0     H96328  10.605  10.108   1.959  0.4180  0.2145 -0.2485
  714MOL0     H96329  10.458   9.958   2.086  1.0489  0.5847 -2.0521
  714MOL0     H96330  10.562  10.031   2.214  0.4368 -1.4102 -0.1042
  714MOL0     H96331  10.330  10.014   2.279 -1.5044  1.3918  2.1703
  714MOL0     H96332  10.414  10.174   2.290 -2.2676  0.3372  1.7403
  714MOL0     H96333  10.281  10.261   2.106  0.6996  0.1319  0.5613
  714MOL0     H96334  10.249  10.099   2.050  0.3934 -0.5092  0.1751
  714MOL0     H96335  10.098  10.044   2.213  2.8417  0.3380 -0.0850
  714MOL0     H96336  10.130  10.203   2.310 -0.7906  0.5500  0.1603
  714MOL0     H96337   9.914  10.251   2.190 -0.0685  2.0315 -0.6658
  714MOL0     H96338  10.053  10.330   2.117 -0.4251  0.3076 -0.9063
  714MOL0     H96339  10.070  10.161   1.947  1.2607 -0.4509  2.4451
  714MOL0     H96340   9.897  10.221   1.951  0.3251  0.0566 -0.0930
  714MOL0     H96341   9.722  10.065   2.101 -1.8238  0.8800 -4.1004
  714MOL0     H96342   9.589   9.829   2.087 -0.6091 -0.9868  1.8289
  714MOL0     H96343   9.677   9.692   2.039 -0.9493  1.8849 -1.6262
  714MOL0     H96344   9.666   9.808   2.318  2.5161  0.1342  1.4364
  714MOL0     H96345   9.810   9.711   2.269  0.4879  1.6495 -0.1668
  714MOL0     H96346   9.650   9.566   2.378  0.7030 -1.5521 -0.4747
  714MOL0     H96347   9.675   9.510   2.213 -3.3284 -1.8711 -0.9169
  714MOL0     H96348   9.449   9.493   2.271 -0.9546  1.0291 -0.2174
  714MOL0     H96349   9.464   9.613   2.158 -0.6122  2.3519  0.2124
  714MOL0     H96350   9.256   9.540   2.164 -0.8334  0.9819 -1.4898
  714MOL0     H96351   9.078   9.510   2.032 -2.9515  1.3264 -0.7527
  714MOL0     H96352   8.982   9.403   2.132  1.0818 -1.0993 -1.5304
  714MOL0     H96353   8.933   9.565   2.073  0.0262 -2.6381 -2.2123
  714MOL0     H96354   8.604   9.673   2.081 -0.1328 -0.2566 -0.5690
  714MOL0     H96355   8.359   9.640   2.074 -0.4927  0.5368  0.9560
  714MOL0     H96356   8.145   9.665   2.190 -0.2124 -0.3947 -0.1902
  714MOL0     H96357   8.167   9.559   2.046 -2.5793 -0.1790 -1.5980
  714MOL0     H96358   7.962   9.438   2.104  1.4462  0.6461 -1.5374
  714MOL0     H96359   7.977   9.509   2.271  3.1676  1.9937  1.4035
  714MOL0     H96360   7.929   9.679   2.018  1.0234 -0.3792  0.6045
  714MOL0     H96361   7.925   9.720   2.197  0.5438  0.3947 -1.1587
  714MOL0     H96362   7.712   9.692   2.079 -0.5570 -0.0541  1.2495
  714MOL0     H96363   7.750   9.540   2.021 -1.4006 -1.2144  1.5105
  714MOL0     H96364   7.703   9.611   2.314  2.5053 -0.0341  0.5306
  714MOL0     H96365   7.749   9.448   2.245  0.5490  1.3145  0.2750
  714MOL0     H96366   7.506   9.602   2.151 -2.0266 -0.1691  1.5642
  714MOL0     H96367   7.539   9.431   2.133 -1.0321 -0.7332  1.0856
  714MOL0     H96368   7.502   9.532   2.417 -1.3023  0.9204 -0.4660
  714MOL0     H96369   7.491   9.369   2.342  1.4403 -0.3905 -4.0281
  714MOL0     H96370   7.276   9.424   2.251  1.4932 -2.3943  1.1993
  714MOL0     H96371   7.317   9.601   2.252  4.5405  0.4942 -1.9812
  714MOL0     H96372   8.370   9.367   2.392 -4.4564  1.8005 -2.7562
  714MOL0     H96373   8.613   9.386   2.408 -0.8493 -0.3367 -0.3660
  714MOL0     H96374   9.005   9.742   2.538 -0.7361 -0.6325 -0.1569
  714MOL0     H96375   9.228   9.760   2.547 -1.3656 -1.9729  2.1739
  714MOL0     H96376  10.730  10.547   1.864  0.4298 -0.8365 -0.3491
  714MOL0     H96377  10.888  10.727   1.899 -2.2370 -0.5360 -1.4647
  714MOL0     H96378  10.810  11.152   2.227 -0.1086 -1.8149 -0.1157
  714MOL0     H96379  10.955  11.374   2.203  1.1125  0.2901  1.1888
  714MOL0     H96380  11.142  11.468   1.986 -2.1362 -1.1576 -0.0228
  714MOL0     H96381  11.079  11.545   2.128  1.6307  1.4043  1.8663
  714MOL0     H96382  11.290  11.641   1.988 -1.9394  0.1771 -0.0739
  714MOL0     H96383  11.379  11.530   2.097 -1.0514 -1.9659  0.5136
  714MOL0     H96384  11.284  11.636   2.301  1.8625  0.0286 -0.0836
  714MOL0     H96385  11.196  11.761   2.209  0.1126 -0.1326  3.4998
  714MOL0     H96386  11.372  11.896   2.251 -1.3144 -0.3521 -1.6232
  714MOL0     H96387  11.436  11.818   2.117 -1.0361  1.2762 -0.2555
  714MOL0     H96388  11.594  11.723   2.513  1.8701 -3.6873 -0.3799
  714MOL0     H96389  11.288  11.145   2.129  0.2795  2.3936 -0.3785
  714MOL0     H96390  11.175  10.942   2.156  0.3976  1.1794  0.4393
  715MOL0     O96391   8.797   0.273   5.899 -0.4601  0.0973 -0.1862
  715MOL0     C96392   8.796   0.387   5.959  0.5293  0.2729  0.0292
  715MOL0     O96393   8.677   0.460   5.993 -0.1237  0.5077 -0.3302
  715MOL0     C96394   8.555   0.407   5.968 -0.6216 -0.2490 -0.0987
  715MOL0     C96395   8.497   0.435   5.842 -0.2285 -0.2908  0.1004
  715MOL0     C96396   8.371   0.395   5.810 -0.0322 -0.2813 -0.1122
  715MOL0     C96397   8.303   0.332   5.908  0.2987 -0.2061 -0.2376
  715MOL0     O96398   8.172   0.296   5.886  0.0907 -0.3628  0.0248
  715MOL0     C96399   8.073   0.330   5.983  0.2435  0.1456 -0.2076
  715MOL0     C96400   8.012   0.463   5.949  0.0624  1.1306 -0.2693
  715MOL0     C96401   7.865   0.468   6.006 -0.2414 -1.4017 -0.1487
  715MOL0     C96402   7.767   0.460   5.884  0.2172 -0.4123 -0.6925
  715MOL0     C96403   7.623   0.439   5.948 -0.1334 -0.0245  0.9769
  715MOL0     C96404   7.512   0.445   5.835 -0.8587  0.4466 -0.1270
  715MOL0     C96405   7.506   0.317   5.758  0.0417  0.4705  0.1590
  715MOL0     C96406   7.411   0.330   5.640 -0.5164  0.3405  0.0892
  715MOL0     N96407   7.270   0.315   5.668  0.1660  0.8219  0.4471
  715MOL0     C96408   7.184   0.409   5.702 -0.5231  0.2480 -0.0530
  715MOL0     C96409   7.064   0.346   5.715 -0.6067 -0.2410 -0.3576
  715MOL0     C96410   6.924   0.386   5.767 -0.2000 -0.7775 -0.3203
  715MOL0     C96411   6.820   0.397   5.661 -0.4422  0.1937 -0.0214
  715MOL0     C96412   6.855   0.483   5.538 -0.6726 -0.6949  0.5326
  715MOL0     C96413   6.733   0.503   5.441 -0.3458  0.9736 -0.4201
  715MOL0     O96414   6.643   0.598   5.505  0.1168  0.5978  0.9443
  715MOL0     C96415   6.521   0.554   5.549 -0.2496 -0.3375  1.0908
  715MOL0     C96416   6.463   0.421   5.555 -0.4607  0.7686  0.4540
  715MOL0     C96417   6.327   0.403   5.577  0.0321 -0.6705  0.5452
  715MOL0     C96418   6.271   0.261   5.565 -0.1695 -0.4915  0.0596
  715MOL0     C96419   6.238   0.513   5.608  0.2198 -0.3608  0.2559
  715MOL0     C96420   6.095   0.495   5.631 -0.3172  0.5382 -0.6624
  715MOL0     O96421   6.037   0.371   5.637  0.0054 -0.6331 -0.0725
  715MOL0     C96422   5.903   0.354   5.644  0.0847  0.3184  0.2007
  715MOL0     C96423   5.797   0.443   5.644 -0.3555  0.2976 -0.7011
  715MOL0     C96424   5.662   0.410   5.646  0.1592  0.6885 -0.4716
  715MOL0     C96425   5.633   0.268   5.637  0.7810 -0.7259 -0.1846
  715MOL0     O96426   5.505   0.215   5.631 -0.2067  0.2657 -0.1661
  715MOL0     C96427   5.428   0.283   5.533  0.4352 -0.0540  0.1667
  715MOL0     C96428   5.280   0.253   5.550 -0.5166 -0.4036  0.0563
  715MOL0     C96429   5.179   0.327   5.473 -0.1881  0.1731  0.3688
  715MOL0     C96430   5.036   0.290   5.498 -0.8191 -0.7067 -0.2856
  715MOL0     C96431   4.995   0.148   5.451  0.0687 -0.3982  0.1419
  715MOL0     C96432   4.844   0.129   5.421  0.3072  0.0861  0.3332
  715MOL0     C96433   4.811  -0.020   5.389 -0.3724 -0.0986 -0.0188
  715MOL0     C96434   4.657  -0.052   5.397 -0.5941  0.1964  0.7746
  715MOL0    Cl96435   4.583   0.045   5.261  0.2660  0.6477 -0.0065
  715MOL0     C96436   5.736   0.180   5.662 -0.1129  0.4061  0.1431
  715MOL0     C96437   5.864   0.220   5.664 -1.5210  0.9702 -0.0338
  715MOL0     O96438   6.036   0.604   5.651  0.1948 -0.0202  0.2340
  715MOL0     C96439   6.303   0.640   5.623  0.1435 -0.8516  0.4615
  715MOL0     C96440   6.440   0.658   5.582 -1.1115 -0.4462  0.0674
  715MOL0     N96441   7.092   0.216   5.690  0.4769 -0.0704 -0.3803
  715MOL0     N96442   7.220   0.193   5.680 -0.0094  0.0925 -0.2673
  715MOL0     C96443   8.361   0.303   6.033 -0.0127  0.5352  0.4862
  715MOL0     C96444   8.487   0.335   6.069 -0.3240 -0.1668  0.3474
  715MOL0     C96445   8.920   0.444   6.020  0.8308 -0.0044 -0.9023
  715MOL0     C96446   9.035   0.367   6.013 -1.3317  0.4508 -0.6944
  715MOL0     C96447   9.164   0.413   6.048 -0.2476 -0.7984 -0.2251
  715MOL0     C96448   9.173   0.551   6.099 -0.3579 -0.0387 -0.3178
  715MOL0     O96449   9.295   0.605   6.118 -0.5353 -0.3735  0.4487
  715MOL0     C96450   9.329   0.714   6.208  0.1217  0.5047  0.5475
  715MOL0     C96451   9.465   0.768   6.188 -0.8070  0.0074 -0.5349
  715MOL0     C96452   9.586   0.672   6.219 -0.8708  0.1673  0.0081
  715MOL0     C96453   9.626   0.589   6.095 -0.1199 -0.1129  0.0126
  715MOL0     C96454   9.717   0.483   6.143 -0.1608  0.2778  0.0112
  715MOL0     C96455   9.789   0.397   6.192 -0.1072  0.1825 -0.6284
  715MOL0     C96456   9.049   0.630   6.111 -0.4437 -0.2716 -0.0017
  715MOL0     C96457   8.928   0.578   6.071 -0.5256 -0.3909 -0.4293
  715MOL0     H96458   8.553   0.494   5.770 -2.9457  0.9966 -1.1155
  715MOL0     H96459   8.327   0.408   5.712 -0.9301 -2.0579  0.0289
  715MOL0     H96460   7.998   0.250   5.976 -1.5719  1.7773 -0.3381
  715MOL0     H96461   8.124   0.329   6.080  0.9685  2.7122 -0.5032
  715MOL0     H96462   8.079   0.527   6.007  2.6831 -2.2869  0.8148
  715MOL0     H96463   8.023   0.485   5.843  1.1516 -1.0257 -0.6603
  715MOL0     H96464   7.853   0.403   6.093 -1.6726 -1.9761 -0.7480
  715MOL0     H96465   7.842   0.572   6.031  3.0527 -0.3069 -1.0472
  715MOL0     H96466   7.779   0.552   5.825  1.4946  1.2005  1.9112
  715MOL0     H96467   7.776   0.370   5.823 -3.7095 -1.3961 -0.1132
  715MOL0     H96468   7.618   0.346   6.006  0.0291  0.1909  1.3394
  715MOL0     H96469   7.597   0.520   6.016  3.5558  2.8550 -0.7047
  715MOL0     H96470   7.415   0.446   5.885 -1.3484 -0.2583 -1.0405
  715MOL0     H96471   7.529   0.528   5.766 -4.3716  0.3467 -1.2777
  715MOL0     H96472   7.608   0.291   5.728  1.0585  0.3595  3.3318
  715MOL0     H96473   7.477   0.231   5.820 -0.7957 -0.1090 -0.9995
  715MOL0     H96474   7.434   0.246   5.574  3.2097  0.1384  1.4502
  715MOL0     H96475   7.436   0.428   5.596  3.1015 -0.1001  0.8874
  715MOL0     H96476   7.209   0.512   5.727 -1.6403  0.6084 -0.3627
  715MOL0     H96477   6.891   0.325   5.851  0.8243  0.7103  1.2286
  715MOL0     H96478   6.948   0.485   5.807  1.6661 -0.8801 -1.0832
  715MOL0     H96479   6.731   0.440   5.706 -1.7867 -0.9349 -1.4891
  715MOL0     H96480   6.790   0.298   5.625 -2.0038  0.3767  0.7017
  715MOL0     H96481   6.935   0.430   5.486 -1.2133 -0.0164 -1.0372
  715MOL0     H96482   6.889   0.581   5.572 -2.1585 -0.5640  1.7634
  715MOL0     H96483   6.682   0.415   5.401 -1.2892  1.1577  0.3429
  715MOL0     H96484   6.776   0.555   5.355  3.5816 -1.9596 -0.5400
  715MOL0     H96485   6.533   0.342   5.530  0.7908  0.9609  3.0279
  715MOL0     H96486   6.344   0.201   5.510 -0.8009  0.0989 -1.4715
  715MOL0     H96487   6.262   0.217   5.665 -0.5831 -2.4285 -0.7819
  715MOL0     H96488   6.184   0.254   5.499 -0.3335  0.7559  0.1144
  715MOL0     H96489   5.828   0.547   5.646  1.7783 -0.2420  2.4698
  715MOL0     H96490   5.577   0.477   5.639 -0.8134 -0.3083  1.0825
  715MOL0     H96491   5.433   0.391   5.550 -0.9857 -0.3759  3.1616
  715MOL0     H96492   5.465   0.255   5.434 -1.4664  0.0344 -0.6044
  715MOL0     H96493   5.270   0.147   5.526  3.5736 -1.6801  2.8726
  715MOL0     H96494   5.259   0.273   5.656  1.7530  1.9330  0.1539
  715MOL0     H96495   5.203   0.300   5.369 -0.8173 -0.0853  0.2849
  715MOL0     H96496   5.196   0.434   5.483  0.7757  0.2072 -1.1994
  715MOL0     H96497   5.004   0.306   5.601 -0.8564 -0.3219 -0.3562
  715MOL0     H96498   4.976   0.363   5.443 -0.0999 -1.5258 -2.2790
  715MOL0     H96499   5.037   0.086   5.531 -1.3844 -1.4818  0.1192
  715MOL0     H96500   5.051   0.125   5.360  0.7464 -4.4375  1.3689
  715MOL0     H96501   4.774   0.173   5.493  0.3330  1.9678 -0.7349
  715MOL0     H96502   4.832   0.189   5.331  2.3722  0.8851  0.5179
  715MOL0     H96503   4.853  -0.089   5.462  1.6929  0.3528 -0.7256
  715MOL0     H96504   4.861  -0.046   5.295 -1.6768 -1.7093 -0.3140
  715MOL0     H96505   4.610  -0.031   5.493  0.1420  2.9299  0.6259
  715MOL0     H96506   4.651  -0.158   5.370  0.7030 -0.0032  1.2019
  715MOL0     H96507   5.713   0.075   5.673  1.4458 -0.0751 -0.8598
  715MOL0     H96508   5.946   0.149   5.670 -0.8219  1.8581  1.5982
  715MOL0     H96509   6.256   0.731   5.659  1.1118  0.2050 -0.8519
  715MOL0     H96510   6.485   0.757   5.589 -1.2397 -0.3637 -0.3044
  715MOL0     H96511   8.302   0.260   6.112 -2.1180  2.6965  0.2162
  715MOL0     H96512   8.528   0.310   6.166  2.1143 -1.0748 -0.8288
  715MOL0     H96513   9.036   0.274   5.956  1.3760 -1.0991  1.5734
  715MOL0     H96514   9.254   0.357   6.025  0.7857  0.5271  0.4135
  715MOL0     H96515   9.259   0.797   6.199  1.5290  1.9711  2.4460
  715MOL0     H96516   9.318   0.688   6.314  4.8737 -1.4990  0.7812
  715MOL0     H96517   9.483   0.863   6.240 -1.5276  0.9279 -1.9055
  715MOL0     H96518   9.477   0.797   6.083 -3.0330 -1.1576 -1.1926
  715MOL0     H96519   9.569   0.593   6.293 -0.2120  1.4563  1.5775
  715MOL0     H96520   9.678   0.728   6.237  0.6409 -1.0882 -2.9369
  715MOL0     H96521   9.680   0.655   6.027 -1.2726 -0.0327 -0.8443
  715MOL0     H96522   9.540   0.550   6.040 -0.2671 -0.2209  0.3153
  715MOL0     H96523   9.852   0.325   6.240 -0.7469  1.2651  2.0256
  715MOL0     H96524   9.047   0.731   6.151 -1.9806 -0.7670  1.3049
  715MOL0     H96525   8.840   0.641   6.077 -1.7266 -1.4194 -4.3077
  716MOL0     O96526   1.201   5.959   3.962  0.4817 -0.1104  0.2389
  716MOL0     C96527   1.089   5.925   3.921 -0.0621  0.8514 -1.2237
  716MOL0     O96528   1.061   5.799   3.868 -0.6573  0.1071 -0.0533
  716MOL0     C96529   1.160   5.715   3.812  0.4504 -0.4700 -0.2813
  716MOL0     C96530   1.167   5.585   3.841  0.5042  0.4853 -0.5306
  716MOL0     C96531   1.251   5.498   3.777 -0.2175  0.3176 -0.8253
  716MOL0     C96532   1.333   5.549   3.676  0.4624  0.2716  0.0905
  716MOL0     O96533   1.439   5.475   3.635 -0.3431  0.6019 -0.1653
  716MOL0     C96534   1.429   5.376   3.525  0.6526 -0.3656  0.0374
  716MOL0     C96535   1.558   5.300   3.503 -0.7210  0.0674  0.5042
  716MOL0     C96536   1.582   5.222   3.631 -0.3659 -0.2512 -0.1189
  716MOL0     C96537   1.734   5.193   3.652  0.0719 -0.4367 -0.1224
  716MOL0     C96538   1.778   5.097   3.542  0.2084  0.9687 -0.0415
  716MOL0     C96539   1.927   5.051   3.555 -0.4403  0.4637 -0.1165
  716MOL0     C96540   1.933   4.916   3.629  0.3080  0.1355  0.3319
  716MOL0     C96541   2.076   4.870   3.638 -1.1399  0.5717  0.3785
  716MOL0     N96542   2.128   4.801   3.509 -0.2242  0.0288  0.1331
  716MOL0     C96543   2.074   4.689   3.448 -0.0110  0.5822 -0.0771
  716MOL0     C96544   2.150   4.664   3.337 -0.8327  0.1254 -0.5454
  716MOL0     C96545   2.128   4.553   3.229 -0.5829  0.2276  0.1855
  716MOL0     C96546   1.990   4.562   3.157 -0.1785 -0.0859  0.3080
  716MOL0     C96547   1.997   4.644   3.025 -0.8112 -0.3693 -0.0588
  716MOL0     C96548   2.049   4.791   3.045 -0.6483  0.5281 -0.2066
  716MOL0     O96549   1.950   4.857   3.122 -0.0335  0.0923 -0.5411
  716MOL0     C96550   1.846   4.909   3.055 -0.4500  0.9398 -0.1530
  716MOL0     C96551   1.752   4.966   3.139  0.7042 -0.1241 -0.3410
  716MOL0     C96552   1.626   5.010   3.086  0.5335 -0.8635  0.2555
  716MOL0     C96553   1.527   5.049   3.191 -0.4069  0.6300  0.2125
  716MOL0     C96554   1.597   4.998   2.946  0.2201  0.3881 -0.3900
  716MOL0     C96555   1.472   5.038   2.872 -0.3175 -0.9697  0.6057
  716MOL0     O96556   1.403   4.954   2.795  1.2282  0.2680 -0.1061
  716MOL0     C96557   1.279   4.996   2.745 -0.2544  0.2553 -0.1925
  716MOL0     C96558   1.261   5.115   2.667  0.1421 -0.8839  0.1656
  716MOL0     C96559   1.131   5.167   2.631 -0.0438  0.5761 -0.1359
  716MOL0     C96560   1.012   5.090   2.651 -0.0384  0.5693 -0.3251
  716MOL0     O96561   0.902   5.131   2.587  0.0186 -0.0906 -0.2392
  716MOL0     C96562   0.816   5.216   2.655  0.1617 -0.0543  0.0244
  716MOL0     C96563   0.790   5.346   2.577 -0.2934  0.8292  0.3743
  716MOL0     C96564   0.667   5.414   2.631  0.0253 -0.9497 -0.5846
  716MOL0     C96565   0.528   5.350   2.583 -0.5127  0.1833 -0.1152
  716MOL0     C96566   0.414   5.378   2.680 -0.7921 -0.1463 -0.0209
  716MOL0     C96567   0.347   5.515   2.655  0.2372  0.4068 -0.4491
  716MOL0     C96568   0.208   5.525   2.719 -0.5111  0.5862  0.1347
  716MOL0     C96569   0.149   5.664   2.720  0.0780  0.2301 -0.1497
  716MOL0    Cl96570   0.266   5.790   2.788  0.0155  0.3472 -0.2256
  716MOL0     C96571   1.030   4.965   2.705 -0.9736 -0.9681  0.2849
  716MOL0     C96572   1.157   4.925   2.763 -1.4633 -0.2207 -0.1684
  716MOL0     O96573   1.437   5.153   2.905 -0.0289 -0.0439 -0.3739
  716MOL0     C96574   1.693   4.945   2.861 -0.4156 -0.1384 -0.2635
  716MOL0     C96575   1.820   4.902   2.918  0.4260  0.7655 -0.3557
  716MOL0     N96576   2.259   4.752   3.342 -0.2249 -0.0363  0.8569
  716MOL0     N96577   2.246   4.833   3.442  0.4852  0.1982  0.7901
  716MOL0     C96578   1.342   5.689   3.651  0.8638 -0.6941  0.3090
  716MOL0     C96579   1.243   5.769   3.707  0.2734 -0.6075  0.8773
  716MOL0     C96580   0.978   6.019   3.926 -0.8159  0.2764  0.1487
  716MOL0     C96581   0.994   6.151   3.963 -1.1057  0.3629  0.2862
  716MOL0     C96582   0.900   6.248   3.943 -0.1262 -0.3697 -0.1846
  716MOL0     C96583   0.785   6.217   3.867 -0.0267  0.0718 -0.0701
  716MOL0     O96584   0.704   6.321   3.836 -0.4198 -0.1755  0.6080
  716MOL0     C96585   0.573   6.300   3.769  0.4269 -0.1812  0.2151
  716MOL0     C96586   0.522   6.443   3.752 -0.5161  0.3980 -0.2621
  716MOL0     C96587   0.512   6.530   3.876 -0.0194  0.0479 -0.5473
  716MOL0     C96588   0.479   6.674   3.833  0.9431 -0.2692  0.1540
  716MOL0     C96589   0.346   6.681   3.762 -0.0130 -0.2770 -0.5896
  716MOL0     C96590   0.236   6.710   3.716 -0.1186 -0.0546  0.2457
  716MOL0     C96591   0.767   6.083   3.822 -0.4054 -0.3465 -0.1977
  716MOL0     C96592   0.860   5.984   3.861  0.5637  0.2142 -0.1818
  716MOL0     H96593   1.097   5.544   3.913  1.4883 -0.0545  0.1515
  716MOL0     H96594   1.247   5.394   3.807  0.2056  0.5381  0.0383
  716MOL0     H96595   1.357   5.297   3.549 -1.1942  1.1053 -0.3923
  716MOL0     H96596   1.396   5.409   3.426  3.7656 -2.9317 -2.0645
  716MOL0     H96597   1.542   5.228   3.422  0.3134  0.1697  0.1951
  716MOL0     H96598   1.641   5.366   3.478  0.2982 -1.0084  1.0055
  716MOL0     H96599   1.559   5.279   3.721 -1.7511  2.8672 -2.2480
  716MOL0     H96600   1.525   5.129   3.631 -0.3096 -0.2987  1.0285
  716MOL0     H96601   1.798   5.281   3.655  0.7739 -0.9493  0.2354
  716MOL0     H96602   1.749   5.150   3.752  2.9734  1.8394  0.5466
  716MOL0     H96603   1.711   5.010   3.547  0.3174  0.8909  0.0812
  716MOL0     H96604   1.753   5.133   3.441 -1.4907 -0.7767 -0.3051
  716MOL0     H96605   1.967   5.035   3.455  1.7350 -1.3281  0.9559
  716MOL0     H96606   1.985   5.124   3.611  1.6371 -1.5910  0.5588
  716MOL0     H96607   1.900   4.943   3.730 -0.4373  0.2850  0.0561
  716MOL0     H96608   1.875   4.839   3.578 -0.5550 -0.2534  1.8453
  716MOL0     H96609   2.094   4.806   3.725 -1.4139  0.6797  0.5156
  716MOL0     H96610   2.150   4.948   3.652  0.0495 -0.6473  1.1563
  716MOL0     H96611   1.993   4.624   3.479  2.5920 -2.9770 -0.0223
  716MOL0     H96612   2.210   4.566   3.157  0.2170  0.1447  1.0605
  716MOL0     H96613   2.135   4.454   3.275  1.0024  0.9446  1.6046
  716MOL0     H96614   1.924   4.611   3.229  1.4816  1.0532  1.1181
  716MOL0     H96615   1.950   4.464   3.130  0.2054 -0.4081  0.9090
  716MOL0     H96616   1.897   4.638   2.982 -0.7211 -2.4781 -0.1163
  716MOL0     H96617   2.059   4.586   2.956 -0.0503  0.5404 -0.1544
  716MOL0     H96618   2.069   4.845   2.952  1.4659 -2.1223 -1.4376
  716MOL0     H96619   2.150   4.785   3.086  0.2364 -2.9954 -2.4575
  716MOL0     H96620   1.775   4.987   3.242  2.0264  1.7426 -0.9631
  716MOL0     H96621   1.552   5.028   3.295  0.8773  3.8515  0.6607
  716MOL0     H96622   1.518   5.158   3.186  1.7013  0.8989  0.9349
  716MOL0     H96623   1.430   5.002   3.174 -0.7213  1.4080 -0.1835
  716MOL0     H96624   1.342   5.180   2.637  1.0042 -0.5986  2.8325
  716MOL0     H96625   1.126   5.269   2.593  0.9309  1.1394  1.1746
  716MOL0     H96626   0.725   5.156   2.655  0.1587 -0.0902  1.8912
  716MOL0     H96627   0.845   5.243   2.757 -3.6370  2.3562  0.6619
  716MOL0     H96628   0.871   5.416   2.598  0.8524 -0.5567  0.7529
  716MOL0     H96629   0.771   5.329   2.471  1.2382  2.2456 -0.1622
  716MOL0     H96630   0.668   5.521   2.607  1.5953 -0.8286 -0.0645
  716MOL0     H96631   0.658   5.395   2.738 -0.1835  0.2899 -0.3642
  716MOL0     H96632   0.507   5.391   2.484 -1.2125  2.1159  0.7648
  716MOL0     H96633   0.552   5.244   2.593 -0.7339  0.2301  0.9906
  716MOL0     H96634   0.443   5.380   2.785 -0.4216  4.5999 -0.0230
  716MOL0     H96635   0.338   5.302   2.660 -2.2915  0.8907  1.5130
  716MOL0     H96636   0.419   5.591   2.686  1.8118 -0.0172 -2.8140
  716MOL0     H96637   0.348   5.524   2.546  2.2762 -0.6820 -0.5639
  716MOL0     H96638   0.217   5.501   2.825  1.0336  2.0103  0.3783
  716MOL0     H96639   0.146   5.453   2.666  1.8460 -2.0556  0.7627
  716MOL0     H96640   0.058   5.671   2.780 -0.8597 -1.2100 -1.3523
  716MOL0     H96641   0.122   5.676   2.615 -0.5092 -2.1595 -0.3283
  716MOL0     H96642   0.945   4.897   2.704 -2.9729  1.4024 -1.2717
  716MOL0     H96643   1.145   4.826   2.807 -3.1103 -0.0385 -0.1359
  716MOL0     H96644   1.673   4.933   2.755  1.7934 -3.2404 -0.4831
  716MOL0     H96645   1.897   4.857   2.855  2.7916  0.2742  2.6655
  716MOL0     H96646   1.422   5.716   3.583 -0.8782  0.7454 -1.2446
  716MOL0     H96647   1.229   5.875   3.685 -1.2370 -0.7546  1.0169
  716MOL0     H96648   1.080   6.193   4.015 -0.5227  1.9080 -1.7643
  716MOL0     H96649   0.919   6.348   3.979 -0.9941 -0.7330  1.3842
  716MOL0     H96650   0.595   6.243   3.678  0.3338  1.0822 -0.6161
  716MOL0     H96651   0.519   6.239   3.842  0.8492 -0.4368  0.3195
  716MOL0     H96652   0.429   6.436   3.695 -0.0141 -4.1111 -0.9477
  716MOL0     H96653   0.599   6.493   3.692  1.1158 -1.0046  0.5702
  716MOL0     H96654   0.614   6.535   3.916  0.4042 -2.3835 -1.1651
  716MOL0     H96655   0.437   6.491   3.945  1.8969 -1.2255  0.9273
  716MOL0     H96656   0.552   6.729   3.773 -1.7740  2.1013 -1.2229
  716MOL0     H96657   0.454   6.727   3.925  1.3228 -0.6499  0.4786
  716MOL0     H96658   0.145   6.729   3.662 -0.5367  2.6416  1.7275
  716MOL0     H96659   0.681   6.057   3.761  1.1786 -2.0707 -1.8141
  716MOL0     H96660   0.833   5.882   3.835 -0.3652 -0.7695  3.8609
  717MOL0     O96661   9.946   4.034   5.138 -0.1773 -0.1462 -0.0951
  717MOL0     C96662   9.914   4.152   5.156  0.0843  0.9193  0.0692
  717MOL0     O96663   9.981   4.268   5.118 -0.5698 -0.0643 -0.1020
  717MOL0     C96664  10.090   4.245   5.043  0.2056 -0.1310  1.2553
  717MOL0     C96665  10.203   4.171   5.091 -0.7477 -0.0684 -0.2293
  717MOL0     C96666  10.327   4.169   5.033 -1.2699 -0.3713 -0.4643
  717MOL0     C96667  10.342   4.246   4.919 -0.2753  0.2951 -0.2892
  717MOL0     O96668  10.465   4.251   4.860  0.5308 -0.5357  0.0383
  717MOL0     C96669  10.525   4.127   4.813  0.1831 -0.2177 -0.9858
  717MOL0     C96670  10.574   4.147   4.671 -0.0231 -0.0733 -0.2579
  717MOL0     C96671  10.452   4.174   4.570 -0.1706 -0.2939  0.0124
  717MOL0     C96672  10.358   4.056   4.559 -0.4894  0.3995  0.0888
  717MOL0     C96673  10.254   4.053   4.450 -0.7336  0.3392 -0.8587
  717MOL0     C96674  10.149   4.165   4.457  0.5828  0.1177 -0.3210
  717MOL0     C96675  10.032   4.130   4.547  0.0633  0.3373  0.1760
  717MOL0     C96676   9.926   4.232   4.546 -0.2516  0.2346  0.4105
  717MOL0     N96677   9.836   4.209   4.660 -0.1966 -0.5986  0.4208
  717MOL0     C96678   9.747   4.102   4.672 -0.1352  0.6031 -0.4803
  717MOL0     C96679   9.667   4.132   4.780  0.0324  0.6053 -0.0512
  717MOL0     C96680   9.564   4.045   4.848 -0.6193 -0.0583  0.5342
  717MOL0     C96681   9.417   4.075   4.802  0.2222  0.0308  0.2137
  717MOL0     C96682   9.328   4.116   4.919  0.3112  1.2802 -0.3517
  717MOL0     C96683   9.348   4.252   4.971  0.6881  0.2443 -0.9514
  717MOL0     O96684   9.314   4.263   5.113 -0.5165 -0.0265 -0.1870
  717MOL0     C96685   9.182   4.246   5.131 -0.0259 -0.1722 -0.8792
  717MOL0     C96686   9.139   4.140   5.204  0.6274 -0.0547 -0.1915
  717MOL0     C96687   9.004   4.129   5.241 -0.3162  0.8447  0.3786
  717MOL0     C96688   8.953   4.011   5.330  0.5293  0.1487 -0.5083
  717MOL0     C96689   8.913   4.231   5.203  0.0784  0.5436  0.2890
  717MOL0     C96690   8.774   4.244   5.229 -0.7193  0.5929 -0.5362
  717MOL0     O96691   8.728   4.366   5.234 -0.4358 -0.3549 -0.3453
  717MOL0     C96692   8.599   4.379   5.279 -0.6276  0.5250 -0.7840
  717MOL0     C96693   8.568   4.450   5.395 -0.8177 -0.6270 -0.4739
  717MOL0     C96694   8.433   4.473   5.436  0.9456 -0.0779  0.5206
  717MOL0     C96695   8.329   4.436   5.345 -0.5225 -0.4220  0.2080
  717MOL0     O96696   8.197   4.463   5.354  0.1116 -1.5454  0.1255
  717MOL0     C96697   8.144   4.489   5.490 -0.2641  0.1238 -1.0040
  717MOL0     C96698   7.992   4.461   5.490  0.6882  0.6431 -0.9738
  717MOL0     C96699   7.909   4.533   5.380 -0.1969 -1.0253 -0.0821
  717MOL0     C96700   7.754   4.527   5.413  0.2588  0.1043  0.7327
  717MOL0     C96701   7.675   4.621   5.320 -0.3275  0.1249  0.6291
  717MOL0     C96702   7.524   4.589   5.328 -0.3927 -0.6270 -0.7235
  717MOL0     C96703   7.449   4.669   5.226  0.6691 -0.6930  0.3224
  717MOL0     C96704   7.295   4.638   5.230 -0.8305 -0.2752 -0.2427
  717MOL0    Cl96705   7.201   4.781   5.182 -0.2182  0.4281  0.6785
  717MOL0     C96706   8.369   4.368   5.231  0.2618 -0.3851  0.8489
  717MOL0     C96707   8.499   4.351   5.193 -0.4677  0.5757  0.3038
  717MOL0     O96708   8.707   4.141   5.223 -0.1519 -1.0574  0.1500
  717MOL0     C96709   8.964   4.339   5.129 -0.5573  0.1536  0.3979
  717MOL0     C96710   9.096   4.349   5.087  0.1063  0.3419  0.4884
  717MOL0     N96711   9.720   4.242   4.842 -0.2997  0.2857  0.4113
  717MOL0     N96712   9.813   4.287   4.771 -0.1846 -0.5691 -0.2443
  717MOL0     C96713  10.239   4.313   4.860  0.2278 -0.6993 -0.1070
  717MOL0     C96714  10.118   4.314   4.920  0.2720  0.6167  0.6695
  717MOL0     C96715   9.789   4.172   5.246  0.3183  0.0429 -0.3936
  717MOL0     C96716   9.710   4.059   5.288  0.3990 -0.9869 -0.1862
  717MOL0     C96717   9.592   4.077   5.371 -0.4903 -0.3170  0.4979
  717MOL0     C96718   9.558   4.204   5.409 -0.4333  0.6928  0.3047
  717MOL0     O96719   9.442   4.210   5.478  0.0054 -0.4933  0.7554
  717MOL0     C96720   9.374   4.336   5.488  0.2504  0.1432 -0.1719
  717MOL0     C96721   9.239   4.326   5.553  0.1176  0.8027 -0.0191
  717MOL0     C96722   9.243   4.311   5.712  0.2096 -0.8907 -0.3021
  717MOL0     C96723   9.267   4.156   5.738  0.3219 -0.8316  0.0828
  717MOL0     C96724   9.355   4.139   5.857 -0.3557 -0.1016  0.2644
  717MOL0     C96725   9.445   4.128   5.940 -0.7797 -0.0864  0.2562
  717MOL0     C96726   9.624   4.311   5.369 -0.8139 -1.2368  1.0459
  717MOL0     C96727   9.742   4.300   5.287  0.7055 -0.2332  0.0770
  717MOL0     H96728  10.183   4.117   5.183  0.9761  2.2860  1.6587
  717MOL0     H96729  10.411   4.116   5.078 -0.9009 -0.0943 -0.8184
  717MOL0     H96730  10.611   4.117   4.881 -3.1328  0.6995  3.8195
  717MOL0     H96731  10.455   4.043   4.820 -0.5450  0.4613  0.1040
  717MOL0     H96732  10.649   4.226   4.681 -0.0043 -0.2693  1.3023
  717MOL0     H96733  10.626   4.058   4.636  2.5673  1.9841 -2.0985
  717MOL0     H96734  10.400   4.266   4.599  1.4466  1.5615 -2.5263
  717MOL0     H96735  10.481   4.201   4.468 -3.5824  1.0248 -0.7413
  717MOL0     H96736  10.424   3.973   4.531 -3.3118 -1.6996 -0.9076
  717MOL0     H96737  10.311   4.037   4.656 -1.0512 -1.4835 -0.5077
  717MOL0     H96738  10.305   4.077   4.357  2.2833 -0.0675  0.5598
  717MOL0     H96739  10.196   3.961   4.443 -1.5787  0.9695 -2.6310
  717MOL0     H96740  10.194   4.258   4.492 -0.8982  0.2243  1.4726
  717MOL0     H96741  10.110   4.191   4.358 -0.4826 -0.4642 -0.0776
  717MOL0     H96742   9.996   4.030   4.522  2.1086  0.2629 -2.9039
  717MOL0     H96743  10.063   4.118   4.651  0.8648 -0.5565 -0.1602
  717MOL0     H96744   9.868   4.228   4.454  2.0151  1.3268 -1.1490
  717MOL0     H96745   9.965   4.334   4.556 -0.4087  0.3824 -0.4507
  717MOL0     H96746   9.742   4.020   4.600  0.2332  0.5628 -0.4619
  717MOL0     H96747   9.572   3.941   4.816 -1.0654  0.1915 -0.4148
  717MOL0     H96748   9.561   4.061   4.956 -3.9139 -1.3506  0.7659
  717MOL0     H96749   9.367   3.985   4.764  1.4805  0.1456 -1.8753
  717MOL0     H96750   9.420   4.148   4.721  0.3996 -1.7899 -1.4980
  717MOL0     H96751   9.331   4.035   4.992  0.2939 -1.3056 -3.0480
  717MOL0     H96752   9.225   4.110   4.883  0.2686  0.2583 -0.0850
  717MOL0     H96753   9.294   4.315   4.900 -1.0970 -2.4467 -2.1705
  717MOL0     H96754   9.453   4.277   4.958  1.1073 -1.4737 -1.0709
  717MOL0     H96755   9.211   4.066   5.238  1.6326  0.4168 -1.2291
  717MOL0     H96756   8.942   3.916   5.276  0.0498  0.7637 -1.5095
  717MOL0     H96757   9.033   4.001   5.404 -0.7077  1.3594  1.0631
  717MOL0     H96758   8.859   4.041   5.379  0.5806  0.8239 -0.8252
  717MOL0     H96759   8.653   4.481   5.454 -0.0240 -0.2704 -1.7607
  717MOL0     H96760   8.400   4.514   5.531  2.2868 -1.9868  1.8866
  717MOL0     H96761   8.199   4.434   5.567 -0.9797 -1.4564 -1.5772
  717MOL0     H96762   8.158   4.596   5.509  2.4008 -0.7774  3.4838
  717MOL0     H96763   7.975   4.354   5.482  1.3940  0.5876 -1.9428
  717MOL0     H96764   7.958   4.496   5.588  1.0518  1.8968 -1.2690
  717MOL0     H96765   7.939   4.483   5.288 -1.2850 -0.5488 -0.7061
  717MOL0     H96766   7.944   4.637   5.381  1.2395 -1.4776  1.0683
  717MOL0     H96767   7.726   4.423   5.399 -0.9670  0.5246 -0.0988
  717MOL0     H96768   7.735   4.551   5.519 -2.6830  0.0902  0.2897
  717MOL0     H96769   7.713   4.597   5.220  0.5124 -0.7175  1.1350
  717MOL0     H96770   7.695   4.727   5.335 -0.4665  0.4709 -1.4088
  717MOL0     H96771   7.499   4.484   5.312 -1.2206 -0.3403 -1.3574
  717MOL0     H96772   7.486   4.607   5.429 -0.8176 -1.7990 -0.6630
  717MOL0     H96773   7.484   4.652   5.124  0.8189 -0.5204  0.3454
  717MOL0     H96774   7.472   4.773   5.250  3.2977 -1.1047 -0.1636
  717MOL0     H96775   7.265   4.640   5.335 -1.0575  0.6797 -0.3124
  717MOL0     H96776   7.270   4.550   5.170 -1.2596  0.0604 -0.5665
  717MOL0     H96777   8.298   4.326   5.161  2.6315 -1.3448 -1.1116
  717MOL0     H96778   8.532   4.299   5.105  2.9940 -0.3606  1.9817
  717MOL0     H96779   8.904   4.422   5.094 -1.3199 -0.4515  0.2215
  717MOL0     H96780   9.135   4.432   5.030  1.8207 -0.6907  0.1102
  717MOL0     H96781  10.253   4.354   4.760 -2.3295 -1.0655 -0.6830
  717MOL0     H96782  10.038   4.369   4.871  0.7543 -0.7327 -1.7382
  717MOL0     H96783   9.744   3.958   5.269  1.7089 -0.7627  0.8975
  717MOL0     H96784   9.541   3.985   5.398 -0.2408 -0.7373 -0.4152
  717MOL0     H96785   9.446   4.391   5.550  2.1994 -1.6614 -0.7223
  717MOL0     H96786   9.361   4.380   5.389  1.9135 -0.3189 -0.6340
  717MOL0     H96787   9.189   4.245   5.500  1.6013  0.1597 -0.4981
  717MOL0     H96788   9.188   4.419   5.529  1.3792  1.2842 -1.0147
  717MOL0     H96789   9.151   4.353   5.753  0.8930  0.9249 -0.5397
  717MOL0     H96790   9.326   4.366   5.757  0.3167 -2.9660  2.2892
  717MOL0     H96791   9.316   4.104   5.655 -1.1868 -0.9173 -0.7874
  717MOL0     H96792   9.175   4.101   5.757  0.4497 -1.3056 -0.6249
  717MOL0     H96793   9.521   4.128   6.015 -1.4285 -1.4334  0.9445
  717MOL0     H96794   9.603   4.412   5.403 -0.6598 -0.3342 -1.3810
  717MOL0     H96795   9.796   4.392   5.268 -1.8365  1.4716  0.6475
  718MOL0     O96796   9.666   3.366  11.039 -0.3724 -0.2296  0.9973
  718MOL0     C96797   9.732   3.271  11.012  0.2640 -1.2110  0.8063
  718MOL0     O96798   9.698   3.144  11.023  1.2195 -0.4221 -0.2470
  718MOL0     C96799   9.610   3.097  11.113  0.2745  0.2309  0.5896
  718MOL0     C96800   9.559   3.157  11.231  0.6623 -0.5102  0.0542
  718MOL0     C96801   9.462   3.092  11.311  0.2935 -0.1258 -0.2103
  718MOL0     C96802   9.439   2.956  11.288  0.4479 -0.1546 -0.6791
  718MOL0     O96803   9.339   2.890  11.372 -0.4033  0.3060 -0.3606
  718MOL0     C96804   9.286   2.761  11.340  0.6340 -0.0785 -0.3050
  718MOL0     C96805   9.183   2.785  11.237 -0.4811  0.3393 -0.5016
  718MOL0     C96806   9.118   2.652  11.187  0.2789 -0.0168  0.1289
  718MOL0     C96807   9.009   2.659  11.089  0.3590 -0.6023  0.6453
  718MOL0     C96808   9.048   2.721  10.949 -0.1808 -0.4301 -0.9351
  718MOL0     C96809   8.936   2.740  10.846  0.0155 -0.1458 -0.3154
  718MOL0     C96810   8.877   2.604  10.818  0.3927 -1.0506 -0.5857
  718MOL0     C96811   8.762   2.624  10.713  0.1762  0.0282  0.8540
  718MOL0     N96812   8.676   2.501  10.701  0.1517 -0.2042  0.6630
  718MOL0     C96813   8.723   2.375  10.685 -0.3491 -0.0990  0.3668
  718MOL0     C96814   8.612   2.297  10.698  0.0466 -0.3544 -0.7087
  718MOL0     C96815   8.595   2.154  10.684 -0.4118  0.1729 -0.2579
  718MOL0     C96816   8.634   2.131  10.538 -1.2478 -0.3006 -0.0559
  718MOL0     C96817   8.514   2.107  10.448 -0.8328  0.4789  1.0565
  718MOL0     C96818   8.531   2.022  10.327 -0.0392 -0.0058 -0.1769
  718MOL0     O96819   8.413   2.000  10.253 -0.1117 -0.0926 -0.3540
  718MOL0     C96820   8.419   1.967  10.122 -0.9817  0.4280  0.4378
  718MOL0     C96821   8.530   1.927  10.045 -0.4428 -0.4357  0.8559
  718MOL0     C96822   8.521   1.895   9.902  0.6340  0.0421 -0.8959
  718MOL0     C96823   8.647   1.843   9.840 -0.4478 -0.3675  0.3652
  718MOL0     C96824   8.395   1.915   9.834 -0.0380  0.5008 -0.0711
  718MOL0     C96825   8.370   1.903   9.689  0.7412  0.8022 -0.1941
  718MOL0     O96826   8.250   1.942   9.639  0.1690 -0.6364  0.4095
  718MOL0     C96827   8.230   1.973   9.505 -0.3907  0.1419 -1.0794
  718MOL0     C96828   8.318   1.971   9.394  0.6075  0.1672 -0.7818
  718MOL0     C96829   8.268   2.018   9.268 -0.4563 -0.0412 -0.0613
  718MOL0     C96830   8.133   2.051   9.254  0.2776 -0.2134 -0.1987
  718MOL0     O96831   8.084   2.069   9.134  0.3183  0.2328  0.2915
  718MOL0     C96832   8.047   2.202   9.114  0.1916 -0.5446 -0.0403
  718MOL0     C96833   8.049   2.215   8.959 -0.2492 -0.8468  0.9578
  718MOL0     C96834   7.974   2.340   8.919 -0.4110 -0.0456 -0.8552
  718MOL0     C96835   7.829   2.320   8.894 -0.2901 -0.3050 -0.0732
  718MOL0     C96836   7.759   2.453   8.865  0.3048 -0.1528  0.0629
  718MOL0     C96837   7.607   2.411   8.858  0.4382  0.3424 -0.1964
  718MOL0     C96838   7.520   2.529   8.824  0.5711 -1.4343 -0.4106
  718MOL0     C96839   7.379   2.474   8.793 -0.3574  1.0529  0.0006
  718MOL0    Cl96840   7.270   2.607   8.738  0.6504 -0.0104  0.0064
  718MOL0     C96841   8.045   2.067   9.368  0.1185 -0.1237  0.9110
  718MOL0     C96842   8.091   2.020   9.487 -0.2663 -1.1051 -0.8683
  718MOL0     O96843   8.460   1.852   9.618 -0.2257  0.4696 -0.9127
  718MOL0     C96844   8.287   1.959   9.913 -0.2407  0.7552  0.4119
  718MOL0     C96845   8.297   1.988  10.051 -0.1142 -0.3653  0.0804
  718MOL0     N96846   8.499   2.374  10.721  0.1860 -0.1152 -0.1208
  718MOL0     N96847   8.541   2.496  10.711 -0.2621  0.2367  0.1130
  718MOL0     C96848   9.504   2.890  11.177  0.1556 -0.6736 -0.8988
  718MOL0     C96849   9.586   2.957  11.091 -0.6077  0.0998  0.0388
  718MOL0     C96850   9.861   3.295  10.960 -0.8834 -0.7714 -0.2572
  718MOL0     C96851   9.922   3.420  10.978 -0.1615 -0.1663 -0.8977
  718MOL0     C96852  10.048   3.429  10.919 -0.3961 -0.9728  0.5679
  718MOL0     C96853  10.113   3.329  10.842  0.7135 -0.0391 -0.1535
  718MOL0     O96854  10.242   3.365  10.805 -0.0439 -0.4263 -0.0207
  718MOL0     C96855  10.333   3.269  10.753 -0.5907  0.2301 -0.1982
  718MOL0     C96856  10.387   3.167  10.854  0.0417  0.5202 -0.8855
  718MOL0     C96857  10.528   3.115  10.829 -0.2481  0.2997 -1.0632
  718MOL0     C96858  10.556   2.995  10.926 -0.4181 -0.3955 -0.2282
  718MOL0     C96859  10.693   2.942  10.903  1.4382 -0.7703  0.4026
  718MOL0     C96860  10.804   2.912  10.862  0.1453 -0.9388 -0.5331
  718MOL0     C96861  10.047   3.212  10.829  0.4516  0.2607 -0.5021
  718MOL0     C96862   9.922   3.190  10.883 -0.6789 -0.6333 -0.0494
  718MOL0     H96863   9.585   3.261  11.248 -0.2889 -0.4316  1.1577
  718MOL0     H96864   9.411   3.147  11.389 -0.7170  0.6307 -1.3836
  718MOL0     H96865   9.346   2.675  11.313  0.5953 -0.4965  0.8850
  718MOL0     H96866   9.245   2.717  11.431  0.9541  1.9394  0.8836
  718MOL0     H96867   9.096   2.833  11.282 -1.6643 -3.7289  2.0965
  718MOL0     H96868   9.233   2.843  11.159  1.1255  0.5830  0.6676
  718MOL0     H96869   9.204   2.608  11.136  1.5036  0.1336  1.9875
  718MOL0     H96870   9.092   2.589  11.273 -1.8205 -0.4373 -0.7471
  718MOL0     H96871   8.955   2.564  11.080 -0.8909  0.1470 -0.1268
  718MOL0     H96872   8.942   2.742  11.111 -0.7401 -0.0761 -3.6825
  718MOL0     H96873   9.107   2.812  10.960 -2.4809  0.8407  2.0538
  718MOL0     H96874   9.116   2.651  10.898  0.2943 -0.1724 -0.6583
  718MOL0     H96875   8.859   2.808  10.884 -0.4694  0.6543 -2.5970
  718MOL0     H96876   8.976   2.781  10.753  0.2148  2.7286  0.9163
  718MOL0     H96877   8.956   2.542  10.777 -0.0877 -1.1705 -1.3512
  718MOL0     H96878   8.839   2.562  10.912 -0.7924  0.1123 -0.5103
  718MOL0     H96879   8.791   2.659  10.614  1.4644  1.1879  1.5832
  718MOL0     H96880   8.694   2.702  10.750 -1.2048 -0.9887  0.5052
  718MOL0     H96881   8.828   2.349  10.675  0.1963  1.7771  0.9074
  718MOL0     H96882   8.664   2.110  10.756 -0.8452  0.9842  0.6767
  718MOL0     H96883   8.491   2.122  10.702  0.0297 -0.4721  1.2694
  718MOL0     H96884   8.691   2.037  10.535 -0.0714  0.4090 -0.8374
  718MOL0     H96885   8.705   2.203  10.495  1.2858 -0.6270  3.1290
  718MOL0     H96886   8.475   2.205  10.417 -0.3575  0.8896  1.7249
  718MOL0     H96887   8.441   2.051  10.506 -0.6264 -0.2987  0.5830
  718MOL0     H96888   8.584   1.930  10.357 -0.9795 -0.4109  0.2912
  718MOL0     H96889   8.608   2.076  10.272 -0.2107 -0.6699 -1.1021
  718MOL0     H96890   8.625   1.919  10.097  1.0374  2.1980 -1.1880
  718MOL0     H96891   8.724   1.831   9.916  0.9328  0.5442 -0.8243
  718MOL0     H96892   8.634   1.747   9.791  1.6278 -1.9437  2.6709
  718MOL0     H96893   8.685   1.915   9.767 -1.9872 -0.7906 -0.9238
  718MOL0     H96894   8.419   1.934   9.412 -0.3930 -2.8051 -0.7008
  718MOL0     H96895   8.333   2.022   9.181 -0.3493 -0.4368  0.0034
  718MOL0     H96896   7.944   2.223   9.145  1.0532  1.3570  1.7925
  718MOL0     H96897   8.118   2.264   9.169  0.7406 -0.0171 -1.3148
  718MOL0     H96898   8.151   2.214   8.920 -1.5710 -1.6657 -2.8899
  718MOL0     H96899   8.000   2.131   8.910 -0.6995 -0.6497  1.0623
  718MOL0     H96900   8.026   2.382   8.832  2.1730 -0.9703  0.1237
  718MOL0     H96901   7.994   2.404   9.005 -1.6540 -1.1886  0.3412
  718MOL0     H96902   7.823   2.246   8.815  0.8476 -3.1348  2.3023
  718MOL0     H96903   7.779   2.275   8.980  1.5188 -3.8416 -0.7147
  718MOL0     H96904   7.797   2.500   8.774 -0.6995  2.0041  0.6856
  718MOL0     H96905   7.779   2.516   8.952 -1.6677  0.1534  0.3353
  718MOL0     H96906   7.602   2.338   8.777  2.3493 -1.4379  1.1972
  718MOL0     H96907   7.584   2.364   8.954  2.2476  0.5744  0.3918
  718MOL0     H96908   7.550   2.594   8.742 -0.0541  0.1246  0.5634
  718MOL0     H96909   7.522   2.601   8.906 -0.7896 -0.0711 -1.5203
  718MOL0     H96910   7.338   2.432   8.885 -2.3332 -0.4711 -1.4731
  718MOL0     H96911   7.381   2.396   8.717 -3.6001  0.1335  0.7205
  718MOL0     H96912   7.948   2.116   9.366 -0.4035 -0.3017  6.2663
  718MOL0     H96913   8.023   2.013   9.571  0.5536  0.4858 -0.0271
  718MOL0     H96914   8.188   1.969   9.869 -0.7476  0.4367  1.4584
  718MOL0     H96915   8.211   2.036  10.098  1.2302  3.3112 -0.8796
  718MOL0     H96916   9.477   2.788  11.151 -0.1182 -1.3474  1.7545
  718MOL0     H96917   9.632   2.909  11.006  4.4125 -2.2010  3.5266
  718MOL0     H96918   9.889   3.494  11.050  1.6488  0.9161 -1.1078
  718MOL0     H96919  10.103   3.520  10.940  0.3839 -1.4572  0.6910
  718MOL0     H96920  10.286   3.217  10.669  0.3950  1.1290 -1.3501
  718MOL0     H96921  10.419   3.324  10.713  2.0687 -3.5434 -0.2043
  718MOL0     H96922  10.326   3.078  10.866  0.9312 -0.1760 -1.3715
  718MOL0     H96923  10.392   3.213  10.954  1.9476 -0.6132 -0.4094
  718MOL0     H96924  10.600   3.197  10.833  0.2007 -0.0080 -2.3656
  718MOL0     H96925  10.528   3.074  10.728  1.5179 -2.1055 -0.1954
  718MOL0     H96926  10.476   2.921  10.921 -2.4357  1.3994  2.4503
  718MOL0     H96927  10.550   3.028  11.030 -1.0354 -0.1318 -0.3420
  718MOL0     H96928  10.900   2.895  10.816 -0.1704 -0.5519 -1.3552
  718MOL0     H96929  10.101   3.131  10.780  0.0958 -0.5892  0.4779
  718MOL0     H96930   9.879   3.091  10.876 -0.6366 -0.5441 -2.0437
  719MOL0     O96931   2.725   2.498  10.816  0.2178  0.2532  0.0559
  719MOL0     C96932   2.757   2.410  10.892 -1.4244  0.8615  0.1580
  719MOL0     O96933   2.699   2.288  10.898  0.3001 -0.3090 -0.7789
  719MOL0     C96934   2.577   2.261  10.829 -0.0711  0.6248 -0.3099
  719MOL0     C96935   2.460   2.342  10.809 -0.5581 -0.7887  0.1454
  719MOL0     C96936   2.360   2.304  10.729  0.2626 -0.3557 -0.4521
  719MOL0     C96937   2.364   2.184  10.660  1.2644  0.2770  0.1595
  719MOL0     O96938   2.260   2.142  10.578 -0.0998 -0.6443 -0.3942
  719MOL0     C96939   2.146   2.114  10.650  1.1786  0.4262 -0.1365
  719MOL0     C96940   2.042   2.098  10.540 -0.5543 -0.5576 -0.0442
  719MOL0     C96941   1.901   2.100  10.602 -0.3931 -0.6898  0.3953
  719MOL0     C96942   1.802   2.072  10.496 -0.1603  0.0619 -0.2445
  719MOL0     C96943   1.670   2.079  10.569  0.6486  0.1524  0.2258
  719MOL0     C96944   1.550   2.022  10.491  0.1657 -0.2946  0.1286
  719MOL0     C96945   1.536   2.085  10.357  0.3021  0.3614  1.5171
  719MOL0     C96946   1.509   2.240  10.348 -0.4631 -0.2861  0.4138
  719MOL0     N96947   1.394   2.282  10.428  0.4422  0.0638  0.3883
  719MOL0     C96948   1.387   2.368  10.538 -0.7564  0.6038 -0.8430
  719MOL0     C96949   1.257   2.383  10.569 -0.3381 -1.0532  0.4724
  719MOL0     C96950   1.194   2.470  10.673  0.3733 -0.3357 -0.0671
  719MOL0     C96951   1.040   2.474  10.664  0.1523  0.4461  0.2113
  719MOL0     C96952   0.976   2.338  10.720 -0.5488 -0.0600  0.3823
  719MOL0     C96953   0.821   2.361  10.700  0.3665 -0.2518 -0.2144
  719MOL0     O96954   0.771   2.227  10.715 -0.8099 -0.0784 -0.1642
  719MOL0     C96955   0.637   2.215  10.747  0.1631 -0.1430  0.2711
  719MOL0     C96956   0.613   2.145  10.859 -0.1124  0.9860 -0.1239
  719MOL0     C96957   0.486   2.117  10.901 -0.8528 -0.8956 -1.0972
  719MOL0     C96958   0.476   2.018  11.022  0.1699  1.1166  0.8825
  719MOL0     C96959   0.377   2.187  10.839 -0.9480 -0.1373 -0.3345
  719MOL0     C96960   0.240   2.156  10.891  0.3127  0.2261  0.9085
  719MOL0     O96961   0.146   2.254  10.874  0.2904 -0.1572 -0.2962
  719MOL0     C96962   0.037   2.262  10.963 -0.3934  0.5988  0.0789
  719MOL0     C96963   0.048   2.253  11.097  0.4730 -0.0272 -0.9409
  719MOL0     C96964  -0.071   2.237  11.165  0.2070  0.7319  0.6033
  719MOL0     C96965  -0.196   2.216  11.101  0.0464 -0.1164 -0.2183
  719MOL0     O96966  -0.303   2.186  11.180 -0.4515 -0.1070  0.1470
  719MOL0     C96967  -0.416   2.127  11.122 -0.0891  0.5501 -0.6401
  719MOL0     C96968  -0.518   2.237  11.104 -0.2573 -0.4913 -0.5265
  719MOL0     C96969  -0.660   2.188  11.070  0.3196 -0.3315 -0.5617
  719MOL0     C96970  -0.755   2.291  11.103 -0.4723 -0.2740  0.4119
  719MOL0     C96971  -0.898   2.245  11.127  0.5129  0.9662  0.7032
  719MOL0     C96972  -0.999   2.363  11.163  0.2446  0.5688  0.5860
  719MOL0     C96973  -0.996   2.485  11.062 -0.2833 -1.1534  0.3428
  719MOL0     C96974  -1.118   2.582  11.068 -1.2481  0.5750  0.2138
  719MOL0    Cl96975  -1.144   2.631  11.253  0.1728 -0.0061  0.0418
  719MOL0     C96976  -0.203   2.229  10.967 -0.5784 -0.9462  0.6373
  719MOL0     C96977  -0.092   2.251  10.896  0.1481 -0.4064  0.6028
  719MOL0     O96978   0.214   2.036  10.914  0.0582 -0.6485 -0.2213
  719MOL0     C96979   0.407   2.257  10.719  0.2332  0.0247 -0.1200
  719MOL0     C96980   0.539   2.271  10.670  0.4543  0.3546 -0.1993
  719MOL0     N96981   1.189   2.318  10.470  0.1036 -0.0340  0.4645
  719MOL0     N96982   1.271   2.240  10.395  0.4521 -0.4467  0.2969
  719MOL0     C96983   2.480   2.111  10.666 -1.5952  0.1240 -0.0783
  719MOL0     C96984   2.582   2.142  10.754  0.0136  0.1601 -0.5374
  719MOL0     C96985   2.877   2.432  10.982  0.3690  0.3115 -0.7352
  719MOL0     C96986   2.931   2.555  10.973  0.4383 -0.4900  0.5882
  719MOL0     C96987   3.041   2.582  11.041 -0.9393  0.2560  0.9215
  719MOL0     C96988   3.101   2.482  11.125 -0.0928 -0.0721  0.2785
  719MOL0     O96989   3.226   2.487  11.182  0.4937  0.0693 -0.2108
  719MOL0     C96990   3.290   2.616  11.199  0.2547  0.8350 -0.4010
  719MOL0     C96991   3.436   2.591  11.257 -0.3085 -0.8743  0.7313
  719MOL0     C96992   3.509   2.497  11.162 -0.3840  0.0102 -0.7694
  719MOL0     C96993   3.655   2.473  11.200  0.1649  0.0903 -0.2245
  719MOL0     C96994   3.728   2.586  11.230  0.1021 -0.0156 -1.6228
  719MOL0     C96995   3.811   2.678  11.249  0.0632  0.4153  0.5756
  719MOL0     C96996   3.031   2.370  11.148  0.0927 -0.8139 -0.7217
  719MOL0     C96997   2.917   2.340  11.077  0.5139 -1.0348 -0.1467
  719MOL0     H96998   2.460   2.444  10.848 -0.3766 -0.5534 -0.4491
  719MOL0     H96999   2.283   2.375  10.701  1.6937  0.7221 -1.7828
  719MOL0     H97000   2.153   2.035  10.725  4.0430  2.3919  1.8623
  719MOL0     H97001   2.119   2.204  10.707  2.5495  3.6136 -4.0596
  719MOL0     H97002   2.046   2.170  10.458 -1.4245 -1.9877 -1.4102
  719MOL0     H97003   2.048   2.001  10.489 -4.3665 -1.4522  0.8420
  719MOL0     H97004   1.885   2.029  10.683  0.3739 -5.0548 -2.8860
  719MOL0     H97005   1.873   2.199  10.638 -0.3904 -1.1462  1.6949
  719MOL0     H97006   1.798   2.157  10.428  1.3492 -0.4617 -1.0520
  719MOL0     H97007   1.831   1.984  10.437  0.7984  0.4448 -0.3607
  719MOL0     H97008   1.669   2.020  10.661  1.3057 -0.9955 -0.4733
  719MOL0     H97009   1.663   2.181  10.609  0.9768 -1.0579  3.7052
  719MOL0     H97010   1.564   1.915  10.474 -3.1524 -0.6688 -1.0615
  719MOL0     H97011   1.457   2.029  10.549 -0.9894  0.3157 -1.7233
  719MOL0     H97012   1.620   2.061  10.291 -0.8277 -0.0227  0.1757
  719MOL0     H97013   1.440   2.046  10.322  1.0490 -0.1428 -0.0690
  719MOL0     H97014   1.494   2.259  10.242 -1.8979 -0.4249  0.5703
  719MOL0     H97015   1.594   2.296  10.389  2.1476 -4.9817  2.2287
  719MOL0     H97016   1.469   2.410  10.594 -2.0192  0.9065  0.8808
  719MOL0     H97017   1.218   2.429  10.771  0.1408 -0.0097  0.1300
  719MOL0     H97018   1.228   2.573  10.657 -0.6691 -0.1160 -1.0452
  719MOL0     H97019   1.000   2.487  10.563 -0.5214  3.1931  0.7478
  719MOL0     H97020   1.004   2.558  10.725  0.7602  1.3749 -0.6933
  719MOL0     H97021   0.997   2.324  10.827 -1.1140 -4.0744  0.1110
  719MOL0     H97022   1.006   2.248  10.666 -1.0354  0.1573 -0.2520
  719MOL0     H97023   0.796   2.409  10.605  0.9642  4.3170  1.6541
  719MOL0     H97024   0.782   2.428  10.777  3.9826 -0.0268  1.6618
  719MOL0     H97025   0.698   2.108  10.915  1.2996  0.8631 -2.2534
  719MOL0     H97026   0.459   1.921  10.975  0.4375  1.8813 -0.8923
  719MOL0     H97027   0.566   2.008  11.083 -0.1136 -0.7861  1.0303
  719MOL0     H97028   0.394   2.048  11.088  3.0344  3.6416  3.6662
  719MOL0     H97029   0.138   2.256  11.158  1.0181 -2.7045 -1.4798
  719MOL0     H97030  -0.066   2.241  11.273 -2.9860 -0.8376  0.9456
  719MOL0     H97031  -0.382   2.071  11.034 -1.2921  0.2293 -0.9184
  719MOL0     H97032  -0.464   2.050  11.183  0.4491  0.2898 -0.5397
  719MOL0     H97033  -0.525   2.298  11.194  0.6612  1.2304 -1.5762
  719MOL0     H97034  -0.477   2.304  11.029  0.0408  0.4696  0.4622
  719MOL0     H97035  -0.684   2.093  11.120  2.7165 -2.0550 -2.4562
  719MOL0     H97036  -0.665   2.169  10.963  0.3051 -0.9543 -0.4547
  719MOL0     H97037  -0.717   2.352  11.186 -1.3782 -0.1606  0.7551
  719MOL0     H97038  -0.745   2.358  11.018  2.1978 -1.4829 -0.3200
  719MOL0     H97039  -0.904   2.182  11.216 -1.1192 -0.5531 -0.4039
  719MOL0     H97040  -0.941   2.180  11.050 -1.6042  0.2103  2.4179
  719MOL0     H97041  -1.093   2.307  11.170  0.9843 -1.2720 -2.5716
  719MOL0     H97042  -0.981   2.398  11.265 -1.7420  1.9298  0.5287
  719MOL0     H97043  -0.975   2.456  10.959  2.2812 -0.3585  0.5817
  719MOL0     H97044  -0.905   2.540  11.089  0.6846 -2.0552 -0.9339
  719MOL0     H97045  -1.201   2.528  11.022  0.0923 -1.5240  0.0966
  719MOL0     H97046  -1.080   2.672  11.017  1.8248 -0.8130 -0.1829
  719MOL0     H97047  -0.298   2.231  10.914 -0.2201  3.9840 -0.3455
  719MOL0     H97048  -0.094   2.271  10.789  1.3273  3.1809  1.1044
  719MOL0     H97049   0.334   2.293  10.648 -1.4489 -3.8650 -0.6083
  719MOL0     H97050   0.570   2.323  10.581 -2.3078  0.0950 -1.3945
  719MOL0     H97051   2.471   2.019  10.610 -0.8178  0.3597 -0.6172
  719MOL0     H97052   2.670   2.078  10.765 -1.2747 -1.5868  0.0946
  719MOL0     H97053   2.888   2.638  10.919  2.3073  0.0899 -0.0919
  719MOL0     H97054   3.091   2.677  11.030  3.4386 -1.9433 -0.5825
  719MOL0     H97055   3.286   2.669  11.103 -1.8162 -0.8338 -1.3108
  719MOL0     H97056   3.223   2.666  11.270 -1.3377 -1.9777  0.2332
  719MOL0     H97057   3.435   2.543  11.355 -0.7082  0.5510  1.4579
  719MOL0     H97058   3.479   2.691  11.268 -3.4220  0.5821  0.7805
  719MOL0     H97059   3.498   2.530  11.058 -2.0696 -0.0473 -0.6511
  719MOL0     H97060   3.459   2.400  11.161 -2.3396  0.9604 -0.5255
  719MOL0     H97061   3.710   2.418  11.123  0.3414 -2.7665  1.8119
  719MOL0     H97062   3.652   2.407  11.287 -0.2762  0.0109 -0.3013
  719MOL0     H97063   3.885   2.755  11.257  0.9872 -0.1090 -2.0382
  719MOL0     H97064   3.068   2.311  11.232  1.6789  0.3303 -0.5629
  719MOL0     H97065   2.864   2.246  11.087 -1.6592  0.3347  2.3630
  720MOL0     O97066   2.038   2.174  10.944  0.4230  0.6711 -0.6209
  720MOL0     C97067   2.019   2.276  11.008  0.2657 -0.4471  0.1884
  720MOL0     O97068   1.893   2.323  11.056  0.2581  0.7940  0.0765
  720MOL0     C97069   1.789   2.244  11.015 -0.5231 -0.1005 -0.5557
  720MOL0     C97070   1.773   2.112  11.057 -0.1329  0.0495  0.5075
  720MOL0     C97071   1.665   2.030  11.018 -1.4292 -0.1605  0.2975
  720MOL0     C97072   1.573   2.078  10.932 -0.2311 -0.7639  0.1307
  720MOL0     O97073   1.467   1.988  10.911  0.0554  0.2848  0.9007
  720MOL0     C97074   1.354   2.035  10.834  0.2441  0.1719  0.0498
  720MOL0     C97075   1.243   1.922  10.822 -0.7791 -0.2458  0.0107
  720MOL0     C97076   1.124   1.964  10.738 -0.5624  0.5086  0.0162
  720MOL0     C97077   0.999   1.876  10.752 -0.1462 -0.9603 -0.5662
  720MOL0     C97078   0.908   1.879  10.628 -0.1797  0.0333 -0.6584
  720MOL0     C97079   0.978   1.847  10.491 -0.5970 -0.0166  0.3182
  720MOL0     C97080   1.062   1.725  10.489  0.1294  0.7850 -0.2302
  720MOL0     C97081   0.977   1.601  10.515 -0.2628  0.4200 -0.7903
  720MOL0     N97082   1.018   1.480  10.441  0.1269  0.1380  0.2801
  720MOL0     C97083   1.118   1.385  10.471  0.8744 -0.2472  1.0349
  720MOL0     C97084   1.125   1.316  10.358 -0.2573  0.3642 -0.4358
  720MOL0     C97085   1.232   1.218  10.318 -0.0763  0.4453  0.0270
  720MOL0     C97086   1.379   1.250  10.354 -0.0505 -0.1147 -0.4407
  720MOL0     C97087   1.408   1.393  10.318  0.1174 -0.2762  0.0387
  720MOL0     C97088   1.556   1.401  10.323 -0.5048  0.0431 -0.1020
  720MOL0     O97089   1.604   1.541  10.319  0.7154  0.0750 -0.5123
  720MOL0     C97090   1.719   1.579  10.251 -0.2449  0.4710 -0.2061
  720MOL0     C97091   1.714   1.713  10.214 -0.5800  0.7612 -0.4543
  720MOL0     C97092   1.831   1.771  10.162 -0.5289 -0.0328 -0.4212
  720MOL0     C97093   1.836   1.918  10.132 -0.1239 -0.2598 -0.4966
  720MOL0     C97094   1.959   1.687  10.153 -0.1158  0.6096 -0.0927
  720MOL0     C97095   2.095   1.728  10.108  0.7941  0.3427  0.7822
  720MOL0     O97096   2.126   1.856  10.149  0.0792  0.0182 -0.5761
  720MOL0     C97097   2.254   1.909  10.137 -0.0066 -0.1779  0.1432
  720MOL0     C97098   2.350   1.870  10.042  0.6484 -0.1615 -0.2185
  720MOL0     C97099   2.483   1.929  10.040  0.4490 -0.2546 -0.5852
  720MOL0     C97100   2.509   2.031  10.132 -0.4454 -1.5025 -0.3618
  720MOL0     O97101   2.636   2.078  10.143 -0.6489 -0.0431 -0.5824
  720MOL0     C97102   2.661   2.215  10.133 -0.2493  0.9948 -0.3279
  720MOL0     C97103   2.788   2.246  10.210  0.9471  0.4901  0.7147
  720MOL0     C97104   2.779   2.189  10.354 -0.3977  0.7828 -0.3327
  720MOL0     C97105   2.903   2.248  10.417 -0.4070 -0.5114  0.2133
  720MOL0     C97106   2.901   2.231  10.573  0.7881  0.1515  0.5313
  720MOL0     C97107   3.047   2.229  10.630  0.2565 -0.2004 -0.3640
  720MOL0     C97108   3.123   2.362  10.599  0.2099  0.0415  1.3815
  720MOL0     C97109   3.269   2.346  10.646  0.2403  0.1612  0.2462
  720MOL0    Cl97110   3.288   2.325  10.823  0.2840 -0.1675  0.4085
  720MOL0     C97111   2.409   2.078  10.228 -0.0678  0.3296  0.9413
  720MOL0     C97112   2.286   2.010  10.228 -0.1511  0.0901  0.0204
  720MOL0     O97113   2.177   1.638  10.078  0.6504 -0.2710  0.4765
  720MOL0     C97114   1.952   1.551  10.190 -0.5166  0.1964  0.2009
  720MOL0     C97115   1.837   1.504  10.232  0.7729  0.5077 -0.2599
  720MOL0     N97116   1.036   1.358  10.261  1.3602 -0.3200  1.4392
  720MOL0     N97117   0.965   1.457  10.311  0.0325 -0.1426 -0.2818
  720MOL0     C97118   1.582   2.216  10.904  0.1484  0.1289  0.0802
  720MOL0     C97119   1.687   2.294  10.941  0.1535 -0.7178  0.0232
  720MOL0     C97120   2.141   2.337  11.063  0.3057 -0.4288 -0.1439
  720MOL0     C97121   2.131   2.462  11.124  0.2984 -0.2236  0.6356
  720MOL0     C97122   2.228   2.528  11.203 -0.1722 -0.4149  0.1931
  720MOL0     C97123   2.354   2.471  11.187 -0.5542  0.2646 -0.1129
  720MOL0     O97124   2.457   2.529  11.249  0.2646 -0.2640 -0.1527
  720MOL0     C97125   2.590   2.481  11.218  0.0008  0.2844  0.3728
  720MOL0     C97126   2.686   2.571  11.291 -0.1447 -0.9450 -1.0332
  720MOL0     C97127   2.696   2.695  11.205 -0.0904 -0.4332  0.9212
  720MOL0     C97128   2.821   2.781  11.244  0.1106 -0.5654 -0.2214
  720MOL0     C97129   2.812   2.824  11.384 -0.8547 -0.7695 -0.7334
  720MOL0     C97130   2.814   2.859  11.503 -0.5782  0.9704  0.7917
  720MOL0     C97131   2.371   2.346  11.118 -0.2236  0.0642 -0.5750
  720MOL0     C97132   2.268   2.282  11.066 -0.0970 -0.2550  0.0320
  720MOL0     H97133   1.841   2.059  11.123 -3.5375 -1.5521  3.0859
  720MOL0     H97134   1.663   1.927  11.052 -1.2780 -0.5511 -0.8398
  720MOL0     H97135   1.313   2.111  10.900  3.2008  1.3176  0.6853
  720MOL0     H97136   1.368   2.084  10.737 -2.1061  0.6636 -0.0975
  720MOL0     H97137   1.281   1.831  10.777 -0.4599  0.9793 -2.3290
  720MOL0     H97138   1.214   1.904  10.926  1.9959 -1.3464  0.6716
  720MOL0     H97139   1.097   2.068  10.761  0.2589  0.6488  0.3735
  720MOL0     H97140   1.157   1.970  10.634  2.8964  0.6807  1.0090
  720MOL0     H97141   1.032   1.772  10.764  0.2370 -0.6639  1.1939
  720MOL0     H97142   0.949   1.908  10.844  0.4577  1.6402 -1.0488
  720MOL0     H97143   0.834   1.802  10.651  1.3546 -1.3252  0.0356
  720MOL0     H97144   0.855   1.974  10.624 -0.1000  0.0541 -1.3233
  720MOL0     H97145   0.907   1.842  10.409 -1.0675 -4.9639  0.7311
  720MOL0     H97146   1.033   1.939  10.471 -1.4500  1.3667  3.6298
  720MOL0     H97147   1.108   1.732  10.390 -1.1070  4.1082 -0.6888
  720MOL0     H97148   1.140   1.737  10.566  0.3500  1.1105 -0.5013
  720MOL0     H97149   0.873   1.618  10.485 -0.0585 -2.1801 -3.4711
  720MOL0     H97150   0.981   1.572  10.620 -0.2220 -0.8956 -1.1402
  720MOL0     H97151   1.166   1.381  10.568 -1.5168  0.7055  2.3418
  720MOL0     H97152   1.201   1.118  10.351 -2.0285  0.4504 -1.5853
  720MOL0     H97153   1.234   1.206  10.209 -2.1622 -3.3210  0.2058
  720MOL0     H97154   1.440   1.180  10.296  0.2031  0.0582 -0.3844
  720MOL0     H97155   1.398   1.243  10.462 -0.3950 -2.5071 -0.4866
  720MOL0     H97156   1.363   1.460  10.393  0.5299  1.2853 -1.0698
  720MOL0     H97157   1.383   1.400  10.212  1.3646 -3.2490 -0.5359
  720MOL0     H97158   1.609   1.345  10.245  4.1153  1.4527  1.7040
  720MOL0     H97159   1.595   1.356  10.414  1.8431 -0.5457 -1.3150
  720MOL0     H97160   1.619   1.763  10.227 -1.1189  0.0107 -1.4061
  720MOL0     H97161   1.735   1.960  10.124 -0.9191 -2.4381 -3.2409
  720MOL0     H97162   1.894   1.965  10.212  2.8505 -3.0146 -0.8476
  720MOL0     H97163   1.891   1.930  10.038 -1.4676  0.8424 -1.1799
  720MOL0     H97164   2.327   1.790   9.972 -1.9277  0.0028  0.3564
  720MOL0     H97165   2.560   1.907   9.966  1.0118 -1.9684  0.4488
  720MOL0     H97166   2.679   2.241  10.028  0.5249 -2.5788 -1.2263
  720MOL0     H97167   2.581   2.275  10.178  1.1048  0.5579  2.9152
  720MOL0     H97168   2.871   2.199  10.156  1.0679  1.2096  0.2579
  720MOL0     H97169   2.810   2.353  10.215  2.5068  0.2067  0.6042
  720MOL0     H97170   2.784   2.080  10.359 -1.9508  0.5440 -2.6457
  720MOL0     H97171   2.683   2.217  10.399  0.3928  0.9168  1.3426
  720MOL0     H97172   2.990   2.190  10.383  0.5838  1.1860 -0.2803
  720MOL0     H97173   2.917   2.355  10.398  0.2847  0.1539  3.6735
  720MOL0     H97174   2.847   2.141  10.604 -2.6215  1.8895  0.1293
  720MOL0     H97175   2.840   2.311  10.615  0.2663 -0.7730  1.5686
  720MOL0     H97176   3.054   2.209  10.738 -1.1745  0.3912 -0.1385
  720MOL0     H97177   3.102   2.152  10.574  0.7872  0.5856 -0.9346
  720MOL0     H97178   3.081   2.449  10.651 -0.5840  1.4154 -1.3341
  720MOL0     H97179   3.119   2.398  10.495  4.4200 -0.3885  0.9173
  720MOL0     H97180   3.325   2.430  10.606  0.9339 -0.3094  0.2012
  720MOL0     H97181   3.311   2.250  10.616  0.5261 -0.6248  2.8735
  720MOL0     H97182   2.446   2.156  10.294  2.8058  0.3336 -0.5119
  720MOL0     H97183   2.210   2.050  10.294  1.0721  0.3990  1.2838
  720MOL0     H97184   2.030   1.475  10.188 -1.0785 -0.3850  0.0657
  720MOL0     H97185   1.840   1.399  10.260 -4.2501  0.7485  2.3747
  720MOL0     H97186   1.495   2.264  10.859 -0.4338 -2.9336 -2.4582
  720MOL0     H97187   1.677   2.400  10.919 -0.5628 -0.3845  1.8019
  720MOL0     H97188   2.034   2.511  11.113  0.7831  0.5199 -0.5324
  720MOL0     H97189   2.213   2.624  11.252 -1.0551 -0.0248 -0.8112
  720MOL0     H97190   2.596   2.386  11.272 -1.0058 -0.3502 -0.6028
  720MOL0     H97191   2.616   2.477  11.112  0.4724 -0.2825  0.5049
  720MOL0     H97192   2.782   2.521  11.285  0.7271  0.2766  1.2500
  720MOL0     H97193   2.674   2.603  11.395  0.5872  1.3881 -1.5964
  720MOL0     H97194   2.609   2.761  11.217 -0.2331 -0.5524  0.5548
  720MOL0     H97195   2.690   2.665  11.100 -0.1729 -0.8310  1.0375
  720MOL0     H97196   2.829   2.866  11.175 -1.0161 -1.0820 -1.0278
  720MOL0     H97197   2.915   2.727  11.231  1.0366  0.5761  1.4628
  720MOL0     H97198   2.788   2.876  11.605 -2.3502  0.2903  0.4842
  720MOL0     H97199   2.463   2.289  11.109  0.2010  0.9657 -2.6969
  720MOL0     H97200   2.284   2.202  10.994 -0.0450  0.0643 -0.3157
  721MOL0     O97201   7.508   7.182   6.525 -0.1186 -0.4448 -0.1430
  721MOL0     C97202   7.578   7.147   6.615  0.2202  0.9478  0.6059
  721MOL0     O97203   7.541   7.113   6.744  0.4193  0.5836 -0.3389
  721MOL0     C97204   7.409   7.110   6.780 -0.3402 -0.6842 -0.3482
  721MOL0     C97205   7.387   7.125   6.916 -0.8236  1.0977 -0.3433
  721MOL0     C97206   7.259   7.127   6.974 -0.1412  0.1109 -0.2451
  721MOL0     C97207   7.135   7.122   6.903 -0.6063  0.8897  0.5674
  721MOL0     O97208   7.017   7.132   6.974 -0.4446 -0.5332  0.0997
  721MOL0     C97209   6.896   7.162   6.916 -0.1659 -0.3855  0.8384
  721MOL0     C97210   6.792   7.075   6.997  0.3081 -0.7396  0.0789
  721MOL0     C97211   6.648   7.078   6.928  0.0119  0.5656 -0.3134
  721MOL0     C97212   6.532   7.015   7.016 -0.3350 -0.5977  0.5855
  721MOL0     C97213   6.414   6.950   6.933 -0.1904 -0.3044  0.3138
  721MOL0     C97214   6.300   6.878   7.006  0.9569  0.3484 -0.3432
  721MOL0     C97215   6.196   6.968   7.079 -0.1588 -0.2914  0.0546
  721MOL0     C97216   6.080   6.901   7.168 -0.0436 -0.5457 -0.2675
  721MOL0     N97217   6.136   6.837   7.283  0.3505  0.9295  0.2047
  721MOL0     C97218   6.161   6.893   7.396 -0.8174  0.4144 -0.5378
  721MOL0     C97219   6.192   6.786   7.474 -0.2757 -0.8008  0.7684
  721MOL0     C97220   6.191   6.793   7.626 -0.7282 -0.4309 -0.1514
  721MOL0     C97221   6.072   6.871   7.689 -0.6154 -0.7972 -0.1301
  721MOL0     C97222   6.034   6.853   7.836  0.2678  0.2588  0.1702
  721MOL0     C97223   5.988   6.713   7.870  0.4165  0.0770 -0.2314
  721MOL0     O97224   5.908   6.687   7.989 -0.2173 -0.0637  1.5333
  721MOL0     C97225   5.789   6.747   8.012 -0.3390 -0.9288 -0.1199
  721MOL0     C97226   5.760   6.782   8.145  0.2180 -0.6138  0.4388
  721MOL0     C97227   5.625   6.804   8.190  0.2125 -0.0782 -0.9539
  721MOL0     C97228   5.610   6.827   8.341  0.2273  0.1762  0.2336
  721MOL0     C97229   5.517   6.809   8.096 -0.0434 -0.3081  0.4609
  721MOL0     C97230   5.376   6.840   8.128  0.0853  0.5395 -1.0447
  721MOL0     O97231   5.331   6.806   8.257  0.5499  0.1239 -0.0320
  721MOL0     C97232   5.197   6.763   8.268 -0.2815 -0.6814 -0.4869
  721MOL0     C97233   5.081   6.835   8.231 -0.7604  0.2450  0.4824
  721MOL0     C97234   4.958   6.785   8.261  1.1038  0.0669 -0.4942
  721MOL0     C97235   4.926   6.659   8.327 -0.5725  0.3063 -0.7336
  721MOL0     O97236   4.800   6.605   8.329  0.3634  0.0504 -0.3331
  721MOL0     C97237   4.772   6.499   8.416 -0.6437 -0.5104 -0.3825
  721MOL0     C97238   4.630   6.432   8.432 -0.8187 -0.6093 -0.0686
  721MOL0     C97239   4.557   6.510   8.536  1.6279 -0.0632  0.0746
  721MOL0     C97240   4.409   6.450   8.543 -0.0232  0.0194  0.6857
  721MOL0     C97241   4.319   6.519   8.451 -0.4231 -0.2515 -0.8581
  721MOL0     C97242   4.186   6.459   8.464  0.1766  0.3234  0.6527
  721MOL0     C97243   4.167   6.314   8.434  0.2241 -0.4887 -0.1961
  721MOL0     C97244   4.017   6.288   8.439 -0.1540  0.0890  0.6256
  721MOL0    Cl97245   3.994   6.111   8.428 -0.4425  0.4984  0.0234
  721MOL0     C97246   5.045   6.589   8.358 -0.3332  0.4509 -0.1652
  721MOL0     C97247   5.175   6.636   8.326 -0.6022 -0.5939  0.1309
  721MOL0     O97248   5.309   6.892   8.041 -0.4001 -0.2420 -0.4583
  721MOL0     C97249   5.551   6.789   7.962 -0.1990  0.7051  0.2157
  721MOL0     C97250   5.686   6.760   7.920  0.2121  0.4730 -0.0255
  721MOL0     N97251   6.190   6.672   7.407  0.2857 -0.1392  0.8521
  721MOL0     N97252   6.161   6.698   7.283  0.7107  0.2101 -0.1992
  721MOL0     C97253   7.153   7.101   6.763  0.2065  0.4655 -0.2509
  721MOL0     C97254   7.285   7.095   6.708  0.9912 -0.4876  0.4084
  721MOL0     C97255   7.714   7.152   6.575  0.0822 -0.1069 -0.5577
  721MOL0     C97256   7.811   7.124   6.671 -0.0023  0.5690  0.2349
  721MOL0     C97257   7.949   7.134   6.634 -0.5792 -0.5457 -0.4407
  721MOL0     C97258   7.991   7.150   6.498  0.1959  0.0150 -1.4004
  721MOL0     O97259   8.123   7.147   6.457 -0.4745  0.6766  0.1172
  721MOL0     C97260   8.223   7.206   6.545  0.0845 -0.4682 -1.0270
  721MOL0     C97261   8.317   7.286   6.464  0.2763  0.3042 -0.4133
  721MOL0     C97262   8.443   7.212   6.417 -0.1525  0.3128 -0.0276
  721MOL0     C97263   8.552   7.313   6.369  0.2571  0.1810 -0.5177
  721MOL0     C97264   8.681   7.257   6.336  1.1046 -0.3536 -0.4844
  721MOL0     C97265   8.793   7.221   6.310 -0.7541 -0.1549 -0.1721
  721MOL0     C97266   7.890   7.154   6.404  0.0550  0.6078  0.2903
  721MOL0     C97267   7.753   7.160   6.439  0.7172  0.5747  0.3673
  721MOL0     H97268   7.464   7.136   6.992 -1.8813 -1.9567  1.3056
  721MOL0     H97269   7.252   7.121   7.082 -2.0637 -0.8822 -0.3817
  721MOL0     H97270   6.865   7.266   6.916 -1.3458 -0.7087 -0.4855
  721MOL0     H97271   6.902   7.127   6.813  2.0643 -0.4900  0.9484
  721MOL0     H97272   6.826   6.972   7.010 -0.8922 -1.2270 -0.5025
  721MOL0     H97273   6.794   7.126   7.094 -0.5916  0.5025 -0.5207
  721MOL0     H97274   6.631   7.180   6.892 -0.8235 -0.1147 -1.9477
  721MOL0     H97275   6.647   7.010   6.842 -2.0421  0.4271 -0.2178
  721MOL0     H97276   6.569   6.939   7.086  4.0737  0.0256 -0.7278
  721MOL0     H97277   6.495   7.105   7.066 -0.8766 -0.2064 -0.4881
  721MOL0     H97278   6.363   7.024   6.870  1.8515 -0.7853 -2.0478
  721MOL0     H97279   6.473   6.883   6.870  2.9612 -0.6331  3.3015
  721MOL0     H97280   6.239   6.819   6.937 -2.9377  1.2179  2.0478
  721MOL0     H97281   6.346   6.807   7.075  0.1908  0.0281 -0.1469
  721MOL0     H97282   6.249   7.041   7.141  0.8244 -1.0284  0.1127
  721MOL0     H97283   6.143   7.032   7.008 -0.4656 -0.2534  0.3127
  721MOL0     H97284   6.035   6.820   7.109 -0.7464 -0.0957 -0.3576
  721MOL0     H97285   5.999   6.971   7.193 -0.1822 -1.3536  1.8183
  721MOL0     H97286   6.153   6.996   7.428  1.3364  0.1071  1.2179
  721MOL0     H97287   6.192   6.693   7.670 -1.4294  0.0248  0.9446
  721MOL0     H97288   6.276   6.846   7.671 -1.0126 -1.5263  1.8239
  721MOL0     H97289   5.986   6.855   7.624 -1.2793 -0.4219  0.6373
  721MOL0     H97290   6.094   6.977   7.674  1.8196 -1.1352  0.6503
  721MOL0     H97291   5.950   6.919   7.858  2.0691  2.5725  0.6216
  721MOL0     H97292   6.106   6.886   7.911 -0.8181  0.5975  1.0828
  721MOL0     H97293   6.063   6.634   7.855 -1.5610 -2.0058  0.2441
  721MOL0     H97294   5.915   6.697   7.791 -1.0251 -1.1621  1.2903
  721MOL0     H97295   5.838   6.776   8.220  1.5073 -1.4401 -0.9104
  721MOL0     H97296   5.547   6.915   8.348  1.6883  1.4633 -1.5954
  721MOL0     H97297   5.561   6.739   8.384 -0.4959 -1.5018 -3.5322
  721MOL0     H97298   5.706   6.842   8.391 -1.0870  0.2831  2.8744
  721MOL0     H97299   5.094   6.931   8.184 -0.8611  0.0217 -0.0041
  721MOL0     H97300   4.865   6.834   8.234 -0.1871 -0.8826  1.8736
  721MOL0     H97301   4.834   6.410   8.400 -0.9968 -1.1826  1.6175
  721MOL0     H97302   4.807   6.525   8.516  2.0522  2.6657 -1.9557
  721MOL0     H97303   4.589   6.439   8.331  2.5340  0.3202 -1.5110
  721MOL0     H97304   4.643   6.329   8.466  3.7993 -1.1152 -2.6134
  721MOL0     H97305   4.555   6.618   8.518 -1.4308 -0.0823 -0.2405
  721MOL0     H97306   4.605   6.493   8.633  1.9544  0.6789  0.0493
  721MOL0     H97307   4.412   6.342   8.528  0.1678 -0.0703  1.3484
  721MOL0     H97308   4.372   6.457   8.645 -2.3999 -2.4862  0.1055
  721MOL0     H97309   4.338   6.492   8.347 -0.6728 -1.4870 -0.6051
  721MOL0     H97310   4.332   6.624   8.476  1.6418 -0.4041 -1.1054
  721MOL0     H97311   4.155   6.478   8.567 -0.9973 -0.4464  0.4631
  721MOL0     H97312   4.132   6.528   8.397  4.2617  4.0523  0.7782
  721MOL0     H97313   4.214   6.253   8.511  1.1150 -0.7260 -0.9206
  721MOL0     H97314   4.208   6.294   8.335 -1.4347  0.9955 -1.2508
  721MOL0     H97315   3.953   6.327   8.359 -2.6595 -3.0604  0.8906
  721MOL0     H97316   3.973   6.324   8.533 -0.0927 -1.5994  1.3276
  721MOL0     H97317   5.032   6.485   8.386  2.1800 -0.0787 -0.7911
  721MOL0     H97318   5.266   6.582   8.352 -0.2091 -0.0964 -0.2007
  721MOL0     H97319   5.471   6.792   7.888 -0.7579 -1.7368  0.6060
  721MOL0     H97320   5.708   6.730   7.818  0.3323  1.3985 -0.2800
  721MOL0     H97321   7.070   7.096   6.692 -2.1044 -0.1232  2.3259
  721MOL0     H97322   7.281   7.083   6.600  1.2683  1.6394  0.1093
  721MOL0     H97323   7.784   7.115   6.776  3.4511 -0.1595  1.1860
  721MOL0     H97324   8.030   7.136   6.706 -1.6697 -1.0367  0.8502
  721MOL0     H97325   8.187   7.273   6.622  3.3845  0.2059  0.0739
  721MOL0     H97326   8.269   7.129   6.608  1.1946  1.9450  1.2623
  721MOL0     H97327   8.362   7.367   6.522  0.0525  0.4761 -0.4826
  721MOL0     H97328   8.262   7.328   6.380 -2.0790  0.5351  1.1597
  721MOL0     H97329   8.413   7.143   6.337 -3.1125  0.1160  1.1140
  721MOL0     H97330   8.485   7.151   6.498  0.5652  3.2849  2.0104
  721MOL0     H97331   8.558   7.391   6.445 -4.0688 -0.0387  0.2752
  721MOL0     H97332   8.520   7.366   6.279  1.9536  4.3180  1.0803
  721MOL0     H97333   8.896   7.193   6.297 -0.1372 -0.6365  4.1215
  721MOL0     H97334   7.916   7.155   6.299  2.2790  0.9050  0.7885
  721MOL0     H97335   7.685   7.168   6.355  0.9738 -4.7331 -0.6909
  722MOL0     O97336   1.866   1.116  10.254 -0.1910 -0.6578  0.0242
  722MOL0     C97337   1.952   1.060  10.322 -0.0946 -1.0565  0.3482
  722MOL0     O97338   1.930   0.978  10.428  0.4217  0.0912  0.1985
  722MOL0     C97339   1.799   0.949  10.475  0.2751  0.1093 -1.0054
  722MOL0     C97340   1.677   0.945  10.404 -0.0893 -0.7265 -0.5261
  722MOL0     C97341   1.563   0.895  10.461  0.0815 -0.8849 -0.5987
  722MOL0     C97342   1.560   0.868  10.599 -0.0338 -0.1684 -0.2254
  722MOL0     O97343   1.447   0.804  10.654  0.7628  0.1078  0.1767
  722MOL0     C97344   1.424   0.809  10.797 -0.1886 -0.1792  0.6702
  722MOL0     C97345   1.380   0.953  10.850 -0.4714  0.7201 -0.2211
  722MOL0     C97346   1.289   1.014  10.755  0.5959 -0.3606 -0.5197
  722MOL0     C97347   1.159   0.948  10.726 -0.1229  0.5651 -0.6729
  722MOL0     C97348   1.065   1.021  10.625  0.0451 -0.2356  0.7991
  722MOL0     C97349   0.931   0.961  10.657  0.0240 -0.3372 -0.5660
  722MOL0     C97350   0.820   1.031  10.577  0.3766 -0.1684  0.3599
  722MOL0     C97351   0.679   0.976  10.614  0.0599  0.5881  0.1026
  722MOL0     N97352   0.629   1.004  10.751  0.3960 -0.2401 -0.5043
  722MOL0     C97353   0.568   1.118  10.795 -0.2163 -0.1450 -0.1516
  722MOL0     C97354   0.540   1.093  10.922  0.4172  0.0089  0.2837
  722MOL0     C97355   0.455   1.167  11.026 -0.5678 -0.3426 -0.3737
  722MOL0     C97356   0.541   1.174  11.157  0.2496 -0.7077  0.0926
  722MOL0     C97357   0.488   1.274  11.260 -0.2690 -0.5064  0.2960
  722MOL0     C97358   0.341   1.254  11.303 -0.2186  0.5450 -0.5860
  722MOL0     O97359   0.300   1.342  11.406 -0.9584 -0.8883  0.2372
  722MOL0     C97360   0.184   1.318  11.475 -0.2047  0.6654  0.2740
  722MOL0     C97361   0.134   1.421  11.555 -0.1490 -1.0407 -0.4843
  722MOL0     C97362   0.018   1.404  11.638 -0.7734 -0.7263  0.9704
  722MOL0     C97363  -0.028   1.521  11.716  0.5105  0.1784 -0.4382
  722MOL0     C97364  -0.039   1.278  11.645  0.1832  0.0119 -0.1884
  722MOL0     C97365  -0.153   1.248  11.747  0.8243 -0.7563  0.0320
  722MOL0     O97366  -0.202   1.118  11.748 -0.0008 -0.3397 -0.1264
  722MOL0     C97367  -0.322   1.094  11.815  0.1648  1.3475  0.0469
  722MOL0     C97368  -0.312   1.054  11.951 -0.2071 -0.0259 -0.2244
  722MOL0     C97369  -0.430   1.027  12.021  0.2041  0.0179  0.9002
  722MOL0     C97370  -0.555   1.031  11.957  0.1244 -0.8269  0.1136
  722MOL0     O97371  -0.678   1.010  12.019  0.1408 -0.3498 -0.4189
  722MOL0     C97372  -0.705   1.036  12.159  0.4460  1.0206  0.0877
  722MOL0     C97373  -0.788   1.157  12.198 -0.4443 -0.1361  0.4350
  722MOL0     C97374  -0.909   1.195  12.113  0.5268  0.5485 -1.1535
  722MOL0     C97375  -0.866   1.254  11.977  0.0211  1.1828 -0.5029
  722MOL0     C97376  -0.981   1.320  11.914 -0.0158  0.0733 -0.4064
  722MOL0     C97377  -0.921   1.398  11.799  0.2885 -0.8311  0.1967
  722MOL0     C97378  -0.826   1.324  11.703  0.4448  0.1190  0.5962
  722MOL0     C97379  -0.842   1.364  11.552 -1.0170 -0.8738 -0.0291
  722MOL0    Cl97380  -0.678   1.323  11.478 -0.0349 -0.3145  0.1866
  722MOL0     C97381  -0.566   1.060  11.822  0.2625 -0.0749  0.2085
  722MOL0     C97382  -0.453   1.103  11.750  0.5912 -0.5104 -0.2286
  722MOL0     O97383  -0.213   1.344  11.810 -0.0395  0.0167  0.1887
  722MOL0     C97384   0.012   1.171  11.574  0.8419  0.3203  0.7729
  722MOL0     C97385   0.126   1.198  11.491  0.4841 -0.1352  0.2911
  722MOL0     N97386   0.579   0.960  10.943  0.7819 -0.6337 -0.0604
  722MOL0     N97387   0.622   0.907  10.840  0.0376  0.3547 -0.9688
  722MOL0     C97388   1.680   0.872  10.671 -0.3747  0.4137  0.5345
  722MOL0     C97389   1.794   0.911  10.611  0.0145 -0.6830  0.2481
  722MOL0     C97390   2.087   1.072  10.268 -0.7108 -0.0196 -0.1731
  722MOL0     C97391   2.124   1.165  10.170 -0.5907 -0.9803 -0.3367
  722MOL0     C97392   2.261   1.188  10.139 -0.7732  1.1788  0.7449
  722MOL0     C97393   2.361   1.110  10.194 -0.5650 -0.5079  0.5414
  722MOL0     O97394   2.495   1.125  10.154  0.3456 -0.4745  0.1091
  722MOL0     C97395   2.600   1.028  10.201  0.8644 -0.7640 -0.8165
  722MOL0     C97396   2.722   1.031  10.107  0.5933 -0.2965  1.0088
  722MOL0     C97397   2.808   1.150  10.138  0.8516  0.3363  0.3032
  722MOL0     C97398   2.933   1.154  10.056 -0.2979  0.6395 -0.2887
  722MOL0     C97399   3.042   1.222  10.114  0.8896  0.0767 -0.4804
  722MOL0     C97400   3.120   1.305  10.162  0.8585  0.8506  0.0861
  722MOL0     C97401   2.321   1.007  10.288 -0.3511 -0.1290 -0.0779
  722MOL0     C97402   2.192   0.995  10.324 -0.0520  0.8229  0.2801
  722MOL0     H97403   1.679   0.970  10.298  2.1245 -0.9380 -0.5819
  722MOL0     H97404   1.476   0.879  10.398  1.5352  1.6490 -3.5118
  722MOL0     H97405   1.342   0.744  10.828 -1.8380  1.6872  0.4176
  722MOL0     H97406   1.508   0.771  10.856 -1.5215 -2.5146  1.1885
  722MOL0     H97407   1.328   0.951  10.946  0.0643 -0.4068  0.0587
  722MOL0     H97408   1.471   1.008  10.877  0.5338 -2.8721  5.5043
  722MOL0     H97409   1.265   1.102  10.815  2.3024 -0.6930  0.7242
  722MOL0     H97410   1.324   1.043  10.655 -0.6727 -0.1273 -0.9103
  722MOL0     H97411   1.169   0.842  10.701  0.8315  0.8171 -1.4443
  722MOL0     H97412   1.111   0.947  10.825  1.7972 -3.2974  0.4180
  722MOL0     H97413   1.062   1.129  10.639  0.3323 -0.5505  4.0933
  722MOL0     H97414   1.101   1.005  10.523  1.0346 -0.0782  1.1093
  722MOL0     H97415   0.923   0.852  10.646 -1.0229 -0.8872  3.8519
  722MOL0     H97416   0.905   0.985  10.760 -1.6213 -1.0289 -0.7923
  722MOL0     H97417   0.822   1.140  10.588  1.6803 -0.2474  1.1734
  722MOL0     H97418   0.837   1.018  10.469 -0.1478  2.1738 -0.0621
  722MOL0     H97419   0.669   0.868  10.598 -0.9525  0.5039  1.1395
  722MOL0     H97420   0.616   1.028  10.542 -0.9239  1.2807  1.4296
  722MOL0     H97421   0.543   1.209  10.741 -0.9067 -0.3396 -0.1668
  722MOL0     H97422   0.429   1.264  10.983 -0.2002 -0.9149 -1.9846
  722MOL0     H97423   0.361   1.112  11.041  0.8513 -2.4562  1.3992
  722MOL0     H97424   0.644   1.188  11.124  0.4410 -1.9775  0.1034
  722MOL0     H97425   0.541   1.078  11.211 -1.3920  0.6966  2.8682
  722MOL0     H97426   0.501   1.367  11.203  3.0859 -1.9856 -1.6480
  722MOL0     H97427   0.559   1.279  11.343  1.0979 -2.4148 -0.6702
  722MOL0     H97428   0.337   1.153  11.346  3.8300  0.7760  0.7973
  722MOL0     H97429   0.276   1.264  11.216 -2.4130  0.1119  0.9139
  722MOL0     H97430   0.186   1.516  11.554 -2.1230  0.0863 -0.0163
  722MOL0     H97431  -0.016   1.517  11.825  1.9480  0.8697 -0.5448
  722MOL0     H97432   0.032   1.608  11.691  1.5867 -0.1170  0.9721
  722MOL0     H97433  -0.130   1.551  11.692  1.8418  3.5638 -2.5506
  722MOL0     H97434  -0.220   1.062  12.008 -2.4149 -1.1113  3.8988
  722MOL0     H97435  -0.422   1.003  12.126  0.6135 -0.3166  0.7954
  722MOL0     H97436  -0.753   0.945  12.197  2.4181 -1.3899 -2.7940
  722MOL0     H97437  -0.609   1.042  12.211 -0.0266  0.2961  1.0710
  722MOL0     H97438  -0.820   1.133  12.300  2.6425  0.1354  1.5537
  722MOL0     H97439  -0.719   1.241  12.204  0.7241 -1.1665  2.1962
  722MOL0     H97440  -0.956   1.282  12.160 -0.3136  0.6720 -2.2024
  722MOL0     H97441  -0.984   1.115  12.109  0.7447  0.3429 -1.1870
  722MOL0     H97442  -0.769   1.302  11.989  2.1770 -2.5411 -1.2790
  722MOL0     H97443  -0.836   1.177  11.904  1.3203  0.6979  0.5105
  722MOL0     H97444  -1.039   1.388  11.977 -4.5618 -1.9906 -1.9760
  722MOL0     H97445  -1.047   1.249  11.865 -0.7363  1.0441 -0.8719
  722MOL0     H97446  -1.004   1.444  11.744 -0.4813  0.4421  2.3167
  722MOL0     H97447  -0.865   1.481  11.842  0.5059 -0.5512 -0.6159
  722MOL0     H97448  -0.856   1.219  11.703 -1.2721  0.5814  1.2699
  722MOL0     H97449  -0.724   1.332  11.742 -0.2655 -0.2867  2.6735
  722MOL0     H97450  -0.869   1.469  11.561 -0.2392 -0.8197  2.0638
  722MOL0     H97451  -0.918   1.312  11.492 -2.2623  1.8554 -0.9847
  722MOL0     H97452  -0.667   1.067  11.785 -0.0741 -2.2707  0.5808
  722MOL0     H97453  -0.466   1.151  11.654 -1.7114  1.5546  0.9842
  722MOL0     H97454  -0.012   1.065  11.580  1.0347  0.0835 -1.6969
  722MOL0     H97455   0.169   1.108  11.448  1.5755  0.7501 -0.5404
  722MOL0     H97456   1.687   0.838  10.773 -1.5267  0.1378  0.5345
  722MOL0     H97457   1.889   0.905  10.665  0.7565  3.9368 -0.0959
  722MOL0     H97458   2.049   1.232  10.129  0.4790 -0.7876 -2.0779
  722MOL0     H97459   2.285   1.266  10.068  0.2707  1.9807  1.9363
  722MOL0     H97460   2.618   1.056  10.306  0.0256 -1.0402 -0.5900
  722MOL0     H97461   2.568   0.924  10.199  2.0600 -1.2568  1.5275
  722MOL0     H97462   2.699   1.033  10.000  1.3385  0.2386  0.8480
  722MOL0     H97463   2.789   0.946  10.127  0.9774  0.0389  1.1716
  722MOL0     H97464   2.834   1.154  10.245 -0.1574  0.7081  0.5383
  722MOL0     H97465   2.753   1.242  10.119  0.7559 -0.1406 -2.0209
  722MOL0     H97466   2.912   1.198   9.958 -1.0977  3.2557  0.9573
  722MOL0     H97467   2.967   1.051  10.038 -1.6644 -0.1080  1.2235
  722MOL0     H97468   3.183   1.388  10.189 -1.8172  2.2869  2.4214
  722MOL0     H97469   2.396   0.937  10.325 -1.9286  0.0545  4.0701
  722MOL0     H97470   2.155   0.918  10.391  2.2243 -0.4987  0.1052
  723MOL0     O97471   3.338   4.643   7.563  1.1867  0.1762  0.0251
  723MOL0     C97472   3.444   4.604   7.611  0.4323 -0.0846 -0.4273
  723MOL0     O97473   3.473   4.583   7.750  0.2913 -0.0471  0.3588
  723MOL0     C97474   3.382   4.619   7.849 -0.6643 -0.0040  0.0061
  723MOL0     C97475   3.257   4.553   7.851  0.0975  1.1057 -0.2829
  723MOL0     C97476   3.156   4.605   7.932 -0.0694 -0.1371  0.0429
  723MOL0     C97477   3.173   4.714   8.021  0.5637  0.0101 -1.3011
  723MOL0     O97478   3.072   4.757   8.099 -0.9555  0.1733  0.1634
  723MOL0     C97479   3.057   4.899   8.095 -0.5322 -0.1837  0.3032
  723MOL0     C97480   2.914   4.937   8.125  0.2723 -0.8037 -0.0719
  723MOL0     C97481   2.886   5.090   8.101 -0.4146 -0.3390 -0.3349
  723MOL0     C97482   2.747   5.131   8.160 -0.3394  0.6005  0.6885
  723MOL0     C97483   2.696   5.280   8.149 -0.0025  0.5144  1.1137
  723MOL0     C97484   2.762   5.378   8.242 -0.5445 -0.0525 -0.0999
  723MOL0     C97485   2.742   5.517   8.185  0.5807 -0.4725  0.4606
  723MOL0     C97486   2.791   5.630   8.271  1.1402  0.1599 -0.3583
  723MOL0     N97487   2.936   5.614   8.276 -0.1616 -0.1983 -0.4814
  723MOL0     C97488   3.011   5.608   8.393 -0.4359 -0.9451  0.2459
  723MOL0     C97489   3.133   5.645   8.352  0.5648 -0.6472 -0.6964
  723MOL0     C97490   3.255   5.630   8.439 -0.5131 -0.5175 -0.6935
  723MOL0     C97491   3.314   5.747   8.523  0.5854  0.0746  0.6985
  723MOL0     C97492   3.340   5.874   8.431 -0.5922  0.2951 -0.1845
  723MOL0     C97493   3.456   5.873   8.332  0.3151  0.2828  0.3659
  723MOL0     O97494   3.440   5.990   8.245 -0.0094 -0.0458  0.0760
  723MOL0     C97495   3.545   6.063   8.183  0.4000  0.6689  0.0439
  723MOL0     C97496   3.501   6.145   8.081  0.1497 -0.0942 -0.2370
  723MOL0     C97497   3.594   6.222   8.009  0.5601 -0.0203  0.1687
  723MOL0     C97498   3.533   6.323   7.902 -0.1179  0.8119 -0.6821
  723MOL0     C97499   3.737   6.219   8.044 -0.1583  0.1828  0.2657
  723MOL0     C97500   3.849   6.287   7.971 -0.0958  0.9224  0.1903
  723MOL0     O97501   3.974   6.277   8.019 -0.9151 -0.3275  0.1120
  723MOL0     C97502   4.076   6.324   7.937 -0.0985  0.4228 -0.5434
  723MOL0     C97503   4.099   6.249   7.822  0.1377 -0.6612  0.9294
  723MOL0     C97504   4.199   6.283   7.731 -0.4385 -0.6926  0.8993
  723MOL0     C97505   4.286   6.392   7.764  0.3307 -0.1010  0.3923
  723MOL0     O97506   4.398   6.438   7.688  0.0295  0.3171  0.1672
  723MOL0     C97507   4.513   6.360   7.711 -0.3983 -0.3731  0.4692
  723MOL0     C97508   4.597   6.352   7.581 -0.6214  0.2270  0.7461
  723MOL0     C97509   4.706   6.245   7.599 -0.2337  0.4715  0.1820
  723MOL0     C97510   4.810   6.250   7.480  0.6644  0.4781 -0.0564
  723MOL0     C97511   4.952   6.192   7.516  0.4109  0.2298 -0.3819
  723MOL0     C97512   5.036   6.136   7.403  0.2987 -0.1095  0.0947
  723MOL0     C97513   5.079   6.240   7.309  0.8608 -0.2742 -0.5886
  723MOL0     C97514   5.179   6.182   7.222  0.8301 -0.9000  0.7002
  723MOL0    Cl97515   5.234   6.310   7.103 -0.0798  0.6736 -0.2450
  723MOL0     C97516   4.263   6.469   7.877 -0.1463  0.0047  0.0565
  723MOL0     C97517   4.160   6.431   7.970 -0.2014  0.2994  0.5754
  723MOL0     O97518   3.823   6.345   7.867 -0.3780  0.5742  0.0619
  723MOL0     C97519   3.775   6.132   8.147  0.1078 -0.2140 -0.2502
  723MOL0     C97520   3.676   6.063   8.207 -0.0788 -0.0679 -0.8071
  723MOL0     N97521   3.128   5.671   8.218 -0.1772  0.5630 -0.7093
  723MOL0     N97522   3.018   5.649   8.173  0.2175  0.4384 -0.1787
  723MOL0     C97523   3.310   4.772   8.023  0.1807 -0.7947 -1.3709
  723MOL0     C97524   3.406   4.725   7.939 -0.8291 -0.1926 -0.0903
  723MOL0     C97525   3.562   4.577   7.521  1.0197  0.4005  0.2097
  723MOL0     C97526   3.684   4.516   7.565 -0.0521 -0.2071 -0.1799
  723MOL0     C97527   3.789   4.488   7.480  0.0382 -0.5398 -1.4125
  723MOL0     C97528   3.776   4.537   7.344 -0.2112  0.3426  0.3304
  723MOL0     O97529   3.891   4.526   7.273  0.2074 -0.0232 -0.4006
  723MOL0     C97530   3.959   4.650   7.241 -1.1284 -0.6748  0.7098
  723MOL0     C97531   4.038   4.630   7.115 -0.5677 -0.6564 -0.1821
  723MOL0     C97532   3.949   4.581   7.001  0.1339  0.3399 -0.0629
  723MOL0     C97533   4.021   4.617   6.862 -0.1178 -0.2776 -0.4961
  723MOL0     C97534   3.987   4.505   6.770 -0.0211  0.1517  0.2810
  723MOL0     C97535   3.952   4.421   6.695  0.1942  0.0805  0.2178
  723MOL0     C97536   3.668   4.607   7.301  0.0125 -0.3986 -0.2215
  723MOL0     C97537   3.558   4.625   7.384  0.7802  0.2690 -0.4459
  723MOL0     H97538   3.236   4.467   7.788 -1.2099  1.4980 -0.4215
  723MOL0     H97539   3.056   4.564   7.924 -1.4218  2.7703  0.7661
  723MOL0     H97540   3.115   4.952   8.171 -0.0390 -0.3801  0.0692
  723MOL0     H97541   3.077   4.940   7.995 -1.5362  0.5062  0.3749
  723MOL0     H97542   2.839   4.872   8.079 -0.7320 -0.4691  1.0608
  723MOL0     H97543   2.904   4.911   8.230 -2.0915 -0.1635 -0.0980
  723MOL0     H97544   2.962   5.155   8.144 -0.1741 -0.4194 -0.6336
  723MOL0     H97545   2.891   5.104   7.992  0.8062 -6.6248 -1.5171
  723MOL0     H97546   2.674   5.060   8.120 -0.3212  0.7485  0.3898
  723MOL0     H97547   2.753   5.093   8.262  0.7929  3.6794  1.8730
  723MOL0     H97548   2.724   5.305   8.046 -1.3199  1.2444  0.9066
  723MOL0     H97549   2.589   5.296   8.159  0.3199  2.9025  1.3942
  723MOL0     H97550   2.709   5.374   8.337 -4.3825  2.7708 -1.8773
  723MOL0     H97551   2.865   5.340   8.238  0.4002  2.3232  0.0410
  723MOL0     H97552   2.793   5.518   8.088 -0.1753 -0.6490  0.0446
  723MOL0     H97553   2.636   5.521   8.156  0.3362 -1.8344  1.0989
  723MOL0     H97554   2.738   5.626   8.367  2.9989  0.3361  0.7148
  723MOL0     H97555   2.777   5.727   8.221 -1.7194 -0.1468 -0.2998
  723MOL0     H97556   2.984   5.581   8.495  0.0366  0.3062  0.7321
  723MOL0     H97557   3.234   5.546   8.506  1.1460 -0.9823 -0.6998
  723MOL0     H97558   3.338   5.602   8.373 -2.2464 -2.9210 -1.9827
  723MOL0     H97559   3.404   5.718   8.579  2.0592  2.2248 -0.4105
  723MOL0     H97560   3.234   5.764   8.596  0.3152  1.9898  0.0099
  723MOL0     H97561   3.359   5.957   8.500  0.1812 -1.0862  1.3309
  723MOL0     H97562   3.245   5.895   8.380 -0.1016  1.9353 -0.5019
  723MOL0     H97563   3.450   5.776   8.282 -0.2580  1.0366 -1.0965
  723MOL0     H97564   3.549   5.877   8.391  0.4542 -2.1298  0.4345
  723MOL0     H97565   3.395   6.128   8.064  0.6121 -2.6248 -1.0548
  723MOL0     H97566   3.553   6.279   7.803  0.2060 -2.1635  0.5983
  723MOL0     H97567   3.423   6.328   7.903 -0.6357 -4.0211 -2.2848
  723MOL0     H97568   3.578   6.422   7.903  0.0850  0.7277  1.3163
  723MOL0     H97569   4.019   6.187   7.783  1.4142 -0.1286 -3.0669
  723MOL0     H97570   4.203   6.236   7.633 -5.5023 -1.4690  0.7902
  723MOL0     H97571   4.579   6.386   7.794  1.1885 -1.5649 -0.3827
  723MOL0     H97572   4.481   6.258   7.731 -3.9197  0.7745  1.4505
  723MOL0     H97573   4.531   6.322   7.500 -1.0625  1.3845  0.6520
  723MOL0     H97574   4.648   6.447   7.563 -0.5312 -0.0462 -0.4787
  723MOL0     H97575   4.663   6.145   7.615  3.5804 -1.0937  1.8741
  723MOL0     H97576   4.752   6.269   7.695  0.2112 -0.7105  0.2831
  723MOL0     H97577   4.774   6.196   7.392 -1.9549 -2.0660  2.3266
  723MOL0     H97578   4.817   6.358   7.469  0.2545  0.7558  1.9055
  723MOL0     H97579   4.934   6.111   7.587  1.3106  0.3933  0.0529
  723MOL0     H97580   5.010   6.263   7.575  2.6771 -0.9169 -1.1142
  723MOL0     H97581   5.120   6.081   7.448  0.3609 -0.1268 -0.0436
  723MOL0     H97582   4.981   6.062   7.344 -0.4929 -0.9615  1.8255
  723MOL0     H97583   5.115   6.316   7.379 -5.9020 -0.5185  4.1203
  723MOL0     H97584   4.990   6.271   7.254 -0.9390 -0.9796  1.7625
  723MOL0     H97585   5.149   6.093   7.166 -0.2032 -3.1278  4.3871
  723MOL0     H97586   5.269   6.159   7.280  0.9560 -0.8492  0.5230
  723MOL0     H97587   4.332   6.551   7.898  1.0033 -1.0296  0.4655
  723MOL0     H97588   4.148   6.490   8.060 -2.3207 -0.2091  0.6699
  723MOL0     H97589   3.880   6.112   8.166  0.5689 -0.8273 -2.9788
  723MOL0     H97590   3.720   6.008   8.290 -1.2696  2.3813  1.5851
  723MOL0     H97591   3.341   4.854   8.086  1.2728 -1.0462 -1.5659
  723MOL0     H97592   3.500   4.780   7.936 -0.6444 -0.4189  1.1040
  723MOL0     H97593   3.696   4.481   7.667 -1.0362 -0.2583 -0.0712
  723MOL0     H97594   3.883   4.447   7.517  0.2173  1.0556  0.0492
  723MOL0     H97595   3.891   4.735   7.230 -2.3722 -1.5546  1.3369
  723MOL0     H97596   4.032   4.680   7.316 -1.7915  0.2590  1.0052
  723MOL0     H97597   4.118   4.558   7.131  0.2486  0.4626  0.9650
  723MOL0     H97598   4.079   4.730   7.100 -0.7943 -0.7692 -1.7060
  723MOL0     H97599   3.847   4.620   7.004  0.3023  0.9065 -1.0830
  723MOL0     H97600   3.950   4.473   7.019 -0.7260  0.4336  0.5957
  723MOL0     H97601   4.126   4.644   6.861 -0.3089  0.4924 -1.6018
  723MOL0     H97602   3.970   4.704   6.821 -3.4230 -1.0820  1.5120
  723MOL0     H97603   3.923   4.329   6.648 -0.3676  1.6134 -2.6383
  723MOL0     H97604   3.681   4.637   7.198  1.8682 -1.0336 -0.2268
  723MOL0     H97605   3.468   4.676   7.351 -1.7562 -3.0142  0.8931
  724MOL0     O97606  10.191   2.946   1.853  0.3277 -0.9748  0.4094
  724MOL0     C97607  10.094   2.868   1.845 -0.1382 -1.0242 -0.3166
  724MOL0     O97608   9.976   2.888   1.913  0.2381 -0.0874  0.4756
  724MOL0     C97609   9.959   3.009   1.989 -0.1700  0.3302  0.2429
  724MOL0     C97610   9.914   3.004   2.122 -0.3107  0.8286  0.5720
  724MOL0     C97611   9.883   3.116   2.203  0.3449 -0.4099  0.9756
  724MOL0     C97612   9.901   3.238   2.142 -0.2644  0.1652  0.1093
  724MOL0     O97613   9.903   3.361   2.203  0.4787  0.2897 -0.6521
  724MOL0     C97614   9.917   3.367   2.346 -0.5953 -0.1636 -0.3176
  724MOL0     C97615   9.971   3.501   2.378 -0.3982 -0.1910  0.6583
  724MOL0     C97616  10.027   3.517   2.521 -0.7799  0.2733 -0.5593
  724MOL0     C97617  10.086   3.658   2.531 -0.4509  0.5824 -0.3690
  724MOL0     C97618  10.126   3.697   2.673 -0.1503  0.1142  0.2696
  724MOL0     C97619  10.241   3.616   2.721 -0.1478  0.2131 -1.2407
  724MOL0     C97620  10.303   3.677   2.848 -0.2089 -0.3811 -1.2847
  724MOL0     C97621  10.389   3.800   2.822  0.5467 -0.5518  0.4276
  724MOL0     N97622  10.468   3.852   2.933  0.0511 -0.3264 -0.1796
  724MOL0     C97623  10.492   3.985   2.952  0.5641 -0.1194  0.1592
  724MOL0     C97624  10.586   3.998   3.054 -0.3245 -0.6119  0.0777
  724MOL0     C97625  10.652   4.128   3.102 -0.4583  0.5039  0.7235
  724MOL0     C97626  10.799   4.103   3.113  0.5058 -1.0155 -0.3982
  724MOL0     C97627  10.870   4.235   3.167  0.0051 -0.1380  0.7630
  724MOL0     C97628  11.022   4.243   3.176  0.1464  0.4048  0.5444
  724MOL0     O97629  11.067   4.373   3.196  0.2191 -0.2358  0.6519
  724MOL0     C97630  11.204   4.400   3.195  0.5882 -0.8582  0.9510
  724MOL0     C97631  11.313   4.306   3.182 -0.3253 -0.1747 -0.6141
  724MOL0     C97632  11.449   4.354   3.205  0.7040 -0.6135 -0.0501
  724MOL0     C97633  11.554   4.256   3.173 -0.3010 -0.5937  0.0011
  724MOL0     C97634  11.481   4.492   3.232  0.1729 -0.9918 -0.0969
  724MOL0     C97635  11.621   4.542   3.241  0.0263 -0.4096 -0.0615
  724MOL0     O97636  11.704   4.476   3.327 -0.6144  0.2401  0.2438
  724MOL0     C97637  11.844   4.504   3.332  0.7320  0.2525  0.3083
  724MOL0     C97638  11.908   4.624   3.314 -0.5291  0.3467  0.2247
  724MOL0     C97639  12.049   4.622   3.297 -0.0402 -0.8866  0.2515
  724MOL0     C97640  12.121   4.503   3.330  0.5739 -0.3265 -0.1514
  724MOL0     O97641  12.261   4.502   3.330 -0.1079  0.4735  0.0658
  724MOL0     C97642  12.316   4.589   3.229 -0.2930  0.1162 -0.0354
  724MOL0     C97643  12.453   4.536   3.192 -0.7127 -0.0926 -0.5618
  724MOL0     C97644  12.515   4.635   3.096  0.3049 -0.5696 -1.0330
  724MOL0     C97645  12.657   4.581   3.064 -0.6143  1.1252  0.9883
  724MOL0     C97646  12.779   4.675   3.066 -0.6466  0.9343  0.2519
  724MOL0     C97647  12.908   4.605   3.018 -0.6641  1.5018  0.1425
  724MOL0     C97648  12.941   4.483   3.102 -0.0596  0.5855 -0.1898
  724MOL0     C97649  12.942   4.519   3.250 -1.1111  0.1564  0.2350
  724MOL0    Cl97650  12.985   4.377   3.357  0.3175  0.0213 -0.0834
  724MOL0     C97651  12.053   4.383   3.366 -0.9570 -0.7935 -0.0802
  724MOL0     C97652  11.919   4.389   3.369  0.1352  0.8303 -0.1840
  724MOL0     O97653  11.642   4.659   3.208 -0.2533 -0.6786  0.4705
  724MOL0     C97654  11.368   4.579   3.235 -0.2068 -0.1127  0.4374
  724MOL0     C97655  11.231   4.533   3.221 -0.2953 -0.1363  0.1734
  724MOL0     N97656  10.620   3.874   3.092  0.7834 -0.3004 -0.4122
  724MOL0     N97657  10.556   3.789   3.015  0.3325 -0.2294  0.8592
  724MOL0     C97658   9.931   3.244   2.004  0.3832 -0.1447 -0.9713
  724MOL0     C97659   9.966   3.135   1.932 -0.5584  0.3430 -0.0556
  724MOL0     C97660  10.110   2.762   1.737  0.1764 -0.1492  0.4100
  724MOL0     C97661  10.008   2.668   1.726  0.1612  0.2512 -0.1199
  724MOL0     C97662  10.004   2.566   1.628  0.4081  0.3559 -0.1999
  724MOL0     C97663  10.097   2.563   1.531  0.2172  0.1810  0.1949
  724MOL0     O97664  10.087   2.457   1.441 -0.4868 -0.3471  0.7942
  724MOL0     C97665  10.203   2.401   1.370 -0.3297  0.6585  0.1498
  724MOL0     C97666  10.256   2.285   1.447  0.4161  0.6857  0.4813
  724MOL0     C97667  10.299   2.315   1.594  0.1726 -0.6878 -0.1248
  724MOL0     C97668  10.395   2.200   1.641 -0.5613 -0.7020 -0.3878
  724MOL0     C97669  10.322   2.084   1.694  0.3939 -0.1236 -0.4203
  724MOL0     C97670  10.269   1.984   1.746 -0.1101 -1.1814  0.9907
  724MOL0     C97671  10.202   2.655   1.540 -0.9664 -0.3422  0.6138
  724MOL0     C97672  10.201   2.764   1.632 -0.2738  0.2839  0.8526
  724MOL0     H97673   9.898   2.905   2.165  1.0710  0.1254 -0.4468
  724MOL0     H97674   9.855   3.108   2.308 -2.1563 -0.8602  0.3248
  724MOL0     H97675   9.824   3.352   2.402  0.0354 -0.7291  0.6125
  724MOL0     H97676   9.989   3.293   2.380 -1.2691 -0.6229  0.1521
  724MOL0     H97677  10.051   3.511   2.304 -0.6680  0.2540  0.4267
  724MOL0     H97678   9.899   3.581   2.363  0.2327  0.3442  0.4290
  724MOL0     H97679   9.954   3.501   2.602 -0.7573  0.4226 -0.5106
  724MOL0     H97680  10.103   3.442   2.548 -0.4457  0.6876 -0.3496
  724MOL0     H97681  10.174   3.664   2.466  0.1464  1.0596  0.4619
  724MOL0     H97682  10.003   3.722   2.501  1.7239  2.1309 -3.6564
  724MOL0     H97683  10.150   3.803   2.683 -0.3008  0.3970 -1.8692
  724MOL0     H97684  10.039   3.694   2.738 -0.0553 -2.5267  0.3913
  724MOL0     H97685  10.197   3.519   2.747  2.0325 -0.5032  0.0621
  724MOL0     H97686  10.322   3.607   2.648 -1.7809  1.4832 -3.3352
  724MOL0     H97687  10.235   3.689   2.933  0.2815  2.8179 -1.2178
  724MOL0     H97688  10.373   3.601   2.884 -0.3164 -0.5777 -1.4885
  724MOL0     H97689  10.324   3.881   2.788 -0.1955 -0.5089  1.8818
  724MOL0     H97690  10.462   3.784   2.742  0.6537 -0.6513  0.5437
  724MOL0     H97691  10.455   4.065   2.889 -0.7961 -1.7090 -1.1590
  724MOL0     H97692  10.631   4.209   3.031 -1.2525  0.6827  1.1502
  724MOL0     H97693  10.609   4.154   3.199 -1.7057 -3.1653  1.2866
  724MOL0     H97694  10.835   4.081   3.012  0.2767  2.1854 -1.2889
  724MOL0     H97695  10.817   4.033   3.195 -2.2451  1.0306  2.1773
  724MOL0     H97696  10.820   4.241   3.264 -0.6223 -1.1213  0.5106
  724MOL0     H97697  10.837   4.320   3.109  2.0609  0.7925  0.8514
  724MOL0     H97698  11.064   4.205   3.082  1.6152  1.2988  0.7951
  724MOL0     H97699  11.062   4.182   3.257  0.2367  1.2968  1.1852
  724MOL0     H97700  11.294   4.199   3.180 -2.6339  0.1854 -0.4942
  724MOL0     H97701  11.605   4.210   3.258  1.9051 -1.1002 -1.5177
  724MOL0     H97702  11.509   4.172   3.120 -0.7987 -1.9396  2.4198
  724MOL0     H97703  11.636   4.301   3.117  1.7195 -0.6671  2.7140
  724MOL0     H97704  11.855   4.716   3.290  1.1691  0.5855 -3.2083
  724MOL0     H97705  12.100   4.713   3.269  0.0303 -0.6597  1.0891
  724MOL0     H97706  12.258   4.597   3.137 -2.5707 -0.6544  1.2478
  724MOL0     H97707  12.325   4.684   3.283  2.9782 -0.1402  0.0736
  724MOL0     H97708  12.513   4.524   3.283  0.9508  0.3229 -1.5570
  724MOL0     H97709  12.448   4.444   3.133  4.3866 -0.5270 -0.7627
  724MOL0     H97710  12.523   4.735   3.139 -2.1162  0.3426 -2.4901
  724MOL0     H97711  12.467   4.644   2.998  2.1539 -1.3843 -2.0642
  724MOL0     H97712  12.675   4.496   3.129  1.6977  0.8814  0.1188
  724MOL0     H97713  12.645   4.524   2.971 -3.3168  1.8827  0.7857
  724MOL0     H97714  12.795   4.721   3.164 -0.1681  0.7044  0.2835
  724MOL0     H97715  12.767   4.758   2.996 -1.6991 -1.8333 -3.1324
  724MOL0     H97716  12.888   4.583   2.913 -0.6111  2.6502 -0.1118
  724MOL0     H97717  12.993   4.673   3.033  1.4168 -0.9534  0.2985
  724MOL0     H97718  13.029   4.426   3.068 -3.4337 -3.0318 -4.0051
  724MOL0     H97719  12.864   4.406   3.093  1.3392 -0.6975 -2.1249
  724MOL0     H97720  12.848   4.555   3.292 -2.7846 -0.0173 -3.0422
  724MOL0     H97721  13.028   4.585   3.263  0.2541 -1.0081 -2.0436
  724MOL0     H97722  12.110   4.305   3.414  1.9085  1.0028 -0.3176
  724MOL0     H97723  11.865   4.299   3.398  2.1143  0.8563  4.3809
  724MOL0     H97724  11.379   4.684   3.257  2.3562 -0.1085 -0.5097
  724MOL0     H97725  11.146   4.601   3.227  0.0845  0.2185  3.8390
  724MOL0     H97726   9.942   3.340   1.954  0.4562  0.8463  0.8706
  724MOL0     H97727  10.001   3.142   1.829  1.1409  0.4977  0.5098
  724MOL0     H97728   9.936   2.669   1.807 -0.5648  2.5626 -0.7151
  724MOL0     H97729   9.932   2.485   1.631 -1.5401  1.9084 -2.0045
  724MOL0     H97730  10.163   2.362   1.276  2.1306  0.0016 -0.7071
  724MOL0     H97731  10.286   2.470   1.350  2.1220 -2.0663  0.1730
  724MOL0     H97732  10.354   2.259   1.407  0.7400  0.1358  1.6173
  724MOL0     H97733  10.186   2.201   1.442  2.7753 -1.3632 -0.2583
  724MOL0     H97734  10.219   2.342   1.663  0.3058 -0.6583  0.0192
  724MOL0     H97735  10.355   2.408   1.580  0.6326 -0.9412  0.0211
  724MOL0     H97736  10.444   2.242   1.730  0.7941 -2.2575 -0.3627
  724MOL0     H97737  10.462   2.168   1.561 -0.6385  1.2020 -1.2782
  724MOL0     H97738  10.228   1.887   1.765 -1.0036 -0.8207  0.9858
  724MOL0     H97739  10.278   2.649   1.463 -2.7819 -0.6630 -1.2153
  724MOL0     H97740  10.277   2.841   1.622 -0.1228 -0.1916 -3.8537
  725MOL0     O97741   1.350   7.656   4.827 -0.1827 -0.2530  0.4680
  725MOL0     C97742   1.398   7.760   4.782 -1.4377 -0.6575 -0.1065
  725MOL0     O97743   1.347   7.892   4.789 -0.6643  0.2548  0.2876
  725MOL0     C97744   1.214   7.932   4.825  0.2717  0.3614 -0.3819
  725MOL0     C97745   1.187   8.066   4.845 -0.1173 -0.0269  0.3556
  725MOL0     C97746   1.061   8.115   4.879 -0.1153  0.0145  0.9273
  725MOL0     C97747   0.951   8.031   4.895 -1.1118  0.1786 -0.5703
  725MOL0     O97748   0.837   8.092   4.916  0.2814 -0.9607 -0.1394
  725MOL0     C97749   0.707   8.018   4.908 -0.2526 -0.0316 -0.6727
  725MOL0     C97750   0.595   8.086   4.983  0.6048  0.0085 -0.3136
  725MOL0     C97751   0.457   8.008   4.973 -0.7012  0.4174 -0.1158
  725MOL0     C97752   0.350   8.101   5.041  0.3128  0.2028  0.6720
  725MOL0     C97753   0.209   8.046   5.049 -0.2962 -0.3204  0.5655
  725MOL0     C97754   0.193   7.933   5.144  0.0863  0.5362  0.5294
  725MOL0     C97755   0.060   7.858   5.146  0.1537  0.1181  0.4961
  725MOL0     C97756  -0.062   7.947   5.182 -0.2760 -0.1910  0.5591
  725MOL0     N97757  -0.128   8.006   5.062  0.7511 -0.3237 -1.0919
  725MOL0     C97758  -0.188   7.955   4.955 -0.4010 -0.3088  0.2221
  725MOL0     C97759  -0.231   8.058   4.875 -0.7356  0.5345  0.9602
  725MOL0     C97760  -0.306   8.023   4.754  0.2450  0.4487  1.1837
  725MOL0     C97761  -0.381   8.144   4.696  0.4275  0.4340  0.0507
  725MOL0     C97762  -0.517   8.173   4.772  0.1448  0.2039 -1.0673
  725MOL0     C97763  -0.583   8.290   4.703 -0.0475  0.4508  0.6885
  725MOL0     O97764  -0.717   8.315   4.754 -0.1755  0.2833 -0.1426
  725MOL0     C97765  -0.781   8.425   4.698 -0.1055  0.1481  0.5656
  725MOL0     C97766  -0.757   8.490   4.578 -0.4793 -0.3646  0.2494
  725MOL0     C97767  -0.827   8.609   4.543  0.1993 -0.0235 -0.3360
  725MOL0     C97768  -0.766   8.689   4.433  0.0111  0.0805  0.0727
  725MOL0     C97769  -0.940   8.647   4.622  0.4299  0.7800 -0.8000
  725MOL0     C97770  -1.037   8.758   4.587 -0.3881 -0.0905  0.0352
  725MOL0     O97771  -1.149   8.754   4.658  0.2652  0.0222 -0.0754
  725MOL0     C97772  -1.245   8.848   4.648 -0.3795 -0.2977  0.3857
  725MOL0     C97773  -1.316   8.876   4.767  1.6335  0.2271 -0.5171
  725MOL0     C97774  -1.420   8.962   4.770  1.3391 -0.4195 -0.1249
  725MOL0     C97775  -1.468   9.026   4.654  0.2858  0.2643  0.2771
  725MOL0     O97776  -1.580   9.107   4.656 -0.2354 -0.4746  0.3508
  725MOL0     C97777  -1.684   9.082   4.551 -0.7223 -0.1761  0.8640
  725MOL0     C97778  -1.806   9.159   4.592 -0.2167 -0.1337 -1.3767
  725MOL0     C97779  -1.774   9.310   4.589  0.6514 -0.8265  0.5374
  725MOL0     C97780  -1.894   9.380   4.640  0.1924  1.4446  0.1146
  725MOL0     C97781  -2.010   9.384   4.533 -1.6838  0.0794 -0.1990
  725MOL0     C97782  -2.156   9.425   4.596 -0.5016 -0.1115  0.5601
  725MOL0     C97783  -2.250   9.455   4.482  0.1408 -0.5647  0.5198
  725MOL0     C97784  -2.366   9.535   4.535  0.4467  0.4386 -0.0476
  725MOL0    Cl97785  -2.313   9.705   4.565 -0.4095 -0.0663 -0.4009
  725MOL0     C97786  -1.400   8.994   4.537  0.0208 -0.8707 -0.2523
  725MOL0     C97787  -1.299   8.901   4.534  0.1992  0.5279 -0.2213
  725MOL0     O97788  -1.012   8.844   4.494 -0.5942  0.3554 -0.1849
  725MOL0     C97789  -0.972   8.566   4.735  0.2172 -0.7563 -0.2901
  725MOL0     C97790  -0.890   8.459   4.770 -0.5837 -0.3552  1.0714
  725MOL0     N97791  -0.197   8.169   4.935  0.8575  0.2397 -0.1362
  725MOL0     N97792  -0.132   8.141   5.045  0.3658  0.8344 -0.9256
  725MOL0     C97793   0.976   7.894   4.889  0.9478  0.3926  0.3141
  725MOL0     C97794   1.106   7.850   4.855 -0.3392  0.2645 -0.1188
  725MOL0     C97795   1.538   7.752   4.727  0.5264 -0.6707  0.4059
  725MOL0     C97796   1.634   7.655   4.760  0.6039  0.5838  0.2948
  725MOL0     C97797   1.770   7.658   4.710  1.1039  0.1693  1.2586
  725MOL0     C97798   1.813   7.773   4.644  0.1992  0.0792  0.6968
  725MOL0     O97799   1.941   7.792   4.605 -0.6617 -0.4113  0.2574
  725MOL0     C97800   1.973   7.747   4.466  0.9045 -0.7110 -0.8424
  725MOL0     C97801   2.113   7.795   4.450  0.5606 -0.2641  1.0583
  725MOL0     C97802   2.182   7.706   4.340 -0.1948 -0.3723 -0.8889
  725MOL0     C97803   2.331   7.721   4.333 -0.2814  0.8500  0.3850
  725MOL0     C97804   2.380   7.858   4.325 -0.0021 -0.4734 -0.8327
  725MOL0     C97805   2.422   7.972   4.323  0.0858  1.2633 -0.1993
  725MOL0     C97806   1.719   7.866   4.603  0.1057  0.6508 -0.0071
  725MOL0     C97807   1.583   7.858   4.646 -0.3245  0.8465  0.3266
  725MOL0     H97808   1.260   8.146   4.842 -0.1958  0.0425  0.3233
  725MOL0     H97809   1.041   8.222   4.881  0.5523  0.2425 -1.4566
  725MOL0     H97810   0.690   8.020   4.800  2.9001 -0.2943 -1.2707
  725MOL0     H97811   0.718   7.913   4.938 -0.4888  0.6898  2.1474
  725MOL0     H97812   0.624   8.097   5.088 -0.7349 -0.4694  0.1271
  725MOL0     H97813   0.586   8.189   4.947 -1.0431 -0.1966 -0.5453
  725MOL0     H97814   0.430   7.993   4.868  1.6344 -2.9994 -0.3877
  725MOL0     H97815   0.459   7.921   5.040  2.4063  0.1747 -0.3644
  725MOL0     H97816   0.392   8.108   5.141 -1.3778 -2.4917  1.7004
  725MOL0     H97817   0.342   8.195   4.987  2.3251 -1.4065 -2.8191
  725MOL0     H97818   0.149   8.130   5.085  1.6543  2.0621 -1.4068
  725MOL0     H97819   0.173   8.006   4.954  1.3220 -2.6877  0.8749
  725MOL0     H97820   0.263   7.855   5.113 -0.8064  0.4156 -1.3049
  725MOL0     H97821   0.220   7.974   5.242 -1.5024  1.6000  0.5633
  725MOL0     H97822   0.040   7.804   5.052 -0.3524  1.6714 -0.3292
  725MOL0     H97823   0.068   7.783   5.225 -1.7472  1.0633  1.6580
  725MOL0     H97824  -0.019   8.026   5.245  1.9519 -2.5322  2.2476
  725MOL0     H97825  -0.131   7.886   5.241 -0.6810 -1.9252 -1.5674
  725MOL0     H97826  -0.195   7.852   4.921 -2.5146  0.0456 -0.6072
  725MOL0     H97827  -0.247   8.002   4.664 -0.1572  1.5719  0.6382
  725MOL0     H97828  -0.363   7.932   4.771  0.9727 -0.0611  0.9254
  725MOL0     H97829  -0.402   8.123   4.591 -1.3992 -0.3378  0.5396
  725MOL0     H97830  -0.304   8.223   4.696  3.0421 -1.9086 -2.2268
  725MOL0     H97831  -0.497   8.195   4.877  3.0160  0.7360 -1.6581
  725MOL0     H97832  -0.576   8.081   4.760 -1.7722  1.4026 -1.2152
  725MOL0     H97833  -0.606   8.261   4.600 -2.9837  2.6283  0.6236
  725MOL0     H97834  -0.523   8.381   4.712 -0.9750  1.1437  0.0037
  725MOL0     H97835  -0.668   8.460   4.523  1.3398 -0.8972  3.2885
  725MOL0     H97836  -0.830   8.693   4.344 -0.8425  0.5085  0.6891
  725MOL0     H97837  -0.751   8.793   4.462 -0.0096  1.0661 -3.1251
  725MOL0     H97838  -0.669   8.651   4.399 -0.5863  0.7785 -2.6156
  725MOL0     H97839  -1.274   8.830   4.855  2.1682  0.3153 -0.7179
  725MOL0     H97840  -1.461   8.978   4.870 -0.4530  1.4444 -1.0799
  725MOL0     H97841  -1.643   9.113   4.454  3.2118 -1.0038  2.0730
  725MOL0     H97842  -1.706   8.975   4.542  1.0947 -0.4450 -1.5052
  725MOL0     H97843  -1.880   9.136   4.515 -1.0695  1.6965 -1.1782
  725MOL0     H97844  -1.842   9.129   4.691 -0.7482  0.0217 -1.5192
  725MOL0     H97845  -1.746   9.340   4.488  0.9334  1.1495  1.1712
  725MOL0     H97846  -1.704   9.332   4.670 -0.8413  1.3415  1.3041
  725MOL0     H97847  -1.925   9.332   4.733  0.2407 -0.6336 -0.8814
  725MOL0     H97848  -1.855   9.478   4.669  1.6133  0.2097  2.6085
  725MOL0     H97849  -2.014   9.280   4.501  0.1211 -0.5216  1.3476
  725MOL0     H97850  -1.982   9.445   4.447 -0.6576  2.8063  1.9231
  725MOL0     H97851  -2.192   9.345   4.661 -0.0270  2.1457  3.9153
  725MOL0     H97852  -2.161   9.520   4.650 -0.0753  1.2344 -1.6405
  725MOL0     H97853  -2.290   9.362   4.440 -2.7329 -0.0817  1.9207
  725MOL0     H97854  -2.204   9.522   4.408 -1.3925 -1.1577 -1.0274
  725MOL0     H97855  -2.409   9.478   4.617  0.2480 -1.8790 -1.6739
  725MOL0     H97856  -2.446   9.536   4.461  0.2915  0.7937  0.1255
  725MOL0     H97857  -1.424   9.058   4.453 -1.0620  2.5538  2.4390
  725MOL0     H97858  -1.254   8.873   4.439 -2.5107 -1.8755 -0.9507
  725MOL0     H97859  -1.064   8.586   4.789  1.2496 -0.4429  1.4369
  725MOL0     H97860  -0.915   8.398   4.857 -1.2397 -3.1996 -0.9314
  725MOL0     H97861   0.896   7.821   4.891 -0.0102  1.3462 -1.3569
  725MOL0     H97862   1.123   7.748   4.821 -0.8954  0.3258 -0.5938
  725MOL0     H97863   1.623   7.589   4.845  0.1942 -0.1580 -0.3224
  725MOL0     H97864   1.838   7.584   4.752  1.7281  0.1893  0.3021
  725MOL0     H97865   1.970   7.637   4.463  1.9592 -0.7639 -4.2528
  725MOL0     H97866   1.915   7.782   4.380  1.0455  1.1133 -0.2334
  725MOL0     H97867   2.166   7.778   4.544  2.0304 -0.9223  0.1334
  725MOL0     H97868   2.104   7.899   4.416 -0.2684 -0.7064 -0.1478
  725MOL0     H97869   2.131   7.739   4.249  0.0412 -2.7400 -1.9333
  725MOL0     H97870   2.161   7.603   4.370 -1.7063  0.5407  1.4731
  725MOL0     H97871   2.362   7.666   4.243 -0.0528  0.7068  0.5486
  725MOL0     H97872   2.369   7.660   4.416  1.0724  0.8429 -0.2123
  725MOL0     H97873   2.475   8.064   4.337  1.2529  0.5020  0.5490
  725MOL0     H97874   1.753   7.941   4.532  0.6910  2.2568  1.8860
  725MOL0     H97875   1.503   7.923   4.611 -0.5723 -0.3972 -1.5522
  726MOL0     O97876   8.506   3.424   3.299 -0.7619 -0.1506  0.0480
  726MOL0     C97877   8.600   3.338   3.267  0.6891 -0.3154  0.2872
  726MOL0     O97878   8.571   3.205   3.232  0.3784 -0.0619  0.2055
  726MOL0     C97879   8.439   3.176   3.223  0.6898 -0.1537  0.2304
  726MOL0     C97880   8.346   3.155   3.325  0.6319 -0.4486 -0.6933
  726MOL0     C97881   8.209   3.141   3.294  0.2886  0.4477 -0.2820
  726MOL0     C97882   8.164   3.121   3.165  0.4000  0.4494  0.0037
  726MOL0     O97883   8.041   3.078   3.137 -0.0162 -0.1073  0.0743
  726MOL0     C97884   7.935   3.127   3.220  0.5735  0.0020  0.1754
  726MOL0     C97885   7.812   3.061   3.173 -0.1056  0.0335  0.0515
  726MOL0     C97886   7.809   2.910   3.193 -0.1626 -0.3710 -0.1202
  726MOL0     C97887   7.852   2.863   3.332 -0.0410 -0.1210  0.2437
  726MOL0     C97888   7.803   2.722   3.355 -0.3738  0.6847  0.1126
  726MOL0     C97889   7.647   2.709   3.367  1.0608 -0.1195  0.9735
  726MOL0     C97890   7.601   2.749   3.501  0.0056 -0.7850 -0.3548
  726MOL0     C97891   7.448   2.729   3.519  0.9532 -0.6233 -0.4215
  726MOL0     N97892   7.413   2.692   3.659  0.5712 -0.6606 -0.1567
  726MOL0     C97893   7.425   2.780   3.765  0.1134  0.0524 -0.5239
  726MOL0     C97894   7.441   2.707   3.881 -0.0219  0.4762 -0.3487
  726MOL0     C97895   7.439   2.765   4.020 -0.3179  0.0646  0.2464
  726MOL0     C97896   7.320   2.865   4.045 -0.3168  0.2397 -0.4879
  726MOL0     C97897   7.206   2.770   4.085 -0.6336 -0.8170 -0.7828
  726MOL0     C97898   7.072   2.842   4.093 -1.3573 -0.5651 -0.2583
  726MOL0     O97899   7.097   2.973   4.155 -0.1867  0.2340 -0.5277
  726MOL0     C97900   6.994   3.055   4.197 -0.4431  0.0045 -1.2774
  726MOL0     C97901   7.018   3.178   4.244 -0.7296 -0.1316 -0.2201
  726MOL0     C97902   6.923   3.254   4.319  0.3583 -0.3952 -0.2493
  726MOL0     C97903   6.961   3.390   4.363  0.3087  0.4678  0.3770
  726MOL0     C97904   6.784   3.215   4.333  0.3943  0.5155 -0.8455
  726MOL0     C97905   6.668   3.281   4.399 -0.9838  1.0247  0.4580
  726MOL0     O97906   6.540   3.230   4.379  0.2869  0.8810  0.1117
  726MOL0     C97907   6.444   3.303   4.442 -0.1606 -0.1840 -0.0521
  726MOL0     C97908   6.440   3.293   4.590 -1.4644  0.1185  0.1715
  726MOL0     C97909   6.347   3.364   4.664  0.3402 -0.7594  0.2492
  726MOL0     C97910   6.259   3.446   4.595 -0.0173 -0.5145 -0.3883
  726MOL0     O97911   6.154   3.507   4.655 -0.1499  0.4807  0.3094
  726MOL0     C97912   6.128   3.475   4.796  0.9392  0.0906  0.9547
  726MOL0     C97913   6.002   3.562   4.841 -0.6918  0.7006 -0.4977
  726MOL0     C97914   6.019   3.593   4.988  0.2449 -0.2472 -0.3886
  726MOL0     C97915   5.931   3.703   5.043  0.2775 -0.2569 -0.0223
  726MOL0     C97916   5.943   3.730   5.196 -0.7423  1.1977  0.1717
  726MOL0     C97917   5.826   3.808   5.244  0.2566  0.5240  0.3813
  726MOL0     C97918   5.808   3.809   5.397  0.5960 -0.1853 -0.1881
  726MOL0     C97919   5.691   3.898   5.449 -0.1681 -0.3508 -0.2006
  726MOL0    Cl97920   5.542   3.855   5.356  0.2609  0.1267 -0.3721
  726MOL0     C97921   6.275   3.469   4.454  0.5575 -0.1187 -0.3564
  726MOL0     C97922   6.366   3.398   4.378  0.0271 -0.3925 -0.6764
  726MOL0     O97923   6.696   3.363   4.476  0.1469 -0.2835 -1.5524
  726MOL0     C97924   6.761   3.092   4.267 -0.5745 -0.1632  0.0470
  726MOL0     C97925   6.857   3.015   4.204 -0.0493 -0.4192 -0.0970
  726MOL0     N97926   7.425   2.575   3.839  0.0440  0.4211  0.2699
  726MOL0     N97927   7.420   2.569   3.713 -0.0815  0.0663 -0.0424
  726MOL0     C97928   8.260   3.133   3.062 -0.3350  0.6093 -0.1989
  726MOL0     C97929   8.393   3.149   3.088 -0.2670 -0.2433  0.0655
  726MOL0     C97930   8.729   3.402   3.260  0.7511  0.5605 -0.1046
  726MOL0     C97931   8.841   3.319   3.253 -1.3550  1.0545 -0.0076
  726MOL0     C97932   8.966   3.376   3.230 -0.5355 -0.3123 -0.2503
  726MOL0     C97933   8.986   3.513   3.220  0.0498 -0.3383 -0.0925
  726MOL0     O97934   9.127   3.533   3.193 -0.2492 -0.4897  0.1185
  726MOL0     C97935   9.164   3.667   3.151 -0.4979 -0.2634 -0.6176
  726MOL0     C97936   9.163   3.694   3.004  0.2953  0.5346  0.2117
  726MOL0     C97937   9.285   3.612   2.941 -0.5761 -0.3824 -0.2853
  726MOL0     C97938   9.336   3.669   2.807  0.5823 -0.0736  0.5653
  726MOL0     C97939   9.361   3.813   2.801 -0.5952 -0.4347  0.6383
  726MOL0     C97940   9.399   3.929   2.786  1.3136 -0.0422  0.0841
  726MOL0     C97941   8.874   3.598   3.242  0.0510 -0.4699 -0.3723
  726MOL0     C97942   8.741   3.546   3.265  0.4577  0.2280 -0.7894
  726MOL0     H97943   8.381   3.162   3.428  1.5051 -0.7901 -0.9623
  726MOL0     H97944   8.148   3.152   3.383 -0.9980  5.8209 -1.4701
  726MOL0     H97945   7.937   3.105   3.328 -1.2241  0.6029  0.3576
  726MOL0     H97946   7.925   3.236   3.215  0.3483  0.2778  3.8474
  726MOL0     H97947   7.734   3.104   3.237  0.1769  0.1392  0.3239
  726MOL0     H97948   7.794   3.072   3.066  0.7113 -1.5985 -0.2941
  726MOL0     H97949   7.708   2.878   3.165  0.8995 -2.7972 -1.5742
  726MOL0     H97950   7.870   2.882   3.106  0.5554  0.1686  0.2038
  726MOL0     H97951   7.960   2.852   3.321 -0.3597 -3.7441 -0.5370
  726MOL0     H97952   7.823   2.934   3.410 -2.6879 -0.4425 -0.3676
  726MOL0     H97953   7.849   2.664   3.274  0.6872 -1.1507  1.9430
  726MOL0     H97954   7.854   2.683   3.444  0.0286 -1.8242 -1.1256
  726MOL0     H97955   7.592   2.755   3.284  0.1923 -1.0282  1.0279
  726MOL0     H97956   7.617   2.607   3.344  0.3209  0.6207 -1.6543
  726MOL0     H97957   7.656   2.685   3.570 -0.3626  1.9099  2.6711
  726MOL0     H97958   7.627   2.852   3.526  1.1495 -1.3589  0.9370
  726MOL0     H97959   7.427   2.648   3.449  1.6140  0.5417 -2.0290
  726MOL0     H97960   7.388   2.811   3.480  1.2605  1.0282  2.3094
  726MOL0     H97961   7.419   2.888   3.761  0.8433  0.2333  1.8575
  726MOL0     H97962   7.437   2.683   4.092  1.7235 -0.3108 -0.0831
  726MOL0     H97963   7.533   2.818   4.039 -1.2324  1.4777  1.0151
  726MOL0     H97964   7.302   2.934   3.962  3.8053  1.3552 -0.6827
  726MOL0     H97965   7.348   2.919   4.136 -0.5796  1.2782 -1.0100
  726MOL0     H97966   7.229   2.716   4.177 -1.7798  1.1894  0.7478
  726MOL0     H97967   7.198   2.698   4.003 -0.2209  0.1598 -1.7055
  726MOL0     H97968   7.005   2.780   4.152 -2.4938  1.0952  0.2842
  726MOL0     H97969   7.031   2.860   3.993 -0.8775  0.9310 -0.2242
  726MOL0     H97970   7.120   3.211   4.230 -0.9568  0.4373 -0.5765
  726MOL0     H97971   6.935   3.417   4.466 -0.5891 -0.8866  0.5340
  726MOL0     H97972   7.068   3.404   4.349  0.9108 -3.3914 -0.0296
  726MOL0     H97973   6.905   3.468   4.310  0.6051  0.4102 -0.0220
  726MOL0     H97974   6.505   3.216   4.630 -2.6983 -0.8396  0.4088
  726MOL0     H97975   6.340   3.363   4.772  0.7953  2.4827  0.4148
  726MOL0     H97976   6.113   3.368   4.814 -2.0122  0.4593  1.2056
  726MOL0     H97977   6.210   3.512   4.859  0.0573  4.8769 -0.3519
  726MOL0     H97978   6.000   3.646   4.771  1.5872 -0.3375 -1.9546
  726MOL0     H97979   5.910   3.508   4.817 -0.3679  1.3268 -3.6201
  726MOL0     H97980   6.122   3.630   4.999 -0.0050  0.2770  0.3058
  726MOL0     H97981   6.000   3.503   5.049  0.0236 -0.5879 -0.9532
  726MOL0     H97982   5.945   3.796   4.986 -0.1911 -0.4832 -0.5227
  726MOL0     H97983   5.827   3.672   5.030  0.7853 -2.1916  0.2966
  726MOL0     H97984   6.037   3.784   5.213  2.1132 -3.1428 -0.3284
  726MOL0     H97985   5.933   3.636   5.250 -1.8040 -0.1152 -2.1802
  726MOL0     H97986   5.835   3.910   5.207 -2.7124  0.0966 -1.9394
  726MOL0     H97987   5.728   3.778   5.206  0.4431 -0.7068  0.7954
  726MOL0     H97988   5.898   3.849   5.444  2.1404 -1.8505 -1.6076
  726MOL0     H97989   5.787   3.707   5.430  0.7891  0.2674  1.4536
  726MOL0     H97990   5.714   4.005   5.438  1.3592 -0.6901 -0.4771
  726MOL0     H97991   5.664   3.878   5.553  2.3369  1.0972  0.8209
  726MOL0     H97992   6.197   3.516   4.395 -0.8478 -1.1402  0.6268
  726MOL0     H97993   6.365   3.398   4.270 -1.1888 -2.1416 -0.7210
  726MOL0     H97994   6.665   3.042   4.257 -0.4622 -0.2258 -0.8090
  726MOL0     H97995   6.828   2.922   4.157  0.4525 -0.7430  0.2350
  726MOL0     H97996   8.238   3.122   2.956 -1.4851  1.3397 -0.0537
  726MOL0     H97997   8.462   3.156   3.004 -0.2939 -4.2184 -0.5080
  726MOL0     H97998   8.835   3.211   3.254  3.0321  0.6040  1.8831
  726MOL0     H97999   9.053   3.312   3.224  0.1042 -0.0347  3.6085
  726MOL0     H98000   9.098   3.738   3.202 -0.8153 -1.0807  0.1330
  726MOL0     H98001   9.263   3.689   3.191 -1.5480  0.6638  1.6607
  726MOL0     H98002   9.161   3.796   2.965  2.4525 -0.0725 -1.6707
  726MOL0     H98003   9.072   3.654   2.959  0.5991 -2.2802  1.8547
  726MOL0     H98004   9.268   3.504   2.934 -1.9072 -0.3249  1.4410
  726MOL0     H98005   9.370   3.619   3.010  2.1054 -1.8882 -3.1717
  726MOL0     H98006   9.242   3.659   2.751 -1.5634 -0.0130  3.8774
  726MOL0     H98007   9.418   3.609   2.767 -0.3138 -1.2128  0.3897
  726MOL0     H98008   9.413   4.033   2.767  1.2676 -0.2562 -1.2306
  726MOL0     H98009   8.890   3.705   3.244 -1.8640 -0.1667  0.8110
  726MOL0     H98010   8.653   3.609   3.274  0.8026  0.6846 -0.5973
  727MOL0     O98011   5.804   3.374   7.966 -0.7027  0.0261  0.4502
  727MOL0     C98012   5.857   3.279   7.901  0.4033 -0.2744  0.1300
  727MOL0     O98013   5.791   3.216   7.794 -1.0118 -0.0198  0.3700
  727MOL0     C98014   5.671   3.264   7.761 -0.0407 -0.5282 -0.1815
  727MOL0     C98015   5.653   3.376   7.683 -0.4550  0.2631 -0.4039
  727MOL0     C98016   5.525   3.406   7.636 -0.6813  0.5772 -0.0315
  727MOL0     C98017   5.409   3.339   7.682  0.1403  0.2635 -0.2849
  727MOL0     O98018   5.293   3.403   7.660  0.3330 -0.7778 -0.4128
  727MOL0     C98019   5.222   3.335   7.552  0.2340 -0.6321 -0.0981
  727MOL0     C98020   5.143   3.422   7.456  0.0467 -0.0856  0.0787
  727MOL0     C98021   5.129   3.364   7.314  0.0146  0.2049 -1.9243
  727MOL0     C98022   5.020   3.437   7.242  0.2905 -0.2958 -0.7102
  727MOL0     C98023   5.029   3.402   7.097 -0.9941 -0.1048 -0.0244
  727MOL0     C98024   4.928   3.474   7.012  0.2992  0.6072 -0.4372
  727MOL0     C98025   4.961   3.485   6.865  0.5179 -0.0621 -0.2406
  727MOL0     C98026   4.846   3.553   6.788 -0.0045 -0.1198 -0.0156
  727MOL0     N98027   4.740   3.461   6.756 -0.7269  0.2123  0.2056
  727MOL0     C98028   4.640   3.408   6.843  0.7258  0.4588  0.6267
  727MOL0     C98029   4.592   3.308   6.767  0.2495  0.0789 -0.2027
  727MOL0     C98030   4.491   3.220   6.820  0.0512  0.0119 -0.0824
  727MOL0     C98031   4.404   3.171   6.705  0.2873  0.1357  0.3147
  727MOL0     C98032   4.265   3.117   6.759  0.4582  0.1108  0.5387
  727MOL0     C98033   4.165   3.088   6.645  0.1370 -0.3599  1.0677
  727MOL0     O98034   4.052   3.025   6.710 -0.3193  0.2964  0.4831
  727MOL0     C98035   3.964   2.951   6.632 -0.5222 -0.4741  0.3597
  727MOL0     C98036   3.922   3.002   6.509 -0.4426  0.7403 -0.6266
  727MOL0     C98037   3.840   2.916   6.422 -0.1483  0.8657 -0.9437
  727MOL0     C98038   3.784   2.994   6.297  0.0273 -0.2730 -0.3062
  727MOL0     C98039   3.805   2.782   6.476 -0.0062 -0.5078  0.8979
  727MOL0     C98040   3.713   2.687   6.413  0.3753  0.2913 -0.4326
  727MOL0     O98041   3.716   2.556   6.456  0.5303 -0.3188  0.1410
  727MOL0     C98042   3.598   2.482   6.449  0.0558  0.2912  0.2581
  727MOL0     C98043   3.556   2.410   6.566  0.6895 -1.2058  0.1126
  727MOL0     C98044   3.432   2.345   6.565 -1.0611  0.6435  0.5288
  727MOL0     C98045   3.357   2.336   6.449  0.1493 -1.1422  0.5041
  727MOL0     O98046   3.248   2.263   6.456 -0.3153  0.3404  0.4960
  727MOL0     C98047   3.127   2.340   6.480 -0.7053  0.3630  0.2343
  727MOL0     C98048   3.036   2.248   6.553 -0.2238  0.1861 -1.2410
  727MOL0     C98049   3.073   2.230   6.705 -0.9395  0.6159  0.1805
  727MOL0     C98050   3.057   2.362   6.776 -0.7266 -0.5674 -0.8258
  727MOL0     C98051   3.038   2.344   6.933 -0.2580 -0.8114 -0.0604
  727MOL0     C98052   2.902   2.394   6.979  0.5505  0.4741  0.6979
  727MOL0     C98053   2.879   2.346   7.130 -0.0337 -0.0914 -0.6435
  727MOL0     C98054   2.733   2.325   7.171  0.5106  0.4921  1.2249
  727MOL0    Cl98055   2.619   2.472   7.160  0.2675  0.2647  0.3460
  727MOL0     C98056   3.399   2.409   6.339 -0.2728 -0.2122 -0.4264
  727MOL0     C98057   3.521   2.482   6.332 -0.0859  0.1347 -0.3901
  727MOL0     O98058   3.623   2.736   6.348  0.1061  0.1369  0.4392
  727MOL0     C98059   3.841   2.745   6.614  0.1311  0.2157 -0.2291
  727MOL0     C98060   3.925   2.832   6.683  0.9772  0.3824 -1.0595
  727MOL0     N98061   4.647   3.308   6.635  0.0420  0.1946  0.0135
  727MOL0     N98062   4.734   3.405   6.634  0.2236  0.0767 -0.0625
  727MOL0     C98063   5.424   3.239   7.780 -0.5899  0.0208 -0.2901
  727MOL0     C98064   5.553   3.201   7.819 -0.1092 -1.2640 -0.3056
  727MOL0     C98065   5.998   3.256   7.933 -0.1521  0.3374 -0.2492
  727MOL0     C98066   6.067   3.146   7.871 -0.3927 -0.2599 -0.5937
  727MOL0     C98067   6.213   3.131   7.903  2.0077  1.0386  0.7199
  727MOL0     C98068   6.278   3.209   7.998  0.1110  0.6175  0.6127
  727MOL0     O98069   6.413   3.199   8.032 -0.1387 -0.9497  0.1947
  727MOL0     C98070   6.501   3.134   7.939 -1.1214  0.1126  0.1347
  727MOL0     C98071   6.509   2.970   7.957 -1.0749 -0.0157 -0.1368
  727MOL0     C98072   6.593   2.928   8.083  0.8328 -0.1025 -0.4134
  727MOL0     C98073   6.732   2.870   8.039 -0.2058 -0.3030  0.1766
  727MOL0     C98074   6.809   2.857   8.164 -0.3405  0.6039 -0.4781
  727MOL0     C98075   6.870   2.839   8.268 -0.5068  0.4332  0.2136
  727MOL0     C98076   6.201   3.305   8.071  0.0883  0.6157  0.1013
  727MOL0     C98077   6.064   3.328   8.040  0.0669 -0.4985  0.0910
  727MOL0     H98078   5.741   3.431   7.653 -1.3847  0.8170 -2.2921
  727MOL0     H98079   5.505   3.489   7.569 -1.1033 -1.1436 -2.1580
  727MOL0     H98080   5.290   3.271   7.496  0.6496 -1.5982  1.4524
  727MOL0     H98081   5.150   3.265   7.596 -0.9991  1.1983  0.8948
  727MOL0     H98082   5.043   3.447   7.493 -0.1366 -0.3987 -0.1949
  727MOL0     H98083   5.201   3.514   7.450  3.6414 -2.2762 -2.6021
  727MOL0     H98084   5.228   3.375   7.269  1.4124  0.5234  0.9687
  727MOL0     H98085   5.103   3.260   7.334 -1.7429  0.9580  0.1828
  727MOL0     H98086   4.922   3.402   7.276  0.3715 -1.1248 -1.2982
  727MOL0     H98087   5.027   3.544   7.259  1.3533 -0.6366  1.2064
  727MOL0     H98088   5.128   3.437   7.068 -2.1223  1.5302 -2.2658
  727MOL0     H98089   5.038   3.293   7.091  1.9593  0.0141  1.0502
  727MOL0     H98090   4.831   3.424   7.022 -0.8306  2.1788 -2.6686
  727MOL0     H98091   4.932   3.576   7.052  4.0416  0.8766 -1.1732
  727MOL0     H98092   5.048   3.549   6.846  3.3179 -3.0219  1.5965
  727MOL0     H98093   4.987   3.388   6.824 -0.0732 -0.0532 -0.6369
  727MOL0     H98094   4.888   3.589   6.693 -2.6953  0.6316 -1.0159
  727MOL0     H98095   4.803   3.634   6.848  0.0366  0.8145 -1.2131
  727MOL0     H98096   4.618   3.433   6.947  0.5838  1.4955  0.3613
  727MOL0     H98097   4.538   3.145   6.884  0.5503  0.5574  0.1928
  727MOL0     H98098   4.421   3.282   6.876  1.4278  1.6049 -0.0785
  727MOL0     H98099   4.448   3.094   6.642  3.5438  1.3619  0.8662
  727MOL0     H98100   4.385   3.256   6.639  0.3044  0.5986  0.8883
  727MOL0     H98101   4.226   3.172   6.846 -0.3070 -1.3724  1.1697
  727MOL0     H98102   4.294   3.021   6.802 -0.2288 -0.0198  0.7247
  727MOL0     H98103   4.203   3.025   6.565  0.0328  0.5765  0.2698
  727MOL0     H98104   4.137   3.183   6.600 -3.3652 -1.0758  1.4265
  727MOL0     H98105   3.934   3.106   6.480 -1.0791  0.4183 -2.1339
  727MOL0     H98106   3.786   3.101   6.320 -0.7999  0.4065 -3.0237
  727MOL0     H98107   3.850   2.975   6.211  1.8892 -2.2812  1.4270
  727MOL0     H98108   3.683   2.962   6.268 -0.4330  1.8393 -1.2000
  727MOL0     H98109   3.605   2.412   6.664 -0.3749  0.6989  0.6629
  727MOL0     H98110   3.391   2.297   6.653  0.0744 -1.5950 -0.1060
  727MOL0     H98111   3.135   2.431   6.541 -5.7536  1.3277 -0.0593
  727MOL0     H98112   3.092   2.381   6.385  3.8525  1.9455 -1.0393
  727MOL0     H98113   2.937   2.294   6.557 -0.5560 -0.5917  0.7760
  727MOL0     H98114   3.027   2.153   6.499 -0.0424  0.5525 -1.9259
  727MOL0     H98115   3.168   2.180   6.721 -0.4395  1.2124 -0.8367
  727MOL0     H98116   3.005   2.155   6.746 -0.0384 -0.0634  0.4518
  727MOL0     H98117   3.155   2.409   6.769 -2.1475  2.4805 -1.8181
  727MOL0     H98118   2.976   2.421   6.732 -2.5539 -0.6584  2.1304
  727MOL0     H98119   3.121   2.399   6.980  0.3202  0.4953 -2.4666
  727MOL0     H98120   3.049   2.240   6.964  0.5486 -0.4549  0.9142
  727MOL0     H98121   2.889   2.502   6.976  0.6514  0.5439  2.1884
  727MOL0     H98122   2.825   2.340   6.923 -0.4707  0.1339  2.3690
  727MOL0     H98123   2.923   2.425   7.192 -1.0450  1.3785 -1.7326
  727MOL0     H98124   2.924   2.247   7.142  0.6562  0.5237  3.0808
  727MOL0     H98125   2.738   2.301   7.278 -0.8353  0.8604  1.3889
  727MOL0     H98126   2.685   2.239   7.123  0.2867  2.3497 -2.1498
  727MOL0     H98127   3.331   2.424   6.256 -2.9197  1.8914  1.9368
  727MOL0     H98128   3.555   2.535   6.244 -0.7944  0.9054 -0.2154
  727MOL0     H98129   3.801   2.654   6.658 -4.1529  1.4772 -1.0584
  727MOL0     H98130   3.952   2.796   6.782  0.0682  1.5412 -0.3497
  727MOL0     H98131   5.341   3.197   7.835 -0.1699 -1.7749 -0.9740
  727MOL0     H98132   5.564   3.126   7.897  0.6549 -0.8781 -0.0248
  727MOL0     H98133   6.024   3.089   7.789  1.8201 -1.5386 -0.9404
  727MOL0     H98134   6.266   3.049   7.855  0.2953  1.5470 -2.2495
  727MOL0     H98135   6.458   3.143   7.838 -0.9799  2.0372  0.2152
  727MOL0     H98136   6.602   3.176   7.935 -0.9065 -0.1021  2.1897
  727MOL0     H98137   6.550   2.920   7.868 -0.8573  2.6988 -1.6749
  727MOL0     H98138   6.406   2.934   7.973 -1.0109  0.3085  1.1325
  727MOL0     H98139   6.533   2.854   8.136  1.2651  1.6332  2.7558
  727MOL0     H98140   6.593   3.008   8.158 -1.0485 -0.1956 -0.2680
  727MOL0     H98141   6.778   2.931   7.961  1.3182 -0.6767  0.7372
  727MOL0     H98142   6.718   2.767   8.004 -0.5934 -1.8896  4.3286
  727MOL0     H98143   6.928   2.816   8.355 -1.3112 -1.0352  0.4025
  727MOL0     H98144   6.253   3.364   8.146 -0.0414 -0.9209  1.4680
  727MOL0     H98145   6.019   3.418   8.082  1.6324 -0.0033  0.7957
  728MOL0     O98146  10.740   2.214   9.355 -0.1012 -0.8613 -0.4735
  728MOL0     C98147  10.756   2.335   9.331 -0.5191  1.0156 -0.1661
  728MOL0     O98148  10.655   2.426   9.339  0.0843  0.2047 -0.7855
  728MOL0     C98149  10.524   2.376   9.337 -0.1863  0.0120 -0.4367
  728MOL0     C98150  10.440   2.416   9.439 -0.2141  0.1124 -0.2403
  728MOL0     C98151  10.308   2.385   9.419  0.1943 -0.8553 -0.7775
  728MOL0     C98152  10.253   2.332   9.304  0.5448 -0.3924  0.1492
  728MOL0     O98153  10.114   2.336   9.295 -0.5617  0.2408  0.3722
  728MOL0     C98154  10.051   2.221   9.239 -0.1590 -0.0877 -0.4342
  728MOL0     C98155   9.925   2.266   9.158 -0.4996  0.7952  0.2909
  728MOL0     C98156   9.967   2.337   9.031  0.4697  0.8185 -0.4669
  728MOL0     C98157   9.837   2.346   8.946 -0.6667 -0.4105  0.2236
  728MOL0     C98158   9.846   2.443   8.823 -0.5136  1.1181 -0.2860
  728MOL0     C98159   9.961   2.404   8.721 -0.5798 -0.8679 -0.0132
  728MOL0     C98160   9.987   2.504   8.611 -0.8560  0.0588  0.6701
  728MOL0     C98161  10.068   2.459   8.493  0.7662 -0.9122  0.0528
  728MOL0     N98162  10.207   2.423   8.538  1.2541 -0.0131 -0.1307
  728MOL0     C98163  10.290   2.343   8.470 -0.2340  0.2238  0.2609
  728MOL0     C98164  10.414   2.361   8.520  1.2128  0.5078  0.2113
  728MOL0     C98165  10.550   2.310   8.471 -0.2743 -0.1626  0.1660
  728MOL0     C98166  10.668   2.406   8.489  0.2575  1.3243  0.0582
  728MOL0     C98167  10.797   2.346   8.425 -0.1677  0.0864 -0.3401
  728MOL0     C98168  10.920   2.436   8.419 -0.6341 -1.1200  0.0653
  728MOL0     O98169  11.040   2.378   8.358  0.4110 -0.4239 -0.0376
  728MOL0     C98170  11.157   2.446   8.379 -0.1145  0.1896 -0.7097
  728MOL0     C98171  11.275   2.385   8.342  0.3358 -0.4443 -0.8768
  728MOL0     C98172  11.400   2.449   8.355  0.4594  0.0422 -0.2911
  728MOL0     C98173  11.527   2.360   8.331 -0.8765  0.4652  0.6169
  728MOL0     C98174  11.403   2.589   8.392 -0.0129  0.6885  0.0253
  728MOL0     C98175  11.538   2.660   8.410  0.5684  0.6739  0.1383
  728MOL0     O98176  11.639   2.632   8.323 -0.1227 -0.2235  0.3333
  728MOL0     C98177  11.745   2.721   8.317  0.4008 -0.7724 -0.5274
  728MOL0     C98178  11.852   2.710   8.400 -0.1257  0.9037  0.0739
  728MOL0     C98179  11.961   2.802   8.397 -0.6635  0.2947  0.5192
  728MOL0     C98180  11.966   2.894   8.297 -0.2339  0.2792 -0.0571
  728MOL0     O98181  12.063   2.989   8.302 -0.4472  0.2141 -0.1078
  728MOL0     C98182  12.056   3.103   8.219 -0.3193 -0.0404  0.1262
  728MOL0     C98183  12.180   3.185   8.258  0.2288  0.3593 -1.1991
  728MOL0     C98184  12.206   3.317   8.180 -0.0200  0.2486  0.1652
  728MOL0     C98185  12.113   3.429   8.226  0.4037  0.1726  0.2708
  728MOL0     C98186  12.166   3.494   8.353 -0.1697  0.5714  0.6769
  728MOL0     C98187  12.061   3.588   8.414 -0.4146  0.0339 -0.0411
  728MOL0     C98188  12.130   3.681   8.519 -0.6776  0.4050 -0.8211
  728MOL0     C98189  12.011   3.762   8.580  0.4145  0.6937 -0.8898
  728MOL0    Cl98190  12.051   3.905   8.696  0.1539 -0.5838  0.0996
  728MOL0     C98191  11.859   2.901   8.207 -0.3719 -0.4225 -1.8987
  728MOL0     C98192  11.750   2.816   8.212 -0.6917  0.4013 -0.5315
  728MOL0     O98193  11.543   2.725   8.516 -0.4413 -0.1643  0.7936
  728MOL0     C98194  11.284   2.654   8.417 -0.2073  0.1675 -0.5190
  728MOL0     C98195  11.162   2.584   8.412 -0.2027  0.5271 -0.7894
  728MOL0     N98196  10.406   2.445   8.628 -0.2550 -0.1191 -0.3879
  728MOL0     N98197  10.280   2.479   8.637 -1.1206 -0.0339 -0.1701
  728MOL0     C98198  10.343   2.283   9.206 -0.4794 -1.2549 -0.4371
  728MOL0     C98199  10.480   2.304   9.224  0.6869 -0.3709 -0.4077
  728MOL0     C98200  10.888   2.390   9.291  0.9444  1.0192 -0.5456
  728MOL0     C98201  10.890   2.505   9.215  0.0152 -0.0039 -0.2467
  728MOL0     C98202  11.007   2.577   9.191 -0.5266  1.0508 -0.0061
  728MOL0     C98203  11.131   2.516   9.222  0.0228 -0.2569  0.0018
  728MOL0     O98204  11.244   2.596   9.195 -0.1658 -0.2456  0.2169
  728MOL0     C98205  11.344   2.525   9.126  0.1390 -0.0797  0.6386
  728MOL0     C98206  11.419   2.610   9.022  1.5543  0.0137  0.2151
  728MOL0     C98207  11.497   2.729   9.093 -0.0245  0.2028 -0.1807
  728MOL0     C98208  11.593   2.803   8.992  0.0262  0.1325 -0.5126
  728MOL0     C98209  11.685   2.897   9.052 -0.5563 -1.3238 -0.4100
  728MOL0     C98210  11.767   2.960   9.125 -0.3384  0.1083 -0.2593
  728MOL0     C98211  11.126   2.389   9.285 -0.1808 -0.0564 -0.0732
  728MOL0     C98212  11.008   2.331   9.332  0.6752 -0.2914  0.6679
  728MOL0     H98213  10.471   2.474   9.525 -1.3959 -0.4529  0.5970
  728MOL0     H98214  10.230   2.411   9.490 -1.7477 -3.3849 -1.8310
  728MOL0     H98215  10.122   2.159   9.183  0.4837 -0.2780  0.5626
  728MOL0     H98216  10.015   2.154   9.318  1.4175  0.0868  0.4735
  728MOL0     H98217   9.872   2.173   9.135  0.6956  0.3106 -0.5787
  728MOL0     H98218   9.858   2.333   9.212 -1.0735 -0.4730  1.2072
  728MOL0     H98219   9.989   2.441   9.057 -1.2958  1.3059 -0.7725
  728MOL0     H98220  10.049   2.287   8.979 -0.1247  0.1491 -0.7712
  728MOL0     H98221   9.812   2.245   8.913 -1.1770  0.2832 -1.6248
  728MOL0     H98222   9.756   2.376   9.013 -1.1938  0.2008 -0.6554
  728MOL0     H98223   9.748   2.453   8.775  0.1524 -0.4056 -2.0572
  728MOL0     H98224   9.876   2.535   8.874 -1.6604  0.4083  1.7863
  728MOL0     H98225  10.057   2.387   8.771 -0.8709  1.2501  1.3529
  728MOL0     H98226   9.933   2.313   8.666 -3.6566 -0.2107  0.3230
  728MOL0     H98227   9.886   2.534   8.580 -1.1540 -0.0418  1.5106
  728MOL0     H98228  10.042   2.592   8.645  1.7491  1.0444 -5.0394
  728MOL0     H98229  10.088   2.546   8.430  2.6600 -0.3947  1.2856
  728MOL0     H98230  10.031   2.380   8.427 -1.6786  0.3997 -0.2721
  728MOL0     H98231  10.254   2.293   8.380 -0.6109  1.7782 -0.4916
  728MOL0     H98232  10.572   2.209   8.508  1.8059  1.5319  4.1609
  728MOL0     H98233  10.527   2.298   8.364 -3.3964  4.8089 -0.0344
  728MOL0     H98234  10.690   2.426   8.595  3.2406 -0.2162 -0.1564
  728MOL0     H98235  10.650   2.507   8.449  1.8236  3.0145  3.1853
  728MOL0     H98236  10.765   2.334   8.320 -0.1752 -0.0926 -0.3185
  728MOL0     H98237  10.820   2.247   8.466 -0.4352 -0.8826 -2.3880
  728MOL0     H98238  10.947   2.464   8.521  4.3879 -3.7705 -0.2430
  728MOL0     H98239  10.906   2.524   8.354  2.3127  0.2131  1.0669
  728MOL0     H98240  11.287   2.280   8.316  0.0788  0.1571 -3.8279
  728MOL0     H98241  11.567   2.369   8.230  2.3505 -4.0964  1.1792
  728MOL0     H98242  11.616   2.379   8.392  1.6823 -2.2874 -1.9605
  728MOL0     H98243  11.491   2.258   8.347  0.3734  0.0310  0.7505
  728MOL0     H98244  11.857   2.637   8.481  1.9432  0.8864 -0.0125
  728MOL0     H98245  12.031   2.805   8.480 -0.7112  2.8600  0.5642
  728MOL0     H98246  12.052   3.083   8.112  0.9204 -0.5696  0.1670
  728MOL0     H98247  11.956   3.146   8.233 -0.7828 -1.0314 -0.0361
  728MOL0     H98248  12.190   3.193   8.367  3.8981  1.2529 -1.4871
  728MOL0     H98249  12.275   3.133   8.245 -0.0972 -0.4273 -0.5977
  728MOL0     H98250  12.186   3.289   8.076  0.7136  0.1817  0.0338
  728MOL0     H98251  12.311   3.348   8.173 -0.4611  1.5760 -1.3569
  728MOL0     H98252  12.109   3.506   8.148  2.2414 -0.1498 -0.1795
  728MOL0     H98253  12.012   3.388   8.233  0.7371 -0.8345 -0.7085
  728MOL0     H98254  12.264   3.538   8.332  0.0688 -0.3928 -0.3185
  728MOL0     H98255  12.191   3.414   8.424 -0.3360 -0.0748  0.0230
  728MOL0     H98256  12.032   3.648   8.327  3.0687 -1.8785 -2.7996
  728MOL0     H98257  11.986   3.524   8.462  0.1072 -2.5013 -2.3983
  728MOL0     H98258  12.196   3.751   8.468 -0.0424  1.4571  1.3053
  728MOL0     H98259  12.190   3.623   8.591  0.5095  0.7149 -1.5294
  728MOL0     H98260  11.948   3.701   8.646  0.2055  3.3790  1.5933
  728MOL0     H98261  11.950   3.797   8.495  0.0848  0.7065 -0.6516
  728MOL0     H98262  11.849   2.985   8.138 -0.8681  1.0973 -0.0510
  728MOL0     H98263  11.665   2.826   8.145 -1.6697  1.7748  0.8328
  728MOL0     H98264  11.291   2.762   8.428  1.7643  0.3236 -2.5392
  728MOL0     H98265  11.074   2.645   8.430 -0.8762 -0.8900  1.0779
  728MOL0     H98266  10.298   2.239   9.118 -3.1844  0.6646 -0.1499
  728MOL0     H98267  10.552   2.279   9.147  0.3847 -0.7378 -0.5703
  728MOL0     H98268  10.803   2.553   9.173 -0.9551 -3.5989 -2.8914
  728MOL0     H98269  11.011   2.673   9.141  1.0640 -0.0831 -2.2845
  728MOL0     H98270  11.415   2.489   9.202 -0.5757  4.1956  3.6791
  728MOL0     H98271  11.300   2.446   9.064  1.0894  1.6949 -2.5059
  728MOL0     H98272  11.346   2.648   8.950 -0.7253 -0.0944  2.3442
  728MOL0     H98273  11.496   2.544   8.981  0.3756 -1.0407 -0.3669
  728MOL0     H98274  11.552   2.705   9.185 -0.0136 -1.7431 -0.6470
  728MOL0     H98275  11.420   2.800   9.124  2.3138  1.7444  2.6273
  728MOL0     H98276  11.525   2.864   8.931 -1.6186 -0.5002  0.6185
  728MOL0     H98277  11.645   2.727   8.933 -0.3863 -0.7746  0.2578
  728MOL0     H98278  11.841   3.015   9.180  0.7639 -1.8459  0.3228
  728MOL0     H98279  11.220   2.338   9.300 -0.2172 -0.5114 -1.2774
  728MOL0     H98280  10.994   2.242   9.392 -0.5548 -0.1749  0.5812
  729MOL0     O98281   3.185   1.406  10.462 -0.4435  0.1973 -0.8373
  729MOL0     C98282   3.143   1.306  10.528 -0.0146 -0.9311  0.2014
  729MOL0     O98283   3.222   1.200  10.560  1.1411 -0.0810  0.2469
  729MOL0     C98284   3.353   1.195  10.526  0.4429 -0.2037 -0.3684
  729MOL0     C98285   3.399   1.216  10.394 -0.0548  0.2462  0.6895
  729MOL0     C98286   3.538   1.209  10.374 -0.8397 -1.1720 -0.4002
  729MOL0     C98287   3.627   1.178  10.480 -0.0868 -0.0803 -0.3805
  729MOL0     O98288   3.759   1.150  10.457  0.4332 -0.3890 -0.6816
  729MOL0     C98289   3.837   1.239  10.386 -0.1828 -0.0542  0.1635
  729MOL0     C98290   3.966   1.246  10.454 -0.0890  0.3606 -0.1868
  729MOL0     C98291   4.044   1.112  10.475 -0.2807 -0.3718 -0.0679
  729MOL0     C98292   4.106   1.043  10.353 -0.1073  0.2881  0.1400
  729MOL0     C98293   4.180   0.916  10.395  0.7903 -0.2318 -0.0172
  729MOL0     C98294   4.198   0.824  10.271 -0.3363  0.8110  0.4810
  729MOL0     C98295   4.248   0.680  10.305  0.4091 -0.1712  0.1240
  729MOL0     C98296   4.148   0.576  10.290 -0.1954  0.7082 -0.0909
  729MOL0     N98297   4.030   0.604  10.375  0.5256 -0.5681 -0.1593
  729MOL0     C98298   3.919   0.677  10.353 -0.9424 -0.9670  0.7824
  729MOL0     C98299   3.859   0.688  10.471 -0.3608 -0.3719 -0.5983
  729MOL0     C98300   3.749   0.785  10.500 -0.6018 -0.2763 -0.0188
  729MOL0     C98301   3.604   0.723  10.480  0.4029 -0.0192  0.3858
  729MOL0     C98302   3.497   0.813  10.540 -0.2726  0.8221 -0.6670
  729MOL0     C98303   3.369   0.737  10.557 -0.3442 -0.3048  0.5931
  729MOL0     O98304   3.295   0.780  10.671 -0.0034 -0.0925  0.0673
  729MOL0     C98305   3.160   0.808  10.651 -0.1436  0.9107  1.2079
  729MOL0     C98306   3.114   0.886  10.542  0.0378 -0.1308  0.0841
  729MOL0     C98307   2.976   0.900  10.518  0.5357 -0.5482  0.5256
  729MOL0     C98308   2.949   0.982  10.394 -0.2078  0.4309 -0.2653
  729MOL0     C98309   2.875   0.831  10.597  0.4587 -0.3507  0.0015
  729MOL0     C98310   2.731   0.824  10.565  0.6363 -0.5505 -0.2351
  729MOL0     O98311   2.652   0.771  10.666  0.3634  1.2201 -0.2331
  729MOL0     C98312   2.522   0.742  10.648 -0.3763  0.0582 -1.0214
  729MOL0     C98313   2.490   0.600  10.667 -0.4408  0.3076  0.6030
  729MOL0     C98314   2.352   0.553  10.676  0.4164  0.1371 -0.6101
  729MOL0     C98315   2.245   0.641  10.642  0.6098  0.9327  0.2192
  729MOL0     O98316   2.121   0.586  10.652  0.1469  0.4739 -0.2480
  729MOL0     C98317   2.018   0.626  10.559 -0.3613 -0.0281 -0.1506
  729MOL0     C98318   1.879   0.563  10.584 -0.0672  0.2028 -0.7627
  729MOL0     C98319   1.912   0.408  10.612 -0.2858 -0.8992 -0.4763
  729MOL0     C98320   1.782   0.338  10.652 -0.2407 -0.5131 -0.5005
  729MOL0     C98321   1.805   0.187  10.686  0.3502  0.1060 -0.3383
  729MOL0     C98322   1.691   0.131  10.783 -0.9382  0.3734  0.9028
  729MOL0     C98323   1.563   0.106  10.700 -0.6064 -0.4710 -0.1262
  729MOL0     C98324   1.451   0.102  10.790  1.0869  0.2364 -1.0267
  729MOL0    Cl98325   1.494   0.028  10.949  0.2005  0.0607  0.0007
  729MOL0     C98326   2.277   0.781  10.610 -0.5884  0.7823  0.0564
  729MOL0     C98327   2.421   0.826  10.607  0.6722 -0.1377  0.3854
  729MOL0     O98328   2.695   0.862  10.459  0.5130 -0.5880 -0.7321
  729MOL0     C98329   2.920   0.781  10.718 -0.1532 -0.2042 -0.8876
  729MOL0     C98330   3.059   0.769  10.739 -0.0902  0.5290  0.0588
  729MOL0     N98331   3.915   0.601  10.564 -1.0085 -0.0631  0.2847
  729MOL0     N98332   4.019   0.552  10.502  0.2666 -0.4168 -0.1300
  729MOL0     C98333   3.577   1.161  10.609 -0.3705  0.1869  1.0027
  729MOL0     C98334   3.446   1.164  10.628  0.4092  0.2204 -0.0288
  729MOL0     C98335   2.998   1.289  10.547 -0.9538 -0.1848 -0.0026
  729MOL0     C98336   2.901   1.351  10.469 -0.1798  0.7456  0.2171
  729MOL0     C98337   2.767   1.328  10.483 -0.2079 -0.0484  0.5066
  729MOL0     C98338   2.712   1.258  10.590  0.2894 -0.2487  0.1509
  729MOL0     O98339   2.582   1.262  10.634 -0.1763 -0.2734  0.6138
  729MOL0     C98340   2.471   1.297  10.534  0.0336  0.0478  0.1765
  729MOL0     C98341   2.345   1.259  10.601  0.5323 -0.0439 -0.8763
  729MOL0     C98342   2.308   1.340  10.723 -1.0376  0.1160 -0.6028
  729MOL0     C98343   2.175   1.287  10.773  0.0680  0.2383 -0.2179
  729MOL0     C98344   2.061   1.295  10.690 -0.1837  0.0439  0.8055
  729MOL0     C98345   1.970   1.298  10.608 -0.1025 -0.0996 -0.4646
  729MOL0     C98346   2.797   1.184  10.674 -1.0130  0.3690  0.1834
  729MOL0     C98347   2.941   1.196  10.647 -0.1489  0.5984 -0.0555
  729MOL0     H98348   3.336   1.235  10.308 -0.0818  2.9884  1.2305
  729MOL0     H98349   3.590   1.213  10.278 -0.6868  0.2445 -0.2926
  729MOL0     H98350   3.843   1.200  10.284  0.0298 -1.8477  0.8393
  729MOL0     H98351   3.793   1.339  10.386  0.2506  0.1412  0.3757
  729MOL0     H98352   4.038   1.321  10.420  0.1052 -0.2496 -1.1957
  729MOL0     H98353   3.944   1.283  10.554  3.6714  2.6012  0.0123
  729MOL0     H98354   4.114   1.118  10.558 -0.8713  0.3522  0.3832
  729MOL0     H98355   3.968   1.046  10.518 -2.7562  2.9460  1.0842
  729MOL0     H98356   4.026   1.006  10.288  0.3398 -0.8366  0.2124
  729MOL0     H98357   4.161   1.109  10.286 -2.0163  1.9680  0.1272
  729MOL0     H98358   4.278   0.947  10.434 -0.3095 -1.0362  3.8043
  729MOL0     H98359   4.136   0.868  10.482  1.6253 -0.3181  0.3634
  729MOL0     H98360   4.106   0.816  10.213 -0.4758  0.7825  0.7056
  729MOL0     H98361   4.284   0.861  10.214  1.3451  0.1068  2.4294
  729MOL0     H98362   4.338   0.650  10.251 -0.4600 -2.2338 -0.2705
  729MOL0     H98363   4.279   0.679  10.410  1.5939  1.4859 -0.1709
  729MOL0     H98364   4.199   0.484  10.319 -0.5527 -0.0277 -1.6945
  729MOL0     H98365   4.104   0.561  10.191  0.5922 -1.0249 -0.2026
  729MOL0     H98366   3.890   0.730  10.263 -0.7081  0.2658  1.4181
  729MOL0     H98367   3.767   0.816  10.603  2.0459 -1.5092 -0.0190
  729MOL0     H98368   3.758   0.870  10.432  1.2446 -0.1787  0.2929
  729MOL0     H98369   3.603   0.621  10.519 -2.2517 -0.7162 -1.2699
  729MOL0     H98370   3.580   0.710  10.375 -2.0111 -1.1040  1.0062
  729MOL0     H98371   3.482   0.906  10.483  0.7545  1.1851 -0.3785
  729MOL0     H98372   3.530   0.847  10.639 -1.4598 -0.8338  0.3348
  729MOL0     H98373   3.395   0.634  10.583 -1.3033 -0.9006 -0.7246
  729MOL0     H98374   3.311   0.729  10.465  2.0964 -3.7514 -0.8878
  729MOL0     H98375   3.193   0.942  10.493 -1.3876  0.5664 -1.4802
  729MOL0     H98376   3.041   1.027  10.356 -0.2610 -0.3840 -1.4486
  729MOL0     H98377   2.885   0.917  10.334 -2.6752  2.1446  0.3733
  729MOL0     H98378   2.882   1.063  10.421  0.6303  0.7548  0.9330
  729MOL0     H98379   2.571   0.532  10.692 -0.4364 -0.8225 -2.1335
  729MOL0     H98380   2.323   0.452  10.704  2.1546 -0.1710  0.1821
  729MOL0     H98381   2.017   0.734  10.570  1.0322  0.0714 -0.7547
  729MOL0     H98382   2.049   0.605  10.456  0.5862  1.4763 -0.1933
  729MOL0     H98383   1.834   0.609  10.673  0.2109 -2.8514  1.0927
  729MOL0     H98384   1.808   0.576  10.502 -2.4097 -1.3320  0.8718
  729MOL0     H98385   1.985   0.386  10.691  0.1230  2.3384  0.1969
  729MOL0     H98386   1.951   0.360  10.522 -0.7249  0.7462 -1.5846
  729MOL0     H98387   1.737   0.396  10.733 -0.3432 -0.3876 -0.6470
  729MOL0     H98388   1.707   0.345  10.572 -0.9703 -0.9755  0.1243
  729MOL0     H98389   1.892   0.191  10.751 -1.5660  0.1058  2.3962
  729MOL0     H98390   1.818   0.117  10.603 -1.3821 -0.8576  0.1550
  729MOL0     H98391   1.733   0.037  10.818 -1.2892  1.1670  3.6702
  729MOL0     H98392   1.683   0.189  10.876 -0.1530  0.8742  0.6789
  729MOL0     H98393   1.561   0.010  10.646  0.4410 -0.8746  0.5248
  729MOL0     H98394   1.542   0.187  10.631 -0.2694  1.3624  1.8185
  729MOL0     H98395   1.366   0.045  10.752  0.1401 -0.1540  1.4722
  729MOL0     H98396   1.421   0.207  10.795  2.5430  0.6559  3.5162
  729MOL0     H98397   2.206   0.859  10.583  0.2301  1.4856 -0.1068
  729MOL0     H98398   2.441   0.928  10.574  2.3429 -0.7886 -0.6911
  729MOL0     H98399   2.850   0.764  10.798  3.1110 -0.6187  2.1275
  729MOL0     H98400   3.092   0.713  10.825  0.9076  0.3193 -0.4416
  729MOL0     H98401   3.636   1.127  10.693  2.4236  1.1723 -0.4343
  729MOL0     H98402   3.412   1.134  10.726 -0.3919 -0.5626 -0.5245
  729MOL0     H98403   2.926   1.417  10.386 -3.2470  0.6559 -0.8870
  729MOL0     H98404   2.699   1.392  10.427  0.4193  0.0874 -0.1270
  729MOL0     H98405   2.479   1.404  10.511  1.1276  0.1736  1.0877
  729MOL0     H98406   2.488   1.243  10.440  4.5890  0.9392  0.2607
  729MOL0     H98407   2.349   1.152  10.625  1.1981  0.0051 -0.7529
  729MOL0     H98408   2.260   1.265  10.533 -0.5000  1.0535  0.4778
  729MOL0     H98409   2.302   1.448  10.708 -3.7958 -0.0209 -1.0454
  729MOL0     H98410   2.379   1.322  10.804  0.1420 -2.8893 -2.1409
  729MOL0     H98411   2.150   1.343  10.863 -0.6689 -0.3488 -0.0455
  729MOL0     H98412   2.182   1.182  10.805  0.5528  0.8578  1.8851
  729MOL0     H98413   1.884   1.277  10.547 -0.9357 -0.9726  0.9509
  729MOL0     H98414   2.764   1.127  10.760 -0.7781  0.0803  0.0828
  729MOL0     H98415   2.998   1.133  10.714 -0.9618  2.0795  2.1386
  730MOL0     O98416   6.566   6.639   2.106  0.2385  0.0633 -0.6405
  730MOL0     C98417   6.596   6.720   2.018  0.0068  0.2528  0.2705
  730MOL0     O98418   6.513   6.809   1.965  0.1924 -0.3412 -0.0564
  730MOL0     C98419   6.379   6.822   1.993  0.4293 -0.2583  0.5577
  730MOL0     C98420   6.314   6.815   2.114 -0.2843  0.6214 -0.0634
  730MOL0     C98421   6.184   6.857   2.133 -0.7827 -0.1920 -0.9091
  730MOL0     C98422   6.117   6.912   2.028  0.2634  0.2376 -0.2741
  730MOL0     O98423   5.986   6.933   2.017 -0.4675 -0.3216 -1.2510
  730MOL0     C98424   5.894   6.849   2.083  0.3072 -0.6457 -0.7718
  730MOL0     C98425   5.753   6.908   2.065 -0.5042  0.7822  0.4012
  730MOL0     C98426   5.677   6.907   2.198 -0.8027  0.3165 -0.2153
  730MOL0     C98427   5.705   7.024   2.300 -0.0434 -0.1156  0.6348
  730MOL0     C98428   5.633   7.004   2.437  0.3422  0.0355 -0.4125
  730MOL0     C98429   5.724   6.943   2.545  0.8497 -0.1766 -0.2067
  730MOL0     C98430   5.782   6.814   2.495  0.4541 -0.3678 -0.2779
  730MOL0     C98431   5.877   6.744   2.591 -0.7075 -0.5822 -0.3379
  730MOL0     N98432   6.011   6.805   2.595  0.3419 -0.1509  0.4490
  730MOL0     C98433   6.121   6.736   2.553  0.0787 -0.1020  0.7897
  730MOL0     C98434   6.215   6.826   2.552 -0.6131 -0.9619 -0.5507
  730MOL0     C98435   6.357   6.811   2.504  0.4297 -0.2453 -0.0412
  730MOL0     C98436   6.441   6.712   2.578  0.3093 -0.6524  1.4918
  730MOL0     C98437   6.589   6.689   2.524 -0.1305 -0.4339 -0.1131
  730MOL0     C98438   6.672   6.628   2.631  0.2295 -0.1995  0.6453
  730MOL0     O98439   6.622   6.501   2.679  0.1140 -0.1324 -0.0393
  730MOL0     C98440   6.614   6.378   2.619  0.0517  0.6448  0.1941
  730MOL0     C98441   6.678   6.366   2.494 -0.5742  0.4227 -0.0570
  730MOL0     C98442   6.676   6.240   2.421 -0.7284 -0.3051 -0.4728
  730MOL0     C98443   6.729   6.240   2.279 -0.5618  0.2090 -1.2827
  730MOL0     C98444   6.627   6.124   2.493 -0.1352  0.0746  0.1823
  730MOL0     C98445   6.641   5.983   2.437  0.3607 -0.5589  0.5578
  730MOL0     O98446   6.729   5.954   2.342 -0.3724  0.9526  0.0956
  730MOL0     C98447   6.728   5.833   2.286  0.5711 -0.1573  0.1728
  730MOL0     C98448   6.776   5.732   2.372  0.4243  0.2378  0.6782
  730MOL0     C98449   6.779   5.609   2.316  0.1353 -0.1037  0.2097
  730MOL0     C98450   6.744   5.581   2.191  0.3300  0.3536  0.2145
  730MOL0     O98451   6.772   5.453   2.147  0.2790 -1.0262 -0.0909
  730MOL0     C98452   6.727   5.419   2.017  0.0942 -0.1730 -1.2129
  730MOL0     C98453   6.801   5.295   1.981 -0.7143  0.7521 -0.0049
  730MOL0     C98454   6.756   5.164   2.048  0.1699 -0.3043 -0.1350
  730MOL0     C98455   6.618   5.104   2.000  0.0619 -0.7221 -0.2197
  730MOL0     C98456   6.556   5.002   2.086 -0.0853  0.6432 -0.0908
  730MOL0     C98457   6.422   4.972   2.032  0.3751 -0.5384 -0.2042
  730MOL0     C98458   6.335   4.857   2.099 -0.2001  0.1311  0.3192
  730MOL0     C98459   6.212   4.828   2.020 -0.2322  0.0570  0.5521
  730MOL0    Cl98460   6.092   4.743   2.130  0.5867  0.3779  0.4422
  730MOL0     C98461   6.686   5.679   2.110 -0.4915 -0.2128  0.0865
  730MOL0     C98462   6.681   5.810   2.165 -0.0003  0.3903  0.4872
  730MOL0     O98463   6.559   5.904   2.477  0.4265 -0.0914 -0.3308
  730MOL0     C98464   6.559   6.144   2.616  0.0198 -0.0773 -0.9284
  730MOL0     C98465   6.553   6.268   2.674  0.5528 -1.1058 -0.3296
  730MOL0     N98466   6.169   6.936   2.617 -0.0220  0.2777 -0.1492
  730MOL0     N98467   6.047   6.932   2.642 -0.0197 -0.0884  0.1562
  730MOL0     C98468   6.184   6.934   1.903 -0.5862 -0.0368 -0.0911
  730MOL0     C98469   6.318   6.889   1.884 -0.0552 -0.0463 -0.2566
  730MOL0     C98470   6.738   6.721   1.978 -0.7456  0.6253 -0.1994
  730MOL0     C98471   6.791   6.831   1.901 -0.6023 -0.9130  0.0784
  730MOL0     C98472   6.922   6.832   1.856  0.1409  0.4217 -0.1006
  730MOL0     C98473   7.003   6.715   1.883 -0.8015  0.6859  0.6559
  730MOL0     O98474   7.124   6.694   1.816 -0.4507 -0.3115 -0.1681
  730MOL0     C98475   7.241   6.660   1.901 -0.1049  0.4242 -0.1629
  730MOL0     C98476   7.367   6.686   1.826  0.7224  0.8689  0.7190
  730MOL0     C98477   7.497   6.663   1.900 -0.6777 -0.5515 -1.0836
  730MOL0     C98478   7.625   6.699   1.824  0.6957  0.2386 -0.2638
  730MOL0     C98479   7.752   6.699   1.896 -0.0815  0.3001  0.4940
  730MOL0     C98480   7.861   6.691   1.952  1.2212 -0.0156 -0.3743
  730MOL0     C98481   6.957   6.616   1.973  0.2901 -1.0868 -0.8025
  730MOL0     C98482   6.826   6.617   2.016 -0.9653 -0.3065  0.0357
  730MOL0     H98483   6.366   6.770   2.198 -0.7006 -1.8918 -1.0557
  730MOL0     H98484   6.143   6.851   2.234 -1.7816 -0.8515 -1.3380
  730MOL0     H98485   5.891   6.754   2.029 -1.5507  0.9140 -3.6830
  730MOL0     H98486   5.921   6.836   2.188  3.3775 -4.1141 -1.7353
  730MOL0     H98487   5.758   7.006   2.018 -0.9161  0.2389 -0.8188
  730MOL0     H98488   5.688   6.849   2.001 -1.7424  1.2391  1.2044
  730MOL0     H98489   5.571   6.910   2.170 -1.2844  0.1729  1.5100
  730MOL0     H98490   5.695   6.817   2.257 -0.3833  1.4319  1.4214
  730MOL0     H98491   5.812   7.045   2.306  0.1757 -0.6457 -1.0716
  730MOL0     H98492   5.660   7.119   2.270 -0.5051 -0.3026  0.7248
  730MOL0     H98493   5.610   7.105   2.471  1.1976  0.6059 -1.4761
  730MOL0     H98494   5.535   6.956   2.427  0.1278 -0.2414  2.2727
  730MOL0     H98495   5.803   7.006   2.587  3.5744 -2.4529 -1.5922
  730MOL0     H98496   5.664   6.921   2.634 -0.4398  4.0682  0.1800
  730MOL0     H98497   5.699   6.749   2.466  0.7629 -0.0781 -1.9072
  730MOL0     H98498   5.840   6.831   2.404  0.6470 -0.3400 -0.1491
  730MOL0     H98499   5.886   6.639   2.562 -0.6043 -0.8248  0.5323
  730MOL0     H98500   5.827   6.756   2.688  1.9778  0.9599  0.9751
  730MOL0     H98501   6.142   6.637   2.513  0.5933  0.5286 -0.5543
  730MOL0     H98502   6.351   6.774   2.402  0.3040  0.8590 -0.4475
  730MOL0     H98503   6.420   6.900   2.499 -0.5880  0.5808  1.0901
  730MOL0     H98504   6.391   6.614   2.577  1.3705 -1.2618 -1.5705
  730MOL0     H98505   6.452   6.758   2.677  1.5068 -0.8676  1.4623
  730MOL0     H98506   6.637   6.783   2.495 -0.4769  0.5412  2.2913
  730MOL0     H98507   6.581   6.625   2.435 -1.2450 -2.4506  1.3672
  730MOL0     H98508   6.675   6.697   2.716  0.1331  2.9332 -1.7073
  730MOL0     H98509   6.770   6.616   2.584 -0.5737 -2.5420 -0.5917
  730MOL0     H98510   6.722   6.453   2.446 -0.9512  1.0076  0.6437
  730MOL0     H98511   6.769   6.339   2.255 -3.4944  1.6118 -0.8276
  730MOL0     H98512   6.804   6.162   2.264  0.4819  1.1712 -1.1449
  730MOL0     H98513   6.638   6.238   2.217 -2.1773  4.7452  0.5311
  730MOL0     H98514   6.784   5.757   2.477 -2.4145  1.9205  0.5977
  730MOL0     H98515   6.812   5.524   2.376  0.3515  0.6257  1.1472
  730MOL0     H98516   6.619   5.402   2.017  0.1188 -0.3246 -1.2034
  730MOL0     H98517   6.745   5.502   1.947  1.1418  1.0757  0.4613
  730MOL0     H98518   6.816   5.280   1.874  0.9096 -1.2318  0.4265
  730MOL0     H98519   6.903   5.314   2.017 -0.7552  0.1554  0.4344
  730MOL0     H98520   6.748   5.188   2.154  0.6846 -1.4656  0.1860
  730MOL0     H98521   6.834   5.089   2.037  0.2238 -0.4637  1.2068
  730MOL0     H98522   6.547   5.186   1.992 -0.4716 -1.2094 -0.5537
  730MOL0     H98523   6.624   5.075   1.894  1.8635 -1.4461  0.0429
  730MOL0     H98524   6.554   5.047   2.186  3.8350  0.8124  0.0959
  730MOL0     H98525   6.613   4.909   2.094  2.6689  1.8247 -3.3725
  730MOL0     H98526   6.367   5.066   2.037  0.9062  0.0357 -3.3301
  730MOL0     H98527   6.426   4.942   1.927 -0.8456  0.5582 -0.5829
  730MOL0     H98528   6.313   4.892   2.200  1.4438 -1.4460  1.2679
  730MOL0     H98529   6.402   4.771   2.105 -0.6770 -0.2702 -0.0511
  730MOL0     H98530   6.230   4.763   1.934  3.1976 -0.1835  1.3220
  730MOL0     H98531   6.168   4.924   1.992 -0.6172 -1.0981 -3.3471
  730MOL0     H98532   6.636   5.652   2.018 -0.0276 -0.0159 -0.2273
  730MOL0     H98533   6.650   5.897   2.107  0.4443  1.5269  1.8705
  730MOL0     H98534   6.508   6.062   2.666 -1.7145  0.2574 -2.0363
  730MOL0     H98535   6.502   6.273   2.770  2.4439 -1.8852  0.7761
  730MOL0     H98536   6.134   6.972   1.815 -0.2387 -0.0927 -0.3163
  730MOL0     H98537   6.363   6.903   1.787  0.4893  1.1238  0.1429
  730MOL0     H98538   6.715   6.893   1.856 -0.7244 -0.7321  0.5318
  730MOL0     H98539   6.960   6.914   1.797  2.0504  0.8598  1.6444
  730MOL0     H98540   7.236   6.720   1.993 -0.9376 -0.1727  0.1878
  730MOL0     H98541   7.238   6.555   1.931  0.4944  0.2945 -0.5283
  730MOL0     H98542   7.365   6.787   1.784 -0.3275  0.4786 -0.2155
  730MOL0     H98543   7.365   6.615   1.744 -3.2512  0.5934  0.8865
  730MOL0     H98544   7.499   6.562   1.941  1.3848 -0.1595 -0.0780
  730MOL0     H98545   7.495   6.723   1.991 -1.4461 -2.5776  0.3002
  730MOL0     H98546   7.617   6.786   1.758 -2.4380 -0.8772 -1.5306
  730MOL0     H98547   7.641   6.620   1.749  0.2034 -0.9730  0.8712
  730MOL0     H98548   7.949   6.694   2.011  0.1895 -0.1181  1.2272
  730MOL0     H98549   7.012   6.526   1.994 -0.8717 -1.7210 -0.3563
  730MOL0     H98550   6.793   6.530   2.072 -0.9981 -1.1260 -1.2290
  731MOL0     O98551   5.770   2.092  11.341  0.1839 -0.9306  0.5307
  731MOL0     C98552   5.759   2.012  11.435 -0.6047 -0.0009 -1.1589
  731MOL0     O98553   5.853   1.973  11.521 -0.2247 -0.0703 -0.0859
  731MOL0     C98554   5.980   2.007  11.487 -0.4545 -0.6401  0.7036
  731MOL0     C98555   6.032   2.133  11.523  0.2682 -0.3993  0.8198
  731MOL0     C98556   6.162   2.170  11.491  0.1084 -0.4337  0.8648
  731MOL0     C98557   6.243   2.078  11.426  0.5117  0.5271  0.3737
  731MOL0     O98558   6.377   2.101  11.405 -0.7321 -0.5463  0.1175
  731MOL0     C98559   6.400   2.243  11.392 -0.3746 -0.4196  0.2511
  731MOL0     C98560   6.519   2.258  11.316 -0.6738 -0.0148 -0.3924
  731MOL0     C98561   6.636   2.213  11.403 -0.5599  0.7858 -0.2422
  731MOL0     C98562   6.762   2.273  11.337 -0.3386  0.0555 -0.6279
  731MOL0     C98563   6.896   2.215  11.370  0.0627 -0.3527  0.0639
  731MOL0     C98564   7.008   2.297  11.321 -0.1773  0.5409 -0.2596
  731MOL0     C98565   7.003   2.349  11.179  0.4152  0.6800 -0.3289
  731MOL0     C98566   7.134   2.421  11.146  0.1709  0.1100  0.3459
  731MOL0     N98567   7.121   2.558  11.194  0.3088  0.5374 -0.0161
  731MOL0     C98568   7.037   2.658  11.144  0.7769 -0.4073 -0.4561
  731MOL0     C98569   7.061   2.775  11.215 -0.2438 -0.3662 -1.1193
  731MOL0     C98570   6.987   2.910  11.197 -0.6084 -0.5509  0.4112
  731MOL0     C98571   6.905   2.948  11.324  0.1327  0.6058  0.2909
  731MOL0     C98572   6.850   3.090  11.311  0.0677  0.6753  0.3077
  731MOL0     C98573   6.800   3.140  11.441  0.1583 -0.5325 -0.3381
  731MOL0     O98574   6.737   3.268  11.424  0.6124  0.0971  0.8346
  731MOL0     C98575   6.597   3.260  11.385  0.0468 -0.1466  0.4249
  731MOL0     C98576   6.520   3.144  11.352 -0.1812 -0.1582 -0.3942
  731MOL0     C98577   6.384   3.152  11.307 -0.2382 -0.4175  0.3447
  731MOL0     C98578   6.323   3.038  11.228  1.1067  0.8203  0.3374
  731MOL0     C98579   6.320   3.278  11.331 -0.6417  0.4668 -0.8710
  731MOL0     C98580   6.172   3.302  11.349 -0.2512 -0.0308  0.0628
  731MOL0     O98581   6.129   3.392  11.448 -0.0760  0.1055  0.1302
  731MOL0     C98582   5.997   3.390  11.459 -0.0548 -0.5372 -0.2190
  731MOL0     C98583   5.929   3.320  11.559 -1.3246 -0.3929  0.1608
  731MOL0     C98584   5.784   3.332  11.576 -0.6920 -0.3322 -0.2126
  731MOL0     C98585   5.708   3.397  11.480 -0.2385 -0.3190  0.1656
  731MOL0     O98586   5.573   3.402  11.479 -0.1492  0.0740 -0.2813
  731MOL0     C98587   5.505   3.274  11.475  0.3454  0.1253  0.4126
  731MOL0     C98588   5.372   3.292  11.405  0.5946 -0.2456 -0.5471
  731MOL0     C98589   5.303   3.420  11.458  0.4162 -0.6759 -0.5672
  731MOL0     C98590   5.162   3.425  11.403 -0.0778 -0.1856 -0.1835
  731MOL0     C98591   5.095   3.558  11.434 -0.0146 -0.2352 -0.7012
  731MOL0     C98592   4.949   3.543  11.434 -0.1111 -0.2571 -0.9748
  731MOL0     C98593   4.889   3.684  11.438 -0.9630  0.5211 -0.2011
  731MOL0     C98594   4.933   3.764  11.563 -0.4327  0.1134  0.1346
  731MOL0    Cl98595   4.803   3.892  11.589 -0.3370 -0.1267  0.0577
  731MOL0     C98596   5.774   3.462  11.375  0.1992 -1.0510  0.2594
  731MOL0     C98597   5.920   3.464  11.372  0.5024  0.2318  0.0606
  731MOL0     O98598   6.105   3.237  11.280  0.6233  0.4938 -0.4515
  731MOL0     C98599   6.411   3.393  11.364 -0.6197  0.5004  0.4230
  731MOL0     C98600   6.551   3.390  11.380 -0.4342  0.0249  0.2910
  731MOL0     N98601   7.168   2.748  11.307 -0.5946 -0.4625 -0.6662
  731MOL0     N98602   7.186   2.622  11.295  0.6583  0.0162  0.0867
  731MOL0     C98603   6.187   1.958  11.372 -0.8382 -0.2257 -0.3492
  731MOL0     C98604   6.052   1.925  11.404 -0.2406  0.7369 -0.0773
  731MOL0     C98605   5.624   1.977  11.475 -0.2245  0.8487  0.0658
  731MOL0     C98606   5.601   1.869  11.551 -0.5572  0.2088 -0.6401
  731MOL0     C98607   5.478   1.845  11.606  0.1380  0.2943 -0.0903
  731MOL0     C98608   5.363   1.918  11.571  0.3078  0.3868 -0.2179
  731MOL0     O98609   5.240   1.877  11.618 -0.1569  0.0359 -0.3136
  731MOL0     C98610   5.141   1.886  11.512 -1.0243  0.1212  0.2700
  731MOL0     C98611   5.000   1.874  11.567  0.4648  0.0694  0.9631
  731MOL0     C98612   4.946   2.006  11.626 -0.3907 -0.6275 -0.1624
  731MOL0     C98613   4.795   2.015  11.631  0.4525 -0.3948  0.0675
  731MOL0     C98614   4.733   1.941  11.741 -0.8226  0.6149 -0.5204
  731MOL0     C98615   4.685   1.875  11.827 -0.2080  0.5727 -0.4262
  731MOL0     C98616   5.384   2.030  11.488 -0.8696 -0.1252  0.4357
  731MOL0     C98617   5.513   2.052  11.434  1.0592 -0.2847 -0.7909
  731MOL0     H98618   5.965   2.194  11.583  0.3858  2.0330 -1.3302
  731MOL0     H98619   6.201   2.262  11.533  1.9340  0.4820 -2.4618
  731MOL0     H98620   6.326   2.299  11.333 -0.5368 -1.1483 -0.2543
  731MOL0     H98621   6.401   2.278  11.495 -2.0393  0.5698 -0.0182
  731MOL0     H98622   6.516   2.210  11.218 -0.1586 -1.3781  0.2400
  731MOL0     H98623   6.523   2.366  11.296  2.8516  0.3209  1.3237
  731MOL0     H98624   6.627   2.251  11.505 -0.9534 -0.1614  0.0902
  731MOL0     H98625   6.633   2.105  11.415 -2.2659  0.9684  1.5163
  731MOL0     H98626   6.747   2.265  11.229  3.9210  0.9500 -1.4736
  731MOL0     H98627   6.759   2.380  11.361  1.7180  0.5978 -2.4480
  731MOL0     H98628   6.909   2.215  11.479  0.0214  0.9680  0.0881
  731MOL0     H98629   6.910   2.121  11.316  1.1739  0.5914 -1.3601
  731MOL0     H98630   7.016   2.390  11.378 -2.4465  0.9619 -0.5428
  731MOL0     H98631   7.099   2.238  11.333  0.5868  1.6334 -0.5174
  731MOL0     H98632   6.991   2.265  11.110  2.3195 -0.7610  1.0103
  731MOL0     H98633   6.912   2.406  11.159  0.5290  0.7903 -0.5405
  731MOL0     H98634   7.144   2.426  11.037  1.2461  3.6172  0.4934
  731MOL0     H98635   7.224   2.380  11.195  1.4747  1.7776 -0.5361
  731MOL0     H98636   6.977   2.657  11.053 -2.2332 -1.3231  1.4092
  731MOL0     H98637   7.068   2.981  11.175 -0.3017  0.6009  4.4090
  731MOL0     H98638   6.924   2.907  11.108 -0.7353 -1.0156  0.5159
  731MOL0     H98639   6.971   2.950  11.411 -0.7750  4.1433  1.0432
  731MOL0     H98640   6.821   2.879  11.334  0.3467 -0.2105 -2.5384
  731MOL0     H98641   6.764   3.079  11.245  1.9070 -1.9013 -1.8703
  731MOL0     H98642   6.930   3.152  11.271 -0.5380  0.2842 -1.6007
  731MOL0     H98643   6.882   3.164  11.510 -0.3858  3.7838 -0.9069
  731MOL0     H98644   6.748   3.063  11.499  1.2843  1.4647  3.7274
  731MOL0     H98645   6.566   3.046  11.347  3.3276  1.3213 -0.2317
  731MOL0     H98646   6.394   2.957  11.210  0.3364  0.2014  0.0515
  731MOL0     H98647   6.233   3.000  11.277  0.5611 -2.3691 -2.7768
  731MOL0     H98648   6.291   3.078  11.131  1.5398  2.6043  0.8821
  731MOL0     H98649   5.983   3.274  11.641 -0.5568  0.3819  0.1148
  731MOL0     H98650   5.744   3.269  11.655 -3.3883  0.8448 -0.5159
  731MOL0     H98651   5.564   3.206  11.413 -1.0935  1.3849 -2.5481
  731MOL0     H98652   5.488   3.241  11.578  0.3955  0.4587  0.5293
  731MOL0     H98653   5.394   3.298  11.298  1.1478  3.5592 -0.3742
  731MOL0     H98654   5.303   3.212  11.432 -2.3929  3.2409  3.3626
  731MOL0     H98655   5.347   3.514  11.426 -0.9684  0.7656  1.4853
  731MOL0     H98656   5.309   3.412  11.567  0.2940  0.0245 -0.5026
  731MOL0     H98657   5.150   3.399  11.297 -1.5873 -1.3502  0.2428
  731MOL0     H98658   5.098   3.354  11.455  0.7972 -1.6883 -1.1087
  731MOL0     H98659   5.121   3.641  11.367 -2.1672  1.7889  0.7718
  731MOL0     H98660   5.132   3.591  11.532 -2.0220 -0.4928  0.1950
  731MOL0     H98661   4.913   3.492  11.344  1.8422 -0.7021 -1.5362
  731MOL0     H98662   4.919   3.489  11.525  1.5882  0.6353  0.1582
  731MOL0     H98663   4.781   3.668  11.435 -0.8737 -0.0987 -0.2529
  731MOL0     H98664   4.927   3.734  11.349 -2.0293  1.0407 -0.3821
  731MOL0     H98665   5.030   3.810  11.545 -0.3869  0.6640  1.6488
  731MOL0     H98666   4.933   3.696  11.649 -2.4953 -0.8677 -0.5703
  731MOL0     H98667   5.714   3.497  11.292 -0.9046 -4.2890 -0.4262
  731MOL0     H98668   5.970   3.520  11.293  0.6090 -2.4797 -1.9218
  731MOL0     H98669   6.356   3.483  11.389 -2.7790 -0.5878 -0.1913
  731MOL0     H98670   6.622   3.467  11.407  2.2880 -2.0693 -0.3950
  731MOL0     H98671   6.252   1.890  11.318  1.4612  0.4328  1.3738
  731MOL0     H98672   6.017   1.835  11.355  0.2428 -0.2475  1.3543
  731MOL0     H98673   5.680   1.795  11.563 -0.6171  0.1670 -0.5107
  731MOL0     H98674   5.472   1.749  11.657  2.2635 -0.4055 -1.0272
  731MOL0     H98675   5.146   1.979  11.455 -0.2775 -0.5926 -0.8634
  731MOL0     H98676   5.170   1.812  11.437  0.6345  1.7295 -0.7551
  731MOL0     H98677   4.982   1.790  11.635  0.0845  0.5871  1.5099
  731MOL0     H98678   4.934   1.844  11.485 -0.7084 -3.4235  2.9415
  731MOL0     H98679   4.974   2.088  11.559  0.2108  0.9824  1.9538
  731MOL0     H98680   4.993   2.023  11.723  2.0109 -3.3047 -0.7036
  731MOL0     H98681   4.743   1.972  11.545 -2.0168 -1.5725  2.0257
  731MOL0     H98682   4.782   2.123  11.643 -0.8741 -0.5682  0.3759
  731MOL0     H98683   4.655   1.809  11.906  2.2587 -1.2110 -0.8724
  731MOL0     H98684   5.304   2.094  11.450  0.3932  1.1543 -0.1482
  731MOL0     H98685   5.507   2.124  11.354 -4.0682 -1.0893 -1.5227
  732MOL0     O98686   6.601   4.794   9.207 -0.5396  0.0743  0.4658
  732MOL0     C98687   6.637   4.781   9.086  0.1756  0.0510 -0.4228
  732MOL0     O98688   6.555   4.738   8.987 -0.2507 -0.8645  0.1018
  732MOL0     C98689   6.457   4.644   9.011 -0.3572 -0.5629 -0.0273
  732MOL0     C98690   6.469   4.537   9.106  0.1124 -0.0856  0.7890
  732MOL0     C98691   6.372   4.442   9.108  0.4567 -0.4577 -0.2685
  732MOL0     C98692   6.256   4.462   9.036  0.7889  1.6597  0.5529
  732MOL0     O98693   6.159   4.365   9.055 -0.0092  1.2468  0.5484
  732MOL0     C98694   6.023   4.406   9.044 -0.0469  0.2509 -0.7336
  732MOL0     C98695   5.935   4.308   9.108 -0.1996 -0.1140  0.0645
  732MOL0     C98696   5.798   4.375   9.110 -0.2424 -0.4154 -1.4272
  732MOL0     C98697   5.677   4.285   9.132  0.2242  0.0462 -0.0422
  732MOL0     C98698   5.663   4.226   9.275  0.0064  0.3784  0.5955
  732MOL0     C98699   5.522   4.186   9.303 -0.1393 -0.8695 -0.6973
  732MOL0     C98700   5.488   4.174   9.446  0.1393 -0.8365 -0.3567
  732MOL0     C98701   5.350   4.143   9.509  0.0560 -0.1623 -0.5130
  732MOL0     N98702   5.247   4.216   9.437  1.0301  0.1491 -0.7112
  732MOL0     C98703   5.160   4.159   9.343  0.6486  0.0806  0.5434
  732MOL0     C98704   5.099   4.269   9.285 -1.0399 -0.9706 -0.0733
  732MOL0     C98705   5.004   4.274   9.172 -0.3774  0.7084  0.4516
  732MOL0     C98706   5.032   4.392   9.076  0.7013 -0.1786  0.8211
  732MOL0     C98707   4.922   4.416   8.963  0.0786 -0.2631 -0.8559
  732MOL0     C98708   4.936   4.315   8.857 -0.4899  0.5080 -0.6180
  732MOL0     O98709   4.812   4.294   8.782 -0.7632 -0.3465  0.7718
  732MOL0     C98710   4.710   4.213   8.815 -0.3082 -0.9262 -1.0457
  732MOL0     C98711   4.707   4.129   8.932  0.2971  0.7750  0.0687
  732MOL0     C98712   4.588   4.061   8.964  1.1675  0.4819 -0.3691
  732MOL0     C98713   4.597   3.956   9.076  0.2322  0.4220  0.0043
  732MOL0     C98714   4.470   4.075   8.889  0.2512  1.2399  0.2431
  732MOL0     C98715   4.334   4.050   8.936  0.0825  0.2913 -0.2677
  732MOL0     O98716   4.246   3.995   8.854  0.4173 -0.0221 -0.2631
  732MOL0     C98717   4.118   3.987   8.886 -0.4332  0.2076  0.2482
  732MOL0     C98718   4.031   4.086   8.838  0.1877  0.5671 -0.5369
  732MOL0     C98719   3.894   4.102   8.886  0.1124 -0.3708  0.4017
  732MOL0     C98720   3.837   4.004   8.961 -0.9103  0.4892 -0.5458
  732MOL0     O98721   3.708   4.022   9.009  0.1537  0.9236 -0.7542
  732MOL0     C98722   3.615   3.908   9.039  0.6248 -0.6191  0.3874
  732MOL0     C98723   3.478   3.983   9.080 -0.0373 -0.0322  0.3535
  732MOL0     C98724   3.385   3.871   9.127 -0.0263 -0.2373  0.0066
  732MOL0     C98725   3.263   3.944   9.195  0.4386  0.3502 -0.0314
  732MOL0     C98726   3.163   3.843   9.241 -0.1334 -0.3587 -1.1144
  732MOL0     C98727   3.043   3.903   9.301 -0.1194  0.5656  0.6450
  732MOL0     C98728   2.952   3.798   9.365 -0.0064 -0.3950  0.1703
  732MOL0     C98729   2.806   3.844   9.402 -0.4534 -0.1138 -0.1141
  732MOL0    Cl98730   2.734   3.930   9.264  0.4296  0.7080 -0.1942
  732MOL0     C98731   3.918   3.890   9.002  0.8621  0.3503 -0.8544
  732MOL0     C98732   4.054   3.890   8.967 -1.3530 -0.8172 -0.0644
  732MOL0     O98733   4.307   4.092   9.050  0.3593 -0.1369  0.6025
  732MOL0     C98734   4.477   4.151   8.773 -0.2111 -0.1619  0.2522
  732MOL0     C98735   4.599   4.217   8.732  0.3862 -0.3831  0.0653
  732MOL0     N98736   5.150   4.384   9.344 -0.3979 -0.6987  0.3968
  732MOL0     N98737   5.238   4.348   9.436  0.8390 -0.1675  0.4198
  732MOL0     C98738   6.243   4.557   8.941 -0.0190 -0.6768 -0.6095
  732MOL0     C98739   6.347   4.656   8.930 -0.2624 -0.8316  0.0741
  732MOL0     C98740   6.768   4.836   9.043  1.1908  0.4175  0.4422
  732MOL0     C98741   6.795   4.877   8.914  0.5386 -1.6219 -0.0901
  732MOL0     C98742   6.914   4.949   8.882  0.2248  1.0035  0.5569
  732MOL0     C98743   7.011   4.959   8.976 -0.5094  0.3084 -0.4497
  732MOL0     O98744   7.118   5.037   8.945 -0.6867  1.1554  0.4986
  732MOL0     C98745   7.223   5.061   9.038 -0.4725 -0.0451 -0.6757
  732MOL0     C98746   7.331   5.163   8.992 -0.2825  0.9544  0.2907
  732MOL0     C98747   7.410   5.111   8.867  1.1956  0.3544  0.7200
  732MOL0     C98748   7.528   5.209   8.833 -0.3061 -0.5761  0.4374
  732MOL0     C98749   7.630   5.186   8.937  0.2187  0.7472  0.5497
  732MOL0     C98750   7.708   5.165   9.021  0.5379 -0.3000  0.3204
  732MOL0     C98751   6.991   4.910   9.102  0.4126 -0.1397 -0.0560
  732MOL0     C98752   6.867   4.858   9.137 -0.5770 -0.2472 -0.0488
  732MOL0     H98753   6.558   4.525   9.167  0.2302  0.6202  0.7684
  732MOL0     H98754   6.381   4.355   9.172  2.1878 -1.5937 -1.9162
  732MOL0     H98755   6.002   4.496   9.104  0.0750 -0.6766  0.7568
  732MOL0     H98756   5.997   4.432   8.941 -2.2000  2.6909  0.3011
  732MOL0     H98757   5.934   4.221   9.043 -0.2792  1.3922 -2.0411
  732MOL0     H98758   5.969   4.283   9.209 -1.7566 -0.5541  0.5082
  732MOL0     H98759   5.799   4.451   9.189 -0.5629  0.1376 -1.9440
  732MOL0     H98760   5.779   4.425   9.014  1.4493  0.0349 -1.5568
  732MOL0     H98761   5.599   4.359   9.114  1.0880  1.3404  1.3400
  732MOL0     H98762   5.682   4.201   9.062  1.1618 -2.3711  2.6939
  732MOL0     H98763   5.742   4.151   9.281  2.0635  2.3140 -0.5840
  732MOL0     H98764   5.688   4.305   9.346  1.3049  1.1724 -0.6937
  732MOL0     H98765   5.456   4.261   9.259 -0.5024 -0.5617  0.3333
  732MOL0     H98766   5.513   4.091   9.250  2.3611  0.0858 -3.0623
  732MOL0     H98767   5.551   4.095   9.487 -1.7493 -1.5045  1.4100
  732MOL0     H98768   5.504   4.275   9.486 -1.5177  0.0180 -1.7342
  732MOL0     H98769   5.345   4.165   9.616  1.4914  0.6486 -0.5882
  732MOL0     H98770   5.348   4.035   9.493  0.5684 -0.2888  0.2564
  732MOL0     H98771   5.146   4.053   9.325 -0.3735  0.1317  0.9372
  732MOL0     H98772   5.012   4.177   9.123  2.2059  0.8056  0.5596
  732MOL0     H98773   4.911   4.279   9.230  0.4247 -2.1876  2.1766
  732MOL0     H98774   5.123   4.365   9.021  0.1524 -0.2206 -0.0761
  732MOL0     H98775   5.044   4.484   9.135  0.7714  0.2288  0.1781
  732MOL0     H98776   4.938   4.507   8.905 -0.6511 -0.8541 -2.0334
  732MOL0     H98777   4.819   4.411   9.000  0.1842 -1.0060 -0.6476
  732MOL0     H98778   4.966   4.217   8.895 -0.4261 -0.0017 -1.9310
  732MOL0     H98779   5.008   4.343   8.780  1.7402 -2.3946  0.2484
  732MOL0     H98780   4.788   4.100   8.999 -1.0850 -1.8440  0.7681
  732MOL0     H98781   4.694   3.908   9.091 -0.8655 -1.0480  3.7556
  732MOL0     H98782   4.564   3.990   9.175 -0.5751  1.4627 -0.6040
  732MOL0     H98783   4.527   3.876   9.047  1.5363 -1.5917  2.0313
  732MOL0     H98784   4.072   4.160   8.770 -0.7697  0.7028 -0.9810
  732MOL0     H98785   3.840   4.195   8.876 -1.1345 -0.7355  2.8862
  732MOL0     H98786   3.609   3.856   8.943  2.5545  2.9771 -1.9108
  732MOL0     H98787   3.646   3.844   9.121  0.1100 -0.9110  0.3611
  732MOL0     H98788   3.493   4.044   9.170 -0.0991  0.4722  0.0253
  732MOL0     H98789   3.439   4.032   8.991 -1.3882  0.3656  1.1375
  732MOL0     H98790   3.419   3.799   9.202 -2.8787 -3.8646 -1.8485
  732MOL0     H98791   3.356   3.811   9.040  1.9380 -2.7448  0.9556
  732MOL0     H98792   3.301   4.014   9.271 -0.5653  1.2892 -0.3776
  732MOL0     H98793   3.222   4.011   9.119  0.1509  1.3321  0.9583
  732MOL0     H98794   3.215   3.771   9.304 -0.9891 -0.1496 -0.1430
  732MOL0     H98795   3.131   3.794   9.148 -3.4255 -2.7619  1.0685
  732MOL0     H98796   3.075   3.980   9.373  2.4127 -0.7405  1.0189
  732MOL0     H98797   2.991   3.950   9.217  0.2420  3.4532  1.9040
  732MOL0     H98798   3.005   3.763   9.454 -0.1486 -1.3471 -0.1108
  732MOL0     H98799   2.952   3.719   9.289  2.2828  0.6243 -1.0021
  732MOL0     H98800   2.819   3.920   9.480  0.6794 -0.4435  0.0350
  732MOL0     H98801   2.745   3.765   9.444  1.1383 -2.3982 -1.8189
  732MOL0     H98802   3.883   3.814   9.071  1.6914 -0.3044 -1.1489
  732MOL0     H98803   4.117   3.812   9.009 -1.3351 -1.2931 -0.9550
  732MOL0     H98804   4.389   4.165   8.711 -0.1451  2.3588  0.6191
  732MOL0     H98805   4.613   4.279   8.644 -1.3734  2.4531  1.6680
  732MOL0     H98806   6.166   4.551   8.865 -1.4942  0.6352  0.6812
  732MOL0     H98807   6.354   4.735   8.856 -0.4836  0.8979  1.8298
  732MOL0     H98808   6.721   4.863   8.835  2.4054  1.2379 -2.5615
  732MOL0     H98809   6.929   5.008   8.792  0.3600  0.6585  0.3523
  732MOL0     H98810   7.180   5.100   9.131  0.9379 -0.5441  0.2274
  732MOL0     H98811   7.268   4.968   9.074  0.4802  1.1526  1.4577
  732MOL0     H98812   7.403   5.187   9.071  0.7000  2.2656 -0.9392
  732MOL0     H98813   7.287   5.259   8.961  4.2324  2.9048 -0.9606
  732MOL0     H98814   7.334   5.101   8.789 -1.0857  1.3766  2.6749
  732MOL0     H98815   7.438   5.007   8.887 -3.8919 -1.8067 -1.3582
  732MOL0     H98816   7.493   5.312   8.827 -0.9460 -0.8306 -0.2720
  732MOL0     H98817   7.582   5.176   8.744  1.1705 -0.9516  1.4410
  732MOL0     H98818   7.767   5.139   9.106  2.5070  1.7600 -0.3366
  732MOL0     H98819   7.060   4.919   9.186 -0.6761 -0.6463  0.9234
  732MOL0     H98820   6.870   4.827   9.241  2.6237 -2.7244 -0.7008
  733MOL0     O98821   6.750   3.692   3.534  0.0040  0.2543 -0.3479
  733MOL0     C98822   6.774   3.571   3.517  0.5594 -0.0461  0.1091
  733MOL0     O98823   6.684   3.467   3.506 -0.8235  0.3308 -0.0107
  733MOL0     C98824   6.556   3.489   3.520 -0.0746 -0.3215 -0.6806
  733MOL0     C98825   6.478   3.596   3.472 -1.5640 -0.4706  0.0469
  733MOL0     C98826   6.349   3.621   3.515  0.3680  0.2519 -0.7573
  733MOL0     C98827   6.288   3.532   3.602  0.6146 -0.1841 -0.0414
  733MOL0     O98828   6.162   3.559   3.650 -0.3252  0.1277 -0.1845
  733MOL0     C98829   6.096   3.671   3.606  0.9520 -0.6937  0.5787
  733MOL0     C98830   5.982   3.693   3.703 -0.1951 -0.2974 -0.3928
  733MOL0     C98831   5.886   3.571   3.701 -0.4684 -0.3853  0.4159
  733MOL0     C98832   5.749   3.596   3.753 -0.2286 -0.1866  0.7249
  733MOL0     C98833   5.661   3.678   3.645 -0.7916  0.9696 -0.7565
  733MOL0     C98834   5.513   3.695   3.701 -0.9793  0.6819  0.4957
  733MOL0     C98835   5.418   3.572   3.671 -0.1528  0.4545 -0.4766
  733MOL0     C98836   5.296   3.604   3.765  0.5502 -0.2872 -0.1399
  733MOL0     N98837   5.185   3.512   3.732  0.5811  0.1859 -0.4694
  733MOL0     C98838   5.113   3.463   3.840  0.5742  0.7715 -0.3871
  733MOL0     C98839   5.014   3.396   3.782  1.3019  0.4273  0.0117
  733MOL0     C98840   4.904   3.331   3.864 -0.8420 -1.1605 -0.0223
  733MOL0     C98841   4.798   3.444   3.882 -0.1981  0.8165  0.3161
  733MOL0     C98842   4.673   3.384   3.948 -0.0921 -1.0659 -0.5471
  733MOL0     C98843   4.548   3.454   3.900  0.4177  0.1243  0.4464
  733MOL0     O98844   4.545   3.582   3.954 -0.3599  0.0374  0.2644
  733MOL0     C98845   4.481   3.597   4.071  0.6815 -0.3178 -0.0741
  733MOL0     C98846   4.542   3.639   4.187  0.4419  0.4390  0.6557
  733MOL0     C98847   4.462   3.655   4.300  0.5546  0.4465  0.1434
  733MOL0     C98848   4.531   3.725   4.408  0.4579 -0.7403 -0.3480
  733MOL0     C98849   4.324   3.626   4.303  0.0665 -0.1397  0.2629
  733MOL0     C98850   4.224   3.654   4.413 -0.2091  0.4895 -0.1953
  733MOL0     O98851   4.093   3.614   4.392  0.6059 -0.6656  0.0243
  733MOL0     C98852   4.001   3.641   4.487  0.9341  0.3001 -0.7863
  733MOL0     C98853   3.989   3.558   4.602 -0.2438  0.2849  0.4119
  733MOL0     C98854   3.886   3.588   4.693 -0.0037 -0.5411 -0.2614
  733MOL0     C98855   3.789   3.688   4.675 -0.3061  0.9159  0.9906
  733MOL0     O98856   3.695   3.705   4.768  0.3719 -0.1524 -0.3754
  733MOL0     C98857   3.567   3.676   4.717  0.0167 -0.1450 -0.2111
  733MOL0     C98858   3.469   3.650   4.834  0.4617 -0.4995 -0.2728
  733MOL0     C98859   3.323   3.610   4.789 -0.3667 -0.0121  0.0174
  733MOL0     C98860   3.210   3.609   4.901 -0.1844  0.4785  0.3138
  733MOL0     C98861   3.238   3.528   5.026 -0.2856 -0.6451  0.1043
  733MOL0     C98862   3.108   3.518   5.109  0.3864  0.1594 -0.3863
  733MOL0     C98863   3.129   3.470   5.254  0.0267 -0.4486 -0.6204
  733MOL0     C98864   2.997   3.497   5.326 -0.3998 -0.1961  0.2641
  733MOL0    Cl98865   2.980   3.405   5.478 -0.0564 -0.4534  0.2738
  733MOL0     C98866   3.801   3.770   4.564 -0.0388  0.5166  0.6032
  733MOL0     C98867   3.904   3.742   4.466 -0.2453 -0.0117 -1.0448
  733MOL0     O98868   4.261   3.697   4.526 -0.5717 -0.2153  0.5718
  733MOL0     C98869   4.266   3.579   4.182 -0.3701 -0.8233  0.6897
  733MOL0     C98870   4.345   3.574   4.062  0.2864 -0.5651 -0.2858
  733MOL0     N98871   5.018   3.411   3.640  0.1952 -0.1772  0.5587
  733MOL0     N98872   5.127   3.471   3.612 -1.1532 -0.4685 -0.3797
  733MOL0     C98873   6.359   3.430   3.656 -0.0913  0.1811 -0.2075
  733MOL0     C98874   6.493   3.405   3.610 -0.2676 -0.5269  0.1599
  733MOL0     C98875   6.917   3.535   3.508 -0.7953 -0.4498  0.0025
  733MOL0     C98876   7.004   3.605   3.595  0.7756  0.5004  0.1707
  733MOL0     C98877   7.134   3.566   3.594  0.1045 -0.2762 -0.5311
  733MOL0     C98878   7.189   3.466   3.522 -0.7489  0.1229  0.7099
  733MOL0     O98879   7.318   3.428   3.516  0.0837  0.4169 -0.3370
  733MOL0     C98880   7.415   3.515   3.583 -0.0664  0.2250  0.1049
  733MOL0     C98881   7.562   3.457   3.595 -0.1285  0.2725  0.5588
  733MOL0     C98882   7.621   3.468   3.454  0.6701  0.5157 -0.3985
  733MOL0     C98883   7.748   3.384   3.447  0.3131 -0.7613 -0.0317
  733MOL0     C98884   7.860   3.421   3.538  0.8865 -0.5350  0.4586
  733MOL0     C98885   7.934   3.480   3.610  0.0991  0.0318 -0.1736
  733MOL0     C98886   7.100   3.390   3.435 -0.2911 -0.1170 -0.2658
  733MOL0     C98887   6.966   3.425   3.442  0.9837  0.3333  0.7472
  733MOL0     H98888   6.515   3.675   3.407 -0.0990 -2.0241 -1.0857
  733MOL0     H98889   6.303   3.707   3.468 -1.8820 -0.5867 -0.2117
  733MOL0     H98890   6.152   3.765   3.607 -0.2024  0.0332 -0.4235
  733MOL0     H98891   6.051   3.657   3.507 -1.8111 -0.1198  1.6664
  733MOL0     H98892   6.017   3.720   3.804  0.0816 -0.8866 -0.3311
  733MOL0     H98893   5.918   3.777   3.674  0.0111  0.0411  0.1204
  733MOL0     H98894   5.877   3.516   3.607 -2.3460 -0.9372  0.8844
  733MOL0     H98895   5.933   3.495   3.763 -3.4999 -1.9660  0.9712
  733MOL0     H98896   5.713   3.497   3.781 -0.4217 -0.3233  0.0020
  733MOL0     H98897   5.766   3.659   3.841  2.4988  1.9259 -1.1179
  733MOL0     H98898   5.702   3.779   3.645  0.8290  0.4139  1.6323
  733MOL0     H98899   5.670   3.642   3.542  1.9286  2.1281 -1.0134
  733MOL0     H98900   5.514   3.729   3.805 -0.8589  0.5681  0.5328
  733MOL0     H98901   5.462   3.777   3.649 -4.8370 -1.3531  0.6999
  733MOL0     H98902   5.399   3.567   3.563  2.8344 -2.0583 -1.0384
  733MOL0     H98903   5.467   3.476   3.690  1.5385  1.2840 -0.3655
  733MOL0     H98904   5.253   3.702   3.745  0.4850 -0.1199  0.7795
  733MOL0     H98905   5.315   3.594   3.872 -2.0398 -1.1681  0.3171
  733MOL0     H98906   5.138   3.450   3.945  0.4616  0.7131 -0.3673
  733MOL0     H98907   4.860   3.249   3.807 -3.2525  0.7671 -1.0973
  733MOL0     H98908   4.946   3.293   3.958  1.7241  0.5700 -0.3686
  733MOL0     H98909   4.774   3.487   3.784  1.2497  2.0490  0.4836
  733MOL0     H98910   4.850   3.523   3.935  1.2138 -0.9614  1.7236
  733MOL0     H98911   4.692   3.394   4.055  2.2174 -0.3465 -0.9667
  733MOL0     H98912   4.665   3.276   3.932 -1.7003 -1.3343  1.6099
  733MOL0     H98913   4.455   3.401   3.925  0.2169  0.6573  0.8417
  733MOL0     H98914   4.545   3.466   3.792  0.2896  0.8362  0.5237
  733MOL0     H98915   4.647   3.664   4.184  0.0378  2.1817 -0.8789
  733MOL0     H98916   4.467   3.813   4.425  0.6048  0.8811 -6.0507
  733MOL0     H98917   4.547   3.661   4.495 -1.2174 -0.1261  0.4522
  733MOL0     H98918   4.623   3.767   4.366 -1.8578  2.0028 -3.1978
  733MOL0     H98919   4.053   3.470   4.608  0.0813  0.2871 -2.0270
  733MOL0     H98920   3.882   3.524   4.781 -2.7962 -1.9695 -1.2739
  733MOL0     H98921   3.531   3.770   4.674 -0.0655 -0.5373 -1.0146
  733MOL0     H98922   3.560   3.592   4.647 -0.7986  1.9710 -2.8392
  733MOL0     H98923   3.504   3.576   4.907  0.2891 -0.2010  0.1144
  733MOL0     H98924   3.473   3.744   4.889  2.5707 -0.6229 -0.1088
  733MOL0     H98925   3.327   3.503   4.767  2.2282  0.2015 -0.8852
  733MOL0     H98926   3.309   3.673   4.700  0.7573  0.8134  0.4027
  733MOL0     H98927   3.184   3.708   4.939 -1.2737 -0.6465  2.6831
  733MOL0     H98928   3.118   3.570   4.855 -1.2400  2.2461  0.8216
  733MOL0     H98929   3.320   3.568   5.087 -0.0869  0.6133 -0.9403
  733MOL0     H98930   3.266   3.426   4.999 -0.4481 -0.1978 -1.8839
  733MOL0     H98931   3.055   3.613   5.099  0.7500  0.3694 -0.3389
  733MOL0     H98932   3.040   3.448   5.059 -1.9725  2.0653 -0.0126
  733MOL0     H98933   3.207   3.523   5.310 -1.4333 -1.1911  2.3368
  733MOL0     H98934   3.164   3.366   5.261  2.0039  0.1475 -0.9582
  733MOL0     H98935   2.913   3.475   5.259  1.5670  0.9034 -2.7577
  733MOL0     H98936   2.983   3.605   5.338 -1.9890 -0.4078  0.5415
  733MOL0     H98937   3.733   3.854   4.561  0.0216  0.6040  1.4875
  733MOL0     H98938   3.915   3.816   4.388  1.4098  1.3431  0.3767
  733MOL0     H98939   4.159   3.562   4.177 -0.6558  0.6779  1.1244
  733MOL0     H98940   4.309   3.551   3.962 -0.1041  0.2818 -0.3472
  733MOL0     H98941   6.307   3.366   3.727 -0.0122 -0.2080 -0.4951
  733MOL0     H98942   6.555   3.325   3.647  2.3348  0.8873 -0.8863
  733MOL0     H98943   6.976   3.683   3.665  0.1844 -1.4071  2.1338
  733MOL0     H98944   7.194   3.629   3.659  2.4916 -0.5643 -2.3347
  733MOL0     H98945   7.410   3.605   3.520 -4.7493  0.8696  1.0020
  733MOL0     H98946   7.383   3.541   3.684  0.4654 -1.6620  0.7903
  733MOL0     H98947   7.549   3.352   3.622 -1.1216  0.5623  1.2631
  733MOL0     H98948   7.612   3.509   3.677 -1.7921  1.2113  1.0291
  733MOL0     H98949   7.650   3.572   3.438 -0.1446  1.0138  1.1633
  733MOL0     H98950   7.541   3.441   3.385  0.7647  0.5068 -0.5051
  733MOL0     H98951   7.784   3.378   3.344  0.6904 -2.9453  0.1780
  733MOL0     H98952   7.721   3.285   3.484 -1.9129  0.0022  0.5503
  733MOL0     H98953   7.995   3.551   3.663 -0.9692  3.9517 -3.5720
  733MOL0     H98954   7.123   3.303   3.375 -2.7715 -1.0591  0.0401
  733MOL0     H98955   6.889   3.385   3.376  1.3777  0.4892  0.1821
  734MOL0     O98956   2.924   1.580   3.398  0.1411 -0.1469  0.7464
  734MOL0     C98957   3.040   1.578   3.353  0.0140 -0.1713 -0.6177
  734MOL0     O98958   3.074   1.535   3.225 -0.4671  0.0621 -0.2209
  734MOL0     C98959   2.982   1.479   3.147 -0.0031  0.0221  0.1981
  734MOL0     C98960   2.935   1.356   3.182  0.8522 -0.6330 -0.4348
  734MOL0     C98961   2.827   1.296   3.115  0.1576 -0.2632  0.4173
  734MOL0     C98962   2.772   1.365   2.999  0.3319 -0.0170 -0.2811
  734MOL0     O98963   2.654   1.319   2.943 -0.7002  0.3857  0.7236
  734MOL0     C98964   2.577   1.216   2.995  0.1451  0.1605 -0.3018
  734MOL0     C98965   2.444   1.211   2.922  1.4650  0.2626  0.4806
  734MOL0     C98966   2.333   1.122   2.982 -1.5212  0.3407 -0.1875
  734MOL0     C98967   2.381   0.975   2.983  0.4957  0.8567 -0.2901
  734MOL0     C98968   2.263   0.886   3.019 -0.1073  0.8291 -1.2443
  734MOL0     C98969   2.283   0.736   3.032  0.2882 -0.0953  0.6221
  734MOL0     C98970   2.351   0.700   3.172  0.9325 -0.2743  0.7611
  734MOL0     C98971   2.363   0.546   3.184 -0.0108  0.3006  0.4364
  734MOL0     N98972   2.225   0.496   3.208 -0.6872  1.1238  0.5521
  734MOL0     C98973   2.135   0.439   3.122 -0.5836 -0.0412 -0.8402
  734MOL0     C98974   2.032   0.387   3.200 -0.2710 -0.7928  0.2016
  734MOL0     C98975   1.910   0.301   3.166 -0.2511 -0.6051 -0.1192
  734MOL0     C98976   1.772   0.384   3.143  0.1307  0.1593  0.8271
  734MOL0     C98977   1.773   0.448   2.996  0.2140 -1.0580 -1.6590
  734MOL0     C98978   1.670   0.558   2.983 -0.2153  0.9866  0.0536
  734MOL0     O98979   1.546   0.510   2.937 -0.0534  0.7089  0.4430
  734MOL0     C98980   1.448   0.500   3.035  0.1350  0.7643  0.3794
  734MOL0     C98981   1.320   0.474   2.979  0.0242  0.2561  0.6165
  734MOL0     C98982   1.200   0.469   3.055 -0.0714  0.0463 -0.1031
  734MOL0     C98983   1.074   0.434   2.972  0.5520  0.3445 -0.4505
  734MOL0     C98984   1.209   0.507   3.192 -0.2034  0.0145  0.1341
  734MOL0     C98985   1.095   0.514   3.288 -0.2869 -0.7094 -0.4635
  734MOL0     O98986   1.111   0.596   3.399 -0.1121 -0.0210  0.0240
  734MOL0     C98987   1.022   0.591   3.498  0.1121  0.4375  0.3311
  734MOL0     C98988   1.032   0.491   3.597  0.9644 -1.0101  0.7175
  734MOL0     C98989   0.938   0.484   3.695  0.2086  0.3687  0.1792
  734MOL0     C98990   0.843   0.583   3.717 -0.6323 -0.3934  0.2265
  734MOL0     O98991   0.755   0.568   3.828 -0.2806 -0.1113  0.3554
  734MOL0     C98992   0.666   0.674   3.876  0.3335  0.4475  0.0682
  734MOL0     C98993   0.537   0.703   3.806 -0.4855  0.7503 -0.4441
  734MOL0     C98994   0.509   0.853   3.814  0.4038 -0.0067  0.4910
  734MOL0     C98995   0.354   0.874   3.836 -0.1576  0.3447 -0.7316
  734MOL0     C98996   0.334   1.020   3.869 -0.2725  0.0790 -1.0748
  734MOL0     C98997   0.178   1.048   3.861 -0.2934  0.5706  0.2389
  734MOL0     C98998   0.071   0.968   3.953 -0.9381 -0.3940  0.6337
  734MOL0     C98999  -0.077   1.012   3.921 -0.3069  0.5951 -0.7267
  734MOL0    Cl99000  -0.085   1.177   3.961 -0.3100 -0.0298  0.2652
  734MOL0     C99001   0.830   0.683   3.617  0.2901 -0.3563 -1.4028
  734MOL0     C99002   0.918   0.690   3.509 -0.2184  0.5375 -0.1940
  734MOL0     O99003   0.993   0.452   3.267 -0.2582  0.5687  0.6795
  734MOL0     C99004   1.332   0.522   3.248 -0.2492 -0.5864 -0.8225
  734MOL0     C99005   1.453   0.509   3.174  0.0094  0.0254 -0.0212
  734MOL0     N99006   2.057   0.430   3.332 -0.1486 -0.3972 -0.2923
  734MOL0     N99007   2.169   0.494   3.336 -0.1134  0.1298  0.0788
  734MOL0     C99008   2.813   1.488   2.964 -0.6495  0.3432 -0.2254
  734MOL0     C99009   2.917   1.557   3.041  0.8932  0.6932  0.4270
  734MOL0     C99010   3.154   1.630   3.440 -0.1461  0.4929  0.4988
  734MOL0     C99011   3.283   1.663   3.392 -0.3680  0.2238  0.9092
  734MOL0     C99012   3.387   1.706   3.473  0.2018 -0.3214 -0.4865
  734MOL0     C99013   3.367   1.717   3.611  0.4900 -0.6118 -0.0297
  734MOL0     O99014   3.448   1.776   3.707 -0.5198 -0.9234 -0.4876
  734MOL0     C99015   3.593   1.783   3.698  0.2240  0.2044  0.2866
  734MOL0     C99016   3.651   1.649   3.725 -0.4086  0.4178  0.2361
  734MOL0     C99017   3.806   1.655   3.750 -0.2542 -0.7606 -1.0022
  734MOL0     C99018   3.879   1.522   3.738  0.6243 -0.2430  0.0379
  734MOL0     C99019   4.020   1.534   3.788 -0.7028  0.3108  0.6670
  734MOL0     C99020   4.129   1.536   3.843 -0.9893  0.1668  0.3985
  734MOL0     C99021   3.245   1.678   3.660  0.3546  0.0811 -0.0979
  734MOL0     C99022   3.137   1.640   3.578  0.5792 -0.4154 -0.5585
  734MOL0     H99023   2.986   1.298   3.259 -0.5688 -0.9038  0.3288
  734MOL0     H99024   2.787   1.203   3.154 -1.2468 -0.9570 -2.3988
  734MOL0     H99025   2.628   1.121   2.975  1.6673  0.4878  1.7299
  734MOL0     H99026   2.554   1.227   3.101  0.7542  0.4257 -0.1928
  734MOL0     H99027   2.405   1.314   2.925 -0.5364 -0.3243 -1.8819
  734MOL0     H99028   2.466   1.177   2.820  2.6503  0.9822  0.4781
  734MOL0     H99029   2.316   1.164   3.081 -0.2666 -1.8366  1.0335
  734MOL0     H99030   2.241   1.137   2.926 -2.6280  1.7851  1.9128
  734MOL0     H99031   2.402   0.945   2.880 -0.8600  1.7839 -0.8633
  734MOL0     H99032   2.468   0.967   3.049  1.6101 -0.9223 -1.8984
  734MOL0     H99033   2.232   0.917   3.119 -0.2069  1.1263 -1.3651
  734MOL0     H99034   2.173   0.900   2.959 -0.7102 -0.1030 -0.5832
  734MOL0     H99035   2.187   0.685   3.022  1.0075 -1.1042 -1.7823
  734MOL0     H99036   2.347   0.701   2.950  1.0840  1.7185  0.4051
  734MOL0     H99037   2.441   0.759   3.189  1.5862 -1.4023  1.3192
  734MOL0     H99038   2.287   0.739   3.252  0.6130  0.7762  0.0112
  734MOL0     H99039   2.431   0.521   3.266 -3.0013 -0.9245  2.7805
  734MOL0     H99040   2.402   0.496   3.095  0.1954 -0.4546  0.9429
  734MOL0     H99041   2.165   0.410   3.022  0.8743 -0.7128 -0.2452
  734MOL0     H99042   1.939   0.232   3.086 -1.9169 -3.2941  1.4470
  734MOL0     H99043   1.901   0.246   3.260  2.5028 -0.0046  0.5909
  734MOL0     H99044   1.752   0.460   3.219 -1.2834  0.6216  0.0404
  734MOL0     H99045   1.685   0.317   3.145  0.9885 -0.9785  1.2692
  734MOL0     H99046   1.757   0.372   2.918 -0.6090 -2.5232 -0.1397
  734MOL0     H99047   1.871   0.496   2.989 -0.8428  1.5457  0.0021
  734MOL0     H99048   1.707   0.629   2.908  1.6224  1.6074  1.4605
  734MOL0     H99049   1.667   0.616   3.075 -0.0377  0.3031  0.4973
  734MOL0     H99050   1.318   0.459   2.872  2.6445  0.8782  0.4118
  734MOL0     H99051   0.986   0.478   3.020 -0.5769 -0.0742 -2.0603
  734MOL0     H99052   1.084   0.477   2.872  0.4767 -2.5001 -1.7736
  734MOL0     H99053   1.069   0.325   2.969 -4.1594  0.3798 -0.7888
  734MOL0     H99054   1.107   0.412   3.593  2.8446  0.6351  1.4353
  734MOL0     H99055   0.947   0.421   3.783 -1.0480  1.2015  0.9411
  734MOL0     H99056   0.638   0.636   3.975  0.0135 -3.1282 -1.2443
  734MOL0     H99057   0.725   0.766   3.881  0.8305  0.1235  0.2973
  734MOL0     H99058   0.557   0.665   3.706  1.6944 -2.6638  1.1227
  734MOL0     H99059   0.454   0.639   3.837 -0.2979  0.7442  0.0535
  734MOL0     H99060   0.524   0.890   3.713 -0.3318  1.9402  1.0534
  734MOL0     H99061   0.571   0.903   3.890  1.5530  0.3638 -0.6604
  734MOL0     H99062   0.298   0.839   3.749  0.9248 -0.4901 -1.1098
  734MOL0     H99063   0.321   0.823   3.927 -0.1635  1.9105  0.1990
  734MOL0     H99064   0.378   1.084   3.792 -1.2261 -2.3763 -3.8294
  734MOL0     H99065   0.377   1.044   3.967 -1.9033  1.2023 -0.5906
  734MOL0     H99066   0.165   1.153   3.888  0.7909  0.1027  2.8821
  734MOL0     H99067   0.158   1.024   3.756  2.3695 -1.2539  0.0634
  734MOL0     H99068   0.098   0.999   4.054  0.2635  1.3372 -0.1594
  734MOL0     H99069   0.093   0.864   3.931 -0.3809 -0.1727  0.1186
  734MOL0     H99070  -0.154   0.953   3.973  0.5345 -1.4142 -1.6398
  734MOL0     H99071  -0.092   1.000   3.813  1.8842 -1.6174 -0.8625
  734MOL0     H99072   0.758   0.764   3.625 -2.0159 -2.3472 -0.6188
  734MOL0     H99073   0.918   0.756   3.423  0.3318  1.3212  0.3956
  734MOL0     H99074   1.338   0.548   3.354 -0.8390 -2.4275 -0.2974
  734MOL0     H99075   1.545   0.530   3.228  0.3120  2.4847 -1.3408
  734MOL0     H99076   2.777   1.548   2.881  0.3609  3.5787  1.4989
  734MOL0     H99077   2.935   1.662   3.024  1.3498  0.4541 -0.6841
  734MOL0     H99078   3.297   1.658   3.285 -0.7384  1.0059  0.8194
  734MOL0     H99079   3.489   1.724   3.440  1.2174 -2.1032  1.4247
  734MOL0     H99080   3.632   1.823   3.605  0.3878  2.4768  1.2722
  734MOL0     H99081   3.631   1.849   3.776  0.0447 -0.5869  1.0751
  734MOL0     H99082   3.635   1.588   3.636  1.9185 -2.1356  1.3999
  734MOL0     H99083   3.605   1.593   3.807  0.8950  1.4374  1.7586
  734MOL0     H99084   3.825   1.696   3.850  0.3531 -1.7068 -0.7142
  734MOL0     H99085   3.849   1.733   3.686 -1.1424 -0.9279 -1.8175
  734MOL0     H99086   3.865   1.490   3.634  1.4222  1.0357 -0.4803
  734MOL0     H99087   3.833   1.452   3.808 -0.2685  0.2726 -0.0133
  734MOL0     H99088   4.223   1.549   3.891 -1.1728 -1.8562  1.3967
  734MOL0     H99089   3.236   1.673   3.768  1.3119 -0.4866 -0.0418
  734MOL0     H99090   3.040   1.613   3.621 -0.4963  2.8423 -0.7090
  735MOL0     O99091   6.233   6.174   7.432  0.0863 -0.3394  0.0951
  735MOL0     C99092   6.313   6.259   7.481 -0.6868 -0.0088  0.8453
  735MOL0     O99093   6.303   6.315   7.604  0.4322  0.2650  0.9222
  735MOL0     C99094   6.184   6.299   7.661  0.2450  0.5748 -0.6486
  735MOL0     C99095   6.155   6.197   7.757  0.0609 -0.1995 -0.1427
  735MOL0     C99096   6.033   6.188   7.822  0.4635 -0.1928  0.6267
  735MOL0     C99097   5.930   6.274   7.782  0.4186  1.2604  0.3966
  735MOL0     O99098   5.805   6.263   7.853 -0.1510  0.0995  0.0443
  735MOL0     C99099   5.696   6.355   7.821  0.4586  0.2987  0.2641
  735MOL0     C99100   5.604   6.347   7.944 -0.4845  0.2275 -1.2125
  735MOL0     C99101   5.537   6.212   7.954  0.0638 -0.0859 -0.7999
  735MOL0     C99102   5.431   6.214   8.066 -0.0071  0.4717  0.1249
  735MOL0     C99103   5.291   6.221   8.021  0.2030  0.6920 -0.0048
  735MOL0     C99104   5.193   6.182   8.129  0.1059  0.4764 -0.6293
  735MOL0     C99105   5.049   6.178   8.095  0.0447 -0.1363 -0.4240
  735MOL0     C99106   4.965   6.222   8.217 -0.4358 -0.0477  0.3738
  735MOL0     N99107   4.824   6.220   8.181  0.0050  0.0696 -0.5583
  735MOL0     C99108   4.747   6.107   8.176 -0.8428  0.3371  0.6137
  735MOL0     C99109   4.631   6.149   8.132 -0.0191  0.9869 -0.0354
  735MOL0     C99110   4.522   6.052   8.092 -0.0158  0.2168 -0.3644
  735MOL0     C99111   4.388   6.112   8.081  0.3553  0.2723 -0.3921
  735MOL0     C99112   4.263   6.024   8.051  0.3046  0.6747 -0.4480
  735MOL0     C99113   4.218   5.942   8.170  0.5316  0.2502  0.0030
  735MOL0     O99114   4.110   5.860   8.126 -0.1666 -0.4137  0.6506
  735MOL0     C99115   4.017   5.807   8.210  0.8750 -0.1942  0.3177
  735MOL0     C99116   3.905   5.753   8.147  0.8955  0.0232  0.2885
  735MOL0     C99117   3.808   5.674   8.213  0.3752  0.0293 -0.2697
  735MOL0     C99118   3.715   5.603   8.122  0.9229 -0.3720 -0.1575
  735MOL0     C99119   3.808   5.661   8.358 -0.3670 -0.4107  1.0394
  735MOL0     C99120   3.712   5.592   8.437  0.1340  0.9223  0.1043
  735MOL0     O99121   3.764   5.527   8.537 -0.1947 -0.2834 -0.3757
  735MOL0     C99122   3.680   5.445   8.612 -1.3483  0.3970 -0.4824
  735MOL0     C99123   3.708   5.309   8.595  0.0519  1.5722  0.2206
  735MOL0     C99124   3.642   5.207   8.668 -0.7707 -0.3067 -0.0820
  735MOL0     C99125   3.549   5.253   8.765 -0.6969 -0.4909  0.5066
  735MOL0     O99126   3.499   5.172   8.860  0.4733  0.3643 -0.4083
  735MOL0     C99127   3.508   5.030   8.840 -0.8410  0.0261  0.6051
  735MOL0     C99128   3.424   4.956   8.939 -0.3089  0.0577 -0.5505
  735MOL0     C99129   3.278   5.007   8.950  0.6631  0.2115  0.0869
  735MOL0     C99130   3.188   4.926   9.052  0.6956  0.5027  0.7390
  735MOL0     C99131   3.042   4.956   9.010 -0.0524  0.3357 -0.0851
  735MOL0     C99132   2.940   4.880   9.104  0.0076 -0.5925 -0.0096
  735MOL0     C99133   2.800   4.902   9.062 -0.4396  0.0638  0.5823
  735MOL0     C99134   2.702   4.876   9.165 -0.4096 -0.2992 -0.3454
  735MOL0    Cl99135   2.727   4.974   9.316 -0.3826 -0.1990  0.4017
  735MOL0     C99136   3.511   5.385   8.779  0.1655 -0.2500  0.8101
  735MOL0     C99137   3.579   5.484   8.702 -0.5530 -0.4404  0.4373
  735MOL0     O99138   3.591   5.596   8.401  0.4055  0.2594 -0.0430
  735MOL0     C99139   3.910   5.742   8.424 -0.2056 -0.3329  0.5749
  735MOL0     C99140   4.014   5.804   8.354 -0.7364 -0.6125  0.5336
  735MOL0     N99141   4.632   6.283   8.115 -0.0989 -0.4727 -0.3644
  735MOL0     N99142   4.754   6.329   8.143 -0.5847  0.3183  0.2748
  735MOL0     C99143   5.949   6.365   7.676 -0.5495 -0.5411  0.2009
  735MOL0     C99144   6.076   6.377   7.618 -0.3045 -0.8466 -0.6564
  735MOL0     C99145   6.434   6.283   7.403  0.4181  0.2101 -0.7670
  735MOL0     C99146   6.499   6.399   7.426  0.4866 -0.0399 -0.6320
  735MOL0     C99147   6.630   6.428   7.368 -0.5151 -0.1800 -0.4087
  735MOL0     C99148   6.698   6.334   7.293  0.7227 -0.3384  0.7008
  735MOL0     O99149   6.821   6.367   7.247  0.2048 -0.1435 -0.2088
  735MOL0     C99150   6.859   6.336   7.109  0.2796 -0.8238 -0.3944
  735MOL0     C99151   6.946   6.450   7.045 -0.4356 -1.1624 -0.4880
  735MOL0     C99152   6.953   6.426   6.904  0.1548  0.2807  0.0779
  735MOL0     C99153   7.068   6.505   6.845  0.5293  0.2431 -0.6813
  735MOL0     C99154   7.056   6.647   6.862  0.2179 -0.4470 -0.5603
  735MOL0     C99155   7.070   6.767   6.877  1.0998  0.0582 -0.3163
  735MOL0     C99156   6.633   6.211   7.276 -0.3124 -0.3036 -0.6363
  735MOL0     C99157   6.503   6.187   7.328  0.3261  0.2294  1.1554
  735MOL0     H99158   6.226   6.118   7.777 -0.1090 -0.1836  0.5527
  735MOL0     H99159   6.016   6.111   7.897 -0.4568 -2.1678 -1.4666
  735MOL0     H99160   5.728   6.459   7.812 -2.5133  1.2498 -0.3485
  735MOL0     H99161   5.654   6.329   7.723  1.7048  0.2200 -0.2723
  735MOL0     H99162   5.652   6.372   8.039 -0.3722 -3.9540  0.0126
  735MOL0     H99163   5.527   6.425   7.942 -0.4244  0.3075 -0.5624
  735MOL0     H99164   5.493   6.179   7.859 -2.9833 -1.4919  0.9729
  735MOL0     H99165   5.615   6.146   7.990  0.9391  1.5678  0.4973
  735MOL0     H99166   5.443   6.121   8.121  0.5693  0.2620 -0.3399
  735MOL0     H99167   5.442   6.301   8.131  0.2597  0.1674  0.4869
  735MOL0     H99168   5.271   6.321   7.982  1.6076 -0.0952 -2.9718
  735MOL0     H99169   5.279   6.154   7.936  2.3091  3.0705 -2.3393
  735MOL0     H99170   5.209   6.082   8.170  0.7969 -0.0244 -2.0379
  735MOL0     H99171   5.209   6.257   8.207 -0.4597  1.3933 -1.3733
  735MOL0     H99172   5.030   6.247   8.013 -3.7237  2.4308  2.2840
  735MOL0     H99173   5.028   6.074   8.065  2.8980 -0.6021 -1.1223
  735MOL0     H99174   5.006   6.314   8.260  2.0979 -1.5217  1.3609
  735MOL0     H99175   4.966   6.152   8.302  1.2416  0.5723  0.9023
  735MOL0     H99176   4.788   6.007   8.189  0.1768  0.0009 -3.5911
  735MOL0     H99177   4.555   5.991   8.007  0.9838  2.1054 -1.3876
  735MOL0     H99178   4.523   5.978   8.173 -0.3551  0.6266  0.0150
  735MOL0     H99179   4.394   6.187   8.000  0.2129 -0.7629 -1.3894
  735MOL0     H99180   4.360   6.167   8.171 -0.1313  1.4955 -1.2501
  735MOL0     H99181   4.286   5.961   7.964  0.0008 -0.3522  0.2061
  735MOL0     H99182   4.178   6.089   8.028  0.9768  1.3857 -1.0027
  735MOL0     H99183   4.181   5.996   8.258 -1.1943  0.1687 -0.6313
  735MOL0     H99184   4.298   5.875   8.204  0.6570 -0.2758 -1.2960
  735MOL0     H99185   3.898   5.773   8.040  1.1773  0.2738  0.3160
  735MOL0     H99186   3.713   5.494   8.135 -0.0445 -0.6213 -2.0370
  735MOL0     H99187   3.616   5.650   8.122  1.8126  1.6929 -2.0437
  735MOL0     H99188   3.752   5.614   8.020 -3.1256  2.0477 -1.5974
  735MOL0     H99189   3.773   5.280   8.513 -1.2596 -0.6960 -0.1160
  735MOL0     H99190   3.679   5.105   8.662  2.4777  0.7056  0.9185
  735MOL0     H99191   3.487   4.989   8.740 -1.6236  1.4007  0.1890
  735MOL0     H99192   3.615   5.009   8.853 -0.0872  0.4259 -3.4787
  735MOL0     H99193   3.416   4.850   8.913 -4.3819  0.2658 -0.8335
  735MOL0     H99194   3.475   4.957   9.035 -2.2236 -2.6673  0.6138
  735MOL0     H99195   3.234   4.990   8.851 -1.1686 -0.4323  0.9688
  735MOL0     H99196   3.279   5.110   8.986  2.3806 -1.0323  4.2071
  735MOL0     H99197   3.198   4.818   9.037 -1.4415  0.0228  2.3157
  735MOL0     H99198   3.209   4.955   9.156 -1.5742 -1.0515  1.6902
  735MOL0     H99199   3.017   4.923   8.908 -0.1746  0.2448 -0.0265
  735MOL0     H99200   3.035   5.065   9.000 -1.7108  0.0908 -2.5485
  735MOL0     H99201   2.956   4.772   9.115  0.8244 -0.3008  2.2578
  735MOL0     H99202   2.964   4.924   9.202  1.3978 -1.2036 -0.0520
  735MOL0     H99203   2.787   4.852   8.965  0.2962  0.8072  0.0881
  735MOL0     H99204   2.791   5.008   9.036  2.1152 -0.1199 -1.4447
  735MOL0     H99205   2.696   4.768   9.181  2.3615 -0.5896 -0.7324
  735MOL0     H99206   2.601   4.902   9.133 -0.4434  0.6403  0.4833
  735MOL0     H99207   3.429   5.418   8.841 -1.4007 -0.7190 -0.9000
  735MOL0     H99208   3.547   5.588   8.710 -1.9472 -0.5229 -2.7315
  735MOL0     H99209   3.900   5.761   8.531  0.2845  3.5486  0.0894
  735MOL0     H99210   4.079   5.866   8.414  0.7833 -1.0936 -0.5729
  735MOL0     H99211   5.877   6.437   7.639  0.0218 -0.6167 -1.0754
  735MOL0     H99212   6.090   6.446   7.535  1.3069 -2.8913 -2.2064
  735MOL0     H99213   6.449   6.478   7.481 -1.6975 -1.3512 -0.6070
  735MOL0     H99214   6.677   6.522   7.397 -1.9145  0.4909 -0.2305
  735MOL0     H99215   6.906   6.237   7.105 -2.2635 -2.2694  1.8122
  735MOL0     H99216   6.769   6.333   7.047  0.6924  1.3558 -1.1753
  735MOL0     H99217   7.042   6.453   7.098 -1.2873  0.3814  1.0757
  735MOL0     H99218   6.900   6.548   7.054  0.3624 -0.6865 -1.4383
  735MOL0     H99219   6.857   6.451   6.859  2.0417  1.0531 -3.9366
  735MOL0     H99220   6.962   6.320   6.879  2.2332  0.1592  1.0961
  735MOL0     H99221   7.069   6.485   6.737 -1.6342  1.6731 -1.0308
  735MOL0     H99222   7.156   6.459   6.890  0.4092  0.9461  0.3047
  735MOL0     H99223   7.063   6.873   6.884  0.6031 -0.0468  1.0789
  735MOL0     H99224   6.680   6.141   7.209  1.6627 -0.2214  0.5661
  735MOL0     H99225   6.466   6.085   7.323  1.9696 -0.3306 -0.7300
  736MOL0     O99226   7.178   9.022   8.784 -0.0768  0.3002  0.0839
  736MOL0     C99227   7.071   8.989   8.841 -0.5846  0.3999  0.5247
  736MOL0     O99228   7.069   8.909   8.951 -0.3978  0.0338 -0.0644
  736MOL0     C99229   7.186   8.892   9.019 -0.2411 -0.0293  0.4138
  736MOL0     C99230   7.243   8.984   9.107 -0.4398 -0.4634 -0.0211
  736MOL0     C99231   7.351   8.949   9.187  0.3596 -0.0078  0.5997
  736MOL0     C99232   7.410   8.827   9.171 -0.0094  0.1245  0.5664
  736MOL0     O99233   7.523   8.791   9.250  0.6267 -0.4455  0.4492
  736MOL0     C99234   7.602   8.674   9.225 -0.7908 -0.9551 -0.2571
  736MOL0     C99235   7.725   8.681   9.311 -0.2311  0.1174  0.6018
  736MOL0     C99236   7.814   8.559   9.294  0.0007  0.2340  1.4522
  736MOL0     C99237   7.951   8.605   9.328 -1.2253 -0.2224 -0.5348
  736MOL0     C99238   8.052   8.489   9.310 -0.9679 -0.2422 -0.5257
  736MOL0     C99239   8.191   8.511   9.367  0.2475 -1.1332  0.0985
  736MOL0     C99240   8.270   8.382   9.378 -0.4890 -0.7787 -0.5785
  736MOL0     C99241   8.299   8.330   9.243 -0.3855  0.4458 -0.5922
  736MOL0     N99242   8.401   8.222   9.235  0.5037 -0.1667 -0.6766
  736MOL0     C99243   8.390   8.123   9.150 -0.2676  0.1814 -0.1991
  736MOL0     C99244   8.510   8.063   9.160  1.0877 -0.8623  0.2368
  736MOL0     C99245   8.557   7.954   9.076 -1.0236  0.1878  0.0918
  736MOL0     C99246   8.634   8.028   8.974  0.2878  0.1320 -0.5077
  736MOL0     C99247   8.670   7.918   8.872 -1.4659 -1.2257  0.8612
  736MOL0     C99248   8.821   7.951   8.826  0.2383 -0.4876 -0.4413
  736MOL0     O99249   8.904   7.910   8.929 -0.1238 -0.3968  0.0104
  736MOL0     C99250   8.963   7.786   8.898 -0.4218 -0.1001  0.4314
  736MOL0     C99251   8.933   7.664   8.959 -0.0080 -1.0336  0.4373
  736MOL0     C99252   8.992   7.547   8.918  0.0204 -0.4053 -0.4650
  736MOL0     C99253   8.943   7.416   8.972 -0.1189 -0.5680 -0.2174
  736MOL0     C99254   9.103   7.548   8.833  0.4942 -0.7090 -0.2729
  736MOL0     C99255   9.179   7.423   8.779 -0.1128  0.6273 -0.4862
  736MOL0     O99256   9.312   7.445   8.741 -0.2304  0.4835 -0.2072
  736MOL0     C99257   9.401   7.352   8.787 -0.6406 -0.0834 -0.3250
  736MOL0     C99258   9.389   7.256   8.893 -0.1944  0.3575  0.0216
  736MOL0     C99259   9.503   7.184   8.933  0.8361 -0.8829  0.2634
  736MOL0     C99260   9.632   7.219   8.882 -0.4272  0.4822 -0.4194
  736MOL0     O99261   9.746   7.166   8.934  0.7733  0.1415 -0.2514
  736MOL0     C99262   9.748   7.092   9.061 -0.3071  0.0649 -0.4061
  736MOL0     C99263   9.891   7.073   9.100 -0.1930 -0.1476 -0.9043
  736MOL0     C99264   9.920   6.990   9.228 -0.2455  0.4851 -0.5577
  736MOL0     C99265  10.067   6.965   9.256 -0.0305 -0.4589  0.4258
  736MOL0     C99266  10.109   6.912   9.398 -0.6412 -0.6852 -0.0942
  736MOL0     C99267  10.267   6.905   9.397 -0.2233 -0.6149 -0.6026
  736MOL0     C99268  10.339   6.827   9.508  0.0888 -0.5755 -0.6674
  736MOL0     C99269  10.287   6.681   9.510  0.2604 -0.2198  0.5712
  736MOL0    Cl99270  10.270   6.610   9.337 -0.2885 -0.0113  0.4515
  736MOL0     C99271   9.638   7.315   8.785 -0.1902 -0.0971  0.0306
  736MOL0     C99272   9.523   7.374   8.731 -0.1200 -0.6026  0.0920
  736MOL0     O99273   9.119   7.320   8.764 -0.5466  0.0512 -0.1589
  736MOL0     C99274   9.143   7.673   8.775 -0.1564  0.3714 -0.0434
  736MOL0     C99275   9.069   7.788   8.808  0.7432  0.3276 -0.4448
  736MOL0     N99276   8.586   8.132   9.253 -0.7534 -0.0432  0.1008
  736MOL0     N99277   8.517   8.228   9.303  1.1548 -0.3950  0.1668
  736MOL0     C99278   7.357   8.739   9.079 -1.2412 -0.0422  0.1746
  736MOL0     C99279   7.243   8.768   9.011  0.0634 -0.3269 -0.4616
  736MOL0     C99280   6.937   9.014   8.775  0.1779 -0.1811  0.7221
  736MOL0     C99281   6.812   8.972   8.829 -0.3245 -0.8563 -0.1050
  736MOL0     C99282   6.685   9.016   8.775  0.7982  0.5876 -0.3044
  736MOL0     C99283   6.684   9.086   8.650  0.5135  0.0845 -0.5185
  736MOL0     O99284   6.568   9.121   8.586 -0.8367  0.2709  1.1477
  736MOL0     C99285   6.449   9.171   8.655 -0.4555 -0.4748 -0.1055
  736MOL0     C99286   6.337   9.191   8.545  0.5465 -0.1039 -0.2228
  736MOL0     C99287   6.230   9.289   8.603 -1.0126  0.0051 -0.6334
  736MOL0     C99288   6.126   9.319   8.498  0.0961  0.7856 -0.4245
  736MOL0     C99289   6.039   9.427   8.529  0.2309 -0.1336 -0.3133
  736MOL0     C99290   5.964   9.522   8.538 -0.2801  0.5488  0.0096
  736MOL0     C99291   6.807   9.121   8.599 -0.0373  1.4191  1.2205
  736MOL0     C99292   6.929   9.091   8.654  0.6182  0.3149 -0.1380
  736MOL0     H99293   7.218   9.090   9.105 -0.6412 -0.4884  0.8834
  736MOL0     H99294   7.404   9.023   9.246  1.8144 -0.5040 -0.0449
  736MOL0     H99295   7.542   8.586   9.248 -0.1997 -0.9650  1.3691
  736MOL0     H99296   7.631   8.697   9.122 -2.1587 -2.0142 -0.9063
  736MOL0     H99297   7.772   8.780   9.310 -1.5490  0.7616  0.2133
  736MOL0     H99298   7.686   8.680   9.413  0.2003 -0.8121  0.7696
  736MOL0     H99299   7.779   8.479   9.359 -3.2476  1.9659  2.0210
  736MOL0     H99300   7.808   8.536   9.187  0.4152 -0.9851  1.6728
  736MOL0     H99301   7.980   8.689   9.264 -1.6640 -0.0208 -0.4686
  736MOL0     H99302   7.947   8.620   9.436  2.0641 -2.2678  0.0019
  736MOL0     H99303   8.004   8.400   9.350 -0.9055 -0.1864 -0.3257
  736MOL0     H99304   8.064   8.473   9.202  0.3733  1.1941 -0.6390
  736MOL0     H99305   8.233   8.598   9.316  1.4365 -1.3934  0.5993
  736MOL0     H99306   8.184   8.532   9.474  1.2625 -1.5334  0.2551
  736MOL0     H99307   8.367   8.404   9.424  0.3842 -1.7235 -1.8906
  736MOL0     H99308   8.216   8.311   9.441 -3.6125  1.3914 -0.5731
  736MOL0     H99309   8.340   8.413   9.185  2.5161 -0.3391  0.1718
  736MOL0     H99310   8.204   8.306   9.194 -2.5053  1.1908  2.7785
  736MOL0     H99311   8.311   8.105   9.078  2.9099 -0.0096 -3.9677
  736MOL0     H99312   8.620   7.884   9.132 -1.0025  0.1318 -0.0022
  736MOL0     H99313   8.470   7.907   9.030  1.0479 -3.3539 -0.5939
  736MOL0     H99314   8.723   8.073   9.021 -0.3340 -2.6131  3.8338
  736MOL0     H99315   8.571   8.110   8.938 -2.6839 -1.0324  1.6209
  736MOL0     H99316   8.600   7.924   8.787 -0.1664  1.4991 -0.1263
  736MOL0     H99317   8.671   7.817   8.912 -0.6403 -0.7982  1.9569
  736MOL0     H99318   8.819   8.060   8.818 -0.8425 -0.4809 -0.2998
  736MOL0     H99319   8.843   7.905   8.729  1.5605  1.2989 -1.0329
  736MOL0     H99320   8.865   7.660   9.043 -0.5530  3.0309  0.3713
  736MOL0     H99321   9.020   7.363   9.029  0.6622  0.5550 -0.1836
  736MOL0     H99322   8.856   7.424   9.039 -1.0350 -2.4331 -1.1253
  736MOL0     H99323   8.913   7.352   8.889 -4.0918 -0.6659  1.0670
  736MOL0     H99324   9.302   7.230   8.953 -1.9689  3.6477 -0.9250
  736MOL0     H99325   9.494   7.117   9.018  1.2822 -0.9975  0.2240
  736MOL0     H99326   9.685   7.138   9.137 -0.4305 -1.6565  0.5611
  736MOL0     H99327   9.705   6.992   9.056 -0.3527  0.0614  0.0907
  736MOL0     H99328   9.948   7.043   9.012 -0.8784 -1.6391 -0.8691
  736MOL0     H99329   9.932   7.173   9.119  0.4567 -0.3828 -1.0514
  736MOL0     H99330   9.865   6.895   9.227  1.4527 -0.5247 -1.0116
  736MOL0     H99331   9.889   7.055   9.310  1.3048 -0.5877  0.9482
  736MOL0     H99332  10.117   6.911   9.175  2.4736 -1.3958  2.4770
  736MOL0     H99333  10.116   7.063   9.252 -1.3382  0.2874  1.6246
  736MOL0     H99334  10.059   6.815   9.404 -0.4245 -0.7980 -0.1247
  736MOL0     H99335  10.065   6.962   9.485 -1.0287 -2.7599  0.9658
  736MOL0     H99336  10.301   6.868   9.301  1.7923  5.7578 -2.8510
  736MOL0     H99337  10.302   7.009   9.403 -0.3303 -0.5812 -0.5438
  736MOL0     H99338  10.349   6.873   9.606  2.1764 -4.6294  1.2462
  736MOL0     H99339  10.441   6.812   9.471  1.3330  1.0955  1.8042
  736MOL0     H99340  10.186   6.683   9.552  0.9218  2.0474  2.2475
  736MOL0     H99341  10.345   6.622   9.581 -0.2908 -2.0339 -0.4086
  736MOL0     H99342   9.743   7.337   8.765  0.3078  1.4631  3.5080
  736MOL0     H99343   9.531   7.444   8.648  5.1650 -3.0674 -1.9565
  736MOL0     H99344   9.215   7.678   8.694  1.3783  0.1988  1.2691
  736MOL0     H99345   9.087   7.883   8.759 -1.9171  1.4410  0.5421
  736MOL0     H99346   7.398   8.642   9.049  0.2404  1.4637 -3.1832
  736MOL0     H99347   7.185   8.689   8.964 -1.0232 -1.1780  2.1690
  736MOL0     H99348   6.806   8.917   8.923  0.3971 -1.0674 -0.1747
  736MOL0     H99349   6.588   8.983   8.811  1.5804 -0.9621  0.4881
  736MOL0     H99350   6.419   9.101   8.734  1.1979 -0.0962  0.9093
  736MOL0     H99351   6.481   9.268   8.696  0.0930  0.4626 -2.6033
  736MOL0     H99352   6.285   9.098   8.519  0.1674  0.4712 -1.5809
  736MOL0     H99353   6.384   9.249   8.466  2.4211  2.0432  2.2779
  736MOL0     H99354   6.262   9.387   8.636  1.0423 -0.8566  0.0669
  736MOL0     H99355   6.175   9.244   8.687  2.2546 -1.0545  1.1177
  736MOL0     H99356   6.062   9.230   8.495 -2.3773  2.3723  1.4927
  736MOL0     H99357   6.177   9.353   8.407  0.1736  0.2708 -0.5750
  736MOL0     H99358   5.891   9.598   8.556 -4.1789 -2.7614 -0.3012
  736MOL0     H99359   6.803   9.170   8.502  2.4894  1.5082  1.0982
  736MOL0     H99360   7.017   9.139   8.611  0.1965  0.7914 -0.4889
  737MOL0     O99361   5.172   8.108   8.740 -0.3454 -0.7071  0.7482
  737MOL0     C99362   5.072   8.063   8.796 -0.2507  0.9749 -0.6837
  737MOL0     O99363   5.071   8.010   8.916  0.0224 -0.1704  0.5631
  737MOL0     C99364   5.186   8.006   8.984 -0.5131 -0.3932 -0.6776
  737MOL0     C99365   5.297   7.944   8.938  0.2281 -0.0881  0.1351
  737MOL0     C99366   5.424   7.962   9.003 -0.1095  0.8652 -0.0885
  737MOL0     C99367   5.419   8.030   9.128 -0.2447  0.4657 -0.0843
  737MOL0     O99368   5.528   8.066   9.207  0.4209  0.0269 -0.1424
  737MOL0     C99369   5.648   8.004   9.171 -0.9213  0.1393  0.5670
  737MOL0     C99370   5.640   7.857   9.219 -0.8365 -0.0736  0.9918
  737MOL0     C99371   5.778   7.783   9.208 -0.1570 -0.2410  0.2699
  737MOL0     C99372   5.769   7.643   9.264  0.0463 -0.4152 -0.1293
  737MOL0     C99373   5.751   7.640   9.421 -0.1434  0.1745 -0.1672
  737MOL0     C99374   5.768   7.505   9.481  0.4911 -1.0174 -0.1547
  737MOL0     C99375   5.704   7.483   9.623 -0.4496  0.2538  0.4228
  737MOL0     C99376   5.565   7.422   9.596 -0.0159 -0.3671  0.6576
  737MOL0     N99377   5.504   7.380   9.724  0.5802 -0.3779 -0.2774
  737MOL0     C99378   5.464   7.458   9.832 -0.3690 -1.5145  0.9969
  737MOL0     C99379   5.401   7.375   9.917 -0.1716 -0.4344 -0.0621
  737MOL0     C99380   5.359   7.406  10.054  0.0081 -0.8595 -0.0346
  737MOL0     C99381   5.243   7.508  10.053 -0.1405  0.0692  0.6982
  737MOL0     C99382   5.126   7.442   9.977  0.5575  0.5351 -0.1311
  737MOL0     C99383   4.978   7.503   9.984  0.6401 -0.2410  0.1366
  737MOL0     O99384   4.882   7.406  10.028 -0.8919 -0.5875  0.2130
  737MOL0     C99385   4.756   7.436  10.023  0.5221 -0.3172 -0.1901
  737MOL0     C99386   4.671   7.333  10.068 -0.0530 -0.4038  0.2083
  737MOL0     C99387   4.530   7.345  10.073  0.4431 -1.1509  0.8394
  737MOL0     C99388   4.448   7.236  10.116 -0.8189  0.9014 -0.9871
  737MOL0     C99389   4.474   7.472  10.025 -0.5491 -0.0808 -0.0737
  737MOL0     C99390   4.323   7.494  10.013  0.2647  0.1233  0.3146
  737MOL0     O99391   4.283   7.606   9.930 -0.1663  0.1959  0.8508
  737MOL0     C99392   4.150   7.628   9.904 -0.6255  0.0206 -0.6519
  737MOL0     C99393   4.098   7.753   9.935  1.1728  0.0062 -0.1473
  737MOL0     C99394   3.959   7.776   9.941  0.0626 -0.2154 -0.2485
  737MOL0     C99395   3.878   7.677   9.886 -0.0289 -0.1784  0.0079
  737MOL0     O99396   3.746   7.707   9.880  0.5753 -0.7189  0.2249
  737MOL0     C99397   3.659   7.626   9.804  0.2225  0.3094 -0.0172
  737MOL0     C99398   3.523   7.699   9.792  0.1072 -0.5293 -0.4058
  737MOL0     C99399   3.455   7.744   9.927 -0.1052 -0.3914  0.1645
  737MOL0     C99400   3.397   7.622   9.990  0.2194 -0.0821 -0.6268
  737MOL0     C99401   3.302   7.660  10.099  0.2500  0.4554  0.2029
  737MOL0     C99402   3.283   7.544  10.201 -0.5129 -0.4823 -0.5020
  737MOL0     C99403   3.168   7.571  10.295  0.3712 -0.3887 -0.1724
  737MOL0     C99404   3.141   7.454  10.385  0.1289  0.1250  0.4293
  737MOL0    Cl99405   3.037   7.330  10.303  0.4169  0.0680  0.0387
  737MOL0     C99406   3.930   7.557   9.835 -0.1720 -0.0422 -0.6925
  737MOL0     C99407   4.067   7.531   9.846 -0.1522  0.1651 -0.3273
  737MOL0     O99408   4.244   7.422  10.066  0.0915  0.4808  0.1455
  737MOL0     C99409   4.566   7.574   9.983  0.8558 -0.4401  0.1814
  737MOL0     C99410   4.701   7.557   9.984 -0.0752  0.5309 -0.0824
  737MOL0     N99411   5.398   7.254   9.859  0.4559 -0.1045  0.4268
  737MOL0     N99412   5.464   7.251   9.747 -0.5066  0.2858 -0.1588
  737MOL0     C99413   5.304   8.085   9.183 -0.3139 -0.4931  0.2838
  737MOL0     C99414   5.185   8.072   9.105  0.2689 -0.3323 -0.2422
  737MOL0     C99415   4.949   8.081   8.727  0.4521 -0.2733 -0.0337
  737MOL0     C99416   4.944   8.131   8.596  0.3847 -0.6205  0.2939
  737MOL0     C99417   4.824   8.128   8.528 -0.0338  0.3573 -0.2266
  737MOL0     C99418   4.697   8.082   8.578  0.3780 -0.7015 -0.0163
  737MOL0     O99419   4.595   8.076   8.494 -0.7810  0.1745  0.5160
  737MOL0     C99420   4.464   8.052   8.544 -1.0182  0.0964  0.1374
  737MOL0     C99421   4.419   8.174   8.614  0.3770  0.3344 -0.0184
  737MOL0     C99422   4.269   8.164   8.646 -0.0528 -0.7065 -0.6802
  737MOL0     C99423   4.229   8.290   8.729  0.2274  0.6431 -0.2280
  737MOL0     C99424   4.237   8.405   8.630  0.4312  0.0658 -1.1149
  737MOL0     C99425   4.254   8.501   8.556 -0.1010 -0.0296 -0.8554
  737MOL0     C99426   4.700   8.029   8.710  0.5629 -0.4729  0.1747
  737MOL0     C99427   4.825   8.043   8.784  0.3919  0.1611  0.2458
  737MOL0     H99428   5.293   7.887   8.846 -0.2651 -1.0849  0.7469
  737MOL0     H99429   5.513   7.923   8.954 -2.2956 -2.5377 -1.7704
  737MOL0     H99430   5.675   8.011   9.065  2.4159  1.6142  1.3646
  737MOL0     H99431   5.725   8.056   9.229 -0.0624 -2.1225  1.5392
  737MOL0     H99432   5.619   7.864   9.326 -1.6383 -0.2443  0.8517
  737MOL0     H99433   5.569   7.798   9.160 -1.8130  0.6925  1.3745
  737MOL0     H99434   5.799   7.790   9.101 -1.4543  1.7130  0.1107
  737MOL0     H99435   5.850   7.837   9.270  1.3365 -0.9623 -0.7569
  737MOL0     H99436   5.690   7.587   9.213  1.9884 -2.9828 -0.5093
  737MOL0     H99437   5.853   7.580   9.234 -0.0728 -0.7508  0.2402
  737MOL0     H99438   5.841   7.693   9.454 -1.0581  1.9614 -0.4249
  737MOL0     H99439   5.664   7.694   9.458 -2.4430 -1.8579 -2.2283
  737MOL0     H99440   5.734   7.423   9.417 -2.2355 -0.3959  0.3709
  737MOL0     H99441   5.876   7.485   9.486  0.9918  1.4154 -0.1919
  737MOL0     H99442   5.769   7.413   9.677  1.7164  2.5503  1.0014
  737MOL0     H99443   5.706   7.576   9.680  2.2641  0.3184  0.3424
  737MOL0     H99444   5.584   7.333   9.536  1.4974  0.0521  0.4784
  737MOL0     H99445   5.501   7.489   9.538  0.8243  0.3395  0.5257
  737MOL0     H99446   5.490   7.563   9.846  1.3460 -1.6861 -0.4997
  737MOL0     H99447   5.330   7.313  10.103  0.5944 -0.4677  1.0902
  737MOL0     H99448   5.434   7.443  10.125 -1.8754  1.6892  0.7965
  737MOL0     H99449   5.287   7.596  10.006 -1.2164 -0.2598 -1.0113
  737MOL0     H99450   5.218   7.526  10.157 -1.0566 -1.5815  0.8013
  737MOL0     H99451   5.116   7.337  10.006 -1.4640  0.6040 -0.4092
  737MOL0     H99452   5.157   7.447   9.872  2.0447  0.3958  0.2874
  737MOL0     H99453   4.950   7.541   9.885 -0.2219  2.3099  1.2860
  737MOL0     H99454   4.976   7.589  10.052 -1.8356  1.7038 -2.1712
  737MOL0     H99455   4.725   7.245  10.098  3.8401  3.2479  5.8093
  737MOL0     H99456   4.395   7.265  10.207 -2.2206  0.2432 -1.5775
  737MOL0     H99457   4.377   7.202  10.041 -0.7592  1.3290 -1.2437
  737MOL0     H99458   4.507   7.145  10.129  0.0218  1.4617 -0.8223
  737MOL0     H99459   4.158   7.838   9.968  0.8660  1.1888 -2.4066
  737MOL0     H99460   3.925   7.868   9.989  0.1622 -0.9845  1.3912
  737MOL0     H99461   3.699   7.610   9.704  1.0195  0.7130  0.2313
  737MOL0     H99462   3.648   7.531   9.857  0.8487 -0.0233 -0.4699
  737MOL0     H99463   3.540   7.789   9.732 -1.1473 -0.6221 -0.9343
  737MOL0     H99464   3.457   7.637   9.730 -0.6657  0.7730 -0.9198
  737MOL0     H99465   3.377   7.818   9.910 -0.5002 -1.4061 -2.9993
  737MOL0     H99466   3.538   7.792   9.979 -1.8787  2.1112  0.8619
  737MOL0     H99467   3.335   7.555   9.929  0.0911 -1.1668  0.6532
  737MOL0     H99468   3.471   7.561  10.042 -0.5444 -0.2438  0.3114
  737MOL0     H99469   3.206   7.680  10.051 -0.9087 -2.5351  1.0129
  737MOL0     H99470   3.343   7.753  10.138  0.0265  1.0826 -0.9955
  737MOL0     H99471   3.270   7.451  10.146  0.4788 -0.2875 -1.0886
  737MOL0     H99472   3.371   7.540  10.265 -1.2410  1.0950  0.6692
  737MOL0     H99473   3.078   7.584  10.234 -0.6957 -2.4041  0.8632
  737MOL0     H99474   3.190   7.656  10.359  0.5642  0.6346 -1.5562
  737MOL0     H99475   3.102   7.485  10.482  0.2082 -0.3337  0.6104
  737MOL0     H99476   3.233   7.399  10.408 -2.1055 -3.4469  1.6452
  737MOL0     H99477   3.870   7.473   9.803 -2.2447  0.5508  1.3490
  737MOL0     H99478   4.104   7.430   9.828  0.6669  0.3352  0.3585
  737MOL0     H99479   4.527   7.668   9.944 -1.5224 -1.8506 -1.0768
  737MOL0     H99480   4.759   7.631   9.929  2.5153 -2.7508 -2.1204
  737MOL0     H99481   5.299   8.143   9.274 -2.7535 -1.5917  0.9383
  737MOL0     H99482   5.087   8.116   9.122  0.8497  1.3031 -0.9168
  737MOL0     H99483   5.038   8.163   8.552  0.5637 -2.3518 -0.7044
  737MOL0     H99484   4.823   8.164   8.426  3.5899 -1.0135 -0.8948
  737MOL0     H99485   4.404   8.026   8.456 -1.9777 -0.7429  1.0136
  737MOL0     H99486   4.454   7.969   8.614  0.4241  0.9356  1.4236
  737MOL0     H99487   4.435   8.260   8.548 -0.5166  0.4334 -0.1180
  737MOL0     H99488   4.475   8.187   8.706  0.6479  2.3344 -0.4144
  737MOL0     H99489   4.251   8.077   8.711  3.1548  1.1469  3.1205
  737MOL0     H99490   4.200   8.171   8.562  0.0876 -0.3029 -0.7615
  737MOL0     H99491   4.304   8.299   8.808  2.1354  0.9896 -1.9781
  737MOL0     H99492   4.135   8.291   8.785  1.2778  1.4773  1.6148
  737MOL0     H99493   4.264   8.600   8.514 -2.4178  0.6757  0.1422
  737MOL0     H99494   4.615   7.985   8.761  0.3966 -0.5148 -0.1354
  737MOL0     H99495   4.827   8.010   8.888 -0.7598 -1.7894 -0.2966
  738MOL0     O99496   2.281  10.061   4.390 -0.6194  0.9726 -0.0818
  738MOL0     C99497   2.225  10.014   4.294  0.1029  0.5300 -0.0406
  738MOL0     O99498   2.129  10.076   4.217 -0.0874  0.1414  0.2623
  738MOL0     C99499   2.040  10.175   4.266  0.0156  0.6711 -0.4317
  738MOL0     C99500   2.089  10.293   4.318  0.4497 -0.7827  0.3459
  738MOL0     C99501   2.002  10.389   4.351  0.0070 -0.2617  0.0033
  738MOL0     C99502   1.859  10.369   4.336  1.0138 -0.2898  0.5512
  738MOL0     O99503   1.773  10.469   4.385 -0.1643 -0.3387 -0.1538
  738MOL0     C99504   1.634  10.467   4.379  0.5814 -0.1895  0.3381
  738MOL0     C99505   1.566  10.602   4.406 -0.0983  0.1413  0.1017
  738MOL0     C99506   1.415  10.577   4.411  0.1605 -1.1620  0.5628
  738MOL0     C99507   1.328  10.665   4.322  0.8110 -0.3454 -0.0367
  738MOL0     C99508   1.175  10.633   4.321  0.1156  0.5076 -0.3128
  738MOL0     C99509   1.104  10.716   4.215  0.0743 -0.8311 -0.6602
  738MOL0     C99510   0.959  10.667   4.207 -0.3201 -0.4131 -0.6150
  738MOL0     C99511   0.882  10.658   4.347 -0.1696  0.2483  0.0741
  738MOL0     N99512   0.746  10.612   4.312  0.2956 -0.3263  0.5549
  738MOL0     C99513   0.665  10.682   4.226 -1.0221 -0.4810  0.8606
  738MOL0     C99514   0.555  10.609   4.207  0.0188  0.0902 -0.8006
  738MOL0     C99515   0.427  10.656   4.148  0.2445  0.4105 -0.8050
  738MOL0     C99516   0.341  10.751   4.247 -0.5297  0.2880  0.1641
  738MOL0     C99517   0.193  10.718   4.247  0.3295  0.0023  0.7646
  738MOL0     C99518   0.122  10.688   4.114 -0.3651  0.4292 -0.2943
  738MOL0     O99519  -0.011  10.645   4.128 -0.8106 -0.2077 -0.6965
  738MOL0     C99520  -0.107  10.736   4.106  0.3333 -0.8515 -0.8092
  738MOL0     C99521  -0.232  10.691   4.144  0.6227 -0.4543  0.6765
  738MOL0     C99522  -0.335  10.784   4.155 -0.2916 -0.6736 -0.3641
  738MOL0     C99523  -0.459  10.716   4.201  0.6017  0.5302 -0.4172
  738MOL0     C99524  -0.327  10.916   4.115  0.1987 -0.0599  0.7321
  738MOL0     C99525  -0.433  11.024   4.116 -0.1654  0.2033  0.2901
  738MOL0     O99526  -0.547  10.994   4.187  0.5372  0.3581  0.6932
  738MOL0     C99527  -0.654  11.082   4.179  0.0016 -0.6042 -0.5829
  738MOL0     C99528  -0.711  11.118   4.060 -0.1450 -0.6080 -0.5877
  738MOL0     C99529  -0.813  11.216   4.043  0.5524 -0.1583  0.0500
  738MOL0     C99530  -0.881  11.261   4.157  1.3317 -0.2191  0.0409
  738MOL0     O99531  -0.988  11.345   4.137  0.2526 -0.6713 -0.3982
  738MOL0     C99532  -1.093  11.334   4.245 -0.2067 -0.2888 -0.1786
  738MOL0     C99533  -1.233  11.369   4.185 -0.7158  0.2327 -0.7557
  738MOL0     C99534  -1.336  11.353   4.294  0.2964 -0.3595  0.1884
  738MOL0     C99535  -1.468  11.411   4.248  0.2152  0.2216  0.1570
  738MOL0     C99536  -1.581  11.389   4.359  1.0260  0.0452 -0.1583
  738MOL0     C99537  -1.716  11.457   4.320  0.5953  0.1707  0.1093
  738MOL0     C99538  -1.839  11.432   4.412 -0.6254 -0.1797 -0.0310
  738MOL0     C99539  -1.971  11.493   4.358  0.2863 -0.0104  0.3490
  738MOL0    Cl99540  -2.121  11.444   4.440 -0.2715 -0.0220 -0.0542
  738MOL0     C99541  -0.823  11.235   4.280  0.1486 -0.6932 -0.0362
  738MOL0     C99542  -0.705  11.157   4.287  0.4233  0.1125  0.0293
  738MOL0     O99543  -0.415  11.131   4.058 -0.1364  0.0827 -0.1748
  738MOL0     C99544  -0.197  10.952   4.067  0.7644 -0.4337 -0.5764
  738MOL0     C99545  -0.086  10.871   4.065  0.1472  0.6324 -0.3038
  738MOL0     N99546   0.576  10.496   4.287  0.1616 -0.3052 -0.4733
  738MOL0     N99547   0.681  10.504   4.354 -0.9399  0.6148  0.2709
  738MOL0     C99548   1.806  10.250   4.284 -0.1475 -0.7114  1.2756
  738MOL0     C99549   1.902  10.151   4.246 -0.2980 -0.0038  0.1965
  738MOL0     C99550   2.254   9.870   4.263 -1.0192 -0.6549  0.0075
  738MOL0     C99551   2.313   9.776   4.356  0.8084 -0.4185 -0.2923
  738MOL0     C99552   2.345   9.644   4.317 -0.7898 -0.0223  0.2217
  738MOL0     C99553   2.317   9.605   4.186  0.0142 -0.5959  0.1400
  738MOL0     O99554   2.329   9.475   4.154  0.6881 -0.0539  0.0274
  738MOL0     C99555   2.466   9.431   4.153  0.3400  1.0270 -0.1478
  738MOL0     C99556   2.470   9.279   4.168  0.1166  0.4728 -0.0216
  738MOL0     C99557   2.601   9.226   4.115  0.7139  0.5997  0.1679
  738MOL0     C99558   2.595   9.071   4.120  0.6497 -0.0437  0.9225
  738MOL0     C99559   2.716   9.028   4.032  1.0667  0.2564  0.4092
  738MOL0     C99560   2.809   8.984   3.974  0.4266 -0.3027  0.9181
  738MOL0     C99561   2.270   9.703   4.087 -0.0852  0.5458 -0.5978
  738MOL0     C99562   2.249   9.833   4.128 -0.6095  1.5652  0.5982
  738MOL0     H99563   2.193  10.321   4.328  0.0165  0.0260  3.8388
  738MOL0     H99564   2.036  10.485   4.389  2.6954  0.0412 -2.7895
  738MOL0     H99565   1.597  10.432   4.282  0.2659  2.0608 -0.3985
  738MOL0     H99566   1.607  10.389   4.451  2.0709  1.1569  2.4839
  738MOL0     H99567   1.599  10.648   4.499  0.2760 -1.1046  0.6018
  738MOL0     H99568   1.586  10.658   4.314 -1.9840 -0.3148 -0.6317
  738MOL0     H99569   1.390  10.476   4.376  0.8537 -0.9295 -0.6529
  738MOL0     H99570   1.381  10.576   4.515  1.1464 -0.7732  0.9068
  738MOL0     H99571   1.335  10.770   4.351 -1.8700  0.0392 -0.5118
  738MOL0     H99572   1.355  10.656   4.216 -1.5064  0.3847 -0.7369
  738MOL0     H99573   1.157  10.527   4.298 -1.2866  0.4610  0.8265
  738MOL0     H99574   1.128  10.638   4.419  0.5604 -0.5726 -0.0276
  738MOL0     H99575   1.127  10.821   4.230 -1.4248 -0.5524 -0.1723
  738MOL0     H99576   1.152  10.681   4.123  1.2660 -2.2361  0.4488
  738MOL0     H99577   0.907  10.745   4.151 -2.4520  0.7209  2.6801
  738MOL0     H99578   0.955  10.565   4.166  2.0680 -0.0293 -2.0019
  738MOL0     H99579   0.891  10.749   4.408  0.1728 -0.3152  0.8680
  738MOL0     H99580   0.921  10.584   4.417 -0.1472 -2.3415 -2.4901
  738MOL0     H99581   0.686  10.785   4.200 -1.6471 -0.4806  0.3112
  738MOL0     H99582   0.463  10.709   4.059 -0.0186  1.4659 -0.3037
  738MOL0     H99583   0.369  10.574   4.106 -0.7419  1.4356 -1.5202
  738MOL0     H99584   0.341  10.850   4.201 -0.6446  0.7492  1.1430
  738MOL0     H99585   0.381  10.754   4.349 -0.0454  1.8926 -0.0462
  738MOL0     H99586   0.140  10.797   4.300  0.7785 -0.1296  1.4116
  738MOL0     H99587   0.193  10.624   4.302  1.1106 -0.9229 -0.7394
  738MOL0     H99588   0.175  10.608   4.060  2.3546  2.7839 -1.3736
  738MOL0     H99589   0.141  10.767   4.041 -0.1961  0.0312 -0.6852
  738MOL0     H99590  -0.244  10.589   4.180 -1.4284 -0.4785  0.0371
  738MOL0     H99591  -0.485  10.742   4.304 -2.4485  0.7042 -1.1429
  738MOL0     H99592  -0.544  10.741   4.137  0.2580 -1.8547 -0.9957
  738MOL0     H99593  -0.457  10.607   4.188  0.3659  0.7906 -3.1899
  738MOL0     H99594  -0.682  11.065   3.970 -1.6765  1.1162 -2.1844
  738MOL0     H99595  -0.858  11.238   3.946  1.8607  1.8320 -0.1585
  738MOL0     H99596  -1.093  11.227   4.268  0.4802 -0.5260 -1.2308
  738MOL0     H99597  -1.070  11.401   4.328  1.0350 -0.2465 -0.5410
  738MOL0     H99598  -1.243  11.469   4.142 -1.0793 -0.1256 -1.5322
  738MOL0     H99599  -1.254  11.290   4.112  1.8135 -0.4806 -0.7936
  738MOL0     H99600  -1.300  11.397   4.388  1.7955  2.4021 -1.5509
  738MOL0     H99601  -1.363  11.247   4.306  0.5424 -0.3131  1.3223
  738MOL0     H99602  -1.456  11.515   4.217  1.8673 -0.0519 -0.2651
  738MOL0     H99603  -1.506  11.370   4.154 -0.8446  0.6833  0.3759
  738MOL0     H99604  -1.538  11.445   4.442  0.2991  1.9509 -1.0048
  738MOL0     H99605  -1.609  11.287   4.385 -6.2243  1.2310 -1.0043
  738MOL0     H99606  -1.694  11.564   4.332  0.6306  0.2683 -0.7357
  738MOL0     H99607  -1.748  11.431   4.218 -2.5732 -0.2297  1.1076
  738MOL0     H99608  -1.804  11.490   4.498  0.4788  2.2074 -2.0000
  738MOL0     H99609  -1.863  11.328   4.437 -0.8251  0.0218  0.6454
  738MOL0     H99610  -1.988  11.467   4.253  0.3662 -0.5155  0.4619
  738MOL0     H99611  -1.963  11.602   4.359  3.4573 -0.0916 -1.4116
  738MOL0     H99612  -0.863  11.279   4.371 -0.1595 -2.7967  0.9013
  738MOL0     H99613  -0.663  11.142   4.386  1.1371  0.1350 -0.2620
  738MOL0     H99614  -0.187  11.057   4.040 -1.5965 -0.0590 -0.2241
  738MOL0     H99615   0.007  10.919   4.038 -0.3074  1.7380  0.0265
  738MOL0     H99616   1.702  10.226   4.265 -0.0118 -0.7993  0.6164
  738MOL0     H99617   1.878  10.064   4.185  2.3793 -3.3768  3.4672
  738MOL0     H99618   2.309   9.799   4.462  1.0240 -2.2156  0.1385
  738MOL0     H99619   2.370   9.570   4.393  3.1804 -0.5477 -1.3699
  738MOL0     H99620   2.514   9.461   4.060 -0.3477  4.9470  0.5837
  738MOL0     H99621   2.520   9.490   4.228 -0.1960  0.5399  0.6361
  738MOL0     H99622   2.390   9.235   4.107 -0.5417  1.2161  0.2707
  738MOL0     H99623   2.446   9.252   4.271  0.5211  0.5575  0.0968
  738MOL0     H99624   2.686   9.269   4.167 -0.2801  1.6625  0.9752
  738MOL0     H99625   2.611   9.257   4.011  1.0026 -2.2144 -0.7322
  738MOL0     H99626   2.507   9.040   4.064  1.9086 -0.2450 -1.0611
  738MOL0     H99627   2.597   9.041   4.225 -0.0768  2.1382  1.5953
  738MOL0     H99628   2.891   8.925   3.938 -0.3963 -0.8717 -0.0755
  738MOL0     H99629   2.256   9.670   3.985  0.1979 -0.8030 -0.2209
  738MOL0     H99630   2.219   9.902   4.050 -2.6427 -1.4533 -1.5274
  739MOL0     O99631   9.864   5.331   7.468  0.0489 -0.1268 -0.1130
  739MOL0     C99632   9.817   5.421   7.394 -0.5441  0.1855  0.0666
  739MOL0     O99633   9.849   5.551   7.407 -0.0871 -0.0076  0.0418
  739MOL0     C99634   9.945   5.575   7.508 -0.6518 -0.3457  0.1471
  739MOL0     C99635   9.907   5.622   7.632  0.0823 -0.6554  0.5695
  739MOL0     C99636   9.999   5.654   7.729  0.6276 -0.1803  0.4974
  739MOL0     C99637  10.131   5.637   7.718  1.0847 -0.3807 -1.1531
  739MOL0     O99638  10.221   5.679   7.804 -0.8401 -0.4882 -1.1435
  739MOL0     C99639  10.183   5.769   7.916 -0.4319 -0.0185 -1.0949
  739MOL0     C99640  10.301   5.834   7.968 -0.3958 -0.2392  0.5720
  739MOL0     C99641  10.283   5.926   8.088 -0.6384  0.0582 -0.5294
  739MOL0     C99642  10.414   5.951   8.168 -0.5213  0.5458  0.2169
  739MOL0     C99643  10.401   6.031   8.302  1.2774 -0.2584 -0.2639
  739MOL0     C99644  10.533   6.079   8.353 -0.0925  0.0732 -0.3336
  739MOL0     C99645  10.532   6.140   8.491 -0.7405  0.0212 -0.3629
  739MOL0     C99646  10.460   6.272   8.480 -0.6348 -0.2622 -0.4457
  739MOL0     N99647  10.475   6.351   8.599  0.2423  0.8849 -0.0739
  739MOL0     C99648  10.381   6.345   8.694 -0.2819 -0.0674 -0.9264
  739MOL0     C99649  10.431   6.419   8.797  0.1705  0.2527  0.8932
  739MOL0     C99650  10.354   6.422   8.923 -0.6292 -1.0116  0.2075
  739MOL0     C99651  10.225   6.510   8.920  0.6560  0.5732 -0.2720
  739MOL0     C99652  10.132   6.469   9.038 -0.2014 -0.0246  0.1990
  739MOL0     C99653  10.007   6.557   9.043 -0.9305 -0.4303  0.5929
  739MOL0     O99654   9.929   6.552   9.167 -0.0589  0.4959  0.5629
  739MOL0     C99655   9.823   6.635   9.188 -0.1021  0.5598 -0.2595
  739MOL0     C99656   9.805   6.666   9.323  0.4277  0.3138 -0.1917
  739MOL0     C99657   9.691   6.745   9.363 -0.1405 -0.5549 -1.3550
  739MOL0     C99658   9.680   6.765   9.520  0.1294 -0.1628  0.8102
  739MOL0     C99659   9.600   6.802   9.260 -0.6783 -0.0275 -0.4184
  739MOL0     C99660   9.474   6.871   9.290  1.2205  0.0519 -0.5497
  739MOL0     O99661   9.378   6.890   9.190  1.1949 -0.2368  0.2768
  739MOL0     C99662   9.275   6.985   9.222 -0.3895  0.7647 -0.0418
  739MOL0     C99663   9.309   7.111   9.259  0.2884  0.0663  0.0517
  739MOL0     C99664   9.214   7.200   9.305 -0.3190 -0.2527 -0.7639
  739MOL0     C99665   9.092   7.161   9.320  0.8873  0.3925 -0.3572
  739MOL0     O99666   8.999   7.246   9.363  0.7443 -1.0562 -0.1852
  739MOL0     C99667   9.026   7.349   9.466  0.1146  0.5353 -0.0769
  739MOL0     C99668   8.895   7.412   9.514 -0.5886 -0.1443  0.5748
  739MOL0     C99669   8.808   7.479   9.400 -0.7924  0.9142  0.7466
  739MOL0     C99670   8.691   7.557   9.468  0.2122  0.3266  1.1482
  739MOL0     C99671   8.601   7.604   9.359  0.3896 -0.7259  0.0398
  739MOL0     C99672   8.491   7.696   9.417  0.2394 -0.1737  0.8370
  739MOL0     C99673   8.542   7.831   9.449  0.3034  0.4017  0.9759
  739MOL0     C99674   8.423   7.923   9.498  0.8637 -0.5844  0.1139
  739MOL0    Cl99675   8.276   7.933   9.400 -0.2148  0.0885  0.2696
  739MOL0     C99676   9.051   7.036   9.281 -0.2447 -0.2605  0.7498
  739MOL0     C99677   9.147   6.947   9.231 -0.8374  0.1238  0.7795
  739MOL0     O99678   9.459   6.896   9.408 -0.5856 -0.0811  0.2258
  739MOL0     C99679   9.623   6.758   9.131  0.6507 -0.4145  0.7883
  739MOL0     C99680   9.735   6.678   9.088  0.2952 -0.3760 -0.7114
  739MOL0     N99681  10.555   6.468   8.762  0.4714 -0.1477  0.7178
  739MOL0     N99682  10.581   6.427   8.642 -0.4283 -0.0946 -0.3380
  739MOL0     C99683  10.172   5.571   7.606  0.7906 -0.8090  0.0165
  739MOL0     C99684  10.082   5.537   7.502 -0.9939 -0.1542 -0.4816
  739MOL0     C99685   9.721   5.383   7.288  0.5590 -0.0770  0.5565
  739MOL0     C99686   9.654   5.485   7.225  0.3000 -0.0268 -0.5299
  739MOL0     C99687   9.577   5.451   7.108 -0.0910 -0.1348 -0.0340
  739MOL0     C99688   9.565   5.325   7.059  0.3619  0.2683 -0.0215
  739MOL0     O99689   9.488   5.293   6.951 -0.0768  0.6181 -0.0519
  739MOL0     C99690   9.399   5.386   6.880 -0.8979  0.4186 -0.4889
  739MOL0     C99691   9.333   5.312   6.757  0.9454 -1.1541 -0.5942
  739MOL0     C99692   9.274   5.426   6.656  0.5164  0.2062 -0.0543
  739MOL0     C99693   9.198   5.366   6.535 -0.0905 -0.8412  0.1875
  739MOL0     C99694   9.078   5.308   6.586  0.1947 -0.2845 -0.6849
  739MOL0     C99695   8.973   5.261   6.614  0.5082 -0.6252 -0.5230
  739MOL0     C99696   9.635   5.230   7.126  0.5285  0.8004 -0.4900
  739MOL0     C99697   9.716   5.254   7.244  0.3327  0.2732 -0.2145
  739MOL0     H99698   9.803   5.645   7.649  0.3008 -1.0794  2.7865
  739MOL0     H99699   9.959   5.699   7.820  3.6950 -1.7806  2.8158
  739MOL0     H99700  10.108   5.848   7.900  0.2168  1.2077  1.3702
  739MOL0     H99701  10.154   5.698   7.994 -0.2324  1.5379  0.4786
  739MOL0     H99702  10.373   5.757   7.997 -0.6872 -1.2247 -1.2012
  739MOL0     H99703  10.340   5.903   7.893 -1.3560 -0.1945  0.0982
  739MOL0     H99704  10.247   6.021   8.046 -0.5907  0.6242  0.6791
  739MOL0     H99705  10.215   5.884   8.162  0.1752 -0.0902  0.1479
  739MOL0     H99706  10.468   5.861   8.198 -1.1210 -0.0772 -0.5398
  739MOL0     H99707  10.489   5.990   8.099 -2.9987  1.7379 -1.9848
  739MOL0     H99708  10.350   6.127   8.288  1.9079  0.7524  3.3872
  739MOL0     H99709  10.339   5.979   8.375  2.0285 -0.8141 -0.0079
  739MOL0     H99710  10.602   5.994   8.352  0.3601  0.4315  0.2671
  739MOL0     H99711  10.567   6.157   8.284 -0.6504  0.6251  0.0027
  739MOL0     H99712  10.494   6.073   8.569  3.8584  0.7599  2.9136
  739MOL0     H99713  10.636   6.150   8.522 -0.2780 -2.0204 -1.0893
  739MOL0     H99714  10.353   6.253   8.475 -1.1640 -1.0104  5.7204
  739MOL0     H99715  10.499   6.336   8.401  2.3296  0.8051  1.6894
  739MOL0     H99716  10.295   6.280   8.704  0.7395 -1.4004 -0.5134
  739MOL0     H99717  10.334   6.321   8.959  2.3481 -1.3333  1.2496
  739MOL0     H99718  10.426   6.462   8.996 -1.2278  0.9925 -0.2452
  739MOL0     H99719  10.177   6.494   8.823 -1.6364 -2.7440  1.2443
  739MOL0     H99720  10.234   6.619   8.932 -0.2747  0.3446  3.7664
  739MOL0     H99721  10.186   6.470   9.133  0.3342  1.0050 -0.1005
  739MOL0     H99722  10.101   6.364   9.036 -0.7347  0.1416 -0.8470
  739MOL0     H99723   9.941   6.528   8.961 -0.9373 -0.5597  0.6440
  739MOL0     H99724  10.049   6.657   9.026 -0.0091 -1.2041 -2.1963
  739MOL0     H99725   9.879   6.621   9.389  0.5758  1.3535  0.3789
  739MOL0     H99726   9.772   6.729   9.566  2.0417  1.6875 -1.3137
  739MOL0     H99727   9.664   6.870   9.544  0.8603  0.4717 -1.2342
  739MOL0     H99728   9.596   6.705   9.557 -0.3471 -2.5017 -3.4199
  739MOL0     H99729   9.416   7.128   9.254  0.1159  1.3586  0.3882
  739MOL0     H99730   9.240   7.302   9.330 -0.8407 -0.7373  1.9928
  739MOL0     H99731   9.077   7.314   9.556 -2.0626 -0.8926  0.6847
  739MOL0     H99732   9.083   7.432   9.424 -0.1014  1.2938  1.0653
  739MOL0     H99733   8.846   7.325   9.559  1.9903 -1.8302  0.3809
  739MOL0     H99734   8.904   7.485   9.595  0.6189  0.9586 -0.5208
  739MOL0     H99735   8.771   7.398   9.336 -2.3401  0.1251  2.5410
  739MOL0     H99736   8.861   7.552   9.337 -0.1442 -0.9193 -0.9575
  739MOL0     H99737   8.629   7.501   9.539 -1.2291 -0.3341 -0.5525
  739MOL0     H99738   8.730   7.646   9.517  1.5374 -0.0064  0.7485
  739MOL0     H99739   8.558   7.518   9.307 -0.3318  0.5496 -1.5617
  739MOL0     H99740   8.646   7.657   9.274 -0.4056 -0.5496 -0.2826
  739MOL0     H99741   8.419   7.702   9.335  0.3634  2.2753  0.8255
  739MOL0     H99742   8.430   7.652   9.496 -1.8294  0.8127 -0.1316
  739MOL0     H99743   8.586   7.868   9.356  1.3799 -0.5973  1.0616
  739MOL0     H99744   8.623   7.827   9.522 -0.9430 -0.0773  2.3790
  739MOL0     H99745   8.468   8.023   9.495  0.5050 -0.4327 -1.7499
  739MOL0     H99746   8.392   7.893   9.598 -3.1856 -1.0159 -1.0816
  739MOL0     H99747   8.945   7.027   9.300 -0.5253 -0.1584 -0.6774
  739MOL0     H99748   9.124   6.844   9.208  1.2592 -0.7227  2.1798
  739MOL0     H99749   9.549   6.776   9.054  0.9147 -1.7616  0.1867
  739MOL0     H99750   9.740   6.663   8.981 -0.5718  0.4703 -0.8872
  739MOL0     H99751  10.278   5.549   7.598  0.8024 -0.1859 -2.0347
  739MOL0     H99752  10.128   5.478   7.423 -2.0733 -0.3740 -0.9526
  739MOL0     H99753   9.650   5.586   7.264 -1.3873 -0.5199  0.7124
  739MOL0     H99754   9.528   5.527   7.048  0.7310 -0.6469 -1.3957
  739MOL0     H99755   9.316   5.424   6.940 -0.9095  3.2708 -2.1485
  739MOL0     H99756   9.462   5.472   6.855  0.8086 -0.6285  0.0293
  739MOL0     H99757   9.244   5.257   6.790 -1.0383  0.3833 -2.9592
  739MOL0     H99758   9.404   5.257   6.694  0.5189 -0.2514 -1.9210
  739MOL0     H99759   9.359   5.485   6.622  1.4046 -0.1995  1.3891
  739MOL0     H99760   9.197   5.486   6.706 -0.6762 -1.5927  0.3877
  739MOL0     H99761   9.258   5.293   6.479 -0.7693 -0.2201 -1.4133
  739MOL0     H99762   9.173   5.442   6.460  0.9464 -1.9035 -1.3032
  739MOL0     H99763   8.885   5.222   6.660  1.9639 -1.7978  1.4296
  739MOL0     H99764   9.632   5.128   7.091  0.7006 -0.2056  2.1871
  739MOL0     H99765   9.769   5.171   7.289  2.0171  2.0141  1.2054
  740MOL0     O99766   2.488   4.344  10.848 -0.4283  1.1326 -0.1486
  740MOL0     C99767   2.512   4.443  10.775 -0.0689 -0.3265  0.4280
  740MOL0     O99768   2.426   4.531  10.716  0.3465  0.4686  0.1768
  740MOL0     C99769   2.293   4.528  10.743 -0.0580 -0.1588  0.4401
  740MOL0     C99770   2.233   4.494  10.863 -0.5373  0.1747  0.1186
  740MOL0     C99771   2.096   4.505  10.880  0.1534  0.5640  0.9743
  740MOL0     C99772   2.017   4.565  10.779  1.0564  0.0961 -0.9177
  740MOL0     O99773   1.884   4.578  10.821  0.2025 -0.1071  0.4716
  740MOL0     C99774   1.787   4.609  10.712  0.2544 -0.4682  0.0059
  740MOL0     C99775   1.741   4.753  10.731  0.3263  0.1235 -0.0952
  740MOL0     C99776   1.602   4.784  10.673 -0.3629  0.7870  0.3501
  740MOL0     C99777   1.616   4.910  10.593 -0.2932  1.5685 -0.0934
  740MOL0     C99778   1.480   4.944  10.519  0.3594 -0.2167  0.4220
  740MOL0     C99779   1.365   4.949  10.613 -1.0750 -0.0711 -0.5088
  740MOL0     C99780   1.238   5.009  10.555 -0.0933  0.1416  0.0621
  740MOL0     C99781   1.241   5.158  10.572 -0.8890 -0.4175  0.4065
  740MOL0     N99782   1.110   5.226  10.549 -0.1909  0.9352  0.3062
  740MOL0     C99783   1.005   5.205  10.634 -0.1498  0.0989 -0.3521
  740MOL0     C99784   0.907   5.275  10.579 -0.1717 -0.3744  0.1732
  740MOL0     C99785   0.770   5.283  10.637 -0.0138 -0.9256 -0.7567
  740MOL0     C99786   0.739   5.420  10.698 -0.7353  0.5710  0.1047
  740MOL0     C99787   0.596   5.419  10.747 -0.8532  0.6497 -0.0547
  740MOL0     C99788   0.500   5.477  10.631 -0.4696  0.7211  0.0937
  740MOL0     O99789   0.383   5.508  10.689  0.5814 -0.2467  0.2917
  740MOL0     C99790   0.265   5.506  10.628 -0.6406 -0.2458  0.3247
  740MOL0     C99791   0.160   5.547  10.705  0.3246 -0.0064  0.0865
  740MOL0     C99792   0.029   5.540  10.665 -0.7276  0.5036  0.1587
  740MOL0     C99793  -0.077   5.607  10.746 -0.1467 -0.8040  0.5771
  740MOL0     C99794  -0.003   5.479  10.539 -0.2790 -0.8102 -0.0447
  740MOL0     C99795  -0.135   5.475  10.487  0.6647 -0.4000  0.3647
  740MOL0     O99796  -0.160   5.360  10.408 -0.1239 -0.2581 -0.3267
  740MOL0     C99797  -0.277   5.354  10.343 -0.4111  1.4355 -0.0584
  740MOL0     C99798  -0.394   5.313  10.407 -0.3841 -0.2219 -0.1341
  740MOL0     C99799  -0.518   5.306  10.333  0.0937  0.7053  0.6803
  740MOL0     C99800  -0.522   5.329  10.189  0.3735  0.3451 -0.4823
  740MOL0     O99801  -0.627   5.323  10.102 -0.1880 -0.7065  0.2329
  740MOL0     C99802  -0.760   5.286  10.149 -0.8280  0.0791  0.2023
  740MOL0     C99803  -0.857   5.404  10.166  0.0594  0.2023  0.0051
  740MOL0     C99804  -0.821   5.495  10.280 -0.5328  0.5281 -0.0879
  740MOL0     C99805  -0.921   5.611  10.287 -0.4054 -0.2650 -0.0662
  740MOL0     C99806  -0.916   5.696  10.419 -0.2904 -0.1227 -0.8617
  740MOL0     C99807  -1.047   5.775  10.435 -0.4685  0.2168  0.4264
  740MOL0     C99808  -1.058   5.863  10.554  0.2914  0.3574 -0.0070
  740MOL0     C99809  -1.207   5.893  10.583  0.3637 -0.0692 -0.5021
  740MOL0    Cl99810  -1.206   5.974  10.733 -0.2096  0.1270  0.4472
  740MOL0     C99811  -0.406   5.358  10.129  0.0044 -0.4481  0.0726
  740MOL0     C99812  -0.282   5.369  10.201  0.4503  0.7622 -0.0480
  740MOL0     O99813  -0.213   5.574  10.494 -0.3448 -0.2049 -0.5473
  740MOL0     C99814   0.109   5.442  10.455  0.3487 -0.5634 -0.8705
  740MOL0     C99815   0.235   5.452  10.506 -0.1975  0.5500 -0.3322
  740MOL0     N99816   0.952   5.334  10.461 -0.3092 -0.3135 -0.3102
  740MOL0     N99817   1.073   5.297  10.441 -0.4471  0.5739 -0.3056
  740MOL0     C99818   2.075   4.612  10.661 -0.2140  0.1251 -1.1034
  740MOL0     C99819   2.214   4.586  10.642 -0.9803  0.0471  0.2042
  740MOL0     C99820   2.655   4.462  10.740  0.2382  0.5123  0.6977
  740MOL0     C99821   2.762   4.424  10.827 -0.2033 -0.5329 -0.2350
  740MOL0     C99822   2.886   4.457  10.785  0.0535  0.1386 -0.5118
  740MOL0     C99823   2.927   4.496  10.655  0.1374  1.0786  0.1641
  740MOL0     O99824   3.058   4.495  10.623 -0.5637 -0.2721  0.8954
  740MOL0     C99825   3.088   4.558  10.500  0.1725  0.6908  0.4052
  740MOL0     C99826   3.235   4.603  10.499 -0.1307  0.1831 -0.8987
  740MOL0     C99827   3.335   4.488  10.500 -0.4184  0.4022 -0.0573
  740MOL0     C99828   3.349   4.432  10.353  0.4722  0.5794 -1.0728
  740MOL0     C99829   3.454   4.334  10.355  0.5256  0.4050  0.1784
  740MOL0     C99830   3.552   4.263  10.358  0.3214 -0.2786  0.4721
  740MOL0     C99831   2.821   4.511  10.561 -0.3232 -0.0050 -0.0638
  740MOL0     C99832   2.686   4.500  10.604  0.0191  0.2185  0.5207
  740MOL0     H99833   2.293   4.461  10.947  0.1513 -1.4951 -0.9708
  740MOL0     H99834   2.050   4.478  10.974 -2.4925  0.0815 -0.3502
  740MOL0     H99835   1.817   4.595  10.608 -2.2500  3.6825 -1.5097
  740MOL0     H99836   1.700   4.544  10.732  1.0036 -1.8198 -0.9765
  740MOL0     H99837   1.735   4.758  10.840 -1.7394 -2.7227  0.0362
  740MOL0     H99838   1.827   4.808  10.691  1.6224 -1.2210  0.7430
  740MOL0     H99839   1.578   4.701  10.605  2.9213 -1.3382  1.5066
  740MOL0     H99840   1.524   4.790  10.750 -1.5406 -1.0982 -0.6067
  740MOL0     H99841   1.634   4.991  10.663 -1.9157  2.3399 -0.4999
  740MOL0     H99842   1.693   4.904  10.516  2.0812 -1.2626  2.2702
  740MOL0     H99843   1.489   5.045  10.478  0.8188  1.0317  3.2875
  740MOL0     H99844   1.456   4.871  10.441 -2.4447 -0.4110  1.3490
  740MOL0     H99845   1.341   4.850  10.652 -0.5902 -1.2352 -2.9694
  740MOL0     H99846   1.392   4.999  10.707 -0.9600 -2.0150  0.5510
  740MOL0     H99847   1.229   4.986  10.448  0.2576 -0.8755  0.2358
  740MOL0     H99848   1.150   4.963  10.601  1.7219 -2.2370  1.4361
  740MOL0     H99849   1.321   5.194  10.506 -2.3934  4.2652  0.8141
  740MOL0     H99850   1.281   5.177  10.672 -1.0821 -0.6994  0.5376
  740MOL0     H99851   0.995   5.144  10.723 -1.2730 -1.6270 -1.5863
  740MOL0     H99852   0.697   5.268  10.556 -0.6876 -0.4897 -0.2371
  740MOL0     H99853   0.760   5.204  10.711  1.0208 -2.9091 -2.5977
  740MOL0     H99854   0.747   5.499  10.623  0.0475 -1.3245 -1.9196
  740MOL0     H99855   0.809   5.448  10.777 -0.3037  1.1740 -0.4745
  740MOL0     H99856   0.593   5.497  10.824 -6.2433 -1.5722  2.4596
  740MOL0     H99857   0.571   5.324  10.794  1.4797 -0.3300 -0.6625
  740MOL0     H99858   0.487   5.407  10.548  0.2681  1.7577 -0.9350
  740MOL0     H99859   0.536   5.570  10.584 -3.1137  1.9668  0.3640
  740MOL0     H99860   0.185   5.587  10.803 -0.5590  0.9414 -0.0556
  740MOL0     H99861  -0.055   5.618  10.852 -0.3754  1.9990  0.4151
  740MOL0     H99862  -0.090   5.709  10.709 -0.3235 -0.3848  1.7563
  740MOL0     H99863  -0.171   5.552  10.734  0.0622 -1.3044  1.2053
  740MOL0     H99864  -0.393   5.293  10.513  2.1797  0.5822  0.0566
  740MOL0     H99865  -0.612   5.279  10.380 -1.9463 -3.5321 -4.8348
  740MOL0     H99866  -0.798   5.213  10.077  4.7287 -3.2960  0.1174
  740MOL0     H99867  -0.754   5.227  10.241 -1.8456 -0.4160 -0.0359
  740MOL0     H99868  -0.856   5.465  10.075  0.8517 -0.8470 -0.7143
  740MOL0     H99869  -0.955   5.361  10.189  0.1106 -0.8765 -1.5807
  740MOL0     H99870  -0.721   5.536  10.261 -0.3284 -0.3644 -1.0127
  740MOL0     H99871  -0.821   5.435  10.372  1.5146  0.1606 -0.2678
  740MOL0     H99872  -0.898   5.686  10.211  3.0557  0.9877  1.9963
  740MOL0     H99873  -1.027   5.588  10.272 -0.1452 -1.3538 -0.2892
  740MOL0     H99874  -0.828   5.760  10.426  1.2164 -2.2852  1.4118
  740MOL0     H99875  -0.905   5.616  10.493  2.0481  0.2846 -0.7102
  740MOL0     H99876  -1.071   5.825  10.341  0.0820  0.0493  0.1931
  740MOL0     H99877  -1.122   5.696  10.448  2.4511 -2.5628  1.7945
  740MOL0     H99878  -1.016   5.963  10.540 -0.9556  0.7998 -0.8297
  740MOL0     H99879  -1.008   5.814  10.638  0.7360  1.4612  0.3992
  740MOL0     H99880  -1.261   5.798  10.584  2.6301 -1.5189 -2.4236
  740MOL0     H99881  -1.236   5.965  10.507  2.0188  1.3923  0.1956
  740MOL0     H99882  -0.395   5.353  10.021  0.5052  0.5312  0.0660
  740MOL0     H99883  -0.188   5.377  10.147 -0.3557  1.1860 -1.4489
  740MOL0     H99884   0.102   5.398  10.356  0.4119  2.2865 -2.2427
  740MOL0     H99885   0.322   5.424  10.447 -0.5459 -0.3420 -0.4335
  740MOL0     H99886   2.023   4.655  10.575  0.2581  0.6785 -1.1145
  740MOL0     H99887   2.242   4.614  10.541 -0.8017 -0.9940 -0.0510
  740MOL0     H99888   2.728   4.400  10.927 -1.7881 -2.2853 -1.1467
  740MOL0     H99889   2.951   4.441  10.871 -0.7113 -2.9227 -0.3806
  740MOL0     H99890   3.070   4.500  10.409  3.4434  3.8806 -2.5968
  740MOL0     H99891   3.031   4.651  10.492 -2.6760 -0.8133  1.7083
  740MOL0     H99892   3.253   4.657  10.593  0.3756  1.0875 -1.5031
  740MOL0     H99893   3.241   4.672  10.414  1.1703  2.5976  1.0159
  740MOL0     H99894   3.295   4.415  10.570  0.7616  1.3792  1.7198
  740MOL0     H99895   3.437   4.510  10.534  1.0512 -6.0633  0.9549
  740MOL0     H99896   3.374   4.509  10.279  2.1013  0.1794 -0.9827
  740MOL0     H99897   3.256   4.385  10.321 -0.7956  0.1914  2.7129
  740MOL0     H99898   3.641   4.202  10.361 -1.1449 -2.5860 -0.2520
  740MOL0     H99899   2.832   4.542  10.458  1.2422 -2.0076 -0.5662
  740MOL0     H99900   2.609   4.523  10.531  0.0737 -2.1919 -0.4028
  741MOL0     O99901   2.602   0.133   3.620  0.4562 -0.1744 -0.0269
  741MOL0     C99902   2.519   0.194   3.557  0.5645  0.4272 -0.0395
  741MOL0     O99903   2.532   0.319   3.504 -0.2869  0.9648 -0.4584
  741MOL0     C99904   2.639   0.391   3.561 -0.1835  0.0526  0.8069
  741MOL0     C99905   2.672   0.393   3.700  0.2634 -0.2746 -0.2723
  741MOL0     C99906   2.773   0.471   3.750 -0.0923 -0.2730 -0.1672
  741MOL0     C99907   2.834   0.566   3.664  0.2508  0.3508 -0.4447
  741MOL0     O99908   2.927   0.656   3.716 -0.5705  0.3453  0.1451
  741MOL0     C99909   3.027   0.587   3.800 -0.3131  0.1288  0.2734
  741MOL0     C99910   3.145   0.681   3.808  0.0531  0.4502 -0.5139
  741MOL0     C99911   3.263   0.626   3.879  0.6790 -0.3762 -0.5500
  741MOL0     C99912   3.397   0.708   3.870  0.1419  0.2466 -0.9182
  741MOL0     C99913   3.482   0.656   3.985  0.2033  0.3168  0.1042
  741MOL0     C99914   3.608   0.736   3.995  0.2914 -0.3938 -1.2636
  741MOL0     C99915   3.644   0.777   4.147 -1.2275 -0.0189 -0.5326
  741MOL0     C99916   3.756   0.883   4.159  0.3471  0.1280 -0.4177
  741MOL0     N99917   3.894   0.845   4.125  0.0299  0.0872 -0.1590
  741MOL0     C99918   3.980   0.796   4.221 -0.6347  0.0602 -0.2101
  741MOL0     C99919   4.100   0.794   4.156 -0.1772 -0.3122  0.2300
  741MOL0     C99920   4.233   0.734   4.179 -0.4111 -0.4071 -0.1964
  741MOL0     C99921   4.223   0.614   4.275  0.2669  0.2064  0.0844
  741MOL0     C99922   4.202   0.482   4.199  0.5238 -0.5524  0.0669
  741MOL0     C99923   4.068   0.459   4.142 -0.0873 -0.4039 -0.0249
  741MOL0     O99924   3.969   0.474   4.242 -0.6176  0.3432 -0.3920
  741MOL0     C99925   3.831   0.444   4.229 -0.7023 -0.0360  0.1547
  741MOL0     C99926   3.754   0.462   4.340  0.1250 -0.2821 -0.6455
  741MOL0     C99927   3.619   0.429   4.346 -0.0185 -0.4569  0.7189
  741MOL0     C99928   3.550   0.455   4.479 -0.5352  0.7757  0.6414
  741MOL0     C99929   3.563   0.383   4.222 -0.1136 -0.0996  0.2152
  741MOL0     C99930   3.418   0.351   4.207  0.2308 -0.7301  0.6046
  741MOL0     O99931   3.377   0.314   4.080 -0.0612 -0.0258  0.8775
  741MOL0     C99932   3.239   0.303   4.050 -1.1825  0.3876  0.5542
  741MOL0     C99933   3.204   0.198   3.963 -0.3599  0.6096  0.7788
  741MOL0     C99934   3.071   0.182   3.922 -0.1610 -0.3720 -0.2919
  741MOL0     C99935   2.967   0.267   3.966  0.0921 -0.1567 -0.2552
  741MOL0     O99936   2.831   0.237   3.949  0.1253 -0.3073 -0.0522
  741MOL0     C99937   2.792   0.097   3.934  0.4072  0.2095  0.1710
  741MOL0     C99938   2.644   0.067   3.940  0.4279 -0.1012 -0.6969
  741MOL0     C99939   2.576   0.112   4.081 -0.9878 -0.5219 -0.6568
  741MOL0     C99940   2.421   0.137   4.072 -0.3700 -0.1423 -0.4307
  741MOL0     C99941   2.356   0.018   4.133 -0.7484  0.5385  0.1002
  741MOL0     C99942   2.206   0.030   4.102  0.5549 -1.1423  0.7368
  741MOL0     C99943   2.120  -0.085   4.144 -0.6216  0.4475  1.1014
  741MOL0     C99944   2.146  -0.200   4.048  0.4168 -0.3530  0.6985
  741MOL0    Cl99945   2.111  -0.162   3.875 -0.2399 -0.0587 -0.3806
  741MOL0     C99946   2.995   0.366   4.061 -0.2069 -0.0480 -0.0489
  741MOL0     C99947   3.129   0.384   4.102  0.1508  0.2139 -0.2264
  741MOL0     O99948   3.338   0.379   4.301 -0.7602  0.1355 -0.3475
  741MOL0     C99949   3.642   0.361   4.105 -0.5109 -0.0962 -0.0543
  741MOL0     C99950   3.774   0.387   4.114  0.7374  0.4355 -0.3716
  741MOL0     N99951   4.089   0.855   4.041  0.6967 -0.6768  1.1915
  741MOL0     N99952   3.968   0.878   4.020 -0.4083  0.1815  0.3012
  741MOL0     C99953   2.801   0.574   3.530  0.7138  0.2497  0.5783
  741MOL0     C99954   2.697   0.485   3.480 -0.1636 -0.4694  0.5694
  741MOL0     C99955   2.382   0.123   3.547  0.3065  0.4380  0.6413
  741MOL0     C99956   2.286   0.183   3.468 -0.1277  1.0472  0.7199
  741MOL0     C99957   2.162   0.114   3.452  0.0834  0.2087  0.1785
  741MOL0     C99958   2.135  -0.018   3.513 -0.4008  0.3825 -0.2103
  741MOL0     O99959   2.028  -0.092   3.505  1.2080  0.5554  0.3201
  741MOL0     C99960   1.939  -0.089   3.389 -0.2459  0.1498 -0.3050
  741MOL0     C99961   1.817   0.007   3.408  0.2560 -0.3995  0.6709
  741MOL0     C99962   1.713  -0.051   3.499 -0.2549 -0.8241  0.0194
  741MOL0     C99963   1.571   0.020   3.464  0.0753  1.2286 -0.2633
  741MOL0     C99964   1.578   0.165   3.486  0.5224 -0.2100  0.6518
  741MOL0     C99965   1.564   0.287   3.499 -0.1908  0.4902  0.4821
  741MOL0     C99966   2.234  -0.076   3.584 -0.1323 -0.2920 -0.6014
  741MOL0     C99967   2.359  -0.009   3.611 -0.6365 -0.1991  0.1460
  741MOL0     H99968   2.619   0.339   3.778  0.6401  0.5863  0.6003
  741MOL0     H99969   2.797   0.468   3.856  1.1543  0.8414 -0.3903
  741MOL0     H99970   2.992   0.565   3.901 -0.0303 -2.2309 -0.0907
  741MOL0     H99971   3.041   0.489   3.752 -2.3655 -1.0887  1.9705
  741MOL0     H99972   3.159   0.683   3.700 -0.6546  2.1603 -0.5996
  741MOL0     H99973   3.109   0.781   3.830  0.1092  0.5596 -0.9130
  741MOL0     H99974   3.237   0.625   3.985  3.1053 -0.2962  0.1053
  741MOL0     H99975   3.279   0.522   3.848  0.7337  0.0649 -2.1022
  741MOL0     H99976   3.443   0.692   3.772 -0.6744 -0.8769 -1.1406
  741MOL0     H99977   3.372   0.813   3.882  3.4635  0.8556  2.3606
  741MOL0     H99978   3.432   0.667   4.082 -1.5733 -1.1870 -0.5956
  741MOL0     H99979   3.503   0.554   3.954 -1.1691  0.3535 -1.0585
  741MOL0     H99980   3.695   0.687   3.949  1.1758 -0.0204 -0.0186
  741MOL0     H99981   3.596   0.825   3.932 -1.7468  2.7373  3.0772
  741MOL0     H99982   3.562   0.831   4.195  2.8533  1.5563  5.9302
  741MOL0     H99983   3.673   0.687   4.203 -0.6710  1.5755  1.9069
  741MOL0     H99984   3.752   0.903   4.267 -2.2695 -1.9948 -0.0081
  741MOL0     H99985   3.734   0.979   4.111  0.8776  1.8012  2.4677
  741MOL0     H99986   3.956   0.742   4.312  1.1889 -0.6451 -0.1167
  741MOL0     H99987   4.281   0.706   4.085 -0.6155 -0.7604 -0.2000
  741MOL0     H99988   4.295   0.812   4.223 -0.7771 -0.2101 -0.0276
  741MOL0     H99989   4.154   0.631   4.358  1.6792  0.8794  1.1611
  741MOL0     H99990   4.322   0.601   4.320  0.4078 -2.3067 -0.7696
  741MOL0     H99991   4.218   0.414   4.283 -1.2230  0.0500  0.9433
  741MOL0     H99992   4.268   0.474   4.112  0.3118 -0.2988 -0.1207
  741MOL0     H99993   4.066   0.352   4.116 -1.7864 -0.1614 -1.0063
  741MOL0     H99994   4.043   0.525   4.059 -0.3472 -1.7174 -1.0235
  741MOL0     H99995   3.805   0.517   4.418 -0.5012 -0.8992  0.2154
  741MOL0     H99996   3.620   0.494   4.553  1.3613  0.5721 -0.9395
  741MOL0     H99997   3.468   0.524   4.457  0.0901  0.5098 -3.4314
  741MOL0     H99998   3.500   0.363   4.511 -0.5651  0.7015  0.3889
  741MOL0     H99999   3.291   0.143   3.928 -0.2566 -1.1198  3.4603
  741MOL0     H    0   3.051   0.106   3.848 -0.3060 -0.1399 -0.4925
  741MOL0     H    1   2.824   0.063   3.836 -5.7563 -0.1117 -2.1856
  741MOL0     H    2   2.849   0.032   4.001 -0.9461 -2.3474 -1.0078
  741MOL0     H    3   2.588   0.118   3.862 -1.7110  0.8278  1.3438
  741MOL0     H    4   2.630  -0.041   3.931 -4.0374  0.1912  0.3243
  741MOL0     H    5   2.631   0.203   4.104  0.2749 -0.5239 -3.3187
  741MOL0     H    6   2.608   0.040   4.157  0.4348  0.0705 -0.6633
  741MOL0     H    7   2.400   0.218   4.141  1.2083 -2.4051  2.9638
  741MOL0     H    8   2.399   0.158   3.967  1.2278  2.8039 -0.2764
  741MOL0     H    9   2.375   0.015   4.241  2.0644  0.1541 -0.3171
  741MOL0     H   10   2.396  -0.070   4.082  0.2383  1.3358 -0.5643
  741MOL0     H   11   2.172   0.111   4.168  2.3769  1.3386 -1.1740
  741MOL0     H   12   2.175   0.062   4.001 -0.2625 -2.2847  0.6083
  741MOL0     H   13   2.013  -0.068   4.158 -0.5027  1.4577  0.8514
  741MOL0     H   14   2.151  -0.125   4.241 -1.7661 -2.6052  0.3137
  741MOL0     H   15   2.060  -0.265   4.067 -2.5944  2.5493 -1.7826
  741MOL0     H   16   2.239  -0.260   4.048 -0.5040 -2.0264 -2.1853
  741MOL0     H   17   2.907   0.422   4.092 -1.1351 -1.4229 -0.1083
  741MOL0     H   18   3.156   0.458   4.177 -0.1358  0.4607 -0.3628
  741MOL0     H   19   3.597   0.317   4.016 -1.5649 -1.9383  1.3213
  741MOL0     H   20   3.834   0.363   4.027  0.9757  0.2810 -0.1647
  741MOL0     H   21   2.854   0.649   3.472  2.1382 -1.4348 -0.3988
  741MOL0     H   22   2.665   0.498   3.377 -0.1223  2.4737  0.8372
  741MOL0     H   23   2.293   0.283   3.426 -2.7242  1.2386  0.5324
  741MOL0     H   24   2.080   0.152   3.392  2.2935 -0.0882 -3.4006
  741MOL0     H   25   2.000  -0.063   3.302 -1.3076  1.5175 -0.6780
  741MOL0     H   26   1.912  -0.194   3.379 -0.6310  0.3728 -1.8694
  741MOL0     H   27   1.770   0.016   3.310  0.9067 -1.1157  0.2817
  741MOL0     H   28   1.845   0.108   3.438 -0.9140  0.2608 -0.3865
  741MOL0     H   29   1.748  -0.025   3.599  1.7183 -0.4453 -0.7113
  741MOL0     H   30   1.703  -0.159   3.485  1.7836 -0.9522 -0.7706
  741MOL0     H   31   1.491  -0.011   3.532  0.5582 -1.3961 -0.7607
  741MOL0     H   32   1.542   0.005   3.359  0.3482  2.2075 -0.4830
  741MOL0     H   33   1.554   0.391   3.521  0.2684  0.4455  0.9263
  741MOL0     H   34   2.222  -0.176   3.625 -1.9179 -1.2122 -3.1279
  741MOL0     H   35   2.443  -0.062   3.655  0.0165 -1.1435 -2.0924
  742MOL0     O   36   9.374   9.413   1.990 -0.3437 -0.1336 -0.1752
  742MOL0     C   37   9.311   9.396   1.886  0.7772  0.1995 -0.6322
  742MOL0     O   38   9.307   9.482   1.782  0.1626 -0.3694 -0.1783
  742MOL0     C   39   9.403   9.577   1.769 -0.2883 -0.2988 -0.2829
  742MOL0     C   40   9.358   9.708   1.742 -0.1783  0.5307 -0.5296
  742MOL0     C   41   9.443   9.811   1.716  0.5348 -1.2008 -0.6347
  742MOL0     C   42   9.581   9.788   1.709  0.8154 -0.4244 -0.1166
  742MOL0     O   43   9.656   9.888   1.666 -0.5940 -0.6781 -0.1036
  742MOL0     C   44   9.801   9.884   1.666  0.4470 -0.8539 -0.4159
  742MOL0     C   45   9.843   9.824   1.535  0.2908  0.5950  0.2196
  742MOL0     C   46   9.809   9.906   1.415  0.6614  0.1366  0.5918
  742MOL0     C   47   9.662   9.907   1.364 -0.0402 -0.4300 -0.7306
  742MOL0     C   48   9.645   9.977   1.226  1.2754  1.2318  0.5524
  742MOL0     C   49   9.494   9.959   1.192 -0.2120  0.3283  0.3830
  742MOL0     C   50   9.455  10.024   1.051  0.1826 -0.7424 -0.3623
  742MOL0     C   51   9.376  10.153   1.083  0.8451  0.4327  0.7636
  742MOL0     N   52   9.236  10.132   1.129 -1.0332  0.4093 -0.5258
  742MOL0     C   53   9.134  10.089   1.053 -0.2042 -0.3890 -0.7130
  742MOL0     C   54   9.021  10.114   1.123  0.9892  1.0864 -0.4786
  742MOL0     C   55   8.879  10.092   1.075 -0.0370  0.6664  0.0126
  742MOL0     C   56   8.771  10.150   1.173  0.5577 -0.0330 -0.4951
  742MOL0     C   57   8.634  10.125   1.116 -0.1794  0.3068 -0.9278
  742MOL0     C   58   8.532  10.222   1.168  0.1963 -0.5977 -0.1978
  742MOL0     O   59   8.408  10.211   1.090 -0.7254  0.3656 -0.7421
  742MOL0     C   60   8.287  10.264   1.135  0.1150 -0.3962  0.6927
  742MOL0     C   61   8.169  10.216   1.062 -0.9727  0.1481  0.1279
  742MOL0     C   62   8.046  10.278   1.085  0.6111  0.8838 -0.8414
  742MOL0     C   63   7.928  10.201   1.044  0.2021  0.5013  0.1036
  742MOL0     C   64   8.033  10.402   1.161  0.5785  0.0437  0.4930
  742MOL0     C   65   7.910  10.485   1.174 -0.3821 -0.2241  0.1813
  742MOL0     O   66   7.793  10.448   1.119  0.6370  0.6077 -0.5196
  742MOL0     C   67   7.681  10.521   1.148 -0.3792  0.2690 -0.5145
  742MOL0     C   68   7.647  10.629   1.064 -0.5220 -0.0794  0.0095
  742MOL0     C   69   7.528  10.703   1.087  0.2977 -0.3346  0.8083
  742MOL0     C   70   7.426  10.657   1.176 -0.8669 -0.4187 -0.1514
  742MOL0     O   71   7.309  10.730   1.183 -0.7286  0.7302 -0.3102
  742MOL0     C   72   7.215  10.693   1.288  0.0918 -0.1352  0.4645
  742MOL0     C   73   7.100  10.789   1.313  0.6973  0.8892 -0.5433
  742MOL0     C   74   7.134  10.939   1.336  0.0173  0.2505 -0.8054
  742MOL0     C   75   7.016  11.033   1.367 -1.0250 -0.2019 -0.0776
  742MOL0     C   76   6.975  11.041   1.514  0.0737  0.8708 -0.2563
  742MOL0     C   77   6.945  11.190   1.551  0.0051 -0.1007 -0.3339
  742MOL0     C   78   6.887  11.213   1.685  0.2730  1.0123  0.5509
  742MOL0     C   79   6.869  11.355   1.726 -0.4447  0.2909  1.0290
  742MOL0    Cl   80   7.026  11.435   1.757 -0.1129  0.1044 -0.1876
  742MOL0     C   81   7.459  10.547   1.254 -0.5794  0.5515 -0.1730
  742MOL0     C   82   7.583  10.469   1.234 -0.0221 -2.0509 -0.5949
  742MOL0     O   83   7.928  10.591   1.238 -0.0825  0.2738 -0.1209
  742MOL0     C   84   8.147  10.438   1.229 -0.3902  0.2021 -0.8575
  742MOL0     C   85   8.271  10.376   1.217 -0.3305 -0.9021 -0.0016
  742MOL0     N   86   9.057  10.193   1.235  0.1716 -0.7200 -0.6335
  742MOL0     N   87   9.187  10.207   1.229 -0.1630 -0.3740 -0.1392
  742MOL0     C   88   9.630   9.663   1.732 -0.4123  0.7083  0.2524
  742MOL0     C   89   9.544   9.558   1.764 -0.1351 -0.2639 -0.5979
  742MOL0     C   90   9.220   9.275   1.892 -0.4063 -1.1067  0.6837
  742MOL0     C   91   9.199   9.189   1.997 -0.4432  0.0949 -0.2144
  742MOL0     C   92   9.109   9.083   1.986  0.2402  0.2091  0.9363
  742MOL0     C   93   9.038   9.061   1.864 -0.2743 -0.3411 -1.1035
  742MOL0     O   94   8.950   8.964   1.833 -0.0020  0.4475 -0.1462
  742MOL0     C   95   8.923   8.863   1.936  0.1234  0.1211  0.5616
  742MOL0     C   96   8.837   8.750   1.868 -0.2394 -0.0601  0.3846
  742MOL0     C   97   8.703   8.796   1.814 -0.7066  0.1313 -0.1508
  742MOL0     C   98   8.720   8.855   1.671 -0.1716  0.1235  0.2233
  742MOL0     C   99   8.591   8.925   1.654 -0.3298  1.5156  0.1360
  742MOL0     C  100   8.481   8.966   1.630  0.0915 -0.3231 -0.4518
  742MOL0     C  101   9.061   9.146   1.760  0.1780  0.2153  0.0451
  742MOL0     C  102   9.141   9.256   1.771  0.0101  0.3254  0.0205
  742MOL0     H  103   9.251   9.723   1.731 -0.0691  0.1820 -2.4209
  742MOL0     H  104   9.405   9.910   1.692  0.9944 -0.8847 -0.1001
  742MOL0     H  105   9.844   9.984   1.677 -0.7966 -0.4059  0.6532
  742MOL0     H  106   9.833   9.821   1.749 -1.1500 -0.4339  0.5736
  742MOL0     H  107   9.952   9.820   1.542  0.2496  1.2514  1.5442
  742MOL0     H  108   9.815   9.721   1.511  3.9376 -0.4782  0.0670
  742MOL0     H  109   9.829  10.012   1.432  1.2992  0.4420 -1.7308
  742MOL0     H  110   9.876   9.883   1.331 -0.6295  1.1292 -0.7596
  742MOL0     H  111   9.621   9.805   1.362 -1.2144 -0.1375  2.4779
  742MOL0     H  112   9.600   9.964   1.434  0.1820 -2.6547  1.4085
  742MOL0     H  113   9.678  10.081   1.228  1.5791  1.1262  0.8990
  742MOL0     H  114   9.698   9.913   1.154 -0.4853 -1.0083  1.1051
  742MOL0     H  115   9.490   9.850   1.177  0.4791  0.2428  0.7697
  742MOL0     H  116   9.438   9.992   1.280 -1.1299 -1.5278  0.5458
  742MOL0     H  117   9.547  10.055   1.001  2.1454  1.9687  4.2491
  742MOL0     H  118   9.396   9.961   0.984  2.0515 -0.4391 -2.3919
  742MOL0     H  119   9.373  10.211   0.990 -0.0370 -0.8856 -0.0619
  742MOL0     H  120   9.432  10.210   1.157 -0.0511  2.2315  0.1201
  742MOL0     H  121   9.130  10.048   0.953 -0.7026  1.7614 -1.6509
  742MOL0     H  122   8.870  10.168   0.996  0.3792  1.5727  0.8214
  742MOL0     H  123   8.844   9.994   1.040  0.7474  0.6599 -0.7951
  742MOL0     H  124   8.803  10.254   1.190  0.7930  0.1566 -1.9125
  742MOL0     H  125   8.775  10.084   1.260  1.3833 -0.6117 -0.9537
  742MOL0     H  126   8.593  10.027   1.144 -1.8174  1.2962  0.3763
  742MOL0     H  127   8.640  10.121   1.007 -0.3955 -1.1885 -0.9134
  742MOL0     H  128   8.573  10.323   1.155  0.3179 -0.3175  1.9777
  742MOL0     H  129   8.512  10.214   1.275 -3.2767 -1.0666 -0.7654
  742MOL0     H  130   8.183  10.133   0.994  1.1403  0.6426 -0.1132
  742MOL0     H  131   7.954  10.098   1.019 -0.8821  0.2448 -0.0074
  742MOL0     H  132   7.851  10.197   1.122 -1.6144 -0.8071 -1.6343
  742MOL0     H  133   7.890  10.258   0.959 -0.2573  2.7308  1.7086
  742MOL0     H  134   7.705  10.644   0.974  0.2115  0.3757  0.5485
  742MOL0     H  135   7.506  10.799   1.040  2.3636  0.4906  1.3779
  742MOL0     H  136   7.173  10.593   1.270  1.9411 -0.4981 -2.4764
  742MOL0     H  137   7.261  10.676   1.386  0.0903  1.0321  0.6863
  742MOL0     H  138   7.017  10.771   1.244  2.2166  1.5513 -2.6341
  742MOL0     H  139   7.071  10.765   1.416  1.3017  1.8776 -0.1244
  742MOL0     H  140   7.195  10.961   1.248 -1.6061  0.6415 -1.8725
  742MOL0     H  141   7.198  10.948   1.425 -2.6005 -0.2647  1.2643
  742MOL0     H  142   7.043  11.132   1.329 -0.2282 -1.4560 -3.1047
  742MOL0     H  143   6.931  11.002   1.304 -0.0427 -2.1565 -0.5289
  742MOL0     H  144   7.040  10.989   1.585 -0.6926  0.6990  0.3464
  742MOL0     H  145   6.881  10.989   1.533  0.9413  0.0099  2.1072
  742MOL0     H  146   7.032  11.252   1.527 -0.3567 -0.5969 -3.4357
  742MOL0     H  147   6.862  11.223   1.487 -3.1805 -1.2611  2.8385
  742MOL0     H  148   6.959  11.158   1.747  1.2166 -0.3544 -1.6297
  742MOL0     H  149   6.787  11.169   1.680  1.3856 -1.6758 -3.5745
  742MOL0     H  150   6.798  11.359   1.809 -0.9469  1.0132  0.5672
  742MOL0     H  151   6.813  11.391   1.639  0.3367 -0.7643  0.0523
  742MOL0     H  152   7.389  10.502   1.325 -1.0505  0.9890 -0.3590
  742MOL0     H  153   7.583  10.379   1.294 -3.9960  0.1828  3.4294
  742MOL0     H  154   8.143  10.533   1.282  0.1257  0.4259 -1.2143
  742MOL0     H  155   8.358  10.431   1.251  0.1710 -1.3392 -0.5590
  742MOL0     H  156   9.733   9.631   1.716 -0.9887 -1.4020  0.4389
  742MOL0     H  157   9.583   9.462   1.796 -2.4968 -1.5508 -1.3523
  742MOL0     H  158   9.241   9.207   2.096 -1.2211 -2.9917  0.8012
  742MOL0     H  159   9.087   9.021   2.072 -0.6774  1.9461  2.0062
  742MOL0     H  160   9.019   8.836   1.980 -0.1969  1.2370  2.0153
  742MOL0     H  161   8.869   8.913   2.016  1.9710  3.4158 -0.0461
  742MOL0     H  162   8.807   8.679   1.946 -2.0399 -0.9735 -1.0701
  742MOL0     H  163   8.889   8.700   1.786 -0.6643  0.7220 -0.3816
  742MOL0     H  164   8.674   8.874   1.885  1.4524  1.3309 -0.5185
  742MOL0     H  165   8.636   8.709   1.814  0.0410 -0.4625 -1.2421
  742MOL0     H  166   8.712   8.777   1.594 -2.3613  0.7094 -0.2109
  742MOL0     H  167   8.807   8.918   1.653 -0.3218  0.9190  2.1195
  742MOL0     H  168   8.388   9.014   1.608 -0.2101 -1.5834 -2.1121
  742MOL0     H  169   9.011   9.129   1.666 -0.0144 -0.2265  0.2199
  742MOL0     H  170   9.138   9.313   1.679 -0.8770 -2.5047 -1.8088
  743MOL0     O  171   4.534   6.941   2.956  0.7480  0.1558  0.0752
  743MOL0     C  172   4.463   6.842   2.930  0.7793  0.0136 -0.6700
  743MOL0     O  173   4.483   6.719   2.970  0.2295 -0.1021 -0.2436
  743MOL0     C  174   4.582   6.696   3.060  0.0288 -0.3186 -0.2737
  743MOL0     C  175   4.717   6.723   3.026  0.5811  0.3753 -0.4378
  743MOL0     C  176   4.823   6.690   3.112  0.5039 -0.7305 -0.3493
  743MOL0     C  177   4.801   6.612   3.225  0.2424  0.3031  1.0791
  743MOL0     O  178   4.912   6.570   3.300 -0.0807  0.7565 -0.4616
  743MOL0     C  179   4.887   6.554   3.438 -0.2897 -0.2308 -0.5451
  743MOL0     C  180   4.872   6.675   3.517 -0.4380 -1.3861  0.6215
  743MOL0     C  181   4.988   6.768   3.527 -0.3095 -1.0260 -0.2888
  743MOL0     C  182   4.940   6.888   3.616  0.2459 -0.4988 -1.1956
  743MOL0     C  183   5.057   6.964   3.672 -0.7187 -0.5725 -0.5142
  743MOL0     C  184   5.028   7.114   3.709  0.2065  0.3946 -0.1204
  743MOL0     C  185   4.977   7.199   3.592 -0.6961 -0.3385  0.6281
  743MOL0     C  186   5.000   7.355   3.610  0.7676  0.7022 -0.6558
  743MOL0     N  187   4.935   7.408   3.734 -1.0053 -0.3333  0.0232
  743MOL0     C  188   4.822   7.471   3.745  0.9963 -0.5505  0.9292
  743MOL0     C  189   4.821   7.528   3.864  0.6762 -0.4200 -0.5499
  743MOL0     C  190   4.716   7.627   3.902 -0.3351 -0.2271  0.4118
  743MOL0     C  191   4.578   7.570   3.941  1.3770  0.1105 -0.4075
  743MOL0     C  192   4.515   7.491   3.824 -0.1459 -0.5853 -0.3838
  743MOL0     C  193   4.363   7.468   3.856 -0.0753  0.7037  0.4153
  743MOL0     O  194   4.295   7.412   3.739 -0.2905  0.0241  0.2386
  743MOL0     C  195   4.163   7.404   3.750  0.3894  0.3260  0.4964
  743MOL0     C  196   4.083   7.455   3.850 -0.1384  0.9654 -0.2791
  743MOL0     C  197   3.942   7.429   3.861  0.2841 -0.7456 -0.4141
  743MOL0     C  198   3.886   7.476   3.989  0.1178 -0.0218  0.4986
  743MOL0     C  199   3.879   7.354   3.765  0.0655 -0.1131  0.4620
  743MOL0     C  200   3.733   7.339   3.748  0.9425  0.2273  0.2466
  743MOL0     O  201   3.692   7.281   3.633  0.5759 -0.6574 -0.2927
  743MOL0     C  202   3.556   7.287   3.599 -0.6944 -0.0320 -0.3091
  743MOL0     C  203   3.482   7.180   3.557  0.4068 -0.9460  0.5218
  743MOL0     C  204   3.344   7.193   3.528  0.4348 -0.4474 -0.0376
  743MOL0     C  205   3.276   7.315   3.539 -0.0672  0.7318  1.1400
  743MOL0     O  206   3.143   7.335   3.535  0.5200 -0.2649  0.1129
  743MOL0     C  207   3.064   7.258   3.442  0.1978  0.0959  0.0519
  743MOL0     C  208   2.966   7.167   3.527  0.4277 -0.1341 -0.9508
  743MOL0     C  209   2.875   7.255   3.617 -0.0371 -0.3452 -0.2919
  743MOL0     C  210   2.776   7.182   3.705  0.1875  0.7362  0.5344
  743MOL0     C  211   2.682   7.279   3.785 -0.0608  0.3262 -0.4303
  743MOL0     C  212   2.538   7.223   3.809 -0.3969  0.0415  0.0882
  743MOL0     C  213   2.453   7.279   3.929  0.7322  0.8662 -0.1267
  743MOL0     C  214   2.299   7.255   3.911 -0.8669 -0.8359  0.4881
  743MOL0    Cl  215   2.205   7.340   4.036 -0.0338 -0.3430  0.0359
  743MOL0     C  216   3.357   7.422   3.567  0.6523 -0.4747 -0.3048
  743MOL0     C  217   3.492   7.415   3.598 -0.1949 -0.4597 -0.3010
  743MOL0     O  218   3.658   7.380   3.831  0.0217 -1.3127  0.7641
  743MOL0     C  219   3.952   7.315   3.651  0.6234 -0.4028  0.6261
  743MOL0     C  220   4.092   7.342   3.642 -0.0625  0.1252 -0.1295
  743MOL0     N  221   4.933   7.496   3.934  0.6963 -0.0165  0.4855
  743MOL0     N  222   5.001   7.418   3.852 -0.0672  1.0817 -0.0022
  743MOL0     C  223   4.669   6.579   3.258  0.0946 -0.0757  0.6419
  743MOL0     C  224   4.560   6.630   3.182 -0.1290  1.1195  0.7905
  743MOL0     C  225   4.322   6.855   2.878  0.5127 -0.1805  1.4333
  743MOL0     C  226   4.226   6.748   2.849  0.0379 -0.2410 -0.5262
  743MOL0     C  227   4.105   6.781   2.788 -0.5524 -0.5206 -0.6034
  743MOL0     C  228   4.057   6.909   2.772  0.6767  0.1432 -0.0161
  743MOL0     O  229   3.930   6.927   2.710 -0.5840  0.1828  0.1967
  743MOL0     C  230   3.856   7.039   2.730  0.4822 -0.3221 -0.3642
  743MOL0     C  231   3.880   7.154   2.631  0.5248  0.2223 -0.1156
  743MOL0     C  232   3.909   7.126   2.485 -0.1342 -0.1505  0.3198
  743MOL0     C  233   3.800   7.033   2.425  0.2270  0.3231  0.4574
  743MOL0     C  234   3.671   7.098   2.394 -0.2849 -0.2809 -0.3888
  743MOL0     C  235   3.575   7.141   2.340  1.4181 -0.8086 -0.0297
  743MOL0     C  236   4.148   7.011   2.797  0.2384 -0.2422 -0.2998
  743MOL0     C  237   4.276   6.985   2.848 -0.6691 -0.2266 -0.2166
  743MOL0     H  238   4.728   6.786   2.938  0.5827  2.9617  1.3079
  743MOL0     H  239   4.922   6.729   3.097 -0.3017  0.0699 -5.2792
  743MOL0     H  240   4.804   6.488   3.465  0.5431 -2.1662 -2.4731
  743MOL0     H  241   4.976   6.506   3.479  1.3450  0.1557 -3.4181
  743MOL0     H  242   4.795   6.735   3.466  1.7988  3.0098  1.8601
  743MOL0     H  243   4.855   6.638   3.618  4.3898  0.3243  2.3127
  743MOL0     H  244   5.067   6.708   3.571  1.2727  1.0766 -0.0914
  743MOL0     H  245   5.033   6.803   3.433 -0.6563  0.2512 -0.0116
  743MOL0     H  246   4.885   6.952   3.546  1.7281  0.8826 -1.1586
  743MOL0     H  247   4.879   6.858   3.701  2.0811  0.3562  0.5090
  743MOL0     H  248   5.110   6.911   3.751  2.6953  0.9653 -1.5307
  743MOL0     H  249   5.138   6.969   3.598  1.4614  3.5225  1.7749
  743MOL0     H  250   4.957   7.123   3.792  0.5887  2.3122  0.0444
  743MOL0     H  251   5.117   7.160   3.753  1.1771 -2.7390  1.5164
  743MOL0     H  252   5.030   7.176   3.499 -4.8603  1.8959 -2.6724
  743MOL0     H  253   4.872   7.176   3.573  0.5490 -3.3487 -4.2803
  743MOL0     H  254   4.955   7.405   3.524 -1.5476 -2.5710 -1.4982
  743MOL0     H  255   5.106   7.383   3.610  0.7298  0.8514 -0.5917
  743MOL0     H  256   4.752   7.477   3.663  2.1164  0.5754  0.0129
  743MOL0     H  257   4.752   7.689   3.985 -0.1867 -3.3435  2.8577
  743MOL0     H  258   4.703   7.694   3.816  3.1685  0.1821  0.0456
  743MOL0     H  259   4.518   7.660   3.957  1.5946  0.4966 -1.6103
  743MOL0     H  260   4.577   7.517   4.036  0.2931  3.0016  1.3154
  743MOL0     H  261   4.562   7.392   3.816 -1.9725 -1.3776 -2.6785
  743MOL0     H  262   4.524   7.545   3.729  4.1285  2.0511  1.2732
  743MOL0     H  263   4.318   7.562   3.888 -3.0495 -1.0496  1.7326
  743MOL0     H  264   4.349   7.400   3.940  0.0505 -1.6196 -1.3623
  743MOL0     H  265   4.120   7.522   3.928  0.3968 -0.6215  0.8886
  743MOL0     H  266   3.842   7.576   3.975 -0.4625 -0.4652 -1.1527
  743MOL0     H  267   3.809   7.417   4.039  1.3449 -0.3731  2.0533
  743MOL0     H  268   3.966   7.483   4.063 -1.6165 -2.6502  2.7762
  743MOL0     H  269   3.517   7.078   3.541 -0.8169 -0.9498 -2.7510
  743MOL0     H  270   3.293   7.101   3.500  0.5076 -0.3154 -0.6161
  743MOL0     H  271   3.001   7.323   3.380  2.2655  0.7115 -1.5387
  743MOL0     H  272   3.113   7.200   3.364 -3.0689  0.0567 -2.2006
  743MOL0     H  273   2.894   7.118   3.461  1.8641 -1.5529 -1.5525
  743MOL0     H  274   3.030   7.097   3.582  0.7559  1.9192  1.4641
  743MOL0     H  275   2.811   7.306   3.545 -1.2321 -3.4832 -1.6222
  743MOL0     H  276   2.921   7.336   3.675 -2.0252 -0.7068  1.9746
  743MOL0     H  277   2.738   7.106   3.635  1.0717 -0.8155  1.6723
  743MOL0     H  278   2.834   7.128   3.780  3.4368  0.2948 -2.0568
  743MOL0     H  279   2.669   7.371   3.728 -0.1991  0.1589 -0.6694
  743MOL0     H  280   2.741   7.300   3.875  1.6494 -2.7077 -0.6774
  743MOL0     H  281   2.477   7.232   3.718 -1.3487 -2.0045  0.4693
  743MOL0     H  282   2.547   7.115   3.828  1.2999  0.0560 -0.4470
  743MOL0     H  283   2.472   7.386   3.931  2.4163  0.5785  1.5739
  743MOL0     H  284   2.482   7.224   4.019 -1.3832  0.6324  0.4826
  743MOL0     H  285   2.277   7.148   3.915 -1.8633 -0.6611 -0.0854
  743MOL0     H  286   2.258   7.310   3.826 -0.3610  1.3241  1.5449
  743MOL0     H  287   3.309   7.516   3.594 -0.2389 -1.1895  0.6888
  743MOL0     H  288   3.541   7.504   3.634  1.0705 -2.3914  3.2203
  743MOL0     H  289   3.906   7.275   3.562 -3.5597  0.1712  2.2917
  743MOL0     H  290   4.144   7.314   3.551  2.0059  0.5657  0.8591
  743MOL0     H  291   4.641   6.528   3.350 -0.5372  1.5009  1.3631
  743MOL0     H  292   4.458   6.598   3.203 -0.7659  1.4424 -1.5254
  743MOL0     H  293   4.251   6.643   2.838 -2.2067 -0.8524 -0.3498
  743MOL0     H  294   4.050   6.692   2.759  0.2370 -1.4518  0.6579
  743MOL0     H  295   3.748   7.024   2.725 -0.3147  3.6601  1.5475
  743MOL0     H  296   3.865   7.087   2.827 -2.2794 -0.6758  0.1505
  743MOL0     H  297   3.967   7.211   2.664  0.0512  0.4302  0.7797
  743MOL0     H  298   3.791   7.218   2.634  0.5721  0.2535  1.1995
  743MOL0     H  299   4.006   7.078   2.473  1.3114  3.0096 -2.1380
  743MOL0     H  300   3.917   7.225   2.438  0.3265  0.8635  2.4233
  743MOL0     H  301   3.780   6.946   2.488  2.2496 -1.4673 -1.2198
  743MOL0     H  302   3.829   6.990   2.329 -0.1732 -0.8894  0.8619
  743MOL0     H  303   3.482   7.166   2.293  2.1563  0.9816 -0.6390
  743MOL0     H  304   4.108   7.109   2.771 -1.5046 -1.7253 -3.8283
  743MOL0     H  305   4.337   7.067   2.885  1.6832 -0.4596 -3.1851
  744MOL0     O  306   6.245   7.139  11.091  0.1014  0.3719 -0.3514
  744MOL0     C  307   6.252   7.205  10.985 -0.6530 -0.6518 -0.0889
  744MOL0     O  308   6.182   7.175  10.872  0.0351 -0.8364  0.4666
  744MOL0     C  309   6.092   7.080  10.873  0.5848 -0.2497 -0.4756
  744MOL0     C  310   5.984   7.096  10.959 -0.0704  0.1781  0.0902
  744MOL0     C  311   5.877   7.005  10.957 -0.7933 -0.0509  0.3917
  744MOL0     C  312   5.868   6.901  10.866 -0.4815 -1.0437 -0.4456
  744MOL0     O  313   5.773   6.809  10.860  0.0958 -0.4887 -0.3537
  744MOL0     C  314   5.643   6.868  10.858  1.4960 -0.3434 -1.1222
  744MOL0     C  315   5.547   6.752  10.851 -0.6819 -0.4894  0.0510
  744MOL0     C  316   5.406   6.797  10.886 -0.0863 -1.2135  0.8301
  744MOL0     C  317   5.311   6.804  10.762 -0.2103  0.3299 -0.3807
  744MOL0     C  318   5.159   6.834  10.791 -0.5247  0.0148  0.1417
  744MOL0     C  319   5.143   6.957  10.865 -0.2672  0.8796 -0.0224
  744MOL0     C  320   5.005   7.009  10.856  0.4183  0.2663 -0.4283
  744MOL0     C  321   4.978   7.116  10.963 -0.7824  0.0237 -0.5895
  744MOL0     N  322   4.834   7.169  10.958  0.8133  0.2323  0.1398
  744MOL0     C  323   4.765   7.200  10.847  0.4963  1.0025  0.0584
  744MOL0     C  324   4.643   7.240  10.898 -0.5272  1.0169  0.4124
  744MOL0     C  325   4.517   7.259  10.808  0.0007  0.1605 -0.9769
  744MOL0     C  326   4.412   7.327  10.891  0.1233  0.9099  0.7074
  744MOL0     C  327   4.291   7.362  10.800  0.3689  0.4684 -0.6493
  744MOL0     C  328   4.179   7.409  10.892  1.0302  0.1685  0.8076
  744MOL0     O  329   4.065   7.448  10.810  0.5052  0.3661 -0.2941
  744MOL0     C  330   3.958   7.510  10.871 -0.4384  0.6776 -0.4253
  744MOL0     C  331   3.846   7.540  10.797 -0.4663  0.0508 -0.4057
  744MOL0     C  332   3.728   7.577  10.854 -0.1008  0.3164  0.4001
  744MOL0     C  333   3.624   7.619  10.755  0.3067  0.6790  0.1947
  744MOL0     C  334   3.710   7.585  10.990 -0.3423  0.7329 -0.2374
  744MOL0     C  335   3.581   7.604  11.061 -0.5741  0.4024  0.6768
  744MOL0     O  336   3.595   7.596  11.197  0.1509  0.6167 -0.1145
  744MOL0     C  337   3.504   7.681  11.265 -0.5122 -1.0404 -0.1025
  744MOL0     C  338   3.406   7.619  11.342 -0.6810  0.2055 -0.3840
  744MOL0     C  339   3.323   7.707  11.409 -0.0268 -0.0077  0.3968
  744MOL0     C  340   3.332   7.843  11.406 -0.5557 -0.3770  0.6121
  744MOL0     O  341   3.243   7.906  11.489 -0.0934 -0.6564 -0.5770
  744MOL0     C  342   3.233   8.049  11.467 -0.0032 -0.7488 -0.6408
  744MOL0     C  343   3.099   8.102  11.522  0.2216 -0.3296 -0.4477
  744MOL0     C  344   3.106   8.137  11.668  0.8139 -0.3964 -1.0457
  744MOL0     C  345   2.975   8.187  11.737  0.9589  0.0338 -0.0231
  744MOL0     C  346   2.985   8.170  11.883 -0.2490  0.1286 -0.2679
  744MOL0     C  347   3.092   8.268  11.933 -0.1405 -0.5226  0.2146
  744MOL0     C  348   3.067   8.301  12.085 -0.3993 -0.3823  1.0716
  744MOL0     C  349   3.103   8.180  12.171  0.7110 -0.2117 -0.3702
  744MOL0    Cl  350   2.954   8.065  12.194  0.2875  0.0325  0.2194
  744MOL0     C  351   3.436   7.904  11.328  0.2099 -0.7043  0.6924
  744MOL0     C  352   3.518   7.820  11.259  0.9897  0.9842  0.1512
  744MOL0     O  353   3.484   7.639  10.994  0.1928 -0.4350  0.4382
  744MOL0     C  354   3.826   7.578  11.066  0.7456  0.3241 -0.2328
  744MOL0     C  355   3.948   7.542  11.006  0.6488  0.1622 -1.0921
  744MOL0     N  356   4.649   7.230  11.036  1.1643 -0.3262  0.2904
  744MOL0     N  357   4.771   7.190  11.075 -0.0885  0.4699  0.5284
  744MOL0     C  358   5.979   6.887  10.787 -0.6300 -0.2058  0.1553
  744MOL0     C  359   6.087   6.979  10.778 -0.4413 -0.5402  0.0503
  744MOL0     C  360   6.327   7.340  10.973  0.1825 -0.3294  0.2296
  744MOL0     C  361   6.434   7.373  11.056  0.3224  0.2918 -0.0301
  744MOL0     C  362   6.513   7.486  11.028 -0.2321  0.5143  0.3814
  744MOL0     C  363   6.487   7.577  10.924 -0.1855 -0.0251 -0.8912
  744MOL0     O  364   6.549   7.690  10.889 -0.3557  0.1674  0.1260
  744MOL0     C  365   6.671   7.719  10.953  0.2811 -0.1454  0.5780
  744MOL0     C  366   6.789   7.649  10.879  0.3082 -0.6728 -1.5508
  744MOL0     C  367   6.920   7.712  10.921  0.3484  0.7833  0.1827
  744MOL0     C  368   7.052   7.623  10.898  0.2079 -0.0126 -0.3579
  744MOL0     C  369   7.168   7.681  10.955  0.2386 -0.7508  0.6847
  744MOL0     C  370   7.265   7.720  11.011  0.5459  0.5157 -0.2210
  744MOL0     C  371   6.365   7.559  10.857  0.0374 -0.3110 -0.0453
  744MOL0     C  372   6.284   7.438  10.884  0.1582 -0.2519 -0.9805
  744MOL0     H  373   5.993   7.181  11.026  2.1992  0.5169 -0.5739
  744MOL0     H  374   5.797   7.012  11.030 -2.1438  0.6985 -1.1097
  744MOL0     H  375   5.609   6.937  10.936  1.0049 -2.6787  0.8188
  744MOL0     H  376   5.637   6.928  10.766  1.0169 -1.0467 -1.5603
  744MOL0     H  377   5.556   6.706  10.752  1.0234 -0.3016  0.0981
  744MOL0     H  378   5.574   6.672  10.920 -2.0061  0.8209  2.2220
  744MOL0     H  379   5.360   6.722  10.951 -1.8949 -0.7978  0.0802
  744MOL0     H  380   5.408   6.895  10.935  1.8833 -1.0340  0.4825
  744MOL0     H  381   5.343   6.886  10.697  3.8656 -0.7012  0.0456
  744MOL0     H  382   5.316   6.712  10.704  4.5444 -0.4444  0.8240
  744MOL0     H  383   5.109   6.860  10.698  0.6532  3.0620  0.2598
  744MOL0     H  384   5.108   6.753  10.845  1.8298  0.6080  3.6275
  744MOL0     H  385   5.175   6.946  10.969 -0.9295  3.8077  0.5815
  744MOL0     H  386   5.211   7.024  10.812  0.5756  1.7466  2.0211
  744MOL0     H  387   4.989   7.047  10.755 -1.3095 -0.7232 -0.5510
  744MOL0     H  388   4.930   6.930  10.869  0.6712  0.4451  2.8115
  744MOL0     H  389   5.045   7.201  10.949 -0.5028  0.0979  1.0454
  744MOL0     H  390   5.015   7.089  11.063  3.7436 -0.7540 -2.2320
  744MOL0     H  391   4.799   7.189  10.745  0.0960  0.2660 -0.0038
  744MOL0     H  392   4.539   7.328  10.726  1.4133  1.4979  0.4687
  744MOL0     H  393   4.474   7.163  10.778 -0.0533 -0.4081  0.7760
  744MOL0     H  394   4.451   7.415  10.944  1.0538 -0.5575  2.5805
  744MOL0     H  395   4.370   7.258  10.965  1.0058 -0.5037 -0.0645
  744MOL0     H  396   4.256   7.273  10.747 -2.6898  1.2524 -0.1897
  744MOL0     H  397   4.308   7.446  10.732  0.2035  1.3512  0.3613
  744MOL0     H  398   4.203   7.500  10.946  0.2035 -1.0783  3.4249
  744MOL0     H  399   4.131   7.334  10.956  0.8006 -1.1208 -0.7961
  744MOL0     H  400   3.869   7.526  10.692  2.7831 -2.1495  0.4460
  744MOL0     H  401   3.662   7.613  10.652 -3.2406 -0.0731 -1.2097
  744MOL0     H  402   3.550   7.539  10.761  1.3965 -0.7925 -3.4605
  744MOL0     H  403   3.586   7.721  10.771 -2.0539 -0.2631  0.9676
  744MOL0     H  404   3.389   7.512  11.341 -0.3946  0.1498 -2.0407
  744MOL0     H  405   3.247   7.662  11.471 -0.0666  0.0422  0.3838
  744MOL0     H  406   3.327   8.093  11.503  0.3407 -0.3401 -1.9909
  744MOL0     H  407   3.221   8.085  11.365 -0.9720  1.0838  0.0611
  744MOL0     H  408   3.091   8.197  11.468  0.7925  0.1161  0.2323
  744MOL0     H  409   3.017   8.036  11.492 -2.6076  1.8418  1.8660
  744MOL0     H  410   3.187   8.210  11.671  2.6907 -2.2913 -2.3065
  744MOL0     H  411   3.130   8.039  11.712 -1.6220 -1.9278 -2.8447
  744MOL0     H  412   2.959   8.291  11.710  3.0935  0.8668  1.5937
  744MOL0     H  413   2.888   8.128  11.707  0.9563 -0.5995  1.1379
  744MOL0     H  414   3.010   8.068  11.916 -2.4925 -1.7748 -3.7709
  744MOL0     H  415   2.886   8.195  11.921 -2.2254 -1.0142 -4.1499
  744MOL0     H  416   3.194   8.229  11.926  0.5554  0.7123  2.4355
  744MOL0     H  417   3.098   8.363  11.879  0.5186  0.7554  2.4218
  744MOL0     H  418   2.963   8.329  12.099 -0.1410  2.4335 -1.4533
  744MOL0     H  419   3.135   8.381  12.116  0.6543 -0.7797 -0.0963
  744MOL0     H  420   3.128   8.207  12.274 -0.8638  0.7363 -0.1900
  744MOL0     H  421   3.185   8.125  12.126 -0.8216 -1.1170 -2.1989
  744MOL0     H  422   3.446   8.012  11.317 -0.4553 -0.8525 -2.1785
  744MOL0     H  423   3.589   7.857  11.185 -0.8424 -0.8763 -2.7249
  744MOL0     H  424   3.836   7.577  11.174  1.7125 -1.1918 -0.2967
  744MOL0     H  425   4.037   7.532  11.068  1.4225 -0.0154 -2.1950
  744MOL0     H  426   5.983   6.795  10.728  0.1761 -0.2321  0.2356
  744MOL0     H  427   6.173   6.973  10.711  1.2699  1.6814  1.9085
  744MOL0     H  428   6.470   7.311  11.138 -0.7059 -0.4308 -0.1059
  744MOL0     H  429   6.598   7.504  11.092  1.9453 -0.3388 -2.0610
  744MOL0     H  430   6.679   7.828  10.954 -1.4114  0.0361 -0.3996
  744MOL0     H  431   6.680   7.688  11.057  3.6703 -3.2339 -0.4011
  744MOL0     H  432   6.771   7.638  10.772  1.9486  0.0006 -1.9272
  744MOL0     H  433   6.786   7.547  10.919  1.6486 -0.1186  0.0688
  744MOL0     H  434   6.917   7.724  11.029 -1.5009 -2.5201  0.6276
  744MOL0     H  435   6.927   7.810  10.872 -3.1562  1.3562  0.5852
  744MOL0     H  436   7.068   7.589  10.795 -0.8107 -3.3139  0.4321
  744MOL0     H  437   7.044   7.528  10.952  1.7336 -1.3765 -2.3960
  744MOL0     H  438   7.353   7.748  11.067  1.8586  0.3335 -2.0981
  744MOL0     H  439   6.330   7.632  10.785  0.2695 -0.8300 -0.7055
  744MOL0     H  440   6.186   7.429  10.838  0.4314 -1.1386 -1.4233
  745MOL0     O  441   6.044   3.350   6.061  0.2307  0.3180  0.4549
  745MOL0     C  442   6.023   3.290   6.167  0.4242 -0.2686  0.6416
  745MOL0     O  443   5.909   3.229   6.205 -0.4211  0.3943 -0.1786
  745MOL0     C  444   5.785   3.236   6.145 -0.7809 -0.2492  0.2386
  745MOL0     C  445   5.762   3.278   6.012 -0.2808 -0.2730 -0.2586
  745MOL0     C  446   5.638   3.271   5.954 -0.5364  0.0816 -0.0416
  745MOL0     C  447   5.535   3.216   6.031 -0.2513 -0.0661 -0.9437
  745MOL0     O  448   5.416   3.213   5.972  0.6036 -0.9935 -0.3873
  745MOL0     C  449   5.294   3.201   6.050 -0.3857 -0.6661  0.2966
  745MOL0     C  450   5.179   3.211   5.951 -0.5157 -0.2415  1.2447
  745MOL0     C  451   5.146   3.353   5.900 -0.6173  0.0238  0.1186
  745MOL0     C  452   5.040   3.381   5.793  0.2483  0.4474 -0.6832
  745MOL0     C  453   5.003   3.514   5.753  0.1159  0.2276 -1.1210
  745MOL0     C  454   5.093   3.550   5.632 -0.3691  0.5904  0.7682
  745MOL0     C  455   5.054   3.687   5.569 -0.3974 -0.5213 -0.0929
  745MOL0     C  456   5.084   3.801   5.668  1.0079 -0.6787 -1.0028
  745MOL0     N  457   5.073   3.933   5.604  0.4696  0.1424 -0.6579
  745MOL0     C  458   5.194   4.004   5.575 -0.4524  0.8059  0.3558
  745MOL0     C  459   5.143   4.111   5.507  0.1792  1.7096 -0.2108
  745MOL0     C  460   5.222   4.218   5.443  0.7157  0.5564 -0.7458
  745MOL0     C  461   5.343   4.160   5.370  0.2365  1.3228 -0.1035
  745MOL0     C  462   5.404   4.256   5.267  0.6889 -0.1933  1.0420
  745MOL0     C  463   5.518   4.204   5.195  0.5919  1.2444 -0.6180
  745MOL0     O  464   5.485   4.099   5.094  0.7270  0.0280 -0.2596
  745MOL0     C  465   5.589   4.056   5.013 -0.5123  0.1481  0.5713
  745MOL0     C  466   5.564   3.992   4.898 -0.4790 -0.4185 -0.3735
  745MOL0     C  467   5.659   3.949   4.811  0.2263 -0.5681  0.4171
  745MOL0     C  468   5.617   3.865   4.692  0.7296 -0.9664  0.5924
  745MOL0     C  469   5.791   3.980   4.836  0.0352  0.3051 -0.4783
  745MOL0     C  470   5.899   3.955   4.735 -0.3732 -0.6374  0.2614
  745MOL0     O  471   6.028   3.978   4.781  0.1313  0.2648  0.8385
  745MOL0     C  472   6.134   3.945   4.692  0.3528 -0.8936 -0.3123
  745MOL0     C  473   6.167   4.042   4.593  0.6537  0.4063  0.3565
  745MOL0     C  474   6.273   4.027   4.513 -0.4879  0.7416  0.8076
  745MOL0     C  475   6.360   3.925   4.526  0.0698 -1.1558 -0.3306
  745MOL0     O  476   6.475   3.920   4.447  0.6898  0.5688 -0.7354
  745MOL0     C  477   6.508   3.800   4.379 -0.3655  0.4693 -0.5630
  745MOL0     C  478   6.622   3.732   4.460 -0.1174  0.1975  0.1717
  745MOL0     C  479   6.741   3.830   4.480  0.1392 -0.3751  0.3362
  745MOL0     C  480   6.854   3.766   4.559 -0.3191 -0.5902 -0.4359
  745MOL0     C  481   6.977   3.841   4.541 -0.1807  0.3206 -0.3498
  745MOL0     C  482   7.103   3.792   4.616  0.5918 -0.3637  0.3673
  745MOL0     C  483   7.224   3.875   4.595 -0.6948 -0.0347  0.0866
  745MOL0     C  484   7.348   3.830   4.675  0.3708  0.3014 -0.2358
  745MOL0    Cl  485   7.364   3.647   4.685 -0.1392  0.3322  0.3310
  745MOL0     C  486   6.336   3.825   4.624 -0.4938  0.8199 -0.4491
  745MOL0     C  487   6.221   3.836   4.709 -0.6526 -0.4405 -0.1100
  745MOL0     O  488   5.872   3.926   4.617 -0.1915  0.2392  0.1393
  745MOL0     C  489   5.820   4.048   4.947  0.0101 -0.7693 -0.0881
  745MOL0     C  490   5.722   4.083   5.039  0.1329 -0.2444 -0.0321
  745MOL0     N  491   5.007   4.099   5.497 -0.5906 -0.3733 -0.6262
  745MOL0     N  492   4.963   3.991   5.561 -1.3097 -0.4331 -0.2582
  745MOL0     C  493   5.553   3.176   6.167 -0.8998 -0.4894 -0.3766
  745MOL0     C  494   5.681   3.186   6.220 -0.1904  1.0571 -0.4273
  745MOL0     C  495   6.135   3.284   6.267  0.1316 -0.6622  0.3860
  745MOL0     C  496   6.125   3.230   6.401  0.0056 -0.4359  0.8433
  745MOL0     C  497   6.244   3.214   6.479 -0.0017  0.1662  0.4603
  745MOL0     C  498   6.369   3.247   6.431 -0.6426 -0.3764 -0.1894
  745MOL0     O  499   6.486   3.227   6.500 -0.1146  0.4740 -0.9416
  745MOL0     C  500   6.491   3.289   6.625  0.3943 -0.1964 -1.1068
  745MOL0     C  501   6.623   3.277   6.693 -0.8649  0.0739 -0.2752
  745MOL0     C  502   6.667   3.131   6.707  0.2332 -0.1078 -0.7474
  745MOL0     C  503   6.772   3.113   6.820  0.6905 -0.4904 -0.9176
  745MOL0     C  504   6.900   3.153   6.774  0.3752 -1.1299  0.5995
  745MOL0     C  505   7.010   3.178   6.734 -1.3192  0.7051  0.7972
  745MOL0     C  506   6.379   3.289   6.300  0.1041  0.5219  0.1229
  745MOL0     C  507   6.263   3.322   6.219 -1.0936 -0.0460 -0.2391
  745MOL0     H  508   5.828   3.334   5.946  0.7463  1.9879  2.4850
  745MOL0     H  509   5.615   3.297   5.851  2.1052 -0.1677 -0.7853
  745MOL0     H  510   5.294   3.105   6.104  1.9417 -0.8708  0.0248
  745MOL0     H  511   5.278   3.288   6.115 -4.8674 -1.5896  0.7742
  745MOL0     H  512   5.213   3.150   5.867  0.6583  3.1688 -0.9858
  745MOL0     H  513   5.088   3.169   5.995 -2.5332 -1.5354 -3.5174
  745MOL0     H  514   5.120   3.415   5.987 -0.0118  1.2683 -0.5627
  745MOL0     H  515   5.234   3.409   5.868 -0.9784  1.4706  1.5217
  745MOL0     H  516   5.073   3.330   5.703  0.6941  0.2233 -0.3932
  745MOL0     H  517   4.953   3.328   5.833  0.9367 -0.8077 -0.8125
  745MOL0     H  518   4.899   3.519   5.719  0.0980 -1.0155 -1.2904
  745MOL0     H  519   5.027   3.564   5.848 -0.6576 -5.2372  2.3887
  745MOL0     H  520   5.193   3.570   5.671  0.6503  0.5256 -1.6643
  745MOL0     H  521   5.093   3.472   5.556  0.1241  1.5117 -0.2089
  745MOL0     H  522   5.115   3.691   5.478 -0.6357 -2.5639 -0.3823
  745MOL0     H  523   4.947   3.688   5.546  0.1024 -0.0613 -2.6459
  745MOL0     H  524   5.183   3.792   5.714  0.2312 -0.6015  0.7246
  745MOL0     H  525   5.011   3.792   5.749  0.8270 -0.3161 -1.1229
  745MOL0     H  526   5.298   3.976   5.589 -0.7559 -1.0215 -0.8553
  745MOL0     H  527   5.161   4.258   5.363 -0.2733  1.1480  0.2794
  745MOL0     H  528   5.247   4.300   5.511  1.1024 -0.4810  0.4044
  745MOL0     H  529   5.300   4.080   5.309 -4.9928  4.8254 -1.6762
  745MOL0     H  530   5.423   4.136   5.441  0.4585  2.1632 -0.0498
  745MOL0     H  531   5.445   4.349   5.308  3.6329 -2.1096  2.7882
  745MOL0     H  532   5.322   4.280   5.199  0.8422  0.1724  0.9832
  745MOL0     H  533   5.587   4.167   5.271  1.4100  2.4190 -0.7612
  745MOL0     H  534   5.570   4.281   5.136  3.5714  0.0081  0.2028
  745MOL0     H  535   5.461   3.959   4.889 -0.0379 -1.5868 -1.2915
  745MOL0     H  536   5.509   3.849   4.703 -0.2523  2.8255 -1.5408
  745MOL0     H  537   5.624   3.923   4.599  0.7810  1.3035  1.9219
  745MOL0     H  538   5.676   3.773   4.684 -0.8027 -1.7983 -2.4281
  745MOL0     H  539   6.093   4.120   4.580  0.3249  0.3849  1.8814
  745MOL0     H  540   6.281   4.105   4.437 -1.4563 -1.6184 -1.9107
  745MOL0     H  541   6.432   3.722   4.375  0.6940 -0.6739  0.4739
  745MOL0     H  542   6.542   3.821   4.277  0.6759  0.7380 -0.1744
  745MOL0     H  543   6.596   3.692   4.559  0.6472  0.2021  0.3833
  745MOL0     H  544   6.655   3.649   4.397 -0.7117 -0.0493  0.1768
  745MOL0     H  545   6.703   3.918   4.534 -3.5617  0.0173 -2.4659
  745MOL0     H  546   6.771   3.864   4.380  0.0754  1.3704  0.8818
  745MOL0     H  547   6.824   3.762   4.664  0.7554 -1.7232 -0.1488
  745MOL0     H  548   6.883   3.669   4.516 -0.2360 -1.3541  1.2737
  745MOL0     H  549   6.972   3.948   4.565 -0.6178  0.4023 -0.7905
  745MOL0     H  550   6.988   3.841   4.432 -0.6442  2.3511 -0.4411
  745MOL0     H  551   7.082   3.786   4.723 -0.6009  0.4047  0.1947
  745MOL0     H  552   7.129   3.692   4.580 -0.9032  0.1599 -2.4561
  745MOL0     H  553   7.208   3.982   4.612  1.8058  0.9990 -3.0039
  745MOL0     H  554   7.250   3.866   4.489  1.0596 -2.8266  0.6689
  745MOL0     H  555   7.341   3.864   4.779  3.0549  0.6418 -0.1027
  745MOL0     H  556   7.438   3.870   4.628  0.6006  0.3960  0.2720
  745MOL0     H  557   6.406   3.747   4.651 -2.2009 -0.9964 -1.0438
  745MOL0     H  558   6.217   3.764   4.790  2.1516 -1.6173 -0.8753
  745MOL0     H  559   5.920   4.080   4.973 -0.0297  0.5721 -1.3958
  745MOL0     H  560   5.754   4.131   5.131  0.3829 -0.5317  0.0302
  745MOL0     H  561   5.476   3.125   6.224  0.3311 -0.6391  1.2200
  745MOL0     H  562   5.700   3.145   6.319 -1.9340 -5.3191 -2.2476
  745MOL0     H  563   6.026   3.218   6.442 -0.3330  1.4767  0.6312
  745MOL0     H  564   6.230   3.191   6.584 -0.7534  1.8164  0.7484
  745MOL0     H  565   6.458   3.393   6.625 -3.3946 -1.2515  0.1291
  745MOL0     H  566   6.417   3.242   6.690  1.2444 -0.5489 -0.3703
  745MOL0     H  567   6.626   3.321   6.793  0.8481 -3.8313  1.6366
  745MOL0     H  568   6.692   3.325   6.622 -1.0612 -2.4224 -2.3229
  745MOL0     H  569   6.722   3.089   6.623 -0.7581 -0.9472 -0.9913
  745MOL0     H  570   6.575   3.073   6.713  0.1957 -0.2667 -2.5232
  745MOL0     H  571   6.769   3.013   6.865 -1.1734  0.3171  0.9240
  745MOL0     H  572   6.748   3.168   6.911  2.0285 -1.4711  0.0840
  745MOL0     H  573   7.107   3.216   6.708 -0.5639 -1.5653  0.1364
  745MOL0     H  574   6.473   3.315   6.254 -0.2092 -1.4467 -1.7590
  745MOL0     H  575   6.275   3.364   6.120  0.8707 -0.9082 -0.4190
  746MOL0     O  576  10.543   7.778   2.706 -0.9161  0.0771  0.1267
  746MOL0     C  577  10.492   7.885   2.721 -0.7131 -0.4504 -0.1022
  746MOL0     O  578  10.519   8.000   2.645  0.5269 -0.2184 -0.4014
  746MOL0     C  579  10.595   8.011   2.534  0.3985  0.7394 -0.0718
  746MOL0     C  580  10.662   7.908   2.464 -0.2743 -0.6519 -0.4778
  746MOL0     C  581  10.729   7.937   2.348 -0.6055  0.4622 -1.4011
  746MOL0     C  582  10.736   8.071   2.291 -0.1100 -0.0658 -0.6866
  746MOL0     O  583  10.795   8.085   2.171  0.0755 -0.8841  0.3247
  746MOL0     C  584  10.749   8.184   2.081  0.2247 -0.0832  0.1777
  746MOL0     C  585  10.610   8.133   2.027 -0.4584 -1.2650  0.5472
  746MOL0     C  586  10.552   8.230   1.927  0.0745  0.3707  0.3782
  746MOL0     C  587  10.417   8.185   1.871 -0.4166  0.4628 -0.3983
  746MOL0     C  588  10.405   8.250   1.730 -0.9605 -0.1689 -0.3623
  746MOL0     C  589  10.290   8.199   1.645 -0.2296  0.7122 -0.1688
  746MOL0     C  590  10.329   8.075   1.564  0.5449 -0.5671  0.2859
  746MOL0     C  591  10.208   7.995   1.518  0.0645 -0.3769 -0.0072
  746MOL0     N  592  10.140   7.936   1.636  0.7197 -0.7363  0.2103
  746MOL0     C  593  10.183   7.851   1.742 -0.5364  0.0315  0.3712
  746MOL0     C  594  10.082   7.825   1.828 -0.7080 -0.5726  0.5206
  746MOL0     C  595  10.080   7.730   1.949  0.2604 -0.2279  0.8134
  746MOL0     C  596   9.958   7.632   1.941 -0.8007 -0.0115 -0.9261
  746MOL0     C  597   9.977   7.523   2.054  0.0509 -0.3967 -0.4830
  746MOL0     C  598   9.842   7.454   2.081  0.1740 -0.5176 -0.0912
  746MOL0     O  599   9.766   7.542   2.156  0.4963  0.6839  0.1516
  746MOL0     C  600   9.628   7.521   2.143 -0.5400 -0.0560 -0.1475
  746MOL0     C  601   9.569   7.400   2.165 -0.5823 -1.2178 -0.5498
  746MOL0     C  602   9.438   7.385   2.186 -0.1630 -0.6636  0.3155
  746MOL0     C  603   9.398   7.244   2.224 -0.1591 -1.1161  1.0785
  746MOL0     C  604   9.345   7.489   2.154 -0.0609 -0.7955  0.1673
  746MOL0     C  605   9.194   7.472   2.151  1.0512  0.7029 -0.4684
  746MOL0     O  606   9.126   7.565   2.091 -1.0886 -0.1420  0.8294
  746MOL0     C  607   8.990   7.555   2.086 -0.9145  0.4714 -0.3848
  746MOL0     C  608   8.913   7.549   2.201  0.6780  0.1458 -1.2726
  746MOL0     C  609   8.773   7.537   2.198 -0.5658  0.1184 -0.9312
  746MOL0     C  610   8.717   7.519   2.068 -0.0714  0.3888 -0.3603
  746MOL0     O  611   8.581   7.488   2.074 -0.4871  0.1134  0.2855
  746MOL0     C  612   8.522   7.399   1.973 -0.3834  0.3232 -0.0739
  746MOL0     C  613   8.374   7.373   2.006  0.7933 -0.1873  0.2367
  746MOL0     C  614   8.292   7.505   2.004  0.1999  0.5745  0.3782
  746MOL0     C  615   8.145   7.460   1.992  0.2006  0.3960  0.5577
  746MOL0     C  616   8.061   7.583   2.002 -0.1886 -0.1734  0.2152
  746MOL0     C  617   7.919   7.531   2.003  0.2313 -0.2451  0.2328
  746MOL0     C  618   7.825   7.654   2.002  0.0307  0.2148 -0.1930
  746MOL0     C  619   7.691   7.616   1.949 -0.0834 -0.0775 -0.3697
  746MOL0    Cl  620   7.702   7.604   1.782 -0.3578 -0.2590  0.2516
  746MOL0     C  621   8.797   7.535   1.953  0.7598  0.1952  0.3574
  746MOL0     C  622   8.934   7.546   1.967 -0.0919 -0.3241 -0.2698
  746MOL0     O  623   9.143   7.370   2.206 -0.6208  0.2891 -0.3442
  746MOL0     C  624   9.406   7.621   2.138 -0.1976 -0.0403  0.2605
  746MOL0     C  625   9.549   7.639   2.135 -0.9412 -0.0579 -0.7940
  746MOL0     N  626   9.974   7.895   1.775  0.7046 -0.5189  0.0136
  746MOL0     N  627  10.006   7.955   1.663  0.8381 -0.6833  0.2857
  746MOL0     C  628  10.676   8.172   2.364 -0.3917  0.5023 -0.5835
  746MOL0     C  629  10.597   8.142   2.482 -0.1032 -0.2604 -0.5889
  746MOL0     C  630  10.388   7.893   2.824  0.9267 -0.0625 -0.6344
  746MOL0     C  631  10.288   7.995   2.820 -0.2578  1.0256 -1.0333
  746MOL0     C  632  10.188   7.996   2.924 -0.0922 -0.0747 -0.6734
  746MOL0     C  633  10.192   7.904   3.028  0.5704 -0.7740 -0.0221
  746MOL0     O  634  10.108   7.899   3.133 -0.0469 -0.8094  0.1038
  746MOL0     C  635  10.002   7.997   3.145 -0.1589 -0.1260 -0.0145
  746MOL0     C  636  10.053   8.149   3.175  0.0357  0.3674 -1.1542
  746MOL0     C  637   9.928   8.232   3.137 -0.4131 -0.0026  0.2463
  746MOL0     C  638   9.966   8.382   3.134 -0.4463  0.3484  0.5779
  746MOL0     C  639  10.016   8.430   3.266  0.4044 -0.1989 -0.0206
  746MOL0     C  640  10.080   8.478   3.357 -0.1879 -0.7528  0.2150
  746MOL0     C  641  10.285   7.798   3.027 -0.1933 -0.2566  0.4213
  746MOL0     C  642  10.379   7.793   2.927  0.0429 -0.2601  0.2106
  746MOL0     H  643  10.650   7.803   2.491 -1.7384  0.1432  2.4649
  746MOL0     H  644  10.780   7.854   2.300 -0.6771 -1.6011  1.7456
  746MOL0     H  645  10.728   8.285   2.115 -1.4501 -0.7545  1.2844
  746MOL0     H  646  10.827   8.192   2.004 -0.8107  0.8710 -0.8014
  746MOL0     H  647  10.617   8.032   1.986  1.6315 -0.4067 -1.4599
  746MOL0     H  648  10.537   8.123   2.108 -0.5969  2.4052  1.0406
  746MOL0     H  649  10.533   8.332   1.963  0.3931  0.0784  1.4177
  746MOL0     H  650  10.625   8.237   1.846  0.4977 -2.3105  0.4663
  746MOL0     H  651  10.407   8.076   1.863 -0.3360  0.3711  0.5611
  746MOL0     H  652  10.335   8.213   1.939 -0.0069  1.6320 -0.3722
  746MOL0     H  653  10.383   8.354   1.759 -1.6160 -0.6292  0.8574
  746MOL0     H  654  10.500   8.256   1.676 -1.3967 -0.2621 -1.1521
  746MOL0     H  655  10.201   8.174   1.702  0.0849  0.0854  0.0690
  746MOL0     H  656  10.257   8.277   1.576  2.2548  0.2182 -2.0900
  746MOL0     H  657  10.378   8.115   1.475  0.8024 -0.8461  0.2992
  746MOL0     H  658  10.404   8.019   1.621  2.4745  1.6534  0.0255
  746MOL0     H  659  10.252   7.925   1.447  0.5723  4.2763 -4.8855
  746MOL0     H  660  10.135   8.055   1.462  2.4520  1.1010 -1.7171
  746MOL0     H  661  10.285   7.814   1.747 -0.2775  0.7564  0.7222
  746MOL0     H  662  10.174   7.674   1.960  0.3874 -0.1424  0.1593
  746MOL0     H  663  10.055   7.789   2.037 -1.0535  0.5128 -0.0332
  746MOL0     H  664   9.956   7.579   1.845 -1.3815 -1.0156 -0.3721
  746MOL0     H  665   9.863   7.685   1.951 -0.0099  1.9828 -3.0361
  746MOL0     H  666  10.017   7.564   2.147  2.9391 -1.0785 -1.3058
  746MOL0     H  667  10.057   7.462   2.010  1.6701  1.6612 -0.5780
  746MOL0     H  668   9.857   7.367   2.145  0.6588 -0.2162  0.2146
  746MOL0     H  669   9.798   7.436   1.983  3.0673  1.3563 -1.8789
  746MOL0     H  670   9.631   7.313   2.184  2.0421 -0.0025 -2.8102
  746MOL0     H  671   9.360   7.184   2.141  1.6280 -3.3952  1.8228
  746MOL0     H  672   9.479   7.187   2.270 -1.5427 -1.4704  3.1671
  746MOL0     H  673   9.326   7.244   2.306  1.6707 -2.9488  2.7996
  746MOL0     H  674   8.965   7.563   2.295 -2.1368  0.3600  0.3617
  746MOL0     H  675   8.718   7.540   2.291  2.0922  1.8728  0.6990
  746MOL0     H  676   8.535   7.452   1.879 -1.6524 -0.2358 -0.5885
  746MOL0     H  677   8.579   7.306   1.964 -0.3220  0.5752 -3.2089
  746MOL0     H  678   8.334   7.307   1.929  1.3348  0.5880 -0.7330
  746MOL0     H  679   8.349   7.334   2.105 -0.3998  2.5657  1.1494
  746MOL0     H  680   8.315   7.563   1.914  2.0064 -1.5982 -0.6554
  746MOL0     H  681   8.322   7.558   2.095  3.2274 -0.6100  0.1932
  746MOL0     H  682   8.126   7.404   1.900 -1.4992 -2.1054  2.2895
  746MOL0     H  683   8.121   7.388   2.071  2.3451  0.7765  1.6309
  746MOL0     H  684   8.079   7.658   1.925 -2.5911  0.9100  0.6173
  746MOL0     H  685   8.080   7.631   2.098  0.0451  1.4442 -0.6149
  746MOL0     H  686   7.898   7.475   1.911 -0.3063 -2.3317  1.5534
  746MOL0     H  687   7.906   7.467   2.091  2.2514 -3.7420 -1.7562
  746MOL0     H  688   7.862   7.740   1.945  2.0113 -2.5009 -3.3113
  746MOL0     H  689   7.813   7.687   2.106 -1.5477  2.6579 -1.0506
  746MOL0     H  690   7.604   7.679   1.968  0.1163 -0.0526  0.5040
  746MOL0     H  691   7.668   7.515   1.985 -0.8576 -1.1197 -3.4265
  746MOL0     H  692   8.748   7.525   1.856 -1.3766 -0.5494  1.4551
  746MOL0     H  693   8.995   7.568   1.880  0.6310  4.0424  1.1197
  746MOL0     H  694   9.340   7.706   2.128  1.5426  1.2035 -1.3628
  746MOL0     H  695   9.578   7.743   2.130 -1.0787 -0.0069 -6.2133
  746MOL0     H  696  10.682   8.275   2.331  1.5516  0.3787 -0.6996
  746MOL0     H  697  10.554   8.221   2.543  0.6393 -0.1730 -0.1701
  746MOL0     H  698  10.289   8.079   2.751 -1.3053  3.5873  1.8409
  746MOL0     H  699  10.123   8.083   2.926 -0.4052 -0.2900 -1.1498
  746MOL0     H  700   9.945   8.003   3.052 -0.7893 -0.7741  0.3189
  746MOL0     H  701   9.933   7.964   3.223  2.6182  0.1409  2.7580
  746MOL0     H  702  10.140   8.178   3.116  0.3772  2.6961  0.3915
  746MOL0     H  703  10.085   8.153   3.279 -1.2141  4.1246 -0.7624
  746MOL0     H  704   9.845   8.205   3.203 -0.2915 -4.0967 -0.9570
  746MOL0     H  705   9.901   8.219   3.032 -0.0821  3.2116 -0.3248
  746MOL0     H  706   9.873   8.429   3.102 -1.0018 -2.5296 -2.6605
  746MOL0     H  707  10.044   8.402   3.060 -1.3577  1.2193 -0.1663
  746MOL0     H  708  10.147   8.532   3.421 -2.0666  1.2580  0.5907
  746MOL0     H  709  10.296   7.723   3.105  2.2644 -2.5598 -1.9293
  746MOL0     H  710  10.452   7.712   2.931 -1.3790 -1.5322  2.6927
  747MOL0     O  711   1.097  10.082   9.973 -1.0062 -0.0390 -0.5512
  747MOL0     C  712   1.024   9.978   9.984  0.1288  0.1459  0.3712
  747MOL0     O  713   1.064   9.863  10.046 -0.2274  0.3732  1.1574
  747MOL0     C  714   1.191   9.842  10.096 -0.4463 -1.2824 -0.7797
  747MOL0     C  715   1.267   9.952  10.152 -0.0188  0.8327  0.6943
  747MOL0     C  716   1.393   9.930  10.211 -1.1557  0.2040  0.2395
  747MOL0     C  717   1.449   9.801  10.210  0.3400  0.2473 -0.0646
  747MOL0     O  718   1.578   9.770  10.234 -0.5474 -0.0340 -0.2374
  747MOL0     C  719   1.667   9.869  10.282  0.2029 -0.3050 -0.1427
  747MOL0     C  720   1.821   9.832  10.280  0.4769 -0.2375 -0.3293
  747MOL0     C  721   1.845   9.706  10.369 -0.2637 -0.0963 -0.1009
  747MOL0     C  722   1.855   9.578  10.286 -0.7553 -0.0814 -0.0647
  747MOL0     C  723   1.877   9.446  10.359 -0.2664  0.0373  0.3800
  747MOL0     C  724   1.741   9.398  10.426  0.2558  0.8486 -0.4507
  747MOL0     C  725   1.637   9.346  10.337  1.0979 -1.0287  0.6570
  747MOL0     C  726   1.519   9.298  10.418  0.0731 -0.0765 -1.0212
  747MOL0     N  727   1.414   9.242  10.334  0.0988  0.1664  1.0694
  747MOL0     C  728   1.366   9.293  10.222  0.6732 -0.6100  0.3946
  747MOL0     C  729   1.255   9.221  10.194  0.3078 -0.0269 -0.3163
  747MOL0     C  730   1.171   9.252  10.076  0.4335 -0.0036  0.3594
  747MOL0     C  731   1.118   9.123  10.022  0.1834  0.0665  0.2191
  747MOL0     C  732   1.029   9.163   9.893 -0.3597 -0.5609  0.2912
  747MOL0     C  733   0.968   9.038   9.832 -1.1720 -0.5883 -0.1752
  747MOL0     O  734   0.891   8.976   9.939 -0.7207  0.2040 -0.2393
  747MOL0     C  735   0.757   9.005   9.944  0.7285  0.2121 -0.3778
  747MOL0     C  736   0.665   9.057   9.849 -0.0439 -1.2187  0.1708
  747MOL0     C  737   0.533   9.073   9.881 -0.0075 -0.5848 -0.3539
  747MOL0     C  738   0.450   9.108   9.763 -0.4506 -0.3249  0.2801
  747MOL0     C  739   0.483   9.049  10.010  0.1890  0.3541 -0.5225
  747MOL0     C  740   0.344   9.079  10.065  0.2184 -0.3229  0.3811
  747MOL0     O  741   0.237   9.094   9.976  0.1710  0.6507  0.1205
  747MOL0     C  742   0.135   9.159  10.044 -0.3324 -0.7915 -0.2878
  747MOL0     C  743   0.053   9.099  10.146 -0.0783 -0.4529  0.2372
  747MOL0     C  744  -0.064   9.165  10.191 -0.5176  0.8898 -1.0851
  747MOL0     C  745  -0.103   9.292  10.138  0.1500  0.1778  0.2510
  747MOL0     O  746  -0.212   9.357  10.181  0.4146  0.4517 -0.1580
  747MOL0     C  747  -0.283   9.324  10.303  0.4801 -0.4191  0.1897
  747MOL0     C  748  -0.380   9.210  10.280  0.0218  0.1779 -0.0982
  747MOL0     C  749  -0.494   9.197  10.387 -0.2677  0.2586  0.2373
  747MOL0     C  750  -0.611   9.278  10.351  1.1020  0.2641 -1.6168
  747MOL0     C  751  -0.734   9.252  10.450  0.3870  0.5116  0.0694
  747MOL0     C  752  -0.838   9.372  10.424 -0.4848 -0.0312  0.0754
  747MOL0     C  753  -0.976   9.356  10.495  1.0043 -0.2747 -0.2932
  747MOL0     C  754  -1.049   9.484  10.530  0.2478 -0.9489  0.7356
  747MOL0    Cl  755  -1.218   9.423  10.561  0.1016  0.3329  0.0707
  747MOL0     C  756  -0.019   9.344  10.040 -0.6980  0.2678 -0.2528
  747MOL0     C  757   0.097   9.286   9.995  0.2816  0.3488 -0.7854
  747MOL0     O  758   0.346   9.089  10.189 -0.1403 -0.2100  0.2912
  747MOL0     C  759   0.571   8.986  10.097 -0.0756 -0.1218  0.5549
  747MOL0     C  760   0.704   8.962  10.064 -0.4158 -0.0656  0.9531
  747MOL0     N  761   1.240   9.125  10.292  0.3830  0.0079 -0.5728
  747MOL0     N  762   1.333   9.144  10.373 -0.5708  0.7857 -0.4101
  747MOL0     C  763   1.372   9.693  10.177  0.4383  0.8317  1.0430
  747MOL0     C  764   1.251   9.716  10.115  0.3512  0.1126 -0.4283
  747MOL0     C  765   0.886   9.983   9.925  0.0582  0.2645  1.2262
  747MOL0     C  766   0.853  10.083   9.831  0.1718 -0.5871  0.5500
  747MOL0     C  767   0.729  10.073   9.767 -0.4996  0.6341 -0.4625
  747MOL0     C  768   0.631   9.985   9.803  0.7795 -0.5462 -0.1647
  747MOL0     O  769   0.519   9.988   9.732  0.9591 -0.0610  0.7545
  747MOL0     C  770   0.391  10.006   9.799 -0.2036  0.4229  0.3924
  747MOL0     C  771   0.357  10.159   9.799  0.1603 -1.0365 -0.2863
  747MOL0     C  772   0.330  10.213   9.659 -0.0885 -1.9607  0.1475
  747MOL0     C  773   0.307  10.369   9.673 -0.0449  0.3341  0.5074
  747MOL0     C  774   0.164  10.402   9.694  0.9094 -0.8942 -0.1030
  747MOL0     C  775   0.052  10.432   9.710  0.1110 -0.1768 -0.5798
  747MOL0     C  776   0.663   9.887   9.899  0.2446  0.5362  0.4820
  747MOL0     C  777   0.787   9.885   9.959 -0.4368 -0.5463 -0.5602
  747MOL0     H  778   1.239  10.057  10.158 -0.6484  0.7840 -0.8736
  747MOL0     H  779   1.453  10.020  10.228  0.0466  0.1604 -2.9588
  747MOL0     H  780   1.661   9.956  10.218  3.7733  0.6264  0.5556
  747MOL0     H  781   1.639   9.891  10.386 -0.6383  2.8626 -0.9390
  747MOL0     H  782   1.874   9.827  10.184  1.0688 -1.9186  0.0497
  747MOL0     H  783   1.870   9.917  10.328 -0.4336  0.0140  0.1789
  747MOL0     H  784   1.941   9.721  10.420 -1.2016 -2.0341  2.4135
  747MOL0     H  785   1.768   9.700  10.446  0.4553  0.3288  0.6749
  747MOL0     H  786   1.767   9.581  10.222 -0.2731  0.2148 -0.7284
  747MOL0     H  787   1.946   9.594  10.227 -0.0329 -1.9710  0.4830
  747MOL0     H  788   1.919   9.371  10.292 -0.9483  0.8405 -0.9943
  747MOL0     H  789   1.955   9.462  10.434  3.1563 -1.2007 -2.6194
  747MOL0     H  790   1.774   9.330  10.505  2.8515  0.2023 -1.9875
  747MOL0     H  791   1.689   9.483  10.471  0.2384  1.0246 -0.8008
  747MOL0     H  792   1.613   9.429  10.270  2.7270 -0.4748  0.7122
  747MOL0     H  793   1.685   9.269  10.276 -0.9229 -2.2677  0.5276
  747MOL0     H  794   1.477   9.376  10.483  1.2984 -0.7698  0.6779
  747MOL0     H  795   1.547   9.224  10.494 -1.2321 -1.3798 -1.7624
  747MOL0     H  796   1.408   9.370  10.159  2.3959 -3.0710 -1.6503
  747MOL0     H  797   1.088   9.318  10.102  0.3862  0.9523 -2.0653
  747MOL0     H  798   1.233   9.292   9.996 -1.4585  1.7574 -0.2794
  747MOL0     H  799   1.069   9.072  10.105 -1.7909 -0.0895 -0.9928
  747MOL0     H  800   1.206   9.062  10.000  1.4577  2.5090 -2.0579
  747MOL0     H  801   1.090   9.217   9.820 -0.9861 -2.3735 -1.6874
  747MOL0     H  802   0.955   9.231   9.938  0.1721 -0.5512  1.1798
  747MOL0     H  803   1.048   8.969   9.803  1.4942  0.6004  3.6074
  747MOL0     H  804   0.904   9.068   9.749 -1.0215 -1.5643 -0.6665
  747MOL0     H  805   0.712   9.058   9.751  0.2101 -0.9935  0.2936
  747MOL0     H  806   0.361   9.047   9.746 -2.1841  1.9414  0.7308
  747MOL0     H  807   0.425   9.214   9.775  0.2871 -0.3334  2.1481
  747MOL0     H  808   0.505   9.096   9.669 -1.1664  2.1344 -0.5470
  747MOL0     H  809   0.074   9.004  10.194 -1.3323 -1.6297 -1.4197
  747MOL0     H  810  -0.116   9.107  10.266  0.4779  2.0818  0.5884
  747MOL0     H  811  -0.213   9.304  10.385  1.4108 -1.7367 -0.8797
  747MOL0     H  812  -0.346   9.411  10.322 -0.0744 -0.4049 -1.5324
  747MOL0     H  813  -0.431   9.212  10.183 -0.2575 -1.4337 -0.0167
  747MOL0     H  814  -0.332   9.112  10.284 -1.6275 -0.7077 -0.8769
  747MOL0     H  815  -0.455   9.222  10.486 -1.5442  1.6156  0.4415
  747MOL0     H  816  -0.520   9.093  10.408 -1.0006  0.2704 -0.5644
  747MOL0     H  817  -0.582   9.383  10.361  0.8371  0.3650 -1.8666
  747MOL0     H  818  -0.647   9.271  10.248 -0.9624  2.6107 -1.1479
  747MOL0     H  819  -0.708   9.246  10.556 -1.5973  2.6769  0.7594
  747MOL0     H  820  -0.777   9.155  10.425 -1.9025  1.8564 -1.5792
  747MOL0     H  821  -0.800   9.471  10.451 -4.5794  1.2276  2.1181
  747MOL0     H  822  -0.870   9.369  10.320 -0.4387 -3.0728  0.0536
  747MOL0     H  823  -0.954   9.290  10.580  0.6653  0.1269  0.1106
  747MOL0     H  824  -1.045   9.308  10.426  0.4300 -2.1221  1.4605
  747MOL0     H  825  -1.050   9.551  10.444  1.5854  2.8965  3.4584
  747MOL0     H  826  -1.007   9.526  10.622  0.3642 -2.7617  1.5598
  747MOL0     H  827  -0.043   9.446  10.015 -0.4989  0.7731  1.4854
  747MOL0     H  828   0.155   9.338   9.920  1.5219 -0.6926 -0.5869
  747MOL0     H  829   0.539   8.947  10.193 -3.2705 -0.2161 -0.4356
  747MOL0     H  830   0.769   8.914  10.138 -1.4640 -2.1989  0.5733
  747MOL0     H  831   1.411   9.592  10.187  0.4575  0.3537 -2.5776
  747MOL0     H  832   1.200   9.635  10.063  2.1348 -1.0233 -0.5077
  747MOL0     H  833   0.928  10.156   9.802 -0.0362 -0.2260  0.9079
  747MOL0     H  834   0.701  10.135   9.683  1.6842 -1.7198 -3.1664
  747MOL0     H  835   0.308   9.953   9.752 -0.8444 -0.8036  2.7495
  747MOL0     H  836   0.392   9.971   9.903 -0.0736 -3.0196 -0.6429
  747MOL0     H  837   0.431  10.218   9.854 -0.2450 -0.8286  0.0422
  747MOL0     H  838   0.269  10.169   9.862 -0.7681 -0.3706 -1.6414
  747MOL0     H  839   0.242  10.166   9.613  0.1646 -1.2546 -1.1012
  747MOL0     H  840   0.418  10.200   9.596  1.2122 -0.4811  1.5920
  747MOL0     H  841   0.339  10.409   9.576 -1.6126  1.1558  0.2963
  747MOL0     H  842   0.371  10.418   9.747  0.9205  2.0065 -1.3303
  747MOL0     H  843  -0.047  10.447   9.747  0.4213  3.7762 -0.9389
  747MOL0     H  844   0.596   9.810   9.936  0.5429 -0.5733 -1.1550
  747MOL0     H  845   0.822   9.802  10.020  0.7540  0.7369  0.5953
  748MOL0     O  846   6.467   3.790   8.013  0.2874 -0.4864 -0.4165
  748MOL0     C  847   6.461   3.677   8.060  0.0125  0.8872 -1.1409
  748MOL0     O  848   6.353   3.604   8.096  0.1938 -0.1531 -0.2444
  748MOL0     C  849   6.222   3.651   8.065 -0.5642  0.6582  0.3021
  748MOL0     C  850   6.191   3.677   7.937 -0.1520  0.6342 -0.1507
  748MOL0     C  851   6.064   3.739   7.903 -0.4460 -0.7526 -0.1519
  748MOL0     C  852   5.967   3.772   8.001 -0.1783 -0.3946 -0.2478
  748MOL0     O  853   5.848   3.844   7.977  0.1843 -0.9845  0.2244
  748MOL0     C  854   5.754   3.788   7.879 -0.3923 -0.2894  0.9467
  748MOL0     C  855   5.614   3.838   7.905  0.5351  0.2409 -0.3761
  748MOL0     C  856   5.520   3.789   7.795  0.0984 -0.8202 -0.2918
  748MOL0     C  857   5.372   3.823   7.830  0.8917 -0.4720 -0.2602
  748MOL0     C  858   5.274   3.777   7.728 -0.0425 -0.1656 -0.4080
  748MOL0     C  859   5.134   3.821   7.766  0.6832  0.1553  0.6019
  748MOL0     C  860   5.035   3.787   7.660  0.5102 -0.0104 -0.6400
  748MOL0     C  861   5.038   3.866   7.532 -0.3530  0.2888  0.3561
  748MOL0     N  862   4.938   3.835   7.423 -0.5454  0.3281  0.5740
  748MOL0     C  863   4.809   3.789   7.457 -0.6685 -0.8262  1.1295
  748MOL0     C  864   4.764   3.732   7.349 -0.6102  0.9345  0.6289
  748MOL0     C  865   4.635   3.661   7.325  0.4801 -0.1112  0.2553
  748MOL0     C  866   4.515   3.740   7.371  0.6951 -0.3511  0.1128
  748MOL0     C  867   4.464   3.707   7.511  1.2071  0.2127 -1.1994
  748MOL0     C  868   4.320   3.658   7.527  0.4097  0.3115 -0.9304
  748MOL0     O  869   4.232   3.763   7.474  0.1277  0.3788 -0.5948
  748MOL0     C  870   4.099   3.736   7.456  0.0241 -0.2399 -0.9202
  748MOL0     C  871   4.047   3.716   7.327  0.1233  0.3608 -0.2318
  748MOL0     C  872   3.909   3.696   7.316 -0.0806  0.9007  0.6636
  748MOL0     C  873   3.854   3.686   7.183  0.4409 -0.3084  0.3859
  748MOL0     C  874   3.829   3.657   7.430  0.5799 -0.2572  0.0799
  748MOL0     C  875   3.691   3.607   7.423  0.1192 -0.1255 -0.9362
  748MOL0     O  876   3.647   3.554   7.305  0.2114 -0.1746 -0.1334
  748MOL0     C  877   3.516   3.516   7.291  0.1191  0.1819 -0.6267
  748MOL0     C  878   3.461   3.399   7.351 -0.6331 -0.4061 -0.0765
  748MOL0     C  879   3.327   3.363   7.321  0.6199 -0.0790  0.1485
  748MOL0     C  880   3.248   3.441   7.233 -0.2892  0.1950 -0.1428
  748MOL0     O  881   3.118   3.400   7.240 -0.5565  0.2845  0.4224
  748MOL0     C  882   3.033   3.446   7.135 -0.2171 -0.2887 -0.0045
  748MOL0     C  883   2.892   3.396   7.153 -0.4736  0.1357 -0.3862
  748MOL0     C  884   2.796   3.416   7.035 -0.5884 -0.9328  0.0174
  748MOL0     C  885   2.731   3.294   6.983 -0.0020  0.9158 -0.9055
  748MOL0     C  886   2.659   3.310   6.849  1.1897 -0.0462 -0.2787
  748MOL0     C  887   2.559   3.201   6.809  0.5553  0.3076  0.1279
  748MOL0     C  888   2.426   3.195   6.905 -0.3341  0.3345 -0.2681
  748MOL0     C  889   2.335   3.313   6.883  1.0254  0.1392 -0.1595
  748MOL0    Cl  890   2.271   3.293   6.713  0.0902 -0.1633  0.3673
  748MOL0     C  891   3.303   3.553   7.180 -0.0870 -0.1152  0.2037
  748MOL0     C  892   3.440   3.583   7.200 -0.1354  0.1880 -0.0587
  748MOL0     O  893   3.619   3.617   7.522  1.0043  0.0260 -0.6074
  748MOL0     C  894   3.881   3.694   7.555  0.2834  0.0828 -0.9171
  748MOL0     C  895   4.019   3.729   7.568  0.5741 -0.3247  0.1372
  748MOL0     N  896   4.858   3.753   7.247  0.2287 -0.2732  0.4608
  748MOL0     N  897   4.968   3.809   7.290  0.0013 -0.0258  0.6684
  748MOL0     C  898   6.004   3.733   8.135  1.0327  0.4831 -0.6798
  748MOL0     C  899   6.125   3.662   8.170 -0.0487 -0.3539  0.1381
  748MOL0     C  900   6.589   3.602   8.081 -0.3268 -0.0569 -0.4289
  748MOL0     C  901   6.586   3.471   8.140 -1.1991  0.1035  0.3248
  748MOL0     C  902   6.704   3.405   8.168  0.1580  0.3583  0.1973
  748MOL0     C  903   6.827   3.457   8.135 -0.7988  1.2444 -0.2908
  748MOL0     O  904   6.943   3.399   8.194 -0.0585  0.2925  0.1968
  748MOL0     C  905   7.069   3.474   8.173  0.1657  0.6176 -0.4173
  748MOL0     C  906   7.072   3.585   8.275 -0.4178  0.2263  0.1613
  748MOL0     C  907   7.047   3.541   8.415  0.5070  0.5026  0.7141
  748MOL0     C  908   7.046   3.658   8.507 -0.4619  0.3058  0.5524
  748MOL0     C  909   7.175   3.728   8.503 -0.8557  0.1168  0.2278
  748MOL0     C  910   7.292   3.774   8.504  0.5053  0.0584 -0.6815
  748MOL0     C  911   6.829   3.574   8.063 -0.0930 -0.0525  0.5595
  748MOL0     C  912   6.711   3.651   8.049 -0.0438 -0.4432  0.3952
  748MOL0     H  913   6.257   3.665   7.851 -0.3142 -1.2882 -0.0543
  748MOL0     H  914   6.037   3.769   7.802 -1.5040 -1.6593 -0.1511
  748MOL0     H  915   5.780   3.831   7.782 -1.3592 -3.0844 -0.6519
  748MOL0     H  916   5.762   3.679   7.877  0.7438 -0.2602 -2.8295
  748MOL0     H  917   5.580   3.795   7.999  0.3988  3.1795  1.0285
  748MOL0     H  918   5.629   3.945   7.920  0.5114  0.5716 -2.3930
  748MOL0     H  919   5.559   3.827   7.700  1.1568  0.2828  0.5661
  748MOL0     H  920   5.532   3.680   7.792 -1.3072 -1.0280  0.6687
  748MOL0     H  921   5.348   3.795   7.933  2.8650 -0.3076  0.2835
  748MOL0     H  922   5.379   3.932   7.827  1.0619 -0.4850 -0.2976
  748MOL0     H  923   5.300   3.822   7.632 -0.8172  0.2829 -0.4173
  748MOL0     H  924   5.281   3.668   7.724  3.3137 -0.1064  0.7950
  748MOL0     H  925   5.092   3.773   7.855 -3.3847  3.8779  1.0681
  748MOL0     H  926   5.137   3.930   7.776  0.3585 -0.0116  3.5481
  748MOL0     H  927   5.037   3.678   7.647  0.6512 -0.0368 -0.3994
  748MOL0     H  928   4.939   3.804   7.709  0.4390 -1.7833 -0.0725
  748MOL0     H  929   5.140   3.869   7.492 -0.5701  1.1648 -0.1649
  748MOL0     H  930   5.028   3.971   7.561 -0.0943  0.0088  1.4983
  748MOL0     H  931   4.755   3.807   7.550  1.1130 -0.5987  2.1841
  748MOL0     H  932   4.617   3.643   7.219 -1.2123 -0.9556  0.6452
  748MOL0     H  933   4.642   3.562   7.370  3.9322  1.6177  4.2089
  748MOL0     H  934   4.444   3.731   7.288 -0.6368 -0.0625  1.1813
  748MOL0     H  935   4.531   3.848   7.365 -2.2182  0.1326 -0.3689
  748MOL0     H  936   4.459   3.795   7.576  0.7640  1.6583 -3.1125
  748MOL0     H  937   4.524   3.630   7.561 -0.4650  0.3469  1.1534
  748MOL0     H  938   4.307   3.631   7.632  0.3198 -1.4531 -1.3669
  748MOL0     H  939   4.310   3.571   7.461  0.2911 -0.8480  0.5644
  748MOL0     H  940   4.114   3.738   7.244  2.6764  2.0778  2.0502
  748MOL0     H  941   3.749   3.713   7.167  0.5986 -0.1062 -0.3449
  748MOL0     H  942   3.900   3.749   7.106 -2.2146  0.8093 -0.4290
  748MOL0     H  943   3.873   3.583   7.152 -0.9304 -0.7589  0.9581
  748MOL0     H  944   3.525   3.331   7.406 -4.8352 -2.9501  2.2246
  748MOL0     H  945   3.283   3.269   7.353 -0.1300 -0.3354 -1.5283
  748MOL0     H  946   3.041   3.555   7.132  0.7551 -0.2667  2.0490
  748MOL0     H  947   3.079   3.403   7.046 -1.3326 -3.7769  0.9343
  748MOL0     H  948   2.909   3.290   7.174  0.8929 -0.2668 -3.1518
  748MOL0     H  949   2.854   3.429   7.250  1.1900 -0.3973  0.4828
  748MOL0     H  950   2.855   3.468   6.959 -0.4101  0.8359  1.2777
  748MOL0     H  951   2.722   3.491   7.066 -0.0506  1.4608 -3.7316
  748MOL0     H  952   2.808   3.218   6.971  0.6280  1.2687  0.6245
  748MOL0     H  953   2.657   3.250   7.052 -0.0480  0.0740 -1.4795
  748MOL0     H  954   2.729   3.333   6.768  2.9440 -1.0252  0.8756
  748MOL0     H  955   2.597   3.399   6.863  0.7722 -0.7366  3.1187
  748MOL0     H  956   2.522   3.212   6.706  1.1310  1.1027  0.0044
  748MOL0     H  957   2.613   3.106   6.806 -1.8734 -1.1877 -3.1873
  748MOL0     H  958   2.469   3.191   7.005  2.4798  0.4264 -1.3691
  748MOL0     H  959   2.363   3.107   6.889 -1.6511  0.5981  2.7626
  748MOL0     H  960   2.377   3.414   6.889 -2.0229  1.5213 -0.4929
  748MOL0     H  961   2.250   3.309   6.951  2.7505  0.9599  2.1793
  748MOL0     H  962   3.246   3.608   7.105 -0.5417 -3.7410 -2.3644
  748MOL0     H  963   3.475   3.675   7.153 -1.7964  0.5752 -0.5982
  748MOL0     H  964   3.819   3.679   7.643  1.9977 -3.7241 -0.1500
  748MOL0     H  965   4.070   3.762   7.658  2.2201 -0.5428 -0.6756
  748MOL0     H  966   5.925   3.742   8.209  0.7700  0.3581 -0.9383
  748MOL0     H  967   6.155   3.629   8.269  2.8704  0.7634 -0.2587
  748MOL0     H  968   6.491   3.429   8.172 -2.8267  0.8991 -2.9740
  748MOL0     H  969   6.694   3.320   8.235 -1.3104 -0.4102 -0.9249
  748MOL0     H  970   7.154   3.413   8.205  0.6059  1.4592  0.0365
  748MOL0     H  971   7.082   3.507   8.069 -1.6015 -0.0566 -0.8936
  748MOL0     H  972   7.001   3.661   8.243  0.5417  0.9016 -0.4135
  748MOL0     H  973   7.169   3.636   8.275  1.7218 -3.3559  2.8057
  748MOL0     H  974   7.122   3.468   8.449  0.8666  0.3634 -0.3387
  748MOL0     H  975   6.949   3.492   8.418  0.2000  1.1035  0.6344
  748MOL0     H  976   7.022   3.623   8.607  0.0437  0.3620  0.6957
  748MOL0     H  977   6.969   3.723   8.464  1.7292  1.3035 -2.2355
  748MOL0     H  978   7.396   3.799   8.509  1.1617 -2.3555 -0.8428
  748MOL0     H  979   6.913   3.634   8.028  0.6250 -1.2481  0.1525
  748MOL0     H  980   6.722   3.753   8.012  1.4286 -0.6594  0.1707
  749MOL0     O  981   2.288   8.611   2.420  0.5947  0.5940 -0.1522
  749MOL0     C  982   2.227   8.718   2.443 -0.0189  0.5298 -0.1835
  749MOL0     O  983   2.281   8.836   2.481  0.0511 -0.7125  0.6853
  749MOL0     C  984   2.421   8.852   2.511  0.1318 -0.9691  0.6197
  749MOL0     C  985   2.527   8.764   2.472 -0.9539  0.2795  0.4336
  749MOL0     C  986   2.653   8.797   2.499 -0.3656 -0.7984  0.3198
  749MOL0     C  987   2.689   8.909   2.581  0.1222  0.9513 -0.0838
  749MOL0     O  988   2.820   8.945   2.615  0.4198 -0.1433  0.1260
  749MOL0     C  989   2.924   8.913   2.530 -0.7723 -0.3808  0.3299
  749MOL0     C  990   3.056   8.948   2.597 -0.0656 -0.0614 -0.1528
  749MOL0     C  991   3.168   8.905   2.519  0.2340  0.6057 -0.1488
  749MOL0     C  992   3.306   8.936   2.582  0.6131 -0.4329 -0.1597
  749MOL0     C  993   3.419   8.885   2.495 -0.2560 -0.2488  0.0889
  749MOL0     C  994   3.485   9.001   2.417  0.9354  0.0855 -0.7216
  749MOL0     C  995   3.624   8.975   2.366  0.1080 -1.2064 -0.9887
  749MOL0     C  996   3.620   8.867   2.254  0.6693  0.1916  0.0280
  749MOL0     N  997   3.555   8.915   2.132  0.0003 -0.1333 -0.3267
  749MOL0     C  998   3.447   8.866   2.064  0.7328  0.1004  0.3512
  749MOL0     C  999   3.423   8.952   1.962 -0.9971  0.1980  0.3724
  749MOL0     C 1000   3.309   8.958   1.866  0.8546 -0.2135 -0.4571
  749MOL0     C 1001   3.180   9.014   1.939  0.5715  1.2173  0.0987
  749MOL0     C 1002   3.212   9.149   2.009 -0.0024  0.1401  0.3384
  749MOL0     C 1003   3.082   9.222   2.042 -0.8320 -0.9126 -0.1114
  749MOL0     O 1004   3.006   9.150   2.133  0.2083  0.6229  0.3557
  749MOL0     C 1005   2.868   9.178   2.145 -1.1646 -0.6254 -0.3027
  749MOL0     C 1006   2.805   9.301   2.110  0.2818  1.0102  0.2124
  749MOL0     C 1007   2.666   9.317   2.115  0.7048 -0.8783  0.4813
  749MOL0     C 1008   2.610   9.462   2.094  0.3587 -0.3251 -0.3595
  749MOL0     C 1009   2.593   9.211   2.172  1.4495  0.5897 -0.0548
  749MOL0     C 1010   2.445   9.232   2.207 -0.4650 -0.2383 -0.8031
  749MOL0     O 1011   2.364   9.120   2.188  0.5135 -0.7769  0.4314
  749MOL0     C 1012   2.250   9.102   2.264 -0.8365 -0.0877 -0.2541
  749MOL0     C 1013   2.251   9.127   2.400  0.1969  0.0008  0.0266
  749MOL0     C 1014   2.122   9.115   2.461 -0.1308 -0.0377 -0.8812
  749MOL0     C 1015   2.007   9.106   2.391  0.0305  0.1935  0.5014
  749MOL0     O 1016   1.896   9.105   2.473 -0.3955  0.3591 -0.0695
  749MOL0     C 1017   1.761   9.102   2.419  0.0699 -0.2275 -0.4654
  749MOL0     C 1018   1.667   9.160   2.528 -1.3402  0.3204 -0.7921
  749MOL0     C 1019   1.512   9.151   2.501 -0.3092  0.4684 -1.1666
  749MOL0     C 1020   1.448   9.299   2.509  0.4364 -0.9715 -0.0908
  749MOL0     C 1021   1.299   9.312   2.450 -1.2399 -0.2318 -0.0373
  749MOL0     C 1022   1.208   9.208   2.516  0.0450 -0.4199 -0.1923
  749MOL0     C 1023   1.054   9.218   2.505 -0.1234 -0.9420  0.2858
  749MOL0     C 1024   0.992   9.362   2.542 -0.3760 -0.1295  0.7692
  749MOL0    Cl 1025   0.816   9.348   2.531  0.2407 -0.1959 -0.0144
  749MOL0     C 1026   2.005   9.068   2.255 -0.6685 -1.1798  0.5644
  749MOL0     C 1027   2.130   9.060   2.194 -0.4407  0.4767 -0.2674
  749MOL0     O 1028   2.419   9.331   2.279  0.0878  0.5742 -0.1469
  749MOL0     C 1029   2.650   9.091   2.202  0.0653 -0.3263 -0.6238
  749MOL0     C 1030   2.785   9.072   2.182  0.0252  0.1342 -0.3796
  749MOL0     N 1031   3.535   9.039   1.958  0.5492 -0.1078 -0.9556
  749MOL0     N 1032   3.612   9.016   2.058  0.7643  0.0320 -0.1326
  749MOL0     C 1033   2.589   8.991   2.635 -0.0839  0.5407  0.5595
  749MOL0     C 1034   2.454   8.965   2.593 -0.5105  0.2954 -0.1242
  749MOL0     C 1035   2.082   8.706   2.466  0.2389 -0.2667 -0.0882
  749MOL0     C 1036   2.009   8.801   2.533  0.0035 -0.6336 -0.1583
  749MOL0     C 1037   1.873   8.801   2.534  0.8469  0.3092  0.5342
  749MOL0     C 1038   1.797   8.690   2.477 -0.1620  0.0265  0.4598
  749MOL0     O 1039   1.663   8.702   2.486 -0.3902 -0.1712  0.1080
  749MOL0     C 1040   1.578   8.597   2.433  1.4031 -0.5457 -0.1692
  749MOL0     C 1041   1.432   8.650   2.424 -0.6860 -0.4744 -0.7790
  749MOL0     C 1042   1.418   8.801   2.407 -0.3170  0.3531 -1.2241
  749MOL0     C 1043   1.278   8.842   2.347 -0.3881 -0.1115 -0.1055
  749MOL0     C 1044   1.173   8.826   2.452 -0.0420 -0.1823  0.7591
  749MOL0     C 1045   1.069   8.821   2.509  0.0115 -0.9396  0.2080
  749MOL0     C 1046   1.873   8.584   2.418  0.5180  0.3074  0.9101
  749MOL0     C 1047   2.006   8.597   2.411 -1.6005 -0.3137  0.0387
  749MOL0     H 1048   2.509   8.694   2.391  0.4348  1.3405 -0.8491
  749MOL0     H 1049   2.733   8.732   2.466  0.8234  0.2467  1.0621
  749MOL0     H 1050   2.923   8.804   2.537  2.9862 -0.4697  2.1341
  749MOL0     H 1051   2.919   8.958   2.430 -2.3473  1.4455  1.1496
  749MOL0     H 1052   3.071   9.057   2.599 -0.9285  0.1669 -2.6185
  749MOL0     H 1053   3.063   8.915   2.701  0.2502 -2.8960 -1.0013
  749MOL0     H 1054   3.158   8.798   2.498 -4.3052  0.7640  0.1717
  749MOL0     H 1055   3.177   8.964   2.427  2.0093  1.0027  0.2419
  749MOL0     H 1056   3.314   9.041   2.611 -3.9149 -0.7098  3.2328
  749MOL0     H 1057   3.299   8.881   2.677 -2.3475 -2.2660 -1.2778
  749MOL0     H 1058   3.483   8.849   2.577 -1.0798  1.7080  1.6730
  749MOL0     H 1059   3.395   8.801   2.429 -3.1502  0.9535 -0.5343
  749MOL0     H 1060   3.419   9.029   2.334 -2.7707  3.4377  2.8621
  749MOL0     H 1061   3.484   9.085   2.488 -0.0341 -1.7431  1.5715
  749MOL0     H 1062   3.667   9.072   2.339 -1.7018 -0.0951 -0.1009
  749MOL0     H 1063   3.673   8.950   2.460 -4.4026  0.7455  2.2782
  749MOL0     H 1064   3.573   8.770   2.274  1.1720  0.2345  1.5568
  749MOL0     H 1065   3.722   8.842   2.224  0.5251 -1.6811  0.9761
  749MOL0     H 1066   3.385   8.783   2.096 -0.7258  0.6877 -0.8040
  749MOL0     H 1067   3.329   9.037   1.793 -2.6542 -1.0559 -2.5730
  749MOL0     H 1068   3.284   8.865   1.814 -0.1365  0.4280 -1.1803
  749MOL0     H 1069   3.159   8.952   2.026  1.0781 -1.4116 -1.5546
  749MOL0     H 1070   3.088   9.021   1.881 -1.5223 -0.6003  2.9542
  749MOL0     H 1071   3.268   9.209   1.937 -0.9889 -0.5246 -1.0193
  749MOL0     H 1072   3.279   9.134   2.095 -0.5678 -0.1095  0.7379
  749MOL0     H 1073   3.023   9.239   1.951 -1.9179 -0.5757  0.6501
  749MOL0     H 1074   3.116   9.320   2.078 -2.2998  0.3235 -1.8802
  749MOL0     H 1075   2.868   9.387   2.089 -0.6268  2.1931  2.0768
  749MOL0     H 1076   2.502   9.450   2.077  0.5751 -0.0836 -2.0719
  749MOL0     H 1077   2.637   9.521   2.182  2.5074 -2.5804  0.6094
  749MOL0     H 1078   2.661   9.513   2.012  0.2890 -1.4711 -1.1345
  749MOL0     H 1079   2.329   9.180   2.453 -0.7964 -1.1467  2.7890
  749MOL0     H 1080   2.122   9.138   2.567 -1.6201 -1.5228 -0.5142
  749MOL0     H 1081   1.757   9.150   2.321 -1.5397 -2.0576 -1.3689
  749MOL0     H 1082   1.732   8.998   2.407  0.4063 -0.6610  2.0070
  749MOL0     H 1083   1.673   9.102   2.621  0.1636  1.8168  0.0988
  749MOL0     H 1084   1.702   9.259   2.558 -1.0720 -0.2009  0.7071
  749MOL0     H 1085   1.475   9.083   2.579 -0.2354  0.1404 -1.4168
  749MOL0     H 1086   1.488   9.110   2.403  0.5603  1.8917 -2.0181
  749MOL0     H 1087   1.470   9.348   2.604  2.3633 -0.7673 -0.6070
  749MOL0     H 1088   1.505   9.358   2.437 -3.6797 -0.4387 -3.2821
  749MOL0     H 1089   1.302   9.289   2.343  1.9577  1.2963 -0.4053
  749MOL0     H 1090   1.267   9.415   2.467 -0.6063  0.1737 -1.2012
  749MOL0     H 1091   1.234   9.110   2.475  1.6604  0.1097 -0.4968
  749MOL0     H 1092   1.237   9.198   2.621 -1.6139 -2.6606  0.1386
  749MOL0     H 1093   1.008   9.142   2.569 -0.2650 -1.3564 -0.2984
  749MOL0     H 1094   1.037   9.200   2.398  1.1671  2.1251 -0.5426
  749MOL0     H 1095   1.025   9.438   2.471 -0.7360  0.2007  0.9524
  749MOL0     H 1096   1.032   9.402   2.636 -2.7667  3.1796  0.5594
  749MOL0     H 1097   1.921   9.059   2.187 -1.1183 -1.3793  1.1378
  749MOL0     H 1098   2.135   9.019   2.094 -1.7939 -1.4477  0.3837
  749MOL0     H 1099   2.594   9.016   2.256 -0.6800  0.1907 -0.6724
  749MOL0     H 1100   2.834   8.976   2.192  1.3339  0.9450  1.5317
  749MOL0     H 1101   2.606   9.074   2.704  0.6886  1.1576 -0.3393
  749MOL0     H 1102   2.380   9.041   2.614  0.0469  0.9927 -0.6050
  749MOL0     H 1103   2.066   8.872   2.592 -0.8419  0.3353 -0.4919
  749MOL0     H 1104   1.812   8.876   2.584 -2.4099 -1.3054 -0.7173
  749MOL0     H 1105   1.618   8.562   2.337  3.0711  1.0158 -0.0940
  749MOL0     H 1106   1.574   8.510   2.499 -2.0215  1.0249  1.9412
  749MOL0     H 1107   1.392   8.627   2.523 -0.2406  1.1103 -0.1993
  749MOL0     H 1108   1.376   8.588   2.353 -0.8451 -1.7218  0.4041
  749MOL0     H 1109   1.496   8.844   2.343  2.8994  0.2548  2.2592
  749MOL0     H 1110   1.420   8.845   2.507  0.1574 -3.4627  0.5867
  749MOL0     H 1111   1.255   8.777   2.262  1.8788 -0.5502 -0.4452
  749MOL0     H 1112   1.287   8.943   2.306  4.3538 -0.9127 -1.7094
  749MOL0     H 1113   0.980   8.810   2.568 -0.1306  0.8706  0.3949
  749MOL0     H 1114   1.825   8.495   2.378  0.3951  0.2024  1.2864
  749MOL0     H 1115   2.063   8.528   2.348  5.4881  2.0469  2.8177
  750MOL0     O 1116   9.782   0.729   7.406  0.2074 -0.0545 -0.0959
  750MOL0     C 1117   9.815   0.718   7.289 -0.0515 -0.1407 -0.1850
  750MOL0     O 1118   9.751   0.635   7.203 -0.6559 -0.4285  0.1799
  750MOL0     C 1119   9.630   0.572   7.218  0.4806  0.0157 -0.6091
  750MOL0     C 1120   9.566   0.539   7.099  0.6646 -0.0032  0.0959
  750MOL0     C 1121   9.431   0.494   7.089  0.4946 -0.0355  0.4165
  750MOL0     C 1122   9.363   0.486   7.204 -0.7349 -0.4544 -0.9771
  750MOL0     O 1123   9.233   0.446   7.215 -0.5630  0.2552  0.4852
  750MOL0     C 1124   9.151   0.443   7.093 -0.5677  0.5142 -0.2522
  750MOL0     C 1125   9.019   0.379   7.146 -0.0183 -0.5243  0.3396
  750MOL0     C 1126   8.938   0.475   7.241  0.0019 -0.0719 -0.2174
  750MOL0     C 1127   8.800   0.422   7.289  0.2778 -0.7728  0.2163
  750MOL0     C 1128   8.726   0.535   7.369 -0.5140 -0.1031  0.0734
  750MOL0     C 1129   8.780   0.535   7.511  0.1992 -0.5227  0.5117
  750MOL0     C 1130   8.754   0.668   7.590 -0.1945 -0.0682  0.9267
  750MOL0     C 1131   8.815   0.654   7.731 -0.3495 -0.5426  0.5402
  750MOL0     N 1132   8.794   0.524   7.794  0.1585  0.3872 -1.0885
  750MOL0     C 1133   8.888   0.431   7.801  0.3720 -0.4020 -0.5692
  750MOL0     C 1134   8.862   0.341   7.898  0.6877 -1.2162 -0.3804
  750MOL0     C 1135   8.931   0.216   7.938  1.2121 -0.3438 -0.4627
  750MOL0     C 1136   8.912   0.104   7.836 -0.3416  0.8176  0.5963
  750MOL0     C 1137   8.768   0.089   7.790  0.7923 -0.1340  0.0639
  750MOL0     C 1138   8.676   0.034   7.901  0.0729  0.2618 -0.9413
  750MOL0     O 1139   8.545   0.014   7.868  0.0603 -0.0004  0.6393
  750MOL0     C 1140   8.471   0.117   7.815  0.9030 -0.0705 -0.2137
  750MOL0     C 1141   8.451   0.237   7.864  0.7170 -0.3605 -0.8638
  750MOL0     C 1142   8.390   0.339   7.796 -0.0339  0.0412  0.2592
  750MOL0     C 1143   8.375   0.474   7.861 -1.1510  0.2906  0.1378
  750MOL0     C 1144   8.355   0.325   7.663 -0.3263 -0.3496  0.2671
  750MOL0     C 1145   8.281   0.430   7.580 -0.4522  1.2256 -0.0227
  750MOL0     O 1146   8.285   0.402   7.447  0.1808 -0.2256  1.3307
  750MOL0     C 1147   8.191   0.469   7.374  0.4735 -0.0616  0.0365
  750MOL0     C 1148   8.056   0.437   7.387 -0.4982 -0.2361 -0.2115
  750MOL0     C 1149   7.965   0.508   7.307  0.0038  0.6549  0.1074
  750MOL0     C 1150   8.003   0.614   7.219  0.1750 -0.3291  0.0260
  750MOL0     O 1151   7.921   0.697   7.148  0.6292 -0.1783 -0.1415
  750MOL0     C 1152   7.781   0.658   7.138 -0.5331  0.2920  0.2543
  750MOL0     C 1153   7.694   0.781   7.088 -0.4557  0.4757  0.5566
  750MOL0     C 1154   7.540   0.747   7.114 -1.0674 -0.8861 -0.1487
  750MOL0     C 1155   7.487   0.688   6.986 -0.5614 -0.1796 -0.0739
  750MOL0     C 1156   7.350   0.632   7.013 -0.2606  0.4558 -0.2434
  750MOL0     C 1157   7.325   0.535   6.896 -0.4544 -0.6106  0.5883
  750MOL0     C 1158   7.191   0.464   6.902 -0.6093 -1.1600  0.4425
  750MOL0     C 1159   7.070   0.560   6.881 -0.0330  0.4311 -0.0654
  750MOL0    Cl 1160   6.921   0.458   6.847 -0.4083  0.3412 -0.1200
  750MOL0     C 1161   8.144   0.641   7.216 -0.0124 -0.3616 -0.6695
  750MOL0     C 1162   8.239   0.561   7.275  0.0632 -0.2313 -0.4031
  750MOL0     O 1163   8.216   0.512   7.635  0.2129  1.0456 -0.0543
  750MOL0     C 1164   8.357   0.195   7.619  0.0539  0.5806  0.3651
  750MOL0     C 1165   8.411   0.091   7.694 -0.5095  0.1624 -0.6664
  750MOL0     N 1166   8.752   0.398   7.962  0.3174 -0.2819 -0.3479
  750MOL0     N 1167   8.716   0.510   7.903  0.2019  0.3289 -0.7287
  750MOL0     C 1168   9.421   0.522   7.324 -0.0422 -1.1008  1.4558
  750MOL0     C 1169   9.551   0.563   7.332 -0.1198  0.7220 -0.3232
  750MOL0     C 1170   9.936   0.793   7.240  0.0546 -0.6647 -0.0602
  750MOL0     C 1171   9.965   0.782   7.107  0.3651  0.7736 -0.1591
  750MOL0     C 1172  10.088   0.822   7.053 -0.4811 -0.4227 -0.2316
  750MOL0     C 1173  10.177   0.893   7.132 -0.3875  0.6250  1.0835
  750MOL0     O 1174  10.300   0.934   7.095  0.4189 -0.4678  0.1887
  750MOL0     C 1175  10.341   0.938   6.955 -0.5148 -0.7175  0.5027
  750MOL0     C 1176  10.425   1.071   6.945  0.5721  0.4763 -0.0060
  750MOL0     C 1177  10.552   1.068   7.031  0.1614 -0.2872 -0.5435
  750MOL0     C 1178  10.661   1.171   6.997  0.0537 -0.3780  0.2872
  750MOL0     C 1179  10.721   1.165   6.862  0.1283  0.8435 -0.2181
  750MOL0     C 1180  10.780   1.179   6.754  0.1892  0.1631  0.1429
  750MOL0     C 1181  10.144   0.902   7.271  0.6039  0.5046  0.2484
  750MOL0     C 1182  10.024   0.853   7.332 -0.5240 -0.4725 -0.6652
  750MOL0     H 1183   9.613   0.561   7.004 -0.2513 -0.2740 -0.4363
  750MOL0     H 1184   9.372   0.485   6.998 -1.4055 -4.4218  1.8363
  750MOL0     H 1185   9.130   0.542   7.050 -1.8151  0.4274  0.1251
  750MOL0     H 1186   9.191   0.370   7.022 -1.3657 -1.3056  1.0931
  750MOL0     H 1187   8.964   0.346   7.056  2.5099 -1.0259 -1.1120
  750MOL0     H 1188   9.046   0.284   7.193  3.0464 -0.1765 -0.4891
  750MOL0     H 1189   8.996   0.489   7.332  0.1585  1.2448 -0.5064
  750MOL0     H 1190   8.929   0.568   7.183 -4.9417  0.5773  1.1019
  750MOL0     H 1191   8.739   0.396   7.201  0.2012  0.8004 -0.2308
  750MOL0     H 1192   8.806   0.330   7.346  2.4116 -0.9019 -0.1547
  750MOL0     H 1193   8.758   0.633   7.332 -0.5888 -0.9258 -2.3903
  750MOL0     H 1194   8.618   0.518   7.361 -0.8639  1.8193  0.1644
  750MOL0     H 1195   8.741   0.448   7.564  0.0657 -0.9451 -0.2601
  750MOL0     H 1196   8.888   0.522   7.501  0.0715 -2.3268  1.1535
  750MOL0     H 1197   8.790   0.758   7.540 -1.1344  0.2282  0.7597
  750MOL0     H 1198   8.646   0.678   7.602 -0.1291  1.2985  0.5727
  750MOL0     H 1199   8.787   0.736   7.798  0.8980  0.1345  0.2656
  750MOL0     H 1200   8.922   0.671   7.716 -0.4277  0.3242  0.8948
  750MOL0     H 1201   8.954   0.413   7.717 -0.2496 -1.0818 -0.9228
  750MOL0     H 1202   9.037   0.233   7.956  1.0218  1.3249 -0.7541
  750MOL0     H 1203   8.894   0.198   8.039  1.3926  2.0427  0.0757
  750MOL0     H 1204   8.959   0.009   7.864  0.0908  0.6095 -0.7405
  750MOL0     H 1205   8.960   0.138   7.744  0.9175 -1.9556  0.1327
  750MOL0     H 1206   8.760   0.023   7.703 -0.1812  1.1429 -0.8397
  750MOL0     H 1207   8.727   0.185   7.758  2.7511  0.6783 -0.1410
  750MOL0     H 1208   8.685   0.103   7.984  0.1981 -0.3128 -0.4734
  750MOL0     H 1209   8.713  -0.062   7.937 -1.0926  0.0769 -0.1803
  750MOL0     H 1210   8.494   0.250   7.963  0.9269  2.7817 -1.2565
  750MOL0     H 1211   8.425   0.464   7.958  3.8978 -2.1539 -2.3437
  750MOL0     H 1212   8.433   0.546   7.804 -1.9777  2.8657  2.3176
  750MOL0     H 1213   8.274   0.513   7.876 -0.7993  0.9229  0.9480
  750MOL0     H 1214   8.018   0.367   7.461  1.0584 -1.7668 -0.8105
  750MOL0     H 1215   7.862   0.474   7.320  0.4050  0.2908  3.1036
  750MOL0     H 1216   7.761   0.576   7.068 -1.0502  0.9432 -0.3743
  750MOL0     H 1217   7.745   0.642   7.240  1.5155 -0.4530  0.9238
  750MOL0     H 1218   7.726   0.874   7.136  0.6227  0.5816 -0.3283
  750MOL0     H 1219   7.701   0.791   6.980 -2.9824 -2.5302 -0.0293
  750MOL0     H 1220   7.485   0.840   7.129 -1.6859 -1.5121  1.8258
  750MOL0     H 1221   7.521   0.676   7.195  1.5130  0.4801  1.7804
  750MOL0     H 1222   7.475   0.768   6.912 -1.2025  0.9044  1.1499
  750MOL0     H 1223   7.561   0.610   6.965  1.1975  0.9579  1.4979
  750MOL0     H 1224   7.277   0.714   7.017 -1.4273 -0.5109 -0.9147
  750MOL0     H 1225   7.336   0.577   7.106 -1.2675 -0.0686 -0.6821
  750MOL0     H 1226   7.342   0.591   6.804 -0.7902 -0.4127  0.6474
  750MOL0     H 1227   7.410   0.466   6.905 -0.1832 -0.4483 -0.6259
  750MOL0     H 1228   7.196   0.419   7.002  3.6925 -0.9740  0.5009
  750MOL0     H 1229   7.174   0.394   6.820 -1.8331 -0.1085 -0.2294
  750MOL0     H 1230   7.087   0.626   6.796 -0.6086  0.3153 -0.2725
  750MOL0     H 1231   7.050   0.623   6.968 -1.5859  0.9823 -0.7906
  750MOL0     H 1232   8.180   0.716   7.146 -1.7778  1.9516  0.7505
  750MOL0     H 1233   8.346   0.576   7.271 -0.3311  3.4075 -1.7947
  750MOL0     H 1234   8.313   0.155   7.529  3.6004  0.3958 -1.4757
  750MOL0     H 1235   8.416  -0.012   7.659  0.0551  0.5660 -1.8446
  750MOL0     H 1236   9.353   0.519   7.408  0.3325 -1.3731  1.7537
  750MOL0     H 1237   9.595   0.600   7.424 -0.2639 -0.5152  0.2615
  750MOL0     H 1238   9.899   0.728   7.038 -0.3154  0.3793  0.7777
  750MOL0     H 1239  10.108   0.807   6.948  2.6769  0.4471  0.1403
  750MOL0     H 1240  10.395   0.845   6.935  0.4358 -0.4886  1.8332
  750MOL0     H 1241  10.258   0.945   6.884  1.7228 -2.6931 -2.5504
  750MOL0     H 1242  10.369   1.163   6.963  1.2974  1.0189 -0.4712
  750MOL0     H 1243  10.435   1.088   6.838 -2.4323  1.5871 -0.2120
  750MOL0     H 1244  10.606   0.974   7.018  0.6560 -0.5768  2.7174
  750MOL0     H 1245  10.514   1.069   7.134  0.3650 -3.6744 -0.3323
  750MOL0     H 1246  10.749   1.143   7.056  1.1516  1.0045 -0.6375
  750MOL0     H 1247  10.621   1.268   7.028 -1.5917 -0.7448 -0.5541
  750MOL0     H 1248  10.817   1.181   6.654  0.9996  1.3240  0.4547
  750MOL0     H 1249  10.221   0.953   7.328 -0.5867  0.7205  1.7269
  750MOL0     H 1250  10.004   0.857   7.438  0.9178  2.8166 -0.3781
  751MOL0     O 1251   1.187   2.726   3.449 -0.5986  0.6120 -0.0082
  751MOL0     C 1252   1.270   2.798   3.401  0.8231 -0.3011  0.2814
  751MOL0     O 1253   1.269   2.935   3.393  0.5772 -0.5515 -0.3042
  751MOL0     C 1254   1.168   3.010   3.457  0.5033 -0.9333 -0.1310
  751MOL0     C 1255   1.159   3.001   3.593 -0.1119 -0.1518 -0.3593
  751MOL0     C 1256   1.064   3.068   3.659 -0.0778  0.1459  0.0521
  751MOL0     C 1257   0.970   3.154   3.597  0.3663 -0.4521 -0.2640
  751MOL0     O 1258   0.876   3.199   3.685  0.1209 -0.2010 -0.0430
  751MOL0     C 1259   0.768   3.267   3.628  0.5093  0.1703 -0.1590
  751MOL0     C 1260   0.801   3.412   3.609  0.7904  0.5106  0.5508
  751MOL0     C 1261   0.692   3.493   3.530  0.2685 -0.4780 -0.2645
  751MOL0     C 1262   0.747   3.518   3.393  0.0558 -0.2343  0.1775
  751MOL0     C 1263   0.654   3.603   3.307 -0.1385 -0.3287  0.1415
  751MOL0     C 1264   0.539   3.527   3.234 -0.3226 -0.2105  0.4675
  751MOL0     C 1265   0.468   3.609   3.122 -0.1039 -0.8839 -1.2014
  751MOL0     C 1266   0.354   3.529   3.063  0.6585  0.8018 -0.3630
  751MOL0     N 1267   0.263   3.603   2.988  0.0132 -0.3240  0.5456
  751MOL0     C 1268   0.201   3.580   2.870 -0.2470  0.2215  1.5560
  751MOL0     C 1269   0.093   3.665   2.869 -0.7239 -0.2541 -0.2883
  751MOL0     C 1270  -0.011   3.678   2.757  0.0045 -0.1866  0.3493
  751MOL0     C 1271  -0.054   3.544   2.703  0.1219  1.1308 -0.5878
  751MOL0     C 1272  -0.153   3.558   2.592  0.5905  0.7713  0.0010
  751MOL0     C 1273  -0.238   3.433   2.570  0.0546  0.0170 -0.0982
  751MOL0     O 1274  -0.350   3.445   2.472  0.3742 -0.2732 -0.4985
  751MOL0     C 1275  -0.441   3.347   2.488  0.1641  0.0355 -0.2949
  751MOL0     C 1276  -0.557   3.368   2.408 -0.5121  0.0571 -0.2530
  751MOL0     C 1277  -0.661   3.277   2.404 -0.3651 -0.1026 -0.2130
  751MOL0     C 1278  -0.785   3.314   2.315  0.0645  0.9154  0.2667
  751MOL0     C 1279  -0.641   3.146   2.465  0.2620  0.1519  0.7531
  751MOL0     C 1280  -0.738   3.030   2.440  0.4479  0.0767 -0.4026
  751MOL0     O 1281  -0.843   3.036   2.352  0.2923 -0.6361  0.5279
  751MOL0     C 1282  -0.931   2.935   2.322 -0.0206  0.2400 -0.0890
  751MOL0     C 1283  -1.063   2.963   2.326 -0.1409  0.1280  0.4812
  751MOL0     C 1284  -1.156   2.867   2.283 -0.7158  0.6030  0.4681
  751MOL0     C 1285  -1.116   2.740   2.256  0.6763  0.4301 -0.1531
  751MOL0     O 1286  -1.202   2.652   2.209  0.1112 -0.6035  0.6129
  751MOL0     C 1287  -1.215   2.647   2.068 -0.4248 -0.2638 -1.0276
  751MOL0     C 1288  -1.147   2.528   2.008 -0.3901 -0.0335 -0.4355
  751MOL0     C 1289  -1.226   2.398   2.023  0.7208  1.1445 -0.0022
  751MOL0     C 1290  -1.350   2.396   1.923 -0.0293  0.2079 -0.3171
  751MOL0     C 1291  -1.427   2.258   1.912 -0.4027  0.0006  0.1235
  751MOL0     C 1292  -1.571   2.278   1.897 -0.5738  0.2989 -0.6590
  751MOL0     C 1293  -1.647   2.147   1.882  0.0175 -0.4385  0.5860
  751MOL0     C 1294  -1.796   2.170   1.855  0.4297 -0.6365 -0.2519
  751MOL0    Cl 1295  -1.838   2.313   1.749  0.1978 -0.1156 -0.2236
  751MOL0     C 1296  -0.971   2.705   2.262  0.5372 -0.0309 -0.6127
  751MOL0     C 1297  -0.882   2.806   2.308  0.4649  1.1393  0.6931
  751MOL0     O 1298  -0.731   2.934   2.513 -0.0092  0.5581 -0.3471
  751MOL0     C 1299  -0.531   3.128   2.550 -0.2555 -0.1090  0.4706
  751MOL0     C 1300  -0.438   3.230   2.557  0.7485  0.0334 -0.6618
  751MOL0     N 1301   0.101   3.729   2.987  0.3282 -0.1477 -0.0493
  751MOL0     N 1302   0.200   3.700   3.055  0.2904 -0.0993 -0.2852
  751MOL0     C 1303   0.972   3.160   3.462 -0.1044  0.4459  0.1131
  751MOL0     C 1304   1.071   3.090   3.394 -0.4887  0.6799  0.0692
  751MOL0     C 1305   1.377   2.724   3.321 -0.9650  0.3525  0.5501
  751MOL0     C 1306   1.462   2.788   3.231  0.1582  0.9496  0.4126
  751MOL0     C 1307   1.566   2.730   3.168 -0.5660  1.4259 -1.0535
  751MOL0     C 1308   1.588   2.587   3.184  0.5022 -0.7602 -0.1637
  751MOL0     O 1309   1.691   2.524   3.118 -0.0216 -0.4070  0.9704
  751MOL0     C 1310   1.727   2.386   3.143 -0.0016  0.8299 -0.1345
  751MOL0     C 1311   1.656   2.298   3.034 -0.5295  1.2985 -0.2151
  751MOL0     C 1312   1.703   2.302   2.892  0.1725  0.3985  0.2654
  751MOL0     C 1313   1.853   2.279   2.867  1.0265  0.3295 -0.2256
  751MOL0     C 1314   1.909   2.179   2.951 -0.1692  0.3471 -0.1448
  751MOL0     C 1315   1.939   2.096   3.029 -0.1122  0.4915 -0.6785
  751MOL0     C 1316   1.492   2.520   3.261  0.1790  0.3905 -0.5304
  751MOL0     C 1317   1.398   2.584   3.336  0.5265  0.4425 -0.9517
  751MOL0     H 1318   1.231   2.930   3.631  1.4189 -0.4859 -3.5657
  751MOL0     H 1319   1.054   3.059   3.767 -0.7373 -1.5381 -0.1221
  751MOL0     H 1320   0.735   3.223   3.533 -2.0294  0.6718  0.4269
  751MOL0     H 1321   0.677   3.258   3.688 -0.0029  2.6155 -0.4482
  751MOL0     H 1322   0.813   3.455   3.709 -1.1361 -0.2097  1.1359
  751MOL0     H 1323   0.897   3.424   3.558  1.5031 -1.2510  1.3916
  751MOL0     H 1324   0.598   3.438   3.521  1.0736 -1.6031 -2.7880
  751MOL0     H 1325   0.668   3.587   3.580  1.6310 -0.8127  1.0975
  751MOL0     H 1326   0.848   3.560   3.398  0.7642 -1.5267 -2.0710
  751MOL0     H 1327   0.755   3.423   3.340  0.0225 -1.5750  2.4780
  751MOL0     H 1328   0.605   3.685   3.361 -0.9947 -0.8329  0.1410
  751MOL0     H 1329   0.721   3.660   3.242  0.9090  0.2619  1.6682
  751MOL0     H 1330   0.593   3.445   3.187  2.6747  1.2556  1.0915
  751MOL0     H 1331   0.457   3.491   3.297 -0.0284 -0.8251  0.5012
  751MOL0     H 1332   0.431   3.705   3.161  1.2629 -1.5082  1.9208
  751MOL0     H 1333   0.530   3.627   3.034 -3.0970  0.5890 -3.1944
  751MOL0     H 1334   0.292   3.497   3.148 -0.7147 -1.2945 -2.0429
  751MOL0     H 1335   0.401   3.443   3.013 -0.5966 -1.1477  1.6248
  751MOL0     H 1336   0.218   3.509   2.789 -5.1754  0.5980 -0.1570
  751MOL0     H 1337  -0.098   3.739   2.783  0.1149 -0.1284  0.5894
  751MOL0     H 1338   0.042   3.733   2.679  0.3564  0.4321  1.0118
  751MOL0     H 1339  -0.090   3.488   2.790 -0.2911  1.3899 -0.5922
  751MOL0     H 1340   0.035   3.488   2.672 -0.7109  0.9867 -2.8334
  751MOL0     H 1341  -0.111   3.572   2.492 -1.1996 -1.8283 -1.2002
  751MOL0     H 1342  -0.221   3.641   2.615  0.7403  2.1587 -3.8709
  751MOL0     H 1343  -0.268   3.398   2.669 -3.5331  1.4410 -0.5434
  751MOL0     H 1344  -0.181   3.355   2.520  0.5533  1.1741 -1.4047
  751MOL0     H 1345  -0.571   3.451   2.339 -1.4915 -1.3979 -1.8975
  751MOL0     H 1346  -0.799   3.247   2.230  2.3519 -1.1261  1.3633
  751MOL0     H 1347  -0.879   3.330   2.369 -1.2776  0.1964 -1.7474
  751MOL0     H 1348  -0.762   3.409   2.265 -2.3841  2.2592  1.4999
  751MOL0     H 1349  -1.089   3.067   2.342  4.0704  1.0564  2.8829
  751MOL0     H 1350  -1.264   2.878   2.278 -0.5311  2.1536 -1.2735
  751MOL0     H 1351  -1.323   2.643   2.048 -0.8155  1.6973  0.4450
  751MOL0     H 1352  -1.175   2.739   2.024  3.1740 -0.8300  0.7391
  751MOL0     H 1353  -1.139   2.549   1.901 -1.5675  0.8662 -0.3613
  751MOL0     H 1354  -1.046   2.516   2.047 -1.3374  3.0148  3.6145
  751MOL0     H 1355  -1.263   2.386   2.126 -3.6246  1.5401 -1.3034
  751MOL0     H 1356  -1.161   2.313   2.002 -1.4874 -1.3113  2.1741
  751MOL0     H 1357  -1.420   2.471   1.960  0.4628  0.7652 -0.5055
  751MOL0     H 1358  -1.317   2.425   1.823  1.4216 -2.2704 -0.6417
  751MOL0     H 1359  -1.392   2.191   1.992  3.2498  0.1413 -1.1651
  751MOL0     H 1360  -1.395   2.199   1.826  0.4605 -0.6275  0.8612
  751MOL0     H 1361  -1.612   2.322   1.988  1.4785  0.1827  0.3588
  751MOL0     H 1362  -1.592   2.340   1.809  0.2051  3.1241  1.0282
  751MOL0     H 1363  -1.629   2.098   1.979  3.6683 -2.3748 -0.8414
  751MOL0     H 1364  -1.605   2.086   1.801  2.2417  0.3606  1.0444
  751MOL0     H 1365  -1.847   2.180   1.951 -0.1933 -2.5088 -0.3474
  751MOL0     H 1366  -1.829   2.072   1.817  2.8839 -1.2070 -1.0950
  751MOL0     H 1367  -0.939   2.607   2.226 -2.9708 -0.8259 -1.9521
  751MOL0     H 1368  -0.776   2.783   2.311  0.4167  0.2507 -1.9418
  751MOL0     H 1369  -0.532   3.036   2.607 -3.2338 -0.6038 -0.1883
  751MOL0     H 1370  -0.354   3.189   2.612  0.6647  0.0742 -0.5021
  751MOL0     H 1371   0.902   3.217   3.401 -0.8486 -0.6335 -0.0972
  751MOL0     H 1372   1.082   3.106   3.287 -1.3732 -3.9982 -0.9582
  751MOL0     H 1373   1.444   2.891   3.202 -0.2576  0.4779 -1.0848
  751MOL0     H 1374   1.632   2.783   3.101 -0.9359  1.4716 -1.3856
  751MOL0     H 1375   1.836   2.379   3.139 -0.0542 -1.8122  1.2781
  751MOL0     H 1376   1.700   2.344   3.240  1.1851  2.1751  0.8264
  751MOL0     H 1377   1.550   2.324   3.040 -0.4890  1.6720 -1.0224
  751MOL0     H 1378   1.666   2.193   3.063  3.7552  1.4811 -0.3650
  751MOL0     H 1379   1.677   2.401   2.853  1.8386  1.5002  1.7774
  751MOL0     H 1380   1.638   2.233   2.836 -3.0230  2.3585  1.2698
  751MOL0     H 1381   1.901   2.373   2.892  0.2506  0.3347  1.3574
  751MOL0     H 1382   1.870   2.235   2.768 -1.5324 -2.0578  0.2488
  751MOL0     H 1383   1.966   2.013   3.091 -1.9466  0.5429  0.2659
  751MOL0     H 1384   1.501   2.414   3.283 -3.0651 -0.0887 -0.9598
  751MOL0     H 1385   1.339   2.529   3.409  0.9257  0.3092 -0.7242
  752MOL0     O 1386   1.770  10.012   1.534  0.1357 -0.3118  0.8765
  752MOL0     C 1387   1.706  10.062   1.443 -0.6968 -0.5479  0.2021
  752MOL0     O 1388   1.763  10.124   1.333  0.4422 -0.2103 -0.2884
  752MOL0     C 1389   1.896  10.127   1.318  0.7116  0.9688 -0.0511
  752MOL0     C 1390   1.946  10.098   1.190  0.1518  0.6478  0.5446
  752MOL0     C 1391   2.077  10.090   1.150 -0.8477  0.6240  0.5618
  752MOL0     C 1392   2.170  10.136   1.237  0.0055 -0.3190 -0.8242
  752MOL0     O 1393   2.300  10.160   1.206 -0.5672 -0.3391  0.2766
  752MOL0     C 1394   2.348  10.141   1.074 -0.6339 -0.4345 -0.2164
  752MOL0     C 1395   2.498  10.186   1.080  0.0462 -0.7967 -0.7942
  752MOL0     C 1396   2.569  10.191   0.938 -0.2834 -0.1676 -0.1247
  752MOL0     C 1397   2.694  10.282   0.977 -0.3018  0.7096  0.6311
  752MOL0     C 1398   2.785  10.290   0.855 -0.0599 -0.3319  0.0179
  752MOL0     C 1399   2.924  10.345   0.877  0.4153 -0.7254 -0.6556
  752MOL0     C 1400   3.043  10.248   0.918 -0.0065  0.2894  0.0540
  752MOL0     C 1401   3.178  10.332   0.930  0.2754 -0.5128 -0.0632
  752MOL0     N 1402   3.289  10.246   0.935 -0.6880 -0.0265  0.1159
  752MOL0     C 1403   3.340  10.161   0.838  0.2066 -0.5802  0.0967
  752MOL0     C 1404   3.439  10.101   0.885 -0.3899  0.2725  0.8081
  752MOL0     C 1405   3.527  10.003   0.811  0.1097 -0.7406 -0.4621
  752MOL0     C 1406   3.537   9.867   0.879  0.2209 -0.7470  0.1062
  752MOL0     C 1407   3.403   9.797   0.880  0.6985  0.0224  0.4849
  752MOL0     C 1408   3.324   9.811   1.011  0.2430  0.4185  0.1909
  752MOL0     O 1409   3.237   9.712   1.043 -0.1025  0.6327  0.0355
  752MOL0     C 1410   3.104   9.727   1.063  0.5276 -0.3186 -0.7052
  752MOL0     C 1411   3.040   9.849   1.093  1.0155 -0.1822 -0.3995
  752MOL0     C 1412   2.907   9.864   1.129  0.4138 -0.3670  0.0910
  752MOL0     C 1413   2.839   9.995   1.148  0.6057 -0.4637 -0.1322
  752MOL0     C 1414   2.838   9.738   1.137  0.4447  0.3390 -0.3699
  752MOL0     C 1415   2.692   9.728   1.165 -0.2973 -0.1677 -1.6094
  752MOL0     O 1416   2.639   9.803   1.274 -0.0101 -0.8258 -0.3037
  752MOL0     C 1417   2.516   9.770   1.326  0.2472  0.1205  0.3701
  752MOL0     C 1418   2.504   9.653   1.394 -0.0813 -0.8324  0.0408
  752MOL0     C 1419   2.384   9.616   1.456 -1.0041  0.0373 -0.1716
  752MOL0     C 1420   2.276   9.700   1.451  0.3663 -0.2079  0.6649
  752MOL0     O 1421   2.158   9.644   1.499 -0.2604  0.4481  0.1201
  752MOL0     C 1422   2.030   9.683   1.457 -0.3840  1.1241  0.4580
  752MOL0     C 1423   1.912   9.629   1.547 -0.3049 -0.9410  0.1082
  752MOL0     C 1424   1.765   9.663   1.503 -1.1150  0.4546  0.0266
  752MOL0     C 1425   1.750   9.692   1.347 -0.7233  0.6541 -0.0541
  752MOL0     C 1426   1.603   9.710   1.324  0.3702 -0.4704  0.0347
  752MOL0     C 1427   1.583   9.744   1.171  0.3539  0.8131 -0.8556
  752MOL0     C 1428   1.446   9.724   1.122  0.1703  0.4296  0.0995
  752MOL0     C 1429   1.360   9.851   1.153  0.2218 -0.5109 -0.1983
  752MOL0    Cl 1430   1.425   9.988   1.051  0.7125  0.2923  0.3744
  752MOL0     C 1431   2.285   9.826   1.389 -0.2617  0.5021 -0.5325
  752MOL0     C 1432   2.403   9.862   1.323  0.9354  0.1208  0.1798
  752MOL0     O 1433   2.630   9.642   1.109 -0.8032 -0.0861 -0.3495
  752MOL0     C 1434   2.898   9.613   1.111 -0.3652 -0.2065  0.3862
  752MOL0     C 1435   3.032   9.611   1.070 -0.2082  0.6436 -0.5051
  752MOL0     N 1436   3.470  10.151   1.011  0.1215  0.0722 -0.4035
  752MOL0     N 1437   3.375  10.239   1.047 -0.3284  1.0478 -0.3035
  752MOL0     C 1438   2.124  10.179   1.369 -0.4002  0.2631  0.0940
  752MOL0     C 1439   1.992  10.163   1.411 -0.3017  0.0847  0.2425
  752MOL0     C 1440   1.559  10.076   1.448  0.1193  0.1760  0.4050
  752MOL0     C 1441   1.486  10.146   1.338 -0.9196  1.1113 -0.9335
  752MOL0     C 1442   1.352  10.173   1.362  0.3537  0.2339 -0.0394
  752MOL0     C 1443   1.283  10.122   1.467 -0.3408 -1.3418 -0.3318
  752MOL0     O 1444   1.151  10.159   1.483 -0.2041  0.7128 -0.7907
  752MOL0     C 1445   1.062  10.050   1.526  0.1583  0.0983 -0.3120
  752MOL0     C 1446   1.043   9.944   1.413  0.0497  0.4173  0.1129
  752MOL0     C 1447   0.974  10.012   1.288  0.2577  0.3297 -0.3624
  752MOL0     C 1448   0.822  10.025   1.310  0.7217 -0.5356 -0.4376
  752MOL0     C 1449   0.772  10.074   1.185 -0.4512  0.5678 -0.3154
  752MOL0     C 1450   0.738  10.099   1.067  1.0827  0.1772 -0.7112
  752MOL0     C 1451   1.357  10.065   1.566  0.1567 -0.1074 -0.3440
  752MOL0     C 1452   1.486  10.038   1.560  0.0935  0.2684  0.5525
  752MOL0     H 1453   1.868  10.089   1.115  0.6888  0.1052  0.0455
  752MOL0     H 1454   2.116  10.044   1.060  3.7758  0.2852  2.4664
  752MOL0     H 1455   2.328  10.041   1.036  0.3964 -1.1154  0.9408
  752MOL0     H 1456   2.289  10.212   1.016 -0.0875  0.4894  0.3130
  752MOL0     H 1457   2.499  10.284   1.127  2.4336 -1.3306  0.4054
  752MOL0     H 1458   2.548  10.121   1.152 -1.2882  1.8806  2.8768
  752MOL0     H 1459   2.607  10.093   0.910  0.3012 -0.5132  1.7714
  752MOL0     H 1460   2.515  10.236   0.854 -0.7747  0.3814  0.4802
  752MOL0     H 1461   2.655  10.383   0.997  0.7779  1.2617  0.0032
  752MOL0     H 1462   2.748  10.246   1.065 -1.5583 -0.4524  0.9539
  752MOL0     H 1463   2.802  10.196   0.802 -0.3528  0.9840 -2.6243
  752MOL0     H 1464   2.731  10.351   0.781 -1.4235  1.2604  2.2115
  752MOL0     H 1465   2.951  10.380   0.777  1.2271  0.3077 -0.0869
  752MOL0     H 1466   2.917  10.425   0.951  0.1187 -0.2586 -1.1782
  752MOL0     H 1467   3.012  10.202   1.013  0.4070 -0.3523 -0.1140
  752MOL0     H 1468   3.045  10.168   0.843 -1.1997 -0.4855  0.8070
  752MOL0     H 1469   3.178  10.390   1.023  2.3302 -2.7214  1.4387
  752MOL0     H 1470   3.191  10.397   0.843  1.0819 -1.0526 -0.3551
  752MOL0     H 1471   3.308  10.163   0.734  2.5591  2.1014 -0.6920
  752MOL0     H 1472   3.501   9.981   0.708  0.6921  0.3626 -0.8677
  752MOL0     H 1473   3.629  10.044   0.810 -0.2487  0.2583  0.6917
  752MOL0     H 1474   3.570   9.893   0.980 -0.1214  3.9900 -0.7744
  752MOL0     H 1475   3.618   9.808   0.836  1.8347  1.3583  0.0941
  752MOL0     H 1476   3.416   9.690   0.859  2.7645  0.2213  0.5575
  752MOL0     H 1477   3.332   9.816   0.799  0.2191 -2.1480  0.3185
  752MOL0     H 1478   3.275   9.909   1.017  0.4902  0.6361 -1.0366
  752MOL0     H 1479   3.398   9.812   1.092 -0.0875 -3.5590  0.7374
  752MOL0     H 1480   3.088   9.946   1.083 -0.2886  0.3136 -2.6692
  752MOL0     H 1481   2.759  10.010   1.075  0.1366 -5.3041 -0.9762
  752MOL0     H 1482   2.796  10.004   1.248  0.1368  1.5251 -0.4750
  752MOL0     H 1483   2.911  10.076   1.138 -0.0429  0.6100  2.7853
  752MOL0     H 1484   2.591   9.588   1.404 -1.1584 -2.1136  1.5560
  752MOL0     H 1485   2.379   9.515   1.495  0.5557  0.4419  1.1840
  752MOL0     H 1486   2.018   9.791   1.449  3.5082  1.7305  0.6729
  752MOL0     H 1487   2.017   9.646   1.354  2.1231 -2.7465  1.2948
  752MOL0     H 1488   1.923   9.520   1.556  0.8060 -0.9378 -0.8779
  752MOL0     H 1489   1.905   9.677   1.644 -0.7379  1.7783 -1.1770
  752MOL0     H 1490   1.725   9.751   1.554 -1.9115  0.0920  0.0369
  752MOL0     H 1491   1.701   9.577   1.524  1.7844 -2.8562 -3.1458
  752MOL0     H 1492   1.804   9.782   1.317  2.0503 -0.7635  0.4054
  752MOL0     H 1493   1.790   9.616   1.280 -1.1784  1.0030 -0.7326
  752MOL0     H 1494   1.560   9.797   1.375  0.1549  0.9136 -2.3120
  752MOL0     H 1495   1.546   9.621   1.350  1.6123 -1.4136 -0.3615
  752MOL0     H 1496   1.645   9.833   1.152  2.1318 -0.0678  0.4605
  752MOL0     H 1497   1.644   9.665   1.126 -1.5346 -1.9813  1.2056
  752MOL0     H 1498   1.404   9.639   1.177  1.8311 -0.4514  0.0885
  752MOL0     H 1499   1.443   9.697   1.016 -0.5302  1.4888 -0.1644
  752MOL0     H 1500   1.371   9.877   1.258 -1.2406 -1.8675  0.3374
  752MOL0     H 1501   1.253   9.832   1.136 -0.6969  0.5024  3.6369
  752MOL0     H 1502   2.194   9.885   1.379  0.2669  1.0842 -2.2017
  752MOL0     H 1503   2.404   9.950   1.259 -0.4912  0.1880  0.2031
  752MOL0     H 1504   2.847   9.523   1.141  0.1214  0.4443  3.5107
  752MOL0     H 1505   3.088   9.521   1.046  1.7635  1.7508 -0.2727
  752MOL0     H 1506   2.197  10.201   1.446 -1.0706  2.2052  0.2372
  752MOL0     H 1507   1.964  10.205   1.507  0.0624  6.5637 -1.9436
  752MOL0     H 1508   1.530  10.181   1.245  0.5156  1.2958 -0.2200
  752MOL0     H 1509   1.299  10.225   1.283 -1.1673 -0.1272  0.7071
  752MOL0     H 1510   1.091  10.015   1.626 -1.9128  1.4317  0.8392
  752MOL0     H 1511   0.964  10.097   1.541  0.4234 -0.2383  3.6010
  752MOL0     H 1512   0.976   9.869   1.456 -0.8469  1.3478  0.3842
  752MOL0     H 1513   1.131   9.890   1.375 -3.4393 -3.1382 -4.0597
  752MOL0     H 1514   0.982   9.955   1.195  0.5666 -0.2726  0.0261
  752MOL0     H 1515   1.024  10.108   1.274  0.2390  0.2429 -1.0706
  752MOL0     H 1516   0.793  10.103   1.381 -1.3121  1.9801 -3.7544
  752MOL0     H 1517   0.787   9.925   1.336  1.3258 -0.0584  2.7367
  752MOL0     H 1518   0.702  10.103   0.966 -1.7959 -0.0554  0.2059
  752MOL0     H 1519   1.302  10.043   1.657 -0.8745  0.4916 -0.8137
  752MOL0     H 1520   1.544   9.995   1.641  1.1084  0.4462 -0.0575
  753MOL0     O 1521   6.577   8.284   6.032  0.2987  0.6741  0.1573
  753MOL0     C 1522   6.599   8.327   6.147  1.0175 -0.2391 -0.4663
  753MOL0     O 1523   6.503   8.385   6.228 -0.3421 -0.2134 -0.5490
  753MOL0     C 1524   6.381   8.380   6.171 -0.6467 -0.7063  0.0533
  753MOL0     C 1525   6.292   8.276   6.194 -0.0214  0.4047 -0.0645
  753MOL0     C 1526   6.158   8.283   6.139 -1.1584  0.2770  0.0504
  753MOL0     C 1527   6.118   8.391   6.066  0.0480  0.0196  0.8289
  753MOL0     O 1528   5.989   8.418   6.018 -0.0751 -0.2425 -0.8459
  753MOL0     C 1529   5.884   8.324   6.061 -0.4001 -0.2906 -0.4822
  753MOL0     C 1530   5.746   8.374   6.017  0.6036 -0.9426  0.4665
  753MOL0     C 1531   5.632   8.275   6.025 -0.0488  0.7046  0.0962
  753MOL0     C 1532   5.666   8.134   5.961 -0.4275 -0.2710 -0.1586
  753MOL0     C 1533   5.548   8.036   5.940  0.6906 -0.0974 -0.4884
  753MOL0     C 1534   5.429   8.117   5.877  0.3493 -0.1227  0.1850
  753MOL0     C 1535   5.342   8.026   5.790 -0.2184  0.3968  0.3716
  753MOL0     C 1536   5.276   7.906   5.855 -0.4844  0.5029 -1.3026
  753MOL0     N 1537   5.213   7.935   5.988 -0.3078 -0.0737 -0.1251
  753MOL0     C 1538   5.123   8.031   6.020 -0.3277 -0.0505 -0.4613
  753MOL0     C 1539   5.108   8.025   6.155 -0.6599  0.2908 -0.3688
  753MOL0     C 1540   5.039   8.117   6.252  0.1341 -0.5457  0.5710
  753MOL0     C 1541   4.893   8.114   6.232  0.5688 -0.9769  0.2092
  753MOL0     C 1542   4.833   8.234   6.305  0.4982  0.6117  0.7524
  753MOL0     C 1543   4.695   8.193   6.352 -0.0857 -0.6621 -0.1483
  753MOL0     O 1544   4.688   8.070   6.429  0.6957  0.2407  0.4814
  753MOL0     C 1545   4.564   8.020   6.448  0.1458 -0.0716  0.0083
  753MOL0     C 1546   4.550   7.895   6.509  0.4203 -0.3056  0.0631
  753MOL0     C 1547   4.434   7.828   6.528  0.3148  0.8622 -0.4373
  753MOL0     C 1548   4.452   7.696   6.601  0.3285  0.7254 -0.8573
  753MOL0     C 1549   4.315   7.882   6.486  0.9977  0.3120 -0.2618
  753MOL0     C 1550   4.188   7.809   6.473 -0.4990 -0.7362 -0.2719
  753MOL0     O 1551   4.077   7.887   6.478  0.6772 -0.2415 -0.5426
  753MOL0     C 1552   3.972   7.847   6.404  1.4319  0.7506  0.1768
  753MOL0     C 1553   3.855   7.910   6.449 -0.2944 -0.1223 -0.9209
  753MOL0     C 1554   3.739   7.910   6.377 -0.0682  0.4696  0.1106
  753MOL0     C 1555   3.726   7.836   6.262  0.6985  0.8852  1.0621
  753MOL0     O 1556   3.598   7.842   6.205  0.4439 -0.9852  0.4359
  753MOL0     C 1557   3.563   7.766   6.093  0.2432 -0.7760 -0.0456
  753MOL0     C 1558   3.424   7.818   6.036  0.5003  0.3607 -0.2897
  753MOL0     C 1559   3.368   7.741   5.919 -0.6329  0.5773  0.1158
  753MOL0     C 1560   3.231   7.788   5.870 -0.4098 -0.9166  0.2289
  753MOL0     C 1561   3.219   7.929   5.820  0.0676 -0.3700 -1.0440
  753MOL0     C 1562   3.083   7.942   5.745  0.1692 -0.0230  0.9134
  753MOL0     C 1563   2.965   7.975   5.840  0.7017  0.1363  0.4175
  753MOL0     C 1564   2.821   7.952   5.779 -0.1788  0.2141 -0.5940
  753MOL0    Cl 1565   2.794   8.058   5.643 -0.2153  0.4038  0.7684
  753MOL0     C 1566   3.838   7.754   6.219  0.4360  1.6917 -0.7674
  753MOL0     C 1567   3.966   7.764   6.287 -0.3145  0.8481 -0.0379
  753MOL0     O 1568   4.188   7.694   6.485  0.1180 -0.4484 -0.6590
  753MOL0     C 1569   4.317   8.019   6.446 -0.7719  0.7771  0.5442
  753MOL0     C 1570   4.436   8.082   6.421 -0.6614  0.1168  0.6750
  753MOL0     N 1571   5.189   7.920   6.201  0.0620 -0.8900 -0.0518
  753MOL0     N 1572   5.248   7.869   6.102 -0.4307 -0.3848 -0.1882
  753MOL0     C 1573   6.208   8.489   6.044 -0.6224  0.1630  0.6463
  753MOL0     C 1574   6.338   8.491   6.093  0.0749  0.5646 -1.1856
  753MOL0     C 1575   6.736   8.315   6.194  0.0672  0.5460  0.6403
  753MOL0     C 1576   6.840   8.270   6.110  0.4880 -0.3708  0.3680
  753MOL0     C 1577   6.968   8.241   6.158  0.2680 -0.0956 -0.3806
  753MOL0     C 1578   7.009   8.298   6.274 -0.0025  0.1388 -0.2936
  753MOL0     O 1579   7.136   8.297   6.320  0.5491 -0.0512 -0.5270
  753MOL0     C 1580   7.238   8.283   6.220  0.2774  0.2639  0.5902
  753MOL0     C 1581   7.366   8.335   6.279  0.4416 -0.0398  0.1894
  753MOL0     C 1582   7.387   8.481   6.252 -0.3658  0.6085 -0.4513
  753MOL0     C 1583   7.289   8.581   6.317 -0.3532 -0.5970  0.0845
  753MOL0     C 1584   7.282   8.549   6.466  1.0091  0.4355 -0.1787
  753MOL0     C 1585   7.272   8.541   6.587  0.0749  0.5278 -0.2380
  753MOL0     C 1586   6.914   8.357   6.355  0.2887 -0.1352 -0.0228
  753MOL0     C 1587   6.781   8.355   6.321  0.6979 -0.3397 -0.6249
  753MOL0     H 1588   6.328   8.191   6.251  0.1764  1.1584  0.9580
  753MOL0     H 1589   6.084   8.207   6.161 -1.7226  0.6764 -0.4290
  753MOL0     H 1590   5.911   8.230   6.011 -1.9892 -0.1068 -1.7448
  753MOL0     H 1591   5.881   8.305   6.169 -1.1900  1.6224 -0.1445
  753MOL0     H 1592   5.711   8.458   6.079 -0.4345 -1.5428  0.7143
  753MOL0     H 1593   5.749   8.423   5.919 -1.2191 -1.0734  0.3118
  753MOL0     H 1594   5.607   8.256   6.129  3.2466 -2.4455  0.5101
  753MOL0     H 1595   5.549   8.323   5.973 -0.9246  1.9154  2.4543
  753MOL0     H 1596   5.704   8.151   5.859 -0.9884  2.0908 -0.0291
  753MOL0     H 1597   5.754   8.096   6.014  0.3455  4.1130  2.1817
  753MOL0     H 1598   5.587   7.961   5.871  1.0697  0.3086 -0.7208
  753MOL0     H 1599   5.518   7.990   6.035 -1.0706  2.0613  0.0779
  753MOL0     H 1600   5.360   8.159   5.951  0.7288 -1.7325  1.4831
  753MOL0     H 1601   5.467   8.198   5.813 -1.6806  2.6996  2.2989
  753MOL0     H 1602   5.259   8.074   5.737 -0.4397 -0.6356 -0.2504
  753MOL0     H 1603   5.411   7.999   5.710  0.3639  3.5827 -0.3451
  753MOL0     H 1604   5.351   7.830   5.878 -0.2698  0.4522 -2.1269
  753MOL0     H 1605   5.211   7.853   5.784 -0.2987 -0.4833 -0.7544
  753MOL0     H 1606   5.074   8.092   5.945  0.2910  0.3985 -0.5057
  753MOL0     H 1607   5.069   8.089   6.353  0.9630 -2.8435 -0.2578
  753MOL0     H 1608   5.081   8.218   6.244 -0.8907 -0.0786  0.7960
  753MOL0     H 1609   4.852   8.018   6.264 -1.8200 -1.1343 -2.8096
  753MOL0     H 1610   4.865   8.123   6.126  0.5331 -0.2898  0.2682
  753MOL0     H 1611   4.827   8.321   6.239 -1.2940 -0.2513 -0.3129
  753MOL0     H 1612   4.881   8.258   6.400 -1.9095  3.4261  1.3912
  753MOL0     H 1613   4.627   8.182   6.267 -1.0975  1.2279  0.3657
  753MOL0     H 1614   4.659   8.286   6.397 -0.9898 -0.3188 -1.5246
  753MOL0     H 1615   4.640   7.838   6.531  0.2915 -1.1654 -1.4797
  753MOL0     H 1616   4.360   7.666   6.650  0.4757  0.8956 -0.4737
  753MOL0     H 1617   4.493   7.618   6.536 -0.7793  0.9188 -1.8121
  753MOL0     H 1618   4.519   7.711   6.686 -0.5797  0.3642 -0.0616
  753MOL0     H 1619   3.855   7.976   6.536  0.4433  2.6644 -2.8830
  753MOL0     H 1620   3.649   7.960   6.408 -0.6889 -1.7487  2.2478
  753MOL0     H 1621   3.646   7.775   6.023  1.7963 -1.4743  1.6234
  753MOL0     H 1622   3.549   7.660   6.117 -3.2839 -0.8839 -1.8565
  753MOL0     H 1623   3.349   7.814   6.115 -0.4104  0.3631 -1.1449
  753MOL0     H 1624   3.432   7.926   6.018 -2.9479  0.5623 -1.2067
  753MOL0     H 1625   3.348   7.634   5.930 -2.0651  0.9485  1.3468
  753MOL0     H 1626   3.448   7.754   5.845  0.9472  1.0651  1.8372
  753MOL0     H 1627   3.215   7.721   5.785  2.2723 -0.9073 -0.3725
  753MOL0     H 1628   3.164   7.760   5.951  1.1291 -2.7128  0.9688
  753MOL0     H 1629   3.295   7.953   5.745  0.4904  2.3765  0.1316
  753MOL0     H 1630   3.235   8.008   5.894  0.5144 -1.4233 -0.0006
  753MOL0     H 1631   3.099   8.023   5.673 -1.3842  1.6040  2.3093
  753MOL0     H 1632   3.064   7.849   5.691  1.0239 -0.3004  1.0626
  753MOL0     H 1633   2.976   8.082   5.863 -0.7417  1.5236 -4.2374
  753MOL0     H 1634   2.973   7.917   5.933  1.2409 -0.1446  0.2003
  753MOL0     H 1635   2.745   7.966   5.857 -0.4091  0.1631 -0.8071
  753MOL0     H 1636   2.806   7.847   5.755  1.8380 -0.4524  0.7867
  753MOL0     H 1637   3.837   7.688   6.133 -0.8622 -1.1669  1.2793
  753MOL0     H 1638   4.059   7.727   6.245 -0.5369  2.2389 -1.9341
  753MOL0     H 1639   4.223   8.072   6.428 -0.7747  0.7630  0.5170
  753MOL0     H 1640   4.416   8.174   6.367  1.0927  1.2207  1.7846
  753MOL0     H 1641   6.173   8.576   5.990  0.7412 -1.9508 -4.2043
  753MOL0     H 1642   6.390   8.586   6.088  1.0903  0.2185  1.3361
  753MOL0     H 1643   6.794   8.228   6.021 -1.7278  1.8308  0.3663
  753MOL0     H 1644   7.035   8.178   6.100  0.0794 -0.7343  0.0728
  753MOL0     H 1645   7.251   8.176   6.200  0.0942  0.0246  1.6872
  753MOL0     H 1646   7.221   8.326   6.121  2.4298 -1.8547 -0.7925
  753MOL0     H 1647   7.453   8.290   6.231  0.1495 -1.2375  0.7510
  753MOL0     H 1648   7.378   8.319   6.386  0.2831 -0.2361  0.1781
  753MOL0     H 1649   7.387   8.500   6.144 -1.5298 -0.0420 -0.5850
  753MOL0     H 1650   7.491   8.507   6.273 -0.6375  0.5152  1.1212
  753MOL0     H 1651   7.190   8.573   6.271 -0.5888  0.3487  0.4091
  753MOL0     H 1652   7.328   8.680   6.291  0.2923 -1.3792 -2.0795
  753MOL0     H 1653   7.268   8.516   6.691  2.3228  0.6621 -0.0770
  753MOL0     H 1654   6.961   8.411   6.437  0.4828  0.5872 -0.6008
  753MOL0     H 1655   6.717   8.400   6.397  1.7442 -0.4932  0.3650
  754MOL0     O 1656   3.926   6.702  10.323  0.1261  0.2291 -1.2590
  754MOL0     C 1657   3.948   6.817  10.356 -0.1805  0.3915  0.0752
  754MOL0     O 1658   3.854   6.906  10.376  0.2007 -0.4504 -0.2160
  754MOL0     C 1659   3.725   6.861  10.377 -0.5901 -0.3115 -0.1136
  754MOL0     C 1660   3.632   6.936  10.315  0.2543  0.0612  0.4428
  754MOL0     C 1661   3.497   6.909  10.335 -0.1526 -0.0576 -0.1471
  754MOL0     C 1662   3.447   6.807  10.423 -0.5372  0.0858  0.1161
  754MOL0     O 1663   3.309   6.777  10.425 -0.0017  0.6504  0.3029
  754MOL0     C 1664   3.259   6.751  10.557  1.0268  0.1975  0.5426
  754MOL0     C 1665   3.116   6.690  10.538 -0.2735 -0.4922 -0.6850
  754MOL0     C 1666   3.058   6.653  10.671  0.3270  0.8832  0.3969
  754MOL0     C 1667   2.898   6.646  10.654 -0.3035  0.0408  0.1178
  754MOL0     C 1668   2.852   6.609  10.796  0.3587  0.2092 -0.2432
  754MOL0     C 1669   2.700   6.599  10.791 -0.5920  0.0231  0.2348
  754MOL0     C 1670   2.657   6.495  10.885  0.8256 -0.1724 -0.1204
  754MOL0     C 1671   2.502   6.481  10.860 -0.0541  0.1249 -0.2915
  754MOL0     N 1672   2.441   6.407  10.973  0.5054  0.4083  0.3409
  754MOL0     C 1673   2.389   6.276  10.961  0.2553 -0.5580  0.5145
  754MOL0     C 1674   2.345   6.250  11.089 -0.1092 -0.1341 -0.5256
  754MOL0     C 1675   2.290   6.115  11.126 -0.0454  0.5565  0.0272
  754MOL0     C 1676   2.156   6.130  11.199  0.5757 -0.3548 -0.1278
  754MOL0     C 1677   2.164   6.177  11.352  0.1203 -0.1487  0.4425
  754MOL0     C 1678   2.037   6.151  11.434 -0.0908 -0.6483  0.0412
  754MOL0     O 1679   2.016   6.009  11.446  0.9293  0.3082 -0.2689
  754MOL0     C 1680   1.887   5.986  11.481  0.2674 -0.7031  0.1109
  754MOL0     C 1681   1.844   5.995  11.609 -0.1705 -0.5102  0.4889
  754MOL0     C 1682   1.709   5.974  11.641  0.3871  0.3436  0.1321
  754MOL0     C 1683   1.664   5.962  11.780  0.2065 -0.3998  0.1638
  754MOL0     C 1684   1.610   5.944  11.536 -0.3781 -0.3822 -0.0333
  754MOL0     C 1685   1.458   5.917  11.547  0.9485  0.0055  0.1005
  754MOL0     O 1686   1.403   5.833  11.457 -0.4227 -0.7539 -0.3686
  754MOL0     C 1687   1.284   5.776  11.478  0.0351 -1.1665  1.0600
  754MOL0     C 1688   1.278   5.638  11.483  0.3894 -1.2247 -0.3793
  754MOL0     C 1689   1.166   5.558  11.533  0.2401 -0.0997 -0.4152
  754MOL0     C 1690   1.051   5.634  11.581 -0.8966 -0.5835 -0.3314
  754MOL0     O 1691   0.942   5.571  11.637 -0.4388 -0.4005 -0.2927
  754MOL0     C 1692   0.933   5.431  11.629  0.8292 -0.1166 -0.1292
  754MOL0     C 1693   0.787   5.389  11.673 -0.5268 -0.6917  0.4714
  754MOL0     C 1694   0.684   5.423  11.558 -0.3359  0.1519 -0.0265
  754MOL0     C 1695   0.549   5.377  11.598 -0.8667 -0.3496  0.8154
  754MOL0     C 1696   0.436   5.446  11.519 -0.0162  0.1380  0.5645
  754MOL0     C 1697   0.301   5.414  11.577  0.1247  0.0717 -0.4634
  754MOL0     C 1698   0.272   5.268  11.597  0.1743 -0.0627 -0.1170
  754MOL0     C 1699   0.141   5.244  11.674 -0.3523  0.0962  0.2453
  754MOL0    Cl 1700  -0.002   5.292  11.590 -0.1534 -0.2301  0.0284
  754MOL0     C 1701   1.051   5.781  11.578  0.1812  0.2256  0.6037
  754MOL0     C 1702   1.167   5.843  11.525 -0.0547  0.5238 -0.4205
  754MOL0     O 1703   1.398   5.958  11.649  0.5083  0.1361  0.0038
  754MOL0     C 1704   1.658   5.944  11.407  0.1454 -0.5728  0.6064
  754MOL0     C 1705   1.790   5.964  11.375  0.0957  0.6117  0.7332
  754MOL0     N 1706   2.395   6.348  11.176 -0.0125  0.7010  0.1675
  754MOL0     N 1707   2.440   6.443  11.105  0.1880  0.6225 -0.6752
  754MOL0     C 1708   3.548   6.736  10.492 -0.1538  0.1931 -0.2536
  754MOL0     C 1709   3.683   6.761  10.465 -0.4824  0.0597  0.5750
  754MOL0     C 1710   4.090   6.856  10.379  0.1540  0.7057  0.6928
  754MOL0     C 1711   4.192   6.762  10.375  0.0365 -0.5193  1.0880
  754MOL0     C 1712   4.320   6.798  10.357 -0.0687 -0.4208 -0.4730
  754MOL0     C 1713   4.360   6.937  10.363  0.7421  0.9030  0.6388
  754MOL0     O 1714   4.487   6.992  10.366 -0.2565  0.6203  0.6907
  754MOL0     C 1715   4.586   6.901  10.311 -0.3620  0.9216 -0.2971
  754MOL0     C 1716   4.723   6.963  10.324  0.9111  0.3777  0.0692
  754MOL0     C 1717   4.761   6.983  10.469  0.4146  0.0724  0.7021
  754MOL0     C 1718   4.738   6.870  10.576  0.2916 -0.2509  0.6168
  754MOL0     C 1719   4.827   6.754  10.556  0.0225 -0.1279  0.0284
  754MOL0     C 1720   4.898   6.656  10.543  0.1895 -0.2251 -0.0797
  754MOL0     C 1721   4.247   7.034  10.371  0.2567 -0.5851 -0.3522
  754MOL0     C 1722   4.110   6.997  10.381 -0.5071  0.1513 -0.1467
  754MOL0     H 1723   3.653   7.012  10.241 -1.7497 -1.1806 -1.5294
  754MOL0     H 1724   3.427   6.971  10.280 -0.4926 -0.5494 -0.2721
  754MOL0     H 1725   3.328   6.688  10.614  2.9999  2.6211  1.0524
  754MOL0     H 1726   3.251   6.844  10.615 -4.2820 -0.5807  1.5360
  754MOL0     H 1727   3.048   6.764  10.494  2.8947  1.9695 -1.7525
  754MOL0     H 1728   3.112   6.596  10.481 -1.4224  0.2536 -1.8890
  754MOL0     H 1729   3.107   6.559  10.697  2.0756  1.7942  0.5703
  754MOL0     H 1730   3.092   6.722  10.748  1.4407  0.7084  0.0748
  754MOL0     H 1731   2.862   6.746  10.628  0.5915  0.7526  1.4727
  754MOL0     H 1732   2.884   6.569  10.578  2.0264  1.2767 -1.7019
  754MOL0     H 1733   2.905   6.517  10.821 -0.2672 -0.2949 -0.7624
  754MOL0     H 1734   2.886   6.686  10.867  1.3106 -1.5214  1.2620
  754MOL0     H 1735   2.660   6.700  10.805  0.7941  0.8314 -1.2254
  754MOL0     H 1736   2.667   6.567  10.691  1.1543 -1.6018  0.1379
  754MOL0     H 1737   2.702   6.399  10.856  0.4512  0.3650 -2.7700
  754MOL0     H 1738   2.688   6.528  10.984 -0.9449 -0.2563  0.4917
  754MOL0     H 1739   2.495   6.414  10.774 -0.2800 -2.8159  1.8424
  754MOL0     H 1740   2.459   6.577  10.832 -0.4254 -0.8801 -3.5709
  754MOL0     H 1741   2.377   6.220  10.869 -0.8828  3.6726 -2.1584
  754MOL0     H 1742   2.264   6.064  11.033 -0.8940  0.8797  0.0766
  754MOL0     H 1743   2.363   6.060  11.186 -0.2559 -0.3893 -0.5747
  754MOL0     H 1744   2.104   6.034  11.200 -0.8861  0.3961  1.7614
  754MOL0     H 1745   2.089   6.206  11.158  0.4346  0.4266  1.4898
  754MOL0     H 1746   2.171   6.286  11.357 -3.3788  0.1711  5.2442
  754MOL0     H 1747   2.254   6.137  11.399  1.0575  1.9736  0.5734
  754MOL0     H 1748   1.945   6.195  11.393 -0.3871 -0.9165  0.4135
  754MOL0     H 1749   2.052   6.197  11.531  3.0181 -0.4358 -0.4384
  754MOL0     H 1750   1.918   6.013  11.687 -2.4086  5.1109  1.8395
  754MOL0     H 1751   1.739   5.968  11.859 -2.3309 -0.7734  2.7943
  754MOL0     H 1752   1.597   6.044  11.807  0.6986  0.0479  0.0223
  754MOL0     H 1753   1.614   5.865  11.788 -0.9516  0.2950  1.9907
  754MOL0     H 1754   1.356   5.584  11.431  0.6141 -0.4165 -0.9046
  754MOL0     H 1755   1.173   5.450  11.538 -1.1186 -0.2972 -1.8391
  754MOL0     H 1756   0.948   5.402  11.525  1.2144 -0.0124 -0.1045
  754MOL0     H 1757   1.013   5.383  11.687  1.2321 -1.4017 -1.6875
  754MOL0     H 1758   0.787   5.282  11.697  0.8277 -1.6671 -3.1222
  754MOL0     H 1759   0.764   5.458  11.754 -3.2184 -0.4421 -0.3873
  754MOL0     H 1760   0.706   5.381  11.460  1.1089 -0.7061  0.6257
  754MOL0     H 1761   0.682   5.532  11.549  1.2010  0.2011  0.0029
  754MOL0     H 1762   0.547   5.268  11.584 -2.0478 -0.4650  1.7679
  754MOL0     H 1763   0.533   5.394  11.705  0.4913  0.3826  0.9188
  754MOL0     H 1764   0.445   5.426  11.412 -0.0638 -0.5454  0.6830
  754MOL0     H 1765   0.450   5.554  11.535  0.1776 -0.0362  1.6072
  754MOL0     H 1766   0.285   5.466  11.672 -2.1605  0.8316 -1.2065
  754MOL0     H 1767   0.223   5.451  11.509 -1.6434 -1.7044  0.5211
  754MOL0     H 1768   0.344   5.218  11.662 -2.4132 -3.5287  0.3743
  754MOL0     H 1769   0.268   5.216  11.501 -0.5951  0.1310 -0.1990
  754MOL0     H 1770   0.144   5.287  11.775 -0.2390 -1.5837  1.0036
  754MOL0     H 1771   0.132   5.136  11.691  2.8637 -0.3348 -0.1921
  754MOL0     H 1772   0.968   5.831  11.628 -0.8548 -0.7769 -0.0660
  754MOL0     H 1773   1.173   5.951  11.525 -1.0741  0.6063 -1.2606
  754MOL0     H 1774   1.589   5.936  11.323  1.3287 -3.3340 -0.2308
  754MOL0     H 1775   1.833   5.946  11.277  1.4643 -2.2906  1.7360
  754MOL0     H 1776   3.529   6.652  10.559  3.3846 -1.5092 -1.1355
  754MOL0     H 1777   3.754   6.700  10.519  0.2500  0.8966  0.5795
  754MOL0     H 1778   4.158   6.660  10.383 -1.2681 -0.1130  1.0512
  754MOL0     H 1779   4.384   6.711  10.345  0.6140 -0.8161  4.1905
  754MOL0     H 1780   4.575   6.811  10.372  0.5277  0.4776 -0.7779
  754MOL0     H 1781   4.563   6.875  10.207 -1.5238 -0.4457  0.2574
  754MOL0     H 1782   4.718   7.056  10.268  1.6585  0.3654 -0.0311
  754MOL0     H 1783   4.791   6.896  10.271 -1.4132 -1.3821 -0.8839
  754MOL0     H 1784   4.714   7.075  10.506  0.7032  0.2520  0.6354
  754MOL0     H 1785   4.869   7.002  10.478  0.7009 -2.0878  3.1199
  754MOL0     H 1786   4.635   6.836  10.586 -0.4335  1.0834 -1.5809
  754MOL0     H 1787   4.760   6.912  10.675  1.9245 -1.0814  0.6337
  754MOL0     H 1788   4.975   6.582  10.540  0.8923  0.4501  0.9181
  754MOL0     H 1789   4.279   7.137  10.377 -1.5930 -0.0034  0.3601
  754MOL0     H 1790   4.030   7.070  10.381 -1.2892 -0.6750  0.4415
  755MOL0     O 1791   7.376   7.751   3.988  0.0304 -0.4925  0.3265
  755MOL0     C 1792   7.455   7.795   4.071 -0.2140 -0.2379  0.5116
  755MOL0     O 1793   7.424   7.824   4.202  0.3690 -0.3993  0.1115
  755MOL0     C 1794   7.302   7.786   4.253 -0.0014 -0.3569 -0.7981
  755MOL0     C 1795   7.213   7.879   4.317 -0.2338 -0.7372 -0.1506
  755MOL0     C 1796   7.086   7.851   4.359 -0.1030  1.4463  0.5323
  755MOL0     C 1797   7.049   7.722   4.346 -0.6700 -0.3961  0.1881
  755MOL0     O 1798   6.931   7.693   4.404  0.1965 -0.1297 -0.8662
  755MOL0     C 1799   6.818   7.732   4.321  0.1617  0.3372 -0.1616
  755MOL0     C 1800   6.692   7.677   4.392 -0.0486 -0.4095  0.4309
  755MOL0     C 1801   6.638   7.767   4.505 -0.6027  0.4972  0.7106
  755MOL0     C 1802   6.499   7.707   4.556 -0.5957  0.4606 -0.5590
  755MOL0     C 1803   6.419   7.809   4.642 -1.3222  0.0613  0.3588
  755MOL0     C 1804   6.306   7.738   4.719 -1.1674  0.4228 -0.2381
  755MOL0     C 1805   6.226   7.843   4.801 -0.4093 -0.2855 -0.6385
  755MOL0     C 1806   6.121   7.766   4.883  0.0091  0.4918 -0.5154
  755MOL0     N 1807   6.042   7.873   4.957  0.8914 -0.0639 -0.4736
  755MOL0     C 1808   6.004   7.993   4.898 -1.1751 -0.0170  0.7417
  755MOL0     C 1809   5.928   8.055   4.993  0.4016 -0.0036  0.5823
  755MOL0     C 1810   5.883   8.198   4.975  0.6294  0.3584 -0.3161
  755MOL0     C 1811   5.976   8.308   4.926  0.2502  0.2746  0.7608
  755MOL0     C 1812   5.932   8.378   4.796 -0.1830  0.6979 -0.7856
  755MOL0     C 1813   5.786   8.437   4.793  0.4611 -0.9013 -0.5394
  755MOL0     O 1814   5.723   8.392   4.673 -0.5624  0.8627 -0.9293
  755MOL0     C 1815   5.593   8.361   4.702 -0.4349  0.5582  0.1595
  755MOL0     C 1816   5.492   8.462   4.710  0.0784 -0.0670 -0.7865
  755MOL0     C 1817   5.362   8.426   4.751 -0.6056 -0.5171 -0.1536
  755MOL0     C 1818   5.273   8.552   4.779  0.1459  0.1838 -0.5605
  755MOL0     C 1819   5.320   8.290   4.771 -0.6649  0.3104 -0.0873
  755MOL0     C 1820   5.187   8.242   4.820  0.8455 -0.5215  0.5279
  755MOL0     O 1821   5.088   8.327   4.831  0.2896  0.1505 -0.4646
  755MOL0     C 1822   4.976   8.294   4.893 -0.0579 -0.5595 -0.0094
  755MOL0     C 1823   4.932   8.168   4.932 -0.6852  0.6231 -0.3589
  755MOL0     C 1824   4.805   8.155   4.981  0.1588  0.3118  0.0833
  755MOL0     C 1825   4.728   8.265   5.018 -0.2509 -0.3749  0.3779
  755MOL0     O 1826   4.617   8.230   5.085 -0.1243  0.4954 -0.3158
  755MOL0     C 1827   4.495   8.300   5.056 -0.1602  0.3123  0.7774
  755MOL0     C 1828   4.369   8.231   5.114 -0.3253  0.7681 -0.5242
  755MOL0     C 1829   4.251   8.332   5.115 -0.4568  0.5634  0.6707
  755MOL0     C 1830   4.205   8.352   4.967 -0.3896 -0.2064 -0.1219
  755MOL0     C 1831   4.063   8.417   4.972 -0.5463  0.1105  0.4997
  755MOL0     C 1832   3.951   8.313   4.987 -0.1903  0.2944 -0.0743
  755MOL0     C 1833   3.821   8.358   4.921 -0.9342  0.5956 -0.7370
  755MOL0     C 1834   3.709   8.268   4.960  1.1101 -0.0203  0.1873
  755MOL0    Cl 1835   3.687   8.140   4.826  0.0640  0.0164 -0.2583
  755MOL0     C 1836   4.770   8.396   4.974 -0.4263  0.5198 -0.9136
  755MOL0     C 1837   4.895   8.408   4.905 -0.3502  0.9832 -0.1882
  755MOL0     O 1838   5.183   8.120   4.822  0.1661 -0.2758 -0.1132
  755MOL0     C 1839   5.423   8.193   4.743  0.0620 -0.1097 -0.4666
  755MOL0     C 1840   5.555   8.230   4.703  0.4445  0.0751  0.5791
  755MOL0     N 1841   5.924   7.971   5.104  0.6896  0.1275  0.0481
  755MOL0     N 1842   5.993   7.865   5.086 -0.4714 -0.0651 -0.7433
  755MOL0     C 1843   7.134   7.617   4.313  0.4673 -0.2176  0.1703
  755MOL0     C 1844   7.259   7.650   4.262 -0.2339 -0.3290 -0.1459
  755MOL0     C 1845   7.593   7.819   4.033  0.4015  0.5524  0.4883
  755MOL0     C 1846   7.688   7.857   4.120  0.0661  0.3911  0.3329
  755MOL0     C 1847   7.814   7.880   4.076 -0.1494 -1.2566  0.8068
  755MOL0     C 1848   7.859   7.872   3.940  0.6458 -0.3530  0.3180
  755MOL0     O 1849   7.991   7.895   3.909 -1.0111 -0.6448 -0.0733
  755MOL0     C 1850   8.039   7.870   3.769 -0.5153 -0.4454  0.7970
  755MOL0     C 1851   8.164   7.952   3.758 -0.8556 -0.8703  0.2554
  755MOL0     C 1852   8.256   7.915   3.640 -0.4497  0.4295 -0.2060
  755MOL0     C 1853   8.374   8.012   3.639  0.1797 -0.3218 -0.2663
  755MOL0     C 1854   8.462   7.965   3.529  0.2059 -0.1056 -0.1858
  755MOL0     C 1855   8.530   7.916   3.437 -0.3334  0.8569  0.2790
  755MOL0     C 1856   7.756   7.833   3.849  0.3578 -1.2789 -0.1345
  755MOL0     C 1857   7.622   7.813   3.892  0.2435  0.5587  0.9412
  755MOL0     H 1858   7.258   7.977   4.334 -1.8665 -0.0896  0.6589
  755MOL0     H 1859   7.026   7.936   4.392 -0.1555  2.3393 -1.6568
  755MOL0     H 1860   6.815   7.841   4.312  1.3107  0.4266  0.3171
  755MOL0     H 1861   6.820   7.688   4.221  1.1041  0.0668 -0.0352
  755MOL0     H 1862   6.618   7.671   4.312 -0.4256 -1.1642  0.8346
  755MOL0     H 1863   6.707   7.573   4.422 -0.8739 -1.6632 -2.9521
  755MOL0     H 1864   6.709   7.780   4.588  1.4110  2.2593 -1.1285
  755MOL0     H 1865   6.612   7.866   4.466 -2.1255 -0.3336 -0.4809
  755MOL0     H 1866   6.438   7.668   4.474 -2.8220 -0.7693  1.5495
  755MOL0     H 1867   6.519   7.627   4.628  0.0412  2.7338  1.9704
  755MOL0     H 1868   6.489   7.851   4.715 -0.1634 -2.0601  0.5422
  755MOL0     H 1869   6.395   7.889   4.570  2.5091 -0.9788 -2.4313
  755MOL0     H 1870   6.244   7.683   4.648 -1.1204  0.5895 -0.4092
  755MOL0     H 1871   6.343   7.661   4.788  3.2857  1.6730 -0.9122
  755MOL0     H 1872   6.280   7.912   4.866 -2.3349 -0.4905  1.2839
  755MOL0     H 1873   6.183   7.903   4.721  0.2996  1.4201  0.2228
  755MOL0     H 1874   6.162   7.698   4.958  0.2610  0.3921 -0.7436
  755MOL0     H 1875   6.054   7.712   4.816  2.0339 -1.4111 -1.1227
  755MOL0     H 1876   6.026   8.036   4.800 -0.5679 -2.0112 -0.0350
  755MOL0     H 1877   5.801   8.191   4.903 -0.2475  2.7438  0.3456
  755MOL0     H 1878   5.853   8.236   5.074  0.7160 -0.6782  0.1205
  755MOL0     H 1879   6.078   8.274   4.906  0.7365  1.9694  0.2102
  755MOL0     H 1880   5.989   8.384   5.003 -1.5225  3.8058 -2.1265
  755MOL0     H 1881   5.948   8.303   4.718  0.3086  1.9059 -1.8881
  755MOL0     H 1882   5.997   8.463   4.771  0.0177 -0.2260 -3.7792
  755MOL0     H 1883   5.796   8.546   4.794  0.3554 -0.8187 -3.2557
  755MOL0     H 1884   5.728   8.406   4.881 -3.5732  0.2963 -2.5674
  755MOL0     H 1885   5.510   8.569   4.700  0.6432  0.1653  1.9183
  755MOL0     H 1886   5.328   8.633   4.827  0.6828 -0.7022  0.3504
  755MOL0     H 1887   5.245   8.586   4.679  2.6492  1.1520 -0.9940
  755MOL0     H 1888   5.184   8.542   4.843  0.5998 -1.0742 -0.0914
  755MOL0     H 1889   4.992   8.079   4.916 -1.8849  0.1133 -2.3242
  755MOL0     H 1890   4.763   8.062   5.020  0.3457  0.5038  0.7629
  755MOL0     H 1891   4.511   8.400   5.097 -1.3547 -0.5395  3.5995
  755MOL0     H 1892   4.479   8.313   4.949 -1.7942 -0.6207  0.8766
  755MOL0     H 1893   4.346   8.143   5.053  0.9564 -0.4651  0.7030
  755MOL0     H 1894   4.390   8.201   5.217 -4.7350 -1.6102 -0.0641
  755MOL0     H 1895   4.288   8.428   5.152  1.9863  0.6108 -1.5541
  755MOL0     H 1896   4.173   8.294   5.181 -1.8847 -1.3174 -1.9190
  755MOL0     H 1897   4.278   8.416   4.918 -0.8449 -1.3484 -2.4199
  755MOL0     H 1898   4.205   8.259   4.910 -0.8479 -1.2424  1.4798
  755MOL0     H 1899   4.055   8.468   4.875  3.1115 -0.9148 -0.5410
  755MOL0     H 1900   4.041   8.498   5.041 -0.1297 -0.7004  1.6207
  755MOL0     H 1901   3.985   8.220   4.940 -1.3969 -0.1578 -0.0741
  755MOL0     H 1902   3.948   8.282   5.092  0.2002 -1.3233 -0.5187
  755MOL0     H 1903   3.836   8.354   4.812 -0.7119  0.8817 -0.7188
  755MOL0     H 1904   3.810   8.460   4.959 -0.6360  0.3529  0.0154
  755MOL0     H 1905   3.616   8.326   4.967 -0.4730 -1.8676 -2.9588
  755MOL0     H 1906   3.714   8.206   5.050  0.6410 -0.0891  0.1700
  755MOL0     H 1907   4.722   8.488   5.005 -1.8149 -0.0042 -1.4360
  755MOL0     H 1908   4.933   8.498   4.857 -2.1100 -0.4053 -4.7180
  755MOL0     H 1909   5.400   8.087   4.738 -0.5118 -0.0125 -0.0467
  755MOL0     H 1910   5.619   8.145   4.680  0.0554 -0.2188  0.5883
  755MOL0     H 1911   7.103   7.513   4.323 -1.1487  0.1502 -0.6878
  755MOL0     H 1912   7.321   7.569   4.225  1.4892  0.4034  1.0308
  755MOL0     H 1913   7.662   7.841   4.225 -1.4048  2.2304  0.2907
  755MOL0     H 1914   7.893   7.914   4.143  2.0481 -0.6279 -1.9395
  755MOL0     H 1915   8.062   7.767   3.740  0.3903 -1.0436  3.3837
  755MOL0     H 1916   7.970   7.908   3.693 -0.7067 -4.4506 -1.3296
  755MOL0     H 1917   8.220   7.928   3.848  2.2311 -0.0727 -1.2992
  755MOL0     H 1918   8.135   8.057   3.766  2.6760  0.0784  4.1415
  755MOL0     H 1919   8.201   7.930   3.546  0.7518  0.4935 -0.9172
  755MOL0     H 1920   8.296   7.813   3.633  4.2293  2.1176 -1.8850
  755MOL0     H 1921   8.428   8.022   3.734 -2.6512  0.1931  1.4138
  755MOL0     H 1922   8.333   8.113   3.628  2.4581  1.1135  2.7940
  755MOL0     H 1923   8.592   7.872   3.362  3.8008  0.4776  3.5349
  755MOL0     H 1924   7.773   7.806   3.746 -1.9353 -2.9570 -0.1559
  755MOL0     H 1925   7.548   7.785   3.818  1.2885 -1.6188  0.6534
  756MOL0     O 1926  10.625   3.625   7.292  0.0511 -0.0844 -0.1107
  756MOL0     C 1927  10.723   3.559   7.273 -0.3301  0.2044  0.3093
  756MOL0     O 1928  10.725   3.422   7.237 -0.1319  1.0142 -0.1484
  756MOL0     C 1929  10.608   3.351   7.250 -1.0352  0.1194  0.2683
  756MOL0     C 1930  10.494   3.376   7.186 -0.6961 -0.1934  1.2502
  756MOL0     C 1931  10.386   3.297   7.203 -0.7844 -0.2903  0.3376
  756MOL0     C 1932  10.378   3.191   7.297 -0.6044  0.3060  0.0119
  756MOL0     O 1933  10.261   3.121   7.317 -0.4641  0.9641  1.1910
  756MOL0     C 1934  10.212   3.112   7.443  0.4322  0.0840  0.5866
  756MOL0     C 1935  10.086   3.025   7.452  0.1205  0.1981 -0.5586
  756MOL0     C 1936   9.948   3.099   7.436  0.5040 -0.5344 -0.4628
  756MOL0     C 1937   9.823   3.009   7.473  0.5753 -0.0773  0.5970
  756MOL0     C 1938   9.700   3.093   7.452  0.4015 -0.5144  0.3418
  756MOL0     C 1939   9.576   3.003   7.468  0.4923  0.6678  0.5555
  756MOL0     C 1940   9.540   2.952   7.612 -0.2390  0.7320 -0.6736
  756MOL0     C 1941   9.451   2.825   7.628  0.3524  0.1214  0.6197
  756MOL0     N 1942   9.313   2.843   7.583  0.4732 -0.2478  0.3135
  756MOL0     C 1943   9.218   2.896   7.666 -0.3174 -0.2428  0.6684
  756MOL0     C 1944   9.106   2.908   7.589  0.7755  0.6427 -0.3865
  756MOL0     C 1945   8.971   2.951   7.660 -0.0252 -0.3034  0.2738
  756MOL0     C 1946   8.869   3.009   7.561  0.0740  0.6661  1.1312
  756MOL0     C 1947   8.899   3.160   7.531  0.8318  0.0667 -0.2484
  756MOL0     C 1948   9.041   3.195   7.467  0.0796  1.2672 -0.5818
  756MOL0     O 1949   9.059   3.333   7.428 -0.2210  0.3433  0.0987
  756MOL0     C 1950   9.169   3.369   7.346 -0.9124 -0.2166 -0.0538
  756MOL0     C 1951   9.191   3.501   7.325  0.9432  0.8479  0.2083
  756MOL0     C 1952   9.306   3.556   7.269  0.0662  0.1179 -0.5125
  756MOL0     C 1953   9.308   3.709   7.264  0.1967  0.6375 -0.4288
  756MOL0     C 1954   9.406   3.459   7.231  0.7319 -0.5316  0.4238
  756MOL0     C 1955   9.531   3.490   7.176  0.2296 -0.4611 -0.2692
  756MOL0     O 1956   9.632   3.411   7.196  0.1650  0.8220 -0.0921
  756MOL0     C 1957   9.753   3.430   7.138 -1.0865 -0.0361  0.4619
  756MOL0     C 1958   9.861   3.434   7.226 -0.0033  0.2085  0.2967
  756MOL0     C 1959   9.993   3.464   7.184  0.2916 -0.0089  0.9055
  756MOL0     C 1960  10.016   3.485   7.046 -0.0367 -0.1561  0.6581
  756MOL0     O 1961  10.141   3.520   7.008 -0.9471 -0.7893 -0.3800
  756MOL0     C 1962  10.187   3.652   7.038  0.7491  0.2331 -0.1187
  756MOL0     C 1963  10.326   3.684   6.975  0.4668 -0.3025  0.9040
  756MOL0     C 1964  10.393   3.798   7.050 -0.3956  0.3406  0.4004
  756MOL0     C 1965  10.535   3.809   6.995  0.2277  0.8561  0.5908
  756MOL0     C 1966  10.603   3.921   7.062  0.3075 -0.1831 -0.2436
  756MOL0     C 1967  10.746   3.940   7.019  0.8222  0.4826  0.3885
  756MOL0     C 1968  10.811   4.063   7.079 -0.5312  0.1901 -0.4508
  756MOL0     C 1969  10.944   4.089   6.999  0.2787 -0.1349 -0.4112
  756MOL0    Cl 1970  10.922   4.125   6.817 -0.3674 -0.1211 -0.4028
  756MOL0     C 1971   9.904   3.469   6.958  0.0314  0.4922 -0.0964
  756MOL0     C 1972   9.772   3.442   7.000 -0.8436 -0.2483 -0.6124
  756MOL0     O 1973   9.537   3.584   7.091 -0.3382 -0.1256 -0.1304
  756MOL0     C 1974   9.375   3.322   7.241 -0.4896  0.6734  0.2239
  756MOL0     C 1975   9.268   3.277   7.304 -0.9420 -0.4065  0.0180
  756MOL0     N 1976   9.136   2.859   7.461 -0.5763 -0.5695  0.3872
  756MOL0     N 1977   9.262   2.830   7.457 -0.9031  0.8656  0.5606
  756MOL0     C 1978  10.508   3.155   7.355 -0.6524  0.3515  1.0650
  756MOL0     C 1979  10.623   3.235   7.331  0.1183  0.1725 -0.5433
  756MOL0     C 1980  10.851   3.635   7.294 -0.8533 -1.0405  0.7173
  756MOL0     C 1981  10.862   3.760   7.365  0.2599 -0.7333 -0.5655
  756MOL0     C 1982  10.976   3.834   7.363  0.0162 -0.0607  0.6026
  756MOL0     C 1983  11.092   3.782   7.313  0.1838  0.2122 -0.0141
  756MOL0     O 1984  11.198   3.863   7.330 -0.3874 -0.3347 -0.2697
  756MOL0     C 1985  11.319   3.845   7.257 -0.0251 -0.6891 -0.7209
  756MOL0     C 1986  11.411   3.964   7.294 -0.3865 -0.6997  0.4848
  756MOL0     C 1987  11.390   4.110   7.232  0.3261 -0.6964  0.4243
  756MOL0     C 1988  11.253   4.171   7.273 -0.1448 -0.2622 -0.0846
  756MOL0     C 1989  11.232   4.297   7.201  0.1156 -0.1565 -0.1899
  756MOL0     C 1990  11.197   4.397   7.139  0.6253 -0.3743 -0.2966
  756MOL0     C 1991  11.089   3.655   7.254 -0.1261  0.6367  0.3589
  756MOL0     C 1992  10.971   3.582   7.241  0.0413  0.1062  0.8075
  756MOL0     H 1993  10.492   3.464   7.122  2.1083 -0.0558  1.1944
  756MOL0     H 1994  10.288   3.326   7.167 -0.3644  0.2162 -0.4294
  756MOL0     H 1995  10.285   3.066   7.510  0.2446  2.1617  2.3565
  756MOL0     H 1996  10.191   3.207   7.495 -0.3860  0.1842  0.0946
  756MOL0     H 1997  10.101   2.940   7.386 -0.0843 -1.2942  1.2384
  756MOL0     H 1998  10.097   2.993   7.556 -0.9119  0.5286 -0.3257
  756MOL0     H 1999   9.946   3.193   7.493 -0.1020 -1.2906  0.8107
  756MOL0     H 2000   9.933   3.122   7.330 -1.4869  2.3566  0.3355
  756MOL0     H 2001   9.817   2.917   7.413  0.9544  1.1283 -1.3889
  756MOL0     H 2002   9.845   2.989   7.578 -1.9079  0.6710  1.3284
  756MOL0     H 2003   9.701   3.168   7.531 -2.4567  0.6705 -0.6350
  756MOL0     H 2004   9.715   3.150   7.359  1.7180 -1.2298  0.0778
  756MOL0     H 2005   9.492   3.055   7.421  2.7269  2.2303 -2.0147
  756MOL0     H 2006   9.581   2.914   7.405  0.3822 -1.0333  2.8254
  756MOL0     H 2007   9.628   2.928   7.673 -0.8945  0.3421  0.1360
  756MOL0     H 2008   9.483   3.027   7.668  0.8955  1.5977 -0.6292
  756MOL0     H 2009   9.448   2.799   7.734  0.6117 -0.7887  0.4144
  756MOL0     H 2010   9.490   2.746   7.562 -2.0064  1.4022 -2.5989
  756MOL0     H 2011   9.226   2.919   7.772 -2.0916  0.1390  0.7437
  756MOL0     H 2012   8.938   2.857   7.706  0.5866 -0.8362 -0.3441
  756MOL0     H 2013   9.000   3.034   7.725  2.3880  0.1572 -1.2688
  756MOL0     H 2014   8.770   2.995   7.604 -0.6775 -0.4783 -0.8305
  756MOL0     H 2015   8.858   2.955   7.466 -1.9460  0.2047  1.5927
  756MOL0     H 2016   8.892   3.215   7.625  3.1354  1.7492 -0.9670
  756MOL0     H 2017   8.824   3.208   7.468  0.4715  0.3466  0.3935
  756MOL0     H 2018   9.067   3.142   7.375 -0.3137  0.8394 -0.4499
  756MOL0     H 2019   9.117   3.175   7.543 -0.6255  1.3390  0.1556
  756MOL0     H 2020   9.101   3.552   7.358 -0.8806 -2.6782  1.1824
  756MOL0     H 2021   9.414   3.729   7.281  0.6979 -2.2565  0.2697
  756MOL0     H 2022   9.273   3.745   7.167 -0.7805  2.6355  0.5991
  756MOL0     H 2023   9.240   3.744   7.343 -0.1576 -2.5071  0.7905
  756MOL0     H 2024   9.847   3.408   7.330 -1.7909  1.7420  0.5038
  756MOL0     H 2025  10.079   3.482   7.248  0.7168 -0.7102  0.5484
  756MOL0     H 2026  10.117   3.728   7.004  0.9982 -0.4295 -2.2759
  756MOL0     H 2027  10.202   3.656   7.147 -2.5466 -1.8779  0.5393
  756MOL0     H 2028  10.391   3.597   6.976 -2.8037 -2.9742 -0.6880
  756MOL0     H 2029  10.316   3.694   6.866 -0.6136  1.3572  1.1052
  756MOL0     H 2030  10.389   3.770   7.156 -2.6286 -0.0592  0.2548
  756MOL0     H 2031  10.333   3.888   7.038 -1.3202  0.0986  2.6639
  756MOL0     H 2032  10.582   3.716   7.029  1.7726  1.4235  0.1009
  756MOL0     H 2033  10.537   3.817   6.886  0.0470  1.2078  0.6101
  756MOL0     H 2034  10.602   3.917   7.171  0.1530  1.3482 -0.1572
  756MOL0     H 2035  10.557   4.016   7.031  0.0433 -0.1173  0.3461
  756MOL0     H 2036  10.800   3.846   7.036 -2.1952 -1.5137 -0.3709
  756MOL0     H 2037  10.742   3.957   6.911  1.5094  1.9692  0.5669
  756MOL0     H 2038  10.831   4.065   7.187  1.2154 -4.5820 -0.4791
  756MOL0     H 2039  10.737   4.138   7.046 -3.6783 -2.8851 -1.0201
  756MOL0     H 2040  11.012   4.010   7.032 -4.2857 -3.4241  2.1506
  756MOL0     H 2041  10.973   4.183   7.048  0.5408  0.5020 -1.7311
  756MOL0     H 2042   9.929   3.468   6.852 -1.0454 -0.8172 -0.3602
  756MOL0     H 2043   9.690   3.434   6.930 -1.0491  1.6650 -0.6493
  756MOL0     H 2044   9.449   3.249   7.210  0.2899  1.8529 -0.8195
  756MOL0     H 2045   9.258   3.171   7.326  0.9888 -0.7474 -0.5937
  756MOL0     H 2046  10.514   3.066   7.416 -1.7336  0.4728  1.3690
  756MOL0     H 2047  10.719   3.207   7.372  0.3071  2.8312  1.1237
  756MOL0     H 2048  10.783   3.800   7.429  1.8507  1.2025  0.3031
  756MOL0     H 2049  10.986   3.932   7.409 -1.0848  1.5327 -2.2998
  756MOL0     H 2050  11.365   3.749   7.282 -0.2724 -0.0846  2.5035
  756MOL0     H 2051  11.303   3.844   7.148 -2.2505  0.7467 -0.4642
  756MOL0     H 2052  11.514   3.936   7.270  1.6291  4.2396  2.1433
  756MOL0     H 2053  11.402   3.975   7.403 -0.0090 -4.2477  0.9806
  756MOL0     H 2054  11.399   4.099   7.124  0.4695 -0.2644  0.3915
  756MOL0     H 2055  11.469   4.174   7.271 -0.6302  0.1529  1.0119
  756MOL0     H 2056  11.265   4.191   7.380  1.6559  1.6274 -0.5814
  756MOL0     H 2057  11.177   4.098   7.245 -0.5231 -1.0576  2.6419
  756MOL0     H 2058  11.170   4.484   7.082 -0.4223 -2.5694 -3.4290
  756MOL0     H 2059  11.180   3.608   7.219  1.3083  2.0610  2.0074
  756MOL0     H 2060  10.960   3.493   7.181  1.7542 -1.6518  2.9512
  757MOL0     O 2061   5.487   3.804   9.320  0.5191 -0.0678 -0.3959
  757MOL0     C 2062   5.596   3.809   9.376  0.3403  0.0532 -0.5786
  757MOL0     O 2063   5.616   3.783   9.504  0.5101 -0.0700  0.3764
  757MOL0     C 2064   5.510   3.747   9.582 -0.8824  0.4648  0.0921
  757MOL0     C 2065   5.433   3.834   9.673 -0.4979  0.3157  1.1519
  757MOL0     C 2066   5.317   3.783   9.724  0.2988  0.6958 -0.0447
  757MOL0     C 2067   5.289   3.646   9.698  0.4127 -0.4011 -0.5551
  757MOL0     O 2068   5.180   3.597   9.764  0.0547 -0.3523  0.0770
  757MOL0     C 2069   5.073   3.549   9.675  0.1798 -0.1050 -0.4362
  757MOL0     C 2070   4.977   3.446   9.743  0.2475 -0.4867 -0.0100
  757MOL0     C 2071   4.840   3.440   9.675  0.5979  0.2824  0.1011
  757MOL0     C 2072   4.754   3.329   9.742 -0.2871  0.3686 -0.2574
  757MOL0     C 2073   4.627   3.294   9.667  0.6001 -0.2733  0.4993
  757MOL0     C 2074   4.538   3.418   9.639 -0.1497  0.3996 -0.4180
  757MOL0     C 2075   4.406   3.380   9.562 -0.6281 -0.8607 -0.2369
  757MOL0     C 2076   4.427   3.312   9.422  0.3434  0.0584 -1.0859
  757MOL0     N 2077   4.516   3.388   9.331  0.0340 -0.7109  0.4931
  757MOL0     C 2078   4.477   3.465   9.232  0.0096 -0.1285 -0.9060
  757MOL0     C 2079   4.580   3.474   9.143 -0.0544  0.4333  0.6764
  757MOL0     C 2080   4.606   3.574   9.032 -0.2446  0.4428 -0.3167
  757MOL0     C 2081   4.487   3.600   8.934  0.8056 -0.0388  0.2699
  757MOL0     C 2082   4.529   3.686   8.814  0.1940 -0.0641 -0.7153
  757MOL0     C 2083   4.418   3.732   8.731 -0.5669  0.5690 -0.6549
  757MOL0     O 2084   4.339   3.619   8.682  0.3247 -0.0073  0.6478
  757MOL0     C 2085   4.199   3.626   8.703 -0.5297  0.6998 -0.2011
  757MOL0     C 2086   4.124   3.724   8.642 -0.4850 -0.2936 -0.5402
  757MOL0     C 2087   3.987   3.730   8.661 -0.0578 -0.4634  0.2462
  757MOL0     C 2088   3.919   3.834   8.571 -0.5410 -0.3945 -0.0734
  757MOL0     C 2089   3.919   3.636   8.742  0.9392  0.0208 -0.1526
  757MOL0     C 2090   3.770   3.640   8.774 -0.0305  0.8329  0.7095
  757MOL0     O 2091   3.718   3.562   8.877 -0.5611 -0.6151 -0.1529
  757MOL0     C 2092   3.582   3.551   8.878 -0.1328 -0.3946  0.2974
  757MOL0     C 2093   3.523   3.555   9.001 -0.1974  0.4951 -0.2716
  757MOL0     C 2094   3.383   3.563   9.013 -0.2237  0.5613  0.5289
  757MOL0     C 2095   3.301   3.565   8.902 -1.2056 -0.3068  0.4354
  757MOL0     O 2096   3.165   3.550   8.923 -0.0768 -0.2412  0.7202
  757MOL0     C 2097   3.080   3.523   8.810  0.4041  0.3942 -0.1268
  757MOL0     C 2098   2.936   3.504   8.857  0.7684 -0.5469 -0.0688
  757MOL0     C 2099   2.867   3.641   8.907  0.4536  0.2686 -0.4519
  757MOL0     C 2100   2.759   3.598   9.006  0.2365  0.5274  0.7336
  757MOL0     C 2101   2.628   3.559   8.940 -0.8169 -0.8057  0.5473
  757MOL0     C 2102   2.547   3.693   8.926 -0.2614 -0.2035 -0.2040
  757MOL0     C 2103   2.397   3.665   8.921  0.3413 -1.0750 -0.5913
  757MOL0     C 2104   2.325   3.695   9.050 -0.0169 -0.9822 -0.8014
  757MOL0    Cl 2105   2.307   3.543   9.148 -0.4450  0.7094  0.1331
  757MOL0     C 2106   3.363   3.562   8.773 -0.2778  0.8347  0.2018
  757MOL0     C 2107   3.501   3.548   8.763 -0.1373 -0.1240 -0.3785
  757MOL0     O 2108   3.708   3.718   8.710 -0.1883  0.1817 -0.1080
  757MOL0     C 2109   3.992   3.523   8.785 -0.8472  0.5590 -0.8267
  757MOL0     C 2110   4.138   3.522   8.773  0.2581  1.0399  0.4532
  757MOL0     N 2111   4.689   3.402   9.195 -0.2988  0.7032  0.2508
  757MOL0     N 2112   4.647   3.350   9.306 -0.7931 -0.2148 -0.7167
  757MOL0     C 2113   5.357   3.570   9.615  0.1554  0.1942  0.4698
  757MOL0     C 2114   5.478   3.613   9.554  0.3521  0.4180 -0.2306
  757MOL0     C 2115   5.716   3.840   9.287  0.1109 -0.8514 -1.1101
  757MOL0     C 2116   5.696   3.870   9.150  0.0695 -0.2875 -0.5786
  757MOL0     C 2117   5.800   3.915   9.071  0.1016  0.0321  0.1676
  757MOL0     C 2118   5.927   3.937   9.125 -0.6432  1.0324 -0.2472
  757MOL0     O 2119   6.032   3.975   9.052  0.1261 -0.4425 -0.2759
  757MOL0     C 2120   6.033   3.934   8.916 -0.4334  0.4925  0.0376
  757MOL0     C 2121   6.155   3.977   8.831  0.2185  0.6948  0.0494
  757MOL0     C 2122   6.147   4.125   8.802  0.0047 -0.0197 -0.0092
  757MOL0     C 2123   6.284   4.191   8.778 -0.2642  0.2021  0.2261
  757MOL0     C 2124   6.356   4.121   8.667  0.9033 -0.9997 -0.0820
  757MOL0     C 2125   6.418   4.057   8.585 -0.0941 -0.2487 -0.4265
  757MOL0     C 2126   5.942   3.912   9.261  0.4538 -0.2958 -0.1728
  757MOL0     C 2127   5.842   3.867   9.349  0.0201  0.2977  0.5167
  757MOL0     H 2128   5.467   3.930   9.709 -0.3215  1.5922 -2.0235
  757MOL0     H 2129   5.249   3.849   9.776 -1.0137  0.6202 -1.5903
  757MOL0     H 2130   5.012   3.640   9.668  1.7036  0.8997 -1.2984
  757MOL0     H 2131   5.103   3.510   9.577 -0.3714 -1.5959 -0.0402
  757MOL0     H 2132   5.031   3.352   9.732  1.1800  0.0826 -0.4768
  757MOL0     H 2133   4.963   3.459   9.850  0.6285 -1.0601  0.1138
  757MOL0     H 2134   4.798   3.541   9.680 -0.2332 -0.1099  2.0023
  757MOL0     H 2135   4.853   3.430   9.567  0.3983  3.7658 -0.3623
  757MOL0     H 2136   4.817   3.240   9.744 -1.3892 -0.5165 -2.2854
  757MOL0     H 2137   4.731   3.341   9.848 -2.5448  0.4345 -0.7178
  757MOL0     H 2138   4.653   3.248   9.571  0.7359  0.4378  0.1867
  757MOL0     H 2139   4.566   3.226   9.727 -0.8814 -0.8365 -1.5362
  757MOL0     H 2140   4.508   3.471   9.730 -2.3680  1.8493 -1.8867
  757MOL0     H 2141   4.592   3.491   9.578 -0.1390 -0.1803 -1.1115
  757MOL0     H 2142   4.339   3.323   9.627  0.5741  0.8560  2.6902
  757MOL0     H 2143   4.357   3.475   9.540  0.4317 -0.7116 -2.2031
  757MOL0     H 2144   4.334   3.299   9.366 -0.3393  0.6870 -0.1280
  757MOL0     H 2145   4.458   3.210   9.444 -0.6092  0.1118  0.7053
  757MOL0     H 2146   4.391   3.531   9.242  1.9900  2.4422  0.6466
  757MOL0     H 2147   4.632   3.670   9.078  2.1158 -0.1173 -0.3407
  757MOL0     H 2148   4.686   3.532   8.971 -0.6956 -1.1806  0.1520
  757MOL0     H 2149   4.405   3.656   8.979  1.1003  1.3651 -0.8691
  757MOL0     H 2150   4.446   3.506   8.895 -1.6884  0.9395  0.3808
  757MOL0     H 2151   4.592   3.627   8.747 -1.1285  0.2389 -2.3056
  757MOL0     H 2152   4.587   3.773   8.846  1.6549  0.3025 -4.0220
  757MOL0     H 2153   4.448   3.796   8.647 -1.6761  0.8040 -0.8941
  757MOL0     H 2154   4.362   3.799   8.797 -1.6535 -2.7446  2.0318
  757MOL0     H 2155   4.177   3.802   8.588  0.7215  0.4774  1.6148
  757MOL0     H 2156   3.844   3.888   8.629  2.1372 -0.2045  3.6288
  757MOL0     H 2157   3.996   3.901   8.532 -3.0516  2.1932 -0.9411
  757MOL0     H 2158   3.880   3.774   8.488  0.5172 -1.3834  0.1081
  757MOL0     H 2159   3.585   3.565   9.090 -0.9231 -0.6607  0.3934
  757MOL0     H 2160   3.341   3.576   9.112  1.8649  1.7470  1.3327
  757MOL0     H 2161   3.089   3.605   8.738  0.4589 -0.3597 -0.9863
  757MOL0     H 2162   3.105   3.426   8.767  1.3895  0.0342  1.1817
  757MOL0     H 2163   2.873   3.465   8.776 -0.8063 -1.9580  1.7331
  757MOL0     H 2164   2.926   3.429   8.936 -0.4013 -0.9131 -0.5403
  757MOL0     H 2165   2.830   3.693   8.819 -4.2565 -1.9345 -0.1089
  757MOL0     H 2166   2.944   3.701   8.956  1.8045 -2.7115  1.3657
  757MOL0     H 2167   2.793   3.511   9.064  1.2788 -1.1482 -2.1759
  757MOL0     H 2168   2.748   3.678   9.079  0.6017  2.6793 -1.4567
  757MOL0     H 2169   2.572   3.491   9.005 -0.6792  0.5734  2.1899
  757MOL0     H 2170   2.630   3.514   8.841 -0.3794  0.4220 -0.0245
  757MOL0     H 2171   2.572   3.758   9.010  3.2708 -0.1879 -1.0961
  757MOL0     H 2172   2.582   3.737   8.832  0.5947 -3.1058 -1.3589
  757MOL0     H 2173   2.378   3.564   8.883  2.5889 -1.6601 -0.2990
  757MOL0     H 2174   2.353   3.735   8.850 -2.1948  1.8729  3.4077
  757MOL0     H 2175   2.226   3.739   9.032  0.2688  0.7639  1.4217
  757MOL0     H 2176   2.380   3.771   9.107 -2.1251 -0.8515  1.1909
  757MOL0     H 2177   3.308   3.556   8.679 -0.1368  1.8775  0.0416
  757MOL0     H 2178   3.553   3.549   8.667 -0.2587 -2.6500 -0.5170
  757MOL0     H 2179   3.939   3.443   8.835 -1.8070  2.1370  0.7844
  757MOL0     H 2180   4.202   3.442   8.809 -2.2525 -1.9738 -1.1931
  757MOL0     H 2181   5.338   3.467   9.584 -1.3926  0.7752 -0.6197
  757MOL0     H 2182   5.531   3.556   9.479 -2.1493 -2.1383 -0.2292
  757MOL0     H 2183   5.596   3.856   9.110 -1.8484  1.1302  3.2530
  757MOL0     H 2184   5.777   3.929   8.966  0.2171 -1.7912 -0.1296
  757MOL0     H 2185   6.030   3.825   8.915  0.1028  0.4697  0.3722
  757MOL0     H 2186   5.943   3.981   8.874 -3.2313 -2.0446  2.6927
  757MOL0     H 2187   6.152   3.923   8.736 -4.8809  0.9057 -0.2033
  757MOL0     H 2188   6.247   3.959   8.888  0.0457  0.5546  0.2849
  757MOL0     H 2189   6.097   4.179   8.883  0.1589  2.0523 -1.2233
  757MOL0     H 2190   6.085   4.146   8.714  0.7463  0.4467 -0.4353
  757MOL0     H 2191   6.347   4.182   8.867  1.2721 -0.6040 -0.9125
  757MOL0     H 2192   6.267   4.294   8.745 -0.7460 -0.2166 -0.8903
  757MOL0     H 2193   6.470   3.985   8.524  3.8971  3.0367 -1.4068
  757MOL0     H 2194   6.038   3.936   9.304 -0.1239 -1.3717  1.8529
  757MOL0     H 2195   5.860   3.850   9.455  1.5030  0.4842  0.3093
  758MOL0     O 2196   9.763   8.899   5.869 -0.3547  0.1959 -0.3495
  758MOL0     C 2197   9.803   8.999   5.805  0.0902  0.4585 -0.3843
  758MOL0     O 2198   9.742   9.063   5.702  0.3506  0.8394  0.4628
  758MOL0     C 2199   9.613   9.030   5.672 -0.2397 -0.7000 -0.3511
  758MOL0     C 2200   9.576   9.041   5.538 -0.4193  0.2159  0.4588
  758MOL0     C 2201   9.452   9.012   5.495  0.9577 -0.8045  0.7161
  758MOL0     C 2202   9.349   8.983   5.586 -0.6555  0.9067  0.0164
  758MOL0     O 2203   9.212   8.990   5.562 -0.3288 -0.4438  0.6170
  758MOL0     C 2204   9.162   9.005   5.424 -1.3494  1.5920 -0.4787
  758MOL0     C 2205   9.022   9.066   5.419  0.4797 -0.3067 -0.3766
  758MOL0     C 2206   8.955   9.081   5.286  0.5031 -0.1116  0.2703
  758MOL0     C 2207   8.842   9.188   5.289  0.7208  0.1517  0.0389
  758MOL0     C 2208   8.769   9.195   5.163  0.0778  1.2921  0.4266
  758MOL0     C 2209   8.656   9.286   5.159  0.3601  0.6270 -0.2390
  758MOL0     C 2210   8.613   9.329   5.021 -0.5801 -0.5885 -1.3795
  758MOL0     C 2211   8.479   9.414   5.031 -0.6712 -0.5369 -0.1677
  758MOL0     N 2212   8.364   9.322   5.034 -0.3998  0.8340  0.3560
  758MOL0     C 2213   8.288   9.301   5.145 -0.2785  0.7951  0.2013
  758MOL0     C 2214   8.171   9.237   5.094 -0.3525 -1.2391 -0.4827
  758MOL0     C 2215   8.037   9.213   5.169 -1.2928 -0.4425 -0.5159
  758MOL0     C 2216   7.984   9.349   5.211  0.1898  0.2304  0.1663
  758MOL0     C 2217   7.933   9.439   5.100 -0.4081 -0.0019 -1.0099
  758MOL0     C 2218   7.862   9.566   5.158 -0.9203 -0.4944  0.2534
  758MOL0     O 2219   7.728   9.538   5.200  0.8076  0.2898 -0.6020
  758MOL0     C 2220   7.617   9.529   5.122  0.0821 -0.3450  0.4624
  758MOL0     C 2221   7.619   9.547   4.982  0.0401  0.7994  0.4534
  758MOL0     C 2222   7.494   9.539   4.911 -0.3601 -0.1136  0.0187
  758MOL0     C 2223   7.514   9.496   4.767  0.5191  0.5790 -0.3055
  758MOL0     C 2224   7.372   9.541   4.975 -1.1371  0.4431  0.0115
  758MOL0     C 2225   7.238   9.553   4.913  0.8488 -1.3199  0.1168
  758MOL0     O 2226   7.134   9.552   5.006  0.7198  0.4871  0.6370
  758MOL0     C 2227   7.019   9.619   4.967  0.0458  0.2001 -0.5896
  758MOL0     C 2228   6.896   9.558   5.008 -0.3461 -0.3172 -0.8525
  758MOL0     C 2229   6.774   9.625   4.979 -0.0544 -0.9108 -0.4904
  758MOL0     C 2230   6.772   9.739   4.891 -0.3318  0.1692  0.6244
  758MOL0     O 2231   6.652   9.805   4.861  0.4057  0.6480 -0.3822
  758MOL0     C 2232   6.529   9.739   4.899  0.5530  0.5206 -0.2066
  758MOL0     C 2233   6.413   9.833   4.881  0.1110 -1.0673  0.6214
  758MOL0     C 2234   6.289   9.759   4.822  0.9264 -0.7958  0.6033
  758MOL0     C 2235   6.156   9.830   4.842  0.3019 -0.3181 -0.4086
  758MOL0     C 2236   6.022   9.756   4.820 -0.3009 -0.3383 -0.2634
  758MOL0     C 2237   6.025   9.658   4.706 -0.8459 -0.1036 -0.7883
  758MOL0     C 2238   5.885   9.604   4.686 -0.0850 -0.2394  1.2664
  758MOL0     C 2239   5.868   9.526   4.544 -0.8607  0.7802 -0.7442
  758MOL0    Cl 2240   5.960   9.365   4.530 -0.0671 -0.0155  0.1936
  758MOL0     C 2241   6.897   9.803   4.858 -0.2007  0.6329  0.0105
  758MOL0     C 2242   7.012   9.736   4.887  0.3048  0.8506 -0.1146
  758MOL0     O 2243   7.228   9.574   4.793 -0.0730 -0.9568 -0.5838
  758MOL0     C 2244   7.374   9.547   5.114  0.8708 -0.3001 -0.7749
  758MOL0     C 2245   7.492   9.523   5.188  0.0056 -0.0898  0.6010
  758MOL0     N 2246   8.188   9.211   4.959 -0.2853 -0.7432 -0.0475
  758MOL0     N 2247   8.304   9.256   4.928  0.0376 -0.0957 -0.1419
  758MOL0     C 2248   9.381   8.968   5.724 -0.9152  0.0865  0.8573
  758MOL0     C 2249   9.511   8.997   5.759 -0.2698  0.0558 -0.1043
  758MOL0     C 2250   9.932   9.063   5.847 -0.4936 -0.2264  0.0288
  758MOL0     C 2251   9.983   9.188   5.799  0.4087 -0.2614 -0.0593
  758MOL0     C 2252  10.098   9.249   5.842  0.1012 -0.2489  0.1222
  758MOL0     C 2253  10.181   9.185   5.927 -0.2240 -0.4589 -0.3861
  758MOL0     O 2254  10.295   9.246   5.972  0.1533  0.0042  0.3566
  758MOL0     C 2255  10.365   9.186   6.089 -0.2928  0.5586 -0.5714
  758MOL0     C 2256  10.459   9.297   6.146 -0.3717  0.4740 -0.1044
  758MOL0     C 2257  10.556   9.355   6.037 -0.2689  0.4572 -0.0196
  758MOL0     C 2258  10.538   9.509   6.036 -1.4350  0.2216 -0.4870
  758MOL0     C 2259  10.646   9.597   5.984 -0.4162  0.3606 -0.4845
  758MOL0     C 2260  10.725   9.680   5.957 -0.2893  0.3736 -0.0633
  758MOL0     C 2261  10.142   9.054   5.968  0.2513 -0.5662 -0.3182
  758MOL0     C 2262  10.018   8.998   5.930 -0.3632 -0.0127  0.7980
  758MOL0     H 2263   9.659   9.069   5.473 -0.9232  0.7096  0.0113
  758MOL0     H 2264   9.437   9.032   5.389  2.5791  1.1497  0.8020
  758MOL0     H 2265   9.221   9.071   5.359  0.4520 -1.9262 -2.7083
  758MOL0     H 2266   9.160   8.908   5.373 -1.9962  0.6398  1.3049
  758MOL0     H 2267   8.961   8.998   5.479 -0.4889  1.5118  0.8199
  758MOL0     H 2268   9.038   9.166   5.462  1.2837 -0.6362  0.1229
  758MOL0     H 2269   9.015   9.111   5.200 -1.2690 -0.0639 -0.9983
  758MOL0     H 2270   8.916   8.983   5.258  1.6297 -0.7754  0.9599
  758MOL0     H 2271   8.765   9.165   5.363  1.1569 -0.4400  0.3132
  758MOL0     H 2272   8.883   9.286   5.315 -0.3313  0.2453  1.4687
  758MOL0     H 2273   8.838   9.232   5.087  0.0434  0.6030  0.0460
  758MOL0     H 2274   8.738   9.094   5.134  0.2117  1.6761 -1.1405
  758MOL0     H 2275   8.576   9.230   5.208  0.0220 -0.2751 -1.7551
  758MOL0     H 2276   8.676   9.374   5.221  2.8905 -0.5077  0.7101
  758MOL0     H 2277   8.691   9.393   4.979  0.4433 -0.3340  0.8188
  758MOL0     H 2278   8.602   9.250   4.946 -0.9090  0.2285 -2.2220
  758MOL0     H 2279   8.468   9.471   4.938 -1.8347  1.6520  1.2273
  758MOL0     H 2280   8.479   9.492   5.108 -0.9536  0.9743 -1.6127
  758MOL0     H 2281   8.289   9.342   5.246 -2.0912 -2.3023  1.6225
  758MOL0     H 2282   7.967   9.150   5.115  0.0728 -2.2040 -0.3310
  758MOL0     H 2283   8.059   9.175   5.270  1.5215  5.2035  1.4526
  758MOL0     H 2284   8.063   9.406   5.261  3.1286 -1.9889 -1.5763
  758MOL0     H 2285   7.903   9.337   5.283  1.1900 -2.0819  0.9884
  758MOL0     H 2286   7.867   9.378   5.038  0.4943  0.0705 -2.0777
  758MOL0     H 2287   8.015   9.478   5.038  0.4342  0.6013  0.4217
  758MOL0     H 2288   7.860   9.642   5.080  3.2583 -0.0412  0.3982
  758MOL0     H 2289   7.918   9.606   5.242  0.6546 -0.9240 -0.5473
  758MOL0     H 2290   7.708   9.543   4.921 -0.8444  2.3544 -1.0348
  758MOL0     H 2291   7.449   9.565   4.712 -0.6992  0.3025  0.7487
  758MOL0     H 2292   7.619   9.505   4.736  0.7482  0.7568  0.4884
  758MOL0     H 2293   7.484   9.393   4.748 -1.7387  1.5378 -2.4639
  758MOL0     H 2294   6.892   9.466   5.065 -3.6122 -0.2805 -0.8426
  758MOL0     H 2295   6.682   9.590   5.025 -0.9739  2.1472  0.2679
  758MOL0     H 2296   6.522   9.652   4.834 -3.2218 -1.1630  2.1115
  758MOL0     H 2297   6.523   9.724   5.008 -0.2805  0.1294 -0.3062
  758MOL0     H 2298   6.387   9.890   4.971  0.8218 -2.3220  1.6611
  758MOL0     H 2299   6.437   9.911   4.808 -0.8984 -4.4707 -3.7097
  758MOL0     H 2300   6.285   9.656   4.857  2.4535 -0.6145  1.3608
  758MOL0     H 2301   6.308   9.751   4.714 -0.2516  0.7293  0.2404
  758MOL0     H 2302   6.136   9.883   4.936 -2.4776  2.0503 -2.1657
  758MOL0     H 2303   6.161   9.910   4.768 -0.1946 -0.5352 -0.6790
  758MOL0     H 2304   5.950   9.830   4.785  1.7562  1.7429 -0.3452
  758MOL0     H 2305   5.990   9.709   4.914 -0.0708 -3.6618 -1.7064
  758MOL0     H 2306   6.064   9.707   4.616  0.3601  0.1801 -0.1373
  758MOL0     H 2307   6.097   9.579   4.732 -0.1841  0.9228  0.6648
  758MOL0     H 2308   5.798   9.670   4.696 -1.0093 -1.2017 -0.0366
  758MOL0     H 2309   5.860   9.529   4.761  0.2376  0.8257  2.4630
  758MOL0     H 2310   5.897   9.594   4.464  0.2173 -1.1102 -2.0347
  758MOL0     H 2311   5.765   9.490   4.543 -0.7508  0.1394  2.0167
  758MOL0     H 2312   6.901   9.896   4.802  1.7039  0.4247 -0.2536
  758MOL0     H 2313   7.095   9.787   4.839 -0.8976 -0.8757 -4.5920
  758MOL0     H 2314   7.292   9.542   5.184  1.9102  0.3273  0.5265
  758MOL0     H 2315   7.487   9.521   5.297  0.0275  2.1658  0.6876
  758MOL0     H 2316   9.312   8.951   5.805  2.2858 -1.9046  3.4053
  758MOL0     H 2317   9.530   8.996   5.866  0.3418 -0.4978 -0.2178
  758MOL0     H 2318   9.929   9.239   5.720  2.2266  1.8833  0.0027
  758MOL0     H 2319  10.109   9.350   5.802  0.6122 -0.0225  0.8162
  758MOL0     H 2320  10.285   9.163   6.159  0.4729 -2.2811 -0.5125
  758MOL0     H 2321  10.417   9.093   6.062  0.8076  0.9600  0.0824
  758MOL0     H 2322  10.519   9.249   6.224 -2.8267  2.7067  3.4773
  758MOL0     H 2323  10.406   9.381   6.193 -2.8372 -1.5909  1.0699
  758MOL0     H 2324  10.534   9.314   5.938  0.7577  0.1333 -0.1210
  758MOL0     H 2325  10.659   9.332   6.063 -0.4574 -0.4192 -0.0162
  758MOL0     H 2326  10.536   9.537   6.142  1.8965  0.3795 -0.3621
  758MOL0     H 2327  10.441   9.527   5.989 -1.3545  2.0785 -0.0271
  758MOL0     H 2328  10.798   9.755   5.934  0.2974 -0.7501 -2.1020
  758MOL0     H 2329  10.205   8.995   6.034  0.7324  1.3277  0.9975
  758MOL0     H 2330   9.990   8.905   5.977  2.0762 -0.6711  1.0667
  759MOL0     O 2331   3.800   5.623   9.682 -0.3910  0.9267  0.4088
  759MOL0     C 2332   3.784   5.570   9.567  1.1082 -0.1669  0.5876
  759MOL0     O 2333   3.665   5.549   9.499 -0.0466  0.3547 -0.3341
  759MOL0     C 2334   3.551   5.567   9.570 -0.1507 -0.0415 -0.1203
  759MOL0     C 2335   3.472   5.453   9.575 -0.6521  0.0801  0.7723
  759MOL0     C 2336   3.351   5.459   9.647  0.4243  0.2178 -0.2216
  759MOL0     C 2337   3.311   5.578   9.722 -0.2392 -0.8514 -0.2684
  759MOL0     O 2338   3.195   5.600   9.799 -0.0598  0.3840  0.0596
  759MOL0     C 2339   3.069   5.540   9.751 -0.6415 -0.0226 -0.3853
  759MOL0     C 2340   3.012   5.625   9.636  0.2248 -0.5291 -0.5409
  759MOL0     C 2341   2.967   5.775   9.672  0.2105  0.6391 -0.3993
  759MOL0     C 2342   2.840   5.818   9.599  0.3326 -0.2213  0.4448
  759MOL0     C 2343   2.786   5.956   9.652  0.0735  0.4963  0.0684
  759MOL0     C 2344   2.704   6.031   9.546 -0.6091 -0.3055 -0.4746
  759MOL0     C 2345   2.670   6.176   9.592  0.9888  0.9625 -0.2872
  759MOL0     C 2346   2.594   6.169   9.731  0.1886 -0.0220  0.1461
  759MOL0     N 2347   2.493   6.274   9.740 -0.2744  0.4221 -0.6925
  759MOL0     C 2348   2.518   6.410   9.769  0.3479  0.3502  0.5955
  759MOL0     C 2349   2.398   6.474   9.768 -0.2357  0.9196 -0.9182
  759MOL0     C 2350   2.370   6.615   9.828  0.5967  0.0365  0.1723
  759MOL0     C 2351   2.296   6.599   9.961 -0.8872  0.1988 -0.1435
  759MOL0     C 2352   2.147   6.571   9.940  0.1897 -0.0647  0.5220
  759MOL0     C 2353   2.077   6.570  10.074 -0.6302 -0.4738 -0.0221
  759MOL0     O 2354   1.953   6.500  10.066  0.6843 -0.1264 -0.0227
  759MOL0     C 2355   1.848   6.561  10.117 -0.8711  0.0202 -0.5730
  759MOL0     C 2356   1.724   6.529  10.064  0.4028 -0.0137  0.5331
  759MOL0     C 2357   1.609   6.585  10.110  0.0617  0.4094  0.4303
  759MOL0     C 2358   1.481   6.538  10.049 -0.0940 -0.4481  0.3885
  759MOL0     C 2359   1.610   6.690  10.208 -0.4103  0.3381  0.3591
  759MOL0     C 2360   1.489   6.760  10.277 -0.2728 -0.3679 -0.2627
  759MOL0     O 2361   1.524   6.829  10.395  0.2998 -0.1402  0.8200
  759MOL0     C 2362   1.419   6.895  10.468 -0.7278  0.3442 -0.2671
  759MOL0     C 2363   1.316   6.968  10.413  0.2412 -1.2536  0.1916
  759MOL0     C 2364   1.220   7.031  10.499  0.7683  0.0154 -0.5108
  759MOL0     C 2365   1.207   7.006  10.639 -0.5757  1.5832 -0.1962
  759MOL0     O 2366   1.106   7.070  10.707  0.2453  0.2181  0.0302
  759MOL0     C 2367   1.062   7.012  10.826  0.7044 -0.6532  0.4925
  759MOL0     C 2368   0.907   7.054  10.837 -0.2548 -0.2378 -0.4867
  759MOL0     C 2369   0.886   7.084  10.989  0.3330  0.1062  0.4091
  759MOL0     C 2370   0.736   7.076  11.011 -0.0162  0.2117 -0.1626
  759MOL0     C 2371   0.676   7.124  11.144 -0.0779 -0.8220  0.2731
  759MOL0     C 2372   0.525   7.117  11.132 -0.0747  1.2116  0.5662
  759MOL0     C 2373   0.457   7.148  11.265  0.4684 -0.1958 -0.8293
  759MOL0     C 2374   0.308   7.185  11.249 -0.3538  0.2102 -0.0372
  759MOL0    Cl 2375   0.286   7.347  11.167 -0.1285  0.0069  0.0720
  759MOL0     C 2376   1.319   6.928  10.684 -0.1145 -0.0863 -0.1996
  759MOL0     C 2377   1.419   6.871  10.605 -0.1279 -0.1754  0.6674
  759MOL0     O 2378   1.378   6.752  10.227 -0.4292 -0.2806  0.1621
  759MOL0     C 2379   1.743   6.732  10.255 -0.0739  0.6671  0.3969
  759MOL0     C 2380   1.853   6.661  10.215 -0.4037 -0.4815  0.2811
  759MOL0     N 2381   2.308   6.371   9.745 -0.4566  0.2671 -0.3088
  759MOL0     N 2382   2.364   6.255   9.733  0.2697 -0.5050  0.0524
  759MOL0     C 2383   3.398   5.690   9.718 -0.1574 -0.4949  0.9112
  759MOL0     C 2384   3.517   5.674   9.646 -0.0744 -0.0221  0.1735
  759MOL0     C 2385   3.907   5.535   9.496 -0.3251  0.1485 -0.0603
  759MOL0     C 2386   4.029   5.543   9.564 -0.1877  0.9591 -0.2577
  759MOL0     C 2387   4.151   5.500   9.505  0.6034  0.5029 -0.1540
  759MOL0     C 2388   4.149   5.461   9.370 -0.1605  0.2257 -0.8005
  759MOL0     O 2389   4.260   5.405   9.306  0.2039 -0.1346  0.4177
  759MOL0     C 2390   4.375   5.488   9.311 -0.0676  0.0123 -0.2761
  759MOL0     C 2391   4.475   5.430   9.416  0.9483 -0.0780  1.8054
  759MOL0     C 2392   4.448   5.283   9.454 -0.8986  0.4053  0.1452
  759MOL0     C 2393   4.573   5.212   9.499 -1.2572  0.3664  0.5251
  759MOL0     C 2394   4.675   5.198   9.387  0.6833 -0.6788  0.3230
  759MOL0     C 2395   4.751   5.190   9.300  0.1611  0.8705  0.4933
  759MOL0     C 2396   4.031   5.448   9.300 -0.2295 -0.8023  0.2623
  759MOL0     C 2397   3.912   5.493   9.355  0.4408 -0.0173 -0.9214
  759MOL0     H 2398   3.490   5.368   9.510  1.9711  2.1634 -1.4539
  759MOL0     H 2399   3.290   5.369   9.650  0.9979 -0.2125 -1.0567
  759MOL0     H 2400   3.085   5.435   9.725  0.7541  0.1353 -0.2418
  759MOL0     H 2401   2.990   5.534   9.827 -0.8382  0.2524 -0.5662
  759MOL0     H 2402   3.081   5.631   9.552 -3.2317  1.4398 -3.5198
  759MOL0     H 2403   2.926   5.577   9.590  0.9541 -1.9054 -0.5033
  759MOL0     H 2404   2.942   5.774   9.779  1.8196 -0.9413  0.0122
  759MOL0     H 2405   3.048   5.848   9.662  3.7206 -2.2687  2.9913
  759MOL0     H 2406   2.858   5.820   9.491  3.1628 -3.7406  0.6597
  759MOL0     H 2407   2.760   5.745   9.608 -1.0026  1.0253 -0.6884
  759MOL0     H 2408   2.726   5.933   9.741 -0.5837  0.5783 -0.3470
  759MOL0     H 2409   2.856   6.029   9.694 -2.5521  1.9484  2.3135
  759MOL0     H 2410   2.763   6.043   9.454 -0.9777  0.1338 -0.6591
  759MOL0     H 2411   2.606   5.984   9.535 -1.6681  1.3439  1.2091
  759MOL0     H 2412   2.763   6.235   9.600  1.6110 -0.1301  1.0285
  759MOL0     H 2413   2.605   6.218   9.515  0.1330 -0.1147 -0.1751
  759MOL0     H 2414   2.666   6.176   9.813  2.6886 -0.6297 -1.8641
  759MOL0     H 2415   2.552   6.068   9.739  2.1464 -0.7686  1.8332
  759MOL0     H 2416   2.612   6.457   9.795 -0.3091  1.6418  0.7629
  759MOL0     H 2417   2.472   6.648   9.849  0.4891 -0.1570  1.0448
  759MOL0     H 2418   2.308   6.669   9.756 -0.7875  0.4046  1.5694
  759MOL0     H 2419   2.313   6.687  10.022  2.2366 -0.4535  0.1282
  759MOL0     H 2420   2.345   6.519  10.018  0.0733  0.2248 -0.8900
  759MOL0     H 2421   2.136   6.468   9.905 -0.9221  0.4787 -0.7748
  759MOL0     H 2422   2.094   6.633   9.868  1.8223  0.1974 -0.5108
  759MOL0     H 2423   2.064   6.677  10.092 -1.3924 -0.2548 -1.6449
  759MOL0     H 2424   2.128   6.523  10.158  1.4339  1.2186 -0.2568
  759MOL0     H 2425   1.723   6.464   9.977 -0.9592  0.3261  0.2743
  759MOL0     H 2426   1.402   6.514  10.120 -1.4596 -2.0618 -1.5887
  759MOL0     H 2427   1.455   6.614   9.975  3.0861  0.6417  0.2260
  759MOL0     H 2428   1.502   6.447   9.992 -0.1172 -0.2826  0.1127
  759MOL0     H 2429   1.317   6.989  10.306  3.6017 -0.6198  0.2377
  759MOL0     H 2430   1.151   7.098  10.448  1.6553  0.6386 -0.9268
  759MOL0     H 2431   1.062   6.902  10.821 -3.2097 -1.0242  3.6107
  759MOL0     H 2432   1.122   7.046  10.910 -2.3204  0.0311  2.5306
  759MOL0     H 2433   0.882   7.140  10.776 -0.4811  0.6026  0.7488
  759MOL0     H 2434   0.850   6.964  10.811 -0.6441 -0.2201  0.2661
  759MOL0     H 2435   0.921   7.185  11.012  1.7276 -0.2855  0.1042
  759MOL0     H 2436   0.948   7.013  11.045  0.4801  1.2007  1.6682
  759MOL0     H 2437   0.690   7.137  10.932 -2.0398 -0.9596  0.0591
  759MOL0     H 2438   0.715   6.972  10.988 -2.0801  1.2157 -3.5300
  759MOL0     H 2439   0.706   7.225  11.175  3.0045 -1.7235  0.5655
  759MOL0     H 2440   0.710   7.060  11.226  0.6697  0.2079  0.7949
  759MOL0     H 2441   0.493   7.191  11.058  0.7480 -0.1721 -1.2678
  759MOL0     H 2442   0.497   7.020  11.091 -1.4389  0.9706  1.9820
  759MOL0     H 2443   0.501   7.239  11.308 -2.1835  1.6800 -1.8294
  759MOL0     H 2444   0.473   7.069  11.339 -1.3518  0.1799  0.0084
  759MOL0     H 2445   0.256   7.197  11.345  1.1780 -0.8872  0.9806
  759MOL0     H 2446   0.260   7.106  11.190  0.1064  1.1278 -1.7003
  759MOL0     H 2447   1.330   6.923  10.791 -2.5157 -0.0617  0.1125
  759MOL0     H 2448   1.512   6.835  10.648  2.0388  1.4643 -2.2692
  759MOL0     H 2449   1.742   6.798  10.341  1.8356  0.2493  0.7994
  759MOL0     H 2450   1.949   6.693  10.254 -0.4063  1.5822 -1.2134
  759MOL0     H 2451   3.375   5.784   9.766 -3.2044  0.1064 -1.4180
  759MOL0     H 2452   3.585   5.759   9.646 -1.0995  0.9198 -2.7410
  759MOL0     H 2453   4.031   5.558   9.672  0.4803  0.3344 -0.1830
  759MOL0     H 2454   4.245   5.489   9.557  0.9324 -0.0140 -0.8403
  759MOL0     H 2455   4.415   5.478   9.210 -0.1913  2.7633 -0.6549
  759MOL0     H 2456   4.356   5.592   9.336  1.9038 -0.3583  3.7074
  759MOL0     H 2457   4.466   5.492   9.506  2.3339  0.6542  1.4700
  759MOL0     H 2458   4.577   5.448   9.381 -0.0029  4.4171  0.6564
  759MOL0     H 2459   4.401   5.227   9.372  2.9305 -0.4484 -1.6695
  759MOL0     H 2460   4.380   5.282   9.540 -0.5670  0.0679  0.4068
  759MOL0     H 2461   4.544   5.111   9.530 -0.5305 -0.4754 -1.3604
  759MOL0     H 2462   4.623   5.255   9.586 -0.6547 -1.0570  0.9164
  759MOL0     H 2463   4.820   5.179   9.218 -1.3915 -1.8742 -0.5901
  759MOL0     H 2464   4.031   5.422   9.194 -1.1505  0.7270 -0.1411
  759MOL0     H 2465   3.823   5.499   9.294  0.2029 -0.2536 -0.6040
  760MOL0     O 2466   8.187   4.083   9.836 -0.0544  1.0387 -0.4739
  760MOL0     C 2467   8.307   4.107   9.843 -0.0810 -0.1111  0.0646
  760MOL0     O 2468   8.370   4.176   9.946  0.6799  0.7588 -0.1697
  760MOL0     C 2469   8.321   4.157  10.079  0.1964 -0.4564  0.9624
  760MOL0     C 2470   8.282   4.273  10.145 -0.6556 -0.2579 -0.1307
  760MOL0     C 2471   8.246   4.259  10.279 -0.2951 -0.9363 -0.1562
  760MOL0     C 2472   8.233   4.137  10.343  0.1388 -0.1104  0.1557
  760MOL0     O 2473   8.170   4.125  10.461  0.2946 -0.3604  0.0334
  760MOL0     C 2474   8.072   4.230  10.490  1.2049  1.1038 -0.0232
  760MOL0     C 2475   7.980   4.182  10.605 -0.5797  0.0918 -0.1595
  760MOL0     C 2476   8.052   4.187  10.738 -0.5839  0.2783 -0.9574
  760MOL0     C 2477   7.946   4.145  10.844  0.5865 -0.0798 -1.0133
  760MOL0     C 2478   8.011   4.139  10.989 -0.2513 -0.6551  0.6588
  760MOL0     C 2479   7.911   4.090  11.102 -0.0096 -0.7161 -0.2367
  760MOL0     C 2480   7.888   3.931  11.075  0.3325  0.0612  0.4835
  760MOL0     C 2481   7.817   3.859  11.185  0.0135  0.1361 -0.0867
  760MOL0     N 2482   7.670   3.870  11.154  0.0563  0.2623 -0.3315
  760MOL0     C 2483   7.593   3.763  11.118  0.1140 -0.0402  0.2620
  760MOL0     C 2484   7.465   3.807  11.093 -0.6135  0.5940 -0.1568
  760MOL0     C 2485   7.347   3.721  11.043 -0.0853 -0.2970 -0.1484
  760MOL0     C 2486   7.344   3.665  10.905 -0.6597  0.0533  1.0032
  760MOL0     C 2487   7.345   3.779  10.803  0.3190 -0.3407 -0.2410
  760MOL0     C 2488   7.242   3.888  10.837  0.3006  0.2177  0.6249
  760MOL0     O 2489   7.110   3.828  10.835  0.1740  0.0206 -0.5641
  760MOL0     C 2490   6.998   3.906  10.868  0.5676  0.3706  0.1725
  760MOL0     C 2491   7.002   4.008  10.961  0.3213  0.8031 -0.3404
  760MOL0     C 2492   6.883   4.070  10.992  0.7697 -0.2624 -0.1000
  760MOL0     C 2493   6.885   4.175  11.099  0.7692  0.2080  0.2282
  760MOL0     C 2494   6.748   4.025  10.938 -0.1353  0.7723  0.5140
  760MOL0     C 2495   6.606   4.072  10.969 -0.3282 -0.1434  0.3340
  760MOL0     O 2496   6.509   4.001  10.903 -0.0338 -0.2799 -0.3165
  760MOL0     C 2497   6.383   4.009  10.947 -0.1404 -0.3591 -0.5051
  760MOL0     C 2498   6.350   4.009  11.085  0.1326 -1.0734 -0.1571
  760MOL0     C 2499   6.215   4.008  11.121 -0.2486 -0.2958 -0.4831
  760MOL0     C 2500   6.113   3.996  11.032 -0.4657 -0.3064 -0.5654
  760MOL0     O 2501   5.986   3.993  11.085  0.5985  0.6735 -0.0057
  760MOL0     C 2502   5.870   4.017  11.006 -0.1883  0.7668 -0.5321
  760MOL0     C 2503   5.758   3.988  11.099  0.1303 -0.4070  0.0542
  760MOL0     C 2504   5.642   4.084  11.068  0.7086  0.1696  0.4395
  760MOL0     C 2505   5.500   4.030  11.094  1.1175  0.3396  0.4175
  760MOL0     C 2506   5.424   4.126  11.191  0.0642 -0.0448  0.1069
  760MOL0     C 2507   5.301   4.049  11.219  0.4843  0.8594 -0.7569
  760MOL0     C 2508   5.224   4.128  11.335 -0.7644 -0.1615 -0.4543
  760MOL0     C 2509   5.121   4.044  11.401  0.4240  1.0341 -0.3390
  760MOL0    Cl 2510   4.995   4.005  11.281 -0.1950 -0.1739 -0.2813
  760MOL0     C 2511   6.145   3.997  10.896 -0.2679  0.0664  1.0651
  760MOL0     C 2512   6.277   4.005  10.857 -0.3412 -0.2113 -0.7775
  760MOL0     O 2513   6.590   4.167  11.049 -0.4252 -0.7117 -0.2580
  760MOL0     C 2514   6.764   3.926  10.831  0.6468 -0.1813 -1.5156
  760MOL0     C 2515   6.886   3.871  10.806  0.5281  0.4542  0.0337
  760MOL0     N 2516   7.466   3.941  11.134 -0.3247 -0.4624  0.1375
  760MOL0     N 2517   7.588   3.978  11.166  0.4310  0.1941  0.1088
  760MOL0     C 2518   8.267   4.023  10.271  0.6606 -0.0914  0.8781
  760MOL0     C 2519   8.302   4.034  10.146 -0.5467 -0.1234  0.1633
  760MOL0     C 2520   8.389   4.073   9.727  0.3486  0.3246  0.0838
  760MOL0     C 2521   8.515   4.010   9.743  0.7963 -0.0990  0.3234
  760MOL0     C 2522   8.597   3.989   9.636 -0.8474  0.0630  0.5019
  760MOL0     C 2523   8.573   4.041   9.509  0.0588  0.2863  0.7506
  760MOL0     O 2524   8.671   4.028   9.414  0.4989  0.1647  0.7966
  760MOL0     C 2525   8.628   3.999   9.282  0.1305 -0.4475 -0.0901
  760MOL0     C 2526   8.726   3.911   9.216  0.0533  0.1152 -0.1901
  760MOL0     C 2527   8.850   3.998   9.177 -1.2510 -0.1035  0.2577
  760MOL0     C 2528   8.955   3.993   9.285 -0.1905  0.6774  0.2422
  760MOL0     C 2529   9.053   3.883   9.267  1.0442  0.5273 -0.2133
  760MOL0     C 2530   9.146   3.802   9.253 -0.5346  0.2229 -0.3446
  760MOL0     C 2531   8.455   4.115   9.499  0.8012 -0.0244 -0.4633
  760MOL0     C 2532   8.361   4.128   9.603 -0.4280  0.8556 -0.3783
  760MOL0     H 2533   8.293   4.370  10.098  6.9309  0.2361  1.3977
  760MOL0     H 2534   8.224   4.355  10.326  2.0546  0.3591 -1.5144
  760MOL0     H 2535   8.121   4.321  10.526  4.9754 -1.5589  2.4001
  760MOL0     H 2536   8.007   4.254  10.405 -0.2823  0.0615  0.7835
  760MOL0     H 2537   7.893   4.248  10.602 -0.9109 -0.2343  1.6108
  760MOL0     H 2538   7.964   4.076  10.581 -1.0069  0.1636 -0.2052
  760MOL0     H 2539   8.142   4.125  10.745 -0.3451  0.7572  0.6114
  760MOL0     H 2540   8.081   4.291  10.755  0.5234 -0.0806 -0.5669
  760MOL0     H 2541   7.871   4.225  10.842  0.5517 -0.0526  0.3840
  760MOL0     H 2542   7.915   4.042  10.825  0.2598 -0.0887 -0.4575
  760MOL0     H 2543   8.096   4.069  10.982  0.6826  0.6030 -1.4299
  760MOL0     H 2544   8.062   4.234  11.005  2.2642 -1.3758 -2.1868
  760MOL0     H 2545   7.959   4.117  11.196 -2.1132 -1.9701  1.2678
  760MOL0     H 2546   7.820   4.150  11.091  0.4545  0.1363  0.4348
  760MOL0     H 2547   7.841   3.915  10.977  0.5743 -1.5017  0.6088
  760MOL0     H 2548   7.987   3.885  11.071  0.5408  0.4844  0.7027
  760MOL0     H 2549   7.822   3.908  11.283 -1.1779 -2.8787  1.6243
  760MOL0     H 2550   7.850   3.755  11.197  0.3791  0.2313 -0.2721
  760MOL0     H 2551   7.638   3.667  11.096 -0.6922 -0.0804 -1.4433
  760MOL0     H 2552   7.329   3.638  11.111 -1.4269  1.0053  1.1552
  760MOL0     H 2553   7.263   3.790  11.053  2.4958  3.4420 -1.7643
  760MOL0     H 2554   7.249   3.611  10.896 -1.7720  2.1393 -0.6766
  760MOL0     H 2555   7.428   3.607  10.867  0.6954  3.8411 -2.4725
  760MOL0     H 2556   7.333   3.741  10.701  0.3793 -1.0245  0.0023
  760MOL0     H 2557   7.445   3.823  10.807  0.9653 -1.3650 -2.8799
  760MOL0     H 2558   7.258   3.969  10.766  0.9895  1.1003  1.7414
  760MOL0     H 2559   7.264   3.944  10.928  0.7118  1.8423 -0.4395
  760MOL0     H 2560   7.091   4.056  10.999  0.0006  1.8598 -0.8893
  760MOL0     H 2561   6.902   4.269  11.046 -2.6903 -1.2207 -3.9893
  760MOL0     H 2562   6.793   4.191  11.156  0.3925 -0.8787 -0.0614
  760MOL0     H 2563   6.963   4.143  11.169  0.6161 -0.5148  0.0704
  760MOL0     H 2564   6.428   3.980  11.156 -0.0810 -1.7129 -0.1815
  760MOL0     H 2565   6.193   4.007  11.227  1.0539 -1.2914 -0.1893
  760MOL0     H 2566   5.868   4.122  10.973 -3.6034  0.3597 -2.0390
  760MOL0     H 2567   5.863   3.949  10.921 -1.0646 -2.6580  2.0815
  760MOL0     H 2568   5.721   3.885  11.092 -0.7139 -0.0328 -1.6365
  760MOL0     H 2569   5.780   3.993  11.206 -1.9117 -1.2694  0.5616
  760MOL0     H 2570   5.643   4.101  10.959  3.1779  0.2500  0.4143
  760MOL0     H 2571   5.657   4.175  11.127  0.6596  0.0207  0.6823
  760MOL0     H 2572   5.452   4.010  10.998 -0.1070 -3.5555  1.6754
  760MOL0     H 2573   5.513   3.934  11.144 -1.9931  0.0290  0.8170
  760MOL0     H 2574   5.405   4.227  11.152  0.5837  0.8144  1.9660
  760MOL0     H 2575   5.489   4.151  11.275 -1.4326  2.3938  0.6274
  760MOL0     H 2576   5.242   4.037  11.128  1.3049  0.8191 -1.3009
  760MOL0     H 2577   5.317   3.945  11.249 -2.3931  0.4686 -0.3541
  760MOL0     H 2578   5.173   4.213  11.290 -1.0712 -0.0711  0.0651
  760MOL0     H 2579   5.296   4.154  11.413  0.4571  0.7722 -1.8344
  760MOL0     H 2580   5.081   4.109  11.479 -0.4389  2.6090 -2.0066
  760MOL0     H 2581   5.168   3.956  11.446 -0.0042  2.0228  2.1574
  760MOL0     H 2582   6.075   3.995  10.813  0.6187  0.3881  0.2939
  760MOL0     H 2583   6.303   4.005  10.752  1.4077  0.7478 -0.3809
  760MOL0     H 2584   6.672   3.878  10.799  1.6227 -1.8877 -1.9179
  760MOL0     H 2585   6.893   3.787  10.738  1.5125 -0.6384  1.4343
  760MOL0     H 2586   8.253   3.921  10.307  0.5565 -1.6560 -3.0864
  760MOL0     H 2587   8.333   3.946  10.090 -0.7631 -0.3849  0.4483
  760MOL0     H 2588   8.531   3.967   9.841 -2.5861 -1.0813  0.5669
  760MOL0     H 2589   8.697   3.950   9.648 -0.9898 -0.1728  0.9485
  760MOL0     H 2590   8.532   3.948   9.281 -0.0234 -0.1772  0.4980
  760MOL0     H 2591   8.621   4.080   9.209 -0.1650 -0.8260 -0.4849
  760MOL0     H 2592   8.687   3.864   9.125 -1.1744  0.6385  0.0619
  760MOL0     H 2593   8.753   3.834   9.289 -0.9092 -0.7411 -0.7142
  760MOL0     H 2594   8.839   4.101   9.144 -0.3745  0.4883  1.6965
  760MOL0     H 2595   8.891   3.957   9.084 -2.3215  0.9418 -0.7120
  760MOL0     H 2596   8.917   3.990   9.388  2.7662  0.6310  1.4237
  760MOL0     H 2597   9.021   4.080   9.277  0.2081  0.5363  1.6951
  760MOL0     H 2598   9.219   3.728   9.231 -1.0888 -0.6336  0.6131
  760MOL0     H 2599   8.426   4.181   9.417 -0.0792  0.3590  0.1495
  760MOL0     H 2600   8.271   4.188   9.599 -1.9751 -1.1915  1.3185
  761MOL0     O 2601   7.732   2.879   3.779  0.1462  0.0250 -0.8788
  761MOL0     C 2602   7.784   2.968   3.721  0.1150 -0.8602 -0.3149
  761MOL0     O 2603   7.717   3.081   3.665 -0.0384 -0.0709 -0.1073
  761MOL0     C 2604   7.588   3.107   3.696  0.0878  0.1091  0.0147
  761MOL0     C 2605   7.552   3.153   3.825  0.6619 -0.3773 -0.2943
  761MOL0     C 2606   7.419   3.168   3.860 -0.4451  0.5682 -0.1287
  761MOL0     C 2607   7.311   3.138   3.771  0.0745  0.0377 -0.1865
  761MOL0     O 2608   7.176   3.149   3.798  0.0774  0.0410  0.1176
  761MOL0     C 2609   7.121   3.251   3.876 -0.3499  0.0157  0.0197
  761MOL0     C 2610   6.977   3.271   3.847 -0.0023 -0.6450  0.3051
  761MOL0     C 2611   6.917   3.393   3.909 -1.3136 -0.6654 -0.2164
  761MOL0     C 2612   6.766   3.404   3.873 -0.3848 -0.4701  0.2457
  761MOL0     C 2613   6.686   3.499   3.960  0.8190  0.1406  0.3714
  761MOL0     C 2614   6.560   3.544   3.900  0.5602 -0.4565  1.1589
  761MOL0     C 2615   6.482   3.641   3.986  0.4273  0.3323  0.7349
  761MOL0     C 2616   6.346   3.657   3.921 -0.1169 -0.0439 -1.2474
  761MOL0     N 2617   6.254   3.726   4.012  0.0936  0.7158  0.6316
  761MOL0     C 2618   6.181   3.670   4.108  0.5583  0.4589  0.1990
  761MOL0     C 2619   6.133   3.779   4.174  0.0889 -0.1500 -0.4328
  761MOL0     C 2620   6.056   3.779   4.312 -0.7672  0.3673 -0.2144
  761MOL0     C 2621   5.907   3.780   4.286  0.4176  0.2876 -0.7677
  761MOL0     C 2622   5.851   3.915   4.233  0.1800 -0.6242 -0.1959
  761MOL0     C 2623   5.801   3.900   4.087  0.5129 -0.2403  0.7490
  761MOL0     O 2624   5.682   3.815   4.078 -0.5825 -0.7671  0.7389
  761MOL0     C 2625   5.564   3.877   4.047  0.0189  0.2412  0.4429
  761MOL0     C 2626   5.458   3.833   4.120  0.7215 -0.2880 -0.1741
  761MOL0     C 2627   5.331   3.878   4.089 -0.0016  0.0325 -0.0343
  761MOL0     C 2628   5.224   3.799   4.166  0.3066 -0.2538 -0.6856
  761MOL0     C 2629   5.311   3.970   3.982  0.5530 -0.6119 -0.0667
  761MOL0     C 2630   5.183   4.021   3.952 -0.0205  0.0036 -0.1274
  761MOL0     O 2631   5.119   3.965   3.843  0.5437  0.9573  0.0378
  761MOL0     C 2632   4.985   3.970   3.847  0.0484 -0.7009 -0.1880
  761MOL0     C 2633   4.914   4.084   3.839 -0.0216 -0.5741  0.4985
  761MOL0     C 2634   4.774   4.078   3.817 -0.5288 -0.0514  0.7539
  761MOL0     C 2635   4.723   3.950   3.803  0.4694  0.4315 -0.6758
  761MOL0     O 2636   4.582   3.927   3.773  0.2351 -0.1252 -0.4598
  761MOL0     C 2637   4.492   4.040   3.772 -0.5535  0.0166 -0.5146
  761MOL0     C 2638   4.346   3.975   3.776  0.3945 -0.0579 -0.4014
  761MOL0     C 2639   4.246   4.088   3.819  1.3057  0.3325 -0.6722
  761MOL0     C 2640   4.099   4.030   3.821 -0.6862 -0.0412  0.1132
  761MOL0     C 2641   4.004   4.136   3.870 -0.0702  0.6524  0.2068
  761MOL0     C 2642   3.861   4.093   3.857  0.2587 -0.5936 -0.1686
  761MOL0     C 2643   3.815   4.073   3.714  0.3402 -0.4160  0.9736
  761MOL0     C 2644   3.667   4.089   3.724  0.2684  0.5983 -0.2362
  761MOL0    Cl 2645   3.602   4.097   3.560 -0.2008  0.1275  0.1719
  761MOL0     C 2646   4.796   3.839   3.826  0.8298 -0.1156 -0.2244
  761MOL0     C 2647   4.925   3.846   3.843  0.0591 -0.0174  0.0221
  761MOL0     O 2648   5.143   4.110   4.022  0.0295 -0.3695  0.5145
  761MOL0     C 2649   5.420   4.009   3.906  0.3986 -0.2368  0.1430
  761MOL0     C 2650   5.549   3.969   3.939  0.5156  0.2281  0.0564
  761MOL0     N 2651   6.173   3.896   4.111 -0.3764  0.2136 -0.6450
  761MOL0     N 2652   6.254   3.856   4.020 -0.3142  0.6604 -0.6452
  761MOL0     C 2653   7.347   3.107   3.641 -0.2024 -1.3105 -1.2853
  761MOL0     C 2654   7.482   3.091   3.609 -0.2040 -0.9412 -0.0172
  761MOL0     C 2655   7.931   2.970   3.702 -0.2991  0.0655 -0.2502
  761MOL0     C 2656   8.003   2.845   3.686 -0.0874 -0.0750  0.5217
  761MOL0     C 2657   8.147   2.852   3.673  0.0393  0.2799  0.6691
  761MOL0     C 2658   8.223   2.969   3.682  0.4257 -0.4009  0.1176
  761MOL0     O 2659   8.361   2.983   3.682  0.2064 -0.5468  0.5150
  761MOL0     C 2660   8.439   2.869   3.635 -0.8886  0.3710 -0.7159
  761MOL0     C 2661   8.574   2.923   3.584 -0.0758  0.6853  0.7458
  761MOL0     C 2662   8.676   2.943   3.697  0.2015 -0.4252  0.0683
  761MOL0     C 2663   8.768   3.059   3.656  0.8335  0.7452  0.4525
  761MOL0     C 2664   8.883   3.028   3.574 -0.3002  0.0164 -0.4575
  761MOL0     C 2665   8.989   3.024   3.513 -0.1693 -0.4704 -0.4222
  761MOL0     C 2666   8.144   3.087   3.695 -0.0055  0.2275  0.4983
  761MOL0     C 2667   8.004   3.086   3.705  0.4312 -0.4345  0.1017
  761MOL0     H 2668   7.635   3.174   3.892 -1.4089 -0.5529  2.5219
  761MOL0     H 2669   7.401   3.205   3.961  0.4717  1.6613 -0.3475
  761MOL0     H 2670   7.139   3.220   3.979 -2.8207 -0.2144  0.4592
  761MOL0     H 2671   7.177   3.341   3.850  1.3843 -1.4203 -1.4394
  761MOL0     H 2672   6.979   3.282   3.738  1.4098  0.4409  0.4168
  761MOL0     H 2673   6.919   3.182   3.877 -1.9025  0.2536 -0.5340
  761MOL0     H 2674   6.928   3.397   4.017 -1.7090 -0.9211 -0.1645
  761MOL0     H 2675   6.957   3.488   3.874 -2.6011  1.2250  3.0502
  761MOL0     H 2676   6.743   3.436   3.771 -2.3389 -0.6896  0.5710
  761MOL0     H 2677   6.713   3.308   3.883 -1.3893 -0.0202 -0.5950
  761MOL0     H 2678   6.669   3.444   4.053  2.2242 -0.8289  0.0941
  761MOL0     H 2679   6.743   3.590   3.983  1.8922 -0.2245 -0.6900
  761MOL0     H 2680   6.571   3.597   3.805 -1.6899  0.8348  1.5597
  761MOL0     H 2681   6.499   3.454   3.896  0.4124 -0.2992 -0.5478
  761MOL0     H 2682   6.466   3.609   4.090 -3.5387  0.9060  0.4699
  761MOL0     H 2683   6.537   3.734   4.004  0.7586 -0.3158  3.5257
  761MOL0     H 2684   6.298   3.559   3.909  1.0790 -2.0000  5.5087
  761MOL0     H 2685   6.349   3.715   3.829 -1.6530 -0.4450 -1.5893
  761MOL0     H 2686   6.169   3.564   4.131 -2.1095 -0.2564 -3.4536
  761MOL0     H 2687   6.077   3.691   4.373 -1.2309  1.6719  1.9104
  761MOL0     H 2688   6.087   3.856   4.382  0.3157 -0.7717  0.6052
  761MOL0     H 2689   5.860   3.776   4.384 -1.0020  1.0457 -1.3884
  761MOL0     H 2690   5.878   3.695   4.224 -2.3288 -0.1713  0.9954
  761MOL0     H 2691   5.922   3.997   4.250 -1.3661  0.7376  0.0270
  761MOL0     H 2692   5.762   3.939   4.293 -1.3204 -1.8269 -1.8237
  761MOL0     H 2693   5.891   3.865   4.036  1.6008  0.6326  1.9959
  761MOL0     H 2694   5.782   3.992   4.031 -1.9640 -1.4376 -0.5256
  761MOL0     H 2695   5.478   3.758   4.195  0.1751  0.5604  0.8371
  761MOL0     H 2696   5.232   3.830   4.271 -0.0193 -2.3219  0.0108
  761MOL0     H 2697   5.120   3.826   4.144  0.2456 -0.5652 -0.7889
  761MOL0     H 2698   5.235   3.693   4.141 -2.8072 -0.5819 -1.1394
  761MOL0     H 2699   4.963   4.181   3.830  3.0060 -2.0840 -1.0676
  761MOL0     H 2700   4.715   4.168   3.830  0.0501  0.5965 -0.8354
  761MOL0     H 2701   4.496   4.098   3.865 -0.9259  2.0234 -1.6735
  761MOL0     H 2702   4.503   4.103   3.684 -0.8791 -0.9725 -1.2845
  761MOL0     H 2703   4.325   3.942   3.674  1.2991  1.1334 -0.9845
  761MOL0     H 2704   4.340   3.891   3.846 -1.1165  0.1448 -0.2543
  761MOL0     H 2705   4.248   4.162   3.738  1.4800  2.9293  1.5742
  761MOL0     H 2706   4.260   4.136   3.916 -1.3137 -2.9722  1.5388
  761MOL0     H 2707   4.078   3.986   3.723 -0.2498  1.7020 -0.7916
  761MOL0     H 2708   4.103   3.949   3.895  4.5159 -0.5504 -0.3496
  761MOL0     H 2709   4.015   4.227   3.810  1.1023  1.5206  1.6551
  761MOL0     H 2710   4.027   4.170   3.971 -0.9517 -0.3602  0.7680
  761MOL0     H 2711   3.852   3.997   3.908  1.0192 -0.7735 -0.3616
  761MOL0     H 2712   3.809   4.180   3.898  0.3055  0.0054 -1.3501
  761MOL0     H 2713   3.842   3.976   3.673  1.1562  0.9600 -1.9569
  761MOL0     H 2714   3.848   4.152   3.646  1.0318 -1.1032  0.5084
  761MOL0     H 2715   3.639   4.186   3.766 -3.3600 -0.6111  0.5137
  761MOL0     H 2716   3.626   4.015   3.793 -0.1187  0.8035 -0.2437
  761MOL0     H 2717   4.750   3.741   3.826  1.0344 -0.2426  1.1028
  761MOL0     H 2718   4.984   3.755   3.840  3.4446  2.0299 -1.4716
  761MOL0     H 2719   5.399   4.067   3.817  1.9380  1.3154  0.7394
  761MOL0     H 2720   5.627   3.994   3.868 -0.1952 -1.5656 -1.4287
  761MOL0     H 2721   7.274   3.097   3.561 -0.1749  1.3232 -1.7110
  761MOL0     H 2722   7.517   3.070   3.509  0.0145 -1.4801  0.1675
  761MOL0     H 2723   7.956   2.748   3.687  0.5938 -0.4804 -1.2751
  761MOL0     H 2724   8.210   2.766   3.659 -0.8419 -0.2008 -0.5297
  761MOL0     H 2725   8.448   2.792   3.712 -2.3129  0.0945 -0.7933
  761MOL0     H 2726   8.389   2.806   3.561  0.0065 -0.2434 -0.8054
  761MOL0     H 2727   8.551   3.011   3.523 -0.5707 -0.6174 -1.0368
  761MOL0     H 2728   8.627   2.852   3.520 -0.2702  2.0312 -0.9869
  761MOL0     H 2729   8.733   2.853   3.719  1.8018  1.2166  3.5677
  761MOL0     H 2730   8.619   2.974   3.786  1.3377 -0.0804  0.6899
  761MOL0     H 2731   8.805   3.124   3.736 -1.6029  5.7094 -1.9876
  761MOL0     H 2732   8.706   3.128   3.598 -0.9039 -3.1391 -2.8730
  761MOL0     H 2733   9.092   3.027   3.485  1.2665  1.8217  4.1533
  761MOL0     H 2734   8.196   3.181   3.680  0.9817  0.0638  2.5845
  761MOL0     H 2735   7.961   3.186   3.706 -0.7431 -0.9286  0.6268
  762MOL0     O 2736   8.770   1.541   6.948 -0.0896  0.9019  0.5501
  762MOL0     C 2737   8.797   1.427   6.985  0.0818 -0.0076 -0.0624
  762MOL0     O 2738   8.703   1.325   7.004 -0.4824  0.3386 -0.2924
  762MOL0     C 2739   8.570   1.364   6.988 -0.0525  0.1303 -0.6897
  762MOL0     C 2740   8.505   1.350   6.863 -0.1495  0.3852  0.7289
  762MOL0     C 2741   8.362   1.364   6.847  0.7961  0.8404  0.6644
  762MOL0     C 2742   8.280   1.381   6.965 -0.4873 -0.0780 -0.3436
  762MOL0     O 2743   8.144   1.401   6.977 -0.8980  0.8942 -1.0698
  762MOL0     C 2744   8.059   1.389   6.866  0.5768  0.6105  0.3061
  762MOL0     C 2745   8.061   1.234   6.829  0.4653  0.4733  0.1242
  762MOL0     C 2746   7.922   1.175   6.768 -1.0161 -0.5773 -0.3823
  762MOL0     C 2747   7.826   1.146   6.884 -0.3513  0.1489  0.6416
  762MOL0     C 2748   7.675   1.138   6.855 -0.1983  0.6193  0.5920
  762MOL0     C 2749   7.639   1.051   6.737 -0.5691 -1.1136  0.3657
  762MOL0     C 2750   7.495   1.007   6.752 -0.2751 -0.2393  1.0900
  762MOL0     C 2751   7.401   1.116   6.710 -0.0598 -0.0637 -0.0692
  762MOL0     N 2752   7.261   1.058   6.738 -0.1563 -0.5491  0.2078
  762MOL0     C 2753   7.177   1.033   6.638  0.9280 -0.4663  0.1624
  762MOL0     C 2754   7.061   0.994   6.694  0.3505  0.1529 -0.5295
  762MOL0     C 2755   6.924   0.970   6.640 -0.1731 -0.4886  0.5109
  762MOL0     C 2756   6.885   0.827   6.666  0.2598 -1.2929  0.0098
  762MOL0     C 2757   6.759   0.779   6.583  0.3324 -0.3405 -0.5220
  762MOL0     C 2758   6.644   0.879   6.610  0.5774  0.2122 -0.0255
  762MOL0     O 2759   6.616   0.904   6.751  0.0815  0.1358  0.5101
  762MOL0     C 2760   6.501   0.984   6.779  0.2270  0.8680 -0.7672
  762MOL0     C 2761   6.431   1.059   6.689 -0.2858 -0.2319 -0.3784
  762MOL0     C 2762   6.313   1.131   6.719 -1.0028  0.2514  0.7583
  762MOL0     C 2763   6.264   1.219   6.602 -0.0703  1.1702  0.2319
  762MOL0     C 2764   6.261   1.120   6.850  0.1292  0.2929  0.5904
  762MOL0     C 2765   6.131   1.190   6.894 -0.3378  0.6957  0.3607
  762MOL0     O 2766   6.045   1.241   6.796 -0.5917 -0.8066  0.0250
  762MOL0     C 2767   5.925   1.299   6.835  0.6065 -0.3015  0.2686
  762MOL0     C 2768   5.911   1.392   6.936  0.3591 -0.0036  0.7636
  762MOL0     C 2769   5.786   1.446   6.961 -0.3994  0.4870 -0.2610
  762MOL0     C 2770   5.681   1.409   6.878 -0.1755  0.4763 -1.3065
  762MOL0     O 2771   5.558   1.466   6.899 -0.4521  0.3933  0.4190
  762MOL0     C 2772   5.511   1.476   7.030  0.8727  0.1297 -0.6885
  762MOL0     C 2773   5.359   1.480   7.033  0.1607  0.5734 -0.0248
  762MOL0     C 2774   5.309   1.596   6.957  0.3590 -0.5703 -0.1272
  762MOL0     C 2775   5.158   1.615   6.953 -0.5290 -0.3631  0.3690
  762MOL0     C 2776   5.131   1.748   6.882  1.3036 -0.0925  0.2495
  762MOL0     C 2777   4.978   1.752   6.854 -0.0622  0.0223  0.3711
  762MOL0     C 2778   4.930   1.671   6.740 -0.7072  0.3247 -0.9775
  762MOL0     C 2779   4.777   1.708   6.729 -0.7888  0.4330  0.6711
  762MOL0    Cl 2780   4.768   1.861   6.651 -0.2790  0.1114 -0.0512
  762MOL0     C 2781   5.693   1.328   6.768  0.0936  0.1885 -0.7631
  762MOL0     C 2782   5.817   1.272   6.749 -0.0521  0.0569  0.3138
  762MOL0     O 2783   6.112   1.197   7.013  0.1093  0.4811  0.8898
  762MOL0     C 2784   6.339   1.055   6.945  0.5655 -0.0432 -0.2832
  762MOL0     C 2785   6.459   0.994   6.914 -0.3079  0.2734  0.4377
  762MOL0     N 2786   7.094   0.994   6.838  0.6379 -0.3929  0.5183
  762MOL0     N 2787   7.213   1.032   6.855 -1.3687 -0.5746  0.3207
  762MOL0     C 2788   8.344   1.386   7.094 -0.3892  0.2165  0.3491
  762MOL0     C 2789   8.490   1.375   7.104 -0.1583 -0.2440  0.3609
  762MOL0     C 2790   8.935   1.389   6.979  0.4013  0.0505 -0.3151
  762MOL0     C 2791   9.036   1.485   6.949  0.3588  0.1634 -0.5711
  762MOL0     C 2792   9.174   1.465   6.948 -0.4933 -0.7429  0.1929
  762MOL0     C 2793   9.219   1.342   6.976  0.6538  0.2004  0.9000
  762MOL0     O 2794   9.353   1.317   6.968  0.4089 -0.0422  0.3165
  762MOL0     C 2795   9.399   1.270   6.833 -0.5964 -0.3544  0.3851
  762MOL0     C 2796   9.550   1.272   6.809  0.4473  0.2132  0.2181
  762MOL0     C 2797   9.614   1.412   6.809 -0.7496  0.2019 -0.3689
  762MOL0     C 2798   9.748   1.402   6.730  0.2541 -0.7379  0.9486
  762MOL0     C 2799   9.854   1.319   6.792 -0.1654 -0.1406  0.3783
  762MOL0     C 2800   9.936   1.244   6.838 -0.0077  0.3035 -0.2610
  762MOL0     C 2801   9.126   1.240   7.013 -0.8417 -0.5287 -0.9809
  762MOL0     C 2802   8.987   1.263   7.018  0.4326  0.5263  0.6671
  762MOL0     H 2803   8.565   1.323   6.777 -1.2334 -0.6582  0.2600
  762MOL0     H 2804   8.319   1.367   6.748  1.5470  1.8653  0.3614
  762MOL0     H 2805   7.960   1.428   6.894  0.9993  1.8398  0.1561
  762MOL0     H 2806   8.100   1.452   6.787 -0.1118  2.4295  1.3319
  762MOL0     H 2807   8.136   1.215   6.752 -0.9205  1.9700 -1.6663
  762MOL0     H 2808   8.084   1.176   6.919 -3.2165  2.1369  2.3840
  762MOL0     H 2809   7.876   1.246   6.698  2.5837  1.2774 -1.1439
  762MOL0     H 2810   7.940   1.079   6.720  0.4730 -1.4568  1.7854
  762MOL0     H 2811   7.862   1.052   6.927  1.4175  0.8629  0.8405
  762MOL0     H 2812   7.830   1.227   6.957 -0.6685  0.1380  0.6706
  762MOL0     H 2813   7.635   1.092   6.946  0.1909 -1.4070 -0.2061
  762MOL0     H 2814   7.635   1.239   6.837  2.3127  1.3711 -1.5500
  762MOL0     H 2815   7.662   1.106   6.645  2.3252 -1.5416  0.7394
  762MOL0     H 2816   7.708   0.966   6.738 -0.1435 -0.7719  1.0117
  762MOL0     H 2817   7.478   0.920   6.689 -1.0939  1.4044 -1.0752
  762MOL0     H 2818   7.467   0.960   6.847 -0.5803 -2.2713  0.0518
  762MOL0     H 2819   7.413   1.142   6.604  0.9292  1.1246  0.3105
  762MOL0     H 2820   7.418   1.212   6.761 -0.5259  0.9956 -1.8061
  762MOL0     H 2821   7.184   1.056   6.532  1.3022 -1.5716 -0.0616
  762MOL0     H 2822   6.856   1.041   6.687  0.8660  0.7749  0.1664
  762MOL0     H 2823   6.923   0.982   6.531 -1.7647 -0.6639  0.4799
  762MOL0     H 2824   6.859   0.824   6.773  2.3645 -0.0667  0.6030
  762MOL0     H 2825   6.971   0.761   6.653  0.7208 -0.6432 -0.2652
  762MOL0     H 2826   6.738   0.683   6.632  2.9196 -0.8721 -0.3058
  762MOL0     H 2827   6.769   0.759   6.476  0.3818 -1.0389 -0.3920
  762MOL0     H 2828   6.558   0.828   6.565 -0.9970 -0.7982  3.6897
  762MOL0     H 2829   6.655   0.976   6.562 -2.2371  1.7557  2.1498
  762MOL0     H 2830   6.471   1.056   6.588 -2.0274  1.4582 -1.1835
  762MOL0     H 2831   6.348   1.241   6.535 -0.5477  1.2225 -0.3566
  762MOL0     H 2832   6.182   1.161   6.559 -0.3538  1.1674  0.7771
  762MOL0     H 2833   6.220   1.314   6.634 -2.0233  0.3441  0.1483
  762MOL0     H 2834   5.999   1.419   6.994 -0.9146 -1.1765  3.4535
  762MOL0     H 2835   5.771   1.531   7.027  3.5005  2.2295 -1.2889
  762MOL0     H 2836   5.540   1.389   7.089  1.6551  1.2049  0.5486
  762MOL0     H 2837   5.559   1.551   7.093  3.4812 -3.8061  2.4878
  762MOL0     H 2838   5.323   1.385   6.993  3.0139 -1.9517  2.9112
  762MOL0     H 2839   5.314   1.475   7.133  0.2381 -1.4746 -0.0508
  762MOL0     H 2840   5.338   1.592   6.851 -2.1872 -1.4056 -0.8796
  762MOL0     H 2841   5.343   1.689   7.004 -3.0172  0.4429  0.5750
  762MOL0     H 2842   5.119   1.527   6.900  0.0238  0.7596 -2.0343
  762MOL0     H 2843   5.118   1.616   7.055 -0.2574 -2.1931  0.5369
  762MOL0     H 2844   5.181   1.750   6.785 -0.4331 -1.5669 -0.7474
  762MOL0     H 2845   5.165   1.824   6.953  0.0821 -0.6125  1.4323
  762MOL0     H 2846   4.916   1.727   6.941  0.1467 -2.3465 -0.0770
  762MOL0     H 2847   4.962   1.858   6.834  0.2741 -0.3248 -1.9394
  762MOL0     H 2848   4.940   1.565   6.765 -0.2931  1.1649  3.2033
  762MOL0     H 2849   4.981   1.687   6.645 -0.2642  0.8408 -0.6603
  762MOL0     H 2850   4.729   1.709   6.828 -1.2793  1.4450  0.4395
  762MOL0     H 2851   4.730   1.632   6.666  0.2950  0.3345 -0.0397
  762MOL0     H 2852   5.617   1.296   6.697  1.9052 -0.8914 -2.2779
  762MOL0     H 2853   5.835   1.211   6.661  2.3092  1.3890 -0.2119
  762MOL0     H 2854   6.302   1.057   7.047  1.5115  1.1537  0.0612
  762MOL0     H 2855   6.525   0.950   6.988 -0.8547  2.0834  2.0718
  762MOL0     H 2856   8.286   1.399   7.184 -2.3691  2.5813 -1.1371
  762MOL0     H 2857   8.541   1.379   7.199  0.2610 -2.0664  0.2475
  762MOL0     H 2858   9.005   1.588   6.932  0.7822  0.3071 -0.4848
  762MOL0     H 2859   9.243   1.545   6.922  1.0209 -1.7345  1.0333
  762MOL0     H 2860   9.359   1.169   6.819 -2.5835  0.5047 -0.5894
  762MOL0     H 2861   9.344   1.330   6.759  2.5791 -0.6411 -2.4948
  762MOL0     H 2862   9.558   1.225   6.710 -2.3393 -2.3427  1.0612
  762MOL0     H 2863   9.598   1.207   6.883 -0.5378  1.3626  1.9382
  762MOL0     H 2864   9.628   1.438   6.914 -3.1705  1.3614 -0.2557
  762MOL0     H 2865   9.553   1.489   6.760 -1.3794 -1.2093 -1.8985
  762MOL0     H 2866   9.787   1.502   6.712 -0.2514 -0.9490 -1.8256
  762MOL0     H 2867   9.736   1.362   6.628  2.5276 -2.9757  1.4390
  762MOL0     H 2868  10.006   1.170   6.871 -2.0872 -1.5772  0.2308
  762MOL0     H 2869   9.168   1.145   7.047 -1.6694 -0.2993  0.7960
  762MOL0     H 2870   8.925   1.180   7.051 -1.4015  1.8346  0.6668
  763MOL0     O 2871   5.335   5.406  10.886 -1.1071  0.0214  0.2529
  763MOL0     C 2872   5.355   5.308  10.816 -0.5972 -0.6611  0.8653
  763MOL0     O 2873   5.256   5.220  10.782  0.3391  0.4122  0.0860
  763MOL0     C 2874   5.129   5.227  10.819  1.0472  0.0442 -0.4025
  763MOL0     C 2875   5.045   5.121  10.779  0.1826  0.9697  0.4923
  763MOL0     C 2876   4.911   5.111  10.828 -1.2358  0.3279  0.5004
  763MOL0     C 2877   4.858   5.204  10.920  0.5060  0.9378  0.2067
  763MOL0     O 2878   4.729   5.185  10.973 -0.9462 -0.2704  0.5079
  763MOL0     C 2879   4.660   5.286  11.045 -0.5055  0.0847 -0.3060
  763MOL0     C 2880   4.531   5.235  11.106  0.0099 -0.1750  0.8879
  763MOL0     C 2881   4.465   5.114  11.036 -0.5616  0.2101 -0.0493
  763MOL0     C 2882   4.374   5.152  10.916  0.2130  0.1423 -0.1688
  763MOL0     C 2883   4.384   5.038  10.802  0.1089 -0.4793 -0.3903
  763MOL0     C 2884   4.530   5.021  10.742  0.3350 -0.0766  0.1206
  763MOL0     C 2885   4.521   4.963  10.604  0.4316  0.3316  0.6137
  763MOL0     C 2886   4.654   4.937  10.520 -0.2989 -0.3726 -0.2130
  763MOL0     N 2887   4.610   4.932  10.382 -0.1609  0.1047  0.2704
  763MOL0     C 2888   4.538   5.026  10.315  0.0947 -0.3714  0.4479
  763MOL0     C 2889   4.528   4.990  10.192  0.1999  0.0859 -0.1521
  763MOL0     C 2890   4.448   5.061  10.083  0.2382  0.6362  0.6563
  763MOL0     C 2891   4.295   5.038  10.096 -0.7910 -0.1763 -0.4021
  763MOL0     C 2892   4.266   4.897  10.044  0.0710  0.6403 -0.1623
  763MOL0     C 2893   4.122   4.841  10.061  0.5589 -0.3152  0.3392
  763MOL0     O 2894   4.020   4.937  10.036  0.1150 -0.2317 -0.3022
  763MOL0     C 2895   3.893   4.907  10.085  0.9231  0.0881 -0.6296
  763MOL0     C 2896   3.817   5.016  10.135  0.7457  0.0184 -1.2282
  763MOL0     C 2897   3.693   4.999  10.192  0.4252  1.3021  0.0007
  763MOL0     C 2898   3.620   5.127  10.235  0.9814  0.2465  0.2590
  763MOL0     C 2899   3.640   4.872  10.220 -0.6400 -0.2627  0.0082
  763MOL0     C 2900   3.507   4.847  10.280 -0.1958 -0.0500 -0.6607
  763MOL0     O 2901   3.405   4.922  10.237 -0.7735  0.6100 -0.5226
  763MOL0     C 2902   3.293   4.928  10.307 -0.3796 -1.0988  0.4043
  763MOL0     C 2903   3.288   4.960  10.444 -0.0090  0.0073  0.3981
  763MOL0     C 2904   3.171   4.965  10.521 -0.4085  0.1332 -0.6303
  763MOL0     C 2905   3.043   4.951  10.459  0.1206 -0.0470  0.7474
  763MOL0     O 2906   2.918   4.964  10.514 -1.1345  0.3401  0.2134
  763MOL0     C 2907   2.904   5.018  10.644  0.9845  0.1394 -0.3031
  763MOL0     C 2908   2.766   4.962  10.682 -0.5606  0.4171 -0.5258
  763MOL0     C 2909   2.651   5.005  10.591 -0.5450  0.2821  0.2806
  763MOL0     C 2910   2.516   5.013  10.665 -0.1598  0.0811 -0.0004
  763MOL0     C 2911   2.379   5.023  10.575 -0.0436 -0.0403  1.3177
  763MOL0     C 2912   2.249   5.005  10.648  0.7245 -0.6147 -0.1791
  763MOL0     C 2913   2.121   5.009  10.552 -0.2238 -0.0316  0.0466
  763MOL0     C 2914   2.072   5.152  10.515 -0.1259  1.1982  0.5417
  763MOL0    Cl 2915   1.918   5.144  10.429 -0.0565 -0.2521  0.0537
  763MOL0     C 2916   3.051   4.922  10.329  0.2847  0.4278 -0.4229
  763MOL0     C 2917   3.171   4.909  10.250 -0.3913 -0.1798 -1.1268
  763MOL0     O 2918   3.505   4.754  10.362  0.5306 -0.0336 -0.4920
  763MOL0     C 2919   3.716   4.762  10.182  0.8321 -0.4202 -0.0211
  763MOL0     C 2920   3.840   4.780  10.108 -0.1416  0.4793  0.1718
  763MOL0     N 2921   4.602   4.869  10.182  0.4411 -0.1896 -1.3869
  763MOL0     N 2922   4.649   4.836  10.295  0.3029 -0.3911 -0.4646
  763MOL0     C 2923   4.942   5.305  10.955  0.3927 -0.3695  0.3706
  763MOL0     C 2924   5.071   5.318  10.912 -0.2350  0.0213  0.6828
  763MOL0     C 2925   5.488   5.298  10.751  0.8031 -0.3819  0.2311
  763MOL0     C 2926   5.595   5.373  10.795 -0.0779  0.0789  0.6553
  763MOL0     C 2927   5.710   5.371  10.717  0.8962 -0.8396 -0.0443
  763MOL0     C 2928   5.723   5.282  10.612 -0.6220  0.3432  0.0576
  763MOL0     O 2929   5.850   5.284  10.556  0.5119 -0.0097  0.2537
  763MOL0     C 2930   5.894   5.174  10.479 -0.4830  0.0405  0.3112
  763MOL0     C 2931   6.045   5.157  10.463 -0.4722  0.1193  0.2728
  763MOL0     C 2932   6.094   5.288  10.384  0.5087  0.1683 -0.5196
  763MOL0     C 2933   6.243   5.300  10.370 -0.1492  0.1678 -0.6482
  763MOL0     C 2934   6.297   5.181  10.302  0.4663  0.3428 -0.1712
  763MOL0     C 2935   6.345   5.085  10.249 -0.2506 -0.1009  0.1294
  763MOL0     C 2936   5.618   5.200  10.570  0.5645 -0.2451  0.8079
  763MOL0     C 2937   5.501   5.210  10.646  0.3766  0.5634  0.1975
  763MOL0     H 2938   5.084   5.045  10.712 -1.0434 -0.9136  1.7706
  763MOL0     H 2939   4.847   5.027  10.802 -0.0382 -0.2909 -0.6065
  763MOL0     H 2940   4.726   5.330  11.120  0.9034 -3.2435  0.5627
  763MOL0     H 2941   4.629   5.365  10.976 -0.0428  0.5931  0.0587
  763MOL0     H 2942   4.573   5.191  11.197  0.5766 -2.1479 -0.2754
  763MOL0     H 2943   4.457   5.312  11.132 -2.2423 -1.3452 -1.5796
  763MOL0     H 2944   4.534   5.035  11.005 -0.5038 -0.4609  1.7087
  763MOL0     H 2945   4.406   5.059  11.109 -1.5295  0.6965 -0.4430
  763MOL0     H 2946   4.270   5.154  10.952  0.2585 -0.4450 -0.0027
  763MOL0     H 2947   4.402   5.251  10.877  3.0517 -1.3981 -2.3838
  763MOL0     H 2948   4.341   4.945  10.840 -1.1886  0.8389  1.5764
  763MOL0     H 2949   4.311   5.070  10.726 -0.2138  0.6540  0.3721
  763MOL0     H 2950   4.577   5.119  10.740 -1.3643  0.7561 -1.3306
  763MOL0     H 2951   4.587   4.951  10.804  2.4007  0.2445 -1.3258
  763MOL0     H 2952   4.475   4.864  10.606  3.6527 -1.3466 -1.0772
  763MOL0     H 2953   4.466   5.039  10.548  2.4063  0.9004 -0.6642
  763MOL0     H 2954   4.710   4.848  10.549 -1.4566 -1.4856 -1.2864
  763MOL0     H 2955   4.713   5.029  10.531 -0.1667 -0.4590 -0.1904
  763MOL0     H 2956   4.494   5.110  10.368  2.8375  0.7092  1.1834
  763MOL0     H 2957   4.463   5.166  10.109 -0.4746  0.7633  0.5577
  763MOL0     H 2958   4.486   5.031   9.985  1.7132 -0.0274  1.3922
  763MOL0     H 2959   4.254   5.117  10.032  1.2824  2.5705  1.4649
  763MOL0     H 2960   4.257   5.054  10.197  0.8681  1.9455 -0.0607
  763MOL0     H 2961   4.344   4.837  10.092 -0.0523 -1.3859 -2.3511
  763MOL0     H 2962   4.289   4.898   9.937 -0.6749 -1.0325 -0.3697
  763MOL0     H 2963   4.107   4.798  10.161 -4.5338 -3.7421 -1.4671
  763MOL0     H 2964   4.112   4.770   9.978 -0.2547 -0.9469  0.9590
  763MOL0     H 2965   3.854   5.115  10.106 -0.2166  0.0011 -2.6276
  763MOL0     H 2966   3.680   5.217  10.227 -2.0443  2.2472 -1.8525
  763MOL0     H 2967   3.544   5.139  10.158 -0.8050  1.9297  2.1680
  763MOL0     H 2968   3.578   5.120  10.336  1.8283 -0.6141  0.5696
  763MOL0     H 2969   3.382   4.985  10.492 -0.5591 -0.6298  1.8485
  763MOL0     H 2970   3.185   4.975  10.628  2.5871 -2.3650 -0.6228
  763MOL0     H 2971   2.972   4.974  10.718  1.3363  0.1954 -0.5930
  763MOL0     H 2972   2.916   5.125  10.661  0.0952  0.1911  0.1086
  763MOL0     H 2973   2.769   4.853  10.688 -2.0881  0.4307  1.4873
  763MOL0     H 2974   2.747   4.992  10.785 -0.1692 -2.9262  0.6291
  763MOL0     H 2975   2.651   4.935  10.507  1.6942  0.5700 -0.0255
  763MOL0     H 2976   2.677   5.103  10.550 -0.0998  0.1678  0.2840
  763MOL0     H 2977   2.510   4.923  10.727  2.1960 -1.9158 -2.4657
  763MOL0     H 2978   2.522   5.102  10.728 -0.9045 -0.0178  0.2218
  763MOL0     H 2979   2.375   4.934  10.511 -0.2881  1.0346 -0.2093
  763MOL0     H 2980   2.369   5.120  10.525  1.2432 -1.4557 -1.9752
  763MOL0     H 2981   2.242   4.903  10.685 -0.8651 -1.0325 -1.5228
  763MOL0     H 2982   2.234   5.073  10.732 -2.5855 -0.7129 -0.5647
  763MOL0     H 2983   2.041   4.948  10.596 -0.4964 -0.7043 -1.3229
  763MOL0     H 2984   2.150   4.970  10.454 -1.0321  2.5620 -1.3162
  763MOL0     H 2985   2.153   5.183  10.448 -1.4756 -2.8693 -3.4895
  763MOL0     H 2986   2.062   5.204  10.611 -1.2361 -1.0518  1.7298
  763MOL0     H 2987   2.962   4.918  10.268 -0.8358  0.5740  1.1497
  763MOL0     H 2988   3.167   4.904  10.142  0.9032 -0.0792 -1.1981
  763MOL0     H 2989   3.671   4.665  10.201 -1.1163  0.4424  0.0281
  763MOL0     H 2990   3.892   4.690  10.078  1.5660  1.3112  0.5313
  763MOL0     H 2991   4.905   5.390  11.011  1.5497  0.7327 -0.4626
  763MOL0     H 2992   5.122   5.404  10.956  1.0189 -1.1607  1.6146
  763MOL0     H 2993   5.585   5.439  10.880 -0.1351  0.5149  0.3142
  763MOL0     H 2994   5.797   5.436  10.722  0.6975  0.2055 -4.7855
  763MOL0     H 2995   5.852   5.085  10.528 -2.5182  2.0291  2.4363
  763MOL0     H 2996   5.849   5.186  10.380  2.3633  0.0176 -1.0699
  763MOL0     H 2997   6.064   5.066  10.405 -0.5283 -1.1515  2.1393
  763MOL0     H 2998   6.095   5.150  10.561  0.8470 -0.0174 -0.3823
  763MOL0     H 2999   6.062   5.377  10.439 -1.1313 -2.0008  2.3082
  763MOL0     H 3000   6.048   5.292  10.284  1.7706 -0.3874 -1.1451
  763MOL0     H 3001   6.297   5.314  10.464  1.9686  0.2264 -1.8325
  763MOL0     H 3002   6.268   5.388  10.310 -1.7560 -0.1469 -1.8531
  763MOL0     H 3003   6.391   5.005  10.194  0.9482  2.4668 -2.9534
  763MOL0     H 3004   5.630   5.132  10.486  2.8142  2.6758 -1.4612
  763MOL0     H 3005   5.410   5.158  10.619 -2.2704  2.7801  4.0525
  764MOL0     O 3006   6.758   8.784   2.981  0.5162  0.2231  0.4214
  764MOL0     C 3007   6.795   8.873   3.062 -0.1805  1.3046  0.9602
  764MOL0     O 3008   6.726   8.915   3.167 -0.7368  0.2631  0.2233
  764MOL0     C 3009   6.606   8.875   3.204 -0.0068  0.5156 -0.0183
  764MOL0     C 3010   6.513   8.781   3.150  0.3139  0.3877  0.5985
  764MOL0     C 3011   6.385   8.771   3.210  0.5959  0.4699  0.7564
  764MOL0     C 3012   6.347   8.828   3.330 -0.6026  0.2243 -0.3321
  764MOL0     O 3013   6.219   8.808   3.374 -1.3188  0.1756  0.6937
  764MOL0     C 3014   6.163   8.880   3.481  0.9565  0.0749 -0.5302
  764MOL0     C 3015   6.141   9.029   3.447 -0.1283  0.4105  0.2111
  764MOL0     C 3016   6.037   9.103   3.543  0.4804 -0.5520 -0.4356
  764MOL0     C 3017   5.893   9.046   3.541 -0.0263 -0.9981  0.2103
  764MOL0     C 3018   5.790   9.115   3.630  0.1849  0.1872  0.0020
  764MOL0     C 3019   5.795   9.084   3.784 -1.0307  0.3005 -0.2125
  764MOL0     C 3020   5.678   9.139   3.867  0.4347  0.3951  0.6200
  764MOL0     C 3021   5.605   9.038   3.964  0.2232  0.2882 -0.3544
  764MOL0     N 3022   5.703   8.988   4.062 -0.5092 -0.3494  0.2941
  764MOL0     C 3023   5.773   9.064   4.157 -0.2185  0.4304  0.1965
  764MOL0     C 3024   5.854   8.981   4.218 -0.1664  0.2278  0.2604
  764MOL0     C 3025   5.952   9.004   4.321  0.6686  0.1030 -0.5492
  764MOL0     C 3026   6.076   9.088   4.281  0.5536 -0.9722 -1.2299
  764MOL0     C 3027   6.176   9.019   4.187  0.3777  0.5825  0.0740
  764MOL0     C 3028   6.128   9.027   4.040 -0.0185  0.3530  0.0513
  764MOL0     O 3029   6.215   8.953   3.950 -0.3538 -0.4311  0.0521
  764MOL0     C 3030   6.330   9.004   3.899 -0.6585 -0.0660  0.4149
  764MOL0     C 3031   6.366   9.133   3.907 -1.0112 -0.5838  0.1446
  764MOL0     C 3032   6.496   9.180   3.853  0.8139 -0.3875  1.3215
  764MOL0     C 3033   6.536   9.324   3.863 -0.0624 -0.7997 -0.5959
  764MOL0     C 3034   6.586   9.079   3.792 -0.0700 -0.3355  0.0705
  764MOL0     C 3035   6.731   9.110   3.764  0.7070 -0.5819  0.0397
  764MOL0     O 3036   6.792   9.190   3.852 -0.4640 -0.1489  0.3309
  764MOL0     C 3037   6.913   9.248   3.824 -0.1248 -0.8059  0.3449
  764MOL0     C 3038   6.934   9.384   3.862 -0.0806  0.4338  0.5078
  764MOL0     C 3039   7.057   9.441   3.845 -0.4289 -0.5425  0.7596
  764MOL0     C 3040   7.164   9.364   3.797 -0.4624  0.6445  0.3309
  764MOL0     O 3041   7.289   9.419   3.768  0.0325  0.0235 -0.3336
  764MOL0     C 3042   7.406   9.343   3.753 -0.1671  0.7621 -0.4014
  764MOL0     C 3043   7.539   9.425   3.752 -0.3889  0.1907  0.3608
  764MOL0     C 3044   7.569   9.483   3.893 -0.2424  0.1394  0.4670
  764MOL0     C 3045   7.719   9.499   3.914  1.0575  0.4708 -0.3966
  764MOL0     C 3046   7.741   9.563   4.047 -0.0331  0.2882 -0.5163
  764MOL0     C 3047   7.897   9.599   4.056  0.0236  0.7347 -0.5657
  764MOL0     C 3048   7.936   9.570   4.205 -1.2504 -1.4974 -1.3740
  764MOL0     C 3049   8.089   9.554   4.225 -0.6877 -0.3023  0.4724
  764MOL0    Cl 3050   8.179   9.692   4.159 -0.0587 -0.0940 -0.2395
  764MOL0     C 3051   7.141   9.226   3.760 -0.6333  1.2773  0.3004
  764MOL0     C 3052   7.018   9.167   3.789  0.0029  0.3843  0.2642
  764MOL0     O 3053   6.782   9.051   3.675 -0.2267  0.4689  0.5025
  764MOL0     C 3054   6.542   8.945   3.783  0.1040 -0.0867  0.2114
  764MOL0     C 3055   6.429   8.911   3.859 -0.9352  0.0003  0.5713
  764MOL0     N 3056   5.837   8.847   4.169 -0.2686 -1.0211  0.5899
  764MOL0     N 3057   5.742   8.861   4.083  0.7847  0.2667  0.5760
  764MOL0     C 3058   6.455   8.894   3.391  0.1970 -1.1335 -0.5763
  764MOL0     C 3059   6.569   8.930   3.327 -0.0377 -0.4473  0.6147
  764MOL0     C 3060   6.927   8.934   3.056  1.6426 -0.0617 -0.4387
  764MOL0     C 3061   7.038   8.868   3.015 -0.0465  0.9738  0.2489
  764MOL0     C 3062   7.157   8.934   3.003 -0.7386 -0.1899 -0.2725
  764MOL0     C 3063   7.168   9.075   3.021 -0.1832  0.5266  0.6199
  764MOL0     O 3064   7.295   9.128   3.014  0.8427  1.0004 -0.2052
  764MOL0     C 3065   7.305   9.262   2.975 -0.4208  0.0734  0.2699
  764MOL0     C 3066   7.437   9.294   2.910 -0.1450 -0.7043  0.0593
  764MOL0     C 3067   7.448   9.229   2.765  0.9939  0.1059 -0.0663
  764MOL0     C 3068   7.597   9.233   2.711 -0.3083  0.9033  0.2464
  764MOL0     C 3069   7.591   9.190   2.579  0.1328 -0.1153  1.1096
  764MOL0     C 3070   7.623   9.152   2.463  0.4105  0.5440  0.0745
  764MOL0     C 3071   7.053   9.149   3.063  0.4553  0.9817  0.5217
  764MOL0     C 3072   6.935   9.077   3.077  0.1927  0.3869 -0.8688
  764MOL0     H 3073   6.553   8.713   3.075 -2.3291  0.2695 -0.8546
  764MOL0     H 3074   6.309   8.715   3.158  1.2825  0.9166 -0.7704
  764MOL0     H 3075   6.064   8.836   3.500 -0.8336  3.7845 -0.3796
  764MOL0     H 3076   6.221   8.862   3.572 -0.0563 -0.7583 -0.0183
  764MOL0     H 3077   6.243   9.068   3.447  0.7603 -1.8052  0.6068
  764MOL0     H 3078   6.102   9.027   3.345  2.0190 -1.9938 -0.6669
  764MOL0     H 3079   6.069   9.091   3.647 -0.1404 -0.4590 -0.2330
  764MOL0     H 3080   6.032   9.210   3.521  2.1692 -0.4209 -0.3531
  764MOL0     H 3081   5.861   9.047   3.437  3.8559 -0.6787 -1.1188
  764MOL0     H 3082   5.892   8.939   3.566  1.1221 -1.1796 -0.4741
  764MOL0     H 3083   5.811   9.222   3.626  0.3107  0.1860  0.5353
  764MOL0     H 3084   5.686   9.112   3.597 -0.6798 -0.8167  2.5140
  764MOL0     H 3085   5.783   8.976   3.793  1.3413  0.1153  1.8308
  764MOL0     H 3086   5.891   9.118   3.825 -0.1926 -0.4583 -1.4672
  764MOL0     H 3087   5.704   9.226   3.928  1.0977  3.5505 -3.7113
  764MOL0     H 3088   5.598   9.185   3.808  0.5793  1.6735  1.3806
  764MOL0     H 3089   5.553   8.952   3.921 -0.9366  1.2025 -0.8199
  764MOL0     H 3090   5.533   9.089   4.028 -0.3757  0.5507 -1.2246
  764MOL0     H 3091   5.763   9.171   4.170 -1.1807  0.3964 -0.2514
  764MOL0     H 3092   5.911   9.056   4.408 -1.8969  1.0686 -2.2137
  764MOL0     H 3093   5.995   8.910   4.356 -1.2298  0.1801  2.2953
  764MOL0     H 3094   6.114   9.120   4.379 -0.9667  1.2321 -1.2929
  764MOL0     H 3095   6.060   9.182   4.228 -0.9778  0.6149  1.7593
  764MOL0     H 3096   6.170   8.912   4.208  1.2005  0.9526  2.4484
  764MOL0     H 3097   6.278   9.055   4.198 -0.0345  1.9544 -0.4416
  764MOL0     H 3098   6.121   9.132   4.010 -0.3159  0.8648  1.7934
  764MOL0     H 3099   6.026   8.991   4.022  0.6905 -0.8547 -1.8008
  764MOL0     H 3100   6.302   9.209   3.950 -1.1912 -0.6870  0.0592
  764MOL0     H 3101   6.613   9.346   3.938 -2.1343  2.8450  0.7407
  764MOL0     H 3102   6.582   9.366   3.774  2.0064 -3.3875 -0.8736
  764MOL0     H 3103   6.452   9.390   3.887  0.0906 -0.0494 -2.0199
  764MOL0     H 3104   6.842   9.435   3.886 -1.2350 -0.6252 -1.3785
  764MOL0     H 3105   7.080   9.547   3.846 -1.2021 -0.3658  0.7500
  764MOL0     H 3106   7.398   9.265   3.829 -3.1156  0.7243 -0.6684
  764MOL0     H 3107   7.395   9.297   3.655 -1.5877  3.0521 -1.4011
  764MOL0     H 3108   7.621   9.365   3.711  3.1215  2.8037  2.8618
  764MOL0     H 3109   7.539   9.514   3.690  0.1622 -0.0890 -0.0493
  764MOL0     H 3110   7.532   9.424   3.977 -0.1907  2.7743  2.4534
  764MOL0     H 3111   7.513   9.577   3.902  0.9489  0.7131  2.3930
  764MOL0     H 3112   7.762   9.399   3.903  0.1863  0.1945 -1.6178
  764MOL0     H 3113   7.753   9.562   3.832  0.4332  2.1886  0.6243
  764MOL0     H 3114   7.714   9.495   4.128 -1.8432 -1.8512 -2.7638
  764MOL0     H 3115   7.683   9.655   4.055 -1.7308 -0.8002  0.3353
  764MOL0     H 3116   7.945   9.541   3.976  3.2521 -0.6495  2.1265
  764MOL0     H 3117   7.908   9.707   4.042 -1.8871  0.9466 -0.5756
  764MOL0     H 3118   7.887   9.480   4.243 -1.1311 -1.9685 -2.3004
  764MOL0     H 3119   7.906   9.657   4.263  0.6298  0.5445 -3.2341
  764MOL0     H 3120   8.119   9.463   4.172 -0.3410  0.2029 -0.1988
  764MOL0     H 3121   8.119   9.531   4.328 -0.4510 -0.9169  0.2730
  764MOL0     H 3122   7.216   9.162   3.713 -0.1336  1.4075  0.8955
  764MOL0     H 3123   7.015   9.061   3.769 -0.0255  0.1593  1.3905
  764MOL0     H 3124   6.611   8.876   3.737 -0.2234  1.3122 -2.6677
  764MOL0     H 3125   6.398   8.810   3.886  0.4591  0.0825  2.7579
  764MOL0     H 3126   6.428   8.927   3.491  0.0487 -1.7569 -0.4066
  764MOL0     H 3127   6.636   9.001   3.376  2.0761 -0.5294 -1.8934
  764MOL0     H 3128   7.021   8.763   2.992  2.0528  0.6321  0.0401
  764MOL0     H 3129   7.241   8.877   2.965  0.3775  0.0808  1.6375
  764MOL0     H 3130   7.221   9.287   2.909  1.2025 -1.6307 -2.6380
  764MOL0     H 3131   7.292   9.323   3.065 -2.1693  3.2365 -1.9260
  764MOL0     H 3132   7.521   9.265   2.974 -0.5329 -0.3996  0.7152
  764MOL0     H 3133   7.450   9.402   2.892  1.4046 -0.9488 -0.4604
  764MOL0     H 3134   7.381   9.290   2.704 -0.1311 -0.0492  0.9676
  764MOL0     H 3135   7.412   9.126   2.766  1.5855 -0.1045 -0.0782
  764MOL0     H 3136   7.666   9.170   2.768  1.5674 -0.0920 -2.8974
  764MOL0     H 3137   7.635   9.335   2.724 -1.7472  2.0010 -3.0453
  764MOL0     H 3138   7.641   9.113   2.365  2.4895 -2.1073  1.3825
  764MOL0     H 3139   7.047   9.256   3.080 -3.8703  1.0117 -0.1733
  764MOL0     H 3140   6.846   9.119   3.121  0.9686  1.6039 -0.4036
  765MOL0     O 3141   9.248   3.233   1.373 -0.1358  0.4802 -0.0605
  765MOL0     C 3142   9.212   3.295   1.272 -0.9284  0.2166 -0.0008
  765MOL0     O 3143   9.083   3.312   1.237  0.2302  0.2299  0.9663
  765MOL0     C 3144   8.983   3.283   1.319 -0.4559  0.0266 -0.5666
  765MOL0     C 3145   8.965   3.150   1.354  0.3657 -1.6406  0.6472
  765MOL0     C 3146   8.862   3.118   1.440 -0.6056  0.4908 -1.0987
  765MOL0     C 3147   8.780   3.217   1.499 -0.2502 -0.8273  0.5150
  765MOL0     O 3148   8.672   3.180   1.576 -0.1303  0.3176  0.2987
  765MOL0     C 3149   8.544   3.170   1.511 -0.0855 -0.0391 -0.8346
  765MOL0     C 3150   8.480   3.046   1.566  0.1293 -0.2268 -0.0119
  765MOL0     C 3151   8.327   3.052   1.550  0.1301  0.6742 -0.0531
  765MOL0     C 3152   8.271   3.032   1.405  1.7250 -0.6072  0.4993
  765MOL0     C 3153   8.106   3.022   1.401 -0.4874 -0.8156  0.1917
  765MOL0     C 3154   8.027   3.149   1.429  0.4305 -0.5740  0.3003
  765MOL0     C 3155   7.880   3.134   1.388  0.3448 -0.6239  0.2429
  765MOL0     C 3156   7.830   3.277   1.361  0.8102 -0.0646 -0.4523
  765MOL0     N 3157   7.838   3.355   1.489  0.6518 -0.1894 -0.0677
  765MOL0     C 3158   7.929   3.453   1.525  0.2897 -0.2568 -0.1401
  765MOL0     C 3159   7.890   3.489   1.647 -0.3032 -0.2124  0.2544
  765MOL0     C 3160   7.968   3.597   1.726 -0.3181  0.7974 -0.4878
  765MOL0     C 3161   7.881   3.715   1.783 -0.1784 -0.3253  0.3191
  765MOL0     C 3162   7.955   3.852   1.819  0.2167 -0.0870  0.1936
  765MOL0     C 3163   7.856   3.951   1.891 -0.7328  1.4027  0.0088
  765MOL0     O 3164   7.919   4.078   1.908 -0.5065  0.5051  0.4549
  765MOL0     C 3165   7.870   4.163   2.005 -0.5013  0.0079  1.3430
  765MOL0     C 3166   7.952   4.217   2.099 -0.4191  0.5378  0.3672
  765MOL0     C 3167   7.910   4.319   2.186 -0.5410 -0.1286 -0.2001
  765MOL0     C 3168   8.027   4.348   2.279 -1.0027 -0.8627  0.0706
  765MOL0     C 3169   7.778   4.367   2.175  0.0593 -0.8166 -0.7017
  765MOL0     C 3170   7.733   4.479   2.272  0.1492  0.2038 -0.0338
  765MOL0     O 3171   7.606   4.521   2.259  0.0189 -0.3132 -0.8675
  765MOL0     C 3172   7.583   4.658   2.287 -0.1615 -0.3922 -0.1056
  765MOL0     C 3173   7.673   4.765   2.273  0.6312  0.2587  0.1075
  765MOL0     C 3174   7.623   4.895   2.279 -0.7953  0.7391 -0.1998
  765MOL0     C 3175   7.492   4.921   2.305  0.3625  0.1796  0.3037
  765MOL0     O 3176   7.448   5.047   2.320 -0.8522  0.4462 -0.4519
  765MOL0     C 3177   7.443   5.125   2.206  0.1892  0.3388  0.8730
  765MOL0     C 3178   7.364   5.259   2.223 -0.1992 -0.6064 -0.2261
  765MOL0     C 3179   7.238   5.277   2.136 -0.0506  0.6992  0.1433
  765MOL0     C 3180   7.165   5.402   2.184  0.0928  0.2376 -0.1215
  765MOL0     C 3181   7.234   5.526   2.135 -0.1570 -0.0057  0.2859
  765MOL0     C 3182   7.162   5.662   2.180  0.5376  0.4122 -0.6614
  765MOL0     C 3183   7.181   5.776   2.089  0.0970  0.1523  0.5431
  765MOL0     C 3184   7.087   5.902   2.106  0.6003  0.0530 -0.3737
  765MOL0    Cl 3185   7.091   5.942   2.276  0.5062  0.2284 -0.2581
  765MOL0     C 3186   7.409   4.813   2.325 -0.7775 -0.2740  0.0746
  765MOL0     C 3187   7.451   4.685   2.315  0.8818 -0.0435  1.1740
  765MOL0     O 3188   7.814   4.520   2.361  0.9462 -0.2484  0.0707
  765MOL0     C 3189   7.694   4.307   2.082  0.2234 -0.2895  0.3615
  765MOL0     C 3190   7.739   4.206   1.994  0.3021  0.5726  0.2549
  765MOL0     N 3191   7.780   3.417   1.690 -0.8777 -0.0648  0.1259
  765MOL0     N 3192   7.742   3.344   1.592 -0.0638 -0.3808 -0.4139
  765MOL0     C 3193   8.811   3.351   1.479 -0.5237  0.0767  0.1343
  765MOL0     C 3194   8.911   3.382   1.392  0.0680 -0.1415  0.1618
  765MOL0     C 3195   9.326   3.354   1.199 -0.4652  0.0747 -0.0108
  765MOL0     C 3196   9.448   3.373   1.266 -0.4344  0.5842 -0.0006
  765MOL0     C 3197   9.572   3.412   1.205  1.2870  0.6523 -0.0612
  765MOL0     C 3198   9.567   3.414   1.064  0.4654 -0.0865  0.0932
  765MOL0     O 3199   9.669   3.454   0.978  0.2285  0.3070  0.3253
  765MOL0     C 3200   9.806   3.476   1.032  0.8609 -0.7426  0.1941
  765MOL0     C 3201   9.884   3.571   0.929 -0.5173  0.4273  0.9358
  765MOL0     C 3202  10.027   3.586   0.983  0.1495  0.6425 -0.5682
  765MOL0     C 3203  10.044   3.692   1.100  0.3050 -0.2413 -0.0287
  765MOL0     C 3204  10.176   3.755   1.097  0.2692 -0.6309  0.4861
  765MOL0     C 3205  10.265   3.833   1.107 -0.0284 -0.2860  0.2266
  765MOL0     C 3206   9.447   3.399   0.988 -0.4411  0.2476 -0.8960
  765MOL0     C 3207   9.328   3.367   1.057 -0.5216  0.0585 -0.5534
  765MOL0     H 3208   9.027   3.076   1.304 -2.2727 -2.8450 -1.0509
  765MOL0     H 3209   8.831   3.014   1.453  0.1881  0.2349 -1.2281
  765MOL0     H 3210   8.479   3.258   1.515 -1.7923 -1.0904 -3.0407
  765MOL0     H 3211   8.550   3.152   1.403 -2.5499  1.1116 -1.2364
  765MOL0     H 3212   8.526   2.956   1.524  2.5868  0.9699 -0.0358
  765MOL0     H 3213   8.506   3.047   1.672  2.3342  1.9160 -0.4745
  765MOL0     H 3214   8.275   2.978   1.611 -1.3577  1.5198 -0.2467
  765MOL0     H 3215   8.294   3.152   1.581  0.2366  0.2685  1.4029
  765MOL0     H 3216   8.300   3.105   1.329 -1.3919 -0.9534 -1.1889
  765MOL0     H 3217   8.310   2.933   1.378 -0.2431 -1.5037  0.7586
  765MOL0     H 3218   8.083   2.976   1.305 -0.3364 -0.6747  0.0868
  765MOL0     H 3219   8.082   2.945   1.475 -1.0996  0.4127  1.3132
  765MOL0     H 3220   8.042   3.181   1.532 -0.2498 -4.0668  1.6330
  765MOL0     H 3221   8.066   3.237   1.377  0.0526 -0.3053  0.4680
  765MOL0     H 3222   7.868   3.074   1.297 -0.0469  1.7250 -1.3291
  765MOL0     H 3223   7.823   3.072   1.458 -0.1828 -1.3277 -0.7890
  765MOL0     H 3224   7.723   3.270   1.337 -0.0051  1.7108  2.2075
  765MOL0     H 3225   7.881   3.329   1.279 -1.7167  0.3162 -1.8941
  765MOL0     H 3226   8.008   3.483   1.457 -0.0328  1.4038  0.1757
  765MOL0     H 3227   8.017   3.550   1.812  0.6921  3.0776  0.2819
  765MOL0     H 3228   8.051   3.620   1.658 -1.8217  0.0502 -2.7092
  765MOL0     H 3229   7.823   3.674   1.867  1.3655  2.8368  3.1755
  765MOL0     H 3230   7.811   3.743   1.704  1.5201  0.9915 -0.7943
  765MOL0     H 3231   7.986   3.899   1.725  0.0478  3.0127  1.5749
  765MOL0     H 3232   8.046   3.848   1.878 -0.6336  0.4124  1.5843
  765MOL0     H 3233   7.839   3.908   1.990  1.8502  0.1851 -0.0035
  765MOL0     H 3234   7.763   3.957   1.833 -0.7816  1.4355  0.0908
  765MOL0     H 3235   8.054   4.181   2.095 -0.8488 -0.7826  0.8082
  765MOL0     H 3236   8.109   4.277   2.271 -0.5373 -0.1367 -3.0883
  765MOL0     H 3237   8.065   4.450   2.266  0.3901 -1.1000  1.9503
  765MOL0     H 3238   7.984   4.354   2.379 -3.2928  0.2325 -0.8791
  765MOL0     H 3239   7.780   4.752   2.261  0.5902 -0.5550  0.5567
  765MOL0     H 3240   7.701   4.969   2.258  0.8866 -0.3007  1.9702
  765MOL0     H 3241   7.546   5.135   2.171  0.4191 -2.7906  0.3786
  765MOL0     H 3242   7.400   5.066   2.125  2.2277 -0.0583  0.0317
  765MOL0     H 3243   7.340   5.270   2.329 -2.4586 -1.7877 -0.5395
  765MOL0     H 3244   7.423   5.345   2.191  0.8066 -1.8632 -1.9172
  765MOL0     H 3245   7.177   5.187   2.152 -0.0836  0.6114 -0.4499
  765MOL0     H 3246   7.258   5.290   2.029  2.2738 -1.4027  0.2298
  765MOL0     H 3247   7.064   5.398   2.142 -0.2188  0.7552  0.5671
  765MOL0     H 3248   7.161   5.400   2.293 -2.2798  0.4329 -0.1515
  765MOL0     H 3249   7.246   5.508   2.028  0.8100 -1.6363  0.6398
  765MOL0     H 3250   7.337   5.534   2.172 -0.4184  1.2731  0.7799
  765MOL0     H 3251   7.057   5.632   2.188  1.1407 -1.5617  0.7911
  765MOL0     H 3252   7.182   5.688   2.285  0.9665 -1.4191 -0.2434
  765MOL0     H 3253   7.169   5.744   1.985 -4.7815  2.8188 -0.0414
  765MOL0     H 3254   7.286   5.806   2.088  0.4359 -0.9772 -0.8639
  765MOL0     H 3255   6.985   5.883   2.073  1.5147  0.6707 -4.0696
  765MOL0     H 3256   7.128   5.978   2.038 -1.3102 -0.5642 -2.3463
  765MOL0     H 3257   7.302   4.826   2.342 -0.8704  1.1630 -1.3625
  765MOL0     H 3258   7.383   4.600   2.320 -1.8041  1.8753 -0.1045
  765MOL0     H 3259   7.593   4.345   2.070 -0.6654 -3.0171 -1.9860
  765MOL0     H 3260   7.676   4.159   1.919 -2.0687  0.5847  2.1350
  765MOL0     H 3261   8.747   3.421   1.533  0.2251 -0.0596  1.2241
  765MOL0     H 3262   8.939   3.485   1.371  2.1592 -1.1517 -2.6141
  765MOL0     H 3263   9.442   3.369   1.374 -0.3804  1.4880  0.0440
  765MOL0     H 3264   9.663   3.410   1.264  1.7100 -2.2016 -0.6764
  765MOL0     H 3265   9.801   3.513   1.135 -3.2800 -0.7654  0.1872
  765MOL0     H 3266   9.853   3.378   1.040 -0.3396 -1.3520 -0.0877
  765MOL0     H 3267   9.830   3.666   0.918 -3.2635 -0.9279  1.8527
  765MOL0     H 3268   9.896   3.516   0.835  1.6229 -0.5426  1.7323
  765MOL0     H 3269  10.086   3.627   0.900  1.2348 -0.0951 -0.1804
  765MOL0     H 3270  10.067   3.486   0.999  2.8212  1.7230 -0.0229
  765MOL0     H 3271  10.030   3.639   1.195  1.6133  0.2795  0.4721
  765MOL0     H 3272   9.958   3.760   1.095 -1.5230 -2.3801  0.6923
  765MOL0     H 3273  10.339   3.909   1.119  0.1222 -0.6738  2.0850
  765MOL0     H 3274   9.442   3.394   0.879  0.5578  2.1594 -1.0845
  765MOL0     H 3275   9.243   3.332   1.000 -1.2509 -0.0210  0.5513
  766MOL0     O 3276   8.263   0.564   9.695  0.3175  0.0157  0.4316
  766MOL0     C 3277   8.385   0.584   9.683 -0.3975  0.4671  1.0744
  766MOL0     O 3278   8.456   0.580   9.566  0.4603  0.5064  0.2088
  766MOL0     C 3279   8.400   0.544   9.441  0.7975 -0.2347 -0.1897
  766MOL0     C 3280   8.277   0.610   9.403  0.2452 -0.2006  0.0593
  766MOL0     C 3281   8.217   0.577   9.283  0.3088 -0.9971  0.8736
  766MOL0     C 3282   8.279   0.491   9.196 -0.1900  1.0460  0.8439
  766MOL0     O 3283   8.234   0.461   9.069  0.6719 -0.5181 -1.0301
  766MOL0     C 3284   8.170   0.333   9.059 -0.2573 -0.5224  0.8688
  766MOL0     C 3285   8.043   0.337   8.970  0.1097  0.3572 -0.4659
  766MOL0     C 3286   7.932   0.370   9.056  0.4368 -0.2736  0.0482
  766MOL0     C 3287   7.796   0.346   8.989  0.6910 -0.0642 -0.1513
  766MOL0     C 3288   7.704   0.449   9.047 -0.3610  0.6204  0.8402
  766MOL0     C 3289   7.670   0.416   9.199 -0.3020 -0.0212  0.2616
  766MOL0     C 3290   7.535   0.482   9.239  0.4865  0.8865 -0.8596
  766MOL0     C 3291   7.565   0.631   9.275 -0.8967  0.1774 -0.2994
  766MOL0     N 3292   7.450   0.711   9.324  0.2093  0.4213  0.0449
  766MOL0     C 3293   7.337   0.726   9.251  0.5905 -0.0925 -0.6288
  766MOL0     C 3294   7.252   0.797   9.330  0.1048  0.6122 -0.1913
  766MOL0     C 3295   7.117   0.846   9.285  0.0447 -0.4197  0.4036
  766MOL0     C 3296   7.063   0.956   9.378 -0.0997 -0.0929 -0.0790
  766MOL0     C 3297   6.912   0.976   9.352  0.1302  1.0284  0.7494
  766MOL0     C 3298   6.824   0.889   9.432  1.6164 -0.1788 -0.3256
  766MOL0     O 3299   6.685   0.911   9.430 -0.3326 -0.4900  0.1892
  766MOL0     C 3300   6.604   0.830   9.506  0.0386  1.6392  0.0247
  766MOL0     C 3301   6.608   0.686   9.487  0.4995  0.0162 -1.1041
  766MOL0     C 3302   6.525   0.598   9.558 -0.1152  0.3975 -0.2401
  766MOL0     C 3303   6.571   0.448   9.558  0.1836  0.5070  0.7680
  766MOL0     C 3304   6.431   0.645   9.642 -0.3467 -0.4931  0.2105
  766MOL0     C 3305   6.352   0.560   9.741  0.4811  0.1365 -1.2684
  766MOL0     O 3306   6.401   0.538   9.863 -0.0168  0.5309  0.1048
  766MOL0     C 3307   6.327   0.455   9.943 -0.7367  0.2197 -0.2212
  766MOL0     C 3308   6.387   0.333   9.975 -0.4109  0.8145 -0.2433
  766MOL0     C 3309   6.324   0.235  10.055 -0.2706 -0.2487  0.5721
  766MOL0     C 3310   6.196   0.252  10.106  0.5489  0.3957  0.2951
  766MOL0     O 3311   6.152   0.167  10.204  0.3685 -0.4801 -0.1447
  766MOL0     C 3312   6.012   0.164  10.225  0.4988  0.1050 -0.5472
  766MOL0     C 3313   5.970   0.042  10.304  0.5850  0.8242  0.2509
  766MOL0     C 3314   6.046  -0.089  10.259  1.3771  0.5273 -0.4412
  766MOL0     C 3315   5.968  -0.162  10.144  0.2102 -0.2687  0.1452
  766MOL0     C 3316   6.032  -0.298  10.109 -0.1240  0.0245  0.3157
  766MOL0     C 3317   5.988  -0.413  10.213 -0.0354  0.3937  0.0964
  766MOL0     C 3318   6.083  -0.533  10.194 -0.4406  0.3166 -0.3827
  766MOL0     C 3319   6.043  -0.648  10.275 -0.2816  1.1596 -0.1804
  766MOL0    Cl 3320   6.039  -0.627  10.454  0.3447  0.0814 -0.4120
  766MOL0     C 3321   6.128   0.367  10.066  0.4213 -0.4302  0.5861
  766MOL0     C 3322   6.195   0.469   9.984  0.1953  0.6574 -0.2486
  766MOL0     O 3323   6.256   0.503   9.688 -0.0262  0.2847 -0.1075
  766MOL0     C 3324   6.435   0.786   9.666 -0.1602 -0.5557  0.0988
  766MOL0     C 3325   6.514   0.884   9.601 -0.4427  0.6565  0.0004
  766MOL0     N 3326   7.318   0.823   9.451 -0.2766 -0.0836 -0.2540
  766MOL0     N 3327   7.433   0.763   9.450 -0.2083 -0.7799  0.8744
  766MOL0     C 3328   8.395   0.426   9.228 -0.7469  0.5737 -0.0962
  766MOL0     C 3329   8.456   0.450   9.357 -0.0334 -0.9264 -0.7154
  766MOL0     C 3330   8.456   0.626   9.809  0.3026 -0.3810 -0.4447
  766MOL0     C 3331   8.588   0.680   9.793  0.3159 -0.6899 -0.0012
  766MOL0     C 3332   8.651   0.754   9.897  0.6841  0.4752 -0.5000
  766MOL0     C 3333   8.600   0.756  10.029 -0.7591 -0.1235  0.8004
  766MOL0     O 3334   8.657   0.825  10.129 -0.5594 -0.6624  0.4433
  766MOL0     C 3335   8.707   0.960  10.103 -0.6563  0.0339  0.9379
  766MOL0     C 3336   8.709   1.039  10.231 -1.2286 -1.0656 -0.1260
  766MOL0     C 3337   8.825   0.997  10.325  0.1260  0.6440  0.5002
  766MOL0     C 3338   8.966   0.993  10.279  0.6268  0.8648 -0.2308
  766MOL0     C 3339   9.046   0.937  10.387 -0.3984  0.5360 -0.0394
  766MOL0     C 3340   9.099   0.892  10.487 -0.0483 -0.7032 -0.1028
  766MOL0     C 3341   8.489   0.682  10.052  0.1373  0.0450 -0.5258
  766MOL0     C 3342   8.406   0.629   9.946  0.6587 -0.0801  0.8720
  766MOL0     H 3343   8.227   0.676   9.473  0.1342  1.0292 -1.1380
  766MOL0     H 3344   8.130   0.636   9.254  0.1079 -1.4539  0.5373
  766MOL0     H 3345   8.249   0.273   9.013 -1.9582 -2.5843  0.5120
  766MOL0     H 3346   8.156   0.285   9.156 -1.4244 -3.9938 -0.8616
  766MOL0     H 3347   8.057   0.410   8.889 -1.6752 -1.7929 -2.9121
  766MOL0     H 3348   8.019   0.237   8.931 -0.9290  0.1081  0.7516
  766MOL0     H 3349   7.929   0.315   9.150 -1.0693  0.0473  0.2114
  766MOL0     H 3350   7.936   0.475   9.089 -2.2575 -0.3261  0.7422
  766MOL0     H 3351   7.798   0.368   8.882 -0.5490 -0.8873 -0.3607
  766MOL0     H 3352   7.758   0.243   8.997  0.3407 -0.1484 -2.3750
  766MOL0     H 3353   7.749   0.548   9.042  1.5753  0.1921  5.0080
  766MOL0     H 3354   7.612   0.444   8.988  0.4035 -2.8734 -0.3118
  766MOL0     H 3355   7.664   0.308   9.211 -1.3597 -0.0803 -0.6074
  766MOL0     H 3356   7.756   0.453   9.255  0.2494  0.6406 -0.9830
  766MOL0     H 3357   7.465   0.478   9.156  0.3584  2.3001 -0.8418
  766MOL0     H 3358   7.498   0.433   9.330  0.8101 -0.1955 -1.2990
  766MOL0     H 3359   7.596   0.689   9.187 -1.4388  1.8586  0.5851
  766MOL0     H 3360   7.643   0.629   9.351 -1.9310 -1.0249  0.7840
  766MOL0     H 3361   7.310   0.687   9.153 -1.2153  0.5708 -0.4418
  766MOL0     H 3362   7.126   0.881   9.182 -2.2052 -1.3562 -0.1667
  766MOL0     H 3363   7.042   0.767   9.280 -1.6075  1.1559 -1.0619
  766MOL0     H 3364   7.121   1.047   9.365  1.0348 -0.8941 -0.8771
  766MOL0     H 3365   7.078   0.935   9.484  1.8515 -3.1704 -0.8311
  766MOL0     H 3366   6.890   0.954   9.247  0.7891  0.1079  0.7916
  766MOL0     H 3367   6.904   1.083   9.371  1.5687  1.4886 -0.9894
  766MOL0     H 3368   6.854   0.898   9.537 -0.0422  0.5274  0.1188
  766MOL0     H 3369   6.842   0.784   9.408  0.4841 -0.7566  1.1805
  766MOL0     H 3370   6.689   0.650   9.425 -0.7724 -0.9031 -2.3066
  766MOL0     H 3371   6.679   0.445   9.538  0.2163  0.3661  0.9687
  766MOL0     H 3372   6.550   0.409   9.658 -1.3140  2.9424  1.4703
  766MOL0     H 3373   6.542   0.384   9.473  2.4954  0.6873 -0.2527
  766MOL0     H 3374   6.489   0.310   9.948  0.2454 -0.1075  2.6432
  766MOL0     H 3375   6.379   0.144  10.077 -0.9351 -0.2046  2.5137
  766MOL0     H 3376   5.986   0.254  10.283  1.1112 -0.2232  0.2595
  766MOL0     H 3377   5.954   0.181  10.134 -0.1086  2.6520  0.2185
  766MOL0     H 3378   5.999   0.067  10.406  1.3912  0.9089  0.0070
  766MOL0     H 3379   5.862   0.023  10.300  0.8622 -0.7351 -2.7172
  766MOL0     H 3380   6.037  -0.157  10.344 -1.0439  0.1051 -0.9742
  766MOL0     H 3381   6.151  -0.071  10.234  1.9340 -1.7129  0.0763
  766MOL0     H 3382   5.864  -0.181  10.171  0.0261 -1.8405 -1.4895
  766MOL0     H 3383   5.980  -0.107  10.050 -0.0090 -0.0082  0.2712
  766MOL0     H 3384   6.141  -0.290  10.112 -0.2395  1.6995  0.7685
  766MOL0     H 3385   6.004  -0.334  10.009 -0.6804  0.8164  0.1755
  766MOL0     H 3386   5.986  -0.381  10.318 -3.3603  0.0495  0.2667
  766MOL0     H 3387   5.884  -0.437  10.190  0.1328  1.3427 -1.8297
  766MOL0     H 3388   6.188  -0.521  10.223 -1.2696  1.8148  2.3679
  766MOL0     H 3389   6.072  -0.558  10.089  0.7491  2.3969 -1.0597
  766MOL0     H 3390   6.103  -0.738  10.257 -0.1015  1.4033 -0.8210
  766MOL0     H 3391   5.943  -0.675  10.239 -0.1517  0.0674  0.2276
  766MOL0     H 3392   6.028   0.393  10.098  0.3309 -0.4309  0.2985
  766MOL0     H 3393   6.142   0.563   9.970  1.8609  1.9416  1.5509
  766MOL0     H 3394   6.359   0.821   9.735  0.3775  1.1692 -0.1463
  766MOL0     H 3395   6.505   0.986   9.637 -2.1263 -0.1442  2.0292
  766MOL0     H 3396   8.442   0.353   9.162  3.2375  1.1977  1.7208
  766MOL0     H 3397   8.554   0.406   9.373  0.6970 -0.5236 -3.4964
  766MOL0     H 3398   8.627   0.680   9.691 -2.1121  1.3578 -1.0438
  766MOL0     H 3399   8.750   0.798   9.895  0.9278 -0.0300 -2.7762
  766MOL0     H 3400   8.807   0.946  10.059 -0.0777 -1.4218  2.5684
  766MOL0     H 3401   8.648   1.002  10.021  1.4730 -1.2465 -1.4373
  766MOL0     H 3402   8.615   1.031  10.286 -2.3694 -1.5154 -2.0485
  766MOL0     H 3403   8.719   1.144  10.200  2.7778 -0.5013  2.3230
  766MOL0     H 3404   8.802   0.900  10.369 -0.7074  1.3512  1.6694
  766MOL0     H 3405   8.837   1.071  10.405  0.5632  0.5203  0.5529
  766MOL0     H 3406   8.990   1.099  10.263  0.0278  0.7287 -2.3383
  766MOL0     H 3407   8.973   0.926  10.193 -1.6699 -5.7776  4.0039
  766MOL0     H 3408   9.146   0.855  10.576 -0.8432 -2.8502 -0.5111
  766MOL0     H 3409   8.458   0.695  10.155 -2.4593  0.8177 -1.3268
  766MOL0     H 3410   8.311   0.579   9.964 -1.0580  2.3903 -0.7219
  767MOL0     O 3411   1.658   0.896   0.356 -0.4693 -0.1305 -1.0011
  767MOL0     C 3412   1.708   1.011   0.351 -0.3808  1.4331  0.9097
  767MOL0     O 3413   1.687   1.110   0.443 -0.3192  0.9919 -0.1512
  767MOL0     C 3414   1.583   1.095   0.535 -1.0754  0.2288  0.5428
  767MOL0     C 3415   1.606   1.140   0.665  0.9073 -0.1611 -0.2874
  767MOL0     C 3416   1.497   1.145   0.757  0.5801 -0.4076 -0.3464
  767MOL0     C 3417   1.368   1.112   0.727 -0.0080 -0.6580 -0.2914
  767MOL0     O 3418   1.266   1.125   0.823 -0.6233  0.0400 -0.2802
  767MOL0     C 3419   1.129   1.126   0.782  1.4331 -0.4637 -0.5786
  767MOL0     C 3420   1.056   1.167   0.921 -0.1864 -0.5731 -0.3536
  767MOL0     C 3421   0.903   1.153   0.906 -0.0395  0.3806  0.4704
  767MOL0     C 3422   0.840   1.176   1.042  0.1717 -0.1542  0.1930
  767MOL0     C 3423   0.683   1.203   1.016  0.5513 -0.4028 -0.7999
  767MOL0     C 3424   0.608   1.196   1.143 -0.4011 -0.3390 -0.5322
  767MOL0     C 3425   0.458   1.220   1.149 -0.9050  0.2327  0.3467
  767MOL0     C 3426   0.401   1.204   1.294  0.6925 -0.2148  0.7700
  767MOL0     N 3427   0.254   1.226   1.305  0.4146  0.0121 -0.1534
  767MOL0     C 3428   0.207   1.342   1.352 -0.4984  0.3001  0.3487
  767MOL0     C 3429   0.073   1.334   1.331  0.7128  0.5017  0.6298
  767MOL0     C 3430  -0.037   1.434   1.339 -0.6744 -1.2445  0.3969
  767MOL0     C 3431  -0.091   1.463   1.484 -0.0964 -0.5286  0.3583
  767MOL0     C 3432  -0.011   1.576   1.550  1.1185 -0.0356 -0.5394
  767MOL0     C 3433  -0.071   1.608   1.689  0.3756 -0.8153 -0.3630
  767MOL0     O 3434   0.008   1.726   1.725  0.5391  0.3678 -0.0615
  767MOL0     C 3435   0.023   1.755   1.859 -0.2373  0.4675  0.0218
  767MOL0     C 3436   0.141   1.820   1.898 -0.7375 -0.2286  0.4705
  767MOL0     C 3437   0.181   1.845   2.027 -0.1331 -0.3566 -0.4110
  767MOL0     C 3438   0.318   1.905   2.040 -0.8512 -0.1852  0.4550
  767MOL0     C 3439   0.084   1.836   2.127 -0.0171 -0.1713 -0.4579
  767MOL0     C 3440   0.091   1.878   2.269 -0.2317 -0.4909 -0.0220
  767MOL0     O 3441  -0.004   1.861   2.350  0.2099 -0.2464 -0.8216
  767MOL0     C 3442  -0.003   1.908   2.475  1.5632 -0.9393 -0.6611
  767MOL0     C 3443   0.048   1.836   2.579 -0.4309  0.8621  0.5215
  767MOL0     C 3444   0.033   1.887   2.710  0.4778 -0.4598 -1.2064
  767MOL0     C 3445   0.007   2.020   2.746 -0.1493  0.1769  0.0339
  767MOL0     O 3446  -0.000   2.078   2.870 -0.2332  0.7538  0.2193
  767MOL0     C 3447  -0.035   1.982   2.977 -0.6347 -0.2428 -0.4142
  767MOL0     C 3448  -0.185   1.940   2.958 -1.0638 -0.4620 -0.4527
  767MOL0     C 3449  -0.287   2.052   2.951  1.0753  0.3515 -0.2476
  767MOL0     C 3450  -0.366   2.059   2.813 -0.1614  0.2169 -0.6873
  767MOL0     C 3451  -0.470   2.168   2.816  0.1896 -0.2031  0.5909
  767MOL0     C 3452  -0.589   2.135   2.907  0.7831 -1.1840 -0.5724
  767MOL0     C 3453  -0.702   2.245   2.895  0.3031  0.1495 -0.6399
  767MOL0     C 3454  -0.816   2.241   3.001  0.8214 -0.2888 -0.0398
  767MOL0    Cl 3455  -0.921   2.107   2.949 -0.5519  0.1451 -0.2141
  767MOL0     C 3456  -0.012   2.100   2.632 -1.1415 -1.0746 -0.4232
  767MOL0     C 3457  -0.022   2.047   2.501 -0.0581  0.8780 -0.2343
  767MOL0     O 3458   0.191   1.945   2.291  0.3935 -0.3152 -0.2016
  767MOL0     C 3459  -0.040   1.771   2.095  0.0711  0.3257  0.3503
  767MOL0     C 3460  -0.070   1.728   1.967  0.0930  0.0999 -0.3546
  767MOL0     N 3461   0.037   1.219   1.261  0.1285 -0.0452 -0.2413
  767MOL0     N 3462   0.157   1.150   1.251  0.0930  0.7382 -0.8455
  767MOL0     C 3463   1.347   1.078   0.595  0.7204 -0.5348 -0.5032
  767MOL0     C 3464   1.452   1.067   0.503 -0.0080  0.3943  0.2046
  767MOL0     C 3465   1.791   1.052   0.235  0.8221  0.3772  0.0063
  767MOL0     C 3466   1.864   0.960   0.165  0.4718 -0.0967  0.3811
  767MOL0     C 3467   1.934   0.994   0.052  0.0854 -0.6823 -0.7022
  767MOL0     C 3468   1.912   1.118  -0.001 -0.4009  0.4645  0.2669
  767MOL0     O 3469   1.971   1.146  -0.123  0.0850 -0.2819 -0.0752
  767MOL0     C 3470   1.982   1.276  -0.177 -0.2378 -0.2684 -0.9296
  767MOL0     C 3471   1.867   1.333  -0.262  0.0054 -0.5966  0.0561
  767MOL0     C 3472   1.837   1.249  -0.385  0.0547  0.1713 -0.8064
  767MOL0     C 3473   1.764   1.342  -0.486  0.5435 -0.3471 -0.7920
  767MOL0     C 3474   1.710   1.264  -0.600 -1.0048  0.9074  0.3194
  767MOL0     C 3475   1.668   1.195  -0.691  0.3283  0.0773 -0.1023
  767MOL0     C 3476   1.841   1.223   0.071  0.5178 -0.0199 -1.1176
  767MOL0     C 3477   1.780   1.182   0.188 -0.1064  0.1723 -0.1183
  767MOL0     H 3478   1.707   1.174   0.686  0.6935  0.2230  0.1499
  767MOL0     H 3479   1.517   1.165   0.862 -2.2438 -0.5499  0.3130
  767MOL0     H 3480   1.120   1.200   0.702 -0.8673 -0.3347 -0.2672
  767MOL0     H 3481   1.098   1.028   0.746  2.2060  0.0539 -2.8128
  767MOL0     H 3482   1.083   1.099   1.002  1.4338 -0.5745 -0.8594
  767MOL0     H 3483   1.084   1.271   0.942 -1.6787 -0.5787  2.0469
  767MOL0     H 3484   0.860   1.234   0.846  2.1908  0.1872 -1.4894
  767MOL0     H 3485   0.873   1.051   0.882  0.0098 -0.3710  3.2538
  767MOL0     H 3486   0.849   1.090   1.109 -1.7857 -0.4186  0.1918
  767MOL0     H 3487   0.874   1.264   1.098  0.2803 -1.0570  1.6127
  767MOL0     H 3488   0.681   1.306   0.980  1.0779 -0.6137 -1.4468
  767MOL0     H 3489   0.632   1.147   0.938  0.0544  1.7760 -2.1152
  767MOL0     H 3490   0.629   1.099   1.189  2.3315 -0.5007 -1.9527
  767MOL0     H 3491   0.650   1.276   1.205 -2.4318  1.6442 -1.5414
  767MOL0     H 3492   0.432   1.318   1.109  2.9423  1.4560  0.5223
  767MOL0     H 3493   0.403   1.139   1.099 -0.1455  0.3130 -0.6490
  767MOL0     H 3494   0.455   1.273   1.359 -0.6973  0.9826  0.7164
  767MOL0     H 3495   0.427   1.101   1.318  1.5261 -0.5007 -1.1299
  767MOL0     H 3496   0.268   1.415   1.404  3.0013 -1.7030 -0.6852
  767MOL0     H 3497  -0.002   1.525   1.289  2.4248 -0.3849  3.6967
  767MOL0     H 3498  -0.127   1.398   1.289 -1.8894 -1.0914  2.3397
  767MOL0     H 3499  -0.086   1.375   1.548 -1.1849  0.5557  2.0371
  767MOL0     H 3500  -0.194   1.499   1.492 -0.2144 -1.0344  1.1912
  767MOL0     H 3501  -0.008   1.668   1.491  0.9347 -0.0119 -0.5142
  767MOL0     H 3502   0.091   1.542   1.566  0.4837 -1.1914  1.4328
  767MOL0     H 3503  -0.046   1.531   1.763  0.7647  0.0595  0.4357
  767MOL0     H 3504  -0.176   1.638   1.681  0.3463 -0.3177  1.4785
  767MOL0     H 3505   0.196   1.846   1.808 -1.1587  0.4170  0.3905
  767MOL0     H 3506   0.370   1.869   2.129 -4.0696  0.7247  2.8611
  767MOL0     H 3507   0.374   1.896   1.946 -1.4106  0.6498  0.0316
  767MOL0     H 3508   0.306   2.013   2.048  0.8795  0.0882 -0.0839
  767MOL0     H 3509   0.090   1.739   2.553  2.0965  1.1447  3.1084
  767MOL0     H 3510   0.060   1.825   2.796  0.0050 -0.1560 -0.8367
  767MOL0     H 3511   0.033   1.896   2.975 -0.5338 -0.1602 -1.8597
  767MOL0     H 3512  -0.016   2.033   3.072  1.3159  0.1106 -0.9390
  767MOL0     H 3513  -0.183   1.897   2.857 -2.6254 -1.4713 -0.0860
  767MOL0     H 3514  -0.209   1.879   3.045  0.6640 -0.7564 -0.1503
  767MOL0     H 3515  -0.235   2.146   2.970  0.5859  0.6160 -0.1923
  767MOL0     H 3516  -0.350   2.042   3.039  2.6360 -2.9563  0.6169
  767MOL0     H 3517  -0.297   2.067   2.729  0.7140  1.0415  0.0714
  767MOL0     H 3518  -0.408   1.959   2.798 -2.0733  0.6973  1.0108
  767MOL0     H 3519  -0.513   2.186   2.717  1.3604  0.6078  0.2097
  767MOL0     H 3520  -0.426   2.263   2.848 -0.1383 -1.1707  4.4234
  767MOL0     H 3521  -0.627   2.034   2.891  1.2385 -1.6335  0.9459
  767MOL0     H 3522  -0.558   2.136   3.012 -0.2499  2.1036 -0.1957
  767MOL0     H 3523  -0.742   2.256   2.794  0.6436  1.0093 -0.6824
  767MOL0     H 3524  -0.648   2.339   2.907  0.9730  0.2677 -3.8434
  767MOL0     H 3525  -0.870   2.337   3.000 -1.7374 -1.6334 -1.0411
  767MOL0     H 3526  -0.784   2.217   3.102 -0.1138  0.2883  0.4016
  767MOL0     H 3527  -0.035   2.204   2.653 -0.0407 -0.5493 -1.6434
  767MOL0     H 3528  -0.051   2.107   2.416  0.0730  1.7690  0.3431
  767MOL0     H 3529  -0.109   1.756   2.178  1.5702  1.7240  1.9219
  767MOL0     H 3530  -0.165   1.681   1.946 -1.0325  2.6181 -1.2703
  767MOL0     H 3531   1.247   1.051   0.563 -0.4101 -1.2648  3.1199
  767MOL0     H 3532   1.433   1.031   0.403 -2.3321  0.3787  0.5945
  767MOL0     H 3533   1.879   0.861   0.207  0.1093 -0.9645 -1.4234
  767MOL0     H 3534   2.011   0.929   0.014  0.0322 -0.4583 -1.1935
  767MOL0     H 3535   2.015   1.349  -0.103 -1.9849 -1.1785  0.8455
  767MOL0     H 3536   2.065   1.262  -0.247 -3.4493 -2.3305 -4.7626
  767MOL0     H 3537   1.895   1.433  -0.297 -0.7650  0.4106  2.1515
  767MOL0     H 3538   1.777   1.343  -0.201 -0.2308  2.2385 -0.6019
  767MOL0     H 3539   1.767   1.173  -0.350  0.7078 -0.5500 -1.0414
  767MOL0     H 3540   1.924   1.214  -0.442 -1.3918  0.4424 -3.3358
  767MOL0     H 3541   1.826   1.421  -0.530  0.6702 -0.5531 -0.9852
  767MOL0     H 3542   1.676   1.388  -0.440 -1.9832 -1.7883 -3.7839
  767MOL0     H 3543   1.634   1.138  -0.775 -1.0702 -2.7596  2.1972
  767MOL0     H 3544   1.848   1.326   0.041 -0.5902  0.0603 -1.1648
  767MOL0     H 3545   1.724   1.250   0.250 -2.9971 -2.4699  0.3867
  768MOL0     O 3546   7.309   7.750   0.026  0.3044  0.6080  0.1513
  768MOL0     C 3547   7.301   7.838   0.102  0.0348 -0.1356 -0.3882
  768MOL0     O 3548   7.189   7.908   0.137 -0.5516  0.4785  0.5367
  768MOL0     C 3549   7.070   7.878   0.071  0.3445 -0.4262  0.1360
  768MOL0     C 3550   7.034   7.782  -0.029  0.6350 -0.8512  0.2027
  768MOL0     C 3551   6.903   7.774  -0.070 -0.2460 -0.1887 -0.6525
  768MOL0     C 3552   6.803   7.861  -0.013  0.2337 -0.2302  0.7607
  768MOL0     O 3553   6.667   7.834  -0.041 -0.6079  0.2643 -0.3975
  768MOL0     C 3554   6.605   7.932  -0.123  0.9663 -0.0256 -0.0856
  768MOL0     C 3555   6.453   7.912  -0.094 -0.3366  0.3556  0.3819
  768MOL0     C 3556   6.396   7.795  -0.172  0.0643  0.2024 -1.0247
  768MOL0     C 3557   6.253   7.762  -0.112 -0.6624  1.5883  0.2393
  768MOL0     C 3558   6.174   7.674  -0.209  0.3632  0.2464  0.5653
  768MOL0     C 3559   6.029   7.677  -0.181 -0.1703 -0.1789 -0.3165
  768MOL0     C 3560   5.950   7.574  -0.266  0.3359 -0.0182  0.0743
  768MOL0     C 3561   5.807   7.616  -0.309 -0.1741 -0.1455 -0.5028
  768MOL0     N 3562   5.735   7.499  -0.359 -0.6913 -0.0403 -0.5708
  768MOL0     C 3563   5.610   7.459  -0.319  0.2891  0.1040 -0.1131
  768MOL0     C 3564   5.585   7.356  -0.399  0.0133  0.4552  0.6059
  768MOL0     C 3565   5.469   7.268  -0.423 -0.3444 -0.3838  0.4034
  768MOL0     C 3566   5.365   7.331  -0.520  0.0087  0.7292  0.6660
  768MOL0     C 3567   5.346   7.477  -0.491 -0.0653  0.1760  0.2703
  768MOL0     C 3568   5.232   7.544  -0.565  1.0739  0.1087 -0.0760
  768MOL0     O 3569   5.099   7.495  -0.510  0.1296  0.2077  0.3220
  768MOL0     C 3570   4.988   7.553  -0.556 -0.1248 -0.0213  0.4339
  768MOL0     C 3571   4.991   7.660  -0.657 -0.6153  1.0664 -1.1595
  768MOL0     C 3572   4.868   7.713  -0.699  0.5739 -0.3792  0.1800
  768MOL0     C 3573   4.887   7.821  -0.814  0.2510  0.4964 -0.9892
  768MOL0     C 3574   4.749   7.674  -0.629 -0.9254  0.7837  0.4996
  768MOL0     C 3575   4.624   7.757  -0.624 -0.1386 -0.1794 -0.4660
  768MOL0     O 3576   4.514   7.709  -0.558  0.4642 -0.2315 -0.0473
  768MOL0     C 3577   4.406   7.784  -0.541  1.0458 -0.6903 -0.1448
  768MOL0     C 3578   4.289   7.744  -0.601  0.2365 -0.3705  0.3050
  768MOL0     C 3579   4.170   7.817  -0.594 -0.7754  0.7714 -0.8049
  768MOL0     C 3580   4.165   7.925  -0.501  0.1484  0.2533 -1.0514
  768MOL0     O 3581   4.051   8.003  -0.476 -0.1668 -0.6755 -0.3004
  768MOL0     C 3582   3.918   7.941  -0.500 -0.6035 -0.2909  0.0851
  768MOL0     C 3583   3.815   8.039  -0.458 -0.6357 -0.1809 -0.5940
  768MOL0     C 3584   3.674   7.975  -0.465 -0.3319  0.5084 -0.4653
  768MOL0     C 3585   3.586   8.099  -0.412 -0.4563  0.0695  0.1923
  768MOL0     C 3586   3.435   8.068  -0.451 -0.7940 -0.0360 -0.3741
  768MOL0     C 3587   3.339   8.165  -0.375 -0.0602  0.2010 -1.1285
  768MOL0     C 3588   3.201   8.140  -0.428 -0.1820  0.5987  0.9366
  768MOL0     C 3589   3.090   8.219  -0.344  0.9238 -0.5260 -0.2879
  768MOL0    Cl 3590   2.929   8.188  -0.436  0.0680  0.0786 -0.0985
  768MOL0     C 3591   4.277   7.947  -0.420 -0.4602  0.9036 -0.5343
  768MOL0     C 3592   4.401   7.885  -0.440  0.4457 -1.4384 -0.0919
  768MOL0     O 3593   4.631   7.866  -0.678  0.1557 -0.5437  0.1897
  768MOL0     C 3594   4.756   7.558  -0.549  0.8475  0.1221  0.4673
  768MOL0     C 3595   4.875   7.502  -0.518  0.9644  0.4185 -0.0584
  768MOL0     N 3596   5.688   7.347  -0.491 -0.3805  0.5491  1.2147
  768MOL0     N 3597   5.779   7.437  -0.468 -0.6119  0.3385  0.2500
  768MOL0     C 3598   6.835   7.950   0.087  0.3334  0.4711  0.8373
  768MOL0     C 3599   6.966   7.948   0.133 -0.4240  0.5033 -0.6842
  768MOL0     C 3600   7.435   7.879   0.160  0.9796 -0.5939 -0.6569
  768MOL0     C 3601   7.450   8.010   0.209 -0.1501  0.1338  0.4040
  768MOL0     C 3602   7.559   8.039   0.285 -0.0613 -0.0773  0.2618
  768MOL0     C 3603   7.665   7.952   0.295  0.6478  0.3365 -0.1358
  768MOL0     O 3604   7.787   7.980   0.355 -1.5243 -0.3021  1.1886
  768MOL0     C 3605   7.813   8.123   0.386  0.5509  0.5566  0.3244
  768MOL0     C 3606   7.860   8.188   0.254 -0.6900  0.3717  0.6264
  768MOL0     C 3607   7.977   8.115   0.193  0.1986 -0.3567  0.2547
  768MOL0     C 3608   7.988   8.137   0.042 -0.6379 -0.7489  0.7484
  768MOL0     C 3609   8.081   8.032  -0.007  0.3290 -1.0177  0.1071
  768MOL0     C 3610   8.155   7.947  -0.041  0.4058  1.3497 -0.4725
  768MOL0     C 3611   7.651   7.825   0.240  0.3689  0.4739 -0.2051
  768MOL0     C 3612   7.539   7.785   0.164 -1.4489 -0.6251 -0.6714
  768MOL0     H 3613   7.112   7.719  -0.071  0.9353 -0.3831  0.0492
  768MOL0     H 3614   6.875   7.709  -0.152  0.7903  0.1777 -1.3188
  768MOL0     H 3615   6.625   8.032  -0.083 -0.6466 -0.7073  2.6712
  768MOL0     H 3616   6.626   7.920  -0.230  2.1108  0.6781  0.0436
  768MOL0     H 3617   6.439   7.915   0.014  1.2202 -5.0806  1.0395
  768MOL0     H 3618   6.408   8.000  -0.140 -1.5484 -0.9192 -1.0188
  768MOL0     H 3619   6.390   7.819  -0.279  2.4770  2.2356 -0.7914
  768MOL0     H 3620   6.463   7.710  -0.159 -2.1681 -1.2552  2.6201
  768MOL0     H 3621   6.250   7.707  -0.018 -0.0229 -0.7219 -1.0082
  768MOL0     H 3622   6.198   7.852  -0.082 -1.8696  0.3679  1.9052
  768MOL0     H 3623   6.193   7.707  -0.311  1.5758 -0.9877  0.3672
  768MOL0     H 3624   6.210   7.572  -0.191  1.7816  0.6198 -0.0884
  768MOL0     H 3625   6.016   7.658  -0.074  2.7200 -0.6552  0.0316
  768MOL0     H 3626   5.972   7.768  -0.204  0.6331  0.7213  1.1012
  768MOL0     H 3627   6.001   7.552  -0.360  0.8333 -2.5973  0.8699
  768MOL0     H 3628   5.948   7.483  -0.205  1.3554  0.6125  1.0945
  768MOL0     H 3629   5.800   7.706  -0.371  3.7898  1.5490  1.1684
  768MOL0     H 3630   5.752   7.642  -0.218 -0.7732  0.7432 -1.1033
  768MOL0     H 3631   5.554   7.516  -0.245  3.3842  3.4743 -0.0906
  768MOL0     H 3632   5.503   7.171  -0.460 -0.3285 -0.4193  0.5110
  768MOL0     H 3633   5.439   7.259  -0.318 -0.6164 -2.1857  0.1969
  768MOL0     H 3634   5.262   7.295  -0.513  0.4711 -1.6898 -2.8425
  768MOL0     H 3635   5.405   7.309  -0.619  0.9531 -0.1986  1.2356
  768MOL0     H 3636   5.436   7.527  -0.525 -0.5957 -0.1869 -1.7952
  768MOL0     H 3637   5.328   7.492  -0.384  0.2594  0.3134  0.3048
  768MOL0     H 3638   5.236   7.514  -0.670 -2.1036 -0.4294 -0.1256
  768MOL0     H 3639   5.235   7.653  -0.558 -4.3944  0.8476 -3.1998
  768MOL0     H 3640   5.083   7.687  -0.708  0.0715  0.3409 -0.3381
  768MOL0     H 3641   4.981   7.813  -0.870  0.8777 -1.5057  0.2360
  768MOL0     H 3642   4.805   7.829  -0.885  1.0396  1.2993 -1.8396
  768MOL0     H 3643   4.894   7.919  -0.765  0.2704 -0.1625  0.3880
  768MOL0     H 3644   4.294   7.665  -0.675 -1.0352  0.8251 -1.1278
  768MOL0     H 3645   4.095   7.780  -0.663 -0.3363 -1.9155  0.0505
  768MOL0     H 3646   3.907   7.922  -0.607  1.9599  0.7157 -0.4484
  768MOL0     H 3647   3.904   7.847  -0.446  1.5593 -1.5735 -1.4255
  768MOL0     H 3648   3.845   8.056  -0.354 -1.2118 -1.4539 -0.1984
  768MOL0     H 3649   3.826   8.122  -0.528 -1.9488 -1.8996 -3.0042
  768MOL0     H 3650   3.653   7.886  -0.405  0.4168 -1.3440 -2.7741
  768MOL0     H 3651   3.645   7.965  -0.570 -0.3678 -1.3981 -0.3185
  768MOL0     H 3652   3.589   8.097  -0.303 -0.6445 -1.7234  0.1862
  768MOL0     H 3653   3.614   8.197  -0.454  0.4393 -0.2366  0.0585
  768MOL0     H 3654   3.404   7.967  -0.424 -2.2479  0.7738  1.1420
  768MOL0     H 3655   3.429   8.086  -0.559  0.8364 -2.4526 -0.9593
  768MOL0     H 3656   3.347   8.148  -0.267 -2.3611  0.1567 -0.9193
  768MOL0     H 3657   3.378   8.267  -0.388 -0.0549  0.8953  3.0355
  768MOL0     H 3658   3.176   8.034  -0.427  1.0036  0.3145  1.4478
  768MOL0     H 3659   3.195   8.169  -0.533 -3.4437 -1.2479  0.4934
  768MOL0     H 3660   3.094   8.328  -0.339 -0.8633 -0.4434 -0.2773
  768MOL0     H 3661   3.080   8.184  -0.241 -1.8622 -0.4945 -0.4693
  768MOL0     H 3662   4.280   8.021  -0.341  0.8419  1.7958 -1.3859
  768MOL0     H 3663   4.477   7.889  -0.363  1.9392 -2.2405 -1.4752
  768MOL0     H 3664   4.672   7.513  -0.498  2.2031 -1.5572  1.3473
  768MOL0     H 3665   4.874   7.423  -0.444 -0.1265 -0.0402 -0.5363
  768MOL0     H 3666   6.760   8.018   0.124  1.2196  1.7708  0.3421
  768MOL0     H 3667   6.992   8.015   0.214 -0.8273 -0.4311  0.2434
  768MOL0     H 3668   7.374   8.086   0.191 -0.9015 -0.2244  1.8962
  768MOL0     H 3669   7.562   8.141   0.322  0.1247  0.3486 -0.8851
  768MOL0     H 3670   7.722   8.164   0.430 -1.1451 -2.7262  0.2056
  768MOL0     H 3671   7.885   8.142   0.466  1.0665 -3.8766  1.1624
  768MOL0     H 3672   7.885   8.294   0.271 -1.0064  0.5868 -0.2369
  768MOL0     H 3673   7.777   8.193   0.184 -0.5872 -1.8292  0.2945
  768MOL0     H 3674   7.971   8.006   0.205  0.3396 -0.5111 -0.9010
  768MOL0     H 3675   8.073   8.140   0.238 -2.0906  0.8219  5.1145
  768MOL0     H 3676   8.028   8.237   0.025 -3.0863 -0.0120 -1.4242
  768MOL0     H 3677   7.894   8.139  -0.015  0.4996  1.0170 -1.2439
  768MOL0     H 3678   8.237   7.879  -0.051  2.6869  3.6871  1.1056
  768MOL0     H 3679   7.735   7.762   0.268  0.1007  0.5477  0.8282
  768MOL0     H 3680   7.521   7.689   0.118 -0.3698 -1.2776  0.2355
  769MOL0     O 3681   5.506   5.905   5.793  0.3535  0.0235  0.2360
  769MOL0     C 3682   5.477   5.895   5.913 -0.0783 -0.1525 -0.7803
  769MOL0     O 3683   5.358   5.850   5.962  0.0938 -0.4044 -0.0446
  769MOL0     C 3684   5.258   5.854   5.872 -0.1878 -0.3296 -0.2974
  769MOL0     C 3685   5.194   5.980   5.847 -0.2853 -0.3345  0.5723
  769MOL0     C 3686   5.075   5.998   5.764  0.2647  0.1105 -0.0723
  769MOL0     C 3687   5.026   5.884   5.698 -0.7668 -0.4164  0.2286
  769MOL0     O 3688   4.933   5.878   5.598  0.4453  0.1308 -0.0264
  769MOL0     C 3689   4.830   5.974   5.597 -0.1946  0.4500  0.0947
  769MOL0     C 3690   4.747   5.932   5.472  0.6576 -0.2780  0.1531
  769MOL0     C 3691   4.703   5.786   5.477 -0.3164  0.1047  0.3760
  769MOL0     C 3692   4.559   5.775   5.426  0.3262 -0.1004  0.3331
  769MOL0     C 3693   4.547   5.749   5.270  0.8365 -0.7221 -1.0420
  769MOL0     C 3694   4.496   5.606   5.233 -0.1505  0.5148 -0.8261
  769MOL0     C 3695   4.354   5.577   5.298  1.1503  0.8358 -0.5453
  769MOL0     C 3696   4.242   5.589   5.202  0.2170  0.0246 -0.0245
  769MOL0     N 3697   4.203   5.727   5.188  0.1067  0.9038 -0.1676
  769MOL0     C 3698   4.233   5.798   5.070  0.0739  0.6342  0.3438
  769MOL0     C 3699   4.185   5.925   5.097  1.0271  0.4615  0.0076
  769MOL0     C 3700   4.195   6.035   4.998  0.1598 -0.1978 -0.5135
  769MOL0     C 3701   4.219   6.170   5.054 -0.0518 -0.6064 -0.0267
  769MOL0     C 3702   4.347   6.165   5.138 -0.6519 -0.5408  0.2379
  769MOL0     C 3703   4.361   6.308   5.202  0.9643  0.1040  0.2118
  769MOL0     O 3704   4.489   6.314   5.261 -0.1942  0.8705 -0.8307
  769MOL0     C 3705   4.507   6.297   5.396 -0.8686 -0.6711 -0.3826
  769MOL0     C 3706   4.463   6.195   5.483  0.3452  0.1131  1.1727
  769MOL0     C 3707   4.488   6.181   5.617 -0.1500  0.8684  0.3700
  769MOL0     C 3708   4.428   6.072   5.696  0.1310 -0.5330 -0.5978
  769MOL0     C 3709   4.575   6.279   5.663 -0.2761 -0.0249  0.3485
  769MOL0     C 3710   4.646   6.274   5.799  0.1087 -0.6335  0.3561
  769MOL0     O 3711   4.744   6.362   5.818 -0.5252  0.4191 -0.5853
  769MOL0     C 3712   4.826   6.360   5.926 -0.7321  0.4847 -0.8309
  769MOL0     C 3713   4.886   6.247   5.977  0.0809  1.0399 -0.2047
  769MOL0     C 3714   4.981   6.265   6.084  0.6971 -0.8350  0.3170
  769MOL0     C 3715   5.024   6.391   6.129 -0.4945 -0.5912 -0.6724
  769MOL0     O 3716   5.115   6.407   6.227 -0.5874  0.8464 -1.0219
  769MOL0     C 3717   5.201   6.300   6.287 -0.4871 -0.3322  0.0076
  769MOL0     C 3718   5.339   6.355   6.326 -0.1647 -1.3369 -0.9922
  769MOL0     C 3719   5.459   6.265   6.316  0.7329  0.2507 -0.2101
  769MOL0     C 3720   5.438   6.133   6.405 -0.8288  0.1993 -0.0910
  769MOL0     C 3721   5.563   6.107   6.496 -0.3205 -0.0443  0.3152
  769MOL0     C 3722   5.564   5.964   6.555  0.2394 -0.3946 -0.1023
  769MOL0     C 3723   5.702   5.949   6.627  0.0018  0.0660 -0.1487
  769MOL0     C 3724   5.731   5.801   6.677  0.6558 -0.1544 -0.2865
  769MOL0    Cl 3725   5.766   5.702   6.530  0.3179 -0.4021  0.1563
  769MOL0     C 3726   4.962   6.503   6.075 -1.0338 -0.5960 -0.6830
  769MOL0     C 3727   4.871   6.489   5.968  0.3312  0.9194 -0.4275
  769MOL0     O 3728   4.608   6.190   5.877  0.5839 -0.0677  0.3124
  769MOL0     C 3729   4.616   6.384   5.587  0.4521  0.7633  0.5860
  769MOL0     C 3730   4.585   6.391   5.461  0.7454 -0.5065  1.2145
  769MOL0     N 3731   4.122   5.917   5.225  0.9402 -0.2050 -0.5545
  769MOL0     N 3732   4.139   5.800   5.279  1.1306 -0.1482  0.2182
  769MOL0     C 3733   5.094   5.761   5.722  0.1658 -0.8397 -0.3665
  769MOL0     C 3734   5.209   5.746   5.804  0.5055  0.3822  0.4922
  769MOL0     C 3735   5.584   5.930   6.006  0.1809  1.2125 -0.2036
  769MOL0     C 3736   5.577   5.887   6.138 -1.1437 -0.0413 -0.4643
  769MOL0     C 3737   5.696   5.902   6.217  0.3783 -0.0544  0.6792
  769MOL0     C 3738   5.804   5.977   6.169 -0.0618 -0.0990 -0.0669
  769MOL0     O 3739   5.901   6.004   6.258  0.2314  0.7202 -0.1312
  769MOL0     C 3740   6.034   6.010   6.209 -0.3684 -0.1150  1.0978
  769MOL0     C 3741   6.144   5.999   6.309  0.3344 -0.2876 -0.3845
  769MOL0     C 3742   6.123   5.902   6.422  0.4783  0.1698  0.4309
  769MOL0     C 3743   6.248   5.882   6.511 -0.5738 -0.6443  0.2178
  769MOL0     C 3744   6.316   5.759   6.469 -0.0187 -0.0619 -0.2019
  769MOL0     C 3745   6.390   5.672   6.426  1.1098  0.1002 -0.3120
  769MOL0     C 3746   5.808   6.026   6.040 -0.2145  0.4755  0.5995
  769MOL0     C 3747   5.699   5.982   5.956  0.4715  0.2584  0.0676
  769MOL0     H 3748   5.224   6.067   5.905  2.0038  0.2948 -1.4246
  769MOL0     H 3749   5.054   6.102   5.743  3.3563  0.7355 -0.5401
  769MOL0     H 3750   4.772   5.974   5.689 -2.1395 -1.0668 -1.0355
  769MOL0     H 3751   4.868   6.075   5.582  1.4612  0.4608  3.4691
  769MOL0     H 3752   4.666   6.006   5.469 -0.1338 -1.1370 -0.6576
  769MOL0     H 3753   4.825   5.938   5.395  1.7745 -0.5370  1.2458
  769MOL0     H 3754   4.774   5.740   5.407 -1.3992  2.1896 -2.2860
  769MOL0     H 3755   4.714   5.738   5.575 -2.4712 -1.4586 -0.0593
  769MOL0     H 3756   4.509   5.692   5.477 -1.1454  1.4018  1.4781
  769MOL0     H 3757   4.500   5.865   5.449  0.1044 -0.3537  0.7830
  769MOL0     H 3758   4.479   5.824   5.228  1.1594  0.8034  0.9737
  769MOL0     H 3759   4.648   5.755   5.230  0.0252 -0.6331 -3.1903
  769MOL0     H 3760   4.488   5.592   5.125 -0.0312 -0.3382 -0.7326
  769MOL0     H 3761   4.571   5.541   5.279 -1.3555 -1.3968 -1.4381
  769MOL0     H 3762   4.345   5.475   5.336  0.6134  0.3282 -1.9456
  769MOL0     H 3763   4.331   5.645   5.381 -0.2351  0.3688 -0.5319
  769MOL0     H 3764   4.156   5.536   5.244  0.6648  1.1096  2.4642
  769MOL0     H 3765   4.271   5.545   5.106 -0.2309 -0.0844 -0.1148
  769MOL0     H 3766   4.289   5.770   4.982  2.2692  0.0713  1.8381
  769MOL0     H 3767   4.280   6.015   4.932 -1.7045 -0.7722 -2.8539
  769MOL0     H 3768   4.107   6.039   4.934 -0.6278  0.4582  0.5826
  769MOL0     H 3769   4.135   6.211   5.111  1.2505 -0.7059  2.1023
  769MOL0     H 3770   4.233   6.233   4.966 -0.3684  1.4009  1.2702
  769MOL0     H 3771   4.431   6.151   5.070 -0.0688 -0.7276  0.9880
  769MOL0     H 3772   4.344   6.085   5.212 -1.5457 -1.2767 -0.5680
  769MOL0     H 3773   4.284   6.331   5.277  1.6744  3.8639 -0.0150
  769MOL0     H 3774   4.354   6.381   5.122  1.3549 -0.1593 -0.0664
  769MOL0     H 3775   4.409   6.116   5.433  1.1768  0.3928 -0.2117
  769MOL0     H 3776   4.382   6.112   5.787 -0.0344 -2.1143  0.0392
  769MOL0     H 3777   4.359   6.010   5.638 -0.3247 -2.4281  1.8172
  769MOL0     H 3778   4.498   5.997   5.733  0.2572  0.5317  1.5177
  769MOL0     H 3779   4.856   6.152   5.933  0.7550 -0.6968  2.7992
  769MOL0     H 3780   5.024   6.179   6.134  0.2067 -0.4132  1.5070
  769MOL0     H 3781   5.148   6.258   6.374 -1.1434  0.5702  0.0660
  769MOL0     H 3782   5.222   6.220   6.215 -0.4963 -0.6523  0.3563
  769MOL0     H 3783   5.344   6.445   6.264  0.3722 -0.8551 -0.2810
  769MOL0     H 3784   5.330   6.399   6.426 -3.2000 -0.6917 -1.4467
  769MOL0     H 3785   5.547   6.319   6.351 -0.2538  0.4540  2.1364
  769MOL0     H 3786   5.476   6.226   6.215  1.1323 -1.3470  0.4389
  769MOL0     H 3787   5.352   6.132   6.473  1.1125  2.4125  2.6341
  769MOL0     H 3788   5.417   6.049   6.337  1.1914 -1.1413  0.8346
  769MOL0     H 3789   5.561   6.188   6.569 -0.2097  0.3040 -0.0657
  769MOL0     H 3790   5.655   6.127   6.441 -1.8961  0.9616 -2.1400
  769MOL0     H 3791   5.482   5.949   6.626  0.3298  0.2055  0.1397
  769MOL0     H 3792   5.551   5.891   6.475 -1.0110 -3.3853  2.5862
  769MOL0     H 3793   5.697   6.013   6.716  1.4993 -1.2003  0.8933
  769MOL0     H 3794   5.789   5.987   6.573  1.7681 -0.4939  2.1381
  769MOL0     H 3795   5.647   5.764   6.737  0.9306  1.4350  1.1409
  769MOL0     H 3796   5.812   5.793   6.751 -0.4020  0.3381  0.9525
  769MOL0     H 3797   4.985   6.602   6.115  1.6054 -1.0693 -0.8561
  769MOL0     H 3798   4.829   6.573   5.914 -1.3234  1.5180  1.6324
  769MOL0     H 3799   4.683   6.461   5.623  2.3975  0.2039 -1.5932
  769MOL0     H 3800   4.618   6.480   5.407  0.9144  1.6777  4.5978
  769MOL0     H 3801   5.058   5.681   5.658 -4.3676 -0.2361  1.0771
  769MOL0     H 3802   5.268   5.655   5.803  1.8174  1.1995  1.1516
  769MOL0     H 3803   5.493   5.830   6.175 -1.7812  2.1881  1.7639
  769MOL0     H 3804   5.702   5.865   6.319  0.7287 -0.0592  0.6592
  769MOL0     H 3805   6.052   5.949   6.120  0.6212  1.5929  0.0727
  769MOL0     H 3806   6.049   6.114   6.178  0.1728  0.7479  3.9182
  769MOL0     H 3807   6.160   6.103   6.338 -1.1911 -0.2338  0.3526
  769MOL0     H 3808   6.227   5.960   6.249 -0.4434 -3.3406  0.3302
  769MOL0     H 3809   6.090   5.805   6.383 -1.5509  0.6643  0.7637
  769MOL0     H 3810   6.032   5.932   6.476 -0.8865  0.5907 -1.9649
  769MOL0     H 3811   6.220   5.870   6.616 -2.7178 -0.9817 -0.3361
  769MOL0     H 3812   6.313   5.970   6.503 -1.0197 -0.1679  1.5936
  769MOL0     H 3813   6.466   5.602   6.398  1.6928  1.4287 -2.2365
  769MOL0     H 3814   5.901   6.065   5.998  0.3454  0.2683  1.6261
  769MOL0     H 3815   5.704   6.008   5.850  3.6625  1.5088  0.4311
  770MOL0     O 3816   4.045   0.618   9.944 -0.2277  0.4137  0.2498
  770MOL0     C 3817   4.084   0.732   9.938  0.6011 -1.0271  1.0506
  770MOL0     O 3818   4.001   0.841   9.948 -0.6087  0.0533  0.6191
  770MOL0     C 3819   3.867   0.838   9.992  0.8824 -0.5382  0.4511
  770MOL0     C 3820   3.830   0.940  10.083 -0.2288  0.8516 -0.1085
  770MOL0     C 3821   3.700   0.952  10.134 -0.1689 -0.0296 -0.5723
  770MOL0     C 3822   3.607   0.860  10.094 -0.4636  0.8951 -0.2842
  770MOL0     O 3823   3.485   0.871  10.157  0.5806  0.8207  0.8875
  770MOL0     C 3824   3.365   0.886  10.070 -0.3244  0.8180  0.2089
  770MOL0     C 3825   3.233   0.835  10.132 -0.8143  0.0819  0.1801
  770MOL0     C 3826   3.240   0.691  10.187  0.4566 -0.5964  0.0250
  770MOL0     C 3827   3.110   0.641  10.252  0.9633 -0.1188  0.3789
  770MOL0     C 3828   3.120   0.497  10.283 -0.3745  0.3003  0.9435
  770MOL0     C 3829   3.004   0.446  10.363 -0.1336  0.2604  0.7704
  770MOL0     C 3830   2.870   0.454  10.274  1.0629  0.3094 -0.3088
  770MOL0     C 3831   2.758   0.366  10.343  0.5504  0.2975  0.2744
  770MOL0     N 3832   2.643   0.369  10.258 -0.0857  0.2785  0.6934
  770MOL0     C 3833   2.542   0.458  10.282  0.3473 -0.3936 -0.0545
  770MOL0     C 3834   2.440   0.437  10.191  0.6352  0.7197 -0.5156
  770MOL0     C 3835   2.312   0.512  10.169 -0.9730  0.1367  0.1067
  770MOL0     C 3836   2.195   0.416  10.191 -0.4677 -0.2578  0.1360
  770MOL0     C 3837   2.164   0.338  10.067 -0.5711  0.1286 -0.1530
  770MOL0     C 3838   2.029   0.267  10.078 -0.8702  0.2375 -0.3323
  770MOL0     O 3839   2.011   0.160  10.176 -0.9585 -0.6919  0.7325
  770MOL0     C 3840   1.888   0.120  10.192 -0.3930  0.6844 -0.3849
  770MOL0     C 3841   1.834   0.034  10.095 -0.2091 -0.4036 -0.4144
  770MOL0     C 3842   1.709  -0.023  10.120 -0.5013  0.6147 -0.2388
  770MOL0     C 3843   1.666  -0.141  10.021  0.1912 -0.2356  0.0922
  770MOL0     C 3844   1.627   0.021  10.224  0.3051  0.5941  0.6858
  770MOL0     C 3845   1.480  -0.010  10.236  0.1544 -0.5422 -0.5158
  770MOL0     O 3846   1.420   0.039  10.350  0.2879 -0.2187  0.2514
  770MOL0     C 3847   1.285   0.028  10.377 -0.4199 -0.1857  0.5481
  770MOL0     C 3848   1.237  -0.073  10.452  0.3176  0.0404 -0.2881
  770MOL0     C 3849   1.098  -0.075  10.480  0.7611  0.3718  0.0216
  770MOL0     C 3850   1.009   0.022  10.445  0.3358  0.0830  0.6164
  770MOL0     O 3851   0.870   0.017  10.459  0.0590 -0.1684 -0.2192
  770MOL0     C 3852   0.805  -0.110  10.408  0.1867 -0.5826 -0.6727
  770MOL0     C 3853   0.666  -0.117  10.462 -0.1233  0.5916 -0.5366
  770MOL0     C 3854   0.583   0.006  10.441  0.4021 -0.2147 -0.6925
  770MOL0     C 3855   0.553   0.065  10.296  0.7669 -0.1095 -0.8314
  770MOL0     C 3856   0.492   0.202  10.302 -0.1791 -0.3603  0.0008
  770MOL0     C 3857   0.577   0.314  10.341 -0.5180 -0.5310 -0.2287
  770MOL0     C 3858   0.502   0.449  10.311  0.2644 -0.1826  0.1892
  770MOL0     C 3859   0.594   0.557  10.351  0.1999  0.2476  0.7419
  770MOL0    Cl 3860   0.539   0.716  10.272 -0.0343  0.4304  0.1024
  770MOL0     C 3861   1.067   0.134  10.377  0.1646 -0.4600 -0.1017
  770MOL0     C 3862   1.202   0.140  10.348 -0.7759 -0.0316 -0.3827
  770MOL0     O 3863   1.413  -0.045  10.138 -0.1195 -0.3395 -0.2174
  770MOL0     C 3864   1.684   0.099  10.326 -0.3241 -0.1743 -0.7351
  770MOL0     C 3865   1.814   0.141  10.308 -0.0751 -0.2048  0.1196
  770MOL0     N 3866   2.497   0.336  10.108  0.6696 -0.0203  0.1838
  770MOL0     N 3867   2.610   0.288  10.151  0.3308  0.4789  0.1888
  770MOL0     C 3868   3.641   0.759  10.000  0.0080  0.5397 -0.1485
  770MOL0     C 3869   3.766   0.750   9.946  0.4853  0.2965 -0.4873
  770MOL0     C 3870   4.229   0.764   9.904  0.0552  0.5123  0.1844
  770MOL0     C 3871   4.281   0.896   9.901  0.4012 -0.3388 -0.4088
  770MOL0     C 3872   4.412   0.923   9.854  0.0144 -0.3711 -0.2180
  770MOL0     C 3873   4.507   0.817   9.835  0.3673 -1.2153 -0.7028
  770MOL0     O 3874   4.634   0.855   9.810 -0.2480 -0.0222 -0.1808
  770MOL0     C 3875   4.734   0.753   9.774  0.5100  0.3408  0.3186
  770MOL0     C 3876   4.884   0.792   9.775 -0.5305 -0.6893  0.2064
  770MOL0     C 3877   4.971   0.661   9.773  0.6013 -0.1489 -0.0049
  770MOL0     C 3878   5.112   0.687   9.727 -0.3636 -0.2617  0.4882
  770MOL0     C 3879   5.195   0.569   9.729  0.0174 -0.7623 -0.6410
  770MOL0     C 3880   5.259   0.463   9.726  0.2175  1.0326  0.1224
  770MOL0     C 3881   4.454   0.691   9.844 -0.5625 -0.0949  0.0619
  770MOL0     C 3882   4.319   0.657   9.869  0.2184 -0.1441  0.0856
  770MOL0     H 3883   3.915   0.995  10.123  0.9915 -0.4400 -0.8079
  770MOL0     H 3884   3.685   1.026  10.213  1.3870 -1.3563  1.0500
  770MOL0     H 3885   3.346   0.989  10.037  0.3388  0.2291 -2.2687
  770MOL0     H 3886   3.381   0.827   9.979  2.1038  2.8565 -0.8125
  770MOL0     H 3887   3.198   0.909  10.205 -1.1948  0.2695 -0.1895
  770MOL0     H 3888   3.157   0.837  10.053 -1.3064 -2.1395  0.5450
  770MOL0     H 3889   3.273   0.624  10.108 -1.6788 -0.1409 -1.3518
  770MOL0     H 3890   3.315   0.684  10.266  0.6448  1.9016  0.1301
  770MOL0     H 3891   3.099   0.700  10.344  4.2967  0.7809  0.3529
  770MOL0     H 3892   3.028   0.660  10.182 -0.0042  1.3426  1.8269
  770MOL0     H 3893   3.128   0.436  10.192 -1.6374  2.0911 -0.4394
  770MOL0     H 3894   3.205   0.474  10.347 -0.0718  1.0618  0.8210
  770MOL0     H 3895   3.018   0.340  10.387  0.4004 -0.9040 -3.7493
  770MOL0     H 3896   2.993   0.495  10.460  0.0092  1.6399  0.1139
  770MOL0     H 3897   2.837   0.559  10.275 -2.0935 -0.5523  1.5370
  770MOL0     H 3898   2.888   0.417  10.173 -0.6305 -3.0207  0.4585
  770MOL0     H 3899   2.735   0.401  10.445 -2.7536  2.3847 -1.0002
  770MOL0     H 3900   2.803   0.267  10.337 -2.6166 -1.3616  1.3929
  770MOL0     H 3901   2.546   0.531  10.361  0.6366 -2.3079  1.7935
  770MOL0     H 3902   2.313   0.588  10.247 -0.4819 -2.0271  2.3426
  770MOL0     H 3903   2.317   0.549  10.066  3.1332 -2.1449 -0.7405
  770MOL0     H 3904   2.114   0.483  10.223 -0.7817  1.4694 -3.6625
  770MOL0     H 3905   2.212   0.347  10.274  2.7595 -0.1576 -0.3176
  770MOL0     H 3906   2.243   0.263  10.050  1.4034  1.5790  2.0572
  770MOL0     H 3907   2.154   0.406   9.981  1.4043 -1.8944 -2.1265
  770MOL0     H 3908   1.997   0.230   9.980  0.8919 -1.1077 -0.4541
  770MOL0     H 3909   1.963   0.344  10.118 -1.7386 -1.7141  2.2749
  770MOL0     H 3910   1.902   0.016  10.012  0.6523  3.2453 -0.6896
  770MOL0     H 3911   1.642  -0.232  10.078 -0.4672  1.2315  2.3045
  770MOL0     H 3912   1.573  -0.111   9.971  1.0269  1.3248 -0.6020
  770MOL0     H 3913   1.748  -0.174   9.956  2.3858  0.9201  2.1269
  770MOL0     H 3914   1.305  -0.154  10.477 -3.4657 -3.4466 -0.2369
  770MOL0     H 3915   1.051  -0.166  10.517 -0.3899 -0.3885 -2.9965
  770MOL0     H 3916   0.807  -0.080  10.303  1.5235 -3.7461 -1.6987
  770MOL0     H 3917   0.860  -0.204  10.418 -3.0384 -2.8645 -2.2904
  770MOL0     H 3918   0.621  -0.210  10.424  0.0295 -1.2901  3.3821
  770MOL0     H 3919   0.666  -0.137  10.569 -2.0191  0.5133 -0.5278
  770MOL0     H 3920   0.626   0.088  10.498 -0.4895 -0.1019 -0.1826
  770MOL0     H 3921   0.486  -0.017  10.486 -1.2919  1.0622 -3.3896
  770MOL0     H 3922   0.641   0.071  10.231  0.4557  0.6526 -1.2026
  770MOL0     H 3923   0.489  -0.011  10.251  1.7162 -1.5533  0.1604
  770MOL0     H 3924   0.404   0.194  10.365 -1.7565  1.8925 -1.7398
  770MOL0     H 3925   0.459   0.230  10.201 -2.2565 -0.2189  0.6742
  770MOL0     H 3926   0.591   0.311  10.450 -1.1480 -3.1429 -0.1671
  770MOL0     H 3927   0.662   0.303  10.274 -1.6588 -3.3879 -1.3593
  770MOL0     H 3928   0.405   0.462  10.358 -1.1624  1.2474 -2.8851
  770MOL0     H 3929   0.486   0.449  10.203  1.0707  1.2293  0.0436
  770MOL0     H 3930   0.693   0.531  10.312 -0.3679  0.5153 -0.9351
  770MOL0     H 3931   0.600   0.563  10.460 -0.8198 -1.4757  0.9212
  770MOL0     H 3932   1.002   0.216  10.351 -0.6574 -1.1274 -0.1805
  770MOL0     H 3933   1.246   0.224  10.295  1.0045 -0.6166  0.1118
  770MOL0     H 3934   1.627   0.137  10.410  0.9287 -2.5825  1.3395
  770MOL0     H 3935   1.857   0.197  10.391 -1.0324  1.2275 -0.3037
  770MOL0     H 3936   3.570   0.687   9.961  1.2053  0.8004 -3.1149
  770MOL0     H 3937   3.791   0.677   9.870 -0.5532 -0.4474 -0.1308
  770MOL0     H 3938   4.221   0.986   9.913 -0.1672 -0.6243 -1.0410
  770MOL0     H 3939   4.449   1.020   9.823  2.0992 -1.2085 -0.4794
  770MOL0     H 3940   4.732   0.676   9.852 -2.4308 -1.5824 -1.4485
  770MOL0     H 3941   4.709   0.719   9.673  1.6473  3.2079 -1.0203
  770MOL0     H 3942   4.889   0.842   9.872  2.3184 -1.4468  0.5453
  770MOL0     H 3943   4.915   0.854   9.691 -3.0120 -1.2503 -1.2080
  770MOL0     H 3944   4.919   0.591   9.706 -1.4174  1.3918 -0.1472
  770MOL0     H 3945   4.977   0.611   9.870  0.2068 -4.5457 -2.0280
  770MOL0     H 3946   5.156   0.747   9.806 -1.5153 -1.3272  1.9857
  770MOL0     H 3947   5.128   0.739   9.631  0.3242  0.5527  1.0270
  770MOL0     H 3948   5.318   0.373   9.726  1.6007  1.9008  0.0531
  770MOL0     H 3949   4.514   0.601   9.837  0.4923  0.5379  0.6956
  770MOL0     H 3950   4.291   0.552   9.866 -3.6747  0.6796  1.0581
  771MOL0     O 3951   4.598   2.466  11.115  0.7972  1.1094 -0.0908
  771MOL0     C 3952   4.576   2.342  11.105  0.1303 -1.0174  0.0581
  771MOL0     O 3953   4.457   2.288  11.064 -0.1377 -0.5554 -0.1009
  771MOL0     C 3954   4.360   2.371  11.016 -0.5708 -0.5631  0.2628
  771MOL0     C 3955   4.239   2.337  11.058  0.6664  0.0185  0.4866
  771MOL0     C 3956   4.125   2.395  11.006  0.7840 -0.2323 -0.5197
  771MOL0     C 3957   4.136   2.496  10.916  0.2590 -0.3769 -0.6051
  771MOL0     O 3958   4.020   2.557  10.875  0.3882 -0.6028 -0.4137
  771MOL0     C 3959   4.030   2.669  10.780  0.3828  0.6283 -0.3491
  771MOL0     C 3960   3.891   2.716  10.741  0.5482  0.4609  0.6740
  771MOL0     C 3961   3.809   2.621  10.656  0.6380  0.0714 -0.6290
  771MOL0     C 3962   3.709   2.693  10.569 -0.4000  0.0307 -1.1684
  771MOL0     C 3963   3.657   2.604  10.457  1.0373  0.3524  0.6244
  771MOL0     C 3964   3.570   2.695  10.370 -0.4273 -0.0052 -0.6613
  771MOL0     C 3965   3.503   2.637  10.247 -0.1462 -0.9025  0.0922
  771MOL0     C 3966   3.468   2.492  10.264  0.1975  0.4493 -0.4580
  771MOL0     N 3967   3.353   2.445  10.184  0.1580  0.6933 -0.0511
  771MOL0     C 3968   3.343   2.479  10.046 -0.4268 -0.0223  0.3159
  771MOL0     C 3969   3.232   2.422   9.991  0.6178  0.3220 -1.2977
  771MOL0     C 3970   3.200   2.414   9.840  0.6012 -0.3511  0.2419
  771MOL0     C 3971   3.112   2.300   9.792  0.6609  1.5130 -0.6629
  771MOL0     C 3972   2.962   2.325   9.801  0.7894 -0.7702 -1.0893
  771MOL0     C 3973   2.882   2.202   9.758  0.0093  0.5806 -0.0314
  771MOL0     O 3974   2.745   2.244   9.778 -0.4917 -0.5220 -0.5732
  771MOL0     C 3975   2.646   2.153   9.752 -0.2747 -0.3829  0.0089
  771MOL0     C 3976   2.520   2.175   9.803  0.6506  0.5903  0.6377
  771MOL0     C 3977   2.401   2.105   9.776  1.3947  0.5525  0.5691
  771MOL0     C 3978   2.271   2.149   9.848  0.0569 -0.3293  0.1295
  771MOL0     C 3979   2.406   1.998   9.680 -0.2044 -0.4495  0.9719
  771MOL0     C 3980   2.291   1.910   9.649 -0.1970  0.4949 -0.1851
  771MOL0     O 3981   2.166   1.944   9.673  0.1691  0.1939 -0.6107
  771MOL0     C 3982   2.065   1.852   9.712  0.2805 -0.3202  0.2326
  771MOL0     C 3983   2.090   1.721   9.756 -0.4896  0.4071 -0.5896
  771MOL0     C 3984   1.985   1.632   9.790 -0.8518 -0.5822  1.3100
  771MOL0     C 3985   1.853   1.671   9.760  0.6341  0.5004 -0.3116
  771MOL0     O 3986   1.741   1.594   9.801  0.0128 -0.0684 -0.6668
  771MOL0     C 3987   1.760   1.456   9.809  0.0880  0.3047  0.1167
  771MOL0     C 3988   1.622   1.401   9.846  0.3217  0.0226 -1.0370
  771MOL0     C 3989   1.631   1.244   9.848  0.9524  0.3901 -0.0180
  771MOL0     C 3990   1.493   1.186   9.884 -0.5692 -0.3391  0.2649
  771MOL0     C 3991   1.509   1.038   9.925  0.0179 -0.0023  0.3337
  771MOL0     C 3992   1.378   0.986   9.950  0.6579 -0.1385 -0.3975
  771MOL0     C 3993   1.389   0.841  10.006  0.0546 -0.0918  0.4515
  771MOL0     C 3994   1.261   0.792  10.070  0.9155 -0.0382 -0.6177
  771MOL0    Cl 3995   1.243   0.891  10.226  0.1182 -0.1107  0.5732
  771MOL0     C 3996   1.829   1.805   9.725  0.3597  0.4848  0.8054
  771MOL0     C 3997   1.930   1.892   9.699 -0.2962 -0.0194 -0.5220
  771MOL0     O 3998   2.326   1.809   9.590  0.1537  0.3796 -0.1385
  771MOL0     C 3999   2.534   1.970   9.626  0.0909  1.0059 -0.0892
  771MOL0     C 4000   2.647   2.051   9.661  0.1850 -0.3082  0.6843
  771MOL0     N 4001   3.155   2.370  10.102 -0.5574  0.3582 -0.2079
  771MOL0     N 4002   3.231   2.372  10.212 -0.7291  0.6494 -0.0348
  771MOL0     C 4003   4.264   2.540  10.884 -0.1887 -0.1197  0.0456
  771MOL0     C 4004   4.378   2.477  10.926 -0.2900 -0.6155 -0.0619
  771MOL0     C 4005   4.680   2.240  11.143 -0.2045 -0.4469 -0.5065
  771MOL0     C 4006   4.819   2.266  11.147  0.0947  0.5707  0.3379
  771MOL0     C 4007   4.910   2.170  11.173 -0.8308 -0.4071  0.6626
  771MOL0     C 4008   4.873   2.037  11.202 -0.5397  0.0415 -1.0268
  771MOL0     O 4009   4.971   1.933  11.217  0.2427 -0.2853 -0.0001
  771MOL0     C 4010   5.035   1.906  11.087 -0.2927 -0.0603  1.1987
  771MOL0     C 4011   5.179   1.858  11.100 -0.4281  0.1743  0.3307
  771MOL0     C 4012   5.265   1.986  11.124 -0.2444 -0.1888 -0.3452
  771MOL0     C 4013   5.364   2.019  11.012  0.1542 -0.3949  0.0915
  771MOL0     C 4014   5.484   1.931  11.020  0.8749  0.3797  0.6645
  771MOL0     C 4015   5.582   1.860  11.018  0.3320 -0.4234  0.7624
  771MOL0     C 4016   4.741   2.007  11.175  0.9630 -0.5175  0.6868
  771MOL0     C 4017   4.643   2.110  11.154 -0.7199  0.4864  0.5998
  771MOL0     H 4018   4.225   2.255  11.128  0.3073 -1.8302 -1.6435
  771MOL0     H 4019   4.025   2.374  11.044  1.0162 -0.0135  0.2356
  771MOL0     H 4020   4.083   2.749  10.832  0.9811 -0.1567  0.2788
  771MOL0     H 4021   4.095   2.639  10.697 -1.7736  0.0585 -1.9242
  771MOL0     H 4022   3.836   2.749  10.829  2.4822  1.3657  1.5857
  771MOL0     H 4023   3.917   2.808  10.688 -0.7621  0.2676 -0.3637
  771MOL0     H 4024   3.883   2.559  10.605  0.9093 -0.1204 -0.0144
  771MOL0     H 4025   3.769   2.543  10.721  2.4432 -2.2015 -2.1097
  771MOL0     H 4026   3.626   2.737  10.626 -0.1199 -1.5097  0.5082
  771MOL0     H 4027   3.773   2.772  10.527  2.4593 -0.8978  1.1351
  771MOL0     H 4028   3.731   2.547  10.400  0.3393 -0.9891  1.0180
  771MOL0     H 4029   3.598   2.523  10.501  4.0389 -2.4006  0.0185
  771MOL0     H 4030   3.491   2.729  10.438  1.5360  2.0137  0.7509
  771MOL0     H 4031   3.634   2.778  10.339  1.1050  0.1308  2.4538
  771MOL0     H 4032   3.407   2.688  10.236 -0.1616  0.0469  3.3983
  771MOL0     H 4033   3.564   2.656  10.159 -0.4299 -1.6953 -0.2867
  771MOL0     H 4034   3.430   2.484  10.366 -1.6875  0.5311 -1.1088
  771MOL0     H 4035   3.564   2.440  10.257  1.0995  1.6243  2.0151
  771MOL0     H 4036   3.425   2.515   9.983  0.4809  0.3119  1.6417
  771MOL0     H 4037   3.150   2.509   9.816 -1.5669 -2.0132 -2.3413
  771MOL0     H 4038   3.297   2.410   9.789  2.1198 -3.1148  3.0344
  771MOL0     H 4039   3.136   2.205   9.841 -0.2460  0.9195 -1.3433
  771MOL0     H 4040   3.131   2.281   9.686 -0.2326 -1.7464 -0.3410
  771MOL0     H 4041   2.939   2.409   9.734  3.6351  0.5915 -0.5115
  771MOL0     H 4042   2.939   2.348   9.905 -1.1747  0.3446 -1.7063
  771MOL0     H 4043   2.922   2.119   9.817  0.4351  0.7968 -0.0069
  771MOL0     H 4044   2.888   2.178   9.651 -2.0879 -2.2510  0.3707
  771MOL0     H 4045   2.523   2.260   9.871  2.0222  0.5909  0.6168
  771MOL0     H 4046   2.228   2.053   9.876  0.3678 -0.8124 -0.9769
  771MOL0     H 4047   2.293   2.203   9.940 -1.2546  1.4775 -0.5600
  771MOL0     H 4048   2.198   2.205   9.789  0.9567  0.8096  0.0569
  771MOL0     H 4049   2.193   1.690   9.769 -1.4094 -2.1542  1.6685
  771MOL0     H 4050   2.004   1.529   9.821  0.6615 -1.1280 -1.1283
  771MOL0     H 4051   1.796   1.425   9.710 -0.7539  2.9252 -1.1138
  771MOL0     H 4052   1.823   1.425   9.892 -1.8226 -1.2334  1.0624
  771MOL0     H 4053   1.601   1.447   9.943  1.4642 -1.5085 -0.0086
  771MOL0     H 4054   1.545   1.424   9.772  0.9659 -0.5292 -1.9076
  771MOL0     H 4055   1.696   1.216   9.932  2.3207  1.5389 -0.6522
  771MOL0     H 4056   1.670   1.205   9.754  2.2709 -0.8685  0.9992
  771MOL0     H 4057   1.444   1.235   9.968  0.5062 -2.3896  2.1799
  771MOL0     H 4058   1.426   1.203   9.799 -1.3293 -2.4470  0.3730
  771MOL0     H 4059   1.569   1.032  10.016 -0.6318 -2.7819  0.6633
  771MOL0     H 4060   1.568   0.979   9.853  0.9802 -0.4339  1.4448
  771MOL0     H 4061   1.327   1.046  10.026  0.7634  0.2662 -0.6472
  771MOL0     H 4062   1.306   0.976   9.867 -2.1058 -0.0479  1.8435
  771MOL0     H 4063   1.483   0.823  10.060  2.7832  1.5594 -3.3259
  771MOL0     H 4064   1.404   0.777   9.918  2.3118 -2.8427  2.6305
  771MOL0     H 4065   1.274   0.684  10.086 -3.8155 -0.8703 -0.8596
  771MOL0     H 4066   1.177   0.800  10.000  1.8169 -1.6823 -1.9936
  771MOL0     H 4067   1.726   1.837   9.734 -0.8437 -2.6214 -0.5641
  771MOL0     H 4068   1.910   1.994   9.668 -1.9100  0.2562  1.2143
  771MOL0     H 4069   2.548   1.889   9.555 -2.7895 -1.8057  2.2546
  771MOL0     H 4070   2.736   2.019   9.607  0.6074  0.4177  0.9436
  771MOL0     H 4071   4.277   2.619  10.812 -1.2214 -2.2034 -2.6151
  771MOL0     H 4072   4.473   2.514  10.891  0.6304  0.9815  3.5739
  771MOL0     H 4073   4.861   2.365  11.130  1.2712  0.1956  0.9439
  771MOL0     H 4074   5.013   2.192  11.199 -0.5286 -1.6416  0.5529
  771MOL0     H 4075   4.967   1.825  11.057  0.2069 -0.0492  0.0128
  771MOL0     H 4076   5.033   1.984  11.011  1.2623 -2.8470 -1.9585
  771MOL0     H 4077   5.206   1.812  11.004  1.5041 -0.2187  1.0243
  771MOL0     H 4078   5.211   1.784  11.174  2.2206  0.7312 -0.1367
  771MOL0     H 4079   5.317   1.970  11.219 -0.3087 -3.0731 -0.6987
  771MOL0     H 4080   5.199   2.072  11.136 -0.3712 -0.0620 -1.7771
  771MOL0     H 4081   5.401   2.120  11.033 -0.2307 -0.5385  1.5756
  771MOL0     H 4082   5.306   2.013  10.920  0.0258 -0.3083  0.1669
  771MOL0     H 4083   5.670   1.801  11.006 -1.4050 -2.5174 -3.9834
  771MOL0     H 4084   4.697   1.908  11.180 -0.9647  0.3217  1.1487
  771MOL0     H 4085   4.542   2.085  11.123 -0.8464  2.7482 -1.0982
  772MOL0     O 4086   9.038   2.164  10.717  0.4125 -0.7454  0.3260
  772MOL0     C 4087   9.122   2.113  10.792  0.2818  1.0234 -0.0932
  772MOL0     O 4088   9.141   1.977  10.814  0.5103  0.3543  0.5135
  772MOL0     C 4089   9.097   1.901  10.708  0.7364  0.2694 -0.4617
  772MOL0     C 4090   9.174   1.840  10.611 -0.4861 -0.0411  0.3381
  772MOL0     C 4091   9.111   1.754  10.516 -0.8884 -0.8098 -0.4506
  772MOL0     C 4092   8.977   1.730  10.517 -0.6006  0.3082  0.0203
  772MOL0     O 4093   8.911   1.642  10.439 -0.5541  0.6733 -0.7496
  772MOL0     C 4094   8.977   1.527  10.380 -0.1079  0.4270 -0.3057
  772MOL0     C 4095   9.010   1.431  10.499 -0.2198  0.3123 -0.6224
  772MOL0     C 4096   8.886   1.380  10.586  0.3416 -0.2987 -0.4567
  772MOL0     C 4097   8.928   1.270  10.682  0.0448 -0.7491 -0.4106
  772MOL0     C 4098   8.798   1.221  10.745  0.1797 -0.1980 -1.6154
  772MOL0     C 4099   8.690   1.151  10.651 -0.0154  0.1154  0.1976
  772MOL0     C 4100   8.546   1.134  10.719 -0.8853 -0.6807 -0.2362
  772MOL0     C 4101   8.446   1.074  10.619 -0.0047 -0.3970 -0.1838
  772MOL0     N 4102   8.300   1.107  10.630  0.0348 -0.3237 -0.4847
  772MOL0     C 4103   8.248   1.237  10.601 -0.2459  0.2076  0.1877
  772MOL0     C 4104   8.116   1.217  10.607 -0.4170  0.4760 -0.3240
  772MOL0     C 4105   7.996   1.314  10.606 -1.0254  0.3238  0.2998
  772MOL0     C 4106   8.007   1.398  10.483 -0.3482 -0.0493  0.1769
  772MOL0     C 4107   8.073   1.528  10.517 -0.0125  0.3955 -0.6729
  772MOL0     C 4108   8.104   1.608  10.385  0.0850 -0.3867 -0.2074
  772MOL0     O 4109   8.120   1.744  10.409  0.4350 -0.0420  0.4318
  772MOL0     C 4110   8.011   1.827  10.400  0.0302 -1.3269  0.2602
  772MOL0     C 4111   7.874   1.796  10.423 -0.8705  0.0151 -0.2389
  772MOL0     C 4112   7.775   1.891  10.439  0.1815 -0.4381 -0.2304
  772MOL0     C 4113   7.636   1.842  10.476 -0.2794 -0.5346  0.2104
  772MOL0     C 4114   7.804   2.033  10.434  0.3524 -0.9279 -0.2506
  772MOL0     C 4115   7.707   2.147  10.468 -0.4063 -0.1369 -0.2536
  772MOL0     O 4116   7.763   2.265  10.516  0.2795 -0.7425 -0.2725
  772MOL0     C 4117   7.681   2.383  10.526 -0.4910  0.3382  0.3118
  772MOL0     C 4118   7.592   2.394  10.631 -0.4135 -0.3486  0.3286
  772MOL0     C 4119   7.498   2.497  10.641 -0.1865 -0.9529  0.1061
  772MOL0     C 4120   7.487   2.586  10.539 -0.0273 -0.1548 -0.4218
  772MOL0     O 4121   7.397   2.686  10.543 -0.0002 -0.4241 -0.6893
  772MOL0     C 4122   7.318   2.704  10.423 -0.2565 -0.2212 -0.3431
  772MOL0     C 4123   7.215   2.817  10.443  0.3470  0.3740  0.4348
  772MOL0     C 4124   7.102   2.765  10.530 -0.1995  0.6820  0.5312
  772MOL0     C 4125   6.999   2.877  10.538  0.5436 -0.5790  0.2820
  772MOL0     C 4126   6.884   2.849  10.634 -0.1781  0.4192  0.1194
  772MOL0     C 4127   6.789   2.961  10.679  0.1717 -1.2461 -0.1850
  772MOL0     C 4128   6.684   2.928  10.783 -1.3465 -0.0902 -0.0294
  772MOL0     C 4129   6.628   3.053  10.860  0.1226 -0.0829  0.4962
  772MOL0    Cl 4130   6.761   3.152  10.942 -0.0892  0.4295 -0.4995
  772MOL0     C 4131   7.581   2.576  10.430  0.5683 -0.5306  0.0368
  772MOL0     C 4132   7.687   2.485  10.429  0.3162  0.0652  0.1777
  772MOL0     O 4133   7.591   2.131  10.439 -0.3467  1.2515  0.2818
  772MOL0     C 4134   7.936   2.067  10.393  0.1018 -0.2220 -0.4554
  772MOL0     C 4135   8.039   1.963  10.390  0.0323 -0.1143  0.0070
  772MOL0     N 4136   8.095   1.086  10.658  0.5443 -0.4669 -0.5011
  772MOL0     N 4137   8.203   1.017  10.667  0.4927 -0.6124  0.0612
  772MOL0     C 4138   8.903   1.791  10.606  0.1547 -0.2414  0.3408
  772MOL0     C 4139   8.959   1.878  10.708  0.0094  0.5980 -0.0823
  772MOL0     C 4140   9.204   2.196  10.875 -0.4383 -0.4371 -0.7038
  772MOL0     C 4141   9.263   2.148  10.994  1.1381 -0.7884 -0.0913
  772MOL0     C 4142   9.342   2.232  11.072  0.0485  0.2203  0.1709
  772MOL0     C 4143   9.355   2.368  11.041 -0.3607 -0.3788  0.7333
  772MOL0     O 4144   9.443   2.457  11.104 -0.4725  0.0012  0.1446
  772MOL0     C 4145   9.547   2.403  11.181 -0.6670 -0.5420  0.7581
  772MOL0     C 4146   9.659   2.506  11.208  1.3354  0.5806  0.4739
  772MOL0     C 4147   9.714   2.577  11.086  0.2047  0.3376  0.1262
  772MOL0     C 4148   9.808   2.682  11.131 -0.9743  0.1830 -0.2385
  772MOL0     C 4149   9.853   2.751  11.007  0.2523  0.3266  0.2779
  772MOL0     C 4150   9.887   2.792  10.892  0.2143 -0.0670 -0.0170
  772MOL0     C 4151   9.279   2.418  10.937  0.5344 -0.3878 -0.5284
  772MOL0     C 4152   9.207   2.336  10.856  0.2082  1.2381  0.1357
  772MOL0     H 4153   9.280   1.860  10.597 -0.6615 -0.5546 -2.1309
  772MOL0     H 4154   9.183   1.713  10.446  0.3978  0.1657  0.2656
  772MOL0     H 4155   8.912   1.485  10.303  0.8341 -1.4386 -0.1387
  772MOL0     H 4156   9.066   1.556  10.321 -1.2095  3.3828 -0.7005
  772MOL0     H 4157   9.064   1.346  10.457  0.2069  0.1380  0.2659
  772MOL0     H 4158   9.084   1.485  10.559  1.1046 -0.9593 -1.0523
  772MOL0     H 4159   8.835   1.460  10.639  2.6573  1.7516 -1.1244
  772MOL0     H 4160   8.812   1.347  10.512  0.3270 -1.9964  0.2651
  772MOL0     H 4161   8.981   1.194  10.623 -1.4144 -1.5646 -0.7303
  772MOL0     H 4162   8.994   1.310  10.759 -1.8789  1.4195  0.2117
  772MOL0     H 4163   8.810   1.159  10.835 -1.1195 -0.0731 -1.3311
  772MOL0     H 4164   8.746   1.308  10.786 -1.6036 -0.8691 -2.3634
  772MOL0     H 4165   8.678   1.206  10.557  0.8792  0.2611  0.1590
  772MOL0     H 4166   8.736   1.052  10.640  2.3416  0.8990  2.0169
  772MOL0     H 4167   8.548   1.072  10.809  0.8425  1.2974  1.1958
  772MOL0     H 4168   8.508   1.233  10.746  0.4797  0.2778 -1.6173
  772MOL0     H 4169   8.471   0.967  10.617  2.2929  0.0482  1.2903
  772MOL0     H 4170   8.468   1.106  10.517  0.6851 -0.8231 -0.1750
  772MOL0     H 4171   8.295   1.335  10.601  2.6895 -1.0672 -0.5215
  772MOL0     H 4172   7.897   1.268  10.604 -0.1249 -1.7210 -0.4899
  772MOL0     H 4173   8.003   1.382  10.691  1.5036  5.2069 -3.2725
  772MOL0     H 4174   7.903   1.413  10.453 -0.9434 -1.9273  1.1577
  772MOL0     H 4175   8.060   1.346  10.403  0.4199  0.8706  0.0581
  772MOL0     H 4176   8.167   1.521  10.573 -0.4018  3.1805  0.4943
  772MOL0     H 4177   7.995   1.581  10.573 -0.5687 -1.7980  0.7215
  772MOL0     H 4178   8.016   1.581  10.326 -2.1916 -2.6462  3.7875
  772MOL0     H 4179   8.191   1.577  10.326 -0.7206 -0.8400 -1.1971
  772MOL0     H 4180   7.857   1.689  10.425 -0.0093 -0.1284  1.8647
  772MOL0     H 4181   7.574   1.836  10.386  0.3443 -1.6316 -0.1600
  772MOL0     H 4182   7.635   1.746  10.528  3.3237 -0.3955  0.7958
  772MOL0     H 4183   7.597   1.920  10.543  0.9978  1.3029 -1.0816
  772MOL0     H 4184   7.610   2.334  10.720  2.4961  0.1410  0.1373
  772MOL0     H 4185   7.423   2.505  10.719 -0.0750  0.6226  0.0764
  772MOL0     H 4186   7.387   2.725  10.340 -1.3624 -0.7979 -1.4468
  772MOL0     H 4187   7.258   2.620  10.387  1.8833 -1.6959 -0.6462
  772MOL0     H 4188   7.254   2.914  10.475  0.8525 -0.3309  2.0553
  772MOL0     H 4189   7.174   2.840  10.344  0.3675  2.4992  0.8857
  772MOL0     H 4190   7.146   2.738  10.626 -1.1479 -1.1167  0.5152
  772MOL0     H 4191   7.056   2.679  10.479 -2.8604  2.2945  0.0270
  772MOL0     H 4192   7.056   2.962  10.578  1.6075 -1.2564  0.2388
  772MOL0     H 4193   6.959   2.904  10.440 -0.7237 -1.7398  0.4356
  772MOL0     H 4194   6.924   2.800  10.723 -0.1498  1.4711  0.7057
  772MOL0     H 4195   6.823   2.768  10.593  1.4903 -2.2694  2.5744
  772MOL0     H 4196   6.840   3.050  10.717 -2.3159 -0.9414  2.8443
  772MOL0     H 4197   6.729   2.994  10.594 -0.2652 -1.5329  0.0093
  772MOL0     H 4198   6.722   2.861  10.861 -0.2358 -0.4635 -0.8721
  772MOL0     H 4199   6.601   2.880  10.731 -1.0007 -0.2968 -0.3907
  772MOL0     H 4200   6.562   3.011  10.937 -0.3500 -2.7212 -1.2323
  772MOL0     H 4201   6.571   3.120  10.794  0.5978 -0.3907 -0.2314
  772MOL0     H 4202   7.572   2.640  10.343 -0.5381 -3.1738 -1.9449
  772MOL0     H 4203   7.765   2.473  10.354  1.0931  0.7328  0.8492
  772MOL0     H 4204   7.975   2.168  10.388  2.2954 -0.9942 -0.0317
  772MOL0     H 4205   8.143   1.992  10.378 -0.1996  1.2057  0.9556
  772MOL0     H 4206   8.795   1.790  10.597  0.0922  1.2243  0.5833
  772MOL0     H 4207   8.900   1.925  10.786  2.1569 -1.4360  2.9688
  772MOL0     H 4208   9.245   2.045  11.022 -0.8611 -0.3207  0.5091
  772MOL0     H 4209   9.389   2.188  11.159 -3.0357 -0.6207  1.5825
  772MOL0     H 4210   9.508   2.360  11.273  0.7589  3.3413  3.4125
  772MOL0     H 4211   9.598   2.318  11.134  1.2164  1.1743 -0.4396
  772MOL0     H 4212   9.737   2.442  11.249  1.6171  0.6903  0.1215
  772MOL0     H 4213   9.619   2.573  11.285 -0.5850  0.5429 -0.4303
  772MOL0     H 4214   9.630   2.621  11.030 -0.4919  1.2322  1.8190
  772MOL0     H 4215   9.758   2.497  11.025 -0.0382 -1.3177  2.0361
  772MOL0     H 4216   9.893   2.646  11.189 -1.3598 -0.1181  0.1477
  772MOL0     H 4217   9.751   2.756  11.188  0.0711  0.1107  0.9286
  772MOL0     H 4218   9.896   2.817  10.789 -2.2423  1.3737  0.0413
  772MOL0     H 4219   9.286   2.524  10.915  0.5031  0.2158  2.0504
  772MOL0     H 4220   9.148   2.379  10.775 -0.9832 -0.3602  0.1138
  773MOL0     O 4221   9.709  10.239   9.258  0.2043  0.4526  0.3216
  773MOL0     C 4222   9.732  10.312   9.167  0.5289 -0.3016 -0.0185
  773MOL0     O 4223   9.650  10.415   9.125  0.1395 -0.8999 -0.0762
  773MOL0     C 4224   9.548  10.452   9.209 -0.4819  0.5662  0.5394
  773MOL0     C 4225   9.422  10.448   9.154 -0.7308  0.2465 -0.8378
  773MOL0     C 4226   9.312  10.476   9.244 -0.2724  0.4205  0.3528
  773MOL0     C 4227   9.331  10.518   9.373  0.4758  0.5773  0.0892
  773MOL0     O 4228   9.233  10.554   9.456 -0.4967  0.2531  0.0119
  773MOL0     C 4229   9.111  10.599   9.401  0.5807 -0.1831  0.7668
  773MOL0     C 4230   9.021  10.630   9.515 -0.2412 -0.1613  0.3307
  773MOL0     C 4231   8.871  10.645   9.488 -0.1187  0.2776  0.1174
  773MOL0     C 4232   8.842  10.711   9.354 -1.2080  0.6700 -0.1029
  773MOL0     C 4233   8.890  10.857   9.344  0.3282 -0.3670 -0.4350
  773MOL0     C 4234   8.872  10.942   9.479 -0.0285  0.8795  0.5293
  773MOL0     C 4235   8.891  11.098   9.476 -0.6537  0.1880 -0.4368
  773MOL0     C 4236   9.025  11.155   9.527 -0.6760  0.1477 -0.4104
  773MOL0     N 4237   9.142  11.120   9.441 -0.4144 -0.1447 -0.2039
  773MOL0     C 4238   9.216  11.004   9.457  0.2223  0.6586 -0.0806
  773MOL0     C 4239   9.332  11.029   9.394 -1.2307 -0.0878  0.3097
  773MOL0     C 4240   9.443  10.935   9.360  0.6484  0.3284 -0.7038
  773MOL0     C 4241   9.392  10.840   9.252 -0.2148 -0.1555  0.9194
  773MOL0     C 4242   9.312  10.911   9.145  0.5390  0.0350 -0.3637
  773MOL0     C 4243   9.312  10.823   9.011 -0.3061  0.1680 -0.8988
  773MOL0     O 4244   9.192  10.738   9.025  0.2877 -0.5299  0.4467
  773MOL0     C 4245   9.072  10.768   8.969 -0.2210 -0.4208 -0.0357
  773MOL0     C 4246   9.042  10.895   8.908  0.4990 -0.7053  0.1816
  773MOL0     C 4247   8.922  10.917   8.846  0.1347  0.1589 -0.3541
  773MOL0     C 4248   8.897  11.055   8.797 -0.9028  0.0597  0.0534
  773MOL0     C 4249   8.817  10.813   8.848  0.2700 -0.7212  0.3484
  773MOL0     C 4250   8.682  10.822   8.780  0.3597 -0.6435  0.2085
  773MOL0     O 4251   8.611  10.704   8.783 -0.2102  0.6664  0.3079
  773MOL0     C 4252   8.481  10.710   8.771  0.7159 -0.4027  0.6521
  773MOL0     C 4253   8.421  10.713   8.644 -0.0755 -0.3138  0.6656
  773MOL0     C 4254   8.287  10.737   8.619 -0.3444 -0.5853 -0.2660
  773MOL0     C 4255   8.205  10.777   8.723 -0.0771 -0.0025 -0.0484
  773MOL0     O 4256   8.071  10.787   8.705 -0.5133 -0.0934 -0.5936
  773MOL0     C 4257   8.001  10.905   8.732  0.2240 -0.8862 -0.4528
  773MOL0     C 4258   7.848  10.870   8.750 -0.6499  0.2647  0.4718
  773MOL0     C 4259   7.814  10.839   8.897 -0.1691  0.4474 -0.2106
  773MOL0     C 4260   7.783  10.956   8.993  0.5221  0.4237 -0.2081
  773MOL0     C 4261   7.688  10.915   9.101  0.8144  0.2884  0.9181
  773MOL0     C 4262   7.642  11.026   9.189  0.2722 -0.2193 -0.3431
  773MOL0     C 4263   7.548  10.985   9.300  0.3369 -0.0900 -0.3527
  773MOL0     C 4264   7.469  11.100   9.369 -0.4513  0.0263 -0.4852
  773MOL0    Cl 4265   7.581  11.229   9.422 -0.6483  0.2684 -0.1611
  773MOL0     C 4266   8.259  10.794   8.854  0.4691  0.0754 -0.5808
  773MOL0     C 4267   8.395  10.759   8.874  0.4791  0.1535  0.1548
  773MOL0     O 4268   8.638  10.934   8.776  0.2154  0.1531 -0.4700
  773MOL0     C 4269   8.840  10.695   8.921 -0.7139  0.5440  0.1891
  773MOL0     C 4270   8.968  10.680   8.986 -0.4551 -0.1846  0.0435
  773MOL0     N 4271   9.327  11.156   9.340 -0.1445 -0.8084  0.0344
  773MOL0     N 4272   9.210  11.212   9.359  0.9275  0.2142  0.3733
  773MOL0     C 4273   9.461  10.527   9.424  0.4065  0.6009  0.6433
  773MOL0     C 4274   9.570  10.487   9.343  0.3775  0.3092 -0.1873
  773MOL0     C 4275   9.859  10.300   9.084 -0.3170 -0.0038 -0.3456
  773MOL0     C 4276   9.918  10.414   9.016  0.5251 -0.9642  0.4805
  773MOL0     C 4277  10.049  10.402   8.964 -0.4921 -0.0757  0.2352
  773MOL0     C 4278  10.135  10.286   8.988  1.0711  1.0825  0.0942
  773MOL0     O 4279  10.255  10.294   8.931 -0.1404 -0.2721 -0.1531
  773MOL0     C 4280  10.349  10.190   8.962  0.4467 -0.4381  0.6228
  773MOL0     C 4281  10.497  10.236   8.954  0.5323 -0.1688  0.1794
  773MOL0     C 4282  10.532  10.335   8.851 -0.7343 -0.1584 -0.2865
  773MOL0     C 4283  10.683  10.369   8.834 -0.2889 -1.3142 -0.4098
  773MOL0     C 4284  10.719  10.516   8.849 -0.5050  0.1589 -1.4855
  773MOL0     C 4285  10.729  10.634   8.865 -0.4500 -1.2866 -0.2589
  773MOL0     C 4286  10.074  10.175   9.051 -0.1913  0.0072  0.5183
  773MOL0     C 4287   9.944  10.191   9.097  0.1222 -0.4410  0.1589
  773MOL0     H 4288   9.399  10.444   9.048 -1.4628  0.5217 -0.6940
  773MOL0     H 4289   9.211  10.472   9.205  0.4315 -0.4263 -1.4852
  773MOL0     H 4290   9.118  10.681   9.329  0.3390 -0.0556  0.8862
  773MOL0     H 4291   9.057  10.526   9.339  0.7223 -0.1469  0.6021
  773MOL0     H 4292   9.029  10.546   9.584  0.7288  0.7504  1.3692
  773MOL0     H 4293   9.063  10.719   9.563 -1.8089 -0.7261  2.9635
  773MOL0     H 4294   8.823  10.547   9.488  0.1250  0.1544  0.4616
  773MOL0     H 4295   8.826  10.707   9.566 -0.6892  0.6153 -0.4728
  773MOL0     H 4296   8.887  10.655   9.272  0.0305  3.5358 -1.5068
  773MOL0     H 4297   8.733  10.710   9.339 -1.0730  0.3836 -1.1103
  773MOL0     H 4298   8.996  10.857   9.315  0.2889  3.2862 -1.0718
  773MOL0     H 4299   8.833  10.902   9.263  1.1197 -0.6264 -1.1534
  773MOL0     H 4300   8.774  10.929   9.527 -0.5179  1.5963 -0.2347
  773MOL0     H 4301   8.950  10.900   9.543  2.7972 -0.3240 -3.3247
  773MOL0     H 4302   8.879  11.138   9.375 -1.7560 -1.8974 -1.1911
  773MOL0     H 4303   8.807  11.144   9.529 -3.0481  0.3130 -3.9693
  773MOL0     H 4304   9.054  11.118   9.626  1.1055  1.1542 -0.5139
  773MOL0     H 4305   9.014  11.264   9.531 -0.4070  0.2067  3.9818
  773MOL0     H 4306   9.177  10.917   9.508 -1.2805  0.5933 -1.2905
  773MOL0     H 4307   9.530  10.998   9.337  0.5972  0.4865 -0.4689
  773MOL0     H 4308   9.470  10.873   9.445 -1.7234 -2.1412 -1.6016
  773MOL0     H 4309   9.334  10.766   9.308 -1.7065 -1.1717 -1.8161
  773MOL0     H 4310   9.481  10.793   9.211 -0.4033 -1.1286  1.5803
  773MOL0     H 4311   9.361  11.005   9.117  3.2404 -1.2551 -0.2647
  773MOL0     H 4312   9.211  10.928   9.183 -0.6198 -0.4199 -3.0648
  773MOL0     H 4313   9.391  10.748   9.016  0.3272  0.8964  1.4844
  773MOL0     H 4314   9.318  10.886   8.921  1.5176  1.1926 -0.1267
  773MOL0     H 4315   9.117  10.974   8.903 -1.8479  1.6306 -0.1324
  773MOL0     H 4316   8.892  11.116   8.888 -1.8697 -1.1590  0.8542
  773MOL0     H 4317   8.981  11.096   8.740 -1.6419  0.5444 -0.7114
  773MOL0     H 4318   8.815  11.074   8.727 -1.2549 -0.1281  0.4114
  773MOL0     H 4319   8.481  10.681   8.559 -0.6578  2.7770 -1.0846
  773MOL0     H 4320   8.226  10.717   8.532 -3.7252  0.2435  1.7500
  773MOL0     H 4321   8.034  10.953   8.825 -0.4808  0.5526 -0.9135
  773MOL0     H 4322   8.017  10.960   8.638  1.7751 -1.4100 -0.5283
  773MOL0     H 4323   7.789  10.951   8.706 -0.5466 -1.0180 -2.2653
  773MOL0     H 4324   7.835  10.784   8.682  1.4894  0.0938  0.1936
  773MOL0     H 4325   7.899  10.789   8.946 -0.3319  2.2476  2.1143
  773MOL0     H 4326   7.743  10.757   8.904  0.3096  0.1436  1.6276
  773MOL0     H 4327   7.877  10.990   9.035  0.0659 -0.2162  1.3827
  773MOL0     H 4328   7.744  11.041   8.936  2.9045  2.1858  0.6830
  773MOL0     H 4329   7.737  10.826   9.142  1.5375 -1.2659 -2.8400
  773MOL0     H 4330   7.603  10.877   9.045  2.2676 -1.5572 -0.1558
  773MOL0     H 4331   7.735  11.057   9.237  1.0514  1.0727 -2.5325
  773MOL0     H 4332   7.606  11.106   9.123  3.2756  0.0395 -1.8606
  773MOL0     H 4333   7.592  10.925   9.379 -1.9394 -1.3489  0.0415
  773MOL0     H 4334   7.474  10.918   9.256  1.1155 -0.2363 -1.4860
  773MOL0     H 4335   7.404  11.061   9.449  3.5708 -1.1165  2.5540
  773MOL0     H 4336   7.408  11.152   9.295 -0.1723 -0.0764 -0.7896
  773MOL0     H 4337   8.197  10.811   8.941 -1.4047  0.3299 -1.9156
  773MOL0     H 4338   8.439  10.775   8.972  1.0059  2.0882 -0.3472
  773MOL0     H 4339   8.773  10.610   8.917  0.3422 -0.4623  2.2938
  773MOL0     H 4340   8.990  10.593   9.048  0.5378  0.9339  1.3325
  773MOL0     H 4341   9.461  10.580   9.519 -0.9481  2.2772 -0.2404
  773MOL0     H 4342   9.672  10.488   9.379  0.7563 -1.8581 -1.0334
  773MOL0     H 4343   9.873  10.512   9.007 -0.9926 -1.5743  0.9678
  773MOL0     H 4344  10.097  10.488   8.918 -1.8074  0.6873  0.2471
  773MOL0     H 4345  10.341  10.134   9.056 -0.1981  0.2615  0.9977
  773MOL0     H 4346  10.323  10.114   8.888 -0.6264 -1.2307  1.7710
  773MOL0     H 4347  10.551  10.143   8.939 -1.1194 -1.5558  2.2476
  773MOL0     H 4348  10.528  10.273   9.052 -0.5906  2.4743 -0.3691
  773MOL0     H 4349  10.479  10.427   8.876 -0.2770 -0.1878  0.8498
  773MOL0     H 4350  10.495  10.298   8.755  1.6461 -4.2812  0.1202
  773MOL0     H 4351  10.712  10.341   8.732  0.0199  2.4371 -1.5095
  773MOL0     H 4352  10.736  10.301   8.901 -3.0093 -3.8979 -0.6739
  773MOL0     H 4353  10.737  10.738   8.887  1.2559 -1.4710  0.1474
  773MOL0     H 4354  10.136  10.087   9.066 -0.0772 -0.4689 -2.1517
  773MOL0     H 4355   9.916  10.101   9.150 -0.6788  0.9252  2.1661
  774MOL0     O 4356  10.262   7.243  10.777  0.1210 -0.3696 -0.1583
  774MOL0     C 4357  10.323   7.209  10.880 -0.9521  0.3139  0.5618
  774MOL0     O 4358  10.410   7.117  10.888 -0.1064  1.0125 -0.3685
  774MOL0     C 4359  10.476   7.068  10.779  0.2149 -0.4101 -0.8501
  774MOL0     C 4360  10.438   6.941  10.719 -0.3584  0.2871 -0.5795
  774MOL0     C 4361  10.494   6.889  10.601  0.7065 -0.0355 -0.0234
  774MOL0     C 4362  10.582   6.965  10.531  0.3952  0.6940 -0.2153
  774MOL0     O 4363  10.647   6.899  10.420 -0.6815  0.4269 -0.1001
  774MOL0     C 4364  10.782   6.938  10.392 -0.6664  0.6560 -0.2728
  774MOL0     C 4365  10.844   6.832  10.305  0.5429 -0.6141  0.8624
  774MOL0     C 4366  10.992   6.828  10.311  0.0208 -0.7414 -0.3205
  774MOL0     C 4367  11.059   6.732  10.221 -0.4478 -0.1969 -0.7116
  774MOL0     C 4368  11.208   6.720  10.257  0.2973  0.3487  0.1290
  774MOL0     C 4369  11.304   6.682  10.145  1.0705  1.4031  0.0043
  774MOL0     C 4370  11.447   6.661  10.192 -0.7153 -0.3363  0.7032
  774MOL0     C 4371  11.478   6.547  10.294  0.6255  0.5428 -0.1308
  774MOL0     N 4372  11.623   6.544  10.308  0.8331 -0.1330 -0.0567
  774MOL0     C 4373  11.709   6.463  10.246 -0.7440 -0.3260 -0.2148
  774MOL0     C 4374  11.828   6.486  10.304  0.2454  0.2470  1.4338
  774MOL0     C 4375  11.949   6.415  10.257  0.1934  0.0668 -0.1154
  774MOL0     C 4376  11.949   6.397  10.099  0.0199 -0.0014  0.3004
  774MOL0     C 4377  12.017   6.522  10.027 -0.4399  0.9425 -0.2644
  774MOL0     C 4378  11.929   6.638  10.000  0.5704 -0.1160 -0.1139
  774MOL0     O 4379  11.808   6.577   9.952 -0.4631 -0.4100 -0.6829
  774MOL0     C 4380  11.716   6.664   9.901  0.4552 -0.1303  0.2297
  774MOL0     C 4381  11.684   6.787   9.954  0.2409  0.2722 -0.1812
  774MOL0     C 4382  11.576   6.862   9.901  0.5028 -0.4051  0.6389
  774MOL0     C 4383  11.544   6.998   9.964  0.3451 -0.0773 -0.1883
  774MOL0     C 4384  11.494   6.811   9.798  0.8714  0.3052 -0.7377
  774MOL0     C 4385  11.369   6.867   9.738 -0.2790 -0.1713  0.5552
  774MOL0     O 4386  11.293   6.773   9.668  0.3558  0.3652  0.4114
  774MOL0     C 4387  11.209   6.830   9.578  1.1731  0.3548  0.7354
  774MOL0     C 4388  11.072   6.813   9.602  0.1189 -0.6864 -0.9703
  774MOL0     C 4389  10.975   6.859   9.517  0.4105  0.0201  0.2017
  774MOL0     C 4390  11.005   6.924   9.397  1.3374  0.4268 -0.0648
  774MOL0     O 4391  10.894   6.979   9.332 -0.3307  0.5527  0.7158
  774MOL0     C 4392  10.898   6.967   9.182 -0.0113  0.1243 -0.5846
  774MOL0     C 4393  10.773   7.017   9.123  0.5228  0.2252  0.1070
  774MOL0     C 4394  10.668   6.900   9.122 -0.4736  0.7769 -0.9324
  774MOL0     C 4395  10.707   6.790   9.017  0.3332 -0.0285  0.0392
  774MOL0     C 4396  10.651   6.652   9.037  0.3185  0.3962  0.8441
  774MOL0     C 4397  10.697   6.595   9.172  0.0927  0.7696  0.8291
  774MOL0     C 4398  10.643   6.453   9.191 -0.6985 -0.3819 -0.1220
  774MOL0     C 4399  10.654   6.399   9.330 -0.3984  0.4133 -0.0265
  774MOL0    Cl 4400  10.583   6.503   9.460  0.0931 -0.1485 -0.7392
  774MOL0     C 4401  11.140   6.949   9.372  0.7247 -0.4707  0.7256
  774MOL0     C 4402  11.244   6.899   9.455 -0.4323 -0.3791 -0.6379
  774MOL0     O 4403  11.357   6.991   9.723 -0.6016  0.4981 -0.3084
  774MOL0     C 4404  11.536   6.677   9.755  0.2487 -0.6527  0.4671
  774MOL0     C 4405  11.645   6.612   9.790 -0.1929 -0.3349  0.5612
  774MOL0     N 4406  11.814   6.599  10.383 -0.0572  0.1681 -0.0859
  774MOL0     N 4407  11.692   6.636  10.392  0.1624  0.4105  1.1842
  774MOL0     C 4408  10.617   7.089  10.586  0.0001 -0.2712  0.5311
  774MOL0     C 4409  10.557   7.148  10.699 -0.4446  0.2203 -0.0337
  774MOL0     C 4410  10.286   7.266  11.006  0.4274 -0.8354  0.3565
  774MOL0     C 4411  10.197   7.374  11.014 -0.0360 -0.8760 -0.5764
  774MOL0     C 4412  10.164   7.427  11.134  0.2477  0.0701 -1.0263
  774MOL0     C 4413  10.214   7.375  11.259 -1.3062  0.6447 -0.5905
  774MOL0     O 4414  10.190   7.417  11.387 -0.1962  1.3438 -0.7600
  774MOL0     C 4415  10.071   7.498  11.407 -0.8472 -0.3379  0.5963
  774MOL0     C 4416  10.018   7.471  11.543 -0.9168  0.1832  0.4437
  774MOL0     C 4417  10.127   7.489  11.649 -0.5762 -0.5199 -0.3243
  774MOL0     C 4418  10.070   7.481  11.803  0.6498 -0.4939  0.2050
  774MOL0     C 4419   9.956   7.578  11.842 -0.1372  0.2129  1.1467
  774MOL0     C 4420   9.859   7.653  11.864  0.6506  1.1562 -0.5679
  774MOL0     C 4421  10.310   7.266  11.252  0.5958 -0.0539  0.4950
  774MOL0     C 4422  10.339   7.221  11.123 -0.1684  0.6137  0.5795
  774MOL0     H 4423  10.362   6.902  10.786  0.8969 -0.8413  0.2410
  774MOL0     H 4424  10.462   6.793  10.562  0.7802  0.6691 -1.9456
  774MOL0     H 4425  10.791   7.035  10.342 -0.9995  2.2650  2.5800
  774MOL0     H 4426  10.842   6.937  10.483 -0.4134 -0.7808 -0.4323
  774MOL0     H 4427  10.814   6.733  10.340  0.0758 -0.6647  0.3338
  774MOL0     H 4428  10.798   6.846  10.207 -3.9322  1.3475  2.9364
  774MOL0     H 4429  11.036   6.928  10.299 -2.9741  0.7950  0.5609
  774MOL0     H 4430  11.003   6.794  10.414  0.7766 -2.0705 -0.8172
  774MOL0     H 4431  11.015   6.632  10.228 -2.3474  0.6966  2.1314
  774MOL0     H 4432  11.042   6.764  10.118  1.6952  1.7285 -0.5735
  774MOL0     H 4433  11.245   6.817  10.291 -0.7898  0.5387  0.8228
  774MOL0     H 4434  11.212   6.648  10.340 -1.2578 -2.5714 -2.1196
  774MOL0     H 4435  11.271   6.592  10.091  2.2688  2.1075 -1.9985
  774MOL0     H 4436  11.302   6.755  10.063 -1.6214 -0.7495 -2.0458
  774MOL0     H 4437  11.506   6.634  10.104 -2.8192  3.3127 -2.0995
  774MOL0     H 4438  11.480   6.755  10.238 -1.1907 -0.5915  1.5956
  774MOL0     H 4439  11.448   6.447  10.260  0.7889  0.1552  0.8451
  774MOL0     H 4440  11.425   6.564  10.388 -0.9223  0.1127 -0.8949
  774MOL0     H 4441  11.695   6.374  10.185 -0.2670 -0.2545 -0.4354
  774MOL0     H 4442  12.041   6.460  10.296 -0.3629  2.5556 -1.4204
  774MOL0     H 4443  11.944   6.311  10.290 -0.8119 -0.2777 -1.2750
  774MOL0     H 4444  11.853   6.365  10.059 -1.5224  0.4864  3.3435
  774MOL0     H 4445  12.022   6.321  10.068 -0.8428 -0.0601 -1.7375
  774MOL0     H 4446  12.071   6.487   9.938  3.4541 -1.3410  2.6441
  774MOL0     H 4447  12.103   6.556  10.085 -0.3331 -1.0993  0.8552
  774MOL0     H 4448  11.976   6.709   9.932 -0.8455  0.5717 -0.4296
  774MOL0     H 4449  11.920   6.688  10.097 -1.0605 -2.9102  1.3072
  774MOL0     H 4450  11.746   6.811  10.040 -0.1294 -0.3827  0.2734
  774MOL0     H 4451  11.534   7.070   9.882 -2.0267  0.8786  0.8625
  774MOL0     H 4452  11.449   6.990  10.018  0.7551  0.9984  0.7305
  774MOL0     H 4453  11.625   7.026  10.031 -1.0436  0.4405  1.3497
  774MOL0     H 4454  11.047   6.749   9.686 -0.7592 -0.8538 -1.3482
  774MOL0     H 4455  10.869   6.852   9.537 -0.0143  3.1043 -0.5306
  774MOL0     H 4456  10.972   7.041   9.151 -0.5036  0.9868  0.2642
  774MOL0     H 4457  10.927   6.868   9.146 -2.9018 -0.7905 -0.6002
  774MOL0     H 4458  10.737   7.106   9.177  1.9925 -0.6189  2.6603
  774MOL0     H 4459  10.797   7.042   9.019  0.2833 -2.2349 -0.5880
  774MOL0     H 4460  10.565   6.924   9.092 -1.0760 -1.5460 -0.9608
  774MOL0     H 4461  10.662   6.851   9.220  1.1230 -2.7030 -2.3833
  774MOL0     H 4462  10.687   6.840   8.922  0.4176  4.4481  2.1005
  774MOL0     H 4463  10.811   6.758   9.029  0.3964  0.7986  2.0543
  774MOL0     H 4464  10.685   6.588   8.956 -2.2170  0.6174 -0.4999
  774MOL0     H 4465  10.543   6.671   9.032  0.0610 -1.3201 -2.2026
  774MOL0     H 4466  10.806   6.592   9.159 -0.1743 -0.4811 -1.6516
  774MOL0     H 4467  10.666   6.659   9.255  0.1988  2.2341 -0.2300
  774MOL0     H 4468  10.694   6.390   9.117 -0.0926 -0.5688  0.4471
  774MOL0     H 4469  10.537   6.450   9.166 -0.9861 -0.7230  1.0670
  774MOL0     H 4470  10.761   6.379   9.341 -1.0661 -2.2938  3.1954
  774MOL0     H 4471  10.604   6.301   9.325  1.3391 -0.4646 -1.9919
  774MOL0     H 4472  11.177   7.018   9.296 -0.8615 -0.7201 -0.3339
  774MOL0     H 4473  11.345   6.931   9.433 -0.1926 -1.3364 -0.9808
  774MOL0     H 4474  11.478   6.609   9.694  0.7072 -1.3312  0.7673
  774MOL0     H 4475  11.685   6.522   9.743  2.1639 -0.3359  2.3522
  774MOL0     H 4476  10.676   7.147  10.517  0.9880 -1.2350  0.5341
  774MOL0     H 4477  10.595   7.246  10.726  1.3018 -0.6018  0.6288
  774MOL0     H 4478  10.141   7.419  10.933 -1.4179 -0.4991  0.5494
  774MOL0     H 4479  10.081   7.497  11.134 -2.4758 -2.8710  0.9304
  774MOL0     H 4480  10.085   7.604  11.385 -1.0062 -0.1368  1.4470
  774MOL0     H 4481   9.998   7.456  11.336 -0.9199 -0.6133  0.8323
  774MOL0     H 4482  10.003   7.363  11.547  2.9369 -0.7203 -3.0370
  774MOL0     H 4483   9.933   7.532  11.578 -0.5955  0.2028  1.2089
  774MOL0     H 4484  10.176   7.582  11.619  0.8082  0.2293  3.5836
  774MOL0     H 4485  10.205   7.414  11.637 -0.1492 -0.0008 -0.8258
  774MOL0     H 4486  10.151   7.492  11.876  0.5536  1.8701  0.0221
  774MOL0     H 4487  10.024   7.382  11.803 -2.2735  0.7785  1.3291
  774MOL0     H 4488   9.764   7.694  11.890  0.9913 -0.0541  3.1343
  774MOL0     H 4489  10.365   7.223  11.335 -2.4220  0.2406  2.7765
  774MOL0     H 4490  10.413   7.142  11.117  0.0069  0.8194 -0.0890
  775MOL0     O 4491   7.128   5.005   7.688 -0.3254  0.0792 -0.1480
  775MOL0     C 4492   7.114   4.963   7.801 -0.0984  0.7597  0.0469
  775MOL0     O 4493   7.001   4.922   7.872  0.8393  0.9848  0.3716
  775MOL0     C 4494   6.872   4.943   7.833  0.6213  0.7510 -0.1833
  775MOL0     C 4495   6.773   4.904   7.926  0.0509  0.3730 -0.0475
  775MOL0     C 4496   6.640   4.930   7.895 -0.7488  0.0801 -0.4613
  775MOL0     C 4497   6.601   5.002   7.782 -0.3393 -0.0031  0.4781
  775MOL0     O 4498   6.467   5.029   7.762 -0.3163  0.3247 -0.9710
  775MOL0     C 4499   6.407   5.027   7.634 -0.3495  0.0750  0.6869
  775MOL0     C 4500   6.270   5.095   7.663 -0.0618 -0.9662 -0.2637
  775MOL0     C 4501   6.184   5.017   7.765 -0.5583  0.5232 -0.3550
  775MOL0     C 4502   6.065   4.941   7.706  0.2999 -0.6795  0.0634
  775MOL0     C 4503   5.977   4.880   7.816  0.2706 -0.1746  0.6609
  775MOL0     C 4504   5.876   4.781   7.756  0.7883  0.4641 -0.2672
  775MOL0     C 4505   5.779   4.732   7.860 -0.5428 -0.3368 -0.3131
  775MOL0     C 4506   5.670   4.642   7.800 -0.1081 -0.1961 -0.5017
  775MOL0     N 4507   5.577   4.714   7.719 -0.3128  0.3425 -0.4797
  775MOL0     C 4508   5.504   4.818   7.763  0.0236 -0.4767 -0.6270
  775MOL0     C 4509   5.396   4.833   7.681  0.5982  0.0042  0.7007
  775MOL0     C 4510   5.267   4.914   7.699 -0.3528 -0.1082  0.2161
  775MOL0     C 4511   5.292   5.063   7.730  0.2612 -0.2684 -0.0786
  775MOL0     C 4512   5.303   5.085   7.875 -0.0673 -0.4070 -0.6785
  775MOL0     C 4513   5.320   5.239   7.904 -0.1366  0.7449  0.4111
  775MOL0     O 4514   5.205   5.308   7.878  0.2048  1.0673  0.2950
  775MOL0     C 4515   5.073   5.261   7.904  0.6137 -0.3493  0.1411
  775MOL0     C 4516   4.978   5.283   7.807 -0.4563  0.2443  0.4271
  775MOL0     C 4517   4.838   5.265   7.832 -0.7741 -0.4974  0.1398
  775MOL0     C 4518   4.745   5.317   7.723 -0.1069  0.0718 -0.0476
  775MOL0     C 4519   4.799   5.200   7.951 -0.8717  1.2354  0.3882
  775MOL0     C 4520   4.661   5.176   7.994  0.3063  0.5854  0.0605
  775MOL0     O 4521   4.644   5.132   8.125 -0.1383 -0.2879 -0.1168
  775MOL0     C 4522   4.523   5.134   8.191 -1.1254  0.2151  0.1258
  775MOL0     C 4523   4.509   5.057   8.304  0.2375  0.6161  0.6391
  775MOL0     C 4524   4.389   5.057   8.380  0.7266 -0.3603  0.8437
  775MOL0     C 4525   4.275   5.122   8.336  1.3916 -0.2982 -0.0212
  775MOL0     O 4526   4.151   5.119   8.402  0.5005 -0.3609  0.0516
  775MOL0     C 4527   4.127   5.027   8.508 -0.2678  0.1218  0.7411
  775MOL0     C 4528   3.977   5.003   8.542  0.2802 -0.3449 -0.8401
  775MOL0     C 4529   3.948   4.909   8.647  0.1102 -0.4485  0.0694
  775MOL0     C 4530   3.996   4.962   8.777  0.6768  0.2805 -0.6716
  775MOL0     C 4531   3.925   4.887   8.877 -0.5150 -0.3672 -0.4996
  775MOL0     C 4532   3.973   4.926   9.021 -0.0829  0.4631 -0.3018
  775MOL0     C 4533   3.876   4.871   9.137 -0.8200  0.2663  1.0472
  775MOL0     C 4534   3.915   4.938   9.269  0.0960 -0.6623 -0.1348
  775MOL0    Cl 4535   3.781   4.881   9.382  0.0996  0.3733 -0.1278
  775MOL0     C 4536   4.285   5.197   8.222  0.4511  1.2968  0.3204
  775MOL0     C 4537   4.405   5.203   8.150  0.7213 -0.1997 -0.2389
  775MOL0     O 4538   4.566   5.204   7.915 -0.1837 -0.0369 -0.1839
  775MOL0     C 4539   4.902   5.163   8.041  1.4017 -0.0093 -0.7156
  775MOL0     C 4540   5.032   5.205   8.020 -0.3867 -0.1376  0.7592
  775MOL0     N 4541   5.420   4.752   7.570  0.0925  0.1812  0.1769
  775MOL0     N 4542   5.527   4.677   7.594 -0.1016  0.2977 -0.2865
  775MOL0     C 4543   6.701   5.055   7.699 -0.0150 -0.7230 -1.0562
  775MOL0     C 4544   6.834   5.023   7.721 -0.3245  0.9015  0.4845
  775MOL0     C 4545   7.238   4.955   7.876  0.4579  0.7539  0.8147
  775MOL0     C 4546   7.234   4.936   8.013  1.6202 -0.5917 -0.3465
  775MOL0     C 4547   7.356   4.932   8.084 -0.1086 -0.5533  0.5668
  775MOL0     C 4548   7.482   4.936   8.019  0.7984 -0.1716  0.0987
  775MOL0     O 4549   7.602   4.915   8.083 -0.1422 -0.2979 -0.0777
  775MOL0     C 4550   7.610   4.956   8.218 -0.2796  0.0013  1.0399
  775MOL0     C 4551   7.760   4.942   8.260  0.6031  0.1831  0.0189
  775MOL0     C 4552   7.802   4.976   8.404 -0.4225 -0.6333  0.0834
  775MOL0     C 4553   7.717   4.894   8.498  0.0734  0.4963  0.0966
  775MOL0     C 4554   7.756   4.904   8.631  0.3600 -0.4402  0.4506
  775MOL0     C 4555   7.769   4.914   8.757  0.3663 -0.3307  0.5078
  775MOL0     C 4556   7.477   4.963   7.883 -0.5486 -0.0601 -0.9060
  775MOL0     C 4557   7.362   4.977   7.815  0.3617  0.0733 -0.4750
  775MOL0     H 4558   6.814   4.852   8.013 -0.8558  1.3364  0.9886
  775MOL0     H 4559   6.572   4.885   7.966  0.6857 -2.0959 -0.3689
  775MOL0     H 4560   6.463   5.084   7.560 -3.3248  1.0422 -0.9630
  775MOL0     H 4561   6.388   4.926   7.597 -0.0665 -0.8707  2.9115
  775MOL0     H 4562   6.294   5.188   7.714 -3.4275  0.2243 -0.6274
  775MOL0     H 4563   6.209   5.114   7.574  0.8339  1.3846 -0.4385
  775MOL0     H 4564   6.246   4.939   7.812  0.2470 -0.8556 -3.4585
  775MOL0     H 4565   6.147   5.088   7.840 -1.5522 -0.2543 -0.0939
  775MOL0     H 4566   6.009   5.014   7.646  1.6013 -1.3651 -2.0929
  775MOL0     H 4567   6.112   4.859   7.652  0.0109 -0.9852  0.2729
  775MOL0     H 4568   6.047   4.830   7.884  1.6543  0.9376  0.1155
  775MOL0     H 4569   5.934   4.967   7.866 -0.3518  1.2725 -2.2173
  775MOL0     H 4570   5.821   4.819   7.670  3.2862 -2.2501 -3.3125
  775MOL0     H 4571   5.936   4.698   7.718  0.4149  0.2814 -0.4661
  775MOL0     H 4572   5.834   4.678   7.938  1.2236  3.0227  0.9765
  775MOL0     H 4573   5.735   4.821   7.906  1.1072  0.7526 -0.7655
  775MOL0     H 4574   5.606   4.591   7.873  0.3074 -0.8476 -0.5866
  775MOL0     H 4575   5.720   4.567   7.738 -2.1484 -3.5200  1.5780
  775MOL0     H 4576   5.521   4.873   7.856 -2.0377 -0.1219 -0.4235
  775MOL0     H 4577   5.202   4.905   7.612  1.0044 -1.9299 -0.6638
  775MOL0     H 4578   5.205   4.868   7.777 -2.8065  2.7213  0.1111
  775MOL0     H 4579   5.219   5.132   7.687 -1.2436 -1.5250  0.3587
  775MOL0     H 4580   5.387   5.092   7.684  0.7851 -1.5795  0.1189
  775MOL0     H 4581   5.386   5.031   7.920 -0.2514  0.6011  0.9703
  775MOL0     H 4582   5.210   5.043   7.915 -1.1779  3.2625  1.1342
  775MOL0     H 4583   5.396   5.280   7.837  1.0558  0.8692  1.7868
  775MOL0     H 4584   5.338   5.261   8.009 -2.5196 -1.7331  1.4878
  775MOL0     H 4585   5.009   5.324   7.712  0.1132 -2.2376 -0.5068
  775MOL0     H 4586   4.796   5.360   7.636  0.9101  2.6511  1.7147
  775MOL0     H 4587   4.676   5.238   7.692  2.2798 -1.8422 -0.7785
  775MOL0     H 4588   4.673   5.391   7.758  1.4332  1.3706  0.5013
  775MOL0     H 4589   4.590   4.992   8.334  0.7356  0.3384 -1.1614
  775MOL0     H 4590   4.371   4.982   8.456 -2.6165  0.6456  1.2384
  775MOL0     H 4591   4.158   4.929   8.470  0.7969  0.6596  0.1754
  775MOL0     H 4592   4.193   5.050   8.592  0.8141 -0.2310  0.0067
  775MOL0     H 4593   3.910   5.090   8.546 -0.3302 -0.8632  0.9325
  775MOL0     H 4594   3.935   4.961   8.451 -0.8845 -1.0451 -0.0080
  775MOL0     H 4595   4.005   4.818   8.626  0.7621 -0.6905  2.5881
  775MOL0     H 4596   3.841   4.886   8.644  0.1632 -1.8675  3.8862
  775MOL0     H 4597   4.105   4.954   8.780  0.6321 -0.9909 -1.7716
  775MOL0     H 4598   3.983   5.070   8.788 -2.7857 -0.0809  0.1015
  775MOL0     H 4599   3.945   4.779   8.880 -0.7135 -0.4365 -1.4057
  775MOL0     H 4600   3.818   4.910   8.876 -0.3132  0.6295 -0.4104
  775MOL0     H 4601   4.072   4.883   9.041  0.0625  0.7396 -0.4132
  775MOL0     H 4602   3.999   5.031   9.037  2.1690 -0.0897  0.0530
  775MOL0     H 4603   3.879   4.763   9.125  1.0327  0.2515  1.3644
  775MOL0     H 4604   3.776   4.900   9.103 -1.6585 -0.1131  3.0733
  775MOL0     H 4605   3.927   5.046   9.271  2.3005 -0.8395 -0.7787
  775MOL0     H 4606   4.011   4.900   9.305  1.5056  0.3785 -2.5520
  775MOL0     H 4607   4.191   5.241   8.188 -1.2832 -0.6436  2.2819
  775MOL0     H 4608   4.414   5.279   8.072  1.5029 -0.1366 -0.1012
  775MOL0     H 4609   4.879   5.113   8.135  1.1657  1.8501  0.2895
  775MOL0     H 4610   5.105   5.205   8.100  0.0627 -0.9225  0.3573
  775MOL0     H 4611   6.670   5.115   7.614 -0.1040  0.0207 -0.5041
  775MOL0     H 4612   6.900   5.062   7.644  1.1489 -2.8340 -0.3260
  775MOL0     H 4613   7.147   4.912   8.073  0.6897  0.5424 -1.1788
  775MOL0     H 4614   7.338   4.925   8.191  0.3627 -0.2994  0.6645
  775MOL0     H 4615   7.576   5.060   8.222 -0.3689 -0.0557  1.8211
  775MOL0     H 4616   7.551   4.886   8.277  0.9441  0.2458  2.6328
  775MOL0     H 4617   7.823   4.991   8.184  0.1654 -1.7920 -1.7115
  775MOL0     H 4618   7.782   4.837   8.239 -2.3440 -0.7505  1.1591
  775MOL0     H 4619   7.789   5.082   8.429 -4.7859 -0.8332 -0.4702
  775MOL0     H 4620   7.908   4.959   8.421 -0.5403 -0.9343  0.5365
  775MOL0     H 4621   7.728   4.789   8.472 -0.6238  0.6431 -0.8389
  775MOL0     H 4622   7.611   4.923   8.501 -0.1740 -0.3859  0.0680
  775MOL0     H 4623   7.799   4.923   8.859 -0.1697  4.0344  0.4529
  775MOL0     H 4624   7.571   4.961   7.828  0.6519 -1.1890  1.0623
  775MOL0     H 4625   7.364   4.981   7.707 -3.0448 -1.2048 -0.6975
  776MOL0     O 4626   9.886   5.960   4.755 -0.2249 -0.5928  0.3029
  776MOL0     C 4627   9.971   6.010   4.685  0.6570 -0.7737 -0.1026
  776MOL0     O 4628   9.954   6.090   4.571  0.2625  0.9543 -0.4344
  776MOL0     C 4629   9.823   6.103   4.531 -0.6199 -0.9638  0.5835
  776MOL0     C 4630   9.708   6.126   4.606  0.5371  0.4042  0.4908
  776MOL0     C 4631   9.578   6.133   4.545 -0.2505  0.5779 -0.5474
  776MOL0     C 4632   9.576   6.112   4.405 -0.5285  0.1859 -0.9852
  776MOL0     O 4633   9.467   6.091   4.330 -0.1040 -0.0149  0.1979
  776MOL0     C 4634   9.348   6.164   4.351 -0.6940 -0.9054  1.0545
  776MOL0     C 4635   9.264   6.164   4.217  0.2901 -0.2622 -0.1666
  776MOL0     C 4636   9.175   6.286   4.210  0.6492 -0.6083  0.2113
  776MOL0     C 4637   9.071   6.277   4.322  0.6193 -0.1714  0.2329
  776MOL0     C 4638   8.960   6.386   4.322 -0.0577  1.1847  0.0392
  776MOL0     C 4639   8.828   6.348   4.253  0.0880  0.4631 -0.3297
  776MOL0     C 4640   8.834   6.364   4.102 -0.1479 -0.4072  0.1673
  776MOL0     C 4641   8.754   6.470   4.038  0.6290 -1.0209  0.2464
  776MOL0     N 4642   8.605   6.458   4.051  0.2955  0.3401  0.3537
  776MOL0     C 4643   8.526   6.383   3.969 -0.1987  0.4901  0.1330
  776MOL0     C 4644   8.399   6.404   4.010 -0.5918  0.6750  0.8929
  776MOL0     C 4645   8.272   6.358   3.946 -0.6647  0.7989  0.2893
  776MOL0     C 4646   8.234   6.438   3.815 -0.6919  0.3012  0.0227
  776MOL0     C 4647   8.169   6.570   3.856  0.5887  0.0723  0.0159
  776MOL0     C 4648   8.029   6.560   3.906  0.5300 -0.5964 -0.1421
  776MOL0     O 4649   7.968   6.683   3.879  0.1338  0.4887 -0.0445
  776MOL0     C 4650   7.832   6.702   3.890  0.0695 -0.4745 -0.0995
  776MOL0     C 4651   7.732   6.617   3.930  0.6719  0.6407 -0.4239
  776MOL0     C 4652   7.605   6.670   3.954  0.0799  0.2925  1.2030
  776MOL0     C 4653   7.500   6.578   4.018 -0.2150 -0.8544 -0.1193
  776MOL0     C 4654   7.573   6.799   3.913 -0.6107  0.0640 -0.7828
  776MOL0     C 4655   7.429   6.856   3.922 -0.5659  0.0478 -0.4507
  776MOL0     O 4656   7.339   6.777   3.866 -0.3393  0.4531  0.5401
  776MOL0     C 4657   7.202   6.798   3.892 -0.1496  0.8114 -0.5813
  776MOL0     C 4658   7.151   6.867   4.008 -0.4461  0.3065 -0.0823
  776MOL0     C 4659   7.015   6.889   4.030  0.3021 -0.4554 -0.7156
  776MOL0     C 4660   6.925   6.833   3.944  0.1941  0.7448  0.3166
  776MOL0     O 4661   6.788   6.851   3.959  0.0343 -0.1947  0.5820
  776MOL0     C 4662   6.738   6.983   3.974 -0.1298 -0.1442  0.9483
  776MOL0     C 4663   6.744   7.050   3.834 -0.2578 -0.0589  1.0446
  776MOL0     C 4664   6.658   6.968   3.733  0.1650 -0.3346 -0.2090
  776MOL0     C 4665   6.553   7.039   3.640  0.3745 -0.8042  0.0179
  776MOL0     C 4666   6.493   6.937   3.539 -0.0049 -1.4689 -0.3898
  776MOL0     C 4667   6.600   6.901   3.429  0.9249 -0.4567 -0.1728
  776MOL0     C 4668   6.575   6.776   3.348 -0.2368  0.6962  0.7105
  776MOL0     C 4669   6.565   6.648   3.430  0.1670 -0.0221  0.2689
  776MOL0    Cl 4670   6.713   6.622   3.517  0.1893 -0.5503 -0.6360
  776MOL0     C 4671   6.967   6.763   3.831  0.4094  0.1559  0.1223
  776MOL0     C 4672   7.107   6.740   3.805  0.9167  0.0472 -0.4808
  776MOL0     O 4673   7.419   6.972   3.953  0.7792  0.4867  0.3801
  776MOL0     C 4674   7.673   6.887   3.881 -1.3455  0.1839  0.0734
  776MOL0     C 4675   7.801   6.834   3.863  0.6325  0.0593 -0.3246
  776MOL0     N 4676   8.407   6.494   4.111 -0.1672  0.0628  0.2958
  776MOL0     N 4677   8.534   6.530   4.142  0.5576 -0.9557  0.2016
  776MOL0     C 4678   9.689   6.103   4.332  0.5407 -0.1002  0.3008
  776MOL0     C 4679   9.815   6.109   4.391  0.3493  0.4493  0.1787
  776MOL0     C 4680  10.105   6.002   4.737 -0.1899 -0.1178  0.6840
  776MOL0     C 4681  10.207   6.066   4.669  1.5330  0.2698 -0.7336
  776MOL0     C 4682  10.333   6.057   4.715 -0.5065 -0.6943 -0.5281
  776MOL0     C 4683  10.367   5.985   4.834 -0.8576 -0.0769 -0.0464
  776MOL0     O 4684  10.496   5.978   4.886  0.8097  0.6308 -0.8543
  776MOL0     C 4685  10.613   6.022   4.824 -0.3484  0.5278  0.5943
  776MOL0     C 4686  10.738   5.964   4.893  0.1629  0.1258  0.5776
  776MOL0     C 4687  10.740   5.805   4.906  0.3555  0.6022  0.2100
  776MOL0     C 4688  10.862   5.759   4.983 -0.0534 -0.5163  0.2501
  776MOL0     C 4689  10.985   5.788   4.921 -0.2718 -0.2097 -1.0651
  776MOL0     C 4690  11.082   5.823   4.855  0.1486  0.3534 -0.0656
  776MOL0     C 4691  10.267   5.916   4.894 -0.2936 -0.3400  0.3468
  776MOL0     C 4692  10.137   5.937   4.853 -0.2767  0.6570 -0.1982
  776MOL0     H 4693   9.724   6.140   4.713 -0.8157 -3.4075  1.3374
  776MOL0     H 4694   9.484   6.147   4.598 -0.3150 -0.1311 -0.4625
  776MOL0     H 4695   9.293   6.124   4.437  0.3772 -3.1643  0.7911
  776MOL0     H 4696   9.376   6.268   4.370 -2.2728 -0.4248  0.8431
  776MOL0     H 4697   9.325   6.148   4.128 -2.7339 -0.5355 -2.3804
  776MOL0     H 4698   9.196   6.078   4.211  0.5801 -0.5471  0.5471
  776MOL0     H 4699   9.234   6.377   4.225  0.8062 -1.0655  3.0583
  776MOL0     H 4700   9.136   6.288   4.108  2.0835 -0.1715 -0.3590
  776MOL0     H 4701   9.022   6.180   4.325 -1.0805  0.6142 -0.5214
  776MOL0     H 4702   9.129   6.286   4.414 -0.4803  1.4966  0.8209
  776MOL0     H 4703   8.948   6.395   4.430 -0.3526 -0.3718  0.1577
  776MOL0     H 4704   9.003   6.480   4.285 -2.9083  1.6795 -2.3984
  776MOL0     H 4705   8.818   6.242   4.278  2.9141  0.3453  0.6771
  776MOL0     H 4706   8.740   6.400   4.293 -1.1161 -0.5601 -1.5229
  776MOL0     H 4707   8.936   6.378   4.064 -0.8102  0.8615 -1.2823
  776MOL0     H 4708   8.814   6.269   4.051  1.5154  1.0681 -3.6221
  776MOL0     H 4709   8.788   6.475   3.934  1.4136  1.1867  0.5654
  776MOL0     H 4710   8.789   6.566   4.077  2.1393 -1.2430 -0.4684
  776MOL0     H 4711   8.558   6.317   3.889 -1.4639 -1.4550  1.1441
  776MOL0     H 4712   8.299   6.254   3.928  1.5843  1.1872  1.1188
  776MOL0     H 4713   8.182   6.361   4.008 -1.1375 -0.3360 -0.3170
  776MOL0     H 4714   8.165   6.383   3.751 -2.3203  2.1283  0.1286
  776MOL0     H 4715   8.331   6.457   3.768 -1.3194 -2.7360 -2.8746
  776MOL0     H 4716   8.169   6.646   3.778 -2.3604  0.8982  0.6920
  776MOL0     H 4717   8.227   6.615   3.938  3.5612  0.0084 -1.8979
  776MOL0     H 4718   8.029   6.537   4.013 -1.7303 -0.2210 -0.0149
  776MOL0     H 4719   7.972   6.481   3.854 -1.2766 -0.3670  1.3882
  776MOL0     H 4720   7.748   6.510   3.943 -2.6042  0.3100  2.0133
  776MOL0     H 4721   7.485   6.623   4.116  0.1059 -0.2416 -0.3449
  776MOL0     H 4722   7.406   6.569   3.963 -0.9364 -4.1806  1.3915
  776MOL0     H 4723   7.536   6.475   4.027  0.6008 -0.5412  0.2894
  776MOL0     H 4724   7.218   6.921   4.074  1.6867  0.6466 -2.4111
  776MOL0     H 4725   6.992   6.949   4.118  2.3437 -0.7867  0.1001
  776MOL0     H 4726   6.633   6.990   4.004 -0.6270 -0.6981 -0.5820
  776MOL0     H 4727   6.790   7.045   4.047  0.5269 -0.3128  0.6287
  776MOL0     H 4728   6.699   7.149   3.835  2.5714  1.3215  2.3709
  776MOL0     H 4729   6.844   7.058   3.789 -0.4734 -0.6107  0.4518
  776MOL0     H 4730   6.606   6.887   3.784 -1.0589 -0.2321 -1.2374
  776MOL0     H 4731   6.727   6.919   3.663 -0.4834 -0.7712 -0.5472
  776MOL0     H 4732   6.489   7.078   3.719  1.1686  0.2322  0.1615
  776MOL0     H 4733   6.601   7.124   3.592  1.8235 -1.6441 -0.0846
  776MOL0     H 4734   6.405   6.987   3.496  0.3670  0.8285  1.3082
  776MOL0     H 4735   6.458   6.844   3.586 -2.7530 -0.4171 -0.1665
  776MOL0     H 4736   6.626   6.985   3.363  2.1994 -2.2317 -2.0684
  776MOL0     H 4737   6.692   6.886   3.486  1.4340  2.0483 -0.2035
  776MOL0     H 4738   6.648   6.762   3.267 -2.1048 -0.2507 -0.9092
  776MOL0     H 4739   6.478   6.786   3.298 -0.3197  0.0010  0.7265
  776MOL0     H 4740   6.554   6.568   3.356  0.7972  1.5358 -1.5820
  776MOL0     H 4741   6.475   6.645   3.492 -1.3145  0.7670 -1.7282
  776MOL0     H 4742   6.880   6.736   3.771  0.6181  0.6736 -0.4199
  776MOL0     H 4743   7.135   6.682   3.718  0.1732 -1.3348  0.1704
  776MOL0     H 4744   7.659   6.992   3.858  1.3863  0.3628 -1.1985
  776MOL0     H 4745   7.877   6.904   3.830  0.3609 -0.0663 -1.2456
  776MOL0     H 4746   9.678   6.081   4.226  1.7405 -1.7300  0.4738
  776MOL0     H 4747   9.909   6.110   4.337  0.6777  2.2674  0.6901
  776MOL0     H 4748  10.183   6.123   4.580  2.4610 -2.4822 -2.8983
  776MOL0     H 4749  10.408   6.113   4.660 -4.5132  3.8641 -2.0588
  776MOL0     H 4750  10.600   6.007   4.716  3.5950  0.4929 -0.0097
  776MOL0     H 4751  10.627   6.130   4.828  4.6415  0.0582  2.5249
  776MOL0     H 4752  10.749   6.010   4.992  2.6076  0.6408  0.1231
  776MOL0     H 4753  10.827   6.000   4.840 -0.4393  0.0857 -0.4904
  776MOL0     H 4754  10.737   5.759   4.807 -0.0742  2.4478 -0.6863
  776MOL0     H 4755  10.651   5.764   4.954 -1.3406  0.9126 -2.5061
  776MOL0     H 4756  10.860   5.650   4.991  0.1940 -0.5284  0.1514
  776MOL0     H 4757  10.869   5.804   5.083  0.5615 -0.6703  0.2775
  776MOL0     H 4758  11.154   5.852   4.781 -1.1144  5.1159  0.2352
  776MOL0     H 4759  10.279   5.860   4.986  0.6590  0.5458  0.7834
  776MOL0     H 4760  10.054   5.888   4.903 -0.7856  1.7215  0.0096
  777MOL0     O 4761   4.509   6.976   9.326 -0.2944 -0.0083 -0.2131
  777MOL0     C 4762   4.542   6.858   9.313  0.4845 -0.1645 -0.0918
  777MOL0     O 4763   4.456   6.749   9.315  0.0321 -0.0321 -0.0572
  777MOL0     C 4764   4.316   6.775   9.311 -0.7953  0.9054  0.2856
  777MOL0     C 4765   4.258   6.869   9.223 -0.1610 -0.3150 -0.2092
  777MOL0     C 4766   4.124   6.899   9.227 -0.7794 -0.2231 -0.7022
  777MOL0     C 4767   4.039   6.832   9.318 -0.1653 -0.1048 -0.3389
  777MOL0     O 4768   3.904   6.852   9.334 -0.4375  0.0411 -0.3311
  777MOL0     C 4769   3.819   6.933   9.244 -0.2115 -0.4521  0.1592
  777MOL0     C 4770   3.706   6.984   9.336  0.6263 -0.0029 -0.4207
  777MOL0     C 4771   3.588   6.887   9.346 -1.1005  0.0896  0.2954
  777MOL0     C 4772   3.459   6.957   9.382 -0.8028  0.1286  0.6202
  777MOL0     C 4773   3.353   6.866   9.445  0.5651  0.4173  0.1805
  777MOL0     C 4774   3.215   6.929   9.459 -0.8695 -0.8274 -0.1588
  777MOL0     C 4775   3.115   6.844   9.529  0.1202  0.2918 -0.4932
  777MOL0     C 4776   2.968   6.899   9.501 -0.7247 -0.3810  0.5332
  777MOL0     N 4777   2.874   6.898   9.618 -0.4991  0.1515 -0.0836
  777MOL0     C 4778   2.856   6.994   9.710  0.0326 -1.1207 -0.4417
  777MOL0     C 4779   2.767   6.949   9.792  0.5178  0.0922 -0.1491
  777MOL0     C 4780   2.712   7.009   9.919  0.6334  0.0848 -0.0627
  777MOL0     C 4781   2.559   7.016   9.906 -0.2571  0.6047 -0.0737
  777MOL0     C 4782   2.499   7.098  10.028 -0.3331 -0.1262  0.5853
  777MOL0     C 4783   2.496   7.019  10.154 -0.2344  0.7459  0.3498
  777MOL0     O 4784   2.408   6.910  10.142 -0.4664  0.3998  0.0511
  777MOL0     C 4785   2.276   6.947  10.159 -0.3817  0.3421  1.1333
  777MOL0     C 4786   2.187   6.939  10.047  0.3441  0.5926 -0.0061
  777MOL0     C 4787   2.058   6.984  10.065  0.3046  0.3542  0.8677
  777MOL0     C 4788   1.976   6.993   9.938  0.6306 -0.1656  0.8732
  777MOL0     C 4789   2.009   7.033  10.187  0.0294  1.0606  0.2063
  777MOL0     C 4790   1.872   7.090  10.205 -0.3578  0.1792  0.1839
  777MOL0     O 4791   1.850   7.143  10.332 -0.1542  0.4938  0.4118
  777MOL0     C 4792   1.740   7.219  10.360  0.2320  0.0229  0.4026
  777MOL0     C 4793   1.618   7.167  10.399 -1.4598  0.0556  1.3647
  777MOL0     C 4794   1.508   7.250  10.423 -1.0951  0.0209 -0.4993
  777MOL0     C 4795   1.526   7.388  10.421 -0.1865  0.4791  0.7377
  777MOL0     O 4796   1.425   7.473  10.457  0.1374  0.4557 -0.1045
  777MOL0     C 4797   1.334   7.420  10.552 -0.2552 -0.8987  0.6675
  777MOL0     C 4798   1.250   7.532  10.606  0.2780 -0.0385  0.4441
  777MOL0     C 4799   1.166   7.494  10.731  0.0640 -0.8168 -0.5930
  777MOL0     C 4800   1.039   7.588  10.748 -0.0934 -0.4051  0.3131
  777MOL0     C 4801   0.957   7.553  10.874  0.2653  0.0214 -0.3550
  777MOL0     C 4802   0.811   7.591  10.856  0.9583 -0.9505 -0.1068
  777MOL0     C 4803   0.713   7.501  10.936  1.3981 -0.4009 -0.8912
  777MOL0     C 4804   0.562   7.533  10.915 -1.4535  0.1304 -0.8722
  777MOL0    Cl 4805   0.518   7.676  11.017  0.0441  0.2123  0.1192
  777MOL0     C 4806   1.655   7.445  10.392  1.2712  0.5294 -0.0634
  777MOL0     C 4807   1.755   7.361  10.353  0.6187  0.1636  0.1178
  777MOL0     O 4808   1.794   7.104  10.111  0.3845 -0.5054  0.5109
  777MOL0     C 4809   2.100   7.022  10.302 -0.0291 -0.2025 -0.0650
  777MOL0     C 4810   2.232   6.989  10.284 -0.0857  0.7027  0.3922
  777MOL0     N 4811   2.729   6.826   9.753  0.0657  0.4039 -0.3883
  777MOL0     N 4812   2.790   6.801   9.648 -0.2037  0.5820  0.5368
  777MOL0     C 4813   4.096   6.733   9.405  0.6768  0.5082 -0.1652
  777MOL0     C 4814   4.236   6.707   9.398 -0.7496  0.4676  0.6975
  777MOL0     C 4815   4.680   6.816   9.309 -0.1142 -0.8639  0.0890
  777MOL0     C 4816   4.736   6.704   9.254  0.4453 -0.3604  0.1485
  777MOL0     C 4817   4.873   6.676   9.266  0.3186 -0.6753 -0.8542
  777MOL0     C 4818   4.954   6.765   9.332 -0.2015  0.1355  0.1737
  777MOL0     O 4819   5.087   6.733   9.361 -0.0514  0.3822  0.3123
  777MOL0     C 4820   5.186   6.826   9.364 -0.4016 -0.5440 -0.4119
  777MOL0     C 4821   5.320   6.750   9.334 -0.3445  0.0771  0.6041
  777MOL0     C 4822   5.308   6.653   9.214 -0.5858 -0.2060 -0.2303
  777MOL0     C 4823   5.341   6.728   9.083 -0.0111 -0.3385  0.4730
  777MOL0     C 4824   5.487   6.759   9.083  0.2165  0.3945  0.6686
  777MOL0     C 4825   5.591   6.816   9.069  0.3638  1.2021  0.0595
  777MOL0     C 4826   4.897   6.881   9.388 -0.6840  0.5242 -0.1799
  777MOL0     C 4827   4.759   6.905   9.376 -1.1878 -0.3113 -0.1240
  777MOL0     H 4828   4.323   6.920   9.151  0.4581  1.0089  1.2374
  777MOL0     H 4829   4.083   6.982   9.170  1.5102 -0.3800 -2.7507
  777MOL0     H 4830   3.873   7.007   9.185  0.9979 -1.3181  0.1252
  777MOL0     H 4831   3.774   6.868   9.168  0.9825 -0.2958 -0.7160
  777MOL0     H 4832   3.750   7.024   9.428 -0.0279 -0.0749 -0.0647
  777MOL0     H 4833   3.663   7.076   9.295 -0.5332 -0.4244 -0.2133
  777MOL0     H 4834   3.570   6.836   9.252  0.1158 -0.4155  0.3160
  777MOL0     H 4835   3.623   6.815   9.421  1.6225  0.2226 -0.7084
  777MOL0     H 4836   3.493   7.028   9.458 -1.6623  0.4280  0.7362
  777MOL0     H 4837   3.410   7.016   9.304 -0.0835  1.7092  1.3154
  777MOL0     H 4838   3.335   6.775   9.386 -3.0587 -0.0047  1.7110
  777MOL0     H 4839   3.384   6.836   9.545  1.8425  0.6136 -0.1374
  777MOL0     H 4840   3.237   7.012   9.527  0.4778 -1.2585 -0.0330
  777MOL0     H 4841   3.180   6.954   9.359  0.6345 -1.8144 -0.9640
  777MOL0     H 4842   3.116   6.741   9.490  2.0707  1.0235 -2.5956
  777MOL0     H 4843   3.135   6.846   9.636  0.9458  1.6678 -0.6517
  777MOL0     H 4844   2.930   6.824   9.431  0.1740 -0.7926  0.4639
  777MOL0     H 4845   2.976   7.000   9.459  0.7563 -1.2870 -1.5819
  777MOL0     H 4846   2.910   7.088   9.723 -1.0719 -0.5251 -0.0865
  777MOL0     H 4847   2.749   6.967  10.013  0.6288  2.7083  1.1825
  777MOL0     H 4848   2.742   7.114   9.926 -0.6358  0.5330 -1.0285
  777MOL0     H 4849   2.526   6.912   9.895  3.1352 -0.4063 -2.9113
  777MOL0     H 4850   2.529   7.062   9.811  1.5938  0.1736 -0.9298
  777MOL0     H 4851   2.395   7.112  10.000  0.3927  1.4456 -1.6382
  777MOL0     H 4852   2.547   7.196  10.037  0.3281 -0.3654 -0.2171
  777MOL0     H 4853   2.466   7.072  10.245 -4.0014 -2.4031  1.2264
  777MOL0     H 4854   2.595   6.977  10.174  0.6014  1.1251 -2.4852
  777MOL0     H 4855   2.224   6.914   9.948  0.1833  1.2489 -0.2347
  777MOL0     H 4856   2.030   6.955   9.851 -3.2505 -3.5579 -0.4420
  777MOL0     H 4857   1.889   6.926   9.948  1.6603 -1.3890  1.9590
  777MOL0     H 4858   1.953   7.099   9.926  2.0559 -0.0073 -0.8543
  777MOL0     H 4859   1.621   7.059  10.391 -3.3658  0.0264  0.4376
  777MOL0     H 4860   1.411   7.209  10.448  0.1036 -1.1133  2.7806
  777MOL0     H 4861   1.269   7.351  10.499 -0.9161 -1.7055  2.4420
  777MOL0     H 4862   1.387   7.366  10.631  1.3416 -2.0568 -1.1036
  777MOL0     H 4863   1.323   7.608  10.636  0.3338 -0.1969  0.7124
  777MOL0     H 4864   1.182   7.571  10.531 -0.1633 -1.8767 -0.1701
  777MOL0     H 4865   1.232   7.503  10.818 -1.4996  0.4727  0.5472
  777MOL0     H 4866   1.144   7.388  10.720  1.1465 -1.2403  1.0278
  777MOL0     H 4867   1.079   7.687  10.773 -0.6291 -0.3707  1.0727
  777MOL0     H 4868   0.977   7.587  10.658 -1.4998  3.3916  1.0504
  777MOL0     H 4869   0.996   7.597  10.966  1.2638 -0.1544 -0.6818
  777MOL0     H 4870   0.959   7.444  10.882  0.9679  0.1473  2.5761
  777MOL0     H 4871   0.785   7.695  10.877  0.7932 -1.0275  0.0741
  777MOL0     H 4872   0.785   7.587  10.750  1.1811 -2.8161 -0.1352
  777MOL0     H 4873   0.727   7.511  11.044 -2.1439  0.2323 -0.3672
  777MOL0     H 4874   0.729   7.398  10.904 -0.9065  0.2561 -5.0340
  777MOL0     H 4875   0.513   7.442  10.950 -1.1385  0.7799  1.3854
  777MOL0     H 4876   0.536   7.550  10.810  0.4036 -2.2122 -1.8057
  777MOL0     H 4877   1.666   7.553  10.394 -0.1894  0.6918  2.3372
  777MOL0     H 4878   1.848   7.387  10.304 -1.1986  2.6081 -2.3842
  777MOL0     H 4879   2.065   7.049  10.401 -0.6279  1.2233 -0.6324
  777MOL0     H 4880   2.297   7.001  10.371  1.5389 -0.2920 -0.6199
  777MOL0     H 4881   4.034   6.669   9.467 -1.7362  2.0816 -0.7903
  777MOL0     H 4882   4.295   6.628   9.444  3.2484  0.4902 -3.6197
  777MOL0     H 4883   4.671   6.648   9.187 -0.1852 -1.3535  1.5305
  777MOL0     H 4884   4.910   6.589   9.214  0.8536 -1.4334  0.7245
  777MOL0     H 4885   5.160   6.908   9.296 -1.1917  2.0523  2.7712
  777MOL0     H 4886   5.176   6.862   9.466 -2.3777  1.2435 -1.1662
  777MOL0     H 4887   5.353   6.695   9.422  1.1772 -0.7210 -0.4159
  777MOL0     H 4888   5.395   6.827   9.315  0.3543 -0.6176  0.5105
  777MOL0     H 4889   5.210   6.605   9.209 -1.0705  0.7492 -0.1345
  777MOL0     H 4890   5.385   6.576   9.214 -2.7078 -2.5645 -3.3374
  777MOL0     H 4891   5.300   6.828   9.066  1.3068 -0.0790 -1.4863
  777MOL0     H 4892   5.301   6.659   9.008 -2.1980 -0.1734  1.4124
  777MOL0     H 4893   5.671   6.886   9.061 -1.4590  3.4781  0.7330
  777MOL0     H 4894   4.966   6.951   9.434 -0.8494  0.2199  0.5302
  777MOL0     H 4895   4.721   6.999   9.413 -0.9080  0.4870 -1.7815
  778MOL0     O 4896   2.692   5.906   6.562  0.6606 -0.7112  0.3313
  778MOL0     C 4897   2.757   5.844   6.649  0.0219 -0.6700 -0.2989
  778MOL0     O 4898   2.717   5.725   6.708 -0.0153 -0.9105  0.0155
  778MOL0     C 4899   2.600   5.681   6.655 -1.0738 -0.0556 -0.2185
  778MOL0     C 4900   2.481   5.755   6.683 -0.0434  0.8449 -0.0267
  778MOL0     C 4901   2.363   5.719   6.630  0.1013  0.6147  0.4158
  778MOL0     C 4902   2.351   5.603   6.554 -0.6269 -0.4802 -0.7018
  778MOL0     O 4903   2.222   5.569   6.519 -0.2497 -0.2753 -0.1179
  778MOL0     C 4904   2.202   5.464   6.423  0.3052  0.7387  0.6374
  778MOL0     C 4905   2.056   5.429   6.421 -0.6722 -0.4158  0.5252
  778MOL0     C 4906   2.039   5.304   6.340  0.3539  0.3576  0.2425
  778MOL0     C 4907   1.901   5.253   6.315  0.0387  0.4222 -0.4726
  778MOL0     C 4908   1.825   5.224   6.449 -0.2768  0.3744  0.9600
  778MOL0     C 4909   1.692   5.168   6.413 -0.9687 -0.8781 -0.4014
  778MOL0     C 4910   1.607   5.102   6.521  0.1685 -0.2252 -0.3018
  778MOL0     C 4911   1.467   5.077   6.479  0.2675 -1.6321 -0.6981
  778MOL0     N 4912   1.412   5.000   6.598  0.2497  0.5900 -0.2582
  778MOL0     C 4913   1.342   5.035   6.708  0.3880  0.1058 -0.5948
  778MOL0     C 4914   1.334   4.923   6.787 -0.3821 -0.8709  0.4807
  778MOL0     C 4915   1.252   4.904   6.912 -0.9271  0.4496 -0.4839
  778MOL0     C 4916   1.115   4.849   6.882  0.2040 -0.5440  1.4857
  778MOL0     C 4917   1.019   4.958   6.840  0.3202 -0.4130 -0.3368
  778MOL0     C 4918   0.889   4.894   6.813  0.1753  0.4600  0.9329
  778MOL0     O 4919   0.793   4.993   6.785  0.0057  0.3174 -0.3564
  778MOL0     C 4920   0.659   4.957   6.751 -1.2330 -0.0368 -0.5535
  778MOL0     C 4921   0.609   4.825   6.756 -0.1306 -0.4505 -0.5401
  778MOL0     C 4922   0.477   4.800   6.720  0.3446 -0.3376  0.6717
  778MOL0     C 4923   0.444   4.660   6.709  0.2174  0.5642  0.7208
  778MOL0     C 4924   0.389   4.901   6.689  0.1278 -1.3079 -0.1929
  778MOL0     C 4925   0.248   4.877   6.636  0.7633  0.0783 -0.2089
  778MOL0     O 4926   0.201   4.988   6.567 -0.4335  0.0551 -0.9706
  778MOL0     C 4927   0.070   4.995   6.532  0.3061 -0.5643 -1.2061
  778MOL0     C 4928   0.006   4.898   6.449 -0.2572  0.4464  0.2239
  778MOL0     C 4929  -0.133   4.905   6.422  0.3506 -0.3834  0.3989
  778MOL0     C 4930  -0.197   5.019   6.465  0.1221 -0.1722 -0.0811
  778MOL0     O 4931  -0.330   5.025   6.433  0.2954  0.5005  0.3303
  778MOL0     C 4932  -0.423   5.116   6.489 -0.0741 -0.6100 -0.8408
  778MOL0     C 4933  -0.458   5.078   6.634 -0.0553  0.0643 -0.0412
  778MOL0     C 4934  -0.549   5.184   6.698  0.8398 -0.0277  0.5889
  778MOL0     C 4935  -0.582   5.171   6.848  0.1560 -0.0251  0.3918
  778MOL0     C 4936  -0.700   5.076   6.858 -0.1965 -0.7583  0.6834
  778MOL0     C 4937  -0.733   5.032   6.999 -0.7499 -0.1270  0.6731
  778MOL0     C 4938  -0.727   5.137   7.111 -0.1008 -0.6871 -0.4643
  778MOL0     C 4939  -0.593   5.183   7.164 -0.0538 -0.0403  0.0721
  778MOL0    Cl 4940  -0.513   5.045   7.240  0.0595 -0.2185 -0.0065
  778MOL0     C 4941  -0.140   5.112   6.553 -0.5869  1.2852 -0.0678
  778MOL0     C 4942  -0.004   5.096   6.583  0.5861 -0.5322 -0.3415
  778MOL0     O 4943   0.183   4.776   6.664  0.0487 -0.1519  0.3136
  778MOL0     C 4944   0.439   5.033   6.692 -0.1180  0.0733 -1.1860
  778MOL0     C 4945   0.574   5.065   6.723  0.7325 -0.5815 -0.8105
  778MOL0     N 4946   1.391   4.822   6.719  1.0631 -0.2827 -0.2635
  778MOL0     N 4947   1.432   4.863   6.610  0.0173  0.0131  0.0903
  778MOL0     C 4948   2.468   5.529   6.516  0.1343  0.6062 -0.7551
  778MOL0     C 4949   2.593   5.575   6.565 -0.0657  0.0414  0.6787
  778MOL0     C 4950   2.896   5.898   6.671  0.9536  0.2967 -0.0737
  778MOL0     C 4951   2.990   5.816   6.734  1.4347  0.2880 -0.3076
  778MOL0     C 4952   3.118   5.859   6.754 -0.0395 -0.3590  0.6946
  778MOL0     C 4953   3.156   5.986   6.707 -1.0728 -0.6032 -0.7306
  778MOL0     O 4954   3.291   6.026   6.710  0.6365  0.3303  0.4448
  778MOL0     C 4955   3.364   5.999   6.828  0.0760 -0.3258 -0.2656
  778MOL0     C 4956   3.509   6.047   6.805 -0.2898  0.5761 -0.0527
  778MOL0     C 4957   3.619   5.979   6.903  0.3224 -0.1938  0.1883
  778MOL0     C 4958   3.770   6.018   6.888 -0.2218 -0.2197 -0.3300
  778MOL0     C 4959   3.775   6.163   6.899  0.5996 -0.3368  0.1050
  778MOL0     C 4960   3.799   6.276   6.905  0.2081  0.0224 -0.3994
  778MOL0     C 4961   3.061   6.064   6.643 -0.0609  0.2988  0.3276
  778MOL0     C 4962   2.931   6.024   6.621  0.3300 -0.6620 -0.1257
  778MOL0     H 4963   2.495   5.849   6.735 -0.7048 -0.1774  2.0849
  778MOL0     H 4964   2.278   5.785   6.646  0.7600  1.3840  0.7836
  778MOL0     H 4965   2.235   5.480   6.320  0.2711  0.8747  0.6472
  778MOL0     H 4966   2.249   5.373   6.463 -1.3275  0.0968  1.1798
  778MOL0     H 4967   2.013   5.432   6.521  2.3739  2.2646  1.9336
  778MOL0     H 4968   1.998   5.505   6.367  2.5892 -0.3946 -3.4300
  778MOL0     H 4969   2.080   5.320   6.240 -1.7423 -0.4842 -0.8247
  778MOL0     H 4970   2.102   5.220   6.372  1.9761  1.0342 -1.0375
  778MOL0     H 4971   1.856   5.338   6.262  2.6844  2.3187  0.1048
  778MOL0     H 4972   1.916   5.161   6.258 -0.6685  0.1850 -0.2783
  778MOL0     H 4973   1.876   5.147   6.509 -1.9433  1.4955  4.0488
  778MOL0     H 4974   1.810   5.304   6.522  3.6269  0.7906  1.5053
  778MOL0     H 4975   1.648   5.261   6.374  3.8258  1.7951 -0.1961
  778MOL0     H 4976   1.704   5.101   6.328  2.1020 -0.9719 -0.0028
  778MOL0     H 4977   1.645   5.003   6.545 -1.7462 -1.1147 -0.7185
  778MOL0     H 4978   1.595   5.167   6.608 -0.6470 -1.7992  0.8195
  778MOL0     H 4979   1.457   5.009   6.394 -0.9554  0.7990 -2.6065
  778MOL0     H 4980   1.414   5.172   6.469  0.1024 -1.8118 -1.6192
  778MOL0     H 4981   1.299   5.135   6.716 -1.6895 -0.7636 -0.0311
  778MOL0     H 4982   1.295   4.828   6.978  0.7660  1.7122 -0.0686
  778MOL0     H 4983   1.242   4.996   6.971  0.4892 -0.2159  0.8559
  778MOL0     H 4984   1.080   4.802   6.975 -1.6022 -0.8197  0.6925
  778MOL0     H 4985   1.109   4.780   6.798 -2.7047  1.5465 -0.2252
  778MOL0     H 4986   1.053   5.005   6.748  0.0036  1.1916  0.3340
  778MOL0     H 4987   1.008   5.027   6.924  0.7525  1.6577 -1.9086
  778MOL0     H 4988   0.853   4.826   6.892 -2.5782  1.4327  0.6361
  778MOL0     H 4989   0.884   4.836   6.720  0.2682  1.9334 -0.0214
  778MOL0     H 4990   0.680   4.744   6.775  0.8994  0.2264 -1.3764
  778MOL0     H 4991   0.418   4.636   6.606  1.6039  3.3629 -0.3663
  778MOL0     H 4992   0.532   4.599   6.730  1.2836  0.6470 -2.8805
  778MOL0     H 4993   0.357   4.625   6.766  0.9492 -0.7676  1.0754
  778MOL0     H 4994   0.055   4.807   6.417 -2.9068 -1.5024  1.2874
  778MOL0     H 4995  -0.183   4.840   6.351 -0.9294 -1.1838  1.9524
  778MOL0     H 4996  -0.362   5.206   6.497  3.5405 -2.9877  1.5154
  778MOL0     H 4997  -0.505   5.135   6.420  3.0207  1.7187 -4.2374
  778MOL0     H 4998  -0.504   4.982   6.660 -1.6314  0.8694  0.2415
  778MOL0     H 4999  -0.364   5.086   6.690 -0.5992  0.9162  0.7715
  778MOL0     H 5000  -0.644   5.185   6.645  0.4470 -1.2912  1.2268
  778MOL0     H 5001  -0.491   5.276   6.685  0.6348 -0.1585 -1.5639
  778MOL0     H 5002  -0.496   5.137   6.907  0.9519 -0.6354 -1.0612
  778MOL0     H 5003  -0.621   5.268   6.880 -2.3406 -1.1709  1.1043
  778MOL0     H 5004  -0.676   4.985   6.802 -5.1345 -0.5201 -2.4444
  778MOL0     H 5005  -0.788   5.120   6.810  0.6349  1.2715  0.8923
  778MOL0     H 5006  -0.827   4.977   6.993  0.0124 -1.3825 -4.2949
  778MOL0     H 5007  -0.660   4.951   7.011 -1.7439 -1.2757 -0.6905
  778MOL0     H 5008  -0.784   5.104   7.198  1.0910  2.4412  1.6801
  778MOL0     H 5009  -0.795   5.213   7.072 -0.0689  0.3091  1.3447
  778MOL0     H 5010  -0.616   5.254   7.244  1.6916 -0.8801  1.3671
  778MOL0     H 5011  -0.534   5.244   7.095 -0.4858 -0.9127 -1.1196
  778MOL0     H 5012  -0.191   5.187   6.613 -2.4027 -1.5865  2.2842
  778MOL0     H 5013   0.056   5.158   6.648  1.4932  0.4602 -2.0326
  778MOL0     H 5014   0.379   5.119   6.664 -0.8230  0.1229  0.3595
  778MOL0     H 5015   0.603   5.170   6.714 -0.1614 -0.3862 -1.5133
  778MOL0     H 5016   2.464   5.434   6.464 -0.3745 -0.5795  1.3115
  778MOL0     H 5017   2.685   5.520   6.544 -0.1370 -0.4081  1.5004
  778MOL0     H 5018   2.941   5.721   6.751 -1.6882  1.1955 -3.0747
  778MOL0     H 5019   3.182   5.791   6.809 -0.8254 -0.0144  2.0840
  778MOL0     H 5020   3.319   6.058   6.908 -0.2956  0.7486 -1.2394
  778MOL0     H 5021   3.377   5.893   6.855  0.9294 -0.4163 -1.0052
  778MOL0     H 5022   3.517   6.156   6.817  1.4913  0.5120 -0.4193
  778MOL0     H 5023   3.529   6.027   6.700  3.1668 -1.3726  0.8338
  778MOL0     H 5024   3.615   5.871   6.887 -2.7228 -0.2753  0.9168
  778MOL0     H 5025   3.589   6.000   7.006  1.9509  2.3638  0.2451
  778MOL0     H 5026   3.801   5.997   6.785  3.9997  0.2381  0.6376
  778MOL0     H 5027   3.834   5.966   6.960 -0.6420  0.0747  0.2585
  778MOL0     H 5028   3.828   6.378   6.922  1.3256  0.0227 -2.0929
  778MOL0     H 5029   3.099   6.154   6.597  0.3064 -0.4910 -0.9540
  778MOL0     H 5030   2.861   6.095   6.578  0.3621 -1.0641 -0.8643
  779MOL0     O 5031   2.275   6.587   5.988 -0.3938 -0.1282 -0.1741
  779MOL0     C 5032   2.339   6.489   5.996 -0.3248  0.1841  0.3327
  779MOL0     O 5033   2.293   6.367   6.034  0.1680  0.3799 -0.0499
  779MOL0     C 5034   2.161   6.334   6.034  0.3581 -0.5911  1.5553
  779MOL0     C 5035   2.064   6.399   5.955 -0.5692 -0.2045 -0.7352
  779MOL0     C 5036   1.924   6.369   5.976 -0.1819 -0.9334 -0.4388
  779MOL0     C 5037   1.883   6.255   6.047 -0.1824 -0.0811 -0.0883
  779MOL0     O 5038   1.747   6.219   6.045 -0.8046  0.3442 -0.1386
  779MOL0     C 5039   1.683   6.186   6.164  0.7090  0.2623  0.3617
  779MOL0     C 5040   1.531   6.178   6.148 -0.8026 -0.3111 -0.2409
  779MOL0     C 5041   1.473   6.151   6.301 -1.0623 -0.0551  0.4023
  779MOL0     C 5042   1.333   6.086   6.307 -0.2072 -0.9386  0.2625
  779MOL0     C 5043   1.284   6.070   6.449  0.9014  0.8174 -0.6871
  779MOL0     C 5044   1.162   5.968   6.435 -1.2385  0.4490 -0.4957
  779MOL0     C 5045   1.102   5.946   6.572 -0.1718 -0.4211 -0.4578
  779MOL0     C 5046   0.966   5.869   6.552  0.0003  0.0945  0.1372
  779MOL0     N 5047   0.911   5.861   6.689  0.3977  0.1090 -0.7095
  779MOL0     C 5048   0.821   5.948   6.744  1.1575 -0.5876 -0.3053
  779MOL0     C 5049   0.790   5.907   6.873 -0.0303  0.7476  0.6227
  779MOL0     C 5050   0.696   5.971   6.975  1.1716  0.0663  0.1506
  779MOL0     C 5051   0.591   5.876   7.038  0.4306 -0.1104 -0.4721
  779MOL0     C 5052   0.487   5.829   6.931  0.3292  0.3679 -0.7781
  779MOL0     C 5053   0.386   5.732   6.991  0.2306 -0.7176  0.1608
  779MOL0     O 5054   0.270   5.717   6.912  0.2997 -0.0101  0.4269
  779MOL0     C 5055   0.182   5.611   6.936  0.8034  0.0256  1.0406
  779MOL0     C 5056   0.041   5.621   6.915 -1.0279 -0.6437 -0.8378
  779MOL0     C 5057  -0.054   5.513   6.913 -0.0185 -0.3235 -0.3058
  779MOL0     C 5058  -0.206   5.543   6.906 -0.6953  0.4359  1.4236
  779MOL0     C 5059  -0.000   5.381   6.926 -0.4008 -0.4605  0.2363
  779MOL0     C 5060  -0.079   5.258   6.924  0.4050  0.2294  0.4169
  779MOL0     O 5061  -0.035   5.141   6.988 -0.0186  0.5744 -0.8237
  779MOL0     C 5062  -0.112   5.028   6.966 -0.1255  0.4502  0.9222
  779MOL0     C 5063  -0.230   4.997   7.038 -0.3114 -0.6230  0.2980
  779MOL0     C 5064  -0.301   4.884   7.009  0.8117 -0.0506  0.2779
  779MOL0     C 5065  -0.262   4.792   6.913 -0.0282  0.9937 -0.8309
  779MOL0     O 5066  -0.342   4.683   6.882 -0.4125 -0.0683 -0.7820
  779MOL0     C 5067  -0.294   4.588   6.788 -0.6395 -0.1825  0.2368
  779MOL0     C 5068  -0.380   4.468   6.771  0.0384  1.0711 -0.0835
  779MOL0     C 5069  -0.515   4.505   6.710  1.3023 -0.2247  0.1264
  779MOL0     C 5070  -0.620   4.397   6.727 -0.1892  0.1353 -0.3381
  779MOL0     C 5071  -0.758   4.448   6.693  0.3618 -0.2545 -1.1385
  779MOL0     C 5072  -0.853   4.420   6.811  0.1529  0.1674  0.9293
  779MOL0     C 5073  -0.880   4.276   6.847 -0.1996 -0.4688  0.8462
  779MOL0     C 5074  -0.968   4.218   6.734 -0.4147 -0.4781 -0.1221
  779MOL0    Cl 5075  -1.050   4.069   6.798 -0.2182 -0.5485 -0.2670
  779MOL0     C 5076  -0.141   4.820   6.843 -0.1110 -0.3996 -0.3483
  779MOL0     C 5077  -0.069   4.934   6.869  0.5004 -0.7353 -0.4255
  779MOL0     O 5078  -0.190   5.268   6.868 -0.4367 -0.6021  0.0494
  779MOL0     C 5079   0.139   5.371   6.936  0.5251 -0.2311 -0.2855
  779MOL0     C 5080   0.224   5.479   6.945 -0.0743  0.0831  0.3363
  779MOL0     N 5081   0.863   5.791   6.888 -0.6978  0.2263 -0.9987
  779MOL0     N 5082   0.932   5.763   6.785  0.2733  0.4586 -0.2161
  779MOL0     C 5083   1.989   6.190   6.117  0.4042  0.1300  0.7171
  779MOL0     C 5084   2.117   6.229   6.108 -0.3706  0.1566  0.2991
  779MOL0     C 5085   2.478   6.494   5.946  0.0182  0.7799 -0.1927
  779MOL0     C 5086   2.515   6.593   5.856 -0.5147 -0.4096 -0.5010
  779MOL0     C 5087   2.646   6.583   5.803  0.6041  0.2386  0.5329
  779MOL0     C 5088   2.736   6.482   5.856  0.6488 -0.4125 -0.2703
  779MOL0     O 5089   2.867   6.489   5.824 -0.2902  0.2481  0.3087
  779MOL0     C 5090   2.960   6.381   5.855 -0.3214 -0.0407  0.7522
  779MOL0     C 5091   3.083   6.394   5.758  1.0436 -0.0418 -0.0468
  779MOL0     C 5092   3.171   6.266   5.785 -0.9359 -0.0487  0.5815
  779MOL0     C 5093   3.307   6.279   5.714 -0.4239 -0.1939  0.1139
  779MOL0     C 5094   3.402   6.179   5.766  0.1810 -0.1542  0.2775
  779MOL0     C 5095   3.485   6.092   5.791  0.4346  0.3333  0.1455
  779MOL0     C 5096   2.694   6.389   5.945  0.7108 -0.2857 -0.4374
  779MOL0     C 5097   2.562   6.389   5.981 -0.0524 -0.0388 -0.0325
  779MOL0     H 5098   2.099   6.485   5.898  3.5530 -1.8803 -1.1271
  779MOL0     H 5099   1.852   6.431   5.923  1.8601  0.6128 -1.5774
  779MOL0     H 5100   1.718   6.089   6.199 -0.1628  1.1794  4.2652
  779MOL0     H 5101   1.705   6.264   6.238  2.3357  0.5044 -0.3330
  779MOL0     H 5102   1.498   6.269   6.097 -2.3190 -1.2797 -1.0887
  779MOL0     H 5103   1.516   6.090   6.085  1.0666 -0.7140 -0.1714
  779MOL0     H 5104   1.544   6.096   6.364  0.6301 -1.0337 -2.2092
  779MOL0     H 5105   1.474   6.254   6.337 -1.0334  1.1968 -2.8509
  779MOL0     H 5106   1.268   6.150   6.247 -0.5343 -1.0623  0.4774
  779MOL0     H 5107   1.345   5.989   6.258 -0.1671  0.3306 -2.3812
  779MOL0     H 5108   1.362   6.026   6.511 -0.1854 -0.6595 -0.3053
  779MOL0     H 5109   1.254   6.171   6.480 -0.5932  0.2200 -0.0889
  779MOL0     H 5110   1.095   6.012   6.361 -0.8064  0.3693 -0.9397
  779MOL0     H 5111   1.197   5.869   6.403  0.1426  0.4477  0.8676
  779MOL0     H 5112   1.165   5.895   6.645 -0.2572 -0.1218 -0.1696
  779MOL0     H 5113   1.082   6.043   6.619  3.5376 -0.2216  1.0548
  779MOL0     H 5114   0.979   5.765   6.520  0.7000 -0.6095  2.4611
  779MOL0     H 5115   0.905   5.918   6.476  1.6510 -1.1567 -2.0973
  779MOL0     H 5116   0.784   6.038   6.695  1.1313 -0.5141 -0.1493
  779MOL0     H 5117   0.757   6.011   7.056  0.8507 -2.6260  1.8354
  779MOL0     H 5118   0.659   6.064   6.930 -0.1130 -0.0069  1.0152
  779MOL0     H 5119   0.541   5.925   7.122 -0.5604 -0.9035 -0.5824
  779MOL0     H 5120   0.627   5.781   7.079  0.8531  0.1270 -0.2912
  779MOL0     H 5121   0.545   5.782   6.851  1.0588 -0.8992  0.4529
  779MOL0     H 5122   0.434   5.913   6.885 -1.3840  0.2319  0.8272
  779MOL0     H 5123   0.361   5.780   7.086  0.3587  1.8792 -1.0237
  779MOL0     H 5124   0.426   5.632   7.008 -2.2320 -2.1303 -1.6076
  779MOL0     H 5125   0.007   5.724   6.906  1.1052  0.1322 -0.6236
  779MOL0     H 5126  -0.227   5.648   6.931 -3.2670  0.3308  0.0381
  779MOL0     H 5127  -0.228   5.520   6.801 -0.4498  0.1625  1.4312
  779MOL0     H 5128  -0.260   5.473   6.970 -1.3342 -1.0717 -0.6587
  779MOL0     H 5129  -0.271   5.070   7.107  2.8251  0.0846  1.5986
  779MOL0     H 5130  -0.393   4.873   7.066  0.5025 -2.7374 -0.5892
  779MOL0     H 5131  -0.275   4.636   6.692  0.2471 -1.5370 -0.2943
  779MOL0     H 5132  -0.195   4.564   6.830 -0.7520 -0.5916  0.2674
  779MOL0     H 5133  -0.336   4.390   6.708 -0.4464  2.1279 -1.7951
  779MOL0     H 5134  -0.381   4.411   6.864  3.7813 -0.3644 -0.7326
  779MOL0     H 5135  -0.513   4.529   6.604 -1.5453  1.6624  0.4051
  779MOL0     H 5136  -0.560   4.592   6.759 -1.2316  0.6388 -3.3968
  779MOL0     H 5137  -0.598   4.318   6.654  0.3206  0.9086 -1.0302
  779MOL0     H 5138  -0.607   4.349   6.825  0.5956  0.9692 -0.0195
  779MOL0     H 5139  -0.803   4.400   6.606 -0.6620 -1.6222  0.0759
  779MOL0     H 5140  -0.753   4.553   6.664  0.4902 -0.5197 -2.0845
  779MOL0     H 5141  -0.823   4.477   6.899 -1.0580  5.2377 -1.5955
  779MOL0     H 5142  -0.942   4.466   6.768  0.2523  0.1699  0.7247
  779MOL0     H 5143  -0.923   4.264   6.947 -1.0724  0.3895  0.5900
  779MOL0     H 5144  -0.785   4.222   6.848 -0.6536 -1.3099 -0.0532
  779MOL0     H 5145  -0.900   4.196   6.651 -1.3813  1.5095 -1.5192
  779MOL0     H 5146  -1.035   4.296   6.697 -0.8724 -0.5401  0.5612
  779MOL0     H 5147  -0.108   4.744   6.772 -2.0267 -3.9009  2.1793
  779MOL0     H 5148   0.025   4.962   6.822  0.2851 -1.6896 -1.4405
  779MOL0     H 5149   0.176   5.269   6.944 -1.2904 -0.7761  3.7229
  779MOL0     H 5150   0.332   5.467   6.951  0.0046  1.3787  2.5851
  779MOL0     H 5151   1.966   6.112   6.188 -1.2748 -0.1037 -0.0421
  779MOL0     H 5152   2.198   6.188   6.168  0.9545  2.2491  0.0412
  779MOL0     H 5153   2.463   6.686   5.839  0.8559  0.5976  0.5393
  779MOL0     H 5154   2.681   6.652   5.727 -2.7842 -0.7936 -2.2398
  779MOL0     H 5155   2.988   6.389   5.960  0.3145 -0.1341  0.5936
  779MOL0     H 5156   2.922   6.278   5.848 -2.2749  0.6200  0.9909
  779MOL0     H 5157   3.141   6.484   5.779  1.8674 -0.5183 -0.2015
  779MOL0     H 5158   3.056   6.382   5.652  0.9374  0.6848 -0.1047
  779MOL0     H 5159   3.114   6.176   5.757 -0.5487  0.1738 -1.0185
  779MOL0     H 5160   3.194   6.254   5.891  0.3588 -2.9952  0.0500
  779MOL0     H 5161   3.351   6.379   5.711 -1.2792  0.1752 -2.1108
  779MOL0     H 5162   3.277   6.255   5.612 -3.7746 -0.4167  1.0289
  779MOL0     H 5163   3.552   6.013   5.820 -0.0133  0.2533  1.0151
  779MOL0     H 5164   2.742   6.300   5.985 -1.8267 -1.7768 -0.4784
  779MOL0     H 5165   2.535   6.317   6.058  2.8838  1.1879  2.3467
  780MOL0     O 5166   3.664   2.444   1.057  0.1301  0.3587  0.8017
  780MOL0     C 5167   3.623   2.546   1.119 -0.5488 -0.3744 -0.0512
  780MOL0     O 5168   3.495   2.561   1.165  0.2770  0.0455 -0.3363
  780MOL0     C 5169   3.393   2.506   1.090 -0.2723  0.1174 -1.0139
  780MOL0     C 5170   3.290   2.594   1.049  0.1687 -0.8797  0.4649
  780MOL0     C 5171   3.164   2.546   0.993 -0.1396  0.5862 -0.7896
  780MOL0     C 5172   3.162   2.404   0.977 -1.1426  0.6022 -0.4419
  780MOL0     O 5173   3.056   2.356   0.899 -0.0698  0.0419  0.4160
  780MOL0     C 5174   3.024   2.210   0.917 -0.6283 -1.0382 -0.8807
  780MOL0     C 5175   2.889   2.178   0.856  0.9100 -0.0717 -0.3039
  780MOL0     C 5176   2.769   2.249   0.933 -0.3057  0.3083  0.5148
  780MOL0     C 5177   2.640   2.222   0.857 -0.1193 -0.4356 -0.0110
  780MOL0     C 5178   2.516   2.259   0.938  0.3072 -0.4977 -0.7901
  780MOL0     C 5179   2.397   2.290   0.849  0.8323  0.5943  0.3544
  780MOL0     C 5180   2.270   2.308   0.940 -0.1606  0.6746 -0.4043
  780MOL0     C 5181   2.162   2.381   0.858  0.8404  0.3813 -0.3833
  780MOL0     N 5182   2.099   2.292   0.758  1.0021  0.0720 -0.2340
  780MOL0     C 5183   1.970   2.239   0.762  0.6597 -0.7364  0.3218
  780MOL0     C 5184   1.942   2.171   0.649 -0.2831 -0.0663 -0.1161
  780MOL0     C 5185   1.832   2.082   0.595  0.8037 -1.0321  0.0485
  780MOL0     C 5186   1.695   2.101   0.679 -0.8442 -0.1952 -0.0503
  780MOL0     C 5187   1.700   2.022   0.815  0.0955 -0.6966  0.8916
  780MOL0     C 5188   1.565   2.021   0.888 -0.1428 -0.2915  0.0193
  780MOL0     O 5189   1.539   2.151   0.938 -0.0500 -0.2150  0.3203
  780MOL0     C 5190   1.417   2.191   0.998  0.1448  0.3164  0.4587
  780MOL0     C 5191   1.407   2.315   1.058  0.2663 -0.0720  0.5266
  780MOL0     C 5192   1.290   2.350   1.124  0.3973  0.6818 -0.2462
  780MOL0     C 5193   1.284   2.478   1.200 -0.3029 -0.4465  0.1935
  780MOL0     C 5194   1.177   2.265   1.128  0.1474 -0.0706 -1.3799
  780MOL0     C 5195   1.040   2.283   1.183 -0.6490  0.3308  0.2859
  780MOL0     O 5196   0.935   2.203   1.143  0.0333  0.2346  0.2178
  780MOL0     C 5197   0.802   2.231   1.162  0.3791  1.1910 -0.1392
  780MOL0     C 5198   0.751   2.355   1.170 -0.1807 -0.2293  1.1373
  780MOL0     C 5199   0.609   2.378   1.171  0.7951  0.1045 -0.7221
  780MOL0     C 5200   0.518   2.272   1.177 -0.8421  0.5333  0.2460
  780MOL0     O 5201   0.383   2.281   1.188  0.0957  0.1557  0.3498
  780MOL0     C 5202   0.319   2.404   1.158  0.3069 -0.6710  0.6915
  780MOL0     C 5203   0.168   2.386   1.152  0.5574 -0.1060  0.2255
  780MOL0     C 5204   0.084   2.513   1.189  0.1442 -0.4449 -0.6645
  780MOL0     C 5205  -0.063   2.492   1.156 -0.2565  0.1200  0.0638
  780MOL0     C 5206  -0.142   2.625   1.172  0.2110  1.1341 -0.2779
  780MOL0     C 5207  -0.288   2.588   1.201 -0.9329 -0.2496  0.6573
  780MOL0     C 5208  -0.374   2.721   1.196 -0.3417  0.6469 -0.3845
  780MOL0     C 5209  -0.394   2.767   1.051  0.5275  0.2471  0.1461
  780MOL0    Cl 5210  -0.485   2.645   0.952  0.1145 -0.2638  0.3195
  780MOL0     C 5211   0.573   2.137   1.180  0.3516 -0.5292  0.2728
  780MOL0     C 5212   0.715   2.124   1.162  1.1680  0.2185 -0.0377
  780MOL0     O 5213   1.032   2.366   1.275 -0.2950  0.7401 -0.1273
  780MOL0     C 5214   1.182   2.141   1.062  0.0058  0.9290 -0.4453
  780MOL0     C 5215   1.302   2.099   1.006 -0.4313 -0.2049  0.3458
  780MOL0     N 5216   2.056   2.193   0.575 -0.0482  0.4975 -0.3813
  780MOL0     N 5217   2.141   2.270   0.631 -0.4719  0.0152 -0.0028
  780MOL0     C 5218   3.267   2.316   1.022 -0.1786  0.0590 -0.0844
  780MOL0     C 5219   3.387   2.366   1.075  0.1655 -0.5092  0.9064
  780MOL0     C 5220   3.736   2.648   1.147 -0.0462 -0.1986 -0.0814
  780MOL0     C 5221   3.708   2.766   1.206 -0.8307  0.4329  0.5927
  780MOL0     C 5222   3.810   2.857   1.228 -0.5372  0.3990 -1.0221
  780MOL0     C 5223   3.941   2.830   1.187 -0.3443  0.0356  0.7218
  780MOL0     O 5224   4.027   2.929   1.221  0.1634 -1.1666  0.1186
  780MOL0     C 5225   4.158   2.889   1.247 -0.5462  0.6783 -0.0422
  780MOL0     C 5226   4.264   2.995   1.246 -0.3386 -0.5909 -0.2418
  780MOL0     C 5227   4.246   3.081   1.374  0.0383  0.7949  0.2435
  780MOL0     C 5228   4.311   3.228   1.358  0.4240  0.1634  0.0166
  780MOL0     C 5229   4.449   3.208   1.321 -0.2248  0.0200 -0.0039
  780MOL0     C 5230   4.568   3.177   1.298  1.7591 -0.0703  0.1297
  780MOL0     C 5231   3.969   2.710   1.124 -0.3519 -0.9549  0.7031
  780MOL0     C 5232   3.874   2.617   1.108 -0.9181 -0.6724 -0.6930
  780MOL0     H 5233   3.300   2.702   1.055 -2.4399 -0.4425 -1.3580
  780MOL0     H 5234   3.083   2.605   0.952 -1.7929 -0.7919  0.3051
  780MOL0     H 5235   3.094   2.141   0.870 -1.5388 -2.5814 -0.0795
  780MOL0     H 5236   3.026   2.179   1.022 -0.9845 -4.5998 -1.7748
  780MOL0     H 5237   2.883   2.217   0.754 -0.3873  4.1945  1.1959
  780MOL0     H 5238   2.872   2.070   0.852 -1.3373  0.2516 -0.8282
  780MOL0     H 5239   2.765   2.189   1.024 -0.0709 -2.2847 -1.0760
  780MOL0     H 5240   2.788   2.353   0.960  0.7295  0.0454  0.8771
  780MOL0     H 5241   2.637   2.281   0.766 -2.1059  0.4543  0.5844
  780MOL0     H 5242   2.617   2.120   0.825 -0.3757 -0.1339 -0.8006
  780MOL0     H 5243   2.501   2.176   1.007 -2.6725  0.5737 -0.0023
  780MOL0     H 5244   2.530   2.347   1.002  1.2542 -1.5611  0.4934
  780MOL0     H 5245   2.410   2.383   0.792 -2.0313  1.5985  1.1479
  780MOL0     H 5246   2.382   2.204   0.784  1.7410 -0.3955  1.4057
  780MOL0     H 5247   2.245   2.207   0.973  1.5191 -0.2882 -1.8582
  780MOL0     H 5248   2.289   2.366   1.030 -2.2072  2.3222 -0.9686
  780MOL0     H 5249   2.221   2.458   0.808  0.7101  1.0000  0.3800
  780MOL0     H 5250   2.084   2.420   0.924 -0.3098  1.4404 -2.2947
  780MOL0     H 5251   1.902   2.258   0.844  1.0123 -0.1830  0.4870
  780MOL0     H 5252   1.807   2.118   0.495 -1.5699 -4.3182 -0.7252
  780MOL0     H 5253   1.859   1.978   0.573 -1.8278 -1.4900 -1.4890
  780MOL0     H 5254   1.613   2.056   0.623 -0.2504  0.2701 -1.3332
  780MOL0     H 5255   1.675   2.207   0.692  1.2094  0.4407 -1.5269
  780MOL0     H 5256   1.780   2.060   0.879  1.5575  1.3516 -1.9494
  780MOL0     H 5257   1.735   1.920   0.795  1.4216  0.1117 -1.1891
  780MOL0     H 5258   1.556   1.953   0.973  0.2366 -0.5169 -0.1173
  780MOL0     H 5259   1.492   2.005   0.807 -0.3950 -1.6872  0.4993
  780MOL0     H 5260   1.504   2.364   1.065  0.8098 -1.3422  3.0969
  780MOL0     H 5261   1.282   2.455   1.307 -1.1081 -1.5639 -0.0421
  780MOL0     H 5262   1.369   2.545   1.178 -1.1856  0.6329 -0.0214
  780MOL0     H 5263   1.205   2.547   1.169  0.9005  1.2319  0.6861
  780MOL0     H 5264   0.810   2.445   1.158  1.5208 -1.3039  0.9842
  780MOL0     H 5265   0.578   2.482   1.164 -0.9771 -0.4916 -3.4806
  780MOL0     H 5266   0.349   2.475   1.235 -3.2989  3.0657 -1.0134
  780MOL0     H 5267   0.365   2.439   1.065  3.1460  0.7057  2.4701
  780MOL0     H 5268   0.139   2.353   1.052  0.7746 -0.7847  0.3800
  780MOL0     H 5269   0.153   2.305   1.224  1.0810 -1.7355 -1.4387
  780MOL0     H 5270   0.117   2.601   1.133 -2.0980  0.4700 -0.6810
  780MOL0     H 5271   0.105   2.533   1.294 -0.5318 -0.8079 -0.4489
  780MOL0     H 5272  -0.060   2.462   1.050  0.8333 -1.3209  0.4655
  780MOL0     H 5273  -0.100   2.406   1.212 -1.0103 -0.4794 -1.2879
  780MOL0     H 5274  -0.120   2.691   1.088  3.5262  0.2959 -0.2048
  780MOL0     H 5275  -0.105   2.674   1.263 -2.5361  0.1108  1.5430
  780MOL0     H 5276  -0.314   2.519   1.120  0.7229  1.4792 -1.5175
  780MOL0     H 5277  -0.294   2.528   1.292  1.0903  1.5542  2.0799
  780MOL0     H 5278  -0.325   2.804   1.247 -2.0915  1.1742  0.4819
  780MOL0     H 5279  -0.475   2.707   1.236  0.2854 -0.1833  1.0129
  780MOL0     H 5280  -0.300   2.797   1.003  0.3264  1.3972  0.4265
  780MOL0     H 5281  -0.459   2.855   1.044 -0.8372 -0.7005  0.4645
  780MOL0     H 5282   0.502   2.056   1.189 -0.3972  0.2187  1.3213
  780MOL0     H 5283   0.761   2.026   1.165  1.0423  0.1774  1.7031
  780MOL0     H 5284   1.112   2.058   1.066  3.4814 -2.2089  1.6369
  780MOL0     H 5285   1.311   2.000   0.963  0.9844 -0.1906  0.5479
  780MOL0     H 5286   3.261   2.209   1.003  1.9166 -0.1237  0.0219
  780MOL0     H 5287   3.459   2.301   1.124  0.0185  0.5836  2.6813
  780MOL0     H 5288   3.608   2.795   1.235 -1.5107 -1.4438  0.2334
  780MOL0     H 5289   3.785   2.949   1.279  0.3035 -0.1534  0.4219
  780MOL0     H 5290   4.173   2.837   1.342  0.6000  0.9979 -0.0392
  780MOL0     H 5291   4.188   2.804   1.184 -1.9577 -0.9901  1.4405
  780MOL0     H 5292   4.257   3.053   1.153 -3.8490  0.2906  0.4219
  780MOL0     H 5293   4.365   2.953   1.241  0.9113  2.2137 -0.3592
  780MOL0     H 5294   4.298   3.031   1.457  2.3829  0.3496 -1.3938
  780MOL0     H 5295   4.139   3.086   1.397  0.2568  0.0847  1.4990
  780MOL0     H 5296   4.301   3.279   1.454 -1.6528 -0.9832  0.4745
  780MOL0     H 5297   4.260   3.289   1.283  1.9044 -0.9070 -1.9652
  780MOL0     H 5298   4.673   3.156   1.284  1.7799 -0.4237  0.7957
  780MOL0     H 5299   4.064   2.693   1.075  0.0214  2.6185 -0.0810
  780MOL0     H 5300   3.909   2.528   1.056 -2.2815 -1.4041 -0.4020
  781MOL0     O 5301   7.784   9.020   8.328  0.2144  0.2260 -0.0614
  781MOL0     C 5302   7.805   9.066   8.213  0.8075  0.7577 -0.0033
  781MOL0     O 5303   7.728   9.160   8.144 -0.1249  0.3634  0.1149
  781MOL0     C 5304   7.610   9.203   8.193  0.3320 -0.3701  0.0296
  781MOL0     C 5305   7.499   9.118   8.210  0.0172 -0.3799  0.0478
  781MOL0     C 5306   7.375   9.160   8.255 -0.3458 -1.1067  0.6191
  781MOL0     C 5307   7.353   9.297   8.269  0.6662 -0.9582 -0.6842
  781MOL0     O 5308   7.232   9.350   8.311 -1.0344 -0.3468  0.4140
  781MOL0     C 5309   7.140   9.268   8.379  0.0710  0.0742  0.2123
  781MOL0     C 5310   7.068   9.379   8.474  0.1201  0.5534 -0.7226
  781MOL0     C 5311   7.160   9.431   8.577  0.5121  1.0604 -0.5004
  781MOL0     C 5312   7.209   9.329   8.680  1.0842  0.5720  0.7566
  781MOL0     C 5313   7.295   9.394   8.789  0.5750 -0.1140  0.1224
  781MOL0     C 5314   7.406   9.491   8.750  0.2820 -0.7285  1.0103
  781MOL0     C 5315   7.515   9.423   8.662 -0.3878  0.4116 -0.4623
  781MOL0     C 5316   7.616   9.528   8.610  1.1034  0.6890  0.2601
  781MOL0     N 5317   7.738   9.469   8.556  0.1312  0.2022  0.2188
  781MOL0     C 5318   7.842   9.422   8.634 -0.6287 -0.0171 -0.1828
  781MOL0     C 5319   7.941   9.417   8.550  0.4758 -0.1642  0.5204
  781MOL0     C 5320   8.077   9.354   8.589 -0.7968 -0.7029  0.8034
  781MOL0     C 5321   8.059   9.213   8.533 -0.3050 -0.4271 -0.2291
  781MOL0     C 5322   8.173   9.126   8.577  0.3291  0.9528  0.1723
  781MOL0     C 5323   8.149   9.066   8.710  1.3328 -1.2603 -0.5834
  781MOL0     O 5324   8.260   8.991   8.753 -0.2833  0.3359  0.2930
  781MOL0     C 5325   8.302   8.886   8.668 -0.0705  0.0363 -0.5931
  781MOL0     C 5326   8.430   8.873   8.623 -0.8723 -0.4006  0.2715
  781MOL0     C 5327   8.470   8.779   8.522 -0.7658 -0.0206 -0.0766
  781MOL0     C 5328   8.620   8.767   8.496  0.4468  0.3055 -0.2684
  781MOL0     C 5329   8.360   8.696   8.478  0.3510  0.5457  0.5651
  781MOL0     C 5330   8.383   8.605   8.359 -0.3641 -0.3566 -0.3275
  781MOL0     O 5331   8.496   8.627   8.280 -0.2590  0.4175 -0.0034
  781MOL0     C 5332   8.539   8.555   8.169  0.0258 -0.4365 -0.0297
  781MOL0     C 5333   8.461   8.456   8.113  0.2484  0.0313 -0.3178
  781MOL0     C 5334   8.522   8.376   8.014 -0.3744  0.1465  0.6085
  781MOL0     C 5335   8.653   8.389   7.966 -0.3489 -0.4130  0.1747
  781MOL0     O 5336   8.701   8.289   7.883  0.5762  0.3086 -0.2443
  781MOL0     C 5337   8.843   8.246   7.905  0.5948  0.3854  0.3739
  781MOL0     C 5338   8.935   8.283   7.794 -0.0329 -0.0077 -0.1316
  781MOL0     C 5339   9.081   8.301   7.851  0.3026  0.4733 -0.8048
  781MOL0     C 5340   9.186   8.282   7.739  0.6483 -0.0228  0.2935
  781MOL0     C 5341   9.327   8.306   7.779  0.1475  0.0710  0.3814
  781MOL0     C 5342   9.416   8.271   7.654 -0.1200 -0.5546  1.4907
  781MOL0     C 5343   9.563   8.257   7.698 -0.2048 -1.1729 -0.8254
  781MOL0     C 5344   9.646   8.245   7.568 -0.0998 -0.3969  0.1686
  781MOL0    Cl 5345   9.823   8.210   7.614 -0.1224  0.1220 -0.1471
  781MOL0     C 5346   8.726   8.493   8.030 -0.3702 -0.4896  0.2182
  781MOL0     C 5347   8.672   8.577   8.124  0.7372  0.0208 -1.1218
  781MOL0     O 5348   8.305   8.510   8.341 -0.2236 -1.0206  0.1085
  781MOL0     C 5349   8.230   8.698   8.533  0.3338 -0.3343 -0.3756
  781MOL0     C 5350   8.203   8.794   8.625 -1.2649  0.0919  0.8875
  781MOL0     N 5351   7.903   9.452   8.422 -0.3217  0.1740 -0.1571
  781MOL0     N 5352   7.779   9.489   8.424  0.1954  0.0514  0.1174
  781MOL0     C 5353   7.460   9.390   8.249 -0.2549 -0.1678 -0.3957
  781MOL0     C 5354   7.586   9.337   8.217  0.4303 -1.2522  0.2192
  781MOL0     C 5355   7.929   9.020   8.147 -0.5686  0.2675  0.3629
  781MOL0     C 5356   7.944   9.018   8.011  0.8512 -0.0930  0.1540
  781MOL0     C 5357   8.048   8.966   7.950 -0.5542  0.7241  0.7297
  781MOL0     C 5358   8.152   8.911   8.014 -1.0431  0.4875 -0.2343
  781MOL0     O 5359   8.274   8.879   7.957 -0.2366 -0.0000 -0.0341
  781MOL0     C 5360   8.289   8.844   7.817  0.5546 -0.2003  0.4026
  781MOL0     C 5361   8.408   8.756   7.810 -0.0632  0.5095 -0.5402
  781MOL0     C 5362   8.427   8.713   7.664  0.3703  0.2957  0.0974
  781MOL0     C 5363   8.555   8.631   7.672 -0.1638 -0.3386 -0.6150
  781MOL0     C 5364   8.685   8.708   7.685  0.1556  0.0432 -0.4661
  781MOL0     C 5365   8.787   8.766   7.679  0.4799 -1.0444 -0.3600
  781MOL0     C 5366   8.142   8.902   8.156  0.4478 -0.9221 -0.1093
  781MOL0     C 5367   8.037   8.968   8.216  0.6976 -0.0433 -0.1666
  781MOL0     H 5368   7.518   9.015   8.183 -0.6091 -0.9469  1.6680
  781MOL0     H 5369   7.284   9.102   8.266 -1.7011  0.9826  1.0626
  781MOL0     H 5370   7.062   9.229   8.313  1.6607 -0.4331 -1.4803
  781MOL0     H 5371   7.195   9.184   8.424 -0.7977 -1.8531 -2.0629
  781MOL0     H 5372   7.037   9.466   8.416  0.9529  1.4768  0.1757
  781MOL0     H 5373   6.988   9.318   8.517 -0.5472  1.1125 -1.1503
  781MOL0     H 5374   7.253   9.469   8.533 -0.6092  0.6422 -3.3925
  781MOL0     H 5375   7.101   9.510   8.624  0.6383  0.5913  0.4788
  781MOL0     H 5376   7.114   9.286   8.712  0.4320 -0.8323 -2.6524
  781MOL0     H 5377   7.265   9.249   8.630  0.2490  2.6750 -4.0735
  781MOL0     H 5378   7.218   9.449   8.844 -0.4613 -1.3518 -0.0399
  781MOL0     H 5379   7.343   9.317   8.851  3.4039  3.2786  2.5368
  781MOL0     H 5380   7.367   9.582   8.703 -1.6376 -1.8472  0.3661
  781MOL0     H 5381   7.460   9.528   8.838  0.0932 -1.4212  1.4207
  781MOL0     H 5382   7.556   9.336   8.714 -1.2992 -0.5731 -1.3393
  781MOL0     H 5383   7.473   9.391   8.566  0.6381 -1.1112 -0.4477
  781MOL0     H 5384   7.640   9.597   8.691  1.2865  0.9941 -0.0487
  781MOL0     H 5385   7.570   9.585   8.528 -2.9536 -2.1157  0.2475
  781MOL0     H 5386   7.849   9.408   8.741 -1.6295  1.0233  0.0324
  781MOL0     H 5387   8.156   9.406   8.533  0.4590 -2.4588  0.8726
  781MOL0     H 5388   8.097   9.357   8.697  0.7003  0.2832  0.5451
  781MOL0     H 5389   8.073   9.235   8.427 -0.9669  2.5762  0.2222
  781MOL0     H 5390   7.962   9.164   8.548  0.0874 -1.3166 -0.4939
  781MOL0     H 5391   8.264   9.188   8.582  0.4015  1.0754 -1.8364
  781MOL0     H 5392   8.188   9.054   8.497  1.7408 -0.0444  1.2869
  781MOL0     H 5393   8.056   9.008   8.704 -0.2902  1.2185 -1.1945
  781MOL0     H 5394   8.129   9.141   8.786 -0.0449 -2.1313 -0.0346
  781MOL0     H 5395   8.501   8.939   8.671 -1.0102 -0.2973  0.3353
  781MOL0     H 5396   8.651   8.679   8.439 -3.2057  0.2637 -2.5054
  781MOL0     H 5397   8.658   8.860   8.454 -0.6357  2.0631  2.3903
  781MOL0     H 5398   8.671   8.756   8.592 -2.0615 -3.6374  0.8268
  781MOL0     H 5399   8.362   8.419   8.139  0.7797 -1.7962 -0.7371
  781MOL0     H 5400   8.468   8.293   7.970  1.6133 -1.2822  0.7498
  781MOL0     H 5401   8.883   8.293   7.995  0.0350 -1.7294  1.8034
  781MOL0     H 5402   8.843   8.137   7.922  1.1342  0.1396 -1.0950
  781MOL0     H 5403   8.936   8.199   7.725 -0.1108  0.4645 -0.7151
  781MOL0     H 5404   8.892   8.375   7.752  1.1330  0.8232  0.4161
  781MOL0     H 5405   9.099   8.232   7.934  0.4009  1.5699  0.0962
  781MOL0     H 5406   9.092   8.398   7.900 -2.5244  0.1049  0.7616
  781MOL0     H 5407   9.187   8.179   7.703 -0.3663 -1.1158  3.1028
  781MOL0     H 5408   9.171   8.359   7.664  0.8685  1.0599  1.3328
  781MOL0     H 5409   9.355   8.236   7.858  1.8278 -1.7499 -1.7133
  781MOL0     H 5410   9.336   8.407   7.822 -1.1132  0.0423  0.7478
  781MOL0     H 5411   9.376   8.181   7.607  1.0583 -0.9712  1.2462
  781MOL0     H 5412   9.397   8.349   7.580 -2.2512 -1.9754  0.4449
  781MOL0     H 5413   9.571   8.169   7.763  1.5971  0.2505  0.9948
  781MOL0     H 5414   9.600   8.345   7.752 -1.2091 -2.0607  1.4686
  781MOL0     H 5415   9.652   8.336   7.509  2.3345  0.6635  1.8764
  781MOL0     H 5416   9.599   8.176   7.497  0.2851  1.4772 -2.0480
  781MOL0     H 5417   8.829   8.508   7.998 -1.0792  3.4748 -0.7249
  781MOL0     H 5418   8.730   8.652   8.177 -4.3072  1.7301  2.8934
  781MOL0     H 5419   8.148   8.637   8.497 -0.6493  1.6773 -1.7813
  781MOL0     H 5420   8.104   8.775   8.667 -1.8853 -0.2196 -0.6342
  781MOL0     H 5421   7.438   9.495   8.263  0.2400 -0.3625  2.4172
  781MOL0     H 5422   7.664   9.408   8.188  0.4214 -0.7762  1.2890
  781MOL0     H 5423   7.869   9.076   7.957 -0.6963 -2.7536 -0.7248
  781MOL0     H 5424   8.061   8.973   7.843 -1.5561 -2.0612  0.3430
  781MOL0     H 5425   8.205   8.784   7.781  1.1801 -1.8061  1.5491
  781MOL0     H 5426   8.304   8.942   7.771  0.4361  0.3791  1.5461
  781MOL0     H 5427   8.385   8.667   7.869  1.2701 -1.0804 -2.2726
  781MOL0     H 5428   8.501   8.798   7.849 -0.0280  0.4817 -0.5915
  781MOL0     H 5429   8.446   8.798   7.597 -0.0105 -0.8327 -1.5138
  781MOL0     H 5430   8.337   8.661   7.628 -0.0580  0.8775  0.3197
  781MOL0     H 5431   8.565   8.582   7.574  2.2796  1.6371 -1.4555
  781MOL0     H 5432   8.546   8.541   7.734 -0.7233 -1.3107 -2.0384
  781MOL0     H 5433   8.869   8.835   7.675  1.5708 -2.2035  1.0376
  781MOL0     H 5434   8.223   8.840   8.193 -0.1689 -2.8939 -1.8482
  781MOL0     H 5435   8.032   8.957   8.324  2.1539 -1.9757 -0.2389
  782MOL0     O 5436   3.364   1.692   5.135  0.5309 -0.0444 -0.7219
  782MOL0     C 5437   3.301   1.769   5.065  0.6860 -0.0533  0.4173
  782MOL0     O 5438   3.166   1.767   5.042 -0.1645 -0.5299  0.1492
  782MOL0     C 5439   3.079   1.676   5.102 -0.1694 -0.4450  0.7393
  782MOL0     C 5440   3.108   1.585   5.210  0.1130  0.5750  0.4350
  782MOL0     C 5441   3.017   1.489   5.243  0.5266  0.4417 -0.5240
  782MOL0     C 5442   2.893   1.474   5.170 -0.5710  0.0150 -0.9995
  782MOL0     O 5443   2.800   1.376   5.190 -0.6675  0.1625 -0.0797
  782MOL0     C 5444   2.849   1.252   5.235  0.5774  0.5274  0.0082
  782MOL0     C 5445   2.773   1.143   5.158  0.2943  0.6929  0.0212
  782MOL0     C 5446   2.626   1.148   5.191 -0.1685 -0.7897 -0.2741
  782MOL0     C 5447   2.548   1.035   5.133  0.2560 -0.2174  0.2179
  782MOL0     C 5448   2.402   1.021   5.178 -0.4398 -0.6527 -0.0337
  782MOL0     C 5449   2.323   0.904   5.105 -0.5585  0.2460 -0.3262
  782MOL0     C 5450   2.166   0.923   5.077 -0.8816 -0.6675 -0.8297
  782MOL0     C 5451   2.088   0.939   5.209  0.6989  0.3731  0.3452
  782MOL0     N 5452   1.951   0.893   5.193  0.0522 -0.8459  0.4301
  782MOL0     C 5453   1.856   0.946   5.103  0.5612 -1.2570  0.4934
  782MOL0     C 5454   1.751   0.863   5.109  0.7303 -1.2848 -0.2368
  782MOL0     C 5455   1.619   0.871   5.039  0.3305  0.1287  0.6292
  782MOL0     C 5456   1.509   0.913   5.136  0.0503 -0.7442 -0.2224
  782MOL0     C 5457   1.377   0.904   5.065  0.9647  0.3712 -0.5958
  782MOL0     C 5458   1.265   0.913   5.173 -0.5255  0.3663  0.1822
  782MOL0     O 5459   1.273   1.044   5.239  1.7322  0.3343 -0.4259
  782MOL0     C 5460   1.174   1.057   5.347 -0.3645  0.9936  0.6406
  782MOL0     C 5461   1.100   1.172   5.346  0.1187  0.8371  0.4831
  782MOL0     C 5462   0.990   1.190   5.432  0.3770 -0.3075  0.1203
  782MOL0     C 5463   0.911   1.313   5.415  0.0821 -0.8205 -0.3792
  782MOL0     C 5464   0.971   1.099   5.537 -0.5690  0.1429  0.5382
  782MOL0     C 5465   0.877   1.126   5.647 -0.0200 -0.3646 -0.1932
  782MOL0     O 5466   0.909   1.076   5.771  0.5982  0.2128 -0.1155
  782MOL0     C 5467   0.812   1.072   5.864  0.0411  0.6622 -0.1524
  782MOL0     C 5468   0.744   0.946   5.884  0.5483 -0.3570  0.0553
  782MOL0     C 5469   0.631   0.948   5.974 -0.0192  0.1974 -1.1680
  782MOL0     C 5470   0.589   1.055   6.042 -0.5332  0.1843 -0.3386
  782MOL0     O 5471   0.472   1.040   6.117 -0.6267  0.2904 -0.2182
  782MOL0     C 5472   0.485   1.038   6.260 -0.0945  0.9394 -0.3202
  782MOL0     C 5473   0.347   1.058   6.323  0.2067 -0.2049  0.7250
  782MOL0     C 5474   0.240   0.947   6.292 -0.2797  0.0139 -0.3851
  782MOL0     C 5475   0.101   0.989   6.340  0.5424 -0.3244  0.1156
  782MOL0     C 5476  -0.003   0.895   6.289  0.7309  1.1752  0.9326
  782MOL0     C 5477  -0.150   0.920   6.312  0.0318  0.3005  0.9387
  782MOL0     C 5478  -0.192   1.057   6.258 -0.3808  0.5130 -0.6698
  782MOL0     C 5479  -0.350   1.091   6.253 -0.7830 -0.7689 -0.2174
  782MOL0    Cl 5480  -0.418   1.054   6.428  0.2641 -0.1236 -0.4095
  782MOL0     C 5481   0.648   1.178   6.020  0.4659 -0.2655 -0.3140
  782MOL0     C 5482   0.761   1.188   5.926  0.0115  0.0688  0.1655
  782MOL0     O 5483   0.777   1.185   5.617  0.0037 -0.5896  0.6284
  782MOL0     C 5484   1.057   0.987   5.544  0.4218  0.0639 -0.1857
  782MOL0     C 5485   1.155   0.963   5.443 -0.3922 -0.0027 -0.2966
  782MOL0     N 5486   1.786   0.752   5.185  0.3586 -0.5881 -0.4563
  782MOL0     N 5487   1.906   0.772   5.227 -0.2032 -0.0195  0.4595
  782MOL0     C 5488   2.867   1.568   5.067  0.3058 -0.1135 -0.0137
  782MOL0     C 5489   2.959   1.665   5.030 -0.3684 -0.1442 -0.0180
  782MOL0     C 5490   3.372   1.863   4.989  0.8241  0.2216  0.4551
  782MOL0     C 5491   3.300   1.968   4.928  0.5671  0.1000 -0.8259
  782MOL0     C 5492   3.362   2.077   4.859 -0.0931 -0.2970  0.1405
  782MOL0     C 5493   3.496   2.076   4.857 -0.6899 -0.5671  0.0994
  782MOL0     O 5494   3.567   2.176   4.790  0.0488  0.2154 -0.5061
  782MOL0     C 5495   3.524   2.307   4.803  0.8209 -1.2204  0.2521
  782MOL0     C 5496   3.607   2.400   4.708 -0.0500 -0.6625 -0.6962
  782MOL0     C 5497   3.523   2.530   4.694  0.0062 -0.0697 -0.1264
  782MOL0     C 5498   3.590   2.635   4.596  0.5525 -0.7757 -0.3168
  782MOL0     C 5499   3.723   2.677   4.641 -0.5685 -0.3714 -0.4747
  782MOL0     C 5500   3.836   2.713   4.670 -0.3947  1.1957 -0.1663
  782MOL0     C 5501   3.573   1.981   4.915  0.5399  0.7357 -0.6187
  782MOL0     C 5502   3.512   1.865   4.973  1.2666  0.9936  0.8151
  782MOL0     H 5503   3.201   1.583   5.267  0.1443  0.3314  0.3776
  782MOL0     H 5504   3.025   1.423   5.329 -2.0822 -0.2045 -0.6902
  782MOL0     H 5505   2.954   1.241   5.206  1.0030 -0.6856  1.8323
  782MOL0     H 5506   2.842   1.229   5.342  3.2223  1.5361  0.4790
  782MOL0     H 5507   2.793   1.155   5.051 -2.2664  2.2441 -0.3652
  782MOL0     H 5508   2.807   1.048   5.201  2.4560  0.8812 -1.1668
  782MOL0     H 5509   2.628   1.133   5.299  1.0680  1.2638  0.0326
  782MOL0     H 5510   2.586   1.248   5.173  3.8215  0.8740 -1.1093
  782MOL0     H 5511   2.551   1.046   5.025 -0.8380 -2.7107 -0.1250
  782MOL0     H 5512   2.606   0.943   5.140  0.7505 -0.3064 -3.4185
  782MOL0     H 5513   2.393   1.010   5.286 -3.2110 -0.7119 -0.1893
  782MOL0     H 5514   2.340   1.110   5.161  0.1154 -0.3620 -0.5902
  782MOL0     H 5515   2.372   0.872   5.012  0.0538 -0.7001  0.2969
  782MOL0     H 5516   2.343   0.819   5.171  1.8946 -0.0652 -1.3214
  782MOL0     H 5517   2.158   1.017   5.020  2.8167  0.1737 -0.2158
  782MOL0     H 5518   2.133   0.838   5.016  1.0117  0.0140 -2.9590
  782MOL0     H 5519   2.103   1.035   5.260  2.3007 -0.4563  1.5440
  782MOL0     H 5520   2.136   0.871   5.280 -1.2553 -1.2402  0.2143
  782MOL0     H 5521   1.869   1.045   5.060  2.0767 -0.4978  2.4840
  782MOL0     H 5522   1.633   0.942   4.957 -0.6161 -0.5452 -0.1481
  782MOL0     H 5523   1.587   0.774   4.999  1.3770 -0.2929  0.8090
  782MOL0     H 5524   1.519   1.021   5.153 -1.6958 -0.9603  2.7724
  782MOL0     H 5525   1.516   0.863   5.232 -0.7359  1.2296  0.9167
  782MOL0     H 5526   1.364   0.821   4.995  0.0508 -0.8264  0.9336
  782MOL0     H 5527   1.360   0.997   5.009  1.0457  0.4953 -0.4166
  782MOL0     H 5528   1.280   0.828   5.240 -2.5437 -1.6141 -1.6676
  782MOL0     H 5529   1.167   0.906   5.123  1.1109 -0.8981 -3.2100
  782MOL0     H 5530   1.127   1.249   5.274 -1.7685  1.2987  0.2071
  782MOL0     H 5531   0.917   1.365   5.511 -5.1545 -2.5881  1.2262
  782MOL0     H 5532   0.949   1.372   5.331  0.8702  2.2062  1.9193
  782MOL0     H 5533   0.806   1.296   5.392  0.1883 -0.5359 -1.1047
  782MOL0     H 5534   0.760   0.859   5.822 -0.0531  1.7408 -3.3092
  782MOL0     H 5535   0.577   0.856   5.993  0.0889  0.5258  0.9007
  782MOL0     H 5536   0.514   0.940   6.299  1.6554  2.0969  1.5408
  782MOL0     H 5537   0.556   1.114   6.297 -2.0825  3.9491 -2.2724
  782MOL0     H 5538   0.350   1.067   6.432 -0.7901  1.1673  0.6604
  782MOL0     H 5539   0.309   1.156   6.295 -0.2079 -0.0866  1.6470
  782MOL0     H 5540   0.259   0.858   6.352 -2.3643 -0.7448 -0.7870
  782MOL0     H 5541   0.234   0.916   6.187 -0.0661 -1.2659 -0.0260
  782MOL0     H 5542   0.095   0.986   6.449  1.9053  0.5023  0.2296
  782MOL0     H 5543   0.078   1.085   6.294 -1.7309 -0.1454  1.4656
  782MOL0     H 5544   0.015   0.795   6.329  2.4649  1.4331  0.9113
  782MOL0     H 5545   0.016   0.872   6.183 -2.5304 -0.4954  0.5984
  782MOL0     H 5546  -0.209   0.848   6.255  1.1407  2.3934 -3.2592
  782MOL0     H 5547  -0.187   0.913   6.415  3.4185 -0.5527  2.2375
  782MOL0     H 5548  -0.140   1.071   6.163  0.0647 -0.2736 -0.5550
  782MOL0     H 5549  -0.153   1.135   6.325  2.8448 -0.3193 -1.4020
  782MOL0     H 5550  -0.391   1.023   6.177  1.2145  0.1144 -2.1952
  782MOL0     H 5551  -0.364   1.197   6.233  3.8105  0.0999  0.1071
  782MOL0     H 5552   0.617   1.274   6.060 -0.4613  0.4697 -2.6181
  782MOL0     H 5553   0.805   1.284   5.902  0.0511  0.3742  1.4045
  782MOL0     H 5554   1.028   0.914   5.619 -2.1986  0.8788 -0.2834
  782MOL0     H 5555   1.211   0.870   5.437  2.6802  1.7488 -0.6392
  782MOL0     H 5556   2.780   1.553   5.003 -0.1730  1.1714  0.2915
  782MOL0     H 5557   2.953   1.736   4.948  0.5495  1.4045  1.2192
  782MOL0     H 5558   3.194   1.985   4.942  0.2634  0.0780 -2.8379
  782MOL0     H 5559   3.300   2.153   4.812 -1.3006 -1.1853  0.2593
  782MOL0     H 5560   3.422   2.311   4.765  1.4791 -4.3769 -2.3107
  782MOL0     H 5561   3.523   2.341   4.907 -3.7785  2.6456 -0.6982
  782MOL0     H 5562   3.614   2.341   4.616  2.5465 -4.6830  1.7829
  782MOL0     H 5563   3.709   2.417   4.746  0.3287 -1.3854 -1.3579
  782MOL0     H 5564   3.503   2.575   4.792 -0.4221 -1.3775  0.4085
  782MOL0     H 5565   3.422   2.499   4.666 -0.7136  1.4293  0.7166
  782MOL0     H 5566   3.519   2.717   4.593 -0.6815 -1.7063  1.4038
  782MOL0     H 5567   3.597   2.590   4.497 -0.8434 -0.2090 -0.6884
  782MOL0     H 5568   3.939   2.734   4.690  0.7651 -3.2951 -0.4110
  782MOL0     H 5569   3.681   1.985   4.900  0.5506 -0.2982 -0.9300
  782MOL0     H 5570   3.571   1.782   5.012 -1.7458 -1.8511 -0.1533
  783MOL0     O 5571   2.893  10.870   8.609  0.2868  0.9362 -0.4840
  783MOL0     C 5572   2.789  10.805   8.622 -0.0728  0.6348  0.0575
  783MOL0     O 5573   2.765  10.710   8.724 -0.5561  0.1741  0.5187
  783MOL0     C 5574   2.855  10.676   8.828 -0.0022 -0.3021 -0.0729
  783MOL0     C 5575   2.826  10.558   8.903 -0.9839  0.0370  0.4017
  783MOL0     C 5576   2.896  10.532   9.027  0.3429 -0.3722  0.0566
  783MOL0     C 5577   2.998  10.612   9.076 -0.0320  0.2597  0.3747
  783MOL0     O 5578   3.046  10.574   9.200 -0.0365 -0.1389  0.2652
  783MOL0     C 5579   3.175  10.595   9.231 -1.2393 -0.9566  0.1430
  783MOL0     C 5580   3.191  10.589   9.382 -0.5219  0.4180 -0.0387
  783MOL0     C 5581   3.169  10.443   9.424  0.3149 -1.6468  0.8228
  783MOL0     C 5582   3.179  10.447   9.574  0.6476  0.0556 -0.0172
  783MOL0     C 5583   3.123  10.310   9.641 -0.2000  0.4037  0.1638
  783MOL0     C 5584   3.109  10.324   9.794  0.1922  0.1469 -0.7043
  783MOL0     C 5585   3.241  10.351   9.872 -0.0338 -0.1657  0.0414
  783MOL0     C 5586   3.219  10.338  10.025 -1.0273 -0.2087  0.3319
  783MOL0     N 5587   3.220  10.195  10.083 -0.2596 -0.1731 -0.2999
  783MOL0     C 5588   3.115  10.100  10.085 -0.2815 -0.2949 -0.6768
  783MOL0     C 5589   3.157  10.006  10.172  0.1448 -1.3854 -0.5950
  783MOL0     C 5590   3.088   9.885  10.232  1.2402 -0.6942 -0.5062
  783MOL0     C 5591   2.995   9.917  10.345  0.5935  0.1354 -1.0123
  783MOL0     C 5592   2.958   9.783  10.421 -0.4970 -0.3130  0.3145
  783MOL0     C 5593   2.846   9.813  10.518  0.4876  0.0712  0.3786
  783MOL0     O 5594   2.728   9.836  10.428 -0.6293  0.4412  0.0888
  783MOL0     C 5595   2.606   9.885  10.473 -1.0158  0.5030 -0.3861
  783MOL0     C 5596   2.512   9.921  10.378  0.2601  0.0564  0.9017
  783MOL0     C 5597   2.384   9.975  10.411 -1.1715  0.3091 -0.5866
  783MOL0     C 5598   2.291  10.000  10.299  0.1256  0.5467 -0.9687
  783MOL0     C 5599   2.341   9.975  10.553 -0.1216 -0.8452 -0.5280
  783MOL0     C 5600   2.205  10.006  10.600  0.2781 -0.0740  0.5354
  783MOL0     O 5601   2.107  10.061  10.510 -0.1397 -0.6312  0.3308
  783MOL0     C 5602   1.977  10.095  10.539 -0.2313  0.7370 -0.3344
  783MOL0     C 5603   1.923  10.187  10.447  0.1698  1.1660 -0.4113
  783MOL0     C 5604   1.786  10.206  10.455  0.1659  0.3259 -0.4600
  783MOL0     C 5605   1.712  10.144  10.549  1.1172 -0.0029  0.1131
  783MOL0     O 5606   1.577  10.180  10.543  0.7094 -0.2775 -0.3290
  783MOL0     C 5607   1.487  10.072  10.546 -0.4180 -0.0201  0.0474
  783MOL0     C 5608   1.341  10.123  10.557  0.2178 -0.1188  0.3463
  783MOL0     C 5609   1.248  10.015  10.616  1.0090 -1.1869  0.7015
  783MOL0     C 5610   1.097  10.036  10.592  0.3019 -0.3624 -0.2711
  783MOL0     C 5611   1.017   9.935  10.685  0.4030  0.1495 -0.5918
  783MOL0     C 5612   0.868   9.933  10.644  0.5784  0.0743  0.4192
  783MOL0     C 5613   0.789   9.808  10.694 -0.5222 -0.6295 -0.2928
  783MOL0     C 5614   0.660   9.798  10.623  0.0014 -0.1111 -0.4840
  783MOL0    Cl 5615   0.574   9.638  10.655 -0.4410 -0.0959  0.1877
  783MOL0     C 5616   1.768  10.061  10.647 -0.6957 -0.1165 -0.1530
  783MOL0     C 5617   1.900  10.036  10.646 -0.2385 -0.7723  0.2617
  783MOL0     O 5618   2.193   9.985  10.717  0.0846  0.2509 -0.1812
  783MOL0     C 5619   2.445   9.947  10.645 -0.7257  0.1757 -0.6418
  783MOL0     C 5620   2.570   9.899  10.606  0.4445  0.2737  0.4329
  783MOL0     N 5621   3.284  10.039  10.216  0.0421 -0.0867 -0.2617
  783MOL0     N 5622   3.320  10.152  10.166 -0.2310 -0.3203  0.1103
  783MOL0     C 5623   3.036  10.722   8.998  0.8015 -0.0305  1.6667
  783MOL0     C 5624   2.971  10.747   8.874  1.0032 -0.5168 -0.4750
  783MOL0     C 5625   2.676  10.825   8.535 -0.0509  0.3379 -0.4578
  783MOL0     C 5626   2.686  10.923   8.440 -0.1299 -0.3945 -0.5758
  783MOL0     C 5627   2.575  10.970   8.362 -0.2077  0.4294 -0.5821
  783MOL0     C 5628   2.444  10.909   8.383  0.6437  0.1441 -0.6206
  783MOL0     O 5629   2.336  10.955   8.310 -0.5125  0.4006  0.5245
  783MOL0     C 5630   2.356  11.025   8.180 -0.5447 -0.4254  0.2794
  783MOL0     C 5631   2.349  11.176   8.184 -0.1795  0.1975 -0.2356
  783MOL0     C 5632   2.244  11.228   8.276  0.5842 -0.2648  0.0560
  783MOL0     C 5633   2.285  11.253   8.422  0.7125 -0.1178  0.1650
  783MOL0     C 5634   2.196  11.198   8.526  0.7624  0.2377 -0.5747
  783MOL0     C 5635   2.146  11.159   8.629 -0.2056 -0.3592 -0.0437
  783MOL0     C 5636   2.440  10.789   8.464  0.4121 -0.3358 -0.2169
  783MOL0     C 5637   2.559  10.743   8.531 -0.0768  0.5364 -0.5771
  783MOL0     H 5638   2.748  10.485   8.885 -1.6933  0.9431 -0.3137
  783MOL0     H 5639   2.876  10.438   9.079 -2.9292  0.6949  0.9920
  783MOL0     H 5640   3.237  10.517   9.186 -3.2919 -2.9317  0.5874
  783MOL0     H 5641   3.207  10.693   9.193 -0.9668 -0.8639  0.6066
  783MOL0     H 5642   3.294  10.607   9.415  0.3049 -1.5902 -1.3249
  783MOL0     H 5643   3.126  10.667   9.422  1.6668  2.0565  0.5139
  783MOL0     H 5644   3.067  10.416   9.395  1.2433 -1.8743 -2.7012
  783MOL0     H 5645   3.242  10.378   9.376 -0.1970 -1.2174 -0.5747
  783MOL0     H 5646   3.280  10.471   9.609  0.1483 -1.1410  2.4886
  783MOL0     H 5647   3.108  10.523   9.608 -1.8898 -2.3143  0.3361
  783MOL0     H 5648   3.034  10.268   9.594 -0.1188 -0.0570  0.4156
  783MOL0     H 5649   3.207  10.241   9.627  1.1314  1.8468  0.6464
  783MOL0     H 5650   3.029  10.396   9.815  2.3314  2.3098  0.4793
  783MOL0     H 5651   3.064  10.231   9.832 -3.4538  1.8274 -0.5111
  783MOL0     H 5652   3.333  10.297   9.847  1.4771  2.1648  0.2823
  783MOL0     H 5653   3.264  10.454   9.843 -1.2657 -0.0636 -0.6616
  783MOL0     H 5654   3.133  10.396  10.059 -0.9501  0.8530 -1.1677
  783MOL0     H 5655   3.301  10.390  10.076 -1.7376  0.5322  0.7450
  783MOL0     H 5656   3.016  10.099  10.041 -0.4500 -0.1331 -0.3042
  783MOL0     H 5657   3.046   9.829  10.147  3.0928 -1.0298 -1.2577
  783MOL0     H 5658   3.161   9.821  10.283 -1.5689 -1.7088  2.6190
  783MOL0     H 5659   2.902   9.967  10.318  1.2572  3.1182  1.6555
  783MOL0     H 5660   3.043   9.981  10.419  1.4224 -2.1618  0.5622
  783MOL0     H 5661   3.040   9.741  10.479  0.6152  1.9267  0.5061
  783MOL0     H 5662   2.923   9.715  10.343 -0.6452 -2.1678  1.9490
  783MOL0     H 5663   2.853   9.900  10.584 -1.8537  0.6583 -0.0254
  783MOL0     H 5664   2.823   9.736  10.592 -0.1315  1.5568  1.8041
  783MOL0     H 5665   2.540   9.904  10.275 -0.3148 -3.7464  1.2402
  783MOL0     H 5666   2.340   9.956  10.211  2.1263  0.5590  0.0821
  783MOL0     H 5667   2.197   9.947  10.312  0.8067 -0.6824 -0.8979
  783MOL0     H 5668   2.267  10.106  10.289 -3.5805 -0.1739 -1.1096
  783MOL0     H 5669   1.991  10.231  10.375  0.9219 -3.7868 -3.1811
  783MOL0     H 5670   1.744  10.271  10.380 -0.9061  0.4373  0.2276
  783MOL0     H 5671   1.499  10.029  10.446 -1.5684 -2.2797  0.8013
  783MOL0     H 5672   1.510   9.995  10.621  0.0787 -1.5945 -1.6479
  783MOL0     H 5673   1.344  10.205  10.629 -0.4063  0.3917 -0.2084
  783MOL0     H 5674   1.304  10.166  10.464  0.5397  1.7388  1.0349
  783MOL0     H 5675   1.272  10.020  10.722 -2.0783  0.9867  1.4475
  783MOL0     H 5676   1.270   9.918  10.570  0.9097 -1.9058  2.1206
  783MOL0     H 5677   1.076  10.137  10.628  3.4794  0.0070  0.8670
  783MOL0     H 5678   1.084  10.030  10.484  0.0382  2.9912 -0.5352
  783MOL0     H 5679   1.026   9.955  10.792 -2.0315 -0.0196 -0.2930
  783MOL0     H 5680   1.062   9.840  10.655  0.4859  0.6898 -2.3239
  783MOL0     H 5681   0.814  10.018  10.686 -0.0366 -0.3975  0.6075
  783MOL0     H 5682   0.855   9.935  10.535 -4.2369 -1.1586  0.7150
  783MOL0     H 5683   0.762   9.820  10.799 -3.7079  0.9162 -1.1684
  783MOL0     H 5684   0.836   9.710  10.685 -0.1519 -0.3588 -1.5282
  783MOL0     H 5685   0.678   9.796  10.515 -2.0946 -1.2884 -0.8822
  783MOL0     H 5686   0.583   9.875  10.633  1.8253  1.8224 -0.6324
  783MOL0     H 5687   1.713  10.036  10.737 -1.9702  1.7181 -0.3838
  783MOL0     H 5688   1.949   9.975  10.721  1.9047 -3.8204 -3.2633
  783MOL0     H 5689   2.429   9.947  10.752 -0.8397 -4.6333 -0.4261
  783MOL0     H 5690   2.647   9.892  10.682  0.5393  1.6195  0.4813
  783MOL0     H 5691   3.114  10.796   9.014 -0.8645  2.1547  0.2849
  783MOL0     H 5692   2.994  10.840   8.823  0.7150  1.0192  2.0273
  783MOL0     H 5693   2.781  10.973   8.425  0.4401 -0.4202  2.3021
  783MOL0     H 5694   2.592  11.051   8.293 -2.8564  0.4707 -1.3098
  783MOL0     H 5695   2.450  10.998   8.131 -0.4710  1.1897 -0.5216
  783MOL0     H 5696   2.267  11.007   8.118 -1.5400 -0.1176  1.5855
  783MOL0     H 5697   2.326  11.208   8.082  1.7069  2.5556 -0.0077
  783MOL0     H 5698   2.446  11.222   8.207 -0.3344  0.2818  0.2774
  783MOL0     H 5699   2.156  11.163   8.278 -0.2269  0.8071  0.7847
  783MOL0     H 5700   2.220  11.321   8.224  1.2255 -0.7628 -1.1508
  783MOL0     H 5701   2.263  11.359   8.439 -2.3775 -0.6748  0.2459
  783MOL0     H 5702   2.392  11.241   8.439  1.3527  4.4263  0.6088
  783MOL0     H 5703   2.113  11.121   8.723 -0.3689 -0.2269 -0.0456
  783MOL0     H 5704   2.337  10.759   8.481  0.1795  2.0063  3.6918
  783MOL0     H 5705   2.543  10.665   8.605 -0.9699  1.7481  0.5561
  784MOL0     O 5706   4.735   6.240   1.667 -0.0296 -0.2608  1.0530
  784MOL0     C 5707   4.710   6.225   1.547 -0.2649 -0.1885 -0.2385
  784MOL0     O 5708   4.629   6.303   1.472  0.1727 -0.0655 -0.1587
  784MOL0     C 5709   4.576   6.417   1.537  0.6814  0.3403 -0.0479
  784MOL0     C 5710   4.581   6.536   1.469  0.2634 -0.7593 -0.6914
  784MOL0     C 5711   4.532   6.654   1.525 -0.1268  0.7382 -0.5359
  784MOL0     C 5712   4.452   6.648   1.645  0.2562  1.0329  0.4906
  784MOL0     O 5713   4.399   6.767   1.696 -0.2904  0.4865  0.9892
  784MOL0     C 5714   4.298   6.771   1.795 -0.1200 -0.2066  0.9830
  784MOL0     C 5715   4.247   6.913   1.808 -0.3359  0.2125  0.9385
  784MOL0     C 5716   4.325   7.002   1.911  0.1815  0.0981 -0.5492
  784MOL0     C 5717   4.259   7.143   1.920  0.4077  0.2543  0.7807
  784MOL0     C 5718   4.328   7.252   2.003 -0.0125  0.5752 -0.5028
  784MOL0     C 5719   4.239   7.377   2.046 -0.2803  0.0472  0.6570
  784MOL0     C 5720   4.338   7.481   2.099 -0.4188 -0.7730 -0.2413
  784MOL0     C 5721   4.260   7.612   2.125 -0.5187  0.5889  0.1126
  784MOL0     N 5722   4.149   7.596   2.219  0.1644 -0.4455  0.0608
  784MOL0     C 5723   4.015   7.587   2.175 -0.0382 -0.1207  0.1014
  784MOL0     C 5724   3.946   7.532   2.277 -0.9846 -0.2914 -0.0928
  784MOL0     C 5725   3.814   7.481   2.271  0.1472  0.9052  0.0084
  784MOL0     C 5726   3.708   7.585   2.307 -0.9759 -0.0375  0.4763
  784MOL0     C 5727   3.582   7.516   2.342  0.4007 -0.3840 -0.1648
  784MOL0     C 5728   3.478   7.619   2.349 -0.7478  0.5039 -0.2237
  784MOL0     O 5729   3.360   7.565   2.411  0.1666 -1.0412  0.2188
  784MOL0     C 5730   3.254   7.545   2.336  0.0701  0.3285 -0.0777
  784MOL0     C 5731   3.221   7.413   2.289 -0.7400 -0.0224 -0.3087
  784MOL0     C 5732   3.104   7.390   2.218 -1.3111  0.4485  0.2607
  784MOL0     C 5733   3.077   7.255   2.164  0.5257 -0.0604  0.5213
  784MOL0     C 5734   3.017   7.503   2.188 -0.0186  0.1170  1.1493
  784MOL0     C 5735   2.882   7.488   2.127 -0.4255  0.9245 -0.1127
  784MOL0     O 5736   2.833   7.611   2.081  0.2901  0.0874 -0.2069
  784MOL0     C 5737   2.726   7.615   1.994  0.1620  0.5091 -0.6556
  784MOL0     C 5738   2.700   7.520   1.893 -0.0688  0.8931  0.5091
  784MOL0     C 5739   2.591   7.529   1.807  0.2192 -0.2105  0.0050
  784MOL0     C 5740   2.496   7.632   1.820  0.2524 -0.7750 -0.4866
  784MOL0     O 5741   2.390   7.618   1.733 -0.1532 -0.5597  0.2816
  784MOL0     C 5742   2.256   7.662   1.766  0.0835  0.2092 -0.3332
  784MOL0     C 5743   2.175   7.625   1.644 -0.4783 -1.0597  0.2543
  784MOL0     C 5744   2.020   7.630   1.662 -0.2939 -0.3770 -0.6510
  784MOL0     C 5745   1.949   7.571   1.545 -0.0722  0.2711 -0.2274
  784MOL0     C 5746   1.800   7.604   1.555  0.2175  0.1341 -0.1013
  784MOL0     C 5747   1.728   7.536   1.433  0.8676 -0.0703  0.2814
  784MOL0     C 5748   1.575   7.512   1.457  1.0428  0.3049 -0.0730
  784MOL0     C 5749   1.506   7.429   1.349  0.5245  0.2113 -0.3568
  784MOL0    Cl 5750   1.335   7.379   1.366 -0.0340  0.2896 -0.2614
  784MOL0     C 5751   2.521   7.737   1.908 -0.0492  0.4087 -0.2329
  784MOL0     C 5752   2.634   7.721   1.994  0.8954 -0.0056 -1.0308
  784MOL0     O 5753   2.811   7.387   2.141 -0.2703  0.4305 -0.1328
  784MOL0     C 5754   3.062   7.631   2.231  0.0714  1.0747  0.6274
  784MOL0     C 5755   3.179   7.654   2.301  0.2823  0.2102 -0.7708
  784MOL0     N 5756   4.036   7.516   2.382 -0.4505  0.1774 -0.3414
  784MOL0     N 5757   4.156   7.542   2.336  0.1655 -0.2511  0.0236
  784MOL0     C 5758   4.435   6.520   1.708  0.1468  0.2557  0.2809
  784MOL0     C 5759   4.488   6.408   1.650  0.3778  0.5722  0.7882
  784MOL0     C 5760   4.780   6.108   1.477 -0.5737 -0.2159 -0.2242
  784MOL0     C 5761   4.873   6.027   1.546 -0.3779  0.0535 -0.3647
  784MOL0     C 5762   4.929   5.914   1.487 -0.7229  0.6956 -0.1854
  784MOL0     C 5763   4.892   5.877   1.360  0.0399 -0.0034 -0.5600
  784MOL0     O 5764   4.931   5.751   1.319  0.0161  1.4039 -0.2813
  784MOL0     C 5765   4.991   5.761   1.186  0.1283  0.0684 -0.0544
  784MOL0     C 5766   5.101   5.651   1.175  0.2281  0.3792 -0.4239
  784MOL0     C 5767   5.191   5.655   1.298 -0.3236 -0.1087 -0.3972
  784MOL0     C 5768   5.322   5.584   1.285  0.2239  0.6899  0.2604
  784MOL0     C 5769   5.409   5.594   1.403 -0.1601 -0.1262 -0.3009
  784MOL0     C 5770   5.483   5.615   1.496  0.1950 -0.1799  0.7863
  784MOL0     C 5771   4.801   5.950   1.288  0.1631  0.5396 -0.4401
  784MOL0     C 5772   4.737   6.068   1.350 -0.5261 -0.3953 -0.2868
  784MOL0     H 5773   4.641   6.534   1.379  1.7790  1.7156  0.1481
  784MOL0     H 5774   4.539   6.745   1.465 -0.5094 -0.1043 -1.8998
  784MOL0     H 5775   4.221   6.701   1.763  0.9131 -0.1922 -1.7367
  784MOL0     H 5776   4.330   6.737   1.894  3.8153 -1.8138 -0.6363
  784MOL0     H 5777   4.263   6.954   1.708  0.4222 -3.5721 -0.6939
  784MOL0     H 5778   4.144   6.896   1.841 -1.8019  3.4326 -1.4924
  784MOL0     H 5779   4.331   6.950   2.007  0.4347  0.3950 -0.4025
  784MOL0     H 5780   4.429   7.020   1.885  0.2633  0.8649  0.2683
  784MOL0     H 5781   4.236   7.191   1.824 -3.3163 -0.9252  0.9274
  784MOL0     H 5782   4.161   7.134   1.967 -0.6199 -1.7845 -1.5366
  784MOL0     H 5783   4.354   7.210   2.100  1.1002  1.9556 -0.1592
  784MOL0     H 5784   4.427   7.274   1.960  0.4652  0.7067  0.6393
  784MOL0     H 5785   4.189   7.424   1.960 -0.3524  2.0433  1.7257
  784MOL0     H 5786   4.163   7.348   2.119  1.7085 -0.8864  2.4773
  784MOL0     H 5787   4.372   7.433   2.192  0.1416 -1.5491 -0.8314
  784MOL0     H 5788   4.424   7.495   2.033  1.4942 -1.6094  1.9105
  784MOL0     H 5789   4.218   7.640   2.028  1.9031  1.0049 -0.8864
  784MOL0     H 5790   4.322   7.695   2.159  1.0243 -0.7153  0.6216
  784MOL0     H 5791   3.972   7.602   2.076  1.8520  0.2483 -0.7098
  784MOL0     H 5792   3.790   7.447   2.169  1.4188  1.0730 -0.3568
  784MOL0     H 5793   3.801   7.398   2.341 -0.9476  0.0221 -1.1840
  784MOL0     H 5794   3.707   7.660   2.227  3.5556  1.4022  1.4311
  784MOL0     H 5795   3.745   7.644   2.392  0.4392 -0.6909  0.3460
  784MOL0     H 5796   3.595   7.466   2.439  1.5981  1.3187  0.6142
  784MOL0     H 5797   3.547   7.437   2.275 -1.2350  0.1079  0.0691
  784MOL0     H 5798   3.455   7.669   2.254  0.3171  2.1765  0.3489
  784MOL0     H 5799   3.513   7.708   2.401 -2.2353  1.5604 -0.9419
  784MOL0     H 5800   3.302   7.340   2.294  0.7173  1.2819 -2.6782
  784MOL0     H 5801   3.057   7.249   2.057 -0.1119 -2.1815  0.7297
  784MOL0     H 5802   3.154   7.181   2.188 -1.9118 -1.8540  3.6117
  784MOL0     H 5803   2.988   7.220   2.218 -0.6748  2.5989  0.4682
  784MOL0     H 5804   2.766   7.434   1.883 -0.0953  1.0892 -1.9670
  784MOL0     H 5805   2.568   7.453   1.734 -0.0350 -0.7654  0.6510
  784MOL0     H 5806   2.212   7.608   1.850 -1.2531 -0.4633 -1.4382
  784MOL0     H 5807   2.255   7.771   1.779  2.5549  0.1611  0.8354
  784MOL0     H 5808   2.210   7.677   1.555  1.8288 -1.5995  0.8002
  784MOL0     H 5809   2.189   7.517   1.630  2.1568 -1.1901  3.0574
  784MOL0     H 5810   1.984   7.733   1.665  0.8459  0.0397  2.7679
  784MOL0     H 5811   1.988   7.575   1.751 -0.8152 -3.5143 -2.6349
  784MOL0     H 5812   1.986   7.599   1.447  2.2485  1.3775  0.8992
  784MOL0     H 5813   1.957   7.462   1.549  2.4310  0.4118  0.5687
  784MOL0     H 5814   1.781   7.711   1.565  1.8613  0.5144 -0.8468
  784MOL0     H 5815   1.748   7.558   1.640 -0.5705  3.0688  1.1214
  784MOL0     H 5816   1.750   7.598   1.346 -1.5548  0.3744 -0.0900
  784MOL0     H 5817   1.772   7.436   1.432 -2.8108 -1.9246  2.6633
  784MOL0     H 5818   1.525   7.609   1.467 -1.8417 -1.1997  1.7038
  784MOL0     H 5819   1.568   7.460   1.553 -0.2953 -1.1496 -0.9013
  784MOL0     H 5820   1.560   7.334   1.337 -0.5303 -0.2525 -1.5973
  784MOL0     H 5821   1.509   7.482   1.254 -2.7239  0.4757 -0.3982
  784MOL0     H 5822   2.463   7.829   1.911  1.5249  1.4778 -1.5214
  784MOL0     H 5823   2.643   7.805   2.063 -1.7953 -1.1749  0.9426
  784MOL0     H 5824   3.009   7.722   2.202 -0.8996  0.6416  0.9857
  784MOL0     H 5825   3.188   7.756   2.336 -3.7440  0.5754 -0.3461
  784MOL0     H 5826   4.380   6.520   1.802  0.8981  1.0672  0.7357
  784MOL0     H 5827   4.470   6.312   1.697  0.9942  0.5868  1.0540
  784MOL0     H 5828   4.910   6.056   1.644 -0.7149 -0.2969 -0.1332
  784MOL0     H 5829   4.996   5.849   1.542 -2.6142  0.9606  2.6437
  784MOL0     H 5830   4.917   5.746   1.107 -1.8022  0.2393  1.6423
  784MOL0     H 5831   5.037   5.860   1.178  3.4723 -1.3743 -0.1433
  784MOL0     H 5832   5.151   5.660   1.078 -1.5086 -1.2658 -1.5140
  784MOL0     H 5833   5.053   5.553   1.172  0.3961  0.2059  1.3676
  784MOL0     H 5834   5.128   5.606   1.372 -1.0004  0.6709 -0.4536
  784MOL0     H 5835   5.217   5.754   1.336  0.8785  0.8838 -3.4728
  784MOL0     H 5836   5.384   5.618   1.201  2.5534 -1.8044  0.8265
  784MOL0     H 5837   5.297   5.478   1.281  0.6800  0.6115 -0.9765
  784MOL0     H 5838   5.540   5.641   1.583 -0.3658  0.1771  1.0548
  784MOL0     H 5839   4.789   5.931   1.182 -0.8411  1.7033 -0.5656
  784MOL0     H 5840   4.679   6.123   1.277  3.0219  0.7617 -2.4733
  785MOL0     O 5841   6.672   2.167   0.659  0.1676 -0.5551  0.5823
  785MOL0     C 5842   6.714   2.235   0.565 -0.2964  0.6508  0.9012
  785MOL0     O 5843   6.643   2.274   0.460  0.0286 -0.5268  0.4524
  785MOL0     C 5844   6.512   2.250   0.469 -0.0920 -0.6159  0.9242
  785MOL0     C 5845   6.421   2.319   0.549 -0.4279  0.6051 -0.2213
  785MOL0     C 5846   6.289   2.289   0.547  0.4692  0.5071  0.6065
  785MOL0     C 5847   6.245   2.184   0.460 -0.3622  0.0519 -0.3904
  785MOL0     O 5848   6.112   2.164   0.455 -0.3728  0.6976 -0.0733
  785MOL0     C 5849   6.068   2.028   0.491 -1.4442 -0.6153 -0.3427
  785MOL0     C 5850   5.929   2.041   0.546  0.1604  0.3453 -0.2069
  785MOL0     C 5851   5.857   1.906   0.557  0.9952  0.4127  0.6582
  785MOL0     C 5852   5.703   1.928   0.536 -0.2029  0.0717 -0.0301
  785MOL0     C 5853   5.634   1.792   0.549  0.5322 -1.5562  0.0300
  785MOL0     C 5854   5.484   1.835   0.580 -0.2996 -1.0585 -0.2924
  785MOL0     C 5855   5.394   1.707   0.590  0.0711 -0.5520 -0.1092
  785MOL0     C 5856   5.256   1.739   0.651 -0.1086 -0.2884 -0.2105
  785MOL0     N 5857   5.179   1.613   0.641  0.2021  0.0467  0.4870
  785MOL0     C 5858   5.100   1.563   0.744 -0.3075  0.0166 -0.4332
  785MOL0     C 5859   5.004   1.496   0.690  0.5577  0.6712 -0.2875
  785MOL0     C 5860   4.888   1.428   0.767  0.3464 -0.7781 -0.2524
  785MOL0     C 5861   4.743   1.480   0.727 -0.1121  0.4405 -0.0732
  785MOL0     C 5862   4.689   1.386   0.621  0.2269  0.0342  1.0366
  785MOL0     C 5863   4.530   1.378   0.607  0.4249  0.1894  0.2633
  785MOL0     O 5864   4.482   1.515   0.593 -0.4931  0.0992  0.2242
  785MOL0     C 5865   4.347   1.517   0.618 -0.1636 -0.8679  0.1293
  785MOL0     C 5866   4.300   1.640   0.643  0.4209 -0.0230 -0.1798
  785MOL0     C 5867   4.163   1.668   0.674  1.3337 -0.0518 -0.2765
  785MOL0     C 5868   4.122   1.811   0.699  1.3981  0.2738 -0.2039
  785MOL0     C 5869   4.072   1.557   0.676 -0.2669  0.3396  0.0994
  785MOL0     C 5870   3.929   1.556   0.701 -1.0469  0.6869 -0.2495
  785MOL0     O 5871   3.875   1.431   0.740  0.1143  0.2910 -0.8797
  785MOL0     C 5872   3.746   1.444   0.771 -0.6740 -0.0468 -0.0583
  785MOL0     C 5873   3.720   1.478   0.907 -0.7197  0.3831  1.2465
  785MOL0     C 5874   3.585   1.498   0.950 -0.2999  0.1010 -0.4775
  785MOL0     C 5875   3.479   1.473   0.869  0.7836 -0.5182  0.6195
  785MOL0     O 5876   3.352   1.501   0.916 -0.2717  0.7296 -0.0401
  785MOL0     C 5877   3.230   1.486   0.854  0.1790 -0.0362  0.5465
  785MOL0     C 5878   3.171   1.345   0.844 -0.2198 -0.5361 -0.2545
  785MOL0     C 5879   3.137   1.285   0.980  0.0403 -0.2861  0.3600
  785MOL0     C 5880   3.042   1.366   1.068  0.5758  0.1297 -0.6496
  785MOL0     C 5881   3.034   1.274   1.193 -0.1933 -1.0738 -0.5870
  785MOL0     C 5882   2.943   1.323   1.310 -0.2356  0.1893  0.0031
  785MOL0     C 5883   2.912   1.218   1.411  0.0253 -0.3616  0.1211
  785MOL0     C 5884   2.779   1.141   1.373  0.1513 -1.1173 -0.4292
  785MOL0    Cl 5885   2.790   1.049   1.214 -0.3350 -0.1188 -0.4122
  785MOL0     C 5886   3.506   1.420   0.746  0.2882 -0.3194  0.3417
  785MOL0     C 5887   3.637   1.415   0.690  0.1491  0.4427 -0.6869
  785MOL0     O 5888   3.868   1.652   0.671  0.2070  0.6572 -0.7768
  785MOL0     C 5889   4.124   1.434   0.644 -0.0806  0.6685  1.0241
  785MOL0     C 5890   4.258   1.414   0.606 -0.2610  0.5799  0.9561
  785MOL0     N 5891   5.035   1.496   0.556  0.2028 -0.0358  0.0475
  785MOL0     N 5892   5.144   1.564   0.521  0.3447 -0.3854 -0.1623
  785MOL0     C 5893   6.332   2.119   0.377  0.3140  0.0228  0.5696
  785MOL0     C 5894   6.465   2.147   0.383  0.5905  0.5160  0.2501
  785MOL0     C 5895   6.852   2.278   0.576  0.9548  0.0410  0.1296
  785MOL0     C 5896   6.914   2.340   0.460 -0.6121  0.0725 -1.0450
  785MOL0     C 5897   7.049   2.372   0.467 -1.4063  0.1859 -0.4938
  785MOL0     C 5898   7.123   2.347   0.584 -0.3904 -0.4560 -0.6527
  785MOL0     O 5899   7.253   2.386   0.573 -0.0086 -0.2731  0.6944
  785MOL0     C 5900   7.342   2.392   0.686 -0.3565 -0.4144  0.3103
  785MOL0     C 5901   7.486   2.431   0.646 -0.3069  0.1327  0.0437
  785MOL0     C 5902   7.494   2.579   0.614 -0.4324 -0.8456  0.0239
  785MOL0     C 5903   7.641   2.604   0.558 -0.6051 -0.4424  0.4522
  785MOL0     C 5904   7.638   2.734   0.491  0.1597 -0.0109 -0.2231
  785MOL0     C 5905   7.635   2.847   0.444 -0.7114 -0.4198 -0.0700
  785MOL0     C 5906   7.060   2.295   0.700  0.2725  0.4155  0.0499
  785MOL0     C 5907   6.922   2.252   0.692  0.9595  0.0541  0.8453
  785MOL0     H 5908   6.460   2.398   0.613 -0.6169  1.3343 -0.9958
  785MOL0     H 5909   6.208   2.328   0.609  0.7859  0.3302  1.1386
  785MOL0     H 5910   6.069   1.971   0.397 -0.7100 -1.9374  0.4244
  785MOL0     H 5911   6.138   1.975   0.557 -1.4164  0.0171  0.1466
  785MOL0     H 5912   5.931   2.087   0.645 -0.3684  0.8133 -0.4085
  785MOL0     H 5913   5.876   2.104   0.474 -0.0069  1.3642  0.7855
  785MOL0     H 5914   5.881   1.832   0.480 -0.5001 -2.4499  2.7952
  785MOL0     H 5915   5.866   1.846   0.648 -0.3671  0.7606  1.0497
  785MOL0     H 5916   5.663   2.008   0.598 -1.9254  0.1082 -1.1332
  785MOL0     H 5917   5.686   1.968   0.435  0.3809  1.5884  0.4369
  785MOL0     H 5918   5.647   1.736   0.456 -3.3408  2.2404 -3.2270
  785MOL0     H 5919   5.678   1.738   0.633  2.4779  0.2516  0.2504
  785MOL0     H 5920   5.475   1.884   0.677 -0.4926  2.2727 -1.8586
  785MOL0     H 5921   5.447   1.909   0.508  1.3440 -0.6530 -0.7574
  785MOL0     H 5922   5.370   1.675   0.488 -0.7395  3.3127 -1.3212
  785MOL0     H 5923   5.446   1.629   0.644 -1.3233 -1.5496 -0.1541
  785MOL0     H 5924   5.202   1.822   0.604  1.0640 -0.1378 -1.3409
  785MOL0     H 5925   5.259   1.771   0.756  1.9507  0.7074 -0.5243
  785MOL0     H 5926   5.100   1.597   0.848  0.3695  2.7191 -1.2407
  785MOL0     H 5927   4.900   1.320   0.759 -0.3730 -0.7604 -1.9046
  785MOL0     H 5928   4.896   1.452   0.874  0.1339 -0.3640 -0.3276
  785MOL0     H 5929   4.751   1.585   0.696 -2.5275  1.3985  2.2177
  785MOL0     H 5930   4.683   1.465   0.817  1.3791 -0.9904  0.7430
  785MOL0     H 5931   4.725   1.283   0.633 -4.1806 -1.9914 -1.0613
  785MOL0     H 5932   4.715   1.406   0.516 -1.1126 -2.9410  0.0274
  785MOL0     H 5933   4.493   1.330   0.699 -0.0071 -0.6908 -0.3483
  785MOL0     H 5934   4.489   1.316   0.526  0.7256 -0.3585  0.5297
  785MOL0     H 5935   4.374   1.720   0.649 -0.9966  1.3716 -0.4497
  785MOL0     H 5936   4.198   1.883   0.666  3.6326 -2.0026 -0.3239
  785MOL0     H 5937   4.035   1.836   0.638 -0.1330 -0.6813  1.4917
  785MOL0     H 5938   4.091   1.833   0.801 -1.3184 -2.8546 -0.1831
  785MOL0     H 5939   3.810   1.484   0.968  1.3165 -0.6907 -1.3995
  785MOL0     H 5940   3.568   1.551   1.043 -0.6361 -0.4685 -0.2043
  785MOL0     H 5941   3.155   1.555   0.893 -0.7200  0.1621 -1.4190
  785MOL0     H 5942   3.248   1.518   0.751 -0.1454 -0.1552  0.4523
  785MOL0     H 5943   3.081   1.349   0.781 -0.4106 -0.7311 -0.0009
  785MOL0     H 5944   3.243   1.280   0.794 -1.1290 -1.8008  0.0296
  785MOL0     H 5945   3.229   1.271   1.038  0.3020 -2.2013 -0.4398
  785MOL0     H 5946   3.084   1.192   0.959 -2.5078  0.9436  0.8738
  785MOL0     H 5947   3.090   1.461   1.093 -0.6204  0.4087  0.7087
  785MOL0     H 5948   2.947   1.384   1.018 -0.0017 -0.6349  0.1257
  785MOL0     H 5949   3.136   1.264   1.231  0.9499 -1.2121 -3.4420
  785MOL0     H 5950   3.009   1.171   1.166 -1.7194 -0.7107 -0.6715
  785MOL0     H 5951   2.995   1.409   1.353 -0.6291  1.7832 -2.4810
  785MOL0     H 5952   2.849   1.361   1.270  0.1940  0.7949 -0.4554
  785MOL0     H 5953   2.904   1.270   1.507 -0.9400 -1.0193  0.4185
  785MOL0     H 5954   2.985   1.137   1.416  0.1609 -0.3924 -1.6698
  785MOL0     H 5955   2.703   1.218   1.368  2.6062  1.4903  0.0139
  785MOL0     H 5956   2.745   1.064   1.444  1.8718 -2.2061 -0.7041
  785MOL0     H 5957   3.427   1.392   0.677 -0.3296 -0.1841  0.9906
  785MOL0     H 5958   3.655   1.380   0.589 -0.5564  1.0656 -1.0380
  785MOL0     H 5959   4.064   1.345   0.654  1.2487 -0.1721  1.9676
  785MOL0     H 5960   4.284   1.313   0.575 -2.2128  0.9762 -2.4105
  785MOL0     H 5961   6.288   2.046   0.309 -2.1306  2.8039 -1.1307
  785MOL0     H 5962   6.538   2.098   0.319 -0.2756  0.5015 -0.7499
  785MOL0     H 5963   6.855   2.371   0.374  0.3136  1.1793 -1.3170
  785MOL0     H 5964   7.110   2.411   0.387 -1.6487  0.1716 -0.6870
  785MOL0     H 5965   7.309   2.456   0.769  0.6337  1.4246 -0.6271
  785MOL0     H 5966   7.352   2.293   0.731  1.4703 -0.3785  0.0717
  785MOL0     H 5967   7.515   2.372   0.559  2.1664  1.6844 -0.2814
  785MOL0     H 5968   7.559   2.396   0.719 -0.7259  0.6826  0.7445
  785MOL0     H 5969   7.479   2.641   0.703 -4.7826 -1.4799 -0.0409
  785MOL0     H 5970   7.426   2.603   0.532  1.3948 -1.6396 -1.8257
  785MOL0     H 5971   7.679   2.534   0.483 -0.2417  1.3671 -1.1091
  785MOL0     H 5972   7.711   2.615   0.642  0.4887 -2.3885 -0.1450
  785MOL0     H 5973   7.624   2.943   0.399  1.3268 -0.0074  0.1909
  785MOL0     H 5974   7.107   2.282   0.797  0.9399 -0.7517 -0.4145
  785MOL0     H 5975   6.870   2.211   0.778  0.3576  1.9858  1.4596
  786MOL0     O 5976   1.245   5.135   3.715  0.4348  0.7951  0.2977
  786MOL0     C 5977   1.258   5.137   3.839  0.1519 -0.1422  0.7138
  786MOL0     O 5978   1.181   5.198   3.930  0.0269  0.2472  0.3604
  786MOL0     C 5979   1.051   5.252   3.904  0.2324 -0.1614  0.7517
  786MOL0     C 5980   0.986   5.323   4.005  0.0526  0.4489 -0.6896
  786MOL0     C 5981   0.858   5.375   3.989  0.1848  0.2179 -0.1703
  786MOL0     C 5982   0.787   5.361   3.875 -0.0806 -0.6303  0.9158
  786MOL0     O 5983   0.664   5.420   3.864 -0.1435  0.0909  0.0294
  786MOL0     C 5984   0.556   5.328   3.859 -0.7391  1.2643 -0.2871
  786MOL0     C 5985   0.440   5.404   3.802  0.5113  0.2834 -0.3632
  786MOL0     C 5986   0.376   5.499   3.908 -0.4758 -0.9341  0.1095
  786MOL0     C 5987   0.271   5.592   3.845 -0.4696  0.7326  0.9019
  786MOL0     C 5988   0.188   5.684   3.938  0.6622 -0.0070 -0.3663
  786MOL0     C 5989   0.087   5.617   4.034 -0.6610 -0.5943  0.2141
  786MOL0     C 5990  -0.026   5.536   3.964  0.0761 -0.7024  0.0640
  786MOL0     C 5991  -0.118   5.452   4.057 -0.2190 -0.5050  0.1608
  786MOL0     N 5992  -0.221   5.538   4.119  0.3938 -1.1478  0.3120
  786MOL0     C 5993  -0.356   5.528   4.097  0.9798 -0.5425 -0.6583
  786MOL0     C 5994  -0.414   5.592   4.201  0.9374  0.5093 -0.1524
  786MOL0     C 5995  -0.563   5.605   4.238  0.0864  0.2597 -0.2270
  786MOL0     C 5996  -0.653   5.500   4.178 -0.4674  0.0946  1.3352
  786MOL0     C 5997  -0.805   5.519   4.192 -0.6818 -0.6026  0.3787
  786MOL0     C 5998  -0.843   5.631   4.104  0.0174  0.1033 -0.0705
  786MOL0     O 5999  -0.842   5.598   3.962  1.2058 -0.0324 -0.0780
  786MOL0     C 6000  -0.969   5.584   3.899 -0.3507 -0.1121 -0.5024
  786MOL0     C 6001  -1.018   5.457   3.861 -0.6946 -0.0433  0.5712
  786MOL0     C 6002  -1.140   5.435   3.803  0.1100 -0.3140  0.4705
  786MOL0     C 6003  -1.190   5.300   3.781 -0.3479  0.2911 -0.3979
  786MOL0     C 6004  -1.218   5.541   3.773  0.4590 -0.0085 -0.2654
  786MOL0     C 6005  -1.339   5.546   3.678  0.4842 -0.0874 -0.1472
  786MOL0     O 6006  -1.426   5.644   3.696 -0.6737  0.3228  0.2858
  786MOL0     C 6007  -1.558   5.646   3.651 -0.4660 -0.3903  0.7632
  786MOL0     C 6008  -1.634   5.534   3.631  0.0591 -0.2659 -0.1703
  786MOL0     C 6009  -1.762   5.551   3.577 -0.5024  0.1348 -0.3966
  786MOL0     C 6010  -1.822   5.682   3.558  0.6487 -0.0956 -0.1887
  786MOL0     O 6011  -1.951   5.695   3.514 -0.7263 -0.6658 -0.6424
  786MOL0     C 6012  -2.039   5.662   3.625  0.3445  0.2169  0.6029
  786MOL0     C 6013  -2.171   5.722   3.587  1.1166 -0.4357 -0.0373
  786MOL0     C 6014  -2.167   5.870   3.581  0.0035 -0.1653  1.0713
  786MOL0     C 6015  -2.296   5.942   3.528 -0.5173 -1.0844 -0.5151
  786MOL0     C 6016  -2.337   6.067   3.613 -0.0640 -0.2036 -0.1016
  786MOL0     C 6017  -2.484   6.108   3.584  0.2203 -0.3297  0.1599
  786MOL0     C 6018  -2.513   6.251   3.623 -0.4657  0.1751  0.1553
  786MOL0     C 6019  -2.654   6.277   3.649 -0.1452  0.1852 -0.3408
  786MOL0    Cl 6020  -2.664   6.453   3.672 -0.0243 -0.7741 -0.0576
  786MOL0     C 6021  -1.738   5.790   3.568 -0.0923 -1.1279 -0.6502
  786MOL0     C 6022  -1.610   5.772   3.628 -0.1875 -0.1205  0.2809
  786MOL0     O 6023  -1.363   5.452   3.608  0.6259 -0.0325  0.6965
  786MOL0     C 6024  -1.173   5.670   3.814 -0.2915  0.0341 -0.3177
  786MOL0     C 6025  -1.051   5.688   3.879 -0.7663 -0.2737  0.3417
  786MOL0     N 6026  -0.310   5.648   4.275  0.3872 -0.4244  0.1166
  786MOL0     N 6027  -0.196   5.610   4.232  0.0175 -0.4861  0.1064
  786MOL0     C 6028   0.848   5.301   3.768 -0.4747 -0.3091  1.0052
  786MOL0     C 6029   0.972   5.241   3.790 -0.0860  0.2371 -0.3405
  786MOL0     C 6030   1.374   5.048   3.892  0.2268 -0.3616 -0.3575
  786MOL0     C 6031   1.417   4.929   3.820 -0.2468 -0.1300 -0.1835
  786MOL0     C 6032   1.536   4.867   3.875 -0.3600 -0.0681 -0.0012
  786MOL0     C 6033   1.603   4.916   3.983 -0.4065 -0.2969 -0.7225
  786MOL0     O 6034   1.731   4.869   4.006 -0.4754 -0.0649 -0.0624
  786MOL0     C 6035   1.770   4.861   4.149  0.2794 -0.2721  0.1022
  786MOL0     C 6036   1.894   4.769   4.152  0.7053 -0.1763 -0.3841
  786MOL0     C 6037   2.011   4.811   4.060  0.3909  0.0417 -0.9200
  786MOL0     C 6038   2.067   4.955   4.095 -0.1536 -0.3468  0.2517
  786MOL0     C 6039   2.171   5.004   4.004  1.1558 -0.0962  0.2076
  786MOL0     C 6040   2.259   5.040   3.930 -0.2236 -1.2729  0.7643
  786MOL0     C 6041   1.564   5.022   4.053 -0.6068  0.9212 -0.7808
  786MOL0     C 6042   1.448   5.090   4.012 -0.0466 -0.0507 -0.2754
  786MOL0     H 6043   1.039   5.324   4.099 -1.5162  2.4407  0.2419
  786MOL0     H 6044   0.820   5.436   4.071 -0.0079 -0.6471  0.3903
  786MOL0     H 6045   0.577   5.242   3.794  0.6628  2.4044 -1.4064
  786MOL0     H 6046   0.536   5.284   3.957 -4.1813  0.5584 -1.1622
  786MOL0     H 6047   0.462   5.459   3.711  1.7848  0.0882 -0.1942
  786MOL0     H 6048   0.362   5.335   3.768 -0.6040  1.0116  0.6365
  786MOL0     H 6049   0.339   5.436   3.990  3.1802  1.0801  3.6958
  786MOL0     H 6050   0.444   5.552   3.976  0.2547 -2.9353  1.0329
  786MOL0     H 6051   0.322   5.656   3.772  1.2152 -1.0490  0.4099
  786MOL0     H 6052   0.208   5.524   3.786 -0.0280  2.6708 -1.9835
  786MOL0     H 6053   0.271   5.728   3.994  1.6334 -0.5007 -1.3743
  786MOL0     H 6054   0.133   5.764   3.889  1.1727  0.3801 -0.3247
  786MOL0     H 6055   0.137   5.545   4.099  1.4389 -1.2551 -1.9701
  786MOL0     H 6056   0.044   5.700   4.090 -1.4097  0.3735 -1.6968
  786MOL0     H 6057  -0.084   5.603   3.900  0.6394 -0.4432 -0.1839
  786MOL0     H 6058   0.029   5.463   3.905  0.2559 -1.1491  0.7752
  786MOL0     H 6059  -0.047   5.406   4.127  0.5238 -1.4726 -1.1666
  786MOL0     H 6060  -0.173   5.378   3.998 -0.2303 -1.3235  1.1683
  786MOL0     H 6061  -0.403   5.478   4.012 -0.8910  1.7332 -1.0467
  786MOL0     H 6062  -0.572   5.593   4.346 -0.2857  0.0349 -0.2784
  786MOL0     H 6063  -0.601   5.706   4.221 -1.1395 -0.1865 -0.2705
  786MOL0     H 6064  -0.624   5.402   4.216  5.7436 -0.1789 -2.6235
  786MOL0     H 6065  -0.633   5.502   4.070 -2.6379 -0.2440  0.8876
  786MOL0     H 6066  -0.834   5.541   4.295 -0.0949 -0.8366  0.5940
  786MOL0     H 6067  -0.859   5.429   4.159 -1.9816  0.0259  0.7252
  786MOL0     H 6068  -0.784   5.723   4.115 -0.1893 -0.0602  3.4477
  786MOL0     H 6069  -0.943   5.654   4.141 -0.7331  2.0998 -2.9872
  786MOL0     H 6070  -0.959   5.369   3.883  0.5719  0.1204 -1.7562
  786MOL0     H 6071  -1.138   5.246   3.702 -0.3292  1.2901 -1.0809
  786MOL0     H 6072  -1.175   5.241   3.873 -0.9114  1.0183  0.1741
  786MOL0     H 6073  -1.298   5.284   3.767 -0.2993 -3.3561  1.9103
  786MOL0     H 6074  -1.601   5.431   3.640 -2.7982 -1.6093 -3.0349
  786MOL0     H 6075  -1.826   5.465   3.560 -1.3005  0.1103  2.2438
  786MOL0     H 6076  -2.052   5.556   3.650 -0.9363  0.2044 -0.0089
  786MOL0     H 6077  -2.006   5.712   3.716  1.4018 -1.5911  1.2758
  786MOL0     H 6078  -2.205   5.682   3.491  1.1108 -2.4010  0.7198
  786MOL0     H 6079  -2.246   5.687   3.659  1.2023  2.2547  1.4925
  786MOL0     H 6080  -2.087   5.899   3.512  0.4987  0.4377  1.8810
  786MOL0     H 6081  -2.143   5.906   3.681  1.9678  1.3300  0.1526
  786MOL0     H 6082  -2.284   5.967   3.423 -1.5290  2.3449  0.0676
  786MOL0     H 6083  -2.373   5.865   3.537 -0.1055 -1.4347  0.0971
  786MOL0     H 6084  -2.266   6.144   3.580 -0.1354 -0.8268 -1.7878
  786MOL0     H 6085  -2.324   6.046   3.720  1.7723  0.0108 -0.2432
  786MOL0     H 6086  -2.513   6.099   3.479 -1.6992  0.7509  0.5545
  786MOL0     H 6087  -2.545   6.037   3.640  2.4188 -2.0810  0.4610
  786MOL0     H 6088  -2.481   6.316   3.541 -1.5211  0.7338  0.1682
  786MOL0     H 6089  -2.467   6.273   3.719 -0.0913 -1.2974  0.3375
  786MOL0     H 6090  -2.685   6.223   3.739  2.6930  2.3326  2.1065
  786MOL0     H 6091  -2.718   6.246   3.565 -0.6267  0.8672 -0.2310
  786MOL0     H 6092  -1.770   5.890   3.542 -0.8480 -1.4927 -1.1418
  786MOL0     H 6093  -1.544   5.851   3.660  0.4088 -0.2823 -0.5141
  786MOL0     H 6094  -1.239   5.750   3.779  0.3368  1.7962  2.2528
  786MOL0     H 6095  -1.027   5.788   3.913  0.5369  0.1169 -1.5838
  786MOL0     H 6096   0.795   5.273   3.678 -3.9871  1.4108  2.3927
  786MOL0     H 6097   1.013   5.179   3.712 -0.5027 -2.5440  1.5015
  786MOL0     H 6098   1.349   4.895   3.742 -1.0139  0.5832  0.1531
  786MOL0     H 6099   1.578   4.774   3.837 -0.7687 -0.5296  0.6442
  786MOL0     H 6100   1.794   4.962   4.185 -1.0832  0.1389 -0.0989
  786MOL0     H 6101   1.694   4.815   4.211  0.2150 -0.6704 -0.2691
  786MOL0     H 6102   1.859   4.671   4.118  0.5304  0.6054 -2.5772
  786MOL0     H 6103   1.922   4.763   4.258 -1.6109  0.8636  0.3547
  786MOL0     H 6104   1.982   4.796   3.956  1.3127 -2.5878 -0.8819
  786MOL0     H 6105   2.099   4.750   4.081 -0.0925 -0.4537 -0.2877
  786MOL0     H 6106   2.110   4.947   4.195  2.0426  0.6373 -0.5416
  786MOL0     H 6107   1.978   5.018   4.100  0.7504  1.0431 -0.3199
  786MOL0     H 6108   2.342   5.067   3.868 -0.2550 -1.3964  0.6691
  786MOL0     H 6109   1.615   5.068   4.137  0.0913 -0.8641 -0.2014
  786MOL0     H 6110   1.423   5.181   4.064  0.5611 -1.6773  3.1769
  787MOL0     O 6111   8.358   7.470  11.367  0.2205  0.1405 -0.4540
  787MOL0     C 6112   8.287   7.469  11.260  0.0913 -0.0573  0.2329
  787MOL0     O 6113   8.314   7.406  11.139  0.0325  0.0993  0.3011
  787MOL0     C 6114   8.443   7.364  11.104  0.6856 -0.1136  0.1769
  787MOL0     C 6115   8.509   7.413  10.991 -0.6050 -0.2697 -0.7363
  787MOL0     C 6116   8.630   7.356  10.951 -0.0031  0.0159 -0.1545
  787MOL0     C 6117   8.689   7.260  11.026  0.1033 -0.3637  0.1709
  787MOL0     O 6118   8.818   7.220  10.976  0.0832  0.0729  0.2894
  787MOL0     C 6119   8.875   7.112  11.038  0.5479 -0.0810  0.8234
  787MOL0     C 6120   9.009   7.080  10.972  0.5350  0.8459  0.4864
  787MOL0     C 6121   9.089   6.965  11.036 -0.5221 -0.1673  0.3001
  787MOL0     C 6122   9.214   6.920  10.960  0.0593 -0.4752 -0.1921
  787MOL0     C 6123   9.252   6.778  10.999 -0.3285  0.0132 -0.8523
  787MOL0     C 6124   9.371   6.723  10.936 -0.2491  0.2521  0.0385
  787MOL0     C 6125   9.397   6.736  10.780  0.7320 -0.2145  0.3378
  787MOL0     C 6126   9.482   6.631  10.716  0.3984 -0.1453  0.3639
  787MOL0     N 6127   9.524   6.679  10.579 -0.7037 -1.1384  0.0098
  787MOL0     C 6128   9.650   6.731  10.547  1.2629  0.3655 -0.7808
  787MOL0     C 6129   9.638   6.764  10.419  0.1565  0.3887 -0.2516
  787MOL0     C 6130   9.753   6.832  10.356  0.2217 -0.2419 -0.0972
  787MOL0     C 6131   9.802   6.758  10.233  0.2023 -0.1321  0.0388
  787MOL0     C 6132   9.888   6.843  10.134  0.0864  0.5449  0.1721
  787MOL0     C 6133   9.995   6.759  10.060  0.3199 -0.0229  0.2683
  787MOL0     O 6134  10.087   6.699  10.143 -0.9078 -0.4856 -0.1859
  787MOL0     C 6135  10.202   6.645  10.091  0.3191  0.0743 -0.2279
  787MOL0     C 6136  10.318   6.642  10.175 -0.7778  0.6049 -0.0618
  787MOL0     C 6137  10.435   6.577  10.139  0.2347  0.1554 -0.4289
  787MOL0     C 6138  10.539   6.562  10.255 -0.5936 -0.3251 -0.2874
  787MOL0     C 6139  10.449   6.529  10.008  0.3333 -0.5201 -0.4622
  787MOL0     C 6140  10.576   6.466   9.957  0.2666 -0.0424  0.6641
  787MOL0     O 6141  10.624   6.529   9.843  0.0898  0.6881 -0.2575
  787MOL0     C 6142  10.751   6.489   9.815 -0.2681 -0.2446  0.1823
  787MOL0     C 6143  10.864   6.551   9.869 -0.5081  0.4341 -0.3826
  787MOL0     C 6144  10.997   6.525   9.827  1.4125  0.3718  0.2798
  787MOL0     C 6145  11.012   6.414   9.739 -1.1394 -0.3246 -0.4763
  787MOL0     O 6146  11.137   6.377   9.704 -0.6631  0.6987  1.3937
  787MOL0     C 6147  11.154   6.382   9.563 -0.1707  0.3593  0.0000
  787MOL0     C 6148  11.303   6.382   9.527  0.3908 -0.2260 -0.1975
  787MOL0     C 6149  11.347   6.413   9.389  0.7013  0.4760 -0.1761
  787MOL0     C 6150  11.376   6.563   9.368  0.5145  0.2464 -0.4504
  787MOL0     C 6151  11.410   6.581   9.224  0.2345  0.8915  0.1124
  787MOL0     C 6152  11.429   6.728   9.193  0.7225  0.5383 -0.9324
  787MOL0     C 6153  11.522   6.745   9.075 -0.3923  0.0435 -0.0908
  787MOL0     C 6154  11.482   6.671   8.953  0.4802  0.2269 -0.8252
  787MOL0    Cl 6155  11.331   6.750   8.899 -0.2483  0.0977  0.1478
  787MOL0     C 6156  10.899   6.353   9.689  0.4097 -0.2729 -0.4769
  787MOL0     C 6157  10.769   6.390   9.717 -0.1116 -0.7323 -0.3636
  787MOL0     O 6158  10.621   6.369  10.019 -0.4974 -0.2836 -1.1810
  787MOL0     C 6159  10.341   6.548   9.913 -0.5672  0.8527  0.4136
  787MOL0     C 6160  10.215   6.595   9.961 -0.6784 -0.9366 -0.5193
  787MOL0     N 6161   9.519   6.719  10.369  0.6581  0.8244 -0.2057
  787MOL0     N 6162   9.447   6.672  10.463 -0.2371  0.3721 -0.6274
  787MOL0     C 6163   8.618   7.204  11.130  0.7392 -0.0423 -0.2333
  787MOL0     C 6164   8.499   7.259  11.173 -0.1134  0.2530 -0.0973
  787MOL0     C 6165   8.145   7.525  11.280  0.0927  0.6605  0.0416
  787MOL0     C 6166   8.053   7.516  11.169  0.8182  0.4958  0.3616
  787MOL0     C 6167   7.922   7.577  11.171 -0.7148 -0.3838 -0.5467
  787MOL0     C 6168   7.885   7.648  11.287 -0.5625 -0.0042 -0.1409
  787MOL0     O 6169   7.757   7.702  11.305  0.2269  0.6563  0.2556
  787MOL0     C 6170   7.654   7.691  11.204 -0.1088  0.2096  0.6281
  787MOL0     C 6171   7.668   7.819  11.118  0.1976 -0.6597 -0.1734
  787MOL0     C 6172   7.615   7.948  11.188  0.1945  0.2105 -0.1063
  787MOL0     C 6173   7.598   8.066  11.090  0.2482 -0.4151  0.5015
  787MOL0     C 6174   7.508   8.171  11.153 -0.1149 -0.2374 -0.6432
  787MOL0     C 6175   7.441   8.258  11.213  0.2691 -0.0555  0.3946
  787MOL0     C 6176   7.973   7.648  11.398 -0.0993 -0.1045 -0.6785
  787MOL0     C 6177   8.107   7.604  11.383 -0.5848 -0.0843  0.2014
  787MOL0     H 6178   8.468   7.500  10.941 -1.4001 -0.1512  0.0872
  787MOL0     H 6179   8.667   7.396  10.857 -0.7086 -0.6729 -0.7354
  787MOL0     H 6180   8.887   7.131  11.145 -0.2348  0.1420  0.8755
  787MOL0     H 6181   8.814   7.024  11.015  3.2301 -1.9852  0.4693
  787MOL0     H 6182   8.964   7.052  10.877 -0.5508 -1.9882  1.7183
  787MOL0     H 6183   9.068   7.172  10.979 -0.6130  1.4683  3.1993
  787MOL0     H 6184   9.119   6.992  11.138 -2.8248 -0.2243  1.0592
  787MOL0     H 6185   9.022   6.882  11.061 -0.6264 -0.2662 -0.2848
  787MOL0     H 6186   9.196   6.925  10.852 -2.4277  1.2716  0.2044
  787MOL0     H 6187   9.292   6.991  10.988 -1.3620  1.5756 -1.1928
  787MOL0     H 6188   9.265   6.776  11.107  0.3974 -0.8989 -0.9436
  787MOL0     H 6189   9.171   6.710  10.969 -0.0951 -0.5056 -0.3156
  787MOL0     H 6190   9.456   6.757  10.995  1.4358  0.5183 -2.3689
  787MOL0     H 6191   9.363   6.614  10.944  0.8829  0.2301  1.0453
  787MOL0     H 6192   9.298   6.746  10.735  0.6554  0.2492  0.6032
  787MOL0     H 6193   9.445   6.834  10.773  2.0790 -0.6741  2.2287
  787MOL0     H 6194   9.428   6.536  10.722 -1.8775  1.1096  0.9096
  787MOL0     H 6195   9.567   6.630  10.785 -0.9612  3.0729  2.3435
  787MOL0     H 6196   9.735   6.757  10.609 -0.6051  0.7627  1.7276
  787MOL0     H 6197   9.729   6.933  10.322  2.4436  0.3658 -0.0006
  787MOL0     H 6198   9.835   6.829  10.428  0.4395 -2.0563 -0.3720
  787MOL0     H 6199   9.706   6.738  10.184 -2.0003  2.4352  2.9227
  787MOL0     H 6200   9.848   6.666  10.270  2.0259  0.2850 -1.0613
  787MOL0     H 6201   9.941   6.919  10.192  0.2985  0.7897 -0.3402
  787MOL0     H 6202   9.823   6.891  10.061  0.8308 -2.5307 -2.7477
  787MOL0     H 6203  10.044   6.829   9.992 -1.8904  2.1590  0.7770
  787MOL0     H 6204   9.952   6.675  10.004  0.0121 -0.5102  1.2063
  787MOL0     H 6205  10.300   6.684  10.274 -0.9122  0.6552 -0.1071
  787MOL0     H 6206  10.572   6.460  10.272  0.7067  0.1724  0.2590
  787MOL0     H 6207  10.622   6.626  10.223 -1.4778  2.6045  2.6934
  787MOL0     H 6208  10.497   6.598  10.350 -1.2825 -2.4305  0.2448
  787MOL0     H 6209  10.844   6.626   9.945 -1.1212 -1.5104  1.4820
  787MOL0     H 6210  11.084   6.574   9.869  2.4732 -0.1505 -1.1906
  787MOL0     H 6211  11.119   6.295   9.507 -2.0996  1.5052 -0.6402
  787MOL0     H 6212  11.102   6.470   9.524 -2.2487 -0.6410  0.4006
  787MOL0     H 6213  11.354   6.453   9.593  0.9070 -2.9793  2.5726
  787MOL0     H 6214  11.334   6.278   9.539  0.2948 -0.3230 -0.7562
  787MOL0     H 6215  11.261   6.379   9.331  1.3014  2.0534 -2.1305
  787MOL0     H 6216  11.436   6.352   9.373 -0.7120 -1.4752 -0.8633
  787MOL0     H 6217  11.282   6.614   9.389  0.8111  0.4069  0.5818
  787MOL0     H 6218  11.455   6.609   9.428  0.3887  0.2505 -0.2878
  787MOL0     H 6219  11.332   6.547   9.156  1.0996 -1.3962  0.1890
  787MOL0     H 6220  11.506   6.529   9.210 -0.4576 -0.5557  0.5748
  787MOL0     H 6221  11.332   6.779   9.188 -0.1824 -1.0846 -0.6759
  787MOL0     H 6222  11.486   6.766   9.277 -0.4926 -0.5684  0.4609
  787MOL0     H 6223  11.624   6.709   9.093 -0.9209 -1.1881  0.5599
  787MOL0     H 6224  11.531   6.853   9.063  1.3261  0.1822  1.9914
  787MOL0     H 6225  11.481   6.562   8.967  2.1082 -0.2066 -3.4434
  787MOL0     H 6226  11.566   6.688   8.885  2.4981 -1.2903  1.1187
  787MOL0     H 6227  10.925   6.270   9.624  1.1498 -0.0882 -0.4204
  787MOL0     H 6228  10.682   6.333   9.685 -0.6380  0.8335 -1.9079
  787MOL0     H 6229  10.348   6.528   9.806 -0.8892  0.8836  0.3864
  787MOL0     H 6230  10.131   6.614   9.894 -0.0410  2.2098 -0.6122
  787MOL0     H 6231   8.655   7.107  11.160  2.4237  0.0558 -1.7783
  787MOL0     H 6232   8.440   7.212  11.252 -2.8171  1.4690 -1.2797
  787MOL0     H 6233   8.079   7.468  11.075  0.7059 -1.4845  1.3023
  787MOL0     H 6234   7.854   7.572  11.087  0.4594 -2.6890 -1.4481
  787MOL0     H 6235   7.648   7.611  11.130  1.5140 -0.7844  1.5122
  787MOL0     H 6236   7.559   7.689  11.257 -1.1441 -0.9845 -1.1565
  787MOL0     H 6237   7.612   7.798  11.026  0.4882  1.9012 -1.0078
  787MOL0     H 6238   7.773   7.833  11.090  0.8729  1.2702  2.9177
  787MOL0     H 6239   7.670   7.965  11.281  0.8734  0.8262 -0.6089
  787MOL0     H 6240   7.515   7.912  11.214  0.8582 -0.2268  2.0065
  787MOL0     H 6241   7.542   8.034  11.002 -1.5234 -0.4901  1.6011
  787MOL0     H 6242   7.696   8.106  11.064 -0.4896  2.0572  1.2470
  787MOL0     H 6243   7.368   8.323  11.256 -0.1750  0.7343 -1.4209
  787MOL0     H 6244   7.948   7.717  11.478 -0.5618 -1.3902  0.3158
  787MOL0     H 6245   8.175   7.629  11.465  1.4360 -1.6388 -0.9140
  788MOL0     O 6246   8.285   9.145  10.426  0.0448  0.0666 -0.5094
  788MOL0     C 6247   8.345   9.194  10.521 -0.5696 -0.7446 -0.1100
  788MOL0     O 6248   8.479   9.231  10.521  0.3817 -0.1059  0.3278
  788MOL0     C 6249   8.543   9.241  10.403  0.0015  0.0441  0.3209
  788MOL0     C 6250   8.484   9.277  10.283  0.0171 -1.5705 -0.4581
  788MOL0     C 6251   8.567   9.294  10.171  1.0992 -0.2176 -0.1785
  788MOL0     C 6252   8.706   9.290  10.186  0.5625 -0.5936 -0.0616
  788MOL0     O 6253   8.776   9.287  10.072  0.1840  0.2760  0.7211
  788MOL0     C 6254   8.839   9.410  10.047  0.0406  0.8243 -1.2415
  788MOL0     C 6255   8.927   9.408   9.927 -1.2012 -0.3375  0.8985
  788MOL0     C 6256   8.925   9.551   9.865 -0.1003 -0.8526 -0.4280
  788MOL0     C 6257   9.016   9.557   9.740  0.3901  0.2244  0.2076
  788MOL0     C 6258   9.005   9.691   9.668  1.2183 -0.0077 -0.1183
  788MOL0     C 6259   9.000   9.685   9.519  0.0925  0.1444  0.1428
  788MOL0     C 6260   9.130   9.670   9.448 -0.5588 -0.4106  0.0188
  788MOL0     C 6261   9.176   9.519   9.445  0.1370  0.7365 -0.3500
  788MOL0     N 6262   9.316   9.475   9.482 -0.3051 -0.0715  0.3531
  788MOL0     C 6263   9.397   9.408   9.396 -0.5188 -0.4139  0.5089
  788MOL0     C 6264   9.497   9.356   9.469  0.5182 -0.1287 -0.6042
  788MOL0     C 6265   9.628   9.281   9.420  0.2934  0.5566  0.5276
  788MOL0     C 6266   9.593   9.178   9.311 -0.3606  0.0987  0.2464
  788MOL0     C 6267   9.554   9.038   9.363 -0.1110 -0.8183 -0.5217
  788MOL0     C 6268   9.438   9.041   9.461 -0.7937 -0.0829  0.0020
  788MOL0     O 6269   9.374   8.912   9.464 -0.3168  0.2292  0.4486
  788MOL0     C 6270   9.256   8.904   9.527  0.0118 -0.4540 -0.6205
  788MOL0     C 6271   9.222   8.994   9.631  0.1252 -0.0677  0.0580
  788MOL0     C 6272   9.097   8.984   9.705 -0.1512 -0.6031  0.3541
  788MOL0     C 6273   9.079   9.081   9.811  0.2375 -0.2067  0.0392
  788MOL0     C 6274   9.005   8.878   9.670 -0.1523  0.2167  0.0665
  788MOL0     C 6275   8.877   8.847   9.740 -0.2883  0.3422  0.3926
  788MOL0     O 6276   8.874   8.878   9.869  0.1851  0.5572  0.8092
  788MOL0     C 6277   8.780   8.834   9.955 -0.1125 -0.3808 -0.5950
  788MOL0     C 6278   8.743   8.699   9.972 -0.8140 -0.1949 -0.3533
  788MOL0     C 6279   8.635   8.670  10.058 -0.1066  0.8736 -0.4042
  788MOL0     C 6280   8.564   8.765  10.132 -1.3596 -0.2677 -0.8754
  788MOL0     O 6281   8.467   8.727  10.215 -0.4589  0.2998 -0.1551
  788MOL0     C 6282   8.429   8.808  10.314 -0.8834  0.2829  0.2932
  788MOL0     C 6283   8.359   8.724  10.418 -0.6339  0.3683 -1.2740
  788MOL0     C 6284   8.317   8.808  10.539 -0.3442 -0.0893 -0.5481
  788MOL0     C 6285   8.289   8.729  10.671  1.0981 -0.3997 -0.0768
  788MOL0     C 6286   8.229   8.828  10.773 -0.1933 -0.5276 -0.5725
  788MOL0     C 6287   8.203   8.762  10.909  0.1405  0.9589  0.0860
  788MOL0     C 6288   8.189   8.870  11.013  0.3174 -0.3186  0.3244
  788MOL0     C 6289   8.155   8.824  11.157 -0.6726  0.2040  0.4995
  788MOL0    Cl 6290   8.255   8.886  11.284  0.0550  0.1841  0.1683
  788MOL0     C 6291   8.598   8.897  10.110  0.3584 -0.4816  0.1457
  788MOL0     C 6292   8.705   8.936  10.021 -1.1665  0.1947  0.3709
  788MOL0     O 6293   8.796   8.781   9.677  0.0142 -0.1423 -0.0032
  788MOL0     C 6294   9.056   8.784   9.575 -0.1945  0.0971  0.5934
  788MOL0     C 6295   9.174   8.794   9.507  0.1063 -0.2275 -0.4911
  788MOL0     N 6296   9.481   9.399   9.598  1.3214  0.5620  0.0070
  788MOL0     N 6297   9.367   9.468   9.611  0.7314  0.0830  1.1052
  788MOL0     C 6298   8.760   9.251  10.302  0.0316  0.1443 -0.4253
  788MOL0     C 6299   8.678   9.225  10.409  0.7698 -0.6430 -0.2916
  788MOL0     C 6300   8.278   9.197  10.656 -0.4826  0.0551  0.2199
  788MOL0     C 6301   8.358   9.232  10.770  1.2170  0.9709 -0.0228
  788MOL0     C 6302   8.302   9.219  10.900  0.0826 -0.5895  0.0828
  788MOL0     C 6303   8.166   9.189  10.915  0.0985 -1.3567  0.2044
  788MOL0     O 6304   8.096   9.189  11.035  0.7132 -0.2848 -0.3611
  788MOL0     C 6305   8.166   9.227  11.146 -0.7641 -0.1957 -0.4668
  788MOL0     C 6306   8.077   9.224  11.271 -0.2601 -1.0083 -1.7254
  788MOL0     C 6307   7.955   9.319  11.268  0.5656  0.2477  0.2915
  788MOL0     C 6308   7.832   9.232  11.239  0.8142  1.0327 -0.1272
  788MOL0     C 6309   7.706   9.309  11.242 -0.4408  0.3066 -0.0713
  788MOL0     C 6310   7.602   9.372  11.254  0.0764  0.2365 -1.0319
  788MOL0     C 6311   8.088   9.161  10.801  0.2521 -0.5734 -0.4780
  788MOL0     C 6312   8.144   9.160  10.676  0.8903  0.3686  0.1574
  788MOL0     H 6313   8.378   9.298  10.274  0.4517  1.0882 -0.1995
  788MOL0     H 6314   8.534   9.336  10.076 -1.1843  0.5737  0.9087
  788MOL0     H 6315   8.763   9.489  10.048 -1.2477 -0.3089  2.1397
  788MOL0     H 6316   8.898   9.436  10.135 -1.5715 -0.2225  0.2118
  788MOL0     H 6317   9.028   9.384   9.963  0.6479 -1.2862 -4.0987
  788MOL0     H 6318   8.896   9.329   9.859  0.6307  0.8238 -1.4183
  788MOL0     H 6319   8.820   9.570   9.842  0.3130  1.2747 -0.8184
  788MOL0     H 6320   8.964   9.619   9.941  0.6021  0.3009 -1.7756
  788MOL0     H 6321   9.121   9.539   9.765  0.8052  0.6103 -1.2201
  788MOL0     H 6322   8.972   9.480   9.676  1.1565  0.2412 -0.3410
  788MOL0     H 6323   8.908   9.733   9.696  0.5214 -0.0219 -2.3292
  788MOL0     H 6324   9.087   9.758   9.695  0.2711  0.6809  1.1425
  788MOL0     H 6325   8.935   9.600   9.493  1.5571 -1.6591  2.0648
  788MOL0     H 6326   8.963   9.777   9.472 -0.4901 -1.9937 -4.0488
  788MOL0     H 6327   9.126   9.699   9.343  2.4793 -1.6773 -0.5646
  788MOL0     H 6328   9.212   9.728   9.491 -0.8339  0.8982 -1.1378
  788MOL0     H 6329   9.154   9.466   9.352 -1.1817 -0.5279  0.6293
  788MOL0     H 6330   9.109   9.478   9.522  1.8186  2.7549  2.3853
  788MOL0     H 6331   9.379   9.395   9.290 -0.1514  2.4128  0.0038
  788MOL0     H 6332   9.681   9.366   9.376 -0.9551 -0.1621 -2.6108
  788MOL0     H 6333   9.690   9.247   9.504  0.1016 -0.8533  0.1285
  788MOL0     H 6334   9.674   9.162   9.239 -2.0985 -2.5873 -1.2584
  788MOL0     H 6335   9.511   9.207   9.245 -1.2973  1.8929  2.0937
  788MOL0     H 6336   9.636   8.982   9.407  0.5952  1.6824  1.6239
  788MOL0     H 6337   9.513   8.991   9.273  1.7413  1.1190 -2.5084
  788MOL0     H 6338   9.369   9.121   9.433  0.1414  1.3704  1.7066
  788MOL0     H 6339   9.474   9.081   9.556  0.8817  2.5243 -1.6023
  788MOL0     H 6340   9.289   9.078   9.647  1.1894 -0.1828 -3.0657
  788MOL0     H 6341   9.123   9.043   9.903  2.3747 -2.0105 -1.6083
  788MOL0     H 6342   9.122   9.178   9.785 -0.5702  0.8058  2.2628
  788MOL0     H 6343   8.973   9.102   9.827  0.9018  1.5359  2.7464
  788MOL0     H 6344   8.797   8.621   9.920  0.2051  0.6195 -0.5443
  788MOL0     H 6345   8.598   8.570  10.079  1.7693  0.1235 -0.5094
  788MOL0     H 6346   8.512   8.855  10.366 -0.9359 -0.3217  0.9382
  788MOL0     H 6347   8.355   8.881  10.278 -3.0096 -0.7617  2.2925
  788MOL0     H 6348   8.269   8.681  10.374  0.6931 -1.8493 -2.0101
  788MOL0     H 6349   8.423   8.642  10.452 -2.4302 -0.3990  0.4474
  788MOL0     H 6350   8.237   8.874  10.505  0.2438  0.6879 -0.4536
  788MOL0     H 6351   8.396   8.880  10.563 -0.0610 -1.1034  1.8082
  788MOL0     H 6352   8.231   8.636  10.662  0.9820 -0.7049  2.8797
  788MOL0     H 6353   8.386   8.692  10.707  0.3182 -2.4267  0.1040
  788MOL0     H 6354   8.139   8.872  10.730 -0.1328 -1.3899 -1.6297
  788MOL0     H 6355   8.302   8.910  10.773  2.1695 -2.5312 -0.8148
  788MOL0     H 6356   8.101   8.724  10.898  0.7069 -0.3718 -0.9116
  788MOL0     H 6357   8.280   8.686  10.924 -1.1139 -0.6396 -1.1738
  788MOL0     H 6358   8.108   8.933  10.976  0.9334  1.3417  1.7114
  788MOL0     H 6359   8.280   8.930  11.010 -0.1774  0.4062 -0.6031
  788MOL0     H 6360   8.146   8.715  11.160 -3.9718  0.4112  0.7781
  788MOL0     H 6361   8.060   8.875  11.172 -2.0591 -1.9200 -0.6383
  788MOL0     H 6362   8.544   8.972  10.168 -1.7410 -2.1426  0.4318
  788MOL0     H 6363   8.743   9.037  10.003  1.6572 -0.6432  1.0571
  788MOL0     H 6364   8.992   8.697   9.561  0.4782 -0.1200 -1.5141
  788MOL0     H 6365   9.199   8.720   9.432 -2.0180 -1.7733  0.2032
  788MOL0     H 6366   8.866   9.229  10.305 -0.0517 -0.2838 -0.4214
  788MOL0     H 6367   8.721   9.206  10.507  2.0312  1.0927 -0.4731
  788MOL0     H 6368   8.464   9.250  10.763  1.3929 -0.1741 -0.5220
  788MOL0     H 6369   8.365   9.253  10.981 -1.4688 -0.4031  1.2794
  788MOL0     H 6370   8.245   9.155  11.170 -1.4172 -1.1257 -1.0311
  788MOL0     H 6371   8.213   9.323  11.122 -2.5312  0.2956 -2.2310
  788MOL0     H 6372   8.128   9.264  11.360 -0.0771 -1.9103 -1.4153
  788MOL0     H 6373   8.044   9.122  11.294  2.7586 -1.6803  0.2614
  788MOL0     H 6374   7.966   9.403  11.199 -1.9031  0.3136 -0.1437
  788MOL0     H 6375   7.944   9.349  11.372  0.0261  0.1059  0.2799
  788MOL0     H 6376   7.815   9.162  11.321 -1.5054 -1.9323 -2.9051
  788MOL0     H 6377   7.827   9.193  11.137 -2.2864  2.6746 -0.7237
  788MOL0     H 6378   7.510   9.426  11.260  0.6984  1.1920  0.3234
  788MOL0     H 6379   7.981   9.144  10.806  0.1939 -0.0946  0.0662
  788MOL0     H 6380   8.084   9.129  10.591  1.5489  0.5110 -0.3704
  789MOL0     O 6381   8.964   4.310   7.585 -0.1564  0.5266  0.1143
  789MOL0     C 6382   9.004   4.256   7.689  0.0612 -2.1517  1.3064
  789MOL0     O 6383   9.013   4.320   7.805  0.3657 -0.2097 -0.3610
  789MOL0     C 6384   8.977   4.447   7.821 -0.1528 -0.2303 -0.3878
  789MOL0     C 6385   8.854   4.506   7.774  0.9164 -0.6033  0.1834
  789MOL0     C 6386   8.800   4.624   7.823 -0.1040 -0.1375 -0.1417
  789MOL0     C 6387   8.873   4.707   7.912 -0.7780 -0.0176 -0.8005
  789MOL0     O 6388   8.803   4.824   7.942 -0.8473  0.0040 -0.3582
  789MOL0     C 6389   8.876   4.931   8.009  0.1679 -0.7904 -0.9804
  789MOL0     C 6390   8.795   5.045   8.053 -0.9683 -0.2698  0.0586
  789MOL0     C 6391   8.727   5.114   7.945 -0.0574  0.9534 -0.3553
  789MOL0     C 6392   8.681   5.254   7.973  0.1322  0.1321 -0.5436
  789MOL0     C 6393   8.571   5.305   7.892  0.2804 -0.6086  0.5316
  789MOL0     C 6394   8.580   5.299   7.732 -0.1326 -0.8510  0.1777
  789MOL0     C 6395   8.712   5.354   7.670 -0.0653 -0.5042 -0.1793
  789MOL0     C 6396   8.695   5.344   7.517  0.7657  0.6608  0.5750
  789MOL0     N 6397   8.816   5.404   7.474  0.1469  0.3229  1.0038
  789MOL0     C 6398   8.921   5.321   7.454 -0.3295 -0.2211 -1.0703
  789MOL0     C 6399   9.009   5.405   7.387 -0.2840 -0.4163 -0.6205
  789MOL0     C 6400   9.145   5.349   7.332 -0.0213 -0.3377 -0.0354
  789MOL0     C 6401   9.121   5.251   7.217 -0.2293 -0.0782  0.0046
  789MOL0     C 6402   9.257   5.189   7.168  0.3774  0.0029  0.3152
  789MOL0     C 6403   9.244   5.108   7.042  0.3722  0.4376 -0.4469
  789MOL0     O 6404   9.187   4.980   7.081  0.3013 -0.1507  0.2305
  789MOL0     C 6405   9.058   4.956   7.050 -0.1679  0.3732  0.2659
  789MOL0     C 6406   9.028   4.824   7.052  0.7340 -0.3958 -0.5526
  789MOL0     C 6407   8.901   4.770   7.008  0.2590 -0.0722 -0.7242
  789MOL0     C 6408   8.880   4.624   7.032  0.4396  0.4999  0.8310
  789MOL0     C 6409   8.800   4.856   6.965 -0.8576  1.0406  0.3348
  789MOL0     C 6410   8.662   4.807   6.933  0.3335  0.3908  0.9485
  789MOL0     O 6411   8.554   4.890   6.967  0.3992  0.9320 -0.6532
  789MOL0     C 6412   8.430   4.832   6.965  0.7895  0.6909 -0.3495
  789MOL0     C 6413   8.339   4.875   6.868 -0.1365 -0.0780 -0.3393
  789MOL0     C 6414   8.208   4.834   6.868  0.0310  1.2453 -0.1319
  789MOL0     C 6415   8.170   4.731   6.956 -0.1678 -0.1229 -0.4696
  789MOL0     O 6416   8.052   4.664   6.961  0.7499 -0.6477 -0.1728
  789MOL0     C 6417   7.968   4.656   6.847 -0.1006 -0.1706  0.1653
  789MOL0     C 6418   7.824   4.654   6.897 -0.4333  0.4318  0.5448
  789MOL0     C 6419   7.731   4.642   6.786  0.0630  0.2342 -0.7387
  789MOL0     C 6420   7.583   4.633   6.840  0.1743  0.0520  0.0229
  789MOL0     C 6421   7.501   4.640   6.722  0.2615 -0.4061 -0.3240
  789MOL0     C 6422   7.361   4.626   6.767 -0.3052 -0.6978  0.2887
  789MOL0     C 6423   7.249   4.642   6.656  0.4412 -0.2132  0.1879
  789MOL0     C 6424   7.131   4.544   6.678 -0.0846  0.4618 -0.4287
  789MOL0    Cl 6425   7.077   4.552   6.856 -0.5748 -0.2297 -0.0040
  789MOL0     C 6426   8.254   4.690   7.056  0.9452  0.2425 -0.0073
  789MOL0     C 6427   8.388   4.733   7.061  0.0307 -0.2976  0.2349
  789MOL0     O 6428   8.645   4.702   6.861  0.2629 -1.1096  0.1829
  789MOL0     C 6429   8.825   4.991   6.980  0.1878 -0.8403  0.4835
  789MOL0     C 6430   8.951   5.043   7.020  0.3835  0.2437 -1.1234
  789MOL0     N 6431   8.964   5.533   7.376  0.7237  0.3645 -0.2921
  789MOL0     N 6432   8.838   5.519   7.413 -0.1523 -0.1940  0.6598
  789MOL0     C 6433   9.007   4.656   7.943 -0.2894  0.4356  0.5073
  789MOL0     C 6434   9.052   4.533   7.892  0.5383  0.9817 -0.1160
  789MOL0     C 6435   9.037   4.115   7.696  0.2062 -0.0935 -0.0368
  789MOL0     C 6436   9.061   4.051   7.826 -0.0111  0.0694 -0.3182
  789MOL0     C 6437   9.082   3.914   7.836  0.2402  0.4238  0.3851
  789MOL0     C 6438   9.069   3.840   7.716  0.7539 -0.3107 -0.3122
  789MOL0     O 6439   9.090   3.709   7.723 -0.7841 -0.2231  0.1693
  789MOL0     C 6440   8.990   3.640   7.802 -0.1568 -0.5625 -0.1459
  789MOL0     C 6441   9.016   3.491   7.789 -0.1866 -0.0199  0.4565
  789MOL0     C 6442   9.134   3.452   7.881 -0.1985  0.5132  0.1825
  789MOL0     C 6443   9.208   3.325   7.825  1.1707 -0.6632  1.1427
  789MOL0     C 6444   9.329   3.310   7.913  0.5272  0.3660  0.6578
  789MOL0     C 6445   9.431   3.302   7.979 -0.8287  0.2339  0.5689
  789MOL0     C 6446   9.022   3.893   7.600 -1.2439 -0.3115 -1.5688
  789MOL0     C 6447   9.008   4.032   7.591  0.2291  0.8067  0.5022
  789MOL0     H 6448   8.800   4.454   7.695  1.8916  1.4089 -1.9347
  789MOL0     H 6449   8.701   4.666   7.803 -0.5863 -1.7094 -1.2572
  789MOL0     H 6450   8.931   4.908   8.101  2.2501  3.2577 -1.0205
  789MOL0     H 6451   8.950   4.974   7.941 -0.6555  3.0365  0.2981
  789MOL0     H 6452   8.726   5.009   8.130 -0.6838 -2.8891 -0.7912
  789MOL0     H 6453   8.868   5.107   8.106 -0.1423 -1.6512  0.5817
  789MOL0     H 6454   8.800   5.137   7.868 -0.7797  1.1368 -0.9908
  789MOL0     H 6455   8.647   5.055   7.899 -0.0175  3.6231 -4.2732
  789MOL0     H 6456   8.641   5.253   8.075 -1.2653 -4.0147 -0.9499
  789MOL0     H 6457   8.760   5.330   7.961 -2.1504  2.3112 -3.1592
  789MOL0     H 6458   8.476   5.262   7.926  0.6467 -1.1440  0.9010
  789MOL0     H 6459   8.551   5.407   7.923 -0.9289 -1.0401  1.2201
  789MOL0     H 6460   8.565   5.196   7.699 -0.8993 -0.9492  0.7895
  789MOL0     H 6461   8.504   5.363   7.686  2.7088  0.7096 -2.7036
  789MOL0     H 6462   8.727   5.455   7.711 -5.0928  1.1956 -1.8076
  789MOL0     H 6463   8.797   5.288   7.691  2.9753  2.9059 -0.5216
  789MOL0     H 6464   8.611   5.408   7.489  1.6899  2.3230  1.4244
  789MOL0     H 6465   8.682   5.239   7.490 -0.6829  1.3120 -1.5048
  789MOL0     H 6466   8.934   5.215   7.474 -2.7724 -0.6323 -1.3653
  789MOL0     H 6467   9.192   5.439   7.292 -0.8345  0.7390  1.3069
  789MOL0     H 6468   9.197   5.300   7.415 -4.8083 -0.4973  3.3012
  789MOL0     H 6469   9.073   5.302   7.133  0.9488  0.0292 -0.6167
  789MOL0     H 6470   9.058   5.170   7.255 -0.8536 -0.5137 -1.8491
  789MOL0     H 6471   9.306   5.129   7.245  2.2721  1.5298  0.3935
  789MOL0     H 6472   9.325   5.273   7.147 -1.4252  1.9203  1.6817
  789MOL0     H 6473   9.340   5.096   6.992  1.2695  2.4848  0.6846
  789MOL0     H 6474   9.176   5.156   6.972  0.5996  1.0172 -0.2779
  789MOL0     H 6475   9.095   4.753   7.100 -1.7050 -0.8138  2.5300
  789MOL0     H 6476   8.958   4.577   7.092  0.7085 -1.2025 -0.7690
  789MOL0     H 6477   8.786   4.603   7.085  0.4637 -0.1018  0.6396
  789MOL0     H 6478   8.882   4.574   6.935  1.5180 -0.7316  1.4591
  789MOL0     H 6479   8.376   4.953   6.802 -1.3779 -0.3295 -1.3612
  789MOL0     H 6480   8.152   4.875   6.785 -1.8533  1.9427  1.4141
  789MOL0     H 6481   7.979   4.748   6.789  1.1437 -0.4285 -0.0269
  789MOL0     H 6482   7.998   4.580   6.773 -2.1784  2.2264 -3.4738
  789MOL0     H 6483   7.808   4.583   6.979 -0.3121  2.0860  2.0739
  789MOL0     H 6484   7.806   4.750   6.946 -0.7464 -1.3067  4.1804
  789MOL0     H 6485   7.741   4.555   6.720  0.3489 -1.7847  1.7735
  789MOL0     H 6486   7.737   4.737   6.732  0.9040  0.6101  0.0037
  789MOL0     H 6487   7.570   4.538   6.893  0.2914  0.9074  1.6811
  789MOL0     H 6488   7.572   4.718   6.908 -0.2591  1.9427 -2.3041
  789MOL0     H 6489   7.521   4.563   6.647 -2.0171 -2.3288  0.9037
  789MOL0     H 6490   7.514   4.740   6.678 -2.3281  0.1714  0.0045
  789MOL0     H 6491   7.353   4.533   6.825 -0.1542 -0.6923  0.3206
  789MOL0     H 6492   7.327   4.693   6.847 -3.8779 -2.1503  0.1501
  789MOL0     H 6493   7.293   4.626   6.558  1.0987 -0.9046  0.5845
  789MOL0     H 6494   7.211   4.745   6.652 -0.7132 -0.6703 -1.6711
  789MOL0     H 6495   7.158   4.444   6.645  0.6274 -0.2763  2.1225
  789MOL0     H 6496   7.053   4.592   6.619  2.3534 -0.1101 -4.4880
  789MOL0     H 6497   8.221   4.609   7.120  2.6529 -2.1788 -1.9904
  789MOL0     H 6498   8.454   4.692   7.137  0.4006 -2.2967 -1.0627
  789MOL0     H 6499   8.749   5.067   6.962 -0.8303 -1.2290  2.8244
  789MOL0     H 6500   8.963   5.150   7.029 -1.7520  0.3443  3.6879
  789MOL0     H 6501   9.075   4.722   7.995 -0.3566  1.8586 -1.1193
  789MOL0     H 6502   9.148   4.488   7.916 -0.2592 -0.9634 -0.3446
  789MOL0     H 6503   9.084   4.107   7.917  0.2327 -1.8876  0.8963
  789MOL0     H 6504   9.102   3.857   7.926 -1.2204 -1.3100 -0.3256
  789MOL0     H 6505   8.995   3.664   7.908 -2.0269 -0.1577 -0.1220
  789MOL0     H 6506   8.895   3.674   7.759 -0.3876  1.7269  1.9527
  789MOL0     H 6507   9.032   3.462   7.684 -5.6218  0.9851 -0.9663
  789MOL0     H 6508   8.926   3.433   7.814  1.9705 -2.6712  2.6198
  789MOL0     H 6509   9.104   3.436   7.985 -2.2759 -0.5448 -0.5212
  789MOL0     H 6510   9.213   3.529   7.882  2.1428 -1.7018 -1.3769
  789MOL0     H 6511   9.246   3.350   7.726  1.8925 -0.4423  1.4738
  789MOL0     H 6512   9.136   3.242   7.817  1.0260 -0.4445 -0.0029
  789MOL0     H 6513   9.520   3.300   8.038 -0.7941  1.3865  0.5696
  789MOL0     H 6514   9.001   3.819   7.524 -2.5198 -3.2217  1.3574
  789MOL0     H 6515   8.958   4.067   7.502  1.9571  0.9656 -0.4586
  790MOL0     O 6516   2.691   2.471   5.782 -0.7496 -0.0202 -0.0351
  790MOL0     C 6517   2.817   2.486   5.791  0.1398 -0.3785  0.7747
  790MOL0     O 6518   2.887   2.501   5.903 -0.3267 -0.3230 -0.0631
  790MOL0     C 6519   2.824   2.464   6.018 -0.1883 -1.0382  0.0658
  790MOL0     C 6520   2.702   2.516   6.069 -0.8714  0.1556  0.1203
  790MOL0     C 6521   2.656   2.477   6.198 -1.2349 -0.0115  0.1182
  790MOL0     C 6522   2.728   2.369   6.265  0.0891  0.4498 -0.3483
  790MOL0     O 6523   2.694   2.339   6.392  0.4441  0.4648 -0.0215
  790MOL0     C 6524   2.563   2.358   6.437  0.4713 -0.8536  0.5460
  790MOL0     C 6525   2.537   2.243   6.537  0.8921 -0.7841  0.5928
  790MOL0     C 6526   2.596   2.262   6.676 -0.1143  0.1397  0.0802
  790MOL0     C 6527   2.506   2.215   6.797  0.3414 -0.4480  0.0442
  790MOL0     C 6528   2.417   2.328   6.842 -0.0072  0.0753  0.6184
  790MOL0     C 6529   2.330   2.293   6.965 -0.3893 -0.0617  0.1073
  790MOL0     C 6530   2.262   2.416   7.017  0.1170 -0.0902 -0.6187
  790MOL0     C 6531   2.173   2.371   7.128 -0.6984 -1.3611 -0.5873
  790MOL0     N 6532   2.093   2.484   7.180 -0.0672  0.3798  0.6600
  790MOL0     C 6533   1.965   2.505   7.137 -0.5033 -0.8764  0.2098
  790MOL0     C 6534   1.927   2.604   7.219  0.5535  1.1206  0.0581
  790MOL0     C 6535   1.785   2.653   7.213 -0.7857  0.0678  0.4848
  790MOL0     C 6536   1.786   2.803   7.245  0.2057  0.2233  0.0703
  790MOL0     C 6537   1.639   2.863   7.241 -0.6965  0.2048 -0.2879
  790MOL0     C 6538   1.630   2.989   7.334  0.3005  0.1833  0.0284
  790MOL0     O 6539   1.679   3.107   7.259 -0.5782  0.0994 -0.5687
  790MOL0     C 6540   1.592   3.173   7.183  0.1155  0.1148  0.4065
  790MOL0     C 6541   1.468   3.127   7.133  0.2863 -0.2970  0.6644
  790MOL0     C 6542   1.377   3.205   7.048 -0.1004 -0.7309  0.8102
  790MOL0     C 6543   1.243   3.148   7.014 -0.4045  0.0782 -0.0084
  790MOL0     C 6544   1.416   3.337   7.005  0.3129  0.1383  0.1071
  790MOL0     C 6545   1.336   3.411   6.903 -0.2601 -0.1110  0.3176
  790MOL0     O 6546   1.261   3.340   6.825  0.0527 -0.2776  0.0364
  790MOL0     C 6547   1.204   3.384   6.710  0.3131  0.0540  0.5227
  790MOL0     C 6548   1.121   3.278   6.661 -0.4834 -0.4455  0.2299
  790MOL0     C 6549   1.075   3.291   6.531  0.2762  0.8520 -1.2555
  790MOL0     C 6550   1.090   3.408   6.456 -0.1429 -0.0564  0.4789
  790MOL0     O 6551   1.034   3.408   6.333  0.3886  0.6858 -0.0023
  790MOL0     C 6552   0.951   3.527   6.302 -1.0156  0.1416 -0.0688
  790MOL0     C 6553   0.857   3.500   6.180 -0.8718  0.0584  0.1049
  790MOL0     C 6554   0.941   3.452   6.061  0.5348  0.5696  0.0705
  790MOL0     C 6555   0.857   3.445   5.933  0.2878 -0.4868 -0.5480
  790MOL0     C 6556   0.726   3.372   5.955  0.7518  0.1563  0.2131
  790MOL0     C 6557   0.657   3.343   5.817  0.2474  0.2752 -0.9979
  790MOL0     C 6558   0.520   3.277   5.843 -0.7791 -0.8814  0.5317
  790MOL0     C 6559   0.468   3.239   5.701 -0.7179  0.4233 -0.4654
  790MOL0    Cl 6560   0.475   3.373   5.589  0.4035  0.1497  0.6467
  790MOL0     C 6561   1.153   3.518   6.516  0.3012 -0.4775  0.0782
  790MOL0     C 6562   1.219   3.501   6.642  0.7165 -0.0080 -0.0709
  790MOL0     O 6563   1.345   3.535   6.903  0.1539 -0.7450 -0.5108
  790MOL0     C 6564   1.540   3.388   7.056 -1.1280 -0.0186  0.8438
  790MOL0     C 6565   1.624   3.304   7.136  0.4380 -0.0890 -0.7048
  790MOL0     N 6566   2.013   2.627   7.318  0.5986 -1.0665 -0.0259
  790MOL0     N 6567   2.115   2.557   7.291  0.5944 -0.2597  0.0664
  790MOL0     C 6568   2.832   2.309   6.201  0.0646 -0.2646  0.0207
  790MOL0     C 6569   2.881   2.365   6.085 -1.0362  0.3050 -0.9041
  790MOL0     C 6570   2.889   2.520   5.659  0.5811 -0.5356 -0.0596
  790MOL0     C 6571   2.811   2.529   5.540  0.1169 -0.4578 -0.0966
  790MOL0     C 6572   2.867   2.553   5.427  0.0118  0.8642 -0.0687
  790MOL0     C 6573   3.004   2.587   5.411  0.8495  0.3933  0.0977
  790MOL0     O 6574   3.058   2.617   5.293  0.3588 -0.6568  0.0525
  790MOL0     C 6575   3.016   2.561   5.167 -0.1697  0.6863 -0.3186
  790MOL0     C 6576   3.144   2.530   5.092  0.2259  0.2979 -0.3389
  790MOL0     C 6577   3.129   2.439   4.971  0.0144  0.0087  0.3624
  790MOL0     C 6578   3.115   2.295   5.007 -0.2595  0.1296  0.8212
  790MOL0     C 6579   3.015   2.239   4.918 -0.6711  0.4464 -0.3245
  790MOL0     C 6580   2.939   2.206   4.837  0.9049  0.0055  0.0744
  790MOL0     C 6581   3.083   2.588   5.529 -0.0705  0.5010 -0.4335
  790MOL0     C 6582   3.030   2.552   5.652  0.9148 -0.8896  0.0067
  790MOL0     H 6583   2.652   2.598   6.019  0.7900  1.7438  0.9204
  790MOL0     H 6584   2.574   2.535   6.239 -1.5548  0.7159 -1.4873
  790MOL0     H 6585   2.552   2.453   6.491  1.9720 -0.3362 -0.0014
  790MOL0     H 6586   2.483   2.344   6.364  0.6710 -3.6413  0.7877
  790MOL0     H 6587   2.429   2.247   6.554  1.2829  2.1860  3.2687
  790MOL0     H 6588   2.567   2.144   6.503 -0.3702 -1.2787  0.8562
  790MOL0     H 6589   2.692   2.211   6.686  1.3683  2.7137 -0.1247
  790MOL0     H 6590   2.626   2.365   6.697  0.1677  0.7423 -2.8277
  790MOL0     H 6591   2.456   2.122   6.769 -1.0930  0.0234  0.9513
  790MOL0     H 6592   2.573   2.180   6.876  0.5618 -1.8472 -0.7326
  790MOL0     H 6593   2.491   2.404   6.869 -0.1179  1.1817 -1.9074
  790MOL0     H 6594   2.347   2.361   6.764 -1.2799 -2.4925  0.5761
  790MOL0     H 6595   2.257   2.213   6.950  0.2848 -0.8445  0.8465
  790MOL0     H 6596   2.402   2.275   7.045  1.6278 -0.2876 -1.6514
  790MOL0     H 6597   2.330   2.496   7.047  2.9119 -1.8361 -1.9481
  790MOL0     H 6598   2.199   2.452   6.936 -0.1015 -0.5582 -0.6641
  790MOL0     H 6599   2.235   2.339   7.212 -1.5009 -0.6029  0.3313
  790MOL0     H 6600   2.109   2.290   7.093  0.6437 -1.8717 -1.9683
  790MOL0     H 6601   1.918   2.445   7.060 -1.4764 -0.7041  0.6644
  790MOL0     H 6602   1.751   2.641   7.110  2.1929 -0.3696 -0.5367
  790MOL0     H 6603   1.717   2.599   7.280  0.8896 -1.9567  0.6360
  790MOL0     H 6604   1.838   2.849   7.161 -2.2648  3.7165  0.2238
  790MOL0     H 6605   1.834   2.829   7.340  1.4413  0.7196 -0.6656
  790MOL0     H 6606   1.569   2.796   7.291  0.5503  0.9093  2.6531
  790MOL0     H 6607   1.615   2.874   7.135  1.0307 -2.7436 -1.1206
  790MOL0     H 6608   1.687   2.984   7.427  2.6240 -0.9559 -1.3451
  790MOL0     H 6609   1.527   3.010   7.363  0.9907  1.7556  1.4848
  790MOL0     H 6610   1.426   3.034   7.167  1.9448 -0.5988  1.9755
  790MOL0     H 6611   1.171   3.228   6.996 -0.5172  0.2675  1.2152
  790MOL0     H 6612   1.256   3.083   6.927 -1.2577 -0.8972  0.5704
  790MOL0     H 6613   1.212   3.082   7.095  0.0764  0.7717  0.7510
  790MOL0     H 6614   1.119   3.189   6.722  0.0490 -0.1920  0.6225
  790MOL0     H 6615   1.032   3.197   6.498 -0.9460  1.5206 -1.5973
  790MOL0     H 6616   0.895   3.557   6.392 -1.1758 -3.0655  1.0321
  790MOL0     H 6617   1.017   3.608   6.270 -1.9691  0.9479 -0.0391
  790MOL0     H 6618   0.767   3.441   6.203 -2.6389  1.8289 -1.8058
  790MOL0     H 6619   0.815   3.596   6.150  3.1440  1.1266 -3.0579
  790MOL0     H 6620   0.972   3.351   6.089 -2.9520 -1.3920 -2.4406
  790MOL0     H 6621   1.014   3.530   6.038 -0.7466  0.9231 -3.4591
  790MOL0     H 6622   0.832   3.547   5.901  0.0231  0.8077  3.2887
  790MOL0     H 6623   0.912   3.384   5.860 -2.8293 -5.5205  0.8244
  790MOL0     H 6624   0.654   3.428   6.016  0.2758 -0.6773  0.4250
  790MOL0     H 6625   0.739   3.278   6.008 -1.6988  1.1873  2.9531
  790MOL0     H 6626   0.641   3.436   5.762 -1.3572  1.6737  1.6400
  790MOL0     H 6627   0.717   3.273   5.758 -1.2053 -1.3708 -0.6071
  790MOL0     H 6628   0.447   3.351   5.877 -2.0250 -1.5306 -0.6240
  790MOL0     H 6629   0.520   3.202   5.923 -1.6193  0.9545  2.3737
  790MOL0     H 6630   0.363   3.212   5.714 -0.8766  0.9089 -0.6943
  790MOL0     H 6631   0.533   3.155   5.674  3.1160  2.7174  0.7416
  790MOL0     H 6632   1.150   3.611   6.459 -2.4760 -0.7194 -0.3003
  790MOL0     H 6633   1.289   3.580   6.669 -0.7819  1.7502 -1.1520
  790MOL0     H 6634   1.570   3.489   7.030  0.2654 -0.8803 -1.1892
  790MOL0     H 6635   1.715   3.344   7.179  0.5136 -1.4949  0.5276
  790MOL0     H 6636   2.898   2.230   6.234  1.8062  0.9894 -0.3552
  790MOL0     H 6637   2.979   2.337   6.047 -0.7350  1.4697 -1.0160
  790MOL0     H 6638   2.705   2.510   5.533  0.3880 -2.5236  0.5294
  790MOL0     H 6639   2.819   2.546   5.330  1.0846 -0.5581 -0.5200
  790MOL0     H 6640   2.972   2.462   5.181 -0.4966  1.0749  1.7681
  790MOL0     H 6641   2.951   2.622   5.104 -2.0377 -2.6152 -1.8263
  790MOL0     H 6642   3.216   2.481   5.159  1.9320 -0.3107 -2.5327
  790MOL0     H 6643   3.197   2.625   5.080  1.5777 -0.4130 -0.1642
  790MOL0     H 6644   3.218   2.448   4.908  0.9058  0.5471  1.6428
  790MOL0     H 6645   3.038   2.471   4.920 -0.2368 -2.9824 -1.2350
  790MOL0     H 6646   3.077   2.269   5.106 -1.5858  1.8855  0.8235
  790MOL0     H 6647   3.206   2.235   5.001 -0.4069 -0.4453  3.2127
  790MOL0     H 6648   2.869   2.185   4.758  3.2781 -5.9526 -0.9436
  790MOL0     H 6649   3.187   2.615   5.518 -0.5180  2.4440 -0.2091
  790MOL0     H 6650   3.083   2.565   5.745 -2.9830 -0.2655  2.3462
  791MOL0     O 6651   0.780   4.118  10.346  0.2396 -1.0780  0.1916
  791MOL0     C 6652   0.871   4.159  10.274  0.8710 -0.7536  0.9950
  791MOL0     O 6653   0.850   4.260  10.181 -0.3616  0.3686 -0.5452
  791MOL0     C 6654   0.741   4.343  10.191  0.2185  0.3592 -0.7181
  791MOL0     C 6655   0.745   4.454  10.284  0.0514  1.3663 -0.4949
  791MOL0     C 6656   0.636   4.545  10.294  0.4186 -0.5053  0.4109
  791MOL0     C 6657   0.517   4.519  10.213  1.4618  0.0847  0.1383
  791MOL0     O 6658   0.413   4.602  10.217 -0.8408  0.1255  0.3104
  791MOL0     C 6659   0.425   4.735  10.263 -0.5078 -0.8219  0.8894
  791MOL0     C 6660   0.527   4.834  10.184  1.3424  0.3515 -0.3132
  791MOL0     C 6661   0.496   4.853  10.044  0.1701 -0.1107  0.0840
  791MOL0     C 6662   0.371   4.939  10.034  0.7400  0.1434 -0.4592
  791MOL0     C 6663   0.331   4.984   9.899 -0.5359  0.0473  0.1053
  791MOL0     C 6664   0.194   5.054   9.904 -0.1627 -0.4641  0.1184
  791MOL0     C 6665   0.137   5.104   9.769 -0.1112  0.2453  0.1624
  791MOL0     C 6666   0.108   4.997   9.655  0.2409 -0.1087  0.2544
  791MOL0     N 6667  -0.027   4.938   9.656 -0.3605 -0.6076 -0.2873
  791MOL0     C 6668  -0.056   4.818   9.698 -0.3072 -0.1662  1.2126
  791MOL0     C 6669  -0.186   4.802   9.679 -0.2396 -1.2915  0.4559
  791MOL0     C 6670  -0.241   4.672   9.705 -0.1457  0.1172 -0.2318
  791MOL0     C 6671  -0.300   4.649   9.845  0.4650  0.2216  0.3173
  791MOL0     C 6672  -0.342   4.500   9.851  0.2509 -0.1316  0.4993
  791MOL0     C 6673  -0.424   4.465   9.982 -1.0693  0.9968 -0.2526
  791MOL0     O 6674  -0.543   4.538   9.968 -1.0938  0.6210 -0.2146
  791MOL0     C 6675  -0.655   4.466   9.988 -0.2955  0.0055 -0.6524
  791MOL0     C 6676  -0.759   4.498   9.905  0.1093  0.0539  0.3146
  791MOL0     C 6677  -0.893   4.458   9.918 -0.7069 -0.2533 -0.5404
  791MOL0     C 6678  -1.008   4.523   9.835 -0.0362  0.2133  0.4268
  791MOL0     C 6679  -0.917   4.367  10.023 -0.3589  0.3427 -0.4565
  791MOL0     C 6680  -1.057   4.315  10.056 -0.1166 -0.4182  0.3664
  791MOL0     O 6681  -1.074   4.281  10.188  0.8857  0.2504 -0.5913
  791MOL0     C 6682  -1.188   4.206  10.220  0.9461  1.1752  0.4826
  791MOL0     C 6683  -1.320   4.259  10.209  0.0635 -0.0911 -0.3614
  791MOL0     C 6684  -1.430   4.184  10.252  0.8311  0.3857  1.1161
  791MOL0     C 6685  -1.414   4.061  10.320  0.1964 -0.0880  0.1390
  791MOL0     O 6686  -1.527   3.981  10.352 -0.1262 -0.4524  0.6130
  791MOL0     C 6687  -1.659   4.039  10.366 -0.0135 -0.1631 -0.4489
  791MOL0     C 6688  -1.721   3.952  10.479  0.5407 -0.1995 -0.5740
  791MOL0     C 6689  -1.846   4.016  10.535  0.6962  0.4327  0.3466
  791MOL0     C 6690  -1.932   3.917  10.624 -0.7765 -0.4916  0.5287
  791MOL0     C 6691  -2.063   3.991  10.657  0.1222 -0.1615 -0.6434
  791MOL0     C 6692  -2.168   3.904  10.740 -0.1982  0.6229 -0.1655
  791MOL0     C 6693  -2.319   3.943  10.719 -0.0069  0.2563  0.3778
  791MOL0     C 6694  -2.408   3.844  10.797 -0.1169 -0.7829  0.1548
  791MOL0    Cl 6695  -2.579   3.860  10.770  0.2788  0.0815 -0.0811
  791MOL0     C 6696  -1.287   4.005  10.333 -0.7630  0.3606  0.9583
  791MOL0     C 6697  -1.177   4.078  10.277  0.1601  0.5455  0.0908
  791MOL0     O 6698  -1.127   4.288   9.961  0.3005  0.2412 -0.7955
  791MOL0     C 6699  -0.816   4.329  10.110  0.9332 -0.1517  0.5615
  791MOL0     C 6700  -0.682   4.373  10.091 -0.1597  0.4428  0.1272
  791MOL0     N 6701  -0.232   4.919   9.622  0.4592 -0.7070  0.4252
  791MOL0     N 6702  -0.135   4.989   9.592 -0.3237 -0.1855  0.2949
  791MOL0     C 6703   0.517   4.419  10.127  0.4434 -0.8924  0.2170
  791MOL0     C 6704   0.626   4.334  10.116 -0.0823  0.2433  0.4862
  791MOL0     C 6705   1.016   4.116  10.315 -0.6041 -0.3961 -0.6544
  791MOL0     C 6706   1.127   4.181  10.255  0.4374  0.4949  1.1418
  791MOL0     C 6707   1.252   4.150  10.298 -0.1603  0.0050 -0.2985
  791MOL0     C 6708   1.274   4.070  10.405 -0.6444 -0.1800 -0.7150
  791MOL0     O 6709   1.405   4.047  10.439 -0.7290  0.0252 -0.2000
  791MOL0     C 6710   1.454   3.998  10.567 -0.8358  0.3954  0.3597
  791MOL0     C 6711   1.607   3.985  10.547 -0.0104  0.7515  0.3596
  791MOL0     C 6712   1.670   3.927  10.673 -0.4583 -0.2988 -1.0038
  791MOL0     C 6713   1.820   3.965  10.662 -0.2317 -0.0894  0.0188
  791MOL0     C 6714   1.832   4.103  10.701  0.5684 -0.6047 -0.5073
  791MOL0     C 6715   1.832   4.216  10.746  1.0932 -0.3171 -0.4324
  791MOL0     C 6716   1.165   4.004  10.466  0.0823 -1.5070 -0.2676
  791MOL0     C 6717   1.035   4.029  10.422  0.2362 -0.7526  0.1677
  791MOL0     H 6718   0.831   4.468  10.349  0.3025 -1.4227 -0.1155
  791MOL0     H 6719   0.649   4.635  10.353  1.2851  2.1615 -3.4607
  791MOL0     H 6720   0.326   4.781  10.264 -0.4253 -0.6247  0.4446
  791MOL0     H 6721   0.452   4.742  10.368  0.3023  0.3599  0.6281
  791MOL0     H 6722   0.528   4.931  10.235 -2.4698  1.2814 -1.6512
  791MOL0     H 6723   0.630   4.799  10.187  1.3320  0.2737 -0.8166
  791MOL0     H 6724   0.580   4.912  10.006 -0.8993  2.9862  2.1475
  791MOL0     H 6725   0.466   4.760   9.995  1.4013  0.1112 -1.1575
  791MOL0     H 6726   0.291   4.873  10.068 -0.0288  0.5306 -1.4283
  791MOL0     H 6727   0.376   5.020  10.107  0.1743 -0.4145  0.2140
  791MOL0     H 6728   0.402   5.051   9.850  0.5094 -1.1657 -0.0777
  791MOL0     H 6729   0.323   4.892   9.840  0.6472 -0.2469  0.3941
  791MOL0     H 6730   0.127   4.996   9.968  1.3088  0.1529  2.3651
  791MOL0     H 6731   0.206   5.152   9.951  1.8801  0.3820 -1.9966
  791MOL0     H 6732   0.043   5.147   9.805 -0.2785  2.5220 -2.6176
  791MOL0     H 6733   0.203   5.183   9.731  3.2833 -0.7079  3.4004
  791MOL0     H 6734   0.184   4.918   9.661 -1.0387 -1.4579 -0.7599
  791MOL0     H 6735   0.123   5.047   9.559  1.4218 -0.6503  0.1382
  791MOL0     H 6736   0.012   4.756   9.756  0.2779  0.6845  1.4463
  791MOL0     H 6737  -0.319   4.647   9.633 -0.7614 -0.7236  0.7103
  791MOL0     H 6738  -0.170   4.592   9.683 -0.3378  0.5996 -3.1157
  791MOL0     H 6739  -0.389   4.711   9.862  1.6167  2.8928 -2.4280
  791MOL0     H 6740  -0.231   4.667   9.927  1.4808  0.3256 -0.5453
  791MOL0     H 6741  -0.251   4.440   9.861 -0.4195 -0.8989  2.5788
  791MOL0     H 6742  -0.408   4.474   9.767  1.2687 -2.9524  0.4776
  791MOL0     H 6743  -0.377   4.498  10.075  0.6612  0.4352 -0.8807
  791MOL0     H 6744  -0.427   4.356   9.985  0.8862  0.9226  0.6774
  791MOL0     H 6745  -0.734   4.574   9.832 -0.1838 -1.6617 -1.6583
  791MOL0     H 6746  -0.970   4.612   9.784  2.9875 -2.3226 -2.1936
  791MOL0     H 6747  -1.034   4.447   9.760  1.3008 -0.0572  0.2117
  791MOL0     H 6748  -1.086   4.561   9.901  2.6054  2.6038  2.4045
  791MOL0     H 6749  -1.321   4.358  10.164 -0.6955 -0.6156 -1.5660
  791MOL0     H 6750  -1.523   4.226  10.216 -0.7700 -0.1825  4.2554
  791MOL0     H 6751  -1.672   4.145  10.389 -4.2221 -0.1422 -2.0245
  791MOL0     H 6752  -1.716   4.029  10.273  0.1527  0.4221 -0.6119
  791MOL0     H 6753  -1.747   3.852  10.443  2.2153 -1.7700  2.2729
  791MOL0     H 6754  -1.646   3.950  10.558  1.7699  0.9764 -1.6662
  791MOL0     H 6755  -1.912   4.046  10.453  0.9257 -1.1706 -0.4774
  791MOL0     H 6756  -1.816   4.108  10.586 -0.9594 -0.1748  2.5545
  791MOL0     H 6757  -1.954   3.823  10.573 -1.3447 -0.3036  0.4154
  791MOL0     H 6758  -1.880   3.885  10.714  0.0955  0.5133  0.4000
  791MOL0     H 6759  -2.112   4.011  10.561  0.0385 -1.2975 -0.8452
  791MOL0     H 6760  -2.043   4.080  10.718 -1.7504  0.1142 -0.3962
  791MOL0     H 6761  -2.151   3.799  10.716 -1.7620  0.1952  0.4841
  791MOL0     H 6762  -2.145   3.916  10.846 -1.9495 -1.7911  0.5618
  791MOL0     H 6763  -2.334   3.949  10.611  0.8341  1.4994  0.3099
  791MOL0     H 6764  -2.327   4.046  10.754 -1.9363 -0.2493  1.5760
  791MOL0     H 6765  -2.389   3.868  10.902  0.3817  0.2802 -0.1589
  791MOL0     H 6766  -2.389   3.741  10.769 -1.5734 -0.7122 -1.2295
  791MOL0     H 6767  -1.274   3.904  10.369  0.6119 -0.7672 -2.3673
  791MOL0     H 6768  -1.077   4.038  10.293 -0.5820 -2.1095 -1.3128
  791MOL0     H 6769  -0.851   4.249  10.174 -2.7675  0.5668 -0.3363
  791MOL0     H 6770  -0.607   4.312  10.142 -1.4973 -1.1087  0.2913
  791MOL0     H 6771   0.421   4.393  10.082  0.0655  0.9664 -0.1334
  791MOL0     H 6772   0.616   4.259  10.038 -3.0087  2.2096 -1.2314
  791MOL0     H 6773   1.112   4.239  10.165 -4.5131  0.2517  1.5202
  791MOL0     H 6774   1.338   4.181  10.239 -1.1669  1.0828 -1.2449
  791MOL0     H 6775   1.423   4.063  10.649 -0.8669  1.0750 -0.1819
  791MOL0     H 6776   1.419   3.894  10.577 -0.1881  0.1015 -0.3051
  791MOL0     H 6777   1.650   4.082  10.518  2.9674 -0.3269  0.8259
  791MOL0     H 6778   1.629   3.912  10.469  1.1991  1.5935 -0.1360
  791MOL0     H 6779   1.658   3.819  10.683  2.0558 -0.3741  4.3085
  791MOL0     H 6780   1.620   3.958  10.765 -1.2741 -4.2019  0.0490
  791MOL0     H 6781   1.866   3.936  10.567  0.3270 -1.7921  0.7810
  791MOL0     H 6782   1.868   3.903  10.738  1.4979 -1.4976 -2.1135
  791MOL0     H 6783   1.830   4.316  10.783  1.9673 -0.7045  0.7107
  791MOL0     H 6784   1.181   3.927  10.540 -0.9952 -0.4755  1.0965
  791MOL0     H 6785   0.958   3.969  10.468 -0.2770  1.1191  1.8762
  792MOL0     O 6786   5.084  11.370   5.756  0.2785 -0.0885 -0.2123
  792MOL0     C 6787   4.987  11.297   5.758  0.0636  0.3386  0.2436
  792MOL0     O 6788   4.978  11.174   5.709  0.3834  0.1516  0.2059
  792MOL0     C 6789   5.090  11.103   5.667 -0.4419 -0.1373 -0.2534
  792MOL0     C 6790   5.215  11.086   5.733  1.7233 -1.5860  0.4166
  792MOL0     C 6791   5.314  11.015   5.671  0.0616  0.4564 -0.4362
  792MOL0     C 6792   5.297  10.944   5.554  0.1058  1.1397 -0.2940
  792MOL0     O 6793   5.409  10.868   5.513 -0.4493  0.1345  0.2092
  792MOL0     C 6794   5.404  10.794   5.396 -0.4023 -0.1605 -0.2118
  792MOL0     C 6795   5.361  10.650   5.426  0.2208  0.1221  0.2046
  792MOL0     C 6796   5.221  10.615   5.356 -0.1844  0.1609 -0.9081
  792MOL0     C 6797   5.130  10.560   5.456 -0.0645 -0.2340  0.7639
  792MOL0     C 6798   5.012  10.487   5.386 -0.5342  0.2045 -0.4606
  792MOL0     C 6799   4.901  10.594   5.362 -0.0411 -0.0522 -0.4763
  792MOL0     C 6800   4.785  10.529   5.285  0.1264 -0.1714 -0.5036
  792MOL0     C 6801   4.822  10.495   5.140 -0.4340  0.1941  0.0634
  792MOL0     N 6802   4.886  10.614   5.066 -0.4288  0.1347  0.0348
  792MOL0     C 6803   5.014  10.624   5.020  0.6777 -0.0179 -0.0492
  792MOL0     C 6804   5.026  10.740   4.964 -0.3229  0.3522  0.2854
  792MOL0     C 6805   5.156  10.801   4.911  0.7497  0.3426 -0.1408
  792MOL0     C 6806   5.228  10.889   5.013  0.7185  1.1722 -0.1617
  792MOL0     C 6807   5.341  10.977   4.968  0.2653 -1.1006 -0.3365
  792MOL0     C 6808   5.405  11.062   5.083 -0.2551 -0.5584 -0.2620
  792MOL0     O 6809   5.548  11.043   5.078 -0.0999 -0.3333 -0.2777
  792MOL0     C 6810   5.628  11.113   5.170 -0.3396  0.5991  0.9551
  792MOL0     C 6811   5.607  11.109   5.312  0.1235 -0.7386 -0.7548
  792MOL0     C 6812   5.713  11.166   5.397 -0.4044  0.4398 -0.4685
  792MOL0     C 6813   5.683  11.179   5.540  0.1060  0.9959 -0.3747
  792MOL0     C 6814   5.838  11.213   5.338  0.2836 -0.7083 -0.3757
  792MOL0     C 6815   5.936  11.285   5.417 -0.9088  0.7976  0.4009
  792MOL0     O 6816   6.050  11.305   5.353 -0.7029  0.6060 -0.5528
  792MOL0     C 6817   6.171  11.253   5.403  0.1605  0.0280  0.1651
  792MOL0     C 6818   6.195  11.281   5.536  0.6160  0.3907  0.3392
  792MOL0     C 6819   6.302  11.216   5.595  0.1039  0.3545  0.5138
  792MOL0     C 6820   6.380  11.119   5.531 -0.2353 -0.2337 -0.7124
  792MOL0     O 6821   6.470  11.040   5.605 -0.0613  0.7166 -0.0374
  792MOL0     C 6822   6.469  11.060   5.748 -0.2279  0.1336 -0.3473
  792MOL0     C 6823   6.509  10.937   5.833 -0.5469  0.5575 -0.3893
  792MOL0     C 6824   6.402  10.825   5.871  0.0073  0.7291  0.2535
  792MOL0     C 6825   6.274  10.885   5.928 -1.1607  0.6884 -0.4448
  792MOL0     C 6826   6.199  10.788   6.014  0.0946  0.3044 -0.0128
  792MOL0     C 6827   6.077  10.861   6.078  0.7334  0.9964 -0.1779
  792MOL0     C 6828   6.005  10.770   6.180 -0.2948  0.8117  0.5451
  792MOL0     C 6829   5.919  10.671   6.112 -0.4473 -0.5600  0.5842
  792MOL0    Cl 6830   5.798  10.750   6.003 -0.4122 -0.0324  0.0950
  792MOL0     C 6831   6.356  11.091   5.398  0.6792 -0.2876  0.5864
  792MOL0     C 6832   6.254  11.164   5.330 -0.7837 -0.2689  0.8921
  792MOL0     O 6833   5.910  11.325   5.531 -0.1637 -0.3330  0.0807
  792MOL0     C 6834   5.846  11.215   5.192  0.6864  0.2903 -1.2232
  792MOL0     C 6835   5.746  11.158   5.111 -0.3834 -0.9204 -0.7189
  792MOL0     N 6836   4.899  10.795   4.957  0.5002 -0.9706 -0.2160
  792MOL0     N 6837   4.817  10.719   5.021  0.4734 -0.0187  0.3526
  792MOL0     C 6838   5.167  10.945   5.491 -1.5568  0.4647 -0.3434
  792MOL0     C 6839   5.076  11.031   5.551  0.5543 -0.2028  0.3185
  792MOL0     C 6840   4.860  11.344   5.813 -0.6446 -0.2334 -0.3533
  792MOL0     C 6841   4.744  11.264   5.844 -0.0989 -0.3941  0.8869
  792MOL0     C 6842   4.624  11.327   5.898  0.4131  0.0805  0.2564
  792MOL0     C 6843   4.610  11.464   5.916 -0.1133 -0.2460  0.2690
  792MOL0     O 6844   4.492  11.514   5.974  0.9596  0.3728  0.4218
  792MOL0     C 6845   4.451  11.645   5.940  0.2351 -0.1098  0.6908
  792MOL0     C 6846   4.332  11.669   6.039  0.6400 -0.2640  0.0186
  792MOL0     C 6847   4.370  11.743   6.169  1.4561 -0.0966 -0.0526
  792MOL0     C 6848   4.348  11.890   6.173 -1.2201 -0.0892  0.4340
  792MOL0     C 6849   4.206  11.926   6.189  1.0816 -0.3955  0.4630
  792MOL0     C 6850   4.090  11.968   6.193 -0.1492 -1.2020  0.7032
  792MOL0     C 6851   4.720  11.538   5.879  0.4340  0.5407 -0.0911
  792MOL0     C 6852   4.843  11.482   5.831  0.8453  0.1914  0.1100
  792MOL0     H 6853   5.243  11.146   5.819  2.0931  2.3781 -2.1806
  792MOL0     H 6854   5.412  11.034   5.713  0.5150  0.1402 -1.3239
  792MOL0     H 6855   5.356  10.845   5.312  0.7241  2.1879  0.5183
  792MOL0     H 6856   5.505  10.785   5.356 -0.0070 -0.5701  0.8442
  792MOL0     H 6857   5.435  10.587   5.374  0.1545  1.5452 -1.7595
  792MOL0     H 6858   5.359  10.638   5.534 -1.7264 -2.5302 -0.0211
  792MOL0     H 6859   5.174  10.699   5.304 -0.1631  2.2113  2.1607
  792MOL0     H 6860   5.249  10.533   5.289  1.5575 -0.6308  0.6881
  792MOL0     H 6861   5.185  10.490   5.520 -0.6089  1.3416  3.0982
  792MOL0     H 6862   5.088  10.634   5.524  0.1243  1.0389 -0.4547
  792MOL0     H 6863   5.044  10.433   5.296 -1.5005 -0.4244 -0.4449
  792MOL0     H 6864   4.967  10.411   5.451 -0.3452 -2.8591 -3.5540
  792MOL0     H 6865   4.869  10.643   5.454  2.2919 -0.1694  0.4612
  792MOL0     H 6866   4.946  10.675   5.304  0.0641 -0.3163 -0.7685
  792MOL0     H 6867   4.747  10.442   5.340  0.8725  0.0395  0.3687
  792MOL0     H 6868   4.712  10.609   5.284  0.1175 -0.1524  0.5333
  792MOL0     H 6869   4.733  10.473   5.081 -0.7078 -1.8092  1.1348
  792MOL0     H 6870   4.889  10.408   5.135 -0.7933 -0.1813  1.4340
  792MOL0     H 6871   5.091  10.548   5.034 -0.7156 -1.6559 -0.8306
  792MOL0     H 6872   5.215  10.715   4.878  0.5290 -0.6556  1.9106
  792MOL0     H 6873   5.134  10.866   4.826  0.6554  1.3887  0.6650
  792MOL0     H 6874   5.258  10.818   5.091 -1.3737 -0.1642 -0.4860
  792MOL0     H 6875   5.154  10.955   5.059 -1.9466 -0.7638 -1.3664
  792MOL0     H 6876   5.304  11.041   4.886 -1.4196  0.9555  1.8846
  792MOL0     H 6877   5.416  10.908   4.928 -1.3503 -1.1048 -3.7674
  792MOL0     H 6878   5.371  11.040   5.185  3.2869  0.6897  1.3256
  792MOL0     H 6879   5.377  11.166   5.060 -0.2070 -0.5462 -0.2662
  792MOL0     H 6880   5.521  11.070   5.365  1.3188  2.5495  4.2452
  792MOL0     H 6881   5.765  11.135   5.598 -0.0949 -1.9619 -2.1089
  792MOL0     H 6882   5.654  11.275   5.583  2.0363  0.8507  1.4028
  792MOL0     H 6883   5.601  11.110   5.564  1.7710 -0.8836  0.2248
  792MOL0     H 6884   6.135  11.353   5.591 -0.7635  0.5238 -1.2732
  792MOL0     H 6885   6.310  11.252   5.697 -0.1918  1.1510  0.2617
  792MOL0     H 6886   6.543  11.138   5.769  0.2568 -0.3531 -0.2381
  792MOL0     H 6887   6.370  11.083   5.789  0.9949 -1.0018  3.8014
  792MOL0     H 6888   6.594  10.885   5.790 -0.2961  0.5468  0.1171
  792MOL0     H 6889   6.544  10.978   5.928 -1.5630  2.5926 -0.8327
  792MOL0     H 6890   6.461  10.760   5.938  0.6721 -0.2444 -1.2251
  792MOL0     H 6891   6.385  10.762   5.783  1.3345  0.3599  0.2344
  792MOL0     H 6892   6.307  10.959   6.003  0.6612  0.4725 -0.9950
  792MOL0     H 6893   6.206  10.929   5.855  0.1846 -1.6777 -3.3191
  792MOL0     H 6894   6.273  10.760   6.089  1.1192  1.5598 -0.5089
  792MOL0     H 6895   6.166  10.705   5.951 -1.6657  1.0873 -0.1952
  792MOL0     H 6896   6.127  10.940   6.135  5.1295 -3.2234  2.6127
  792MOL0     H 6897   6.017  10.901   5.996 -2.5063 -2.1317  0.4768
  792MOL0     H 6898   5.944  10.821   6.256  0.0925 -0.3249  1.6447
  792MOL0     H 6899   6.068  10.719   6.253 -1.2320 -0.4627  0.4820
  792MOL0     H 6900   5.866  10.603   6.179 -2.6142 -0.5991 -1.0506
  792MOL0     H 6901   5.985  10.622   6.041 -1.2883  0.2208 -0.7803
  792MOL0     H 6902   6.417  11.019   5.344  0.6480 -0.6082  0.9733
  792MOL0     H 6903   6.237  11.164   5.223  1.0632  1.3487  0.5515
  792MOL0     H 6904   5.925  11.268   5.140  2.7215  1.3165  2.5719
  792MOL0     H 6905   5.755  11.160   5.003 -0.1423 -1.7011 -0.7140
  792MOL0     H 6906   5.147  10.877   5.409  0.5990  0.7201 -1.1476
  792MOL0     H 6907   4.984  11.028   5.495  0.5170 -2.1698  0.4171
  792MOL0     H 6908   4.756  11.157   5.828 -1.2737 -0.6332  1.5216
  792MOL0     H 6909   4.532  11.278   5.925  1.1437 -1.2122  0.4821
  792MOL0     H 6910   4.529  11.718   5.962  0.2072  0.2232 -0.2687
  792MOL0     H 6911   4.433  11.641   5.832 -0.3149 -0.2552  0.7809
  792MOL0     H 6912   4.301  11.565   6.053 -0.2822 -0.1763 -1.1846
  792MOL0     H 6913   4.253  11.727   5.990 -2.0494 -1.7272  2.2867
  792MOL0     H 6914   4.469  11.716   6.205  1.3687  0.4364  0.6022
  792MOL0     H 6915   4.303  11.708   6.249  0.7571  0.5014 -0.3587
  792MOL0     H 6916   4.379  11.920   6.073 -4.5607  0.4185 -0.5859
  792MOL0     H 6917   4.408  11.943   6.248 -1.3549  1.3369 -0.4253
  792MOL0     H 6918   3.994  12.016   6.186 -0.5976 -2.3085 -1.0989
  792MOL0     H 6919   4.715  11.644   5.898  0.3892  0.4341  0.5323
  792MOL0     H 6920   4.922  11.553   5.809  0.7075 -0.2966 -2.2990
  793MOL0     O 6921  10.078   5.660   2.902 -0.7060  0.4919  0.5151
  793MOL0     C 6922  10.071   5.779   2.871  1.1256 -0.4525 -0.6451
  793MOL0     O 6923  10.177   5.869   2.846  0.8233 -0.5433 -0.6388
  793MOL0     C 6924  10.300   5.855   2.903 -0.1611  0.5902  0.6553
  793MOL0     C 6925  10.352   5.738   2.961 -0.2891  0.1971  0.1741
  793MOL0     C 6926  10.486   5.737   2.996  0.3426  0.1061  0.4030
  793MOL0     C 6927  10.569   5.844   3.000 -0.6045 -1.0227  0.8744
  793MOL0     O 6928  10.700   5.839   3.033 -0.5626  0.2526  0.3377
  793MOL0     C 6929  10.760   5.715   3.095  0.0098 -0.3874  0.3630
  793MOL0     C 6930  10.907   5.740   3.129  1.0836 -0.0440  0.0288
  793MOL0     C 6931  10.965   5.597   3.164  0.2279 -0.9533  0.1867
  793MOL0     C 6932  11.116   5.626   3.183 -0.8236  0.5617 -0.8655
  793MOL0     C 6933  11.184   5.490   3.181 -0.3189  0.1218  0.2626
  793MOL0     C 6934  11.336   5.499   3.230  0.6987  0.0468 -0.5049
  793MOL0     C 6935  11.436   5.559   3.131  0.0382 -0.3702  0.3635
  793MOL0     C 6936  11.587   5.560   3.167 -0.1724  0.0458 -0.0035
  793MOL0     N 6937  11.598   5.616   3.308 -0.9741 -0.3905 -0.5331
  793MOL0     C 6938  11.598   5.743   3.344  0.0066 -0.1757 -0.0315
  793MOL0     C 6939  11.598   5.744   3.476 -1.1109  0.6247 -0.0742
  793MOL0     C 6940  11.579   5.851   3.580 -0.7017 -0.4169 -0.6257
  793MOL0     C 6941  11.665   5.978   3.548  1.1576  0.3359  0.4904
  793MOL0     C 6942  11.658   6.096   3.640  0.2313 -0.4069 -0.5351
  793MOL0     C 6943  11.546   6.195   3.623  0.0575 -0.2154 -0.4790
  793MOL0     O 6944  11.418   6.126   3.623  0.1121 -0.0572  0.0366
  793MOL0     C 6945  11.298   6.196   3.612 -0.2753 -0.5496 -0.8955
  793MOL0     C 6946  11.282   6.329   3.664  0.5075 -0.4233 -0.9864
  793MOL0     C 6947  11.164   6.393   3.672 -1.2255 -0.4381  0.6670
  793MOL0     C 6948  11.170   6.523   3.728 -0.8022  0.3863 -0.5626
  793MOL0     C 6949  11.053   6.337   3.622 -0.2711  0.7009  0.8867
  793MOL0     C 6950  10.921   6.400   3.608  0.3605 -1.0751 -0.0754
  793MOL0     O 6951  10.808   6.326   3.615 -0.2280 -0.5352 -0.4195
  793MOL0     C 6952  10.684   6.373   3.600  0.9714  0.1766 -0.1286
  793MOL0     C 6953  10.639   6.506   3.608  0.4551  0.5999  0.9915
  793MOL0     C 6954  10.497   6.531   3.599  0.6232 -0.8246  0.0269
  793MOL0     C 6955  10.400   6.431   3.571 -0.3616  0.3542  0.6496
  793MOL0     O 6956  10.265   6.468   3.573  0.0485  0.0891 -0.1274
  793MOL0     C 6957  10.168   6.369   3.578 -0.3325  0.1604 -0.1060
  793MOL0     C 6958  10.032   6.424   3.617 -0.1147 -0.5123  0.0211
  793MOL0     C 6959  10.047   6.536   3.721  0.4727  0.1933  0.0571
  793MOL0     C 6960   9.909   6.550   3.795 -0.9935  0.3868 -0.0006
  793MOL0     C 6961   9.803   6.636   3.714  0.1427  0.1662  0.1840
  793MOL0     C 6962   9.682   6.683   3.793  0.1568 -0.3317 -0.9246
  793MOL0     C 6963   9.576   6.754   3.701 -0.5876 -0.3177 -0.3187
  793MOL0     C 6964   9.506   6.642   3.617 -0.0314 -0.8474 -0.4749
  793MOL0    Cl 6965   9.368   6.716   3.516  0.1325 -0.0986  0.3872
  793MOL0     C 6966  10.453   6.299   3.544 -0.7250 -1.0744  0.2057
  793MOL0     C 6967  10.586   6.277   3.568 -0.2198 -0.4675  0.8259
  793MOL0     O 6968  10.932   6.512   3.553  1.2460  0.0060  0.1148
  793MOL0     C 6969  11.064   6.210   3.569  0.1045  0.3788 -1.4712
  793MOL0     C 6970  11.184   6.145   3.561  0.6723 -0.3722 -0.4247
  793MOL0     N 6971  11.586   5.613   3.525 -0.4543 -0.8090  0.5047
  793MOL0     N 6972  11.595   5.539   3.419 -0.3318 -0.0380  0.2321
  793MOL0     C 6973  10.513   5.966   2.958  0.1476 -0.7496 -0.2650
  793MOL0     C 6974  10.384   5.967   2.902 -0.0318 -0.1989  0.8116
  793MOL0     C 6975   9.939   5.836   2.838 -0.9855  0.1204  0.8643
  793MOL0     C 6976   9.932   5.979   2.798  0.9895  0.0282 -1.1878
  793MOL0     C 6977   9.812   6.025   2.754  0.5992  0.0783 -0.5236
  793MOL0     C 6978   9.700   5.947   2.748 -0.6672 -0.1463  0.8851
  793MOL0     O 6979   9.586   5.995   2.695 -0.0286 -0.1574 -0.1902
  793MOL0     C 6980   9.548   6.123   2.745 -1.0585 -0.7716  0.8522
  793MOL0     C 6981   9.405   6.135   2.718 -0.9146 -0.2311  0.1481
  793MOL0     C 6982   9.355   6.276   2.734 -0.0945 -0.1601  0.0125
  793MOL0     C 6983   9.279   6.299   2.865  0.0991  0.1250 -0.0763
  793MOL0     C 6984   9.258   6.446   2.869 -0.1243 -0.0306  0.3074
  793MOL0     C 6985   9.220   6.566   2.878 -0.9353 -0.2686  0.8812
  793MOL0     C 6986   9.705   5.819   2.798  0.2348  0.0117  0.9662
  793MOL0     C 6987   9.821   5.763   2.850 -0.1780  0.0972 -0.6195
  793MOL0     H 6988  10.301   5.643   2.971  0.1593 -0.1435 -0.6845
  793MOL0     H 6989  10.536   5.651   3.042  2.1644  0.8993  0.0019
  793MOL0     H 6990  10.707   5.704   3.191 -0.4397  2.1193  0.4826
  793MOL0     H 6991  10.757   5.629   3.027  2.9918 -0.5932  0.3638
  793MOL0     H 6992  10.959   5.784   3.043  1.6175 -3.3556 -1.4633
  793MOL0     H 6993  10.913   5.804   3.218 -0.7926 -0.6636  0.6621
  793MOL0     H 6994  10.910   5.567   3.254 -1.5426  1.9605  0.2180
  793MOL0     H 6995  10.949   5.524   3.085 -0.8079  0.6538 -1.1462
  793MOL0     H 6996  11.160   5.698   3.114  0.3266  3.1437  2.2729
  793MOL0     H 6997  11.142   5.667   3.282  1.6004 -2.4390 -0.1044
  793MOL0     H 6998  11.131   5.425   3.251  0.0658 -0.5640 -0.0694
  793MOL0     H 6999  11.182   5.458   3.077 -0.5924  3.0672 -0.7288
  793MOL0     H 7000  11.341   5.562   3.319 -1.4403 -0.0409 -0.2613
  793MOL0     H 7001  11.354   5.396   3.262 -1.1755 -0.0737  0.2893
  793MOL0     H 7002  11.432   5.519   3.029  0.2839  3.6628 -1.3946
  793MOL0     H 7003  11.406   5.659   3.100 -2.1398 -0.5959  1.5046
  793MOL0     H 7004  11.656   5.613   3.101 -0.6262  0.6541  0.0073
  793MOL0     H 7005  11.625   5.457   3.167  0.9023  0.4333  0.8711
  793MOL0     H 7006  11.600   5.829   3.279 -1.6145 -0.9149 -1.1104
  793MOL0     H 7007  11.470   5.867   3.583 -0.8848 -1.5632 -0.8652
  793MOL0     H 7008  11.615   5.820   3.678  1.0538  0.0697 -1.0752
  793MOL0     H 7009  11.638   6.011   3.447  1.5325 -1.7651 -0.3458
  793MOL0     H 7010  11.769   5.947   3.534  0.0801 -2.2677 -3.8809
  793MOL0     H 7011  11.750   6.155   3.632  0.4123 -0.2687  1.8600
  793MOL0     H 7012  11.656   6.048   3.739 -0.4889 -1.3666 -0.9897
  793MOL0     H 7013  11.553   6.238   3.523 -1.8210 -2.3484 -1.6280
  793MOL0     H 7014  11.560   6.269   3.702 -2.7100 -0.0063 -0.0919
  793MOL0     H 7015  11.376   6.373   3.696 -0.3799  0.3066  0.7612
  793MOL0     H 7016  11.143   6.515   3.834 -1.3845  2.3614 -0.5271
  793MOL0     H 7017  11.269   6.570   3.725 -0.8601  0.4828 -3.5307
  793MOL0     H 7018  11.109   6.601   3.683  1.4072  2.9503  0.5929
  793MOL0     H 7019  10.701   6.591   3.636 -0.4066  1.4362  0.4669
  793MOL0     H 7020  10.462   6.633   3.609  1.1904 -0.4993 -1.1324
  793MOL0     H 7021  10.167   6.316   3.483  0.6846  0.7862 -0.4779
  793MOL0     H 7022  10.195   6.297   3.656 -1.0088  0.1762  0.1539
  793MOL0     H 7023   9.992   6.476   3.529  2.1496  2.7521  0.7636
  793MOL0     H 7024   9.968   6.341   3.650 -1.7003  2.2109  4.6931
  793MOL0     H 7025  10.076   6.628   3.670 -0.8519  1.3614  1.3145
  793MOL0     H 7026  10.121   6.501   3.793 -1.8158 -2.1719  1.4220
  793MOL0     H 7027   9.876   6.459   3.847  0.3615  0.2571  0.6913
  793MOL0     H 7028   9.949   6.605   3.881  1.9311 -1.0283 -0.3189
  793MOL0     H 7029   9.760   6.580   3.631 -0.5715  3.4415 -1.8529
  793MOL0     H 7030   9.842   6.724   3.660 -1.1633  0.8610  0.3295
  793MOL0     H 7031   9.646   6.596   3.848 -0.3209 -0.8725 -2.0442
  793MOL0     H 7032   9.704   6.765   3.862 -2.4884 -0.2960 -0.0142
  793MOL0     H 7033   9.640   6.824   3.647  0.5594 -0.4688  0.8000
  793MOL0     H 7034   9.501   6.809   3.760 -0.6625 -1.0704  0.3032
  793MOL0     H 7035   9.460   6.579   3.695  1.1468  3.3230  4.1118
  793MOL0     H 7036   9.562   6.583   3.544  0.3701  0.4759 -1.2546
  793MOL0     H 7037  10.386   6.223   3.504 -3.7897  0.3632  2.2264
  793MOL0     H 7038  10.622   6.175   3.570 -2.5023 -1.4032 -0.7906
  793MOL0     H 7039  10.978   6.150   3.541 -0.7054 -1.4173  3.7719
  793MOL0     H 7040  11.187   6.046   3.518  1.2453 -0.6320  0.2002
  793MOL0     H 7041  10.577   6.054   2.954 -3.3366  1.9316 -2.0003
  793MOL0     H 7042  10.337   6.060   2.868  1.5593  0.0017 -0.9888
  793MOL0     H 7043  10.016   6.047   2.804 -0.6154  2.0278 -0.5857
  793MOL0     H 7044   9.797   6.128   2.722 -0.3708 -0.2280 -1.1250
  793MOL0     H 7045   9.568   6.143   2.850  0.7494  0.2892  0.3421
  793MOL0     H 7046   9.599   6.203   2.690 -1.8672 -0.5136  0.4532
  793MOL0     H 7047   9.350   6.073   2.789  2.1031 -2.4386  0.7387
  793MOL0     H 7048   9.391   6.093   2.618  1.4636 -1.1126  0.1275
  793MOL0     H 7049   9.288   6.310   2.655 -0.3392  2.5398  1.2589
  793MOL0     H 7050   9.441   6.342   2.730 -1.9319  2.5762  1.8182
  793MOL0     H 7051   9.334   6.252   2.947  1.1489  0.0647 -0.7901
  793MOL0     H 7052   9.184   6.245   2.867 -0.6415  1.3438 -0.7202
  793MOL0     H 7053   9.185   6.667   2.869  0.7204  0.3014  0.2439
  793MOL0     H 7054   9.622   5.749   2.796 -0.0420  0.3540  0.1689
  793MOL0     H 7055   9.822   5.661   2.886 -2.3066 -0.0749 -0.8654
  794MOL0     O 7056  10.306   8.626   9.489  0.9877 -0.2459  0.1358
  794MOL0     C 7057  10.374   8.539   9.441 -0.7184 -0.4500  0.5462
  794MOL0     O 7058  10.346   8.410   9.419 -0.4047 -0.0093 -0.3023
  794MOL0     C 7059  10.221   8.365   9.458 -0.0172  0.0757  0.1403
  794MOL0     C 7060  10.207   8.246   9.533  0.6364 -0.5142  0.6873
  794MOL0     C 7061  10.084   8.189   9.564 -0.3069  0.2874  0.2468
  794MOL0     C 7062   9.967   8.255   9.521 -0.7337 -1.0812  0.3377
  794MOL0     O 7063   9.843   8.212   9.548  0.1651 -0.2226  0.2670
  794MOL0     C 7064   9.818   8.131   9.663 -0.3313 -0.7600  0.0304
  794MOL0     C 7065   9.680   8.144   9.715  0.0480  0.6253  0.6213
  794MOL0     C 7066   9.580   8.139   9.598 -0.3556 -0.0919  0.4811
  794MOL0     C 7067   9.439   8.145   9.650 -1.0663  0.1857 -1.1582
  794MOL0     C 7068   9.338   8.108   9.545  0.6908 -0.2691 -0.2889
  794MOL0     C 7069   9.348   8.182   9.413 -0.3847  0.8000  0.2923
  794MOL0     C 7070   9.361   8.337   9.423 -0.8707  0.6338 -0.3059
  794MOL0     C 7071   9.254   8.423   9.497  0.5995  0.0691 -0.0333
  794MOL0     N 7072   9.142   8.434   9.402  0.1378  0.8078 -0.3040
  794MOL0     C 7073   9.030   8.374   9.422  0.5089 -0.7718  0.1512
  794MOL0     C 7074   8.943   8.429   9.335 -0.7530 -0.2643  0.2688
  794MOL0     C 7075   8.804   8.379   9.314  0.3048 -0.5901  0.3604
  794MOL0     C 7076   8.709   8.502   9.290 -0.1138 -0.2295  0.6252
  794MOL0     C 7077   8.708   8.607   9.401 -0.6842  0.7196  0.2796
  794MOL0     C 7078   8.570   8.662   9.422  0.1256  0.0267  0.5494
  794MOL0     O 7079   8.531   8.727   9.295  0.1310 -0.3064 -0.2454
  794MOL0     C 7080   8.416   8.801   9.284  0.5983 -0.6395 -0.7992
  794MOL0     C 7081   8.327   8.827   9.392 -0.3082 -0.2162 -0.0855
  794MOL0     C 7082   8.207   8.895   9.368  0.6830  0.2011 -0.3781
  794MOL0     C 7083   8.119   8.893   9.482 -0.2468  0.1980  0.3513
  794MOL0     C 7084   8.175   8.942   9.236 -0.4121 -0.5544 -0.1203
  794MOL0     C 7085   8.063   9.032   9.203 -0.0267 -0.2778  0.4806
  794MOL0     O 7086   8.062   9.077   9.072  0.6209  0.0589  0.3646
  794MOL0     C 7087   7.974   9.180   9.044  0.4794  0.1798 -0.5118
  794MOL0     C 7088   8.020   9.301   8.992  0.5418  0.4467 -0.3410
  794MOL0     C 7089   7.940   9.416   8.983 -0.0021 -0.1045 -0.6358
  794MOL0     C 7090   7.809   9.417   9.025  0.4161  0.9933  0.1537
  794MOL0     O 7091   7.726   9.527   9.008 -0.1746  0.7150  0.4149
  794MOL0     C 7092   7.613   9.536   9.093 -0.5713 -0.8490 -0.0181
  794MOL0     C 7093   7.562   9.682   9.092 -0.4290  1.4138 -0.3869
  794MOL0     C 7094   7.423   9.700   9.148  0.0132 -0.2876  0.5285
  794MOL0     C 7095   7.307   9.665   9.052 -0.6163 -0.2591 -0.2287
  794MOL0     C 7096   7.290   9.782   8.951 -0.1867 -0.3645  0.6105
  794MOL0     C 7097   7.160   9.776   8.870  0.8767  0.4016 -0.1060
  794MOL0     C 7098   7.142   9.901   8.779 -0.4748 -0.4486 -0.2852
  794MOL0     C 7099   7.010   9.900   8.700  0.8246  0.2737  0.0844
  794MOL0    Cl 7100   7.013   9.764   8.581  0.5125  0.2243 -0.1603
  794MOL0     C 7101   7.755   9.284   9.061  0.3378  0.0458  1.5397
  794MOL0     C 7102   7.838   9.173   9.075  0.8000 -0.5010 -0.0674
  794MOL0     O 7103   7.986   9.062   9.286  0.0694 -0.4338  0.5892
  794MOL0     C 7104   8.266   8.913   9.133  0.6824 -0.0755 -0.3599
  794MOL0     C 7105   8.380   8.845   9.160 -0.7566  0.3725  0.2278
  794MOL0     N 7106   9.014   8.520   9.262 -0.3317  0.5015  0.5772
  794MOL0     N 7107   9.133   8.523   9.296 -0.7446 -0.4219  0.0486
  794MOL0     C 7108   9.990   8.374   9.442  0.1693 -0.1413  0.5112
  794MOL0     C 7109  10.109   8.429   9.409  0.2093 -0.6300  0.8549
  794MOL0     C 7110  10.502   8.582   9.386 -0.0462 -0.0336  0.1593
  794MOL0     C 7111  10.551   8.705   9.425 -0.0962  0.4393  0.2007
  794MOL0     C 7112  10.684   8.741   9.396  0.5631  0.7346 -0.4359
  794MOL0     C 7113  10.770   8.654   9.326  0.6443 -0.8692 -0.2404
  794MOL0     O 7114  10.899   8.691   9.308  0.7229 -0.7517 -0.8147
  794MOL0     C 7115  10.977   8.654   9.193  0.6299 -0.9830 -0.7327
  794MOL0     C 7116  10.934   8.730   9.064 -0.2934  1.2306 -0.5866
  794MOL0     C 7117  11.008   8.671   8.942  0.1652 -0.1502  0.2449
  794MOL0     C 7118  10.914   8.644   8.823  0.0500 -0.1937 -0.0876
  794MOL0     C 7119  10.796   8.559   8.847 -0.1097 -0.5038  0.8737
  794MOL0     C 7120  10.688   8.509   8.865 -1.0969  0.5281 -0.0839
  794MOL0     C 7121  10.717   8.540   9.282  0.6500  0.3541  0.3063
  794MOL0     C 7122  10.587   8.499   9.306 -0.1848  0.6526 -0.1139
  794MOL0     H 7123  10.302   8.198   9.556  1.1779  0.8358  1.3543
  794MOL0     H 7124  10.092   8.101   9.627  2.0905 -0.6344 -1.2022
  794MOL0     H 7125   9.832   8.026   9.636  2.5575  0.2899 -3.3720
  794MOL0     H 7126   9.882   8.154   9.749 -1.6151 -0.2546  0.8774
  794MOL0     H 7127   9.648   8.066   9.785 -0.5418 -0.6562 -1.0089
  794MOL0     H 7128   9.655   8.234   9.773 -2.4796 -0.8247  1.9754
  794MOL0     H 7129   9.605   8.215   9.522  4.9438 -2.9167 -1.1359
  794MOL0     H 7130   9.591   8.044   9.546  2.3313 -0.9230  2.3095
  794MOL0     H 7131   9.441   8.063   9.722  7.1362 -0.5752 -1.3044
  794MOL0     H 7132   9.409   8.233   9.708  0.7040  0.0322  0.0543
  794MOL0     H 7133   9.352   8.002   9.522  1.6798  0.1749 -1.8500
  794MOL0     H 7134   9.238   8.116   9.588 -0.2668 -0.7315 -2.3234
  794MOL0     H 7135   9.432   8.159   9.346  0.9102  1.7405  1.5459
  794MOL0     H 7136   9.255   8.161   9.359  0.8065  1.0563 -2.0282
  794MOL0     H 7137   9.453   8.351   9.481 -0.3815 -1.2489 -0.5736
  794MOL0     H 7138   9.383   8.388   9.329  0.8747 -1.3549 -1.0449
  794MOL0     H 7139   9.291   8.525   9.515  4.5201 -1.5772  2.6474
  794MOL0     H 7140   9.219   8.383   9.593 -1.4054 -0.1850 -0.8232
  794MOL0     H 7141   9.015   8.293   9.493 -1.6944  0.5072  1.2571
  794MOL0     H 7142   8.790   8.319   9.224 -0.4081  0.6078 -0.3574
  794MOL0     H 7143   8.768   8.313   9.394 -0.2507  1.2602  1.7144
  794MOL0     H 7144   8.609   8.458   9.287  1.0614 -3.0373  0.1008
  794MOL0     H 7145   8.723   8.541   9.189 -2.4292 -1.9743 -0.4575
  794MOL0     H 7146   8.777   8.685   9.369  0.9259 -0.5876  0.4387
  794MOL0     H 7147   8.741   8.555   9.492  0.6480 -0.2960 -0.7397
  794MOL0     H 7148   8.583   8.743   9.494  1.7111  0.1643  0.1440
  794MOL0     H 7149   8.499   8.582   9.446 -0.6495  0.2681 -0.8310
  794MOL0     H 7150   8.349   8.796   9.493  1.3050 -1.6301 -0.8257
  794MOL0     H 7151   8.061   8.985   9.488 -1.8245 -0.8170  1.7145
  794MOL0     H 7152   8.056   8.804   9.485  2.4653 -1.8404  1.8529
  794MOL0     H 7153   8.170   8.889   9.579  0.6647 -1.5335 -0.1598
  794MOL0     H 7154   8.124   9.313   8.964  0.1338  1.9223 -1.3923
  794MOL0     H 7155   7.987   9.499   8.931  0.1284  0.5644  0.5113
  794MOL0     H 7156   7.533   9.467   9.064 -0.6737 -0.5835 -0.3826
  794MOL0     H 7157   7.648   9.500   9.190  0.1746 -2.5432 -0.8731
  794MOL0     H 7158   7.622   9.741   9.162  2.3601  0.0905 -1.4994
  794MOL0     H 7159   7.570   9.737   8.998 -1.1605  2.0990 -0.0690
  794MOL0     H 7160   7.407   9.803   9.184 -1.1512  0.7108 -2.5302
  794MOL0     H 7161   7.422   9.638   9.238 -0.4703 -2.0977 -0.6670
  794MOL0     H 7162   7.329   9.566   9.009 -0.5830  0.6981 -2.5952
  794MOL0     H 7163   7.214   9.652   9.108 -1.5893  0.6523 -1.5680
  794MOL0     H 7164   7.375   9.783   8.883  0.9997  1.1519  2.0481
  794MOL0     H 7165   7.286   9.877   9.006 -0.3169  0.1346 -0.2460
  794MOL0     H 7166   7.161   9.692   8.799 -2.4481  0.3309 -0.2158
  794MOL0     H 7167   7.065   9.767   8.924 -0.4780  1.0137 -2.2298
  794MOL0     H 7168   7.232   9.916   8.719  1.7215  1.2275  3.1086
  794MOL0     H 7169   7.138   9.990   8.842  3.7418 -0.3477  0.0813
  794MOL0     H 7170   6.995   9.992   8.644 -0.7766  0.0753  0.1333
  794MOL0     H 7171   6.926   9.889   8.770  2.0104  1.2204  1.7346
  794MOL0     H 7172   7.651   9.269   9.087  0.9630 -0.0716  4.2731
  794MOL0     H 7173   7.788   9.086   9.116  0.3997  0.4129  1.4788
  794MOL0     H 7174   8.269   8.954   9.032  4.3881 -0.8960 -0.7354
  794MOL0     H 7175   8.444   8.814   9.078 -1.6065  0.0906 -0.3511
  794MOL0     H 7176   9.900   8.419   9.400  0.8576  0.5642 -0.2525
  794MOL0     H 7177  10.103   8.522   9.353 -0.0958 -1.2270 -0.1280
  794MOL0     H 7178  10.495   8.772   9.489 -0.0627  2.2812 -1.6045
  794MOL0     H 7179  10.723   8.832   9.440 -4.4543  2.3006  1.4592
  794MOL0     H 7180  11.082   8.683   9.205 -0.2832  2.2952  0.6493
  794MOL0     H 7181  10.967   8.547   9.177 -0.8775 -1.0051  0.2179
  794MOL0     H 7182  10.955   8.835   9.088 -0.5033  0.6820  2.4199
  794MOL0     H 7183  10.826   8.714   9.068 -0.1071  0.0466  0.1824
  794MOL0     H 7184  11.068   8.582   8.962  1.1063  0.4997  0.4034
  794MOL0     H 7185  11.083   8.747   8.920  1.6198 -0.6204  3.1347
  794MOL0     H 7186  10.971   8.596   8.742  2.4763 -2.3515  2.6909
  794MOL0     H 7187  10.883   8.743   8.791 -0.5411  0.9110  3.4971
  794MOL0     H 7188  10.595   8.467   8.898 -0.1134  1.0900  3.9979
  794MOL0     H 7189  10.781   8.477   9.221  2.8506  2.9194 -0.2231
  794MOL0     H 7190  10.549   8.404   9.270 -2.5866  1.6861 -0.5355
  795MOL0     O 7191  10.034   9.188   6.568 -0.2155  0.4602 -0.0663
  795MOL0     C 7192  10.074   9.138   6.461 -0.1026  0.1408 -0.8790
  795MOL0     O 7193   9.999   9.098   6.357 -0.3142 -0.1649 -0.0922
  795MOL0     C 7194   9.871   9.142   6.327 -0.3174 -0.5335 -0.0855
  795MOL0     C 7195   9.797   9.245   6.392 -0.2946  0.7316  0.8443
  795MOL0     C 7196   9.663   9.271   6.357 -0.3083 -0.1665 -0.1352
  795MOL0     C 7197   9.600   9.216   6.248  0.2735  0.1152  0.1411
  795MOL0     O 7198   9.488   9.271   6.198 -0.0141 -0.4525 -0.5272
  795MOL0     C 7199   9.390   9.195   6.131  0.3029 -0.8035  0.6614
  795MOL0     C 7200   9.279   9.291   6.093 -0.6645 -0.3977 -0.1946
  795MOL0     C 7201   9.142   9.282   6.165  0.5571  0.1164  0.0939
  795MOL0     C 7202   9.124   9.290   6.313 -0.7295  0.3878  0.2773
  795MOL0     C 7203   8.980   9.258   6.351 -0.3541  0.5969 -0.6122
  795MOL0     C 7204   8.953   9.269   6.504  0.0611  0.4738  0.2080
  795MOL0     C 7205   8.805   9.279   6.532 -0.1029  0.0877 -0.3443
  795MOL0     C 7206   8.763   9.427   6.525  0.2390 -0.0624 -0.3346
  795MOL0     N 7207   8.654   9.462   6.623 -0.7823  0.1936  0.4484
  795MOL0     C 7208   8.579   9.577   6.611 -0.3396  0.8643 -0.4416
  795MOL0     C 7209   8.512   9.588   6.728  0.0590 -0.7008  0.0572
  795MOL0     C 7210   8.434   9.711   6.775 -0.4739  0.0252 -0.3640
  795MOL0     C 7211   8.311   9.751   6.686 -0.4202 -0.2081  0.0849
  795MOL0     C 7212   8.236   9.630   6.621  0.5999  0.1683  0.3708
  795MOL0     C 7213   8.121   9.675   6.537 -0.1477 -1.4376 -0.1128
  795MOL0     O 7214   8.072   9.576   6.459  0.3773  0.7979  0.6492
  795MOL0     C 7215   7.966   9.499   6.504  0.4121  0.0229  0.3023
  795MOL0     C 7216   7.907   9.503   6.633  0.0566 -0.2985  0.4956
  795MOL0     C 7217   7.806   9.417   6.679 -0.9012  0.5120 -0.2157
  795MOL0     C 7218   7.770   9.435   6.826 -0.7544  0.7179  0.9560
  795MOL0     C 7219   7.750   9.331   6.586 -0.1910  0.3785 -0.4701
  795MOL0     C 7220   7.630   9.252   6.619 -0.2503  0.3466  0.5917
  795MOL0     O 7221   7.533   9.246   6.525 -0.1813  0.2346  0.1488
  795MOL0     C 7222   7.424   9.172   6.547 -0.3978 -0.4862 -0.4177
  795MOL0     C 7223   7.421   9.032   6.516 -0.6638  0.5338 -0.5975
  795MOL0     C 7224   7.310   8.954   6.538  1.0104  0.3744 -0.4135
  795MOL0     C 7225   7.196   9.013   6.595  0.7689 -0.2156 -0.4457
  795MOL0     O 7226   7.070   8.958   6.627 -0.0583  0.7696 -0.0858
  795MOL0     C 7227   7.060   8.809   6.640  0.3436 -0.2826 -0.9066
  795MOL0     C 7228   7.104   8.775   6.773  0.0471  0.4100 -0.7587
  795MOL0     C 7229   7.026   8.844   6.882  0.3712  0.1378  0.5823
  795MOL0     C 7230   7.094   8.824   7.018 -0.1454 -0.6838 -1.0732
  795MOL0     C 7231   7.179   8.945   7.064  1.1834  0.1055  0.7600
  795MOL0     C 7232   7.270   8.917   7.178  1.3147 -0.0995 -0.6454
  795MOL0     C 7233   7.376   9.013   7.191  0.1395 -0.1792 -0.0095
  795MOL0     C 7234   7.462   8.980   7.315 -0.4310 -0.3369  0.5100
  795MOL0    Cl 7235   7.518   8.807   7.329  0.0151 -0.4646  0.1390
  795MOL0     C 7236   7.198   9.153   6.624 -0.1549  0.3991  1.3483
  795MOL0     C 7237   7.310   9.227   6.609  0.5661 -0.4039  0.6552
  795MOL0     O 7238   7.614   9.221   6.733 -0.2118 -1.0357  1.0994
  795MOL0     C 7239   7.803   9.327   6.457 -0.2456 -0.7753 -0.6755
  795MOL0     C 7240   7.913   9.402   6.418  0.0771 -1.1763 -0.8718
  795MOL0     N 7241   8.544   9.479   6.803  0.6289  0.1625  0.2417
  795MOL0     N 7242   8.639   9.405   6.749  0.4081  0.6724 -0.8381
  795MOL0     C 7243   9.673   9.114   6.177 -0.3474  0.3917 -0.0690
  795MOL0     C 7244   9.806   9.082   6.220  0.2138  0.1960  0.4619
  795MOL0     C 7245  10.212   9.095   6.461 -0.0404  0.0218 -0.0656
  795MOL0     C 7246  10.257   8.984   6.387  0.2355 -0.0251 -0.3019
  795MOL0     C 7247  10.395   8.944   6.390 -0.0067  0.3347 -0.1415
  795MOL0     C 7248  10.483   9.018   6.468  1.1791 -0.4951 -0.2617
  795MOL0     O 7249  10.621   9.003   6.468 -0.2386 -0.3245  0.0522
  795MOL0     C 7250  10.678   8.917   6.362  1.2668  0.5845 -0.0191
  795MOL0     C 7251  10.666   8.974   6.222 -0.2178  0.9194 -0.3220
  795MOL0     C 7252  10.780   8.931   6.121  0.0514  0.3520  0.1036
  795MOL0     C 7253  10.730   8.956   5.973 -0.9074  0.7016 -0.0400
  795MOL0     C 7254  10.697   8.830   5.907  0.2738  0.0229 -0.7092
  795MOL0     C 7255  10.658   8.730   5.856 -0.3976 -0.1191 -0.2234
  795MOL0     C 7256  10.431   9.132   6.542  0.0206  0.5230  0.3148
  795MOL0     C 7257  10.299   9.170   6.538  0.3176 -0.1870  0.1160
  795MOL0     H 7258   9.836   9.303   6.475 -1.3400  0.5574  1.4795
  795MOL0     H 7259   9.605   9.343   6.413 -0.1297  2.8487 -3.4514
  795MOL0     H 7260   9.431   9.138   6.048 -2.0572 -2.5755  0.6122
  795MOL0     H 7261   9.344   9.118   6.194  0.4224 -2.3974 -1.1094
  795MOL0     H 7262   9.322   9.391   6.108  0.3903 -0.3013 -3.1994
  795MOL0     H 7263   9.261   9.290   5.985 -1.2529  1.4375 -0.1475
  795MOL0     H 7264   9.076   9.362   6.130 -3.2959 -3.0807 -0.6730
  795MOL0     H 7265   9.080   9.200   6.128 -2.0250 -0.7299  5.4279
  795MOL0     H 7266   9.204   9.233   6.361 -0.3692  1.1607  0.5973
  795MOL0     H 7267   9.149   9.394   6.336  0.4086 -0.1127  1.3819
  795MOL0     H 7268   8.914   9.324   6.293  0.1051 -0.1404 -2.0170
  795MOL0     H 7269   8.957   9.156   6.320 -1.2336  0.9928 -1.3070
  795MOL0     H 7270   8.990   9.181   6.557 -1.3104 -0.2922 -0.0729
  795MOL0     H 7271   9.002   9.354   6.552 -2.3741  1.0434  1.8379
  795MOL0     H 7272   8.739   9.220   6.468 -2.3882  1.4294  0.6180
  795MOL0     H 7273   8.784   9.239   6.631 -0.0573 -0.3208 -0.5003
  795MOL0     H 7274   8.744   9.454   6.421  1.3024  0.2468 -0.4633
  795MOL0     H 7275   8.850   9.482   6.563 -0.2737 -0.7026  1.9179
  795MOL0     H 7276   8.575   9.659   6.539 -0.0033  0.5668 -0.8082
  795MOL0     H 7277   8.406   9.690   6.879  0.5276  1.7199  0.2852
  795MOL0     H 7278   8.505   9.794   6.778 -2.5135  2.0242 -2.4659
  795MOL0     H 7279   8.338   9.822   6.608 -1.8021  1.0273  0.6879
  795MOL0     H 7280   8.245   9.791   6.764 -0.3348 -2.9644  1.7256
  795MOL0     H 7281   8.211   9.549   6.691  2.8837  0.4603  1.6143
  795MOL0     H 7282   8.313   9.580   6.561 -1.5606 -2.9661 -0.0312
  795MOL0     H 7283   8.169   9.736   6.459  0.9940  0.4433  1.9361
  795MOL0     H 7284   8.046   9.740   6.582  0.2772 -0.1603 -1.1799
  795MOL0     H 7285   7.938   9.576   6.707 -0.5889 -0.2663  0.7389
  795MOL0     H 7286   7.664   9.457   6.841 -0.1955  4.3488  0.4983
  795MOL0     H 7287   7.816   9.348   6.875  0.3409  0.4038 -0.5465
  795MOL0     H 7288   7.830   9.519   6.862 -1.0843  1.1175  0.5882
  795MOL0     H 7289   7.514   8.987   6.484 -1.2884 -1.2065 -0.0526
  795MOL0     H 7290   7.301   8.846   6.524 -0.8847  0.4709 -0.1526
  795MOL0     H 7291   6.952   8.790   6.637  0.3363 -0.2205 -1.0322
  795MOL0     H 7292   7.107   8.738   6.571 -0.9286 -3.1161  0.9593
  795MOL0     H 7293   7.075   8.670   6.786 -4.1824  1.5951  1.0892
  795MOL0     H 7294   7.212   8.790   6.781  0.6606 -3.0561 -0.9633
  795MOL0     H 7295   6.933   8.787   6.887 -0.8353  2.0330  0.8558
  795MOL0     H 7296   7.009   8.949   6.857  2.8262  0.4629 -0.0064
  795MOL0     H 7297   7.017   8.822   7.095 -0.6027 -1.5436 -1.5401
  795MOL0     H 7298   7.147   8.729   7.021 -1.4673 -1.4283  0.4558
  795MOL0     H 7299   7.116   9.028   7.096 -1.3799 -0.5842 -2.0265
  795MOL0     H 7300   7.237   8.979   6.977  1.2383  0.4539  0.9316
  795MOL0     H 7301   7.217   8.912   7.273  2.0410 -2.5899 -0.3182
  795MOL0     H 7302   7.315   8.818   7.170 -0.0973 -0.8858  0.7349
  795MOL0     H 7303   7.334   9.114   7.186 -1.1951 -0.6769  0.7238
  795MOL0     H 7304   7.442   9.002   7.105 -0.0926  0.3607 -0.2647
  795MOL0     H 7305   7.399   9.015   7.398  1.1305 -1.2259  2.1290
  795MOL0     H 7306   7.551   9.043   7.303 -0.7655  1.1253  4.1644
  795MOL0     H 7307   7.116   9.195   6.682  0.9883  2.9817  1.2184
  795MOL0     H 7308   7.297   9.326   6.651 -0.9868  0.5342 -1.8452
  795MOL0     H 7309   7.773   9.257   6.379  4.3571  1.1437 -4.6751
  795MOL0     H 7310   7.954   9.385   6.320  2.7584 -2.5873  0.3890
  795MOL0     H 7311   9.640   9.072   6.083  1.9221  0.2854 -0.8634
  795MOL0     H 7312   9.854   9.002   6.164 -2.7115 -0.5805 -1.1559
  795MOL0     H 7313  10.190   8.930   6.321 -0.7152 -0.0237  0.6440
  795MOL0     H 7314  10.429   8.858   6.333  0.6936  0.5147 -0.0092
  795MOL0     H 7315  10.783   8.912   6.392  1.3222 -0.4331 -0.3648
  795MOL0     H 7316  10.634   8.819   6.381 -0.8735  2.0653  4.0175
  795MOL0     H 7317  10.646   9.082   6.222  2.4520  1.5070 -1.5190
  795MOL0     H 7318  10.578   8.922   6.184  2.7218 -2.7777 -2.7770
  795MOL0     H 7319  10.837   8.840   6.138  0.1666 -0.3340 -3.3270
  795MOL0     H 7320  10.854   9.010   6.138  1.0228 -0.8656  1.9339
  795MOL0     H 7321  10.814   8.998   5.917 -0.2440  1.0844  1.2046
  795MOL0     H 7322  10.648   9.028   5.960  0.0574  1.6068 -1.3746
  795MOL0     H 7323  10.612   8.644   5.812  0.7836 -1.6322  1.3916
  795MOL0     H 7324  10.502   9.191   6.599  2.5063  1.2650 -3.2178
  795MOL0     H 7325  10.269   9.262   6.587  2.9655  1.3852 -0.9922
  796MOL0     O 7326  11.038   1.457   6.650 -0.2690  0.0747  0.5563
  796MOL0     C 7327  11.141   1.476   6.721  0.4717  0.2657 -0.7051
  796MOL0     O 7328  11.125   1.543   6.842 -0.3431 -0.0181  0.7229
  796MOL0     C 7329  11.008   1.597   6.886 -0.2079 -0.6044  1.0258
  796MOL0     C 7330  10.995   1.730   6.900  0.7339  0.0778 -0.1445
  796MOL0     C 7331  10.885   1.781   6.969 -0.1088  0.0816  0.3656
  796MOL0     C 7332  10.791   1.695   7.026  0.1422 -0.6706 -0.0955
  796MOL0     O 7333  10.693   1.755   7.097  0.9783  0.3005 -0.6265
  796MOL0     C 7334  10.657   1.688   7.225  0.4448 -0.8646 -0.0537
  796MOL0     C 7335  10.563   1.772   7.307  0.7910 -0.4721  0.3819
  796MOL0     C 7336  10.436   1.824   7.226  0.6300  0.1668  0.0925
  796MOL0     C 7337  10.365   1.926   7.312 -0.8652 -0.2535 -0.1884
  796MOL0     C 7338  10.237   1.970   7.244  0.1102 -0.0864  0.4539
  796MOL0     C 7339  10.120   2.026   7.326  0.3524  0.0988 -0.2977
  796MOL0     C 7340  10.045   2.142   7.251 -0.0220 -0.2369 -0.1235
  796MOL0     C 7341   9.931   2.215   7.310 -0.1557  0.1536 -0.1442
  796MOL0     N 7342   9.816   2.120   7.345  0.3077  0.3416 -0.2917
  796MOL0     C 7343   9.747   2.055   7.248 -0.2461  0.3222 -0.3399
  796MOL0     C 7344   9.630   2.019   7.306 -0.7035  1.5272 -1.2996
  796MOL0     C 7345   9.520   1.944   7.239  0.0091  0.6491  0.2296
  796MOL0     C 7346   9.436   2.015   7.135  0.6154 -0.9889  0.4193
  796MOL0     C 7347   9.348   2.120   7.197  0.1880  0.6602  0.0588
  796MOL0     C 7348   9.205   2.066   7.252  0.2612 -0.4710  0.2280
  796MOL0     O 7349   9.145   2.009   7.137  0.1694  0.3185 -0.7262
  796MOL0     C 7350   9.012   2.002   7.129  0.3127 -0.0273 -0.0382
  796MOL0     C 7351   8.933   2.114   7.118  0.1995 -0.0014 -0.4617
  796MOL0     C 7352   8.798   2.114   7.098  0.8511  0.2232  0.5940
  796MOL0     C 7353   8.729   2.245   7.081 -0.1190  0.5482  0.1260
  796MOL0     C 7354   8.729   1.989   7.071  0.2016  0.2895 -0.1526
  796MOL0     C 7355   8.585   1.982   7.038 -0.0090 -0.5778  1.2865
  796MOL0     O 7356   8.531   1.866   6.974 -0.1783 -0.4275  0.3795
  796MOL0     C 7357   8.401   1.865   6.956 -0.5474  0.3830  0.3122
  796MOL0     C 7358   8.334   1.980   6.908  0.4746  0.4793 -0.4250
  796MOL0     C 7359   8.196   1.983   6.911  0.2820  0.2970  0.7137
  796MOL0     C 7360   8.126   1.866   6.953  0.6695 -0.3509 -0.9298
  796MOL0     O 7361   7.992   1.853   6.944  0.1144 -0.0019  0.3565
  796MOL0     C 7362   7.914   1.923   7.034 -1.1423 -0.4793 -0.0444
  796MOL0     C 7363   7.769   1.933   6.984 -0.1823  0.7986 -0.3763
  796MOL0     C 7364   7.760   2.012   6.849 -0.4829  0.2600  0.7404
  796MOL0     C 7365   7.626   1.995   6.778  0.7755  0.2156  0.4717
  796MOL0     C 7366   7.630   2.063   6.638 -0.5629 -0.0144  0.0665
  796MOL0     C 7367   7.702   1.973   6.545 -0.7015  0.0613  0.1530
  796MOL0     C 7368   7.669   2.012   6.406 -0.5057  0.0012  0.5195
  796MOL0     C 7369   7.535   1.974   6.341 -0.6299  0.1479 -0.2381
  796MOL0    Cl 7370   7.492   1.808   6.386 -0.4914 -0.4626 -0.1598
  796MOL0     C 7371   8.190   1.748   6.983 -0.1018 -0.3838 -0.2811
  796MOL0     C 7372   8.328   1.753   6.996 -0.1727  0.7404 -0.1771
  796MOL0     O 7373   8.509   2.072   7.083 -0.7915  0.2140  0.9947
  796MOL0     C 7374   8.811   1.874   7.071  0.0491  0.1892  0.0919
  796MOL0     C 7375   8.944   1.872   7.111  0.1284  0.1902 -0.1447
  796MOL0     N 7376   9.634   2.063   7.438 -0.2179  0.0345  0.1374
  796MOL0     N 7377   9.747   2.127   7.458 -0.3489 -0.0577 -0.0423
  796MOL0     C 7378  10.798   1.555   7.009 -0.0617 -0.4870 -0.4956
  796MOL0     C 7379  10.907   1.507   6.933 -1.2606  0.5328  0.2885
  796MOL0     C 7380  11.270   1.411   6.699 -0.2461  0.4812 -0.1015
  796MOL0     C 7381  11.377   1.439   6.784  0.0968 -0.1329 -0.7492
  796MOL0     C 7382  11.499   1.374   6.766  0.1841  0.2417  0.5027
  796MOL0     C 7383  11.516   1.287   6.657  0.7636 -0.4319  0.2537
  796MOL0     O 7384  11.639   1.243   6.615  0.7694 -0.0552 -0.5338
  796MOL0     C 7385  11.705   1.160   6.707 -0.6385  0.3667 -0.8008
  796MOL0     C 7386  11.857   1.168   6.686  0.8487 -0.2573 -0.2157
  796MOL0     C 7387  11.933   1.081   6.792  0.8199 -0.1860  0.3203
  796MOL0     C 7388  11.913   0.929   6.762 -0.8822 -0.0342 -0.4954
  796MOL0     C 7389  11.975   0.887   6.635 -0.2992 -0.2864 -0.5162
  796MOL0     C 7390  12.034   0.855   6.534  0.7445 -0.4815  0.2634
  796MOL0     C 7391  11.406   1.256   6.568  0.9402 -0.0020  0.1512
  796MOL0     C 7392  11.287   1.314   6.600  0.9017  0.4989  0.1883
  796MOL0     H 7393  11.088   1.785   6.890  0.1278  1.1042 -0.2562
  796MOL0     H 7394  10.892   1.886   6.993  0.8169  0.6106 -1.9238
  796MOL0     H 7395  10.606   1.594   7.200 -0.9920 -0.2981  0.6019
  796MOL0     H 7396  10.750   1.667   7.278  0.3499  1.9143  1.4128
  796MOL0     H 7397  10.541   1.707   7.392  1.3169 -2.6255 -1.0389
  796MOL0     H 7398  10.612   1.865   7.337 -0.9900  0.5173  0.3607
  796MOL0     H 7399  10.467   1.864   7.129 -0.4228 -0.3483 -0.4654
  796MOL0     H 7400  10.373   1.736   7.213 -0.2639  0.9779 -1.2750
  796MOL0     H 7401  10.343   1.889   7.413  1.3997 -0.0440  0.4396
  796MOL0     H 7402  10.424   2.017   7.309  0.5103 -1.0486  1.3277
  796MOL0     H 7403  10.261   2.049   7.173 -1.3525  0.3744  0.4412
  796MOL0     H 7404  10.194   1.894   7.178 -2.5975  3.0024 -1.6469
  796MOL0     H 7405  10.043   1.947   7.326  1.7907 -1.3557 -0.3637
  796MOL0     H 7406  10.145   2.053   7.428 -2.0989  0.9134  0.1707
  796MOL0     H 7407  10.117   2.221   7.224 -0.8206  0.3778 -0.5079
  796MOL0     H 7408  10.015   2.102   7.154 -2.4632 -1.9732  1.2160
  796MOL0     H 7409   9.915   2.299   7.241 -0.4870  0.5102  0.3517
  796MOL0     H 7410   9.965   2.252   7.407  0.1941  3.5541 -1.4278
  796MOL0     H 7411   9.767   2.059   7.142 -1.6695  2.4227 -0.5812
  796MOL0     H 7412   9.558   1.850   7.199 -2.6148 -0.2945 -0.2418
  796MOL0     H 7413   9.457   1.904   7.318 -0.3275  0.8479  0.0650
  796MOL0     H 7414   9.366   1.946   7.087  1.6795 -0.7637 -1.5811
  796MOL0     H 7415   9.495   2.054   7.051  0.9466 -2.2009  0.0715
  796MOL0     H 7416   9.327   2.188   7.114  0.5638 -0.3721 -0.9059
  796MOL0     H 7417   9.402   2.181   7.270 -0.6875  3.9788 -1.8425
  796MOL0     H 7418   9.137   2.139   7.299  0.5326  0.6088 -1.0052
  796MOL0     H 7419   9.228   1.988   7.326 -0.8591 -2.3920 -1.3644
  796MOL0     H 7420   8.989   2.206   7.127 -0.2741  0.0395  3.6081
  796MOL0     H 7421   8.676   2.237   6.986 -1.0559  0.7533  0.6198
  796MOL0     H 7422   8.647   2.254   7.154 -0.9627 -2.3501 -0.3422
  796MOL0     H 7423   8.795   2.331   7.095 -0.0848  0.5376  0.0316
  796MOL0     H 7424   8.398   2.057   6.866  2.2633 -1.0561 -0.6498
  796MOL0     H 7425   8.142   2.072   6.879  2.4364  1.4257  0.0690
  796MOL0     H 7426   7.912   1.855   7.120  0.2332 -1.8123 -1.0130
  796MOL0     H 7427   7.960   2.020   7.056 -1.5731 -0.3659  0.3809
  796MOL0     H 7428   7.732   1.833   6.958 -2.6627  0.7196  2.8876
  796MOL0     H 7429   7.708   1.986   7.057  0.6731  3.5847 -1.5280
  796MOL0     H 7430   7.846   1.986   6.787  0.5378  1.7425  1.4807
  796MOL0     H 7431   7.774   2.119   6.865 -1.8888  0.6367 -0.3895
  796MOL0     H 7432   7.586   1.893   6.771  0.7873  0.3167 -1.7982
  796MOL0     H 7433   7.555   2.057   6.833 -0.8421 -1.7443  0.6946
  796MOL0     H 7434   7.667   2.165   6.647 -2.9132  0.7866  2.1914
  796MOL0     H 7435   7.529   2.068   6.596 -0.4350 -0.1451 -0.2573
  796MOL0     H 7436   7.810   1.970   6.563 -0.8529 -1.8306  1.0157
  796MOL0     H 7437   7.672   1.870   6.568  1.9749 -1.1908 -1.3965
  796MOL0     H 7438   7.746   1.960   6.349  1.5706  0.5964  2.6309
  796MOL0     H 7439   7.683   2.120   6.403 -0.4396  0.3729  5.5552
  796MOL0     H 7440   7.554   1.981   6.233  1.1266 -0.0384  0.0271
  796MOL0     H 7441   7.456   2.045   6.365  1.0249  1.1853  2.6309
  796MOL0     H 7442   8.130   1.660   7.003  2.1240 -2.0828 -0.6363
  796MOL0     H 7443   8.368   1.667   7.047 -1.4108  0.3622  0.1981
  796MOL0     H 7444   8.783   1.772   7.047  2.9246 -0.6852  0.0690
  796MOL0     H 7445   9.000   1.779   7.104  0.0268  0.1945 -5.6844
  796MOL0     H 7446  10.735   1.481   7.057  2.0070  0.1107  3.5448
  796MOL0     H 7447  10.921   1.405   6.896  1.4086  0.4896  1.2202
  796MOL0     H 7448  11.377   1.520   6.856  0.6128 -0.5542 -0.2627
  796MOL0     H 7449  11.591   1.398   6.819  2.0112 -3.3897 -0.6344
  796MOL0     H 7450  11.680   1.194   6.808 -0.4933 -0.5972 -0.4349
  796MOL0     H 7451  11.667   1.058   6.697  1.0564 -0.7687  2.8168
  796MOL0     H 7452  11.880   1.272   6.709  0.9685  0.1370 -1.9607
  796MOL0     H 7453  11.893   1.153   6.584  1.7923  2.7346 -0.4128
  796MOL0     H 7454  11.913   1.101   6.898  0.1189  1.9195 -0.1643
  796MOL0     H 7455  12.041   1.101   6.785  1.4915 -3.6986 -1.7916
  796MOL0     H 7456  11.810   0.894   6.773 -0.6854 -0.5448 -0.2359
  796MOL0     H 7457  11.974   0.886   6.842 -1.1634 -0.4718 -0.5158
  796MOL0     H 7458  12.084   0.838   6.441 -0.8641 -2.0407 -0.3805
  796MOL0     H 7459  11.413   1.185   6.486  0.4843 -2.0079  1.7888
  796MOL0     H 7460  11.199   1.300   6.537  0.2142 -0.7635  1.3863
  797MOL0     O 7461   7.174  10.567  10.287 -0.3722  0.1907  0.2858
  797MOL0     C 7462   7.247  10.473  10.260 -0.5782  0.5721 -0.4265
  797MOL0     O 7463   7.224  10.335  10.280 -0.1651 -0.8256  0.4070
  797MOL0     C 7464   7.101  10.286  10.312 -0.5338  0.6896 -0.6262
  797MOL0     C 7465   6.980  10.333  10.263 -0.2670  1.0600 -1.4387
  797MOL0     C 7466   6.860  10.267  10.301 -0.2205 -0.5974 -0.2607
  797MOL0     C 7467   6.868  10.140  10.361  0.4408 -0.5299  0.3565
  797MOL0     O 7468   6.757  10.059  10.378  0.2985 -0.2049  0.0638
  797MOL0     C 7469   6.721  10.055  10.516  0.7120  0.1216  1.1252
  797MOL0     C 7470   6.592  10.138  10.548  0.1310  0.1857  0.6034
  797MOL0     C 7471   6.466  10.081  10.487 -0.3313 -0.7924 -0.6453
  797MOL0     C 7472   6.427  10.135  10.350  0.3977  1.0526 -0.6937
  797MOL0     C 7473   6.283  10.074  10.317  0.7592  0.6390 -0.7550
  797MOL0     C 7474   6.240  10.098  10.168 -0.0755  0.7266  0.1392
  797MOL0     C 7475   6.085  10.101  10.152  0.6379 -0.3008 -0.2468
  797MOL0     C 7476   6.043  10.046  10.005  0.8046  0.9928 -0.2737
  797MOL0     N 7477   5.895  10.056   9.979 -0.1246 -0.2611  0.5584
  797MOL0     C 7478   5.798   9.953   9.988 -0.2763 -0.2831  0.2882
  797MOL0     C 7479   5.687  10.011   9.939  1.1596  0.8252 -0.2146
  797MOL0     C 7480   5.565   9.923   9.910 -0.5807 -0.1192  0.7129
  797MOL0     C 7481   5.437  10.009   9.907 -0.7025 -0.3741 -0.5245
  797MOL0     C 7482   5.392  10.063  10.045 -0.3207  1.0589  0.9715
  797MOL0     C 7483   5.265  10.147  10.025  0.4912 -0.2279  0.5219
  797MOL0     O 7484   5.162  10.076   9.953  0.2498 -0.3636 -0.0645
  797MOL0     C 7485   5.052  10.144   9.906 -0.2586 -0.1801 -0.5113
  797MOL0     C 7486   5.009  10.264   9.955 -0.3225 -0.9122  0.3894
  797MOL0     C 7487   4.893  10.328   9.917  1.4165  0.0431  0.4928
  797MOL0     C 7488   4.856  10.458   9.982  0.4002  0.0336  0.0649
  797MOL0     C 7489   4.812  10.276   9.811 -0.8556 -0.1016  0.1931
  797MOL0     C 7490   4.697  10.344   9.755 -1.0197  0.0039 -0.2443
  797MOL0     O 7491   4.671  10.307   9.628  0.5846  0.5579 -0.3176
  797MOL0     C 7492   4.569  10.368   9.553  0.4784  0.2025  0.0039
  797MOL0     C 7493   4.600  10.420   9.423 -0.1141 -1.3006 -0.4889
  797MOL0     C 7494   4.505  10.480   9.345  0.9851 -0.5568  0.2705
  797MOL0     C 7495   4.366  10.474   9.377 -0.3179  0.4425 -0.2973
  797MOL0     O 7496   4.287  10.513   9.277  0.3770 -0.0425 -0.0054
  797MOL0     C 7497   4.141  10.506   9.282 -0.2326 -0.3273  0.8029
  797MOL0     C 7498   4.079  10.615   9.185 -0.5969 -0.1940  0.4844
  797MOL0     C 7499   3.934  10.597   9.152 -0.0628 -0.0661 -0.6504
  797MOL0     C 7500   3.852  10.657   9.268  0.6423  0.6022 -0.3885
  797MOL0     C 7501   3.706  10.605   9.272  0.4901  0.3127 -0.5690
  797MOL0     C 7502   3.622  10.649   9.150 -0.4337  0.0542  0.1685
  797MOL0     C 7503   3.631  10.555   9.030  0.4378 -0.5640 -0.4193
  797MOL0     C 7504   3.502  10.575   8.945 -0.4582 -0.0566 -0.1619
  797MOL0    Cl 7505   3.480  10.731   8.871  0.2748  0.2047  0.1523
  797MOL0     C 7506   4.328  10.423   9.508 -0.3191  0.1781 -0.0320
  797MOL0     C 7507   4.434  10.373   9.588  0.2963 -0.0524  0.5058
  797MOL0     O 7508   4.625  10.412   9.820  0.3950  1.1215 -0.4171
  797MOL0     C 7509   4.856  10.156   9.760 -0.3093  0.6578 -0.4444
  797MOL0     C 7510   4.973  10.097   9.806 -0.0530  0.6399  0.3761
  797MOL0     N 7511   5.714  10.134   9.875 -0.9907  0.7209 -0.2916
  797MOL0     N 7512   5.836  10.150   9.893 -0.1606 -1.1230  0.2043
  797MOL0     C 7513   7.002  10.091  10.400  0.3398  0.2920  0.8128
  797MOL0     C 7514   7.111  10.173  10.388  0.0771  0.4664 -0.0995
  797MOL0     C 7515   7.384  10.511  10.207 -0.1081 -0.6606 -0.2000
  797MOL0     C 7516   7.436  10.641  10.230  0.6112 -0.3191 -0.1483
  797MOL0     C 7517   7.565  10.675  10.176 -0.0786  0.0004 -0.0179
  797MOL0     C 7518   7.648  10.584  10.123  0.1471  0.2397 -0.4408
  797MOL0     O 7519   7.770  10.628  10.080  0.3332 -0.0139  0.4470
  797MOL0     C 7520   7.879  10.538  10.080 -0.7646  0.0954 -0.0708
  797MOL0     C 7521   7.989  10.623  10.014  0.2226 -0.2231 -0.2705
  797MOL0     C 7522   8.093  10.516   9.984  0.4533  0.2059  0.3828
  797MOL0     C 7523   8.199  10.591   9.897  0.4896  0.6118 -0.3885
  797MOL0     C 7524   8.324  10.525   9.914 -0.4284 -0.3530  0.0257
  797MOL0     C 7525   8.435  10.481   9.936 -0.2433  0.1631 -0.3552
  797MOL0     C 7526   7.593  10.464  10.086  0.6579  0.2424 -0.7233
  797MOL0     C 7527   7.462  10.424  10.127  0.4716 -0.7740  0.1695
  797MOL0     H 7528   6.983  10.424  10.204  4.1590  0.3231 -2.6785
  797MOL0     H 7529   6.765  10.311  10.272  0.6416 -1.1103 -4.4818
  797MOL0     H 7530   6.707   9.950  10.542 -0.9503 -0.1681 -0.7328
  797MOL0     H 7531   6.801  10.095  10.580  1.0998  1.2886 -0.0379
  797MOL0     H 7532   6.591  10.156  10.656  2.0041  3.4382  0.2040
  797MOL0     H 7533   6.629  10.232  10.506  0.3523 -0.9146 -1.8480
  797MOL0     H 7534   6.480   9.972  10.485  0.6429 -0.7085  0.5142
  797MOL0     H 7535   6.381  10.097  10.555 -1.8109 -2.4024 -2.0083
  797MOL0     H 7536   6.420  10.244  10.352 -2.5940  0.9766 -1.8333
  797MOL0     H 7537   6.497  10.093  10.277  0.6688 -0.2585  0.2655
  797MOL0     H 7538   6.286   9.966  10.331 -0.4740  0.0369 -4.0299
  797MOL0     H 7539   6.204  10.105  10.385  0.3262 -0.4723 -0.7414
  797MOL0     H 7540   6.279  10.189  10.121 -0.0277  0.7132  0.1526
  797MOL0     H 7541   6.270  10.016  10.102  3.1048  1.5889  0.3132
  797MOL0     H 7542   6.047  10.027  10.223 -1.3087  0.9574  0.1186
  797MOL0     H 7543   6.031  10.195  10.170 -3.2288 -1.7823 -2.7533
  797MOL0     H 7544   6.074   9.945   9.978  0.0542  0.2151  1.6315
  797MOL0     H 7545   6.087  10.107   9.925 -2.2390  0.3187 -2.6454
  797MOL0     H 7546   5.814   9.858  10.038 -0.1904  0.1112  1.0122
  797MOL0     H 7547   5.586   9.873   9.815  2.6006  2.0259  0.1323
  797MOL0     H 7548   5.560   9.843   9.984  0.0929 -2.0540 -1.2324
  797MOL0     H 7549   5.359   9.956   9.852 -4.1737  1.8376  1.9167
  797MOL0     H 7550   5.456  10.101   9.851 -2.3401  1.1583  1.3435
  797MOL0     H 7551   5.475  10.125  10.081  0.2594  4.2318 -4.6290
  797MOL0     H 7552   5.375   9.983  10.117  1.8899 -1.3852 -0.9650
  797MOL0     H 7553   5.302  10.240   9.981  2.0400  0.8631  3.7728
  797MOL0     H 7554   5.220  10.170  10.122 -2.4685 -1.5626 -0.4292
  797MOL0     H 7555   5.061  10.315  10.036 -0.4675  0.4302 -0.3418
  797MOL0     H 7556   4.756  10.457  10.025 -1.1510  1.4871 -3.1962
  797MOL0     H 7557   4.934  10.486  10.054  3.5827 -1.3384 -2.5947
  797MOL0     H 7558   4.850  10.543   9.913  1.4904  0.6308  0.6692
  797MOL0     H 7559   4.701  10.413   9.386  1.1812  3.1413  1.6237
  797MOL0     H 7560   4.535  10.530   9.254 -2.8476  2.6261  0.4806
  797MOL0     H 7561   4.104  10.407   9.256  0.9621 -0.4137 -0.7568
  797MOL0     H 7562   4.107  10.532   9.383 -1.6278  0.0990  0.2354
  797MOL0     H 7563   4.094  10.714   9.227 -3.1619  1.0794 -1.3522
  797MOL0     H 7564   4.128  10.610   9.088  1.1849  1.0238  1.2774
  797MOL0     H 7565   3.916  10.490   9.138 -0.4746  0.0135 -0.7478
  797MOL0     H 7566   3.901  10.652   9.064 -3.7505 -2.7096 -1.1362
  797MOL0     H 7567   3.886  10.615   9.363  3.7555  0.2865 -1.5193
  797MOL0     H 7568   3.862  10.766   9.260 -1.7695  0.7385 -4.1265
  797MOL0     H 7569   3.661  10.635   9.367 -0.4089 -2.8446  0.1375
  797MOL0     H 7570   3.700  10.497   9.292 -1.0779  0.3645 -0.6004
  797MOL0     H 7571   3.516  10.658   9.179 -0.3702 -0.6878  0.6620
  797MOL0     H 7572   3.649  10.751   9.122  0.5646 -0.3033 -0.2070
  797MOL0     H 7573   3.628  10.455   9.074 -1.9141 -0.5056 -0.3601
  797MOL0     H 7574   3.723  10.558   8.970 -0.4685 -1.1645 -1.8993
  797MOL0     H 7575   3.415  10.548   9.006 -1.9232  0.6360 -1.8747
  797MOL0     H 7576   3.505  10.516   8.853  1.6826  3.3951 -2.5252
  797MOL0     H 7577   4.227  10.414   9.547 -0.4893  2.3220  0.1447
  797MOL0     H 7578   4.409  10.339   9.688  1.0607 -0.5044  0.5522
  797MOL0     H 7579   4.799  10.104   9.683  0.2769 -1.2438  0.3448
  797MOL0     H 7580   5.000  10.000   9.763 -0.7552 -0.2446  1.8447
  797MOL0     H 7581   7.018   9.992  10.442 -1.7037 -1.0456 -1.2854
  797MOL0     H 7582   7.207  10.142  10.429 -0.1949 -0.9900 -0.5183
  797MOL0     H 7583   7.387  10.705  10.303  1.2605  0.4902 -0.4093
  797MOL0     H 7584   7.613  10.771  10.194  1.2549 -0.6504  0.0349
  797MOL0     H 7585   7.921  10.501  10.174  0.9443  1.6432 -0.1644
  797MOL0     H 7586   7.851  10.455  10.014 -2.5521  1.6603 -1.3853
  797MOL0     H 7587   8.016  10.709  10.076 -1.4019 -2.8861  4.6677
  797MOL0     H 7588   7.945  10.642   9.915 -0.5809 -4.2551 -0.8723
  797MOL0     H 7589   8.055  10.427   9.934  0.0189 -0.8272  2.4540
  797MOL0     H 7590   8.141  10.473  10.072  0.5220 -0.7967 -0.1309
  797MOL0     H 7591   8.220  10.693   9.931  0.8810 -0.5670  3.3495
  797MOL0     H 7592   8.171  10.594   9.791 -0.8506  1.7248 -0.0305
  797MOL0     H 7593   8.529  10.441   9.967 -0.4659 -1.4602 -1.6069
  797MOL0     H 7594   7.655  10.398  10.026  0.2669 -1.2966  0.5131
  797MOL0     H 7595   7.436  10.319  10.118  1.5137 -1.4810  3.8432
  798MOL0     O 7596   7.782  10.199   2.328 -0.3022 -0.4721  0.2133
  798MOL0     C 7597   7.764  10.113   2.419  0.0715  0.1928  0.1076
  798MOL0     O 7598   7.864  10.034   2.488  0.1645  0.1733 -0.3228
  798MOL0     C 7599   7.985  10.056   2.440 -0.0943 -0.8601  0.3208
  798MOL0     C 7600   8.050  10.181   2.447  0.8748  0.7028  0.1636
  798MOL0     C 7601   8.177  10.199   2.386  0.3214 -0.0684 -0.0933
  798MOL0     C 7602   8.235  10.095   2.313  0.1554  0.9656 -0.2256
  798MOL0     O 7603   8.334  10.134   2.233 -0.2785 -0.4507  0.5595
  798MOL0     C 7604   8.438  10.039   2.202 -0.0379 -0.6327  0.1712
  798MOL0     C 7605   8.544  10.123   2.116  0.4170 -0.4604 -0.0186
  798MOL0     C 7606   8.642  10.044   2.029 -1.1130 -0.3218 -0.2179
  798MOL0     C 7607   8.771  10.004   2.106 -0.5872  0.6415  0.5495
  798MOL0     C 7608   8.865   9.931   2.012 -0.4211 -0.2951 -0.2620
  798MOL0     C 7609   8.993   9.883   2.076 -0.8053 -0.3976 -0.1872
  798MOL0     C 7610   9.095   9.991   2.094 -0.4684  0.7031 -0.2727
  798MOL0     C 7611   9.242   9.931   2.072  0.0932 -0.2700  0.3312
  798MOL0     N 7612   9.356  10.032   2.067  0.2863  0.1723  0.2441
  798MOL0     C 7613   9.360  10.148   1.991  0.1461 -0.3781  0.0028
  798MOL0     C 7614   9.468  10.216   2.038  0.5131 -0.0539 -0.3872
  798MOL0     C 7615   9.500  10.353   1.988 -0.2793  0.2743 -0.6719
  798MOL0     C 7616   9.643  10.380   2.023 -0.0180  0.0863  0.3527
  798MOL0     C 7617   9.688  10.517   1.999  0.3578  0.1809  0.7537
  798MOL0     C 7618   9.833  10.529   1.949 -0.5182  1.0323  1.7537
  798MOL0     O 7619   9.860  10.668   1.915 -0.4064 -0.8172 -0.0877
  798MOL0     C 7620   9.984  10.700   1.866  0.0041 -0.1482 -0.0336
  798MOL0     C 7621  10.098  10.623   1.887  0.2839 -0.7039  0.0772
  798MOL0     C 7622  10.225  10.664   1.829 -0.3845  0.2153 -0.4608
  798MOL0     C 7623  10.340  10.565   1.845  0.4649  0.0387 -0.5997
  798MOL0     C 7624  10.246  10.783   1.758 -1.2429 -0.0963 -0.0813
  798MOL0     C 7625  10.368  10.833   1.684 -0.0408  0.2550  0.0243
  798MOL0     O 7626  10.407  10.953   1.720  0.1113  0.4333  0.4790
  798MOL0     C 7627  10.512  11.009   1.655  0.0673  0.2234  0.2895
  798MOL0     C 7628  10.481  11.112   1.572 -0.7436 -0.6437  0.7034
  798MOL0     C 7629  10.577  11.166   1.488 -0.2523  0.0637  0.3676
  798MOL0     C 7630  10.714  11.126   1.500 -0.3140 -0.2937 -0.5646
  798MOL0     O 7631  10.818  11.191   1.440  0.7623  0.1974  0.5443
  798MOL0     C 7632  10.801  11.200   1.302 -0.3753  0.7524  0.7458
  798MOL0     C 7633  10.873  11.080   1.240  0.3250  0.0575 -0.3697
  798MOL0     C 7634  10.867  11.059   1.097 -0.8300 -0.8287 -0.6521
  798MOL0     C 7635  10.903  11.174   1.001  0.2454  0.5012  0.4048
  798MOL0     C 7636  10.895  11.138   0.860 -0.2381 -0.8543  0.9416
  798MOL0     C 7637  10.895  11.252   0.755  0.0488 -0.0147  0.2622
  798MOL0     C 7638  10.880  11.198   0.613 -0.2548 -0.1417 -0.0070
  798MOL0     C 7639  10.742  11.134   0.587  0.3274 -0.1500 -0.0163
  798MOL0    Cl 7640  10.701  11.140   0.412  0.4246 -0.2384 -0.4099
  798MOL0     C 7641  10.740  11.028   1.592 -0.1606 -0.4261 -0.3230
  798MOL0     C 7642  10.638  10.959   1.658 -0.4586 -0.6359 -0.7036
  798MOL0     O 7643  10.421  10.766   1.595 -0.0542  0.1793  0.4367
  798MOL0     C 7644  10.133  10.866   1.751 -0.2024 -0.2521  0.3245
  798MOL0     C 7645  10.003  10.820   1.798  0.4190  0.3638  0.0162
  798MOL0     N 7646   9.518  10.146   2.150  0.3001  0.3268  0.2446
  798MOL0     N 7647   9.438  10.047   2.174 -0.3678 -0.1913  0.0140
  798MOL0     C 7648   8.167   9.974   2.297 -0.0667  1.0457 -0.1416
  798MOL0     C 7649   8.043   9.951   2.367  0.1796 -0.5714  1.0187
  798MOL0     C 7650   7.626  10.082   2.462 -0.2493 -0.3273 -0.2205
  798MOL0     C 7651   7.515  10.138   2.382  0.0407 -0.3157 -0.2124
  798MOL0     C 7652   7.382  10.085   2.412 -0.2724 -0.2681  0.7832
  798MOL0     C 7653   7.364   9.996   2.528  1.0820 -0.6667 -0.3491
  798MOL0     O 7654   7.245   9.945   2.577 -0.3944 -0.4022 -0.0516
  798MOL0     C 7655   7.121   9.996   2.512  0.2102 -0.8262  0.0826
  798MOL0     C 7656   7.031  10.070   2.605 -0.0683 -0.2855 -0.1463
  798MOL0     C 7657   7.097  10.184   2.683 -0.8692  0.3562 -0.2767
  798MOL0     C 7658   6.989  10.286   2.708 -0.9410 -0.0947  0.0532
  798MOL0     C 7659   6.963  10.370   2.594  1.0445 -0.2504 -0.3462
  798MOL0     C 7660   6.948  10.447   2.500  0.9199 -0.6492  0.4357
  798MOL0     C 7661   7.472   9.953   2.608 -0.7782 -1.0754  0.1672
  798MOL0     C 7662   7.597  10.003   2.573  0.3353 -0.0119 -0.0784
  798MOL0     H 7663   8.006  10.270   2.493 -1.0305 -0.8147  1.4424
  798MOL0     H 7664   8.236  10.290   2.400 -1.0063  0.6376  1.1312
  798MOL0     H 7665   8.479   9.995   2.293  1.2958 -1.7432 -0.9263
  798MOL0     H 7666   8.399   9.961   2.136  0.8865 -1.6658  0.8196
  798MOL0     H 7667   8.495  10.189   2.043 -0.1879  0.1683  0.9180
  798MOL0     H 7668   8.589  10.194   2.186 -0.3513 -1.0353  1.0878
  798MOL0     H 7669   8.596   9.975   1.958 -5.4089  2.1007 -0.2064
  798MOL0     H 7670   8.682  10.115   1.957 -0.8781 -1.8102 -1.5993
  798MOL0     H 7671   8.827  10.090   2.145  0.5346 -0.6094  1.8148
  798MOL0     H 7672   8.749   9.934   2.186  1.3977 -1.6817 -0.7970
  798MOL0     H 7673   8.835   9.838   1.963  2.8977 -0.0428 -3.1021
  798MOL0     H 7674   8.878  10.000   1.929  1.1801 -0.0315  0.1780
  798MOL0     H 7675   8.972   9.833   2.171 -2.3041 -1.8835 -1.2398
  798MOL0     H 7676   9.040   9.802   2.018 -0.1883 -2.0487  2.4634
  798MOL0     H 7677   9.077  10.061   2.012 -1.0470  1.1178  0.2012
  798MOL0     H 7678   9.089  10.035   2.193  0.5792 -0.1390  0.1842
  798MOL0     H 7679   9.248   9.877   1.977 -1.8443 -1.4940  0.8583
  798MOL0     H 7680   9.267   9.858   2.149  1.8908  0.0902  0.1427
  798MOL0     H 7681   9.281  10.181   1.924 -1.2314  0.3831  1.9147
  798MOL0     H 7682   9.502  10.353   1.879  0.0010  1.9818 -0.6916
  798MOL0     H 7683   9.431  10.431   2.022  2.7898  1.4601  3.8168
  798MOL0     H 7684   9.702  10.312   1.961 -2.9510 -1.7702 -0.6101
  798MOL0     H 7685   9.665  10.369   2.130 -0.2393  1.9259  0.6226
  798MOL0     H 7686   9.692  10.577   2.090  0.1096  0.9297  0.2840
  798MOL0     H 7687   9.613  10.570   1.938 -1.0974 -2.0938  0.4641
  798MOL0     H 7688   9.847  10.461   1.865  0.3690 -0.6097  3.1711
  798MOL0     H 7689   9.901  10.492   2.027  0.8995 -0.8781 -0.2938
  798MOL0     H 7690  10.092  10.533   1.947 -0.7085  0.6468  2.1326
  798MOL0     H 7691  10.311  10.477   1.903 -0.4727 -0.5164 -1.8664
  798MOL0     H 7692  10.365  10.523   1.747 -2.7025 -0.3146 -1.3493
  798MOL0     H 7693  10.429  10.616   1.883 -0.2935  1.4861 -0.7180
  798MOL0     H 7694  10.383  11.159   1.571 -1.3042 -1.7642  1.0866
  798MOL0     H 7695  10.540  11.245   1.423 -1.0309 -0.9553 -0.4554
  798MOL0     H 7696  10.693  11.198   1.284 -0.5979  0.4465  2.0246
  798MOL0     H 7697  10.853  11.287   1.262 -1.5104  1.4814  0.8125
  798MOL0     H 7698  10.983  11.085   1.248  0.5502 -0.5057 -2.5713
  798MOL0     H 7699  10.837  10.989   1.289  1.8991 -2.0261 -2.8460
  798MOL0     H 7700  10.769  11.025   1.062 -1.4350 -1.0304  1.1271
  798MOL0     H 7701  10.937  10.976   1.082  2.8122  1.7785  0.4839
  798MOL0     H 7702  10.831  11.255   1.015  0.4328  1.8047 -4.2877
  798MOL0     H 7703  11.000  11.219   1.025  0.3731  1.1880 -1.2645
  798MOL0     H 7704  10.800  11.090   0.837  0.4328 -1.3265 -1.0328
  798MOL0     H 7705  10.978  11.068   0.846  0.6567  0.1021  1.2735
  798MOL0     H 7706  10.818  11.327   0.772  0.0501  0.5733 -2.0426
  798MOL0     H 7707  10.986  11.312   0.761 -0.5708  0.8619  1.1713
  798MOL0     H 7708  10.956  11.121   0.599  0.2974  0.1233  1.3614
  798MOL0     H 7709  10.897  11.287   0.551  2.8718  0.9921  2.2250
  798MOL0     H 7710  10.661  11.186   0.640 -0.5854 -1.6868  0.1310
  798MOL0     H 7711  10.745  11.034   0.631 -1.6264  0.2116  1.0836
  798MOL0     H 7712  10.839  10.984   1.603  0.3543  1.0372  1.4491
  798MOL0     H 7713  10.646  10.866   1.712 -1.3882 -1.3404 -1.7404
  798MOL0     H 7714  10.147  10.967   1.712  0.3925 -0.1710  0.7347
  798MOL0     H 7715   9.925  10.892   1.776 -0.9698 -1.4656 -1.3738
  798MOL0     H 7716   8.202   9.896   2.230  0.8964 -0.7813  2.3298
  798MOL0     H 7717   7.994   9.855   2.374  1.5034 -1.1675  3.0381
  798MOL0     H 7718   7.538  10.186   2.288  2.1808  0.1215  0.4835
  798MOL0     H 7719   7.307  10.135   2.352 -0.1176  2.8410  2.9444
  798MOL0     H 7720   7.144  10.071   2.436  0.0136  0.4623  1.2606
  798MOL0     H 7721   7.070   9.918   2.454 -0.9946 -0.4479  0.6179
  798MOL0     H 7722   6.994   9.995   2.676 -0.2255  1.5829  1.8405
  798MOL0     H 7723   6.954  10.116   2.542  1.1471  1.5271 -0.3824
  798MOL0     H 7724   7.180  10.222   2.623  0.4253 -0.8361  0.6939
  798MOL0     H 7725   7.144  10.149   2.776 -0.4611 -0.3389 -0.7370
  798MOL0     H 7726   7.027  10.346   2.791  4.8762 -2.5224 -0.3951
  798MOL0     H 7727   6.896  10.234   2.733 -1.5928  0.5460 -0.9723
  798MOL0     H 7728   6.950  10.496   2.405  1.3244 -0.6623  0.4323
  798MOL0     H 7729   7.449   9.879   2.684  1.4328 -2.5431 -0.5087
  798MOL0     H 7730   7.672   9.975   2.647  0.3382 -3.1731 -1.1376
  799MOL0     O 7731   1.776   3.776   4.175 -0.0953 -0.2278 -0.2203
  799MOL0     C 7732   1.886   3.811   4.226  1.3145  0.6592  0.9409
  799MOL0     O 7733   1.927   3.797   4.357  0.0595  0.2619  0.6534
  799MOL0     C 7734   1.848   3.737   4.450  0.4043  0.0324  1.3977
  799MOL0     C 7735   1.913   3.682   4.560  0.2315 -0.1968  0.3884
  799MOL0     C 7736   1.847   3.620   4.668  0.5753 -0.6390  0.3775
  799MOL0     C 7737   1.705   3.594   4.658  0.3603  0.7630 -0.6115
  799MOL0     O 7738   1.646   3.527   4.761 -0.6327 -0.0108 -0.6319
  799MOL0     C 7739   1.523   3.454   4.725  0.3786 -0.1443  0.1510
  799MOL0     C 7740   1.504   3.341   4.824 -0.6229  0.2422  0.0860
  799MOL0     C 7741   1.380   3.253   4.781  0.3995  0.6121  0.7054
  799MOL0     C 7742   1.338   3.260   4.636  0.1580 -0.3469  0.1063
  799MOL0     C 7743   1.258   3.141   4.588  0.4874 -0.6244  0.3129
  799MOL0     C 7744   1.245   3.139   4.441  0.7456  0.2759  0.6215
  799MOL0     C 7745   1.380   3.089   4.377  0.6845 -0.4304 -0.6754
  799MOL0     C 7746   1.408   2.939   4.389 -0.1887 -0.9637  0.6401
  799MOL0     N 7747   1.498   2.898   4.286 -0.1521  0.7095  0.4305
  799MOL0     C 7748   1.638   2.923   4.287  0.6924 -0.1031 -0.1732
  799MOL0     C 7749   1.669   2.918   4.155  0.0864  0.2306  0.3755
  799MOL0     C 7750   1.805   2.930   4.095  0.6190  0.0608 -0.6424
  799MOL0     C 7751   1.800   3.012   3.970  0.2477 -0.7864  0.7743
  799MOL0     C 7752   1.920   2.989   3.880  0.4124 -1.0205  0.1450
  799MOL0     C 7753   2.052   3.060   3.913  0.5998  0.3218 -0.7055
  799MOL0     O 7754   2.033   3.198   3.931  0.2269 -0.2093 -0.2421
  799MOL0     C 7755   2.144   3.272   3.929  0.2368 -1.2591  0.0635
  799MOL0     C 7756   2.125   3.409   3.958  0.6472  0.4348  0.0051
  799MOL0     C 7757   2.221   3.512   3.950 -0.3994  0.9835 -0.0893
  799MOL0     C 7758   2.184   3.650   4.000 -0.1290  0.7081 -0.5189
  799MOL0     C 7759   2.361   3.475   3.927  1.1611  0.0350 -0.2970
  799MOL0     C 7760   2.486   3.553   3.940  0.3375 -0.7150  1.2925
  799MOL0     O 7761   2.606   3.496   3.965  0.1043 -0.8135 -0.7852
  799MOL0     C 7762   2.725   3.570   3.956 -0.5851 -0.0809 -0.1908
  799MOL0     C 7763   2.813   3.568   4.062 -0.9110 -0.1013 -0.0617
  799MOL0     C 7764   2.942   3.637   4.059  0.9764 -0.1523  0.8019
  799MOL0     C 7765   2.985   3.694   3.945  0.2986  0.3070  0.1312
  799MOL0     O 7766   3.114   3.742   3.931 -0.6092  0.9316 -0.4358
  799MOL0     C 7767   3.147   3.856   4.019  0.0487 -0.1617 -0.6226
  799MOL0     C 7768   3.217   3.973   3.945 -0.2134 -0.3657  0.6463
  799MOL0     C 7769   3.136   4.024   3.825 -0.2041 -0.2152 -0.3944
  799MOL0     C 7770   3.207   4.109   3.719  0.5075 -0.3035 -0.5274
  799MOL0     C 7771   3.118   4.135   3.601 -0.3372 -0.0016 -0.5438
  799MOL0     C 7772   3.194   4.219   3.500 -0.0063 -0.1325 -0.4931
  799MOL0     C 7773   3.113   4.257   3.374 -0.1175 -0.3428 -0.7444
  799MOL0     C 7774   2.999   4.358   3.414  0.1114 -0.0302  1.0796
  799MOL0    Cl 7775   2.940   4.450   3.268 -0.0148 -0.5750  0.0507
  799MOL0     C 7776   2.889   3.689   3.834 -0.1187  0.7345 -0.0272
  799MOL0     C 7777   2.763   3.627   3.840 -0.1303 -0.1304 -1.0450
  799MOL0     O 7778   2.478   3.670   3.902  0.1489 -0.3571  0.0637
  799MOL0     C 7779   2.380   3.338   3.906  0.5140 -0.0639  0.6757
  799MOL0     C 7780   2.277   3.242   3.897 -0.1150 -0.0329  0.0546
  799MOL0     N 7781   1.562   2.877   4.076  0.1149 -0.4326  1.1531
  799MOL0     N 7782   1.461   2.884   4.148 -0.1866  0.0709  0.0693
  799MOL0     C 7783   1.637   3.653   4.546 -0.6539  0.5761 -1.0970
  799MOL0     C 7784   1.708   3.729   4.448  0.2294 -0.9970 -0.1968
  799MOL0     C 7785   1.976   3.896   4.144  0.4376  0.3027  0.0275
  799MOL0     C 7786   1.958   3.915   4.004  0.4256  0.2431  0.4518
  799MOL0     C 7787   2.057   3.965   3.922  0.6245 -0.2086  1.1794
  799MOL0     C 7788   2.174   4.007   3.978  0.2014  0.0743  0.5713
  799MOL0     O 7789   2.266   4.060   3.896  0.4444 -0.3258  0.2807
  799MOL0     C 7790   2.406   4.058   3.925 -0.6651 -0.2012 -0.5427
  799MOL0     C 7791   2.477   4.117   3.811 -0.1701 -0.0696  0.5519
  799MOL0     C 7792   2.635   4.112   3.822 -0.2667  0.1233  0.0985
  799MOL0     C 7793   2.710   4.203   3.725 -0.1291  0.2831 -0.3070
  799MOL0     C 7794   2.716   4.346   3.762 -0.3118  0.0164  0.6705
  799MOL0     C 7795   2.732   4.455   3.803 -0.5781  1.5797  0.1245
  799MOL0     C 7796   2.190   4.016   4.115  0.2810  0.6610  0.6070
  799MOL0     C 7797   2.092   3.956   4.196  0.2602 -0.1780 -0.2887
  799MOL0     H 7798   2.021   3.694   4.561  0.7504 -3.8465  1.5677
  799MOL0     H 7799   1.884   3.588   4.765 -0.9559 -0.7491  0.9577
  799MOL0     H 7800   1.438   3.522   4.736 -1.5242 -2.2069 -1.0325
  799MOL0     H 7801   1.528   3.419   4.621 -1.6666  3.6814 -1.4318
  799MOL0     H 7802   1.591   3.276   4.807  1.3612  2.0223  2.6796
  799MOL0     H 7803   1.496   3.369   4.929 -1.1453  2.2940 -0.4745
  799MOL0     H 7804   1.390   3.149   4.816 -2.4811 -0.8723 -2.2942
  799MOL0     H 7805   1.302   3.291   4.847 -1.7540 -1.8569 -0.2104
  799MOL0     H 7806   1.284   3.354   4.624 -2.2401 -1.1096  3.4935
  799MOL0     H 7807   1.421   3.263   4.565 -1.5260  1.4139 -1.9239
  799MOL0     H 7808   1.302   3.047   4.621  0.3103 -1.3188 -1.3584
  799MOL0     H 7809   1.159   3.151   4.632  0.1957 -0.3074 -0.3929
  799MOL0     H 7810   1.167   3.066   4.416 -0.0566  1.8410 -1.6456
  799MOL0     H 7811   1.221   3.237   4.401 -2.3427 -0.8889 -0.6719
  799MOL0     H 7812   1.382   3.121   4.273  0.6385  2.0257  0.0054
  799MOL0     H 7813   1.464   3.146   4.420 -0.4644  1.4509 -0.8049
  799MOL0     H 7814   1.314   2.889   4.364 -2.4245  3.4266 -0.7228
  799MOL0     H 7815   1.445   2.922   4.490 -0.2696 -1.6582  0.5601
  799MOL0     H 7816   1.705   2.944   4.369 -0.8918 -2.7589  1.9852
  799MOL0     H 7817   1.874   2.987   4.158  0.5395  2.5200 -2.5877
  799MOL0     H 7818   1.849   2.833   4.068  0.4689  0.4565 -2.4470
  799MOL0     H 7819   1.788   3.117   3.999 -2.4038 -1.2819  1.6874
  799MOL0     H 7820   1.714   2.980   3.911  1.1368 -0.2335 -0.8968
  799MOL0     H 7821   1.890   3.029   3.782  3.6341  1.5243  0.0190
  799MOL0     H 7822   1.932   2.881   3.870 -3.3426 -1.5397 -0.0020
  799MOL0     H 7823   2.124   3.024   3.839 -0.6109 -2.1648 -0.7861
  799MOL0     H 7824   2.078   3.017   4.010  0.1235 -1.7186 -1.4256
  799MOL0     H 7825   2.020   3.430   3.978  0.7333  0.1671  0.7396
  799MOL0     H 7826   2.210   3.725   3.925 -0.8641  0.3244 -1.1837
  799MOL0     H 7827   2.077   3.652   4.023 -0.3816 -2.3639 -0.9186
  799MOL0     H 7828   2.245   3.670   4.088 -1.4686  2.3305  0.0797
  799MOL0     H 7829   2.791   3.518   4.156 -1.8982  1.4381  0.5526
  799MOL0     H 7830   3.009   3.627   4.144  1.9114 -0.0349  0.1016
  799MOL0     H 7831   3.059   3.891   4.073  0.8540 -1.4124  1.6031
  799MOL0     H 7832   3.213   3.821   4.099  2.5335  2.9649 -1.0865
  799MOL0     H 7833   3.237   4.061   4.007 -0.7687 -0.3782  0.8480
  799MOL0     H 7834   3.310   3.936   3.901 -0.6895  1.6815 -2.3237
  799MOL0     H 7835   3.054   4.083   3.867 -1.0920  1.5275 -4.1589
  799MOL0     H 7836   3.088   3.938   3.779 -0.9942  0.3497 -0.6414
  799MOL0     H 7837   3.229   4.205   3.766 -0.7200 -0.2195 -0.0879
  799MOL0     H 7838   3.299   4.057   3.690  1.0767 -0.5609  1.6160
  799MOL0     H 7839   3.018   4.174   3.625 -0.7730 -1.7718  0.7777
  799MOL0     H 7840   3.091   4.040   3.554 -0.6283 -1.1778  1.8282
  799MOL0     H 7841   3.229   4.316   3.538 -0.0582  0.2769 -1.4581
  799MOL0     H 7842   3.279   4.161   3.463  0.4603  0.3389 -0.1786
  799MOL0     H 7843   3.068   4.162   3.342 -0.9385 -0.2727  0.1371
  799MOL0     H 7844   3.179   4.311   3.306  1.0004 -2.1618 -1.1577
  799MOL0     H 7845   3.033   4.424   3.494 -1.5497  0.8555  1.0984
  799MOL0     H 7846   2.920   4.302   3.467  0.6759 -1.4961  0.4319
  799MOL0     H 7847   2.925   3.719   3.736 -0.8992  2.1531  0.0959
  799MOL0     H 7848   2.702   3.632   3.750 -2.8721 -0.5563  0.6559
  799MOL0     H 7849   2.483   3.303   3.907  0.7562  0.6407  0.5288
  799MOL0     H 7850   2.309   3.140   3.883  1.0721  0.6334 -2.7954
  799MOL0     H 7851   1.531   3.644   4.528 -0.5567 -0.1979 -1.2965
  799MOL0     H 7852   1.646   3.775   4.372  0.0915 -2.3190 -0.9086
  799MOL0     H 7853   1.874   3.868   3.954  1.5371  1.0529 -2.3895
  799MOL0     H 7854   2.040   3.961   3.815  0.9477 -0.6041  1.1407
  799MOL0     H 7855   2.437   4.104   4.020  0.3205  4.2381 -2.7580
  799MOL0     H 7856   2.438   3.954   3.931 -0.3662 -0.1756 -1.6315
  799MOL0     H 7857   2.456   4.225   3.803 -0.0348  0.1567  2.6191
  799MOL0     H 7858   2.445   4.064   3.721 -1.3541  1.1975  0.1861
  799MOL0     H 7859   2.674   4.010   3.810 -0.7168  0.2415 -3.3174
  799MOL0     H 7860   2.660   4.145   3.923 -2.6777  0.5176  0.6165
  799MOL0     H 7861   2.673   4.187   3.623 -0.8139  0.1977 -0.0543
  799MOL0     H 7862   2.809   4.159   3.718 -1.7422 -3.7815  0.0255
  799MOL0     H 7863   2.757   4.547   3.852 -3.9051  1.4308  2.4356
  799MOL0     H 7864   2.279   4.056   4.160  2.7909 -4.0649  0.4798
  799MOL0     H 7865   2.106   3.939   4.302 -1.0598  0.7789  0.0643
  800MOL0     O 7866  10.739   2.623   6.317 -0.4171  0.2133  0.1368
  800MOL0     C 7867  10.757   2.501   6.331 -0.2782 -0.0315  0.5722
  800MOL0     O 7868  10.655   2.409   6.348 -0.8326  0.2248 -0.3669
  800MOL0     C 7869  10.531   2.459   6.355  0.5462 -0.2411  0.0683
  800MOL0     C 7870  10.457   2.421   6.468  0.1555 -0.3305 -0.2406
  800MOL0     C 7871  10.316   2.447   6.457 -0.4722  0.2666 -0.2350
  800MOL0     C 7872  10.251   2.499   6.351 -0.7123  0.0389  0.3627
  800MOL0     O 7873  10.113   2.498   6.349  0.7060 -0.2126  0.2039
  800MOL0     C 7874  10.050   2.579   6.245 -1.0516 -0.1445 -0.1552
  800MOL0     C 7875   9.896   2.564   6.280 -0.7614  0.6832  0.1193
  800MOL0     C 7876   9.823   2.681   6.211 -0.5686  0.1730  0.6166
  800MOL0     C 7877   9.675   2.654   6.236 -0.7724  0.3943 -0.1081
  800MOL0     C 7878   9.591   2.783   6.239  0.7147  0.9258 -0.5762
  800MOL0     C 7879   9.439   2.744   6.249 -1.0705  0.3470  0.5615
  800MOL0     C 7880   9.347   2.865   6.250  0.2582 -0.6786  0.9128
  800MOL0     C 7881   9.196   2.819   6.255 -0.5517  0.0390 -0.9977
  800MOL0     N 7882   9.117   2.936   6.210 -0.6774  0.5018  0.0746
  800MOL0     C 7883   9.145   3.070   6.260  0.6119  0.9674 -0.0824
  800MOL0     C 7884   9.077   3.147   6.179 -0.0948 -0.6637 -0.1522
  800MOL0     C 7885   9.072   3.299   6.180 -0.1220  0.3539 -0.3453
  800MOL0     C 7886   9.053   3.364   6.323 -0.3666  0.5800  0.2618
  800MOL0     C 7887   9.014   3.512   6.349 -0.6320  0.0084  0.3613
  800MOL0     C 7888   8.878   3.541   6.279  0.0271 -0.4563 -0.6845
  800MOL0     O 7889   8.782   3.443   6.326  0.8641  0.1869 -0.3870
  800MOL0     C 7890   8.650   3.465   6.302  0.1761 -0.6515 -0.3360
  800MOL0     C 7891   8.558   3.382   6.365  0.2365 -0.2128  0.6561
  800MOL0     C 7892   8.423   3.391   6.341  0.0963  0.7411 -0.1456
  800MOL0     C 7893   8.338   3.275   6.387  0.2732 -0.2294  0.3112
  800MOL0     C 7894   8.373   3.505   6.274  0.2647 -0.3495 -0.3798
  800MOL0     C 7895   8.231   3.535   6.257  0.8217  0.2009  1.0603
  800MOL0     O 7896   8.147   3.481   6.356  0.0561 -0.6570 -0.5379
  800MOL0     C 7897   8.014   3.526   6.369 -1.0364  0.3757 -0.5333
  800MOL0     C 7898   7.973   3.647   6.421 -0.3729  1.0395 -1.2115
  800MOL0     C 7899   7.844   3.668   6.460 -1.1327 -0.6088  0.0672
  800MOL0     C 7900   7.747   3.580   6.443 -0.2385  0.3828  0.5400
  800MOL0     O 7901   7.622   3.618   6.480 -0.1758  0.3252 -0.0640
  800MOL0     C 7902   7.523   3.516   6.469 -0.5702  0.2801  0.0499
  800MOL0     C 7903   7.398   3.576   6.528  0.2762  0.8545 -0.4107
  800MOL0     C 7904   7.288   3.467   6.559  0.7278 -0.0050 -0.4298
  800MOL0     C 7905   7.159   3.521   6.620  0.4211 -0.0708  0.1225
  800MOL0     C 7906   7.164   3.558   6.769 -0.6814 -0.5075  0.7687
  800MOL0     C 7907   7.030   3.588   6.823 -0.5434  0.5868 -0.2485
  800MOL0     C 7908   6.997   3.724   6.775  0.8039  0.3826 -0.5693
  800MOL0     C 7909   6.867   3.784   6.838 -0.3770  0.4260 -0.1393
  800MOL0    Cl 7910   6.712   3.702   6.798  0.3856  0.3528 -0.5475
  800MOL0     C 7911   7.788   3.458   6.384  0.1889 -1.0012 -0.4603
  800MOL0     C 7912   7.921   3.437   6.351 -0.5702  0.2712  0.1406
  800MOL0     O 7913   8.195   3.624   6.182 -0.3163  0.2375  0.6445
  800MOL0     C 7914   8.471   3.588   6.209  0.2961 -0.0205  0.3877
  800MOL0     C 7915   8.606   3.564   6.214 -0.4535  0.0281  0.4970
  800MOL0     N 7916   9.013   3.067   6.085 -0.3868 -0.0951  0.5633
  800MOL0     N 7917   9.044   2.942   6.097 -0.0433  0.8282 -0.7144
  800MOL0     C 7918  10.330   2.535   6.240  0.1272 -0.9514 -0.3519
  800MOL0     C 7919  10.467   2.507   6.242 -0.2131 -0.3988 -0.6588
  800MOL0     C 7920  10.895   2.444   6.314 -0.4890 -0.2532  0.9027
  800MOL0     C 7921  11.019   2.515   6.330 -0.5809  0.4972  0.2279
  800MOL0     C 7922  11.142   2.444   6.313  0.8564 -0.0759 -0.2406
  800MOL0     C 7923  11.150   2.305   6.281  0.3746 -0.0882  0.1731
  800MOL0     O 7924  11.254   2.227   6.258  0.2394 -0.0541  0.3978
  800MOL0     C 7925  11.382   2.289   6.232 -0.5112  0.3679  0.1165
  800MOL0     C 7926  11.474   2.188   6.161 -0.8581  0.2312 -0.2669
  800MOL0     C 7927  11.567   2.102   6.259  0.5557  0.0702 -0.1029
  800MOL0     C 7928  11.593   1.961   6.193  0.3930  0.3934  0.5741
  800MOL0     C 7929  11.737   1.948   6.162  0.6686  0.6374  1.0356
  800MOL0     C 7930  11.849   1.928   6.134  0.0737  0.0825  0.2651
  800MOL0     C 7931  11.027   2.243   6.262 -0.1266 -0.3276  0.7313
  800MOL0     C 7932  10.909   2.303   6.279 -0.4085 -0.1468 -0.5592
  800MOL0     H 7933  10.508   2.372   6.550  1.6807  0.3653 -0.7434
  800MOL0     H 7934  10.253   2.424   6.543 -2.5872  2.2508 -1.1743
  800MOL0     H 7935  10.095   2.679   6.243  0.3972 -0.7488 -1.8334
  800MOL0     H 7936  10.060   2.539   6.143 -1.0424  1.4512 -0.8256
  800MOL0     H 7937   9.842   2.472   6.254 -1.5954  0.8920  1.0476
  800MOL0     H 7938   9.880   2.566   6.388  1.4569  0.6963  0.4951
  800MOL0     H 7939   9.859   2.779   6.241 -0.5725  1.0491 -1.9930
  800MOL0     H 7940   9.823   2.667   6.102 -5.6181 -2.4713  0.6395
  800MOL0     H 7941   9.629   2.579   6.171 -3.2970  1.5863  0.1760
  800MOL0     H 7942   9.654   2.622   6.338 -3.6775 -0.0172 -0.7287
  800MOL0     H 7943   9.623   2.849   6.321  3.2410  0.6705 -1.2751
  800MOL0     H 7944   9.605   2.840   6.147  0.2484 -1.9253 -2.5055
  800MOL0     H 7945   9.417   2.678   6.165  0.7114 -0.3201  0.5683
  800MOL0     H 7946   9.427   2.689   6.342 -2.3927 -0.0319  0.1758
  800MOL0     H 7947   9.363   2.926   6.340 -1.1948 -1.1154  1.5031
  800MOL0     H 7948   9.365   2.923   6.159  0.8837 -0.8124  0.9439
  800MOL0     H 7949   9.164   2.816   6.360 -1.8990 -1.1788 -1.4153
  800MOL0     H 7950   9.175   2.731   6.194  0.6413 -0.0918 -1.2452
  800MOL0     H 7951   9.217   3.102   6.334  0.7810 -0.9426  0.6457
  800MOL0     H 7952   9.175   3.322   6.151  1.1932 -1.1875  2.6101
  800MOL0     H 7953   8.992   3.351   6.126 -0.3035 -0.7874 -1.2070
  800MOL0     H 7954   9.147   3.343   6.375 -0.4768 -2.2039 -0.5120
  800MOL0     H 7955   8.990   3.298   6.383  1.0872 -2.1975 -1.0607
  800MOL0     H 7956   9.098   3.567   6.306 -2.5987  1.7544 -1.5444
  800MOL0     H 7957   9.010   3.540   6.455  0.2388 -0.5847  0.5548
  800MOL0     H 7958   8.885   3.545   6.170  0.7772 -0.8749 -0.6594
  800MOL0     H 7959   8.846   3.640   6.314  0.8301 -0.2947 -0.3737
  800MOL0     H 7960   8.607   3.308   6.428  1.2094 -0.0194  0.1470
  800MOL0     H 7961   8.267   3.246   6.309  1.9138 -1.6017 -0.7445
  800MOL0     H 7962   8.393   3.181   6.398  0.7573 -0.2284 -1.6332
  800MOL0     H 7963   8.281   3.297   6.477 -0.6386 -2.9698  0.4831
  800MOL0     H 7964   8.044   3.725   6.443 -1.6429  2.3924 -1.7324
  800MOL0     H 7965   7.807   3.764   6.495 -0.8239 -0.2259 -0.6371
  800MOL0     H 7966   7.509   3.474   6.369  1.9982  1.0988 -0.7255
  800MOL0     H 7967   7.549   3.425   6.524  0.3101 -1.0594 -2.4236
  800MOL0     H 7968   7.429   3.621   6.623  0.7465 -2.2401  1.0354
  800MOL0     H 7969   7.358   3.657   6.467 -0.1284  1.5297  0.7193
  800MOL0     H 7970   7.328   3.394   6.631  0.8181  1.1041  0.6831
  800MOL0     H 7971   7.259   3.420   6.465  2.6361 -3.3924  0.4955
  800MOL0     H 7972   7.134   3.612   6.564 -0.1964  0.9866  2.0383
  800MOL0     H 7973   7.070   3.460   6.606 -1.1055  2.5062 -2.9402
  800MOL0     H 7974   7.242   3.634   6.781  2.3422 -3.2013 -0.3630
  800MOL0     H 7975   7.206   3.473   6.824  0.7591  0.8297  1.8352
  800MOL0     H 7976   6.953   3.518   6.790 -1.8805  1.8545  0.0759
  800MOL0     H 7977   7.038   3.571   6.931  0.7157 -0.4702 -0.4877
  800MOL0     H 7978   6.974   3.710   6.669 -1.0731 -1.7424  0.0462
  800MOL0     H 7979   7.073   3.802   6.787 -0.3742  1.5650 -0.5858
  800MOL0     H 7980   6.852   3.883   6.794  1.9095  1.5412  1.3410
  800MOL0     H 7981   6.882   3.796   6.946 -1.5981 -2.0166  0.3608
  800MOL0     H 7982   7.716   3.381   6.357 -1.3284 -0.6909  2.4132
  800MOL0     H 7983   7.935   3.345   6.294 -1.2154  1.3880 -1.8762
  800MOL0     H 7984   8.443   3.666   6.139  0.9993  0.0445  0.1692
  800MOL0     H 7985   8.676   3.619   6.152 -1.7395 -2.4300 -3.5060
  800MOL0     H 7986  10.292   2.580   6.149 -0.2534  0.2601  0.3751
  800MOL0     H 7987  10.524   2.519   6.150  0.8380 -0.0512  0.0195
  800MOL0     H 7988  11.023   2.621   6.349  1.3445  1.3184 -3.6893
  800MOL0     H 7989  11.233   2.502   6.323  0.1667  0.8352  1.0202
  800MOL0     H 7990  11.367   2.371   6.161 -2.0512 -1.6101 -2.0140
  800MOL0     H 7991  11.422   2.332   6.324 -0.9992 -1.1483  1.0735
  800MOL0     H 7992  11.530   2.247   6.088 -1.6526 -1.6354 -2.5001
  800MOL0     H 7993  11.417   2.120   6.097  2.4231  1.1895 -4.7443
  800MOL0     H 7994  11.515   2.102   6.355  0.7269  1.2425  0.0133
  800MOL0     H 7995  11.659   2.158   6.281  0.3641 -0.1598  1.4248
  800MOL0     H 7996  11.532   1.949   6.102 -0.9991  0.8419  1.4078
  800MOL0     H 7997  11.560   1.876   6.253  0.5051  1.8095  2.7218
  800MOL0     H 7998  11.953   1.912   6.111  0.4222  1.3732  0.8504
  800MOL0     H 7999  11.037   2.141   6.225 -0.8214 -0.1606  0.0690
  800MOL0     H 8000  10.824   2.237   6.261 -1.7969  0.9972  1.4401
  801MOL0     O 8001   0.699   5.572   5.043  0.6142 -0.2789  0.0156
  801MOL0     C 8002   0.728   5.508   5.143  0.1335  0.4221  0.3954
  801MOL0     O 8003   0.654   5.475   5.244 -0.5959 -0.4452 -0.4985
  801MOL0     C 8004   0.523   5.508   5.261 -0.4170 -0.0861 -0.7836
  801MOL0     C 8005   0.480   5.541   5.389 -0.0384  0.6003  0.9107
  801MOL0     C 8006   0.340   5.557   5.416 -0.4440 -0.1816 -0.3021
  801MOL0     C 8007   0.246   5.561   5.309 -0.1760 -0.6403 -0.2175
  801MOL0     O 8008   0.110   5.580   5.332 -0.2917  0.2694 -0.1248
  801MOL0     C 8009   0.056   5.713   5.305  0.1874  0.0884  0.2298
  801MOL0     C 8010  -0.095   5.704   5.336 -0.2121 -0.1006 -0.8215
  801MOL0     C 8011  -0.108   5.718   5.488  0.4241 -0.4582  1.0545
  801MOL0     C 8012  -0.095   5.865   5.536 -0.5671 -0.7353 -0.1120
  801MOL0     C 8013  -0.112   5.884   5.688  0.1512 -0.2549 -0.0866
  801MOL0     C 8014  -0.242   5.836   5.756 -0.3144 -0.3091  0.4240
  801MOL0     C 8015  -0.364   5.930   5.763 -0.0705  0.3510  0.4676
  801MOL0     C 8016  -0.351   6.034   5.862 -0.7893  0.7547 -0.3173
  801MOL0     N 8017  -0.459   6.135   5.863  0.4059  0.3096 -0.2698
  801MOL0     C 8018  -0.591   6.130   5.825 -0.3264  0.7510 -0.4093
  801MOL0     C 8019  -0.666   6.228   5.894 -0.4835  0.5189 -0.1865
  801MOL0     C 8020  -0.818   6.256   5.877 -0.9559  0.4094  0.2820
  801MOL0     C 8021  -0.867   6.378   5.802 -0.8286 -0.0788  0.4533
  801MOL0     C 8022  -0.814   6.513   5.855 -0.4946 -0.0655 -0.5291
  801MOL0     C 8023  -0.912   6.634   5.833  0.7794 -0.2485  0.6420
  801MOL0     O 8024  -0.893   6.688   5.697  0.7319 -0.2770  0.0459
  801MOL0     C 8025  -0.994   6.765   5.642 -0.0122  0.5935 -0.9717
  801MOL0     C 8026  -0.972   6.818   5.518  0.3901 -0.5391  0.1463
  801MOL0     C 8027  -1.069   6.893   5.446 -0.5841 -0.5961  0.5114
  801MOL0     C 8028  -1.035   6.918   5.299  0.7863 -0.0534 -0.5684
  801MOL0     C 8029  -1.193   6.915   5.507  0.2192  0.3096  0.5265
  801MOL0     C 8030  -1.314   6.990   5.450 -0.0441  0.2195  0.3419
  801MOL0     O 8031  -1.425   7.005   5.529 -0.4915 -0.6729  0.3566
  801MOL0     C 8032  -1.510   7.105   5.493 -0.5890  0.6759  0.6951
  801MOL0     C 8033  -1.467   7.243   5.484 -0.2741 -0.6356 -0.4883
  801MOL0     C 8034  -1.564   7.343   5.438 -0.7736 -0.2497 -0.3799
  801MOL0     C 8035  -1.694   7.316   5.431  1.2096 -0.7530  0.6963
  801MOL0     O 8036  -1.799   7.417   5.410 -0.8023 -0.1643  0.0944
  801MOL0     C 8037  -1.757   7.542   5.353  0.2565  0.3423  0.6647
  801MOL0     C 8038  -1.872   7.632   5.322  0.1654 -0.1781  0.5848
  801MOL0     C 8039  -1.832   7.749   5.225  0.1354  0.3495  0.3923
  801MOL0     C 8040  -1.946   7.855   5.223  0.6659 -0.1475 -0.4757
  801MOL0     C 8041  -2.067   7.802   5.144 -0.4291  0.2263 -0.1303
  801MOL0     C 8042  -2.044   7.794   4.988 -0.1110 -0.0127 -0.0730
  801MOL0     C 8043  -2.168   7.811   4.904 -0.0075 -0.1272 -0.3875
  801MOL0     C 8044  -2.150   7.823   4.751  0.2176  0.6015  0.2459
  801MOL0    Cl 8045  -2.016   7.934   4.706  0.2137 -0.2070  0.8630
  801MOL0     C 8046  -1.731   7.185   5.438  1.1315  0.5954 -0.7650
  801MOL0     C 8047  -1.643   7.079   5.454 -0.5064  0.6023 -0.5084
  801MOL0     O 8048  -1.318   7.010   5.331  0.0516 -0.2554  0.5367
  801MOL0     C 8049  -1.214   6.871   5.643  0.3823 -0.4655  1.0602
  801MOL0     C 8050  -1.118   6.796   5.706 -0.1208 -0.5282 -0.5184
  801MOL0     N 8051  -0.575   6.303   5.970  0.0338  0.3979  0.8018
  801MOL0     N 8052  -0.460   6.237   5.963 -0.2371  0.5549  0.7723
  801MOL0     C 8053   0.290   5.546   5.186 -0.4170 -0.1361  0.5072
  801MOL0     C 8054   0.431   5.529   5.160 -0.0606  0.4279 -0.8292
  801MOL0     C 8055   0.869   5.463   5.146 -0.3698  0.2457 -0.5015
  801MOL0     C 8056   0.910   5.400   5.263 -0.0171  1.5798  0.4475
  801MOL0     C 8057   1.050   5.366   5.273  0.3043  0.0072 -0.7212
  801MOL0     C 8058   1.138   5.363   5.155 -0.1721  0.0366 -0.4378
  801MOL0     O 8059   1.272   5.327   5.146 -0.1401  0.1775  0.3090
  801MOL0     C 8060   1.337   5.287   5.266  1.1989  0.7473 -0.7284
  801MOL0     C 8061   1.462   5.223   5.214  0.4473 -0.2071  0.3898
  801MOL0     C 8062   1.534   5.128   5.321  1.1304 -0.4848  0.4382
  801MOL0     C 8063   1.667   5.059   5.267  0.6459 -0.7929  0.5147
  801MOL0     C 8064   1.789   5.141   5.244  0.0243  0.3021  0.8272
  801MOL0     C 8065   1.876   5.220   5.218  0.0022  0.3554  0.4116
  801MOL0     C 8066   1.086   5.429   5.042 -0.2325  0.3069 -0.2842
  801MOL0     C 8067   0.963   5.483   5.041 -0.8146 -0.1504  0.8679
  801MOL0     H 8068   0.558   5.548   5.464 -0.9639  0.0511  1.9547
  801MOL0     H 8069   0.318   5.568   5.522  3.5709 -2.2483  0.9657
  801MOL0     H 8070   0.110   5.791   5.360 -1.3394 -1.0292  3.6303
  801MOL0     H 8071   0.057   5.718   5.196 -0.1415 -0.5137  0.1938
  801MOL0     H 8072  -0.152   5.785   5.290 -0.2342  0.8533  0.8169
  801MOL0     H 8073  -0.140   5.613   5.293  0.9607  0.1481 -2.6554
  801MOL0     H 8074  -0.208   5.681   5.516  0.2813 -1.2213 -0.3876
  801MOL0     H 8075  -0.030   5.665   5.543  1.0798  2.2028  2.9047
  801MOL0     H 8076   0.007   5.891   5.505 -0.5936 -1.1132 -0.5201
  801MOL0     H 8077  -0.165   5.929   5.481 -2.0596 -0.9687  1.4300
  801MOL0     H 8078  -0.028   5.823   5.723 -0.7554 -1.9366 -0.7510
  801MOL0     H 8079  -0.109   5.990   5.717  1.4706 -0.6344  1.3266
  801MOL0     H 8080  -0.279   5.749   5.700 -3.7515  0.9457  0.4709
  801MOL0     H 8081  -0.216   5.802   5.857  1.6234 -0.5234 -0.1101
  801MOL0     H 8082  -0.389   5.969   5.664 -0.4336  1.3824  0.9514
  801MOL0     H 8083  -0.448   5.864   5.785 -1.2180  0.4093 -3.1380
  801MOL0     H 8084  -0.249   6.074   5.860 -0.3843 -0.2335 -0.2517
  801MOL0     H 8085  -0.356   5.990   5.962  1.5492  1.5572  0.2195
  801MOL0     H 8086  -0.628   6.051   5.760  0.3591 -1.4342  1.6847
  801MOL0     H 8087  -0.843   6.163   5.824  3.4179 -0.8048 -0.1082
  801MOL0     H 8088  -0.865   6.263   5.975 -2.3608 -3.8175  0.1077
  801MOL0     H 8089  -0.976   6.389   5.802 -1.0034 -0.7400 -2.7780
  801MOL0     H 8090  -0.833   6.377   5.698 -1.5358  2.7299  0.1085
  801MOL0     H 8091  -0.719   6.535   5.804  0.0366  3.0444  1.5419
  801MOL0     H 8092  -0.791   6.507   5.961 -0.5002  1.7843 -0.4036
  801MOL0     H 8093  -0.886   6.715   5.902  1.0917  1.5208 -1.4786
  801MOL0     H 8094  -1.017   6.606   5.846 -0.2862  2.8171 -0.5641
  801MOL0     H 8095  -0.885   6.793   5.459  0.4417  1.9700 -0.9770
  801MOL0     H 8096  -1.101   6.995   5.258  1.8494  0.4262 -1.4421
  801MOL0     H 8097  -0.931   6.951   5.298  1.3095 -1.5573 -2.5873
  801MOL0     H 8098  -1.034   6.827   5.239  2.0689  0.5839 -1.5780
  801MOL0     H 8099  -1.362   7.255   5.506  0.0054  0.6807 -2.3085
  801MOL0     H 8100  -1.545   7.450   5.440 -3.6188  0.3361  1.6550
  801MOL0     H 8101  -1.694   7.595   5.425 -0.4733 -0.2556  1.7968
  801MOL0     H 8102  -1.702   7.533   5.260 -0.8336  0.1265  0.0205
  801MOL0     H 8103  -1.950   7.568   5.280  1.1103 -1.4778  0.7647
  801MOL0     H 8104  -1.909   7.672   5.417 -0.1642  0.8042  0.0518
  801MOL0     H 8105  -1.816   7.702   5.127 -2.9479 -0.8594  0.3501
  801MOL0     H 8106  -1.742   7.800   5.260  0.7110 -0.4844  0.1391
  801MOL0     H 8107  -1.984   7.887   5.320 -1.6959  2.5581 -2.1121
  801MOL0     H 8108  -1.898   7.944   5.179  3.9606 -1.9990 -0.9755
  801MOL0     H 8109  -2.145   7.877   5.161  0.4670  1.3115 -0.5848
  801MOL0     H 8110  -2.101   7.703   5.174 -0.7797  0.1104 -0.8923
  801MOL0     H 8111  -1.972   7.869   4.954 -0.1560  0.6002  1.1492
  801MOL0     H 8112  -2.002   7.696   4.964  0.0864 -0.2505  1.1893
  801MOL0     H 8113  -2.209   7.908   4.933 -4.5174 -1.6470 -0.9245
  801MOL0     H 8114  -2.238   7.736   4.943  0.2340 -0.3305 -0.3404
  801MOL0     H 8115  -2.239   7.850   4.694  0.7441  2.8743  0.3799
  801MOL0     H 8116  -2.116   7.732   4.701 -3.5251  0.7973 -3.1240
  801MOL0     H 8117  -1.838   7.172   5.426  0.6166  3.1553  0.3485
  801MOL0     H 8118  -1.679   6.976   5.456  0.6240  0.2082 -0.1854
  801MOL0     H 8119  -1.303   6.887   5.703  0.6475  0.0775  1.3143
  801MOL0     H 8120  -1.139   6.777   5.811 -3.1930  1.8879 -0.5559
  801MOL0     H 8121   0.220   5.542   5.103  1.9134 -0.4858 -1.6022
  801MOL0     H 8122   0.464   5.522   5.057  0.4040  4.2442 -1.0810
  801MOL0     H 8123   0.857   5.379   5.355 -0.0917  2.3713  0.5949
  801MOL0     H 8124   1.092   5.323   5.364 -1.2030 -0.6370 -0.2925
  801MOL0     H 8125   1.362   5.374   5.327 -0.1730  0.9035 -0.3614
  801MOL0     H 8126   1.274   5.222   5.327 -1.6806  4.0067  0.0965
  801MOL0     H 8127   1.529   5.306   5.187  1.5674 -0.5647  1.9161
  801MOL0     H 8128   1.440   5.172   5.120 -2.5453 -0.6125  1.1966
  801MOL0     H 8129   1.457   5.060   5.357 -0.3111  3.0805  5.1229
  801MOL0     H 8130   1.563   5.190   5.406  1.7008 -0.1870  0.0394
  801MOL0     H 8131   1.628   5.023   5.171 -1.9203  0.9437  0.8000
  801MOL0     H 8132   1.688   4.980   5.339 -0.6931 -0.7108  1.0372
  801MOL0     H 8133   1.947   5.293   5.183  0.9148 -0.3411  0.7525
  801MOL0     H 8134   1.147   5.453   4.956  1.7092 -2.0982  0.3308
  801MOL0     H 8135   0.945   5.543   4.953 -3.2059  2.9009  3.1925
  802MOL0     O 8136   2.549   8.632   9.282 -0.7728  0.1026 -0.1233
  802MOL0     C 8137   2.633   8.553   9.338  0.4636 -0.0454 -0.7754
  802MOL0     O 8138   2.618   8.427   9.369 -0.2006 -0.2859 -0.1566
  802MOL0     C 8139   2.502   8.362   9.330 -0.1997 -1.1663 -1.1785
  802MOL0     C 8140   2.381   8.402   9.383 -0.1378 -0.2428 -0.4505
  802MOL0     C 8141   2.265   8.323   9.369  0.0508  0.3983  0.6932
  802MOL0     C 8142   2.266   8.208   9.289 -0.3218 -0.3271 -0.4255
  802MOL0     O 8143   2.158   8.123   9.266  0.2737 -0.7130  0.3896
  802MOL0     C 8144   2.031   8.139   9.331 -0.2880  0.3175 -0.3453
  802MOL0     C 8145   1.947   8.017   9.293 -0.8130  0.2121 -0.1135
  802MOL0     C 8146   1.796   8.028   9.318 -0.0325  0.5828 -0.7477
  802MOL0     C 8147   1.774   8.008   9.470  0.8628 -0.6849 -0.1140
  802MOL0     C 8148   1.638   8.053   9.514  0.0619  0.4137 -0.3290
  802MOL0     C 8149   1.604   8.022   9.658  0.3313 -0.5146  0.8471
  802MOL0     C 8150   1.449   8.045   9.685  0.4995 -0.4761  0.2886
  802MOL0     C 8151   1.362   7.918   9.651  0.4523 -1.0545 -0.7335
  802MOL0     N 8152   1.238   7.933   9.730 -0.1090 -0.0357 -0.2195
  802MOL0     C 8153   1.174   7.826   9.780 -0.0356 -0.3168  0.2836
  802MOL0     C 8154   1.043   7.864   9.807 -0.5297 -0.2434  0.0542
  802MOL0     C 8155   0.945   7.776   9.869  0.9102  0.1266  0.4690
  802MOL0     C 8156   0.827   7.744   9.778 -0.6676  1.2268  0.8492
  802MOL0     C 8157   0.733   7.873   9.750 -0.5768  1.2575  0.5986
  802MOL0     C 8158   0.696   7.963   9.875 -0.5000 -0.1956 -1.4026
  802MOL0     O 8159   0.608   7.890   9.957 -0.3779  0.4900  0.1651
  802MOL0     C 8160   0.552   7.955  10.063  0.1261  0.3205  1.0835
  802MOL0     C 8161   0.591   8.086  10.111  0.3672  0.0121  0.2490
  802MOL0     C 8162   0.521   8.156  10.208  0.1914 -0.4291  0.0572
  802MOL0     C 8163   0.571   8.300  10.236  0.7830 -0.5868  0.8471
  802MOL0     C 8164   0.411   8.095  10.277  0.1188 -0.0885  0.3777
  802MOL0     C 8165   0.310   8.149  10.380  0.4291  1.2227  0.0735
  802MOL0     O 8166   0.202   8.079  10.413  0.0805  0.8876  0.3065
  802MOL0     C 8167   0.083   8.136  10.467 -1.0403 -0.5335  0.4424
  802MOL0     C 8168  -0.036   8.057  10.448 -0.2435 -0.3581 -0.2546
  802MOL0     C 8169  -0.164   8.098  10.503 -0.1858 -0.7487  0.6681
  802MOL0     C 8170  -0.169   8.226  10.558 -0.0421  0.0243 -0.4090
  802MOL0     O 8171  -0.295   8.278  10.587  0.2080  0.7062 -0.7255
  802MOL0     C 8172  -0.415   8.242  10.520  0.2587 -0.6217  0.0170
  802MOL0     C 8173  -0.527   8.304  10.591  0.9839 -0.1229 -0.2626
  802MOL0     C 8174  -0.661   8.280  10.505 -0.6033 -0.0353  0.7908
  802MOL0     C 8175  -0.785   8.362  10.551 -0.3268  0.6022  0.0306
  802MOL0     C 8176  -0.908   8.313  10.472  0.6293  0.4319  0.2856
  802MOL0     C 8177  -1.020   8.414  10.499 -0.8488 -0.0463 -0.7233
  802MOL0     C 8178  -1.145   8.362  10.433  0.7313  0.1851 -0.0920
  802MOL0     C 8179  -1.278   8.425  10.485  0.2856 -0.0198  0.0151
  802MOL0    Cl 8180  -1.272   8.598  10.452  0.2170 -0.4539  0.0222
  802MOL0     C 8181  -0.055   8.308  10.570 -0.4209  0.8264 -0.3644
  802MOL0     C 8182   0.070   8.263  10.529  0.1592  0.8333  0.3661
  802MOL0     O 8183   0.320   8.268  10.403 -0.3031 -0.7391  0.5517
  802MOL0     C 8184   0.390   7.958  10.245 -0.6495  1.0132  0.1715
  802MOL0     C 8185   0.452   7.890  10.135  0.0735 -0.1535 -0.0021
  802MOL0     N 8186   1.038   8.000   9.784 -0.1648  0.8313  0.0632
  802MOL0     N 8187   1.149   8.038   9.727 -0.3891 -0.3203 -0.2729
  802MOL0     C 8188   2.391   8.165   9.249  0.2739  1.2317  0.3166
  802MOL0     C 8189   2.508   8.239   9.263 -0.1270 -0.0576 -0.5025
  802MOL0     C 8190   2.758   8.615   9.388  0.4741  0.1522 -0.6496
  802MOL0     C 8191   2.845   8.536   9.465  0.0140  0.7452 -0.2588
  802MOL0     C 8192   2.973   8.589   9.502  0.4158 -0.5871 -0.1573
  802MOL0     C 8193   3.013   8.715   9.470  0.0470 -0.5416 -0.2291
  802MOL0     O 8194   3.148   8.745   9.502  0.0060  0.7278  1.0504
  802MOL0     C 8195   3.190   8.859   9.436  0.2763  0.5851 -0.3294
  802MOL0     C 8196   3.331   8.866   9.471 -0.2216  0.0723 -0.3926
  802MOL0     C 8197   3.417   8.743   9.423  0.1656 -0.3188 -0.0220
  802MOL0     C 8198   3.562   8.769   9.449  0.7283  0.3490  0.0343
  802MOL0     C 8199   3.591   8.795   9.595  0.1821 -0.2921  0.7224
  802MOL0     C 8200   3.616   8.823   9.717  0.8074  0.0512 -0.1878
  802MOL0     C 8201   2.920   8.791   9.392  0.3200  0.0049  0.2132
  802MOL0     C 8202   2.787   8.748   9.358 -0.3372  1.1205 -0.2566
  802MOL0     H 8203   2.376   8.497   9.435  1.2684 -0.5949  0.3874
  802MOL0     H 8204   2.176   8.359   9.420 -2.6096 -3.6435 -0.6654
  802MOL0     H 8205   2.032   8.151   9.440  0.7475 -1.9069 -0.0653
  802MOL0     H 8206   1.969   8.219   9.289 -0.0109  1.3734  1.1772
  802MOL0     H 8207   1.952   8.010   9.184 -1.6458 -1.6373 -0.0716
  802MOL0     H 8208   1.993   7.934   9.347 -2.8436 -0.1723  1.1183
  802MOL0     H 8209   1.769   8.130   9.290 -1.2541  1.2534  2.4186
  802MOL0     H 8210   1.735   7.958   9.260  0.0127  1.4983 -1.9279
  802MOL0     H 8211   1.784   7.902   9.493  1.7832 -0.2457  1.7332
  802MOL0     H 8212   1.843   8.071   9.527 -0.2094 -0.3773  0.8672
  802MOL0     H 8213   1.626   8.159   9.493 -1.2608 -0.1562 -2.9346
  802MOL0     H 8214   1.567   8.005   9.446  1.3936 -4.1439  1.0718
  802MOL0     H 8215   1.617   7.915   9.677  0.7526 -0.2141  2.3908
  802MOL0     H 8216   1.665   8.084   9.725 -0.9896  2.2946 -0.3894
  802MOL0     H 8217   1.432   8.062   9.792 -0.2313  3.3947 -0.3025
  802MOL0     H 8218   1.414   8.128   9.624 -3.0957 -3.7230 -2.5850
  802MOL0     H 8219   1.418   7.834   9.694 -0.3252 -0.6408  1.2046
  802MOL0     H 8220   1.340   7.908   9.544  0.4180 -1.7853 -0.6604
  802MOL0     H 8221   1.196   7.720   9.783 -5.3283 -1.6678  2.0847
  802MOL0     H 8222   0.997   7.682   9.890 -0.1159 -1.7752 -4.0790
  802MOL0     H 8223   0.907   7.808   9.966  1.5781  2.2691  0.0752
  802MOL0     H 8224   0.765   7.665   9.821 -2.3070  1.8080 -0.3443
  802MOL0     H 8225   0.859   7.691   9.688  2.2408  2.4081  1.0748
  802MOL0     H 8226   0.649   7.830   9.695  0.8627 -1.3314  0.2312
  802MOL0     H 8227   0.791   7.929   9.676 -0.3880 -0.8420 -0.9256
  802MOL0     H 8228   0.637   8.048   9.840 -2.8056 -1.6472 -1.2142
  802MOL0     H 8229   0.783   8.001   9.930 -1.7379  1.3644 -0.4041
  802MOL0     H 8230   0.671   8.144  10.067  3.3824 -0.8285  4.0845
  802MOL0     H 8231   0.493   8.371  10.209  1.6074  1.0460  2.5826
  802MOL0     H 8232   0.588   8.319  10.342  0.4182  4.7017  0.2386
  802MOL0     H 8233   0.662   8.324  10.179 -0.3827  2.1689 -0.0066
  802MOL0     H 8234  -0.016   7.963  10.399  0.3063 -1.1266  1.3664
  802MOL0     H 8235  -0.244   8.026  10.492 -0.0486 -1.0253  1.4010
  802MOL0     H 8236  -0.418   8.263  10.413  1.5896 -1.7946 -0.2949
  802MOL0     H 8237  -0.430   8.133  10.520 -1.5845 -0.4622 -2.4714
  802MOL0     H 8238  -0.533   8.262  10.692 -0.4590 -0.1284 -0.3342
  802MOL0     H 8239  -0.513   8.412  10.604 -2.4284  0.2977  0.7836
  802MOL0     H 8240  -0.687   8.174  10.513  1.3218 -0.5063  1.3472
  802MOL0     H 8241  -0.642   8.287  10.398  1.8344 -0.8077  1.1319
  802MOL0     H 8242  -0.789   8.348  10.659 -0.8512 -1.9271 -0.2525
  802MOL0     H 8243  -0.768   8.470  10.547  1.2600  0.4243  1.0243
  802MOL0     H 8244  -0.929   8.212  10.508 -0.2350  1.7029  3.7322
  802MOL0     H 8245  -0.890   8.317  10.364 -1.4746 -0.6304 -0.1511
  802MOL0     H 8246  -1.041   8.424  10.606 -3.0554 -0.2390 -1.0991
  802MOL0     H 8247  -0.997   8.514  10.460 -1.1528  0.2258 -0.2150
  802MOL0     H 8248  -1.159   8.255  10.453  0.8634 -0.6976 -3.8823
  802MOL0     H 8249  -1.140   8.366  10.324 -1.8644  1.1266 -0.2600
  802MOL0     H 8250  -1.294   8.421  10.593 -2.5647 -0.6271 -0.3660
  802MOL0     H 8251  -1.361   8.364  10.449 -1.8365 -0.1006  4.4341
  802MOL0     H 8252  -0.064   8.403  10.621  2.3284  0.9895 -0.0479
  802MOL0     H 8253   0.157   8.326  10.544  0.6887  1.1208 -3.0299
  802MOL0     H 8254   0.303   7.915  10.293  0.0845  2.2310  2.7290
  802MOL0     H 8255   0.417   7.795  10.095 -1.5967 -0.2403  1.4959
  802MOL0     H 8256   2.395   8.076   9.187 -1.5353  0.9770  0.5234
  802MOL0     H 8257   2.605   8.208   9.223  0.3112  2.1420 -1.2899
  802MOL0     H 8258   2.826   8.434   9.498  0.2785  1.1868  1.3498
  802MOL0     H 8259   3.053   8.535   9.552  0.5301  0.1420  0.4719
  802MOL0     H 8260   3.174   8.847   9.328  0.7291  0.2462 -0.3624
  802MOL0     H 8261   3.126   8.941   9.469  0.6170  1.3843 -1.5900
  802MOL0     H 8262   3.341   8.868   9.580 -0.6980 -2.7042 -0.2252
  802MOL0     H 8263   3.368   8.966   9.447  0.7454  0.3384  1.9094
  802MOL0     H 8264   3.398   8.717   9.319  2.6997 -1.1399 -0.3282
  802MOL0     H 8265   3.386   8.651   9.474 -1.5069  1.8918  3.3529
  802MOL0     H 8266   3.598   8.852   9.388 -0.7043  0.6757 -0.3977
  802MOL0     H 8267   3.616   8.684   9.407  2.8349  2.0140 -0.8124
  802MOL0     H 8268   3.626   8.851   9.820  1.1088  3.7211 -1.0830
  802MOL0     H 8269   2.934   8.889   9.349 -2.1491  0.6075  0.6542
  802MOL0     H 8270   2.716   8.814   9.309  0.0875  1.4177 -0.4848
  803MOL0     O 8271   9.383   1.860   1.231  0.3392  0.0569  0.2935
  803MOL0     C 8272   9.387   1.737   1.236  0.1094  0.2994 -0.8154
  803MOL0     O 8273   9.301   1.659   1.297  0.5795  0.3235  0.4615
  803MOL0     C 8274   9.186   1.713   1.350  0.2000  0.0095  0.8903
  803MOL0     C 8275   9.072   1.719   1.265  0.4446 -0.0875  0.1268
  803MOL0     C 8276   8.953   1.763   1.319  0.6377 -0.2120  0.8380
  803MOL0     C 8277   8.936   1.789   1.454 -0.0123 -0.4390 -0.6824
  803MOL0     O 8278   8.804   1.821   1.483 -0.8013  0.0576  0.3499
  803MOL0     C 8279   8.778   1.857   1.625  0.1493 -0.2189  0.5629
  803MOL0     C 8280   8.747   1.725   1.693  0.3421  0.1097  0.0357
  803MOL0     C 8281   8.711   1.763   1.844  0.2255  0.7224  0.4970
  803MOL0     C 8282   8.708   1.642   1.951 -0.2804 -0.2105 -0.0375
  803MOL0     C 8283   8.689   1.699   2.095  0.0304  0.0042  0.3109
  803MOL0     C 8284   8.707   1.580   2.195  0.2402  0.9349 -0.3172
  803MOL0     C 8285   8.740   1.614   2.346 -0.4874  0.1342 -0.1567
  803MOL0     C 8286   8.650   1.722   2.413 -0.3137 -0.4720  0.3687
  803MOL0     N 8287   8.503   1.684   2.423  0.5280  0.3336  0.3347
  803MOL0     C 8288   8.434   1.671   2.545 -0.4961 -0.2842 -0.0320
  803MOL0     C 8289   8.298   1.672   2.514  0.1848 -0.6606 -0.0886
  803MOL0     C 8290   8.183   1.658   2.607 -0.3097  0.4695  0.5104
  803MOL0     C 8291   8.194   1.531   2.693 -0.9440  1.3507  0.0319
  803MOL0     C 8292   8.155   1.396   2.615 -0.3108  0.6458  0.4353
  803MOL0     C 8293   8.261   1.337   2.521  0.4408  0.7142 -1.1725
  803MOL0     O 8294   8.370   1.294   2.600 -0.3267  0.5149 -0.1563
  803MOL0     C 8295   8.460   1.221   2.530  0.1761 -0.0946  0.2223
  803MOL0     C 8296   8.518   1.110   2.595  0.2249 -0.6918  1.0920
  803MOL0     C 8297   8.604   1.018   2.528 -0.0520 -0.5319  0.3711
  803MOL0     C 8298   8.663   0.891   2.603  0.2923 -0.3848  0.7314
  803MOL0     C 8299   8.638   1.040   2.395 -0.5768  0.6507 -0.4462
  803MOL0     C 8300   8.735   0.961   2.323  0.0091 -0.0232 -0.1517
  803MOL0     O 8301   8.869   0.971   2.369  0.0573 -0.8631  0.9380
  803MOL0     C 8302   8.969   0.884   2.313  0.7050 -0.9739  0.7935
  803MOL0     C 8303   9.083   0.887   2.393 -0.3408 -0.7160 -0.0681
  803MOL0     C 8304   9.202   0.815   2.353 -0.2409 -0.7700  0.7897
  803MOL0     C 8305   9.204   0.745   2.223  0.4257 -0.7731 -0.6953
  803MOL0     O 8306   9.307   0.677   2.177 -0.6431  0.7033 -0.1594
  803MOL0     C 8307   9.424   0.757   2.165 -0.4148  0.0477  0.7122
  803MOL0     C 8308   9.540   0.676   2.105 -0.8119  0.5813  0.0945
  803MOL0     C 8309   9.672   0.719   2.162  1.1388  0.6019  0.2109
  803MOL0     C 8310   9.789   0.642   2.111 -0.3623  0.1902  0.0473
  803MOL0     C 8311   9.924   0.679   2.172 -0.3441  0.4034 -0.5520
  803MOL0     C 8312  10.045   0.628   2.103 -0.6102  0.0356  0.5699
  803MOL0     C 8313  10.064   0.672   1.957 -0.1535  0.0932  0.1145
  803MOL0     C 8314  10.209   0.653   1.912 -0.4179 -0.2274 -0.4336
  803MOL0    Cl 8315  10.340   0.753   1.997  0.3569 -0.1475  0.0574
  803MOL0     C 8316   9.083   0.735   2.156 -0.1696 -0.0226  0.3527
  803MOL0     C 8317   8.970   0.808   2.196 -0.2209  0.3765  0.8376
  803MOL0     O 8318   8.693   0.885   2.238 -0.3910 -0.3160  0.6381
  803MOL0     C 8319   8.583   1.152   2.325 -0.1470  0.3889  0.3944
  803MOL0     C 8320   8.505   1.238   2.395  0.9983 -0.3707 -0.4648
  803MOL0     N 8321   8.291   1.690   2.370  0.0516 -0.2408  0.3364
  803MOL0     N 8322   8.409   1.696   2.318  0.1484  0.4360  0.3880
  803MOL0     C 8323   9.046   1.782   1.534  0.0502 -0.3459 -0.2961
  803MOL0     C 8324   9.168   1.749   1.481 -0.3076  0.1005  1.1291
  803MOL0     C 8325   9.496   1.690   1.153  0.1136 -0.1372 -0.8137
  803MOL0     C 8326   9.606   1.772   1.116  0.2906 -0.0106 -0.4223
  803MOL0     C 8327   9.715   1.713   1.051  0.1374 -0.2065  0.1450
  803MOL0     C 8328   9.698   1.575   1.005 -0.6177 -0.3756  0.5639
  803MOL0     O 8329   9.791   1.527   0.918 -0.0551  0.0317  0.6361
  803MOL0     C 8330   9.909   1.603   0.894 -0.4323  0.4969 -0.4001
  803MOL0     C 8331  10.020   1.526   0.818  0.2320 -0.3531 -0.6013
  803MOL0     C 8332  10.031   1.379   0.865  0.5353  0.0614 -0.0156
  803MOL0     C 8333  10.130   1.294   0.780 -0.0948  0.3787  0.5370
  803MOL0     C 8334  10.073   1.281   0.648  0.3014 -0.3416  0.7035
  803MOL0     C 8335  10.031   1.256   0.533 -0.8363 -0.8311 -0.3249
  803MOL0     C 8336   9.594   1.502   1.033 -0.0775  0.7567 -0.3467
  803MOL0     C 8337   9.499   1.555   1.116 -0.1481 -0.3366  0.8907
  803MOL0     H 8338   9.082   1.690   1.161 -0.9245  0.6509 -0.2328
  803MOL0     H 8339   8.858   1.765   1.266  0.0860 -3.5049  1.5144
  803MOL0     H 8340   8.861   1.914   1.668  1.8279 -0.5695 -1.9765
  803MOL0     H 8341   8.685   1.914   1.631  0.9693  1.0406  2.1695
  803MOL0     H 8342   8.659   1.681   1.646  0.4803  1.5702 -1.6643
  803MOL0     H 8343   8.829   1.654   1.676 -1.2168 -1.5609 -0.7925
  803MOL0     H 8344   8.776   1.841   1.884 -0.2557  1.2730  0.2287
  803MOL0     H 8345   8.613   1.808   1.823 -0.1512 -0.9906 -1.8383
  803MOL0     H 8346   8.621   1.582   1.923 -0.6046  1.1269 -2.0529
  803MOL0     H 8347   8.798   1.581   1.948  0.2549  0.6011 -1.3881
  803MOL0     H 8348   8.767   1.774   2.112 -0.4018  1.0916 -2.0568
  803MOL0     H 8349   8.595   1.749   2.118 -0.5768 -0.8406 -0.3001
  803MOL0     H 8350   8.622   1.513   2.183 -0.0101  1.0086  0.9017
  803MOL0     H 8351   8.794   1.537   2.145 -1.3853 -2.0807 -0.7968
  803MOL0     H 8352   8.737   1.518   2.398  0.6159 -1.6292 -3.0849
  803MOL0     H 8353   8.837   1.664   2.346 -0.7522  0.6584 -0.4669
  803MOL0     H 8354   8.666   1.815   2.358  0.3048  0.4518  2.0440
  803MOL0     H 8355   8.691   1.730   2.514  0.8500  0.2796 -0.1396
  803MOL0     H 8356   8.478   1.653   2.642 -0.1824 -0.9742 -0.2976
  803MOL0     H 8357   8.186   1.744   2.674  1.6785 -0.1559  1.3271
  803MOL0     H 8358   8.087   1.664   2.557 -0.6273 -0.2961  1.0042
  803MOL0     H 8359   8.124   1.534   2.777 -0.8092 -2.8425  0.5162
  803MOL0     H 8360   8.290   1.524   2.746 -0.8295 -4.2896 -0.2918
  803MOL0     H 8361   8.056   1.406   2.569 -0.4732  3.5128  1.2717
  803MOL0     H 8362   8.152   1.321   2.694  0.9507  0.2532  0.1321
  803MOL0     H 8363   8.293   1.403   2.440  1.0601  0.6903 -0.9574
  803MOL0     H 8364   8.217   1.251   2.469  1.2527 -1.1537  1.0382
  803MOL0     H 8365   8.487   1.088   2.696  1.1982 -3.1442  0.9291
  803MOL0     H 8366   8.757   0.859   2.558 -0.9544  0.1250 -2.5046
  803MOL0     H 8367   8.679   0.917   2.708 -0.9725  4.4037 -0.0070
  803MOL0     H 8368   8.583   0.818   2.589  0.2224 -0.1396 -0.2242
  803MOL0     H 8369   9.075   0.926   2.494  0.3030 -1.2617  0.2049
  803MOL0     H 8370   9.296   0.815   2.407  0.5055  0.1952 -0.4410
  803MOL0     H 8371   9.404   0.849   2.109  1.3541  0.4101  0.6145
  803MOL0     H 8372   9.448   0.793   2.265 -3.5258  4.1165  0.2633
  803MOL0     H 8373   9.538   0.568   2.119  5.6380 -0.1949 -1.9441
  803MOL0     H 8374   9.540   0.696   1.998  1.1066 -0.1573 -0.0754
  803MOL0     H 8375   9.665   0.702   2.270  2.3577  2.2338  0.5760
  803MOL0     H 8376   9.685   0.825   2.140  0.5174  0.8226  0.8520
  803MOL0     H 8377   9.781   0.534   2.125  0.5671  0.0916 -0.1338
  803MOL0     H 8378   9.795   0.663   2.004 -0.3792  0.9660  0.1970
  803MOL0     H 8379   9.940   0.642   2.273 -0.0684  1.9220 -0.0065
  803MOL0     H 8380   9.930   0.788   2.173  1.3564  0.3352  0.0105
  803MOL0     H 8381  10.132   0.656   2.163  0.2938 -6.7131  3.3684
  803MOL0     H 8382  10.051   0.519   2.110  2.1220  0.2032  2.5243
  803MOL0     H 8383  10.040   0.778   1.946  0.6823  0.6061  2.6791
  803MOL0     H 8384   9.991   0.617   1.897 -0.5872  2.0445 -1.2662
  803MOL0     H 8385  10.223   0.676   1.806 -0.5657  0.1310 -0.3783
  803MOL0     H 8386  10.246   0.551   1.929  0.5695  0.6456  4.0283
  803MOL0     H 8387   9.087   0.690   2.057 -1.4493  1.6892 -0.5289
  803MOL0     H 8388   8.885   0.800   2.129 -0.3316  2.4042  0.6797
  803MOL0     H 8389   8.620   1.163   2.223  0.2257 -0.2054  0.4610
  803MOL0     H 8390   8.478   1.332   2.347 -0.8818 -0.2784  0.6900
  803MOL0     H 8391   9.023   1.801   1.639 -3.5864 -0.2822 -0.9892
  803MOL0     H 8392   9.246   1.721   1.552  0.5759  2.4974  1.2086
  803MOL0     H 8393   9.616   1.876   1.148 -1.4235  0.1236 -0.2488
  803MOL0     H 8394   9.794   1.787   1.043 -1.6631  2.0542  1.9720
  803MOL0     H 8395   9.894   1.700   0.848 -0.7587  2.0574  2.7192
  803MOL0     H 8396   9.965   1.622   0.986  1.3115  0.8112 -1.4748
  803MOL0     H 8397  10.112   1.584   0.826 -1.0940  1.9371 -1.0386
  803MOL0     H 8398   9.986   1.516   0.715 -2.2149 -1.9253  0.2694
  803MOL0     H 8399   9.929   1.339   0.857  0.4717  0.6362 -4.0362
  803MOL0     H 8400  10.042   1.368   0.973 -3.8357  1.4262  0.7926
  803MOL0     H 8401  10.142   1.197   0.827  2.2634 -0.8860 -2.3462
  803MOL0     H 8402  10.226   1.346   0.770 -0.2370  0.8633  1.5885
  803MOL0     H 8403  10.003   1.229   0.434 -4.4136 -0.1218  0.3654
  803MOL0     H 8404   9.601   1.399   1.000  0.0480  1.0655 -1.3325
  803MOL0     H 8405   9.425   1.484   1.151 -3.7552 -0.0954 -4.9406
  804MOL0     O 8406   7.361   5.397   4.421 -1.0606  0.2934 -0.4893
  804MOL0     C 8407   7.463   5.431   4.472 -0.1287 -0.3048  0.7196
  804MOL0     O 8408   7.475   5.524   4.574 -0.6199 -0.7213  0.3818
  804MOL0     C 8409   7.361   5.586   4.619  0.1206  0.2498  0.5145
  804MOL0     C 8410   7.246   5.630   4.546  0.6340 -0.0832 -0.1092
  804MOL0     C 8411   7.133   5.675   4.610  0.2139 -0.4034 -0.1667
  804MOL0     C 8412   7.142   5.678   4.753  0.2939 -0.8871  0.4669
  804MOL0     O 8413   7.031   5.726   4.821  0.3469  0.4350  0.1740
  804MOL0     C 8414   6.920   5.644   4.831  0.4689  0.6439  0.5142
  804MOL0     C 8415   6.794   5.727   4.850 -0.2652  0.0951 -1.2221
  804MOL0     C 8416   6.676   5.643   4.826  0.5230 -0.8919 -0.1442
  804MOL0     C 8417   6.542   5.700   4.862 -0.4174  0.3199  0.2043
  804MOL0     C 8418   6.425   5.603   4.894  0.1977 -0.1521  0.4297
  804MOL0     C 8419   6.382   5.526   4.771 -0.4920  0.7959 -0.5982
  804MOL0     C 8420   6.229   5.468   4.795 -0.0949 -0.1178  0.6727
  804MOL0     C 8421   6.122   5.564   4.742 -0.8810  0.3782 -0.4628
  804MOL0     N 8422   5.993   5.493   4.709 -0.2182  0.1623  0.8889
  804MOL0     C 8423   5.931   5.426   4.812 -0.2395  0.6742 -0.4517
  804MOL0     C 8424   5.809   5.406   4.750  0.2438  0.4361  1.0930
  804MOL0     C 8425   5.687   5.369   4.832  0.1987 -0.5611 -0.3050
  804MOL0     C 8426   5.615   5.246   4.788 -0.3972  0.1907  1.0810
  804MOL0     C 8427   5.496   5.217   4.871 -0.9886 -0.3435 -0.2762
  804MOL0     C 8428   5.387   5.126   4.805 -0.2602 -0.9614 -0.3694
  804MOL0     O 8429   5.342   5.183   4.682  0.0187 -0.0303  0.1802
  804MOL0     C 8430   5.214   5.142   4.631  0.3431  0.3692 -0.9313
  804MOL0     C 8431   5.153   5.029   4.671  0.9316 -0.0000 -1.1021
  804MOL0     C 8432   5.028   4.989   4.628  0.0949 -0.9319 -0.6168
  804MOL0     C 8433   4.962   4.860   4.675 -0.6729  0.2365 -0.4136
  804MOL0     C 8434   4.956   5.073   4.543  0.4688  0.1730 -0.5959
  804MOL0     C 8435   4.820   5.045   4.484  0.1123  0.4430  0.2389
  804MOL0     O 8436   4.740   5.162   4.468 -0.3304  0.1563 -0.1607
  804MOL0     C 8437   4.613   5.161   4.397 -0.1774  0.3328  0.1789
  804MOL0     C 8438   4.542   5.056   4.333 -0.7081 -0.5860 -0.9141
  804MOL0     C 8439   4.419   5.086   4.272  0.0586 -0.7537  0.2789
  804MOL0     C 8440   4.347   5.207   4.286  0.0956 -0.5113 -0.9642
  804MOL0     O 8441   4.228   5.234   4.220  0.2125  0.9340  0.4170
  804MOL0     C 8442   4.210   5.155   4.100 -0.2960  0.0090 -0.0820
  804MOL0     C 8443   4.145   5.249   3.998  0.5941  0.2805 -0.3509
  804MOL0     C 8444   4.231   5.374   3.964  0.9266  0.2141 -1.1520
  804MOL0     C 8445   4.361   5.351   3.883 -0.0213 -0.1583 -0.4741
  804MOL0     C 8446   4.444   5.482   3.896 -0.2649  0.6262 -0.1470
  804MOL0     C 8447   4.518   5.507   4.030  0.1406  0.5710  1.3678
  804MOL0     C 8448   4.629   5.408   4.044  0.0125  1.2458 -0.4989
  804MOL0     C 8449   4.729   5.425   4.158  0.2054 -0.8039  0.3341
  804MOL0    Cl 8450   4.856   5.296   4.140 -0.4397 -0.0294 -0.3924
  804MOL0     C 8451   4.414   5.312   4.357 -0.2610 -0.3287 -0.9898
  804MOL0     C 8452   4.541   5.283   4.406 -0.6787  0.9576 -0.5108
  804MOL0     O 8453   4.796   4.931   4.435  0.0674 -0.6793  0.5591
  804MOL0     C 8454   5.019   5.192   4.496  0.0964  0.0511  0.4377
  804MOL0     C 8455   5.144   5.225   4.538 -0.7241  0.3652 -0.6480
  804MOL0     N 8456   5.813   5.443   4.611  0.3097 -0.7411 -0.4261
  804MOL0     N 8457   5.928   5.490   4.586  0.3576  0.0636  0.1509
  804MOL0     C 8458   7.258   5.658   4.824  0.0484  0.1457 -0.2237
  804MOL0     C 8459   7.368   5.604   4.754  0.2427  0.1021 -0.6353
  804MOL0     C 8460   7.589   5.358   4.430  0.3149  0.3861  0.0372
  804MOL0     C 8461   7.702   5.344   4.512  0.8268 -0.6969 -0.1849
  804MOL0     C 8462   7.805   5.267   4.471  0.4840  0.6744  0.7068
  804MOL0     C 8463   7.810   5.222   4.334  0.2456 -0.1444 -0.2571
  804MOL0     O 8464   7.922   5.176   4.266  0.8154 -0.4616 -0.3691
  804MOL0     C 8465   8.043   5.146   4.343 -0.2930 -0.2017  0.5485
  804MOL0     C 8466   8.138   5.118   4.226 -0.2451 -0.2302  0.3520
  804MOL0     C 8467   8.284   5.116   4.276  0.0422 -0.1808 -0.9192
  804MOL0     C 8468   8.390   5.137   4.170 -0.0752  0.4142 -0.9876
  804MOL0     C 8469   8.395   5.029   4.073 -0.3703  0.2348  0.6810
  804MOL0     C 8470   8.422   4.948   3.986 -0.2959  0.3857 -0.5195
  804MOL0     C 8471   7.710   5.254   4.246 -0.3349 -0.6052  0.7900
  804MOL0     C 8472   7.598   5.312   4.296  0.8943 -0.4864  0.0087
  804MOL0     H 8473   7.248   5.639   4.438  0.5078  0.3103 -0.0793
  804MOL0     H 8474   7.048   5.712   4.552 -1.0518 -0.4331  1.5912
  804MOL0     H 8475   6.900   5.599   4.733  0.0209  5.1545 -1.7442
  804MOL0     H 8476   6.925   5.572   4.913 -0.3522 -1.1670 -0.9660
  804MOL0     H 8477   6.790   5.769   4.951 -2.4404  1.0690 -1.6464
  804MOL0     H 8478   6.792   5.814   4.783  0.3972 -0.0220 -1.3978
  804MOL0     H 8479   6.674   5.639   4.717 -1.1728  3.8751 -0.5482
  804MOL0     H 8480   6.681   5.546   4.876 -0.2209 -1.5030 -1.2216
  804MOL0     H 8481   6.546   5.753   4.957 -2.0704  1.7809 -0.4939
  804MOL0     H 8482   6.524   5.776   4.785  3.3742  0.5364 -0.6759
  804MOL0     H 8483   6.460   5.529   4.967 -1.0471  0.8083  2.0740
  804MOL0     H 8484   6.339   5.656   4.934 -0.7129 -0.8376 -0.5748
  804MOL0     H 8485   6.386   5.588   4.681 -1.6995  0.3539 -0.9878
  804MOL0     H 8486   6.442   5.439   4.743 -1.9140 -1.8759  3.6178
  804MOL0     H 8487   6.208   5.377   4.738  1.0396  0.1856 -0.2729
  804MOL0     H 8488   6.200   5.440   4.897  1.2476 -0.8819  0.8794
  804MOL0     H 8489   6.166   5.605   4.650  1.0446 -0.1162  0.2028
  804MOL0     H 8490   6.114   5.641   4.819  0.7450  1.8055 -1.6416
  804MOL0     H 8491   5.956   5.402   4.914 -2.5533 -0.9300 -0.1650
  804MOL0     H 8492   5.719   5.349   4.934 -0.8273 -2.0700 -0.2549
  804MOL0     H 8493   5.623   5.458   4.830  1.3468  0.2960 -0.4671
  804MOL0     H 8494   5.676   5.155   4.786 -0.2014  0.3347  0.3293
  804MOL0     H 8495   5.575   5.269   4.689  0.1091  1.4778  1.1515
  804MOL0     H 8496   5.455   5.315   4.897 -0.2425  0.5488 -2.2401
  804MOL0     H 8497   5.529   5.162   4.959 -4.3626 -3.0430 -0.4937
  804MOL0     H 8498   5.300   5.121   4.871  1.0994  0.3975  1.6920
  804MOL0     H 8499   5.413   5.021   4.788 -0.6117 -0.7987 -2.0003
  804MOL0     H 8500   5.196   4.964   4.746  0.3906  0.4173 -0.4222
  804MOL0     H 8501   4.867   4.878   4.727 -0.4314 -1.8096  0.8843
  804MOL0     H 8502   4.943   4.782   4.600 -0.4719 -1.8239  1.5662
  804MOL0     H 8503   5.031   4.807   4.741 -1.8715 -2.2187 -1.0101
  804MOL0     H 8504   4.570   4.952   4.335 -1.7297 -0.8687 -0.7471
  804MOL0     H 8505   4.370   5.003   4.220  2.2975 -0.8497 -1.8478
  804MOL0     H 8506   4.307   5.131   4.054  0.4128  0.7040  1.0097
  804MOL0     H 8507   4.145   5.067   4.098 -0.8153  0.2382  2.7381
  804MOL0     H 8508   4.121   5.186   3.911 -1.1282 -0.1534  0.4049
  804MOL0     H 8509   4.053   5.286   4.044 -1.5008 -2.4609 -2.0764
  804MOL0     H 8510   4.252   5.413   4.064  1.0165 -1.6949 -0.3773
  804MOL0     H 8511   4.169   5.449   3.913  1.7032  2.2276  0.7052
  804MOL0     H 8512   4.417   5.264   3.920  0.4362 -1.1984 -3.3612
  804MOL0     H 8513   4.334   5.323   3.781 -2.0240  1.5829 -0.4874
  804MOL0     H 8514   4.377   5.565   3.869 -0.2766  0.4763 -0.5962
  804MOL0     H 8515   4.523   5.480   3.821 -2.1545  1.3653 -2.2972
  804MOL0     H 8516   4.557   5.609   4.044  0.4054  1.2424 -2.9005
  804MOL0     H 8517   4.450   5.504   4.116  0.3547  0.5993  1.5369
  804MOL0     H 8518   4.693   5.406   3.956  0.6846 -0.4753 -0.0197
  804MOL0     H 8519   4.576   5.312   4.055 -1.4952  2.1796  0.7731
  804MOL0     H 8520   4.691   5.439   4.260  2.4483  2.6797  0.8515
  804MOL0     H 8521   4.781   5.517   4.130 -1.5154 -0.2150 -1.0940
  804MOL0     H 8522   4.360   5.403   4.383  2.0276 -0.1339  4.0528
  804MOL0     H 8523   4.595   5.353   4.470 -1.9272 -0.3267  2.1163
  804MOL0     H 8524   4.969   5.248   4.418  1.8301 -0.4357 -1.1087
  804MOL0     H 8525   5.203   5.310   4.507 -0.4098 -0.7496 -3.3875
  804MOL0     H 8526   7.258   5.667   4.932  0.0732 -1.5221 -0.0580
  804MOL0     H 8527   7.447   5.557   4.813 -1.2852 -1.6625  0.1164
  804MOL0     H 8528   7.702   5.374   4.616  0.0455  0.9872 -0.6344
  804MOL0     H 8529   7.881   5.227   4.537  0.1792  1.6904  1.7174
  804MOL0     H 8530   8.067   5.236   4.401  0.9646 -0.0521 -0.1551
  804MOL0     H 8531   8.043   5.066   4.418 -0.3259  0.5140  1.3370
  804MOL0     H 8532   8.130   5.202   4.156 -2.9636  0.0637  0.9001
  804MOL0     H 8533   8.110   5.028   4.170  1.2883 -0.5007 -0.0353
  804MOL0     H 8534   8.309   5.019   4.322 -1.9640  0.2553  1.2147
  804MOL0     H 8535   8.289   5.193   4.354  0.7345  0.4696 -1.5875
  804MOL0     H 8536   8.481   5.141   4.230  0.2570  1.7747 -1.5463
  804MOL0     H 8537   8.382   5.241   4.137  0.1689  1.6188  2.3636
  804MOL0     H 8538   8.455   4.880   3.911 -0.2491 -0.9799  0.6978
  804MOL0     H 8539   7.734   5.240   4.141  1.1904  0.1933  1.0070
  804MOL0     H 8540   7.517   5.322   4.225  1.2668 -0.0162 -0.3617
  805MOL0     O 8541   5.720   9.606   3.263 -0.5919  0.4890 -1.2238
  805MOL0     C 8542   5.683   9.533   3.362 -0.6334 -0.1214 -0.0160
  805MOL0     O 8543   5.737   9.412   3.387 -0.0006  0.6608  0.7877
  805MOL0     C 8544   5.805   9.349   3.287 -0.8321  0.2789 -0.1546
  805MOL0     C 8545   5.926   9.391   3.221 -0.3537 -0.9335  0.1422
  805MOL0     C 8546   5.985   9.310   3.120 -0.3684  0.4351 -0.8893
  805MOL0     C 8547   5.934   9.180   3.096  0.5182  0.2337  0.5393
  805MOL0     O 8548   5.991   9.081   3.015 -0.6805  0.0365 -0.3048
  805MOL0     C 8549   5.991   8.945   3.042  0.3999 -0.3747 -0.7444
  805MOL0     C 8550   6.117   8.880   2.999 -0.0797  0.0810 -0.0131
  805MOL0     C 8551   6.150   8.897   2.850  0.2711 -1.0007  0.2291
  805MOL0     C 8552   6.054   8.819   2.761 -0.1484 -0.0209  0.3714
  805MOL0     C 8553   6.092   8.812   2.600  0.4004  0.2101 -0.3522
  805MOL0     C 8554   6.122   8.955   2.552  0.0359  0.9886  0.2729
  805MOL0     C 8555   6.133   8.950   2.402  0.2707  0.7089 -0.8812
  805MOL0     C 8556   6.147   9.091   2.343 -0.7070  0.7510 -0.4032
  805MOL0     N 8557   6.210   9.077   2.211  0.6193 -0.2861  0.4847
  805MOL0     C 8558   6.347   9.052   2.186 -0.0303 -0.7653  1.0067
  805MOL0     C 8559   6.368   9.073   2.051  0.1787  1.2398  0.0240
  805MOL0     C 8560   6.502   9.059   1.980 -0.1370  1.2259 -0.1460
  805MOL0     C 8561   6.604   9.172   2.011  0.6115  0.4867 -0.2910
  805MOL0     C 8562   6.736   9.118   2.068 -0.0267 -0.3867  0.5120
  805MOL0     C 8563   6.857   9.198   2.019  0.7363  0.8268 -0.0136
  805MOL0     O 8564   6.965   9.116   2.076  0.0629  0.1776 -0.4612
  805MOL0     C 8565   7.101   9.134   2.056  0.7270 -0.7963  0.9351
  805MOL0     C 8566   7.164   9.237   1.989  0.2899 -0.1891 -0.2510
  805MOL0     C 8567   7.304   9.238   1.972 -0.8501  0.0636 -1.2246
  805MOL0     C 8568   7.366   9.347   1.891 -0.0860 -0.2643  0.0825
  805MOL0     C 8569   7.383   9.131   2.030  0.1257 -0.3986 -0.6385
  805MOL0     C 8570   7.525   9.118   1.998  0.1130 -0.4901 -0.0440
  805MOL0     O 8571   7.608   9.065   2.100 -0.4716 -0.0401  0.0910
  805MOL0     C 8572   7.746   9.052   2.077  0.0467  0.7318  0.2636
  805MOL0     C 8573   7.819   9.164   2.037  0.5763 -0.0775 -0.3672
  805MOL0     C 8574   7.953   9.151   2.007  0.5653 -0.2891  0.7853
  805MOL0     C 8575   8.023   9.033   2.028 -0.7173  0.0372 -0.0566
  805MOL0     O 8576   8.155   9.023   1.999 -0.1196 -0.2059  0.0180
  805MOL0     C 8577   8.238   9.139   1.990  0.9087 -0.1021 -0.6637
  805MOL0     C 8578   8.377   9.090   1.979  0.2259  1.0275  0.5861
  805MOL0     C 8579   8.480   9.213   1.982  0.8981 -0.1729 -0.1256
  805MOL0     C 8580   8.605   9.202   1.900  0.6678  0.9317  0.2544
  805MOL0     C 8581   8.709   9.313   1.896 -0.0323  0.6702  0.1097
  805MOL0     C 8582   8.655   9.443   1.836  0.0088 -0.4647  0.1937
  805MOL0     C 8583   8.771   9.536   1.798  0.9586 -0.2640 -0.3481
  805MOL0     C 8584   8.837   9.492   1.667 -0.6275  0.6062  0.0429
  805MOL0    Cl 8585   8.967   9.607   1.625 -0.1900 -0.1186  0.1495
  805MOL0     C 8586   7.956   8.922   2.089 -0.0508 -0.5276  0.1556
  805MOL0     C 8587   7.816   8.933   2.113 -0.3223  0.3124  0.4932
  805MOL0     O 8588   7.562   9.153   1.885  0.2815 -0.2482 -0.6937
  805MOL0     C 8589   7.318   9.027   2.095 -0.6048  0.2617  0.3792
  805MOL0     C 8590   7.176   9.029   2.104 -0.6160  0.1138 -0.1416
  805MOL0     N 8591   6.241   9.103   1.999 -0.1022  0.2426 -0.1917
  805MOL0     N 8592   6.147   9.115   2.092  0.5043  0.2998 -0.2756
  805MOL0     C 8593   5.812   9.146   3.153  0.0640 -1.1330  0.7344
  805MOL0     C 8594   5.744   9.229   3.245  0.1760 -0.3310  0.3702
  805MOL0     C 8595   5.581   9.597   3.462 -0.2808  0.2837  0.9975
  805MOL0     C 8596   5.517   9.520   3.565 -0.4189 -0.4091 -0.0002
  805MOL0     C 8597   5.428   9.584   3.650  1.0835  0.2994 -0.3784
  805MOL0     C 8598   5.405   9.725   3.645 -0.1991 -0.2832 -0.4584
  805MOL0     O 8599   5.335   9.795   3.738  0.8649 -0.7313  0.1395
  805MOL0     C 8600   5.289   9.735   3.862 -0.1850  0.4658  0.1473
  805MOL0     C 8601   5.228   9.837   3.952  0.0106  0.5014 -0.1499
  805MOL0     C 8602   5.318   9.953   3.977  1.2160 -0.4948 -0.3841
  805MOL0     C 8603   5.245  10.045   4.082 -0.3075 -0.4422  0.4220
  805MOL0     C 8604   5.261   9.998   4.220 -0.6159 -0.4460  0.3569
  805MOL0     C 8605   5.267   9.974   4.337 -0.0636  0.7842 -0.6400
  805MOL0     C 8606   5.468   9.796   3.542 -0.4784 -0.5427 -1.2191
  805MOL0     C 8607   5.557   9.733   3.454  0.1867  0.5737 -0.2362
  805MOL0     H 8608   5.973   9.480   3.262 -0.8222 -0.5491 -0.1405
  805MOL0     H 8609   6.083   9.328   3.076  1.0081 -2.4294  0.6697
  805MOL0     H 8610   5.970   8.928   3.148  1.2841 -0.0381 -0.5101
  805MOL0     H 8611   5.904   8.902   2.992 -1.9123  2.0741  0.8913
  805MOL0     H 8612   6.208   8.910   3.052 -0.7695  4.3089 -0.8942
  805MOL0     H 8613   6.110   8.773   3.022  0.0139  0.6975  3.2877
  805MOL0     H 8614   6.168   9.001   2.823  2.0970 -1.5129 -0.6722
  805MOL0     H 8615   6.253   8.859   2.852  0.5774 -0.1766  1.8259
  805MOL0     H 8616   6.064   8.718   2.800  0.5325 -0.4345 -0.8172
  805MOL0     H 8617   5.947   8.840   2.777 -0.0382  0.7048  0.1968
  805MOL0     H 8618   6.181   8.748   2.592  1.3228  1.2108  1.2752
  805MOL0     H 8619   6.007   8.761   2.555  1.5974 -2.9333  0.6457
  805MOL0     H 8620   6.046   9.023   2.592  0.5528  1.4996  0.4032
  805MOL0     H 8621   6.219   8.996   2.583  1.0043 -0.9362 -0.0781
  805MOL0     H 8622   6.227   8.897   2.387  0.9871  0.7246  2.5846
  805MOL0     H 8623   6.050   8.896   2.356 -1.2023  0.4722  1.8293
  805MOL0     H 8624   6.210   9.149   2.412  1.8138 -1.2203 -0.9035
  805MOL0     H 8625   6.047   9.132   2.323 -1.7387 -1.9515 -1.2755
  805MOL0     H 8626   6.422   9.027   2.260  1.1609  2.4468  1.0484
  805MOL0     H 8627   6.546   8.961   1.998 -2.5581  0.1361  0.3011
  805MOL0     H 8628   6.474   9.071   1.875 -0.5155  0.8357 -0.0905
  805MOL0     H 8629   6.562   9.241   2.085 -2.6590 -0.0768 -1.4728
  805MOL0     H 8630   6.624   9.233   1.922  1.1261  0.9806  0.1502
  805MOL0     H 8631   6.750   9.018   2.025  3.0933  1.3087 -3.1450
  805MOL0     H 8632   6.749   9.117   2.176  2.0581 -2.8111  0.3653
  805MOL0     H 8633   6.862   9.293   2.072  1.8888  1.0337 -0.4668
  805MOL0     H 8634   6.845   9.206   1.911 -2.5994  0.6637  0.2575
  805MOL0     H 8635   7.101   9.316   1.949  1.4178  3.3418  4.0875
  805MOL0     H 8636   7.367   9.307   1.790 -0.0856  2.3970 -1.0535
  805MOL0     H 8637   7.313   9.443   1.903  0.8878  0.2496  0.3986
  805MOL0     H 8638   7.470   9.365   1.922  1.0386 -1.6416 -2.6073
  805MOL0     H 8639   7.768   9.252   1.999  1.6568 -0.4680 -2.8612
  805MOL0     H 8640   7.988   9.252   1.989 -0.6425  0.1627  0.8845
  805MOL0     H 8641   8.216   9.201   1.903  2.8774  0.1547 -1.0227
  805MOL0     H 8642   8.222   9.210   2.072  1.2340  2.8887 -2.9931
  805MOL0     H 8643   8.396   9.026   2.065 -0.7524  1.8849  1.4602
  805MOL0     H 8644   8.403   9.034   1.888 -1.9808  2.1330 -0.8184
  805MOL0     H 8645   8.515   9.241   2.082  0.7571  0.0216 -0.1294
  805MOL0     H 8646   8.422   9.299   1.948 -0.4407 -2.7481 -5.4145
  805MOL0     H 8647   8.656   9.115   1.941 -0.1289  0.4244  0.1972
  805MOL0     H 8648   8.564   9.188   1.799  0.5287 -1.7670  0.6142
  805MOL0     H 8649   8.799   9.276   1.847 -0.7514  0.2755 -0.9443
  805MOL0     H 8650   8.739   9.342   1.997  2.5125  0.7763 -0.6173
  805MOL0     H 8651   8.602   9.416   1.744 -2.3094 -1.7458  1.7996
  805MOL0     H 8652   8.589   9.489   1.910  0.3185  1.4074 -0.6322
  805MOL0     H 8653   8.839   9.532   1.883  1.3101  0.3856 -0.5921
  805MOL0     H 8654   8.734   9.639   1.789 -1.2674 -0.8633  0.9919
  805MOL0     H 8655   8.762   9.485   1.587  0.3713  0.4660 -0.9067
  805MOL0     H 8656   8.878   9.391   1.675 -1.8407  0.0351 -0.6300
  805MOL0     H 8657   8.008   8.832   2.118 -2.3817 -1.8644  0.4206
  805MOL0     H 8658   7.758   8.857   2.165  0.0932  1.4685  2.7389
  805MOL0     H 8659   7.377   8.943   2.130 -2.4736 -0.8007  1.1201
  805MOL0     H 8660   7.128   8.949   2.159  2.4620 -0.5120  1.8986
  805MOL0     H 8661   5.767   9.054   3.119 -1.5204  0.0592 -0.5833
  805MOL0     H 8662   5.646   9.195   3.279  0.9281  0.6573  3.9047
  805MOL0     H 8663   5.545   9.418   3.590  2.2356  1.0683  4.2796
  805MOL0     H 8664   5.368   9.532   3.724  0.3360 -1.1195 -1.9152
  805MOL0     H 8665   5.225   9.650   3.836 -1.3601  0.9964  1.2132
  805MOL0     H 8666   5.378   9.696   3.912  0.1419 -1.1502 -1.5907
  805MOL0     H 8667   5.207   9.791   4.049 -1.7086 -1.2871 -1.2783
  805MOL0     H 8668   5.134   9.860   3.902 -0.6079 -2.1799 -0.4020
  805MOL0     H 8669   5.341  10.012   3.888 -2.0314  0.9060 -0.4458
  805MOL0     H 8670   5.414   9.920   4.017  0.6550 -0.3038  1.1949
  805MOL0     H 8671   5.137  10.052   4.064 -0.1315 -1.4044 -1.2407
  805MOL0     H 8672   5.287  10.146   4.075 -2.4517  0.5573  1.1242
  805MOL0     H 8673   5.282   9.953   4.441  2.5317 -0.9294 -1.2539
  805MOL0     H 8674   5.468   9.905   3.533  1.8346 -0.4369 -0.5575
  805MOL0     H 8675   5.615   9.793   3.385  3.4296 -2.0661 -0.0648
  806MOL0     O 8676   9.770   5.788   6.421 -0.0601 -0.6171 -0.8530
  806MOL0     C 8677   9.742   5.903   6.385 -0.5044 -0.2065 -0.3493
  806MOL0     O 8678   9.633   5.978   6.420 -0.8696 -0.4921 -0.0628
  806MOL0     C 8679   9.520   5.915   6.461 -0.0057 -0.0290 -0.3462
  806MOL0     C 8680   9.434   5.987   6.546  0.8770  0.7211  0.1767
  806MOL0     C 8681   9.331   5.919   6.609 -0.8817 -0.2586  0.5102
  806MOL0     C 8682   9.302   5.783   6.574  0.6139  1.2568 -0.9230
  806MOL0     O 8683   9.188   5.722   6.631  0.2143 -0.9151 -0.1430
  806MOL0     C 8684   9.073   5.804   6.657 -0.0257 -0.3925 -0.7865
  806MOL0     C 8685   8.951   5.713   6.644 -0.8174  0.3502  0.8106
  806MOL0     C 8686   8.821   5.793   6.626  0.7951 -0.0251  0.3625
  806MOL0     C 8687   8.774   5.849   6.762  0.0073 -0.3904  0.0553
  806MOL0     C 8688   8.621   5.861   6.770 -0.3722  0.6823 -0.3863
  806MOL0     C 8689   8.583   5.865   6.913 -0.6312 -0.0094  0.1660
  806MOL0     C 8690   8.442   5.896   6.941  0.1591 -0.6584 -0.2594
  806MOL0     C 8691   8.337   5.794   6.883 -0.0120  0.2555 -0.1964
  806MOL0     N 8692   8.199   5.826   6.916  0.5400  0.5554 -0.3813
  806MOL0     C 8693   8.141   5.842   7.042  0.1396 -0.0750  0.1371
  806MOL0     C 8694   8.009   5.855   7.017  0.0802  0.2072  0.2853
  806MOL0     C 8695   7.893   5.862   7.115  0.4974  0.7943 -0.5092
  806MOL0     C 8696   7.877   5.721   7.175  0.0063 -0.4835 -0.0588
  806MOL0     C 8697   7.852   5.619   7.065 -0.3598 -1.2050  0.6087
  806MOL0     C 8698   7.734   5.655   6.968 -0.2435  0.6184 -0.3937
  806MOL0     O 8699   7.625   5.699   7.039  0.7796 -0.1999  0.2618
  806MOL0     C 8700   7.506   5.705   6.974 -0.2950  0.1324 -0.8255
  806MOL0     C 8701   7.490   5.750   6.844  0.8930 -0.9578  0.2255
  806MOL0     C 8702   7.353   5.735   6.794 -0.1617  0.9352  0.1865
  806MOL0     C 8703   7.335   5.728   6.637 -0.2385 -0.0069 -0.5259
  806MOL0     C 8704   7.238   5.689   6.867  0.6540  0.6442 -0.5352
  806MOL0     C 8705   7.092   5.663   6.826  0.0208  0.3852  1.0584
  806MOL0     O 8706   7.002   5.680   6.927  1.0510 -0.1871 -0.5637
  806MOL0     C 8707   6.867   5.656   6.919 -0.1337  0.3078  0.1671
  806MOL0     C 8708   6.789   5.677   6.799  0.6084  0.5807  1.4829
  806MOL0     C 8709   6.649   5.645   6.807 -0.2772 -0.8559 -0.2498
  806MOL0     C 8710   6.598   5.587   6.921  0.6172  0.6224  0.4434
  806MOL0     O 8711   6.465   5.561   6.941  0.7738 -0.5355 -0.4788
  806MOL0     C 8712   6.389   5.526   6.826  0.0262 -0.3266  0.0925
  806MOL0     C 8713   6.257   5.488   6.875  0.5239  0.3255  0.3788
  806MOL0     C 8714   6.159   5.439   6.772 -0.6313 -0.5548 -0.4892
  806MOL0     C 8715   6.017   5.462   6.824  0.3907 -0.4944  0.4365
  806MOL0     C 8716   5.907   5.386   6.750 -0.2700 -0.4630  0.6321
  806MOL0     C 8717   5.758   5.420   6.784 -0.2106  0.2204 -0.5793
  806MOL0     C 8718   5.664   5.343   6.696  0.2387 -0.0539  0.0660
  806MOL0     C 8719   5.531   5.324   6.761 -0.0021 -0.2349 -0.8558
  806MOL0    Cl 8720   5.536   5.207   6.906 -0.5672  0.4277  0.4294
  806MOL0     C 8721   6.676   5.555   7.030 -0.4691 -1.1302  1.2212
  806MOL0     C 8722   6.813   5.596   7.030 -0.0301 -0.3730 -0.0793
  806MOL0     O 8723   7.064   5.604   6.719  0.9008 -0.7761  0.2314
  806MOL0     C 8724   7.265   5.656   6.997 -0.5743  0.3177  0.3309
  806MOL0     C 8725   7.393   5.661   7.046  0.3197  0.9069 -0.5909
  806MOL0     N 8726   7.997   5.850   6.881  0.0529 -0.2462  0.1067
  806MOL0     N 8727   8.113   5.844   6.816 -0.5022  0.6297 -0.4064
  806MOL0     C 8728   9.381   5.720   6.488 -0.4333 -0.4760 -0.2088
  806MOL0     C 8729   9.491   5.784   6.442  0.1469  0.6632 -0.1750
  806MOL0     C 8730   9.840   5.962   6.294 -0.0334  0.2853  0.0755
  806MOL0     C 8731   9.861   6.099   6.314 -0.6432  0.5544 -0.2059
  806MOL0     C 8732   9.940   6.173   6.219  0.0244  0.2181 -0.2629
  806MOL0     C 8733   9.998   6.100   6.111  0.1223  0.8929  0.4998
  806MOL0     O 8734  10.086   6.172   6.036 -0.0318 -0.6106 -0.1029
  806MOL0     C 8735  10.155   6.119   5.919 -0.8491  0.7003 -0.4387
  806MOL0     C 8736  10.055   6.099   5.806 -0.4098  0.0375 -0.1136
  806MOL0     C 8737  10.099   6.100   5.660 -0.3474  0.0391 -0.9488
  806MOL0     C 8738  10.120   5.965   5.600 -0.2353  0.2116 -0.3902
  806MOL0     C 8739  10.224   5.895   5.674 -0.1197  0.3671  0.1342
  806MOL0     C 8740  10.291   5.814   5.738 -0.1880  0.9949  0.3935
  806MOL0     C 8741   9.974   5.966   6.095  0.2283 -0.9568  0.7535
  806MOL0     C 8742   9.890   5.893   6.186  0.0551 -0.3201  0.4198
  806MOL0     H 8743   9.440   6.093   6.569 -1.9373  1.2586 -1.2129
  806MOL0     H 8744   9.269   5.980   6.674 -0.7993 -0.0707  0.4134
  806MOL0     H 8745   9.067   5.862   6.750  0.0075 -1.3062 -0.2063
  806MOL0     H 8746   9.074   5.866   6.567  0.8533 -2.5977 -2.3774
  806MOL0     H 8747   8.987   5.657   6.557 -0.9304  2.6079 -0.8103
  806MOL0     H 8748   8.946   5.647   6.730  1.0064 -2.4942 -1.0925
  806MOL0     H 8749   8.838   5.871   6.551 -0.1278  1.1473  1.3461
  806MOL0     H 8750   8.745   5.724   6.589 -0.0432 -0.8614  3.3686
  806MOL0     H 8751   8.798   5.781   6.844  1.3353  0.5008  0.4395
  806MOL0     H 8752   8.833   5.936   6.792 -2.1622  1.6327 -1.2493
  806MOL0     H 8753   8.596   5.955   6.720 -0.6486 -0.0862 -1.7340
  806MOL0     H 8754   8.573   5.781   6.713  2.2793  0.2926 -2.2400
  806MOL0     H 8755   8.603   5.775   6.972  0.4230 -0.1132 -0.3201
  806MOL0     H 8756   8.642   5.943   6.961 -0.7733  0.1670  0.0533
  806MOL0     H 8757   8.432   5.908   7.049  3.4939  0.7996  0.0309
  806MOL0     H 8758   8.429   5.993   6.891  1.6411  0.2625  1.0723
  806MOL0     H 8759   8.360   5.694   6.921 -0.4085  0.4850  0.6666
  806MOL0     H 8760   8.345   5.796   6.774 -0.4049 -0.2023 -0.2412
  806MOL0     H 8761   8.201   5.848   7.132  0.0211 -0.6770  0.2629
  806MOL0     H 8762   7.919   5.938   7.189  1.7552  1.1189 -1.2559
  806MOL0     H 8763   7.797   5.888   7.069 -0.4167  0.3447  1.0906
  806MOL0     H 8764   7.791   5.718   7.242  1.3375 -1.2904  1.7026
  806MOL0     H 8765   7.961   5.699   7.242 -0.4383 -0.5795  0.4791
  806MOL0     H 8766   7.826   5.523   7.110 -1.5207 -0.9799  0.4346
  806MOL0     H 8767   7.939   5.590   7.005 -1.6082 -3.0880 -0.3728
  806MOL0     H 8768   7.695   5.567   6.915  0.2600  1.5013 -2.3061
  806MOL0     H 8769   7.756   5.733   6.895 -0.0680  0.7453 -0.2082
  806MOL0     H 8770   7.568   5.774   6.774  0.6869 -1.1320 -0.0668
  806MOL0     H 8771   7.396   5.656   6.582  2.8129  3.0576 -1.5137
  806MOL0     H 8772   7.229   5.726   6.611 -0.2656  1.2300 -0.5712
  806MOL0     H 8773   7.357   5.827   6.595  2.7603 -1.0487 -1.6258
  806MOL0     H 8774   6.830   5.722   6.709 -2.5041  0.1860 -0.2734
  806MOL0     H 8775   6.575   5.679   6.736 -0.2128  1.4468  0.6677
  806MOL0     H 8776   6.373   5.614   6.764  0.6196  1.3813  2.2407
  806MOL0     H 8777   6.436   5.444   6.771  2.3229  1.1213 -0.1976
  806MOL0     H 8778   6.277   5.404   6.942  0.6062 -0.3776 -0.5078
  806MOL0     H 8779   6.209   5.567   6.933  0.2468  0.4490 -0.0102
  806MOL0     H 8780   6.177   5.332   6.769  2.0946 -0.2762  1.8644
  806MOL0     H 8781   6.172   5.483   6.672  0.8678  1.7200  0.6238
  806MOL0     H 8782   6.008   5.444   6.931 -0.5885 -0.5253  0.3649
  806MOL0     H 8783   6.004   5.570   6.819  0.1461 -0.4346  2.0214
  806MOL0     H 8784   5.922   5.279   6.768  1.3396 -0.2396  0.7272
  806MOL0     H 8785   5.917   5.409   6.643 -1.2264  0.4004  0.7169
  806MOL0     H 8786   5.736   5.398   6.889  1.1177 -0.5622 -0.4276
  806MOL0     H 8787   5.750   5.526   6.760 -0.8082 -0.2045 -2.3966
  806MOL0     H 8788   5.693   5.242   6.667 -3.6730 -0.6024 -2.6496
  806MOL0     H 8789   5.648   5.397   6.603 -2.2026 -4.6888 -2.5372
  806MOL0     H 8790   5.473   5.279   6.680  1.6802 -0.6827 -1.8684
  806MOL0     H 8791   5.473   5.413   6.787 -1.0882  0.0049 -3.7210
  806MOL0     H 8792   6.620   5.515   7.114 -0.9837 -0.3816  1.2446
  806MOL0     H 8793   6.874   5.576   7.117 -0.3411 -3.5483 -0.4550
  806MOL0     H 8794   7.192   5.616   7.067  1.0493  0.6598  2.3197
  806MOL0     H 8795   7.417   5.610   7.139  0.0788 -0.7161 -1.3901
  806MOL0     H 8796   9.357   5.621   6.449  0.2790  0.2344 -2.6347
  806MOL0     H 8797   9.550   5.726   6.371 -1.2332  1.1597 -1.7776
  806MOL0     H 8798   9.804   6.140   6.397 -1.9377  1.5164 -1.5174
  806MOL0     H 8799   9.944   6.281   6.214 -1.2557  0.2441 -2.6461
  806MOL0     H 8800  10.230   6.197   5.902  0.7543 -0.0517  2.5846
  806MOL0     H 8801  10.202   6.023   5.939  1.8345  1.2019 -3.3793
  806MOL0     H 8802   9.975   6.171   5.824  0.5928  1.2529 -0.4231
  806MOL0     H 8803  10.000   6.007   5.830  0.3517 -0.5519 -0.5494
  806MOL0     H 8804  10.193   6.155   5.659 -0.1929 -0.1836  0.0425
  806MOL0     H 8805  10.027   6.156   5.600  3.2343  3.7408 -2.2391
  806MOL0     H 8806  10.143   5.974   5.494  0.7181 -2.5299 -0.4953
  806MOL0     H 8807  10.029   5.907   5.620 -0.3684  0.8056  0.8658
  806MOL0     H 8808  10.354   5.743   5.789 -2.1434 -2.3668 -1.4862
  806MOL0     H 8809  10.024   5.899   6.026  0.2010 -0.5680  0.3508
  806MOL0     H 8810   9.866   5.788   6.171  0.6499 -0.3419 -0.4376
  807MOL0     O 8811   8.530   8.493   6.494 -0.3402 -0.3662  0.3247
  807MOL0     C 8812   8.613   8.477   6.584  0.2924  0.5164 -0.1924
  807MOL0     O 8813   8.582   8.464   6.716  0.0679 -0.3622 -0.6197
  807MOL0     C 8814   8.459   8.487   6.764  0.8259 -0.6807  0.1701
  807MOL0     C 8815   8.350   8.416   6.710  0.3134 -0.1054 -0.8868
  807MOL0     C 8816   8.221   8.426   6.751  0.5111  0.1545 -0.2443
  807MOL0     C 8817   8.194   8.497   6.867  0.4798 -0.4251 -0.0565
  807MOL0     O 8818   8.072   8.511   6.913 -0.1608 -0.2025 -0.0695
  807MOL0     C 8819   7.981   8.403   6.913  0.6678  0.1638  0.4479
  807MOL0     C 8820   7.869   8.426   7.008  0.1189 -0.9339  0.0013
  807MOL0     C 8821   7.767   8.315   6.997  0.6427 -0.1824  0.6987
  807MOL0     C 8822   7.777   8.233   7.123 -0.2924  0.2642 -0.2182
  807MOL0     C 8823   7.698   8.102   7.120  0.6817  0.8556 -0.1220
  807MOL0     C 8824   7.553   8.141   7.103  1.0689 -0.7982  0.9517
  807MOL0     C 8825   7.456   8.024   7.136 -0.2422  0.7280 -0.3130
  807MOL0     C 8826   7.441   7.933   7.021 -0.7071 -0.3833 -1.3461
  807MOL0     N 8827   7.325   7.848   7.024 -0.3379 -0.4637  0.9773
  807MOL0     C 8828   7.199   7.891   6.980 -0.0640  0.0274 -0.0969
  807MOL0     C 8829   7.136   7.773   6.975  0.8542 -0.2933  0.1557
  807MOL0     C 8830   6.991   7.751   6.941  0.0101 -0.5372 -0.6116
  807MOL0     C 8831   6.893   7.784   7.062  0.3973 -0.1519 -0.3454
  807MOL0     C 8832   6.749   7.804   7.018 -0.4079  0.5810 -0.1238
  807MOL0     C 8833   6.688   7.682   6.954  0.2027 -0.1595 -0.5286
  807MOL0     O 8834   6.703   7.568   7.040 -0.7483  0.2030 -0.0160
  807MOL0     C 8835   6.600   7.521   7.109  0.0444  0.3515  0.4136
  807MOL0     C 8836   6.482   7.584   7.138 -0.1910 -0.4400 -0.2551
  807MOL0     C 8837   6.381   7.518   7.212 -0.5092 -0.2484  0.6403
  807MOL0     C 8838   6.253   7.605   7.238 -0.8699  0.0344 -1.2062
  807MOL0     C 8839   6.403   7.388   7.261 -0.0862 -0.3036  0.0406
  807MOL0     C 8840   6.301   7.307   7.326 -0.1103 -0.2416 -0.7287
  807MOL0     O 8841   6.174   7.363   7.327  0.2642 -0.1075  0.3629
  807MOL0     C 8842   6.077   7.291   7.390 -0.5143 -0.5654 -0.4934
  807MOL0     C 8843   6.076   7.295   7.531 -0.9659 -0.6157 -0.0945
  807MOL0     C 8844   5.980   7.220   7.600 -0.1883  0.9885 -0.8919
  807MOL0     C 8845   5.886   7.140   7.530 -0.1639  0.2292 -0.2771
  807MOL0     O 8846   5.796   7.067   7.596  0.0780 -0.2821  0.3591
  807MOL0     C 8847   5.659   7.061   7.547 -0.0388 -0.1292 -0.3308
  807MOL0     C 8848   5.562   7.027   7.656  0.1858 -0.5741 -0.6628
  807MOL0     C 8849   5.422   7.028   7.602 -0.5164  0.9493  0.5041
  807MOL0     C 8850   5.328   7.053   7.708  0.2618  0.8334  0.1082
  807MOL0     C 8851   5.185   7.028   7.677 -0.0685  0.2609 -0.1354
  807MOL0     C 8852   5.093   7.022   7.798 -0.3224 -0.6108 -0.1028
  807MOL0     C 8853   4.951   6.980   7.774  0.1682 -0.5867 -0.1020
  807MOL0     C 8854   4.877   7.107   7.724  0.4782 -0.5729  0.2354
  807MOL0    Cl 8855   4.869   7.228   7.862 -0.2227  0.1096  0.2214
  807MOL0     C 8856   5.886   7.140   7.393  0.0080 -0.3813 -0.2126
  807MOL0     C 8857   5.985   7.205   7.324 -0.7597 -0.5279  0.0375
  807MOL0     O 8858   6.326   7.195   7.365  1.3669  0.3322 -0.6525
  807MOL0     C 8859   6.534   7.340   7.254 -0.8015  0.3399 -0.1812
  807MOL0     C 8860   6.624   7.401   7.178 -0.1306  0.5386 -0.3332
  807MOL0     N 8861   7.219   7.666   7.006 -0.6571 -0.0527 -0.1501
  807MOL0     N 8862   7.335   7.719   7.044  0.6403 -0.8456  0.1720
  807MOL0     C 8863   8.292   8.585   6.919 -0.4923 -0.3222 -0.2448
  807MOL0     C 8864   8.427   8.576   6.869  0.7014  0.8545 -0.9902
  807MOL0     C 8865   8.750   8.460   6.541  0.2024  0.1589  0.2851
  807MOL0     C 8866   8.790   8.373   6.437  0.7364 -0.8405 -0.3621
  807MOL0     C 8867   8.917   8.360   6.406 -0.8990 -0.2274 -0.4079
  807MOL0     C 8868   9.022   8.444   6.463  1.0293 -0.0326  0.3411
  807MOL0     O 8869   9.145   8.422   6.425 -0.2483 -0.3814  0.9296
  807MOL0     C 8870   9.254   8.518   6.451 -0.0307 -0.1431 -0.1763
  807MOL0     C 8871   9.377   8.490   6.366 -0.3452  1.2897 -0.0279
  807MOL0     C 8872   9.443   8.359   6.399  0.1911 -0.5807  0.1475
  807MOL0     C 8873   9.585   8.355   6.354  0.7288 -0.0432  0.5826
  807MOL0     C 8874   9.644   8.217   6.365 -0.4724 -1.2581  0.2828
  807MOL0     C 8875   9.704   8.113   6.381  0.5893  0.0620  0.4619
  807MOL0     C 8876   8.985   8.541   6.565  0.5092  0.7808 -0.2893
  807MOL0     C 8877   8.846   8.537   6.607 -0.4472 -0.1652  0.0253
  807MOL0     H 8878   8.375   8.349   6.628 -0.3350 -0.1707 -1.0356
  807MOL0     H 8879   8.139   8.380   6.697  0.7582  0.4188 -0.8505
  807MOL0     H 8880   7.931   8.379   6.819 -1.1730 -2.1531  1.9127
  807MOL0     H 8881   8.042   8.316   6.936  1.6911  0.7278 -0.0485
  807MOL0     H 8882   7.897   8.432   7.114  0.3292 -1.9880  0.0101
  807MOL0     H 8883   7.818   8.520   6.983 -0.0391 -1.4448 -1.7134
  807MOL0     H 8884   7.662   8.347   6.991  1.1143  1.2732 -3.9770
  807MOL0     H 8885   7.789   8.260   6.905 -0.4029 -0.2185  0.4488
  807MOL0     H 8886   7.884   8.213   7.126 -0.3324  0.1168  0.6277
  807MOL0     H 8887   7.745   8.291   7.211  0.9455  0.5597  0.0617
  807MOL0     H 8888   7.725   8.038   7.036 -1.0355  2.3727 -1.9191
  807MOL0     H 8889   7.705   8.048   7.215 -1.7120  1.4042  0.4336
  807MOL0     H 8890   7.524   8.223   7.168 -2.8195  0.1483 -1.6099
  807MOL0     H 8891   7.527   8.167   7.000  0.1271 -1.6310  0.9629
  807MOL0     H 8892   7.499   7.964   7.217 -0.4895  0.1356 -0.6077
  807MOL0     H 8893   7.355   8.057   7.162 -0.4292  1.6698 -2.0699
  807MOL0     H 8894   7.531   7.870   7.017  0.4009  1.1238 -1.3788
  807MOL0     H 8895   7.439   7.977   6.920  1.5375  1.5128 -0.6467
  807MOL0     H 8896   7.167   7.992   6.960 -0.0112  0.8941  3.4241
  807MOL0     H 8897   6.974   7.813   6.853  3.4459 -0.2375 -1.1960
  807MOL0     H 8898   6.970   7.651   6.901  1.3046  0.6014 -4.6171
  807MOL0     H 8899   6.924   7.882   7.098  1.4126  0.8095 -3.5134
  807MOL0     H 8900   6.902   7.713   7.145  1.3674  1.8291  1.3152
  807MOL0     H 8901   6.730   7.889   6.953 -1.8778 -2.7245 -4.5385
  807MOL0     H 8902   6.689   7.824   7.108  0.2311 -0.2338  0.5061
  807MOL0     H 8903   6.740   7.666   6.859 -0.6983 -1.8369 -0.7753
  807MOL0     H 8904   6.585   7.701   6.923 -0.5348 -0.0967  1.8069
  807MOL0     H 8905   6.458   7.683   7.099  0.4987 -0.1781 -0.0306
  807MOL0     H 8906   6.177   7.557   7.176 -1.9230 -1.2925  1.0027
  807MOL0     H 8907   6.222   7.606   7.343 -3.7138  2.1149 -1.9413
  807MOL0     H 8908   6.276   7.709   7.212  0.0434  0.4957  1.1917
  807MOL0     H 8909   6.144   7.364   7.580 -1.6651 -1.0972  1.6318
  807MOL0     H 8910   5.968   7.225   7.708 -1.1193 -0.0332 -0.9308
  807MOL0     H 8911   5.639   7.162   7.508 -0.5479  0.1085  0.5198
  807MOL0     H 8912   5.657   6.976   7.479 -2.4319  0.6225 -1.3317
  807MOL0     H 8913   5.585   6.926   7.692 -1.9553 -1.8338 -2.5027
  807MOL0     H 8914   5.573   7.096   7.740 -0.5719  0.8293 -1.6728
  807MOL0     H 8915   5.396   6.930   7.561 -1.2306  1.8027 -1.1958
  807MOL0     H 8916   5.412   7.098   7.518  2.9953 -1.6574 -2.4437
  807MOL0     H 8917   5.354   6.980   7.785  0.0772  0.7118  0.0549
  807MOL0     H 8918   5.324   7.152   7.755 -0.8659 -0.1427  2.2120
  807MOL0     H 8919   5.177   6.935   7.620  4.2784  0.0608 -0.7233
  807MOL0     H 8920   5.156   7.106   7.605  1.0901 -0.6502 -1.6528
  807MOL0     H 8921   5.131   6.953   7.873  0.6156 -0.5265 -0.4915
  807MOL0     H 8922   5.093   7.114   7.857  2.4332 -2.2464  2.7912
  807MOL0     H 8923   4.914   6.959   7.875 -0.1764  1.0480  0.1505
  807MOL0     H 8924   4.934   6.901   7.700  2.5389 -0.5691 -0.7415
  807MOL0     H 8925   4.773   7.082   7.699 -0.6164  1.7057  2.1243
  807MOL0     H 8926   4.927   7.153   7.638  1.6231  2.1404  2.2278
  807MOL0     H 8927   5.805   7.104   7.330 -1.3979  3.0908 -0.6173
  807MOL0     H 8928   5.971   7.209   7.216  2.6040 -0.6749 -0.4995
  807MOL0     H 8929   6.568   7.250   7.305  3.8532  1.8784 -0.0775
  807MOL0     H 8930   6.718   7.348   7.168 -1.1114 -1.0327 -1.8688
  807MOL0     H 8931   8.280   8.657   6.999  1.4107  0.1453 -0.3498
  807MOL0     H 8932   8.517   8.610   6.920  0.2642 -1.4033  1.5119
  807MOL0     H 8933   8.708   8.315   6.399 -1.1682 -0.2713  2.5310
  807MOL0     H 8934   8.956   8.277   6.348 -0.2073  0.4291 -0.9142
  807MOL0     H 8935   9.220   8.621   6.441 -0.9293 -0.4795 -0.6782
  807MOL0     H 8936   9.287   8.501   6.554 -0.5320  0.0964  0.0268
  807MOL0     H 8937   9.438   8.581   6.372  1.9620 -0.1994  0.0275
  807MOL0     H 8938   9.341   8.495   6.263 -0.2325 -1.4137 -0.2590
  807MOL0     H 8939   9.388   8.296   6.329 -0.7678  2.5974 -2.1737
  807MOL0     H 8940   9.424   8.327   6.502 -1.1152  0.2927  0.2059
  807MOL0     H 8941   9.651   8.419   6.413  0.3972 -1.9157  3.1410
  807MOL0     H 8942   9.597   8.389   6.250 -2.9910  0.0091  0.0361
  807MOL0     H 8943   9.750   8.016   6.377  1.4882  0.2747  3.1164
  807MOL0     H 8944   9.066   8.593   6.614  2.9319 -3.3571  0.5332
  807MOL0     H 8945   8.816   8.591   6.696  1.4155 -0.5852  0.9442
  808MOL0     O 8946  10.702   0.031   3.049 -0.4487 -0.3844  0.1517
  808MOL0     C 8947  10.792   0.096   3.099  0.2783 -0.8847 -0.1745
  808MOL0     O 8948  10.768   0.204   3.181  0.3572  0.4918  0.8945
  808MOL0     C 8949  10.639   0.258   3.188 -0.1486 -0.1648  0.6510
  808MOL0     C 8950  10.619   0.337   3.302  0.1448 -0.5270  0.5948
  808MOL0     C 8951  10.502   0.402   3.331 -0.3324  0.2837 -0.1452
  808MOL0     C 8952  10.403   0.398   3.234 -0.0038 -0.3038  0.2510
  808MOL0     O 8953  10.274   0.460   3.221  0.7087  0.4627  0.3873
  808MOL0     C 8954  10.246   0.559   3.311  0.5396  0.2252 -0.0234
  808MOL0     C 8955  10.138   0.649   3.242 -1.2420 -0.5321 -1.0413
  808MOL0     C 8956  10.077   0.740   3.352 -0.0368  0.0027  0.0631
  808MOL0     C 8957   9.953   0.802   3.298  0.2481  0.2375 -0.3565
  808MOL0     C 8958   9.884   0.872   3.413 -0.5769 -0.5907 -0.7575
  808MOL0     C 8959   9.746   0.936   3.371  0.5054 -0.2361  1.2056
  808MOL0     C 8960   9.700   1.048   3.464 -0.1236 -0.1102  0.0296
  808MOL0     C 8961   9.578   1.142   3.410 -0.4501  0.1636 -0.2741
  808MOL0     N 8962   9.526   1.234   3.507  0.5013  0.4937 -0.0033
  808MOL0     C 8963   9.477   1.193   3.634  0.0700 -0.2475  1.1678
  808MOL0     C 8964   9.441   1.312   3.688 -0.0839  0.1769 -0.4139
  808MOL0     C 8965   9.376   1.324   3.824  0.5523 -0.1489 -0.6108
  808MOL0     C 8966   9.224   1.302   3.810 -0.8114  0.1612 -0.3049
  808MOL0     C 8967   9.143   1.430   3.835 -0.5509  0.4872 -0.2256
  808MOL0     C 8968   8.996   1.396   3.830  0.5111  0.5723 -0.1370
  808MOL0     O 8969   8.917   1.512   3.854 -0.6647 -0.5020 -0.2409
  808MOL0     C 8970   8.859   1.529   3.980  0.6357  0.2045  0.6165
  808MOL0     C 8971   8.901   1.473   4.098  0.4831  0.2207 -0.4279
  808MOL0     C 8972   8.836   1.506   4.220 -0.2203 -0.1361  1.2218
  808MOL0     C 8973   8.905   1.452   4.342 -0.4454 -0.3757  0.6583
  808MOL0     C 8974   8.726   1.591   4.222  0.0793  0.4973  0.2753
  808MOL0     C 8975   8.649   1.628   4.344 -0.1124 -0.1057  0.1674
  808MOL0     O 8976   8.521   1.682   4.324 -0.0785 -0.4832  0.1937
  808MOL0     C 8977   8.444   1.705   4.436 -0.2181  0.2692 -0.6993
  808MOL0     C 8978   8.321   1.633   4.443  0.6198 -0.2142  0.6107
  808MOL0     C 8979   8.248   1.634   4.568 -1.0613 -0.2282  1.1403
  808MOL0     C 8980   8.295   1.722   4.670  0.6382  0.1846 -0.6866
  808MOL0     O 8981   8.241   1.736   4.791 -0.4956  0.4097 -0.6086
  808MOL0     C 8982   8.129   1.825   4.784 -0.3881 -0.2794 -0.0004
  808MOL0     C 8983   8.014   1.725   4.816  0.6956  1.1201 -0.0575
  808MOL0     C 8984   7.884   1.805   4.812 -0.4695 -0.4464  0.2218
  808MOL0     C 8985   7.763   1.718   4.837 -0.5362  0.2973  0.1839
  808MOL0     C 8986   7.638   1.790   4.864  0.4563 -0.2849 -0.3683
  808MOL0     C 8987   7.525   1.700   4.912  0.9956  0.1280 -0.1757
  808MOL0     C 8988   7.427   1.758   5.016 -0.1776 -0.3820 -0.6447
  808MOL0     C 8989   7.305   1.666   5.032 -0.8180 -0.4342 -0.6719
  808MOL0    Cl 8990   7.357   1.514   5.120  0.3442  0.2792  0.1064
  808MOL0     C 8991   8.412   1.791   4.652 -0.1386 -0.8117 -0.0799
  808MOL0     C 8992   8.479   1.794   4.534  0.2668  0.1035  0.7371
  808MOL0     O 8993   8.701   1.614   4.454 -0.0440 -0.2125  0.0609
  808MOL0     C 8994   8.673   1.631   4.101  0.0414  0.0881  0.2985
  808MOL0     C 8995   8.738   1.598   3.981  1.1123 -0.3977 -0.2632
  808MOL0     N 8996   9.461   1.416   3.605 -0.0622  0.1119  0.1142
  808MOL0     N 8997   9.503   1.366   3.493  0.0382  0.3458 -0.0260
  808MOL0     C 8998  10.423   0.332   3.110  0.0507 -0.1111  0.2339
  808MOL0     C 8999  10.537   0.251   3.089  0.5302 -0.2237  1.0072
  808MOL0     C 9000  10.929   0.052   3.089 -0.7306 -0.2484  0.0010
  808MOL0     C 9001  11.034   0.117   3.154  0.4373 -0.2572 -0.4747
  808MOL0     C 9002  11.162   0.054   3.148 -0.0799 -1.0045  0.1443
  808MOL0     C 9003  11.187  -0.059   3.069 -0.0149  0.2210 -0.1965
  808MOL0     O 9004  11.316  -0.086   3.052  0.4779  0.1857 -0.2204
  808MOL0     C 9005  11.360  -0.211   2.986  0.0362  0.9254 -0.1685
  808MOL0     C 9006  11.508  -0.223   2.990  0.3588 -0.6491  1.3391
  808MOL0     C 9007  11.559  -0.329   2.893 -0.1648  0.2791  0.1506
  808MOL0     C 9008  11.529  -0.470   2.947 -0.0446 -0.5048  0.0664
  808MOL0     C 9009  11.397  -0.508   2.909 -0.1807  0.2048 -0.6999
  808MOL0     C 9010  11.279  -0.541   2.895  0.2096  0.0320 -0.1849
  808MOL0     C 9011  11.075  -0.121   3.008 -0.0820  0.5134  0.5216
  808MOL0     C 9012  10.952  -0.063   3.014 -0.0758 -0.0352 -0.0919
  808MOL0     H 9013  10.700   0.358   3.371  0.9651 -0.5086 -0.3596
  808MOL0     H 9014  10.492   0.462   3.421  1.9228  0.5074  0.0126
  808MOL0     H 9015  10.200   0.512   3.398 -1.0797  2.7240  0.5949
  808MOL0     H 9016  10.339   0.616   3.317  0.2130  0.7333  0.2463
  808MOL0     H 9017  10.186   0.708   3.163 -0.8701  1.2125  0.4119
  808MOL0     H 9018  10.059   0.584   3.204 -1.1908 -1.7973  0.8805
  808MOL0     H 9019  10.059   0.685   3.445 -2.5555  0.3285 -0.1527
  808MOL0     H 9020  10.143   0.823   3.379  2.5357 -2.0502  0.5219
  808MOL0     H 9021   9.965   0.879   3.221 -1.8431 -0.5587 -1.5452
  808MOL0     H 9022   9.888   0.723   3.262  1.2784 -0.4877 -0.6837
  808MOL0     H 9023   9.865   0.803   3.496 -2.8918  0.4677 -0.3301
  808MOL0     H 9024   9.948   0.953   3.449 -1.1298 -1.3022  2.1315
  808MOL0     H 9025   9.746   0.982   3.271 -2.2760  1.1149  1.7157
  808MOL0     H 9026   9.673   0.855   3.369 -0.4424  0.6038  0.5849
  808MOL0     H 9027   9.682   1.010   3.566 -0.9180 -0.8986 -0.3884
  808MOL0     H 9028   9.788   1.112   3.470  1.3217 -2.0746  1.3075
  808MOL0     H 9029   9.492   1.078   3.389  0.1233 -0.2944 -1.3110
  808MOL0     H 9030   9.608   1.194   3.318 -2.2229 -0.2790 -1.1512
  808MOL0     H 9031   9.460   1.094   3.676 -3.3340 -0.7977 -1.1023
  808MOL0     H 9032   9.421   1.241   3.879  1.0255 -1.4672 -2.8422
  808MOL0     H 9033   9.400   1.423   3.865 -0.6137  1.4689 -3.5322
  808MOL0     H 9034   9.191   1.220   3.874  3.1516 -0.3459  1.3646
  808MOL0     H 9035   9.208   1.272   3.706  1.1552 -0.2958 -0.5237
  808MOL0     H 9036   9.165   1.507   3.760  2.1949  1.6237  1.5901
  808MOL0     H 9037   9.159   1.474   3.934 -2.1005  1.7878 -0.5020
  808MOL0     H 9038   8.990   1.316   3.905  1.9466 -1.5573 -2.1466
  808MOL0     H 9039   8.966   1.356   3.733 -2.9487 -0.6259  1.2783
  808MOL0     H 9040   8.981   1.399   4.098 -0.2203 -0.5854  0.7282
  808MOL0     H 9041   8.985   1.380   4.325 -1.2991 -1.2165  0.0632
  808MOL0     H 9042   8.952   1.535   4.395 -0.0599  1.2222 -1.9747
  808MOL0     H 9043   8.840   1.390   4.404  0.4509 -0.9728  1.0143
  808MOL0     H 9044   8.300   1.579   4.351 -0.2325  1.0949  0.0149
  808MOL0     H 9045   8.167   1.561   4.567 -0.5551 -0.9293 -2.1035
  808MOL0     H 9046   8.129   1.914   4.847  1.4146  1.0659 -1.7760
  808MOL0     H 9047   8.120   1.864   4.682  2.0752  0.3266 -0.0448
  808MOL0     H 9048   8.020   1.642   4.745  1.9640 -0.0088  1.3391
  808MOL0     H 9049   8.029   1.683   4.916  0.1124 -2.6753 -1.3920
  808MOL0     H 9050   7.873   1.868   4.722  2.2810  3.2203  2.1558
  808MOL0     H 9051   7.889   1.885   4.886 -1.6021 -0.5044  0.3702
  808MOL0     H 9052   7.738   1.639   4.765 -0.3603 -0.2623  0.7203
  808MOL0     H 9053   7.792   1.654   4.921  1.7360  0.5606 -0.3320
  808MOL0     H 9054   7.602   1.831   4.769 -0.2923  0.3892  0.1879
  808MOL0     H 9055   7.652   1.870   4.938  3.5415  2.0207 -3.1671
  808MOL0     H 9056   7.461   1.669   4.829 -0.3624  0.5415  0.6987
  808MOL0     H 9057   7.559   1.602   4.947 -0.0577 -0.2852 -0.3034
  808MOL0     H 9058   7.389   1.851   4.974  0.9149 -0.5009 -1.9488
  808MOL0     H 9059   7.477   1.777   5.111  1.8971  0.8643 -1.9195
  808MOL0     H 9060   7.256   1.642   4.937 -1.2482 -0.1433 -0.5274
  808MOL0     H 9061   7.222   1.704   5.093 -1.3634  2.2386 -2.8920
  808MOL0     H 9062   8.446   1.849   4.737  1.0987 -2.2049  0.4215
  808MOL0     H 9063   8.563   1.861   4.521  0.0106  0.2030 -0.6264
  808MOL0     H 9064   8.595   1.705   4.089  1.0888  1.1792  0.0932
  808MOL0     H 9065   8.694   1.644   3.893  0.6194  1.9672  1.1342
  808MOL0     H 9066  10.353   0.324   3.028 -1.0359  1.9816  0.8912
  808MOL0     H 9067  10.542   0.198   2.994  1.6560  3.3807 -1.1128
  808MOL0     H 9068  11.016   0.210   3.207  0.1232  0.8175 -2.3719
  808MOL0     H 9069  11.235   0.108   3.208 -0.3073  0.1324 -0.5736
  808MOL0     H 9070  11.311  -0.296   3.034  1.7016 -1.2306 -2.0359
  808MOL0     H 9071  11.312  -0.214   2.887 -1.9036 -2.5090  0.6941
  808MOL0     H 9072  11.542  -0.236   3.093  0.2511 -4.3329  1.0335
  808MOL0     H 9073  11.540  -0.122   2.962 -3.8270  0.1340 -1.6005
  808MOL0     H 9074  11.668  -0.330   2.886 -0.0724  0.4912  1.3501
  808MOL0     H 9075  11.518  -0.302   2.795 -0.3197 -1.2442 -0.2249
  808MOL0     H 9076  11.538  -0.488   3.054  0.3963 -1.5988 -0.1390
  808MOL0     H 9077  11.596  -0.535   2.891 -0.0859 -0.8844  0.4509
  808MOL0     H 9078  11.184  -0.558   2.849  0.9042 -1.5586 -1.1194
  808MOL0     H 9079  11.087  -0.200   2.934  5.2762 -0.0764  1.6223
  808MOL0     H 9080  10.869  -0.113   2.964  2.1363 -4.2505  0.0255
  809MOL0     O 9081  10.217   0.825   8.016  0.6520 -0.0556  0.3308
  809MOL0     C 9082  10.167   0.811   7.901  0.1613 -0.2375  0.3019
  809MOL0     O 9083  10.234   0.781   7.786 -0.0683  0.7285  0.5967
  809MOL0     C 9084  10.371   0.770   7.760  0.7482  0.0681 -0.2929
  809MOL0     C 9085  10.409   0.764   7.627  0.0882 -0.3035 -0.2283
  809MOL0     C 9086  10.539   0.795   7.587  1.9966  0.7244 -0.2308
  809MOL0     C 9087  10.637   0.816   7.681 -0.0247 -0.1742 -0.3250
  809MOL0     O 9088  10.761   0.854   7.640 -0.3609 -0.1156 -0.3041
  809MOL0     C 9089  10.860   0.906   7.730  0.1578  0.0061 -0.0328
  809MOL0     C 9090  10.998   0.950   7.663 -0.2404 -0.2952 -0.4953
  809MOL0     C 9091  11.046   0.826   7.602  0.0078  0.7748  0.3629
  809MOL0     C 9092  11.184   0.843   7.545  0.3883 -0.0644 -0.3353
  809MOL0     C 9093  11.242   0.721   7.466  0.5801 -0.0766 -0.5456
  809MOL0     C 9094  11.378   0.762   7.409 -0.1483 -0.8414 -0.3077
  809MOL0     C 9095  11.442   0.648   7.331 -0.1678 -0.3637 -0.0623
  809MOL0     C 9096  11.585   0.694   7.290  0.3598  0.3014  0.4349
  809MOL0     N 9097  11.612   0.824   7.226  1.0245 -0.2127  0.6202
  809MOL0     C 9098  11.631   0.949   7.285  0.1230  0.7093 -0.7815
  809MOL0     C 9099  11.647   1.027   7.180 -0.0001  0.2133 -0.1333
  809MOL0     C 9100  11.675   1.172   7.182 -0.4474  0.1441 -0.4686
  809MOL0     C 9101  11.542   1.252   7.180  0.2649  0.6012  0.3588
  809MOL0     C 9102  11.554   1.393   7.211 -0.8851 -0.9213  0.1388
  809MOL0     C 9103  11.561   1.426   7.362  0.4735  0.9161  0.5874
  809MOL0     O 9104  11.435   1.401   7.424  0.3025  0.1891 -1.0194
  809MOL0     C 9105  11.343   1.503   7.437  0.7889 -0.0220  0.1082
  809MOL0     C 9106  11.234   1.508   7.354  0.8987 -0.2184 -0.4792
  809MOL0     C 9107  11.133   1.597   7.381  0.1809  0.2116 -0.1396
  809MOL0     C 9108  11.009   1.601   7.282 -0.6232 -0.0339 -0.6990
  809MOL0     C 9109  11.145   1.673   7.500  0.4724  0.3636 -0.8921
  809MOL0     C 9110  11.039   1.757   7.558  0.6893 -0.3914  0.1867
  809MOL0     O 9111  10.907   1.749   7.503 -0.2192  1.0751  0.5182
  809MOL0     C 9112  10.817   1.835   7.551 -0.4147  0.2724  0.5861
  809MOL0     C 9113  10.840   1.974   7.551  0.4721  0.5330 -0.0598
  809MOL0     C 9114  10.756   2.069   7.607  0.4955 -0.3931  0.0338
  809MOL0     C 9115  10.639   2.021   7.662 -0.0225  0.1959  0.1336
  809MOL0     O 9116  10.546   2.099   7.727  0.1569 -0.4009  0.2115
  809MOL0     C 9117  10.456   2.165   7.637 -0.3247 -0.8390 -0.4624
  809MOL0     C 9118  10.317   2.217   7.688 -0.9991 -0.3216 -0.5213
  809MOL0     C 9119  10.240   2.108   7.768 -1.6264 -1.2380  0.9713
  809MOL0     C 9120  10.138   2.171   7.858 -0.8153 -0.3489 -0.7610
  809MOL0     C 9121   9.997   2.160   7.802  0.2079 -0.3388 -0.3924
  809MOL0     C 9122   9.903   2.248   7.872  0.4046  0.1024 -1.0109
  809MOL0     C 9123   9.767   2.250   7.791  0.2044  0.5989  0.8067
  809MOL0     C 9124   9.649   2.300   7.872 -0.3429  0.4730 -0.4871
  809MOL0    Cl 9125   9.602   2.201   8.010  0.7127 -0.0452  0.3196
  809MOL0     C 9126  10.620   1.880   7.668  0.6355 -0.1939  0.6530
  809MOL0     C 9127  10.703   1.785   7.608 -0.1298 -0.1823  0.1639
  809MOL0     O 9128  11.073   1.829   7.648  0.3538 -0.3821  0.5444
  809MOL0     C 9129  11.264   1.665   7.581 -0.0356  0.3029  0.9670
  809MOL0     C 9130  11.358   1.582   7.546 -0.5096 -0.2932  0.0559
  809MOL0     N 9131  11.641   0.953   7.065 -0.4673  0.1511 -1.0098
  809MOL0     N 9132  11.616   0.830   7.090  1.0144  0.1398 -0.0824
  809MOL0     C 9133  10.599   0.806   7.818 -0.0956 -0.2397  0.0676
  809MOL0     C 9134  10.467   0.786   7.857 -0.5243  0.0413 -0.5283
  809MOL0     C 9135  10.015   0.817   7.892 -0.1090  0.4676  0.1210
  809MOL0     C 9136   9.946   0.890   7.990 -0.1897  0.4667 -0.4724
  809MOL0     C 9137   9.807   0.894   7.995  1.2038 -1.2031  0.3239
  809MOL0     C 9138   9.736   0.829   7.894 -0.3801  0.6872 -0.0004
  809MOL0     O 9139   9.604   0.824   7.882  0.2728  0.1712  0.2738
  809MOL0     C 9140   9.506   0.872   7.978 -0.8502 -0.4736 -0.1303
  809MOL0     C 9141   9.366   0.824   7.940 -1.7375 -0.5651 -0.0426
  809MOL0     C 9142   9.322   0.874   7.802  0.5119 -0.1089 -0.1642
  809MOL0     C 9143   9.199   0.791   7.757  0.2896 -0.6144  0.0613
  809MOL0     C 9144   9.227   0.657   7.728  0.5217  0.2717  0.1180
  809MOL0     C 9145   9.251   0.544   7.687 -0.3154 -0.8439  0.1908
  809MOL0     C 9146   9.810   0.757   7.796  0.1410  0.1325  1.3055
  809MOL0     C 9147   9.946   0.749   7.792 -0.7479 -0.0966 -0.3810
  809MOL0     H 9148  10.335   0.761   7.548  2.2287 -0.5492 -2.3538
  809MOL0     H 9149  10.567   0.796   7.482  0.6155  5.1313 -0.7632
  809MOL0     H 9150  10.810   0.989   7.780  1.1903  0.4100  0.3478
  809MOL0     H 9151  10.889   0.829   7.802 -1.3898 -0.1893  0.4159
  809MOL0     H 9152  10.993   1.037   7.597  1.5829  0.7844  0.7044
  809MOL0     H 9153  11.065   0.984   7.742  0.1410  2.5558 -1.9139
  809MOL0     H 9154  11.049   0.750   7.681 -1.5968  0.8240  0.5106
  809MOL0     H 9155  10.985   0.800   7.515  0.9497 -0.0402 -0.0801
  809MOL0     H 9156  11.187   0.930   7.479 -0.8928  0.8401  0.7500
  809MOL0     H 9157  11.250   0.867   7.629 -0.4978 -1.2246  0.7415
  809MOL0     H 9158  11.236   0.639   7.539 -1.3976  0.0785 -0.4697
  809MOL0     H 9159  11.173   0.694   7.385 -1.0373  0.6962  0.5018
  809MOL0     H 9160  11.356   0.841   7.337 -0.8254 -1.8161 -1.2000
  809MOL0     H 9161  11.456   0.797   7.478 -0.6618 -0.8791  0.3083
  809MOL0     H 9162  11.458   0.556   7.389 -2.6479  0.2560  1.7626
  809MOL0     H 9163  11.370   0.631   7.250  1.7137  1.6463 -2.3481
  809MOL0     H 9164  11.616   0.631   7.206  0.9570  0.9001  0.1982
  809MOL0     H 9165  11.661   0.690   7.368  0.0267  2.3394  0.9275
  809MOL0     H 9166  11.629   0.965   7.392 -0.3982  1.5302 -0.9057
  809MOL0     H 9167  11.732   1.196   7.272 -0.8744 -2.0307  0.4527
  809MOL0     H 9168  11.752   1.205   7.111  1.0290  0.7528  1.3481
  809MOL0     H 9169  11.479   1.208   7.257  1.0111 -2.6711 -0.7315
  809MOL0     H 9170  11.487   1.242   7.086 -3.1178  0.1553  2.2334
  809MOL0     H 9171  11.471   1.438   7.155  0.6331 -0.9482 -2.2951
  809MOL0     H 9172  11.651   1.430   7.177 -1.0930 -0.5933 -0.1063
  809MOL0     H 9173  11.584   1.530   7.387 -0.1708  1.3737 -0.6419
  809MOL0     H 9174  11.632   1.359   7.412 -1.6321 -0.7209  1.5563
  809MOL0     H 9175  11.230   1.438   7.271  1.0270 -0.5495 -0.2103
  809MOL0     H 9176  10.922   1.561   7.335  1.4841  1.5672  4.6021
  809MOL0     H 9177  10.990   1.702   7.245 -0.2555 -0.1828 -1.3262
  809MOL0     H 9178  11.017   1.540   7.191 -2.6193 -0.4772 -0.6174
  809MOL0     H 9179  10.939   1.995   7.510  0.5505 -0.3755 -0.3431
  809MOL0     H 9180  10.773   2.175   7.622  0.7424 -0.2261 -1.2812
  809MOL0     H 9181  10.508   2.256   7.606  1.1070 -0.9713  1.3686
  809MOL0     H 9182  10.438   2.101   7.550  2.6918 -0.2707 -1.6247
  809MOL0     H 9183  10.337   2.304   7.751  2.5057 -1.6839  0.4366
  809MOL0     H 9184  10.266   2.246   7.595 -1.9951 -0.3755 -0.0139
  809MOL0     H 9185  10.321   2.060   7.823  0.9121 -0.2926 -1.6971
  809MOL0     H 9186  10.198   2.033   7.700 -3.5410  0.0914  0.5956
  809MOL0     H 9187  10.140   2.117   7.954 -0.7749  1.2486  0.1752
  809MOL0     H 9188  10.157   2.278   7.862  0.7668 -0.5046 -2.7132
  809MOL0     H 9189   9.966   2.056   7.812  2.2919 -1.1507 -1.6692
  809MOL0     H 9190  10.005   2.195   7.699  3.5905  2.2388  0.5551
  809MOL0     H 9191   9.885   2.209   7.972  0.6637  1.4796 -0.4018
  809MOL0     H 9192   9.929   2.353   7.885  1.3543 -0.2227 -0.1966
  809MOL0     H 9193   9.747   2.147   7.759  1.0717  0.7403 -0.2332
  809MOL0     H 9194   9.769   2.307   7.698 -0.2588 -1.0039 -0.2292
  809MOL0     H 9195   9.559   2.315   7.811 -2.0618  0.6941  1.9751
  809MOL0     H 9196   9.669   2.402   7.905  1.5212 -0.6417  2.0886
  809MOL0     H 9197  10.534   1.847   7.724  0.8409 -2.3919 -0.2515
  809MOL0     H 9198  10.690   1.680   7.631 -2.1143 -0.2271 -0.9972
  809MOL0     H 9199  11.289   1.714   7.674  0.2643  3.2341 -0.5295
  809MOL0     H 9200  11.445   1.564   7.608 -1.1582  0.3149  1.1644
  809MOL0     H 9201  10.673   0.847   7.887 -2.6363  2.2796  1.4819
  809MOL0     H 9202  10.432   0.814   7.955 -0.0042  0.4679 -0.4602
  809MOL0     H 9203  10.005   0.952   8.056  1.3212 -0.1584 -1.2005
  809MOL0     H 9204   9.753   0.943   8.075  0.5429 -2.1865  0.4980
  809MOL0     H 9205   9.513   0.832   8.079 -0.3854  2.6057  1.1477
  809MOL0     H 9206   9.513   0.980   7.989 -1.2327 -0.7179  3.5703
  809MOL0     H 9207   9.296   0.866   8.012  0.1256  3.0571 -0.0821
  809MOL0     H 9208   9.380   0.716   7.941  1.4628 -0.2610  1.8870
  809MOL0     H 9209   9.410   0.855   7.739  1.3308 -1.1407  1.2391
  809MOL0     H 9210   9.296   0.980   7.806 -0.2796 -0.3296  2.8996
  809MOL0     H 9211   9.158   0.835   7.666  1.4333 -0.5976 -0.4655
  809MOL0     H 9212   9.121   0.802   7.832  1.1089  2.4041  0.5790
  809MOL0     H 9213   9.269   0.443   7.656  1.9485  0.0927 -1.9015
  809MOL0     H 9214   9.753   0.709   7.717 -0.6362 -0.0144  1.9557
  809MOL0     H 9215   9.987   0.683   7.717 -1.4470 -0.2676 -0.6182
  810MOL0     O 9216   5.986   0.741  11.009  0.2170  0.6021  0.3273
  810MOL0     C 9217   6.063   0.827  11.048 -0.3221 -0.0822  0.3486
  810MOL0     O 9218   6.020   0.955  11.084 -0.8617  0.0504 -0.0258
  810MOL0     C 9219   5.892   0.976  11.071  0.6162  0.0017  0.6614
  810MOL0     C 9220   5.806   0.954  11.176  1.4119 -0.4113 -0.4302
  810MOL0     C 9221   5.669   0.971  11.169  0.7469 -0.9162  0.1513
  810MOL0     C 9222   5.620   1.032  11.051 -0.7146  0.0848  0.5598
  810MOL0     O 9223   5.495   1.091  11.039  0.5553 -0.5990 -0.0712
  810MOL0     C 9224   5.380   1.011  11.034  0.1182 -0.4399  0.3662
  810MOL0     C 9225   5.353   0.930  10.902 -0.6679 -0.4706 -0.2492
  810MOL0     C 9226   5.213   0.868  10.901  0.1228 -0.4690  0.0483
  810MOL0     C 9227   5.178   0.803  10.765 -0.5375 -0.1800 -0.0926
  810MOL0     C 9228   5.042   0.736  10.758 -0.4384 -0.5484 -0.2035
  810MOL0     C 9229   5.000   0.705  10.614 -0.5426 -0.0570 -0.1775
  810MOL0     C 9230   4.847   0.676  10.609  0.3896 -0.2364 -0.1847
  810MOL0     C 9231   4.821   0.540  10.668 -0.2584 -0.0195 -0.2164
  810MOL0     N 9232   4.684   0.543  10.716  0.8827 -0.0042 -0.7216
  810MOL0     C 9233   4.570   0.539  10.648 -0.0920 -0.8449  0.1625
  810MOL0     C 9234   4.473   0.566  10.737 -0.7727 -0.0048 -0.7449
  810MOL0     C 9235   4.327   0.575  10.704  0.2642 -0.5701 -0.0301
  810MOL0     C 9236   4.268   0.710  10.753 -0.0746  0.1415  0.1069
  810MOL0     C 9237   4.208   0.692  10.894 -0.3823 -0.2394  0.6221
  810MOL0     C 9238   4.072   0.631  10.902 -1.1870 -0.6960 -0.6007
  810MOL0     O 9239   4.028   0.649  11.038  0.0446  0.3311 -0.1861
  810MOL0     C 9240   3.892   0.642  11.066  0.5994 -0.6349 -0.9689
  810MOL0     C 9241   3.799   0.573  10.983  0.0260 -0.0484  0.1016
  810MOL0     C 9242   3.666   0.574  11.018  0.5017 -0.6852 -1.1908
  810MOL0     C 9243   3.566   0.512  10.919 -0.0532 -0.5447  0.0611
  810MOL0     C 9244   3.623   0.641  11.141  0.1055  0.7552  0.4862
  810MOL0     C 9245   3.473   0.636  11.175 -0.4327 -0.0411 -0.1403
  810MOL0     O 9246   3.381   0.660  11.071  0.3293 -0.2772  0.0120
  810MOL0     C 9247   3.250   0.662  11.103  0.1530  0.9880 -0.2085
  810MOL0     C 9248   3.178   0.755  11.180  0.1045 -0.1088 -0.5483
  810MOL0     C 9249   3.043   0.739  11.191  0.0406 -0.0675  0.2845
  810MOL0     C 9250   2.958   0.651  11.126  0.2372 -0.8283  0.9068
  810MOL0     O 9251   2.823   0.662  11.143  0.4006  0.7168  0.4228
  810MOL0     C 9252   2.738   0.572  11.068 -0.6641 -1.0838 -0.6702
  810MOL0     C 9253   2.603   0.579  11.123 -0.8082 -0.5098  0.2571
  810MOL0     C 9254   2.514   0.475  11.051 -0.0255  0.3742 -0.2055
  810MOL0     C 9255   2.373   0.516  11.104  0.3640 -0.2105  0.8225
  810MOL0     C 9256   2.265   0.414  11.057  0.0192 -0.8588 -0.3850
  810MOL0     C 9257   2.122   0.455  11.077 -0.3749 -0.3218  0.6326
  810MOL0     C 9258   2.025   0.346  11.036 -0.4347  0.3411  0.9573
  810MOL0     C 9259   1.877   0.381  11.082 -0.4234  0.3306 -0.1987
  810MOL0    Cl 9260   1.824   0.538  10.992  0.4848 -0.0008  0.3438
  810MOL0     C 9261   3.024   0.559  11.044 -0.5653 -0.6106 -0.6947
  810MOL0     C 9262   3.170   0.561  11.035  0.6363 -0.5194  0.0213
  810MOL0     O 9263   3.446   0.593  11.291  0.1253  0.6646 -0.1083
  810MOL0     C 9264   3.719   0.700  11.224  0.6955 -0.2923 -0.3540
  810MOL0     C 9265   3.855   0.709  11.184 -0.0708 -0.4599 -0.0145
  810MOL0     N 9266   4.540   0.584  10.862  0.7151 -0.1022 -0.3049
  810MOL0     N 9267   4.664   0.580  10.845 -0.3520 -0.6112 -0.4661
  810MOL0     C 9268   5.700   1.046  10.930 -0.1659  0.1896 -0.5920
  810MOL0     C 9269   5.837   1.018  10.951 -0.8154  0.0377  0.7615
  810MOL0     C 9270   6.213   0.794  11.052  0.2531  0.9428  0.2084
  810MOL0     C 9271   6.309   0.877  11.111 -0.5973 -0.0161 -0.0215
  810MOL0     C 9272   6.448   0.846  11.130  0.8150 -0.4671 -0.1764
  810MOL0     C 9273   6.504   0.729  11.079 -0.7658  0.2104  1.0949
  810MOL0     O 9274   6.635   0.683  11.094  0.6143 -0.6769  0.0413
  810MOL0     C 9275   6.706   0.746  11.196 -0.2399 -1.1998  1.2408
  810MOL0     C 9276   6.830   0.663  11.228  0.0015 -0.4544 -0.1040
  810MOL0     C 9277   6.925   0.654  11.115  0.0931 -1.0683  0.5575
  810MOL0     C 9278   6.993   0.514  11.111  0.6533 -0.2463  0.4882
  810MOL0     C 9279   7.111   0.517  11.027 -0.3236  0.3864  0.0159
  810MOL0     C 9280   7.209   0.501  10.950 -0.1583 -0.2997 -1.3159
  810MOL0     C 9281   6.405   0.647  11.015  0.3857  0.2250  0.6305
  810MOL0     C 9282   6.266   0.677  10.991 -0.2062  0.1636  0.9195
  810MOL0     H 9283   5.844   0.926  11.274 -2.0284 -0.2672  1.0849
  810MOL0     H 9284   5.591   0.943  11.240  1.2005 -0.1736  0.9643
  810MOL0     H 9285   5.384   0.942  11.120  2.9642  1.6939  2.1024
  810MOL0     H 9286   5.297   1.080  11.046  0.4775  0.0560  0.0231
  810MOL0     H 9287   5.353   1.001  10.818 -1.8737  0.7958  0.7843
  810MOL0     H 9288   5.426   0.851  10.883 -0.1910 -0.6092  1.9914
  810MOL0     H 9289   5.199   0.786  10.973  2.7147 -0.5797  0.5454
  810MOL0     H 9290   5.146   0.953  10.915  0.7795  0.5461 -2.5119
  810MOL0     H 9291   5.176   0.877  10.686 -0.2516  1.1654  1.1218
  810MOL0     H 9292   5.260   0.734  10.744 -2.1429 -3.0071  2.1307
  810MOL0     H 9293   5.058   0.650  10.824  0.0901  0.6493  1.2962
  810MOL0     H 9294   4.970   0.809  10.794 -0.9943 -0.6277 -1.1457
  810MOL0     H 9295   5.026   0.795  10.559  0.0929  0.4507  0.9249
  810MOL0     H 9296   5.057   0.620  10.575 -0.9250 -1.2904  1.7886
  810MOL0     H 9297   4.799   0.762  10.657 -0.6303 -1.0999  0.4014
  810MOL0     H 9298   4.810   0.686  10.507  2.2575  0.9193 -0.8026
  810MOL0     H 9299   4.895   0.520  10.747  2.4330 -0.5306 -2.6979
  810MOL0     H 9300   4.828   0.450  10.607 -1.7563 -0.7280  0.5873
  810MOL0     H 9301   4.556   0.502  10.547  0.9706 -4.5030  1.1930
  810MOL0     H 9302   4.312   0.564  10.597  1.8848 -0.9425 -0.2506
  810MOL0     H 9303   4.283   0.488  10.753  2.9027 -2.0091 -0.0405
  810MOL0     H 9304   4.184   0.720  10.683 -1.6825 -0.2845  1.8781
  810MOL0     H 9305   4.334   0.797  10.747 -0.3519  0.3957  0.7043
  810MOL0     H 9306   4.184   0.791  10.933  0.9194  0.7967 -1.1202
  810MOL0     H 9307   4.274   0.634  10.959  0.4890 -0.4206 -0.4004
  810MOL0     H 9308   4.078   0.523  10.884 -0.7308 -0.7727 -0.0418
  810MOL0     H 9309   3.999   0.678  10.837 -0.6586 -1.3455 -1.6954
  810MOL0     H 9310   3.830   0.514  10.897 -1.2553  0.0690 -0.4648
  810MOL0     H 9311   3.495   0.445  10.969 -0.4818 -0.2943 -0.2040
  810MOL0     H 9312   3.514   0.593  10.867  0.3269  1.3993  2.5377
  810MOL0     H 9313   3.624   0.453  10.848  0.7407 -1.4132  1.3908
  810MOL0     H 9314   3.237   0.831  11.230 -1.0100  0.1467  0.4088
  810MOL0     H 9315   2.989   0.798  11.263 -2.8409 -0.5063 -1.3763
  810MOL0     H 9316   2.738   0.609  10.966  1.6660 -1.2539 -0.7854
  810MOL0     H 9317   2.777   0.470  11.063  0.6858 -0.6263  0.1430
  810MOL0     H 9318   2.617   0.560  11.230  0.2668  2.4249  0.7531
  810MOL0     H 9319   2.572   0.683  11.106  1.3883  0.5073  1.9157
  810MOL0     H 9320   2.532   0.372  11.084 -3.3221 -0.9899 -2.1755
  810MOL0     H 9321   2.512   0.487  10.943 -3.1749  1.1789 -0.1607
  810MOL0     H 9322   2.368   0.538  11.210 -2.4869  1.2179  0.5018
  810MOL0     H 9323   2.341   0.612  11.062 -0.9030 -0.4642  1.1678
  810MOL0     H 9324   2.289   0.319  11.105 -0.6135 -0.6086  0.4508
  810MOL0     H 9325   2.285   0.381  10.955  3.8995 -4.0093  1.1184
  810MOL0     H 9326   2.116   0.467  11.186 -1.6949  2.3109  0.3515
  810MOL0     H 9327   2.092   0.552  11.038 -1.1391 -0.1146  1.6698
  810MOL0     H 9328   2.052   0.259  11.097  0.1407  0.6840  1.2042
  810MOL0     H 9329   2.025   0.319  10.930 -0.2902 -1.2979  1.3507
  810MOL0     H 9330   1.879   0.391  11.191  0.7648  1.4623 -0.2958
  810MOL0     H 9331   1.813   0.295  11.061 -1.3937  0.7121  1.0504
  810MOL0     H 9332   2.976   0.475  10.994 -0.0850 -0.2357 -1.8022
  810MOL0     H 9333   3.219   0.491  10.967 -1.4855 -5.0058  2.6455
  810MOL0     H 9334   3.684   0.749  11.314 -1.9053 -0.6152 -1.0894
  810MOL0     H 9335   3.925   0.765  11.245 -0.6546 -3.2267  3.5440
  810MOL0     H 9336   5.651   1.086  10.841 -0.7564 -0.3324 -0.5090
  810MOL0     H 9337   5.911   1.049  10.878 -1.5725  0.2670  0.0779
  810MOL0     H 9338   6.285   0.975  11.152 -0.1034  0.6942 -1.3795
  810MOL0     H 9339   6.507   0.918  11.187 -1.5542  0.2974  1.5356
  810MOL0     H 9340   6.738   0.843  11.157  2.4006 -2.1268  0.9476
  810MOL0     H 9341   6.640   0.759  11.282 -2.3943  0.7324 -0.5638
  810MOL0     H 9342   6.789   0.566  11.258 -0.6215  0.3050  1.6466
  810MOL0     H 9343   6.882   0.706  11.314 -1.3826  2.1617 -0.4399
  810MOL0     H 9344   7.001   0.729  11.137 -1.5782  0.6753  0.7012
  810MOL0     H 9345   6.876   0.679  11.020  1.8467 -1.9445 -0.6340
  810MOL0     H 9346   6.928   0.448  11.052  0.0554  0.4643  0.3462
  810MOL0     H 9347   7.015   0.463  11.205  0.1651  0.9590  1.2678
  810MOL0     H 9348   7.286   0.498  10.876  3.9936 -1.6792  2.6286
  810MOL0     H 9349   6.461   0.567  10.968 -0.9426  0.5885 -1.7660
  810MOL0     H 9350   6.200   0.607  10.940  0.3081  0.7123 -0.5722
  811MOL0     O 9351   9.668   5.786  11.350  0.4319  0.6907 -0.0361
  811MOL0     C 9352   9.610   5.677  11.372  0.3757 -0.0914 -0.6735
  811MOL0     O 9353   9.481   5.658  11.385  0.2447  0.4220 -0.2251
  811MOL0     C 9354   9.395   5.769  11.395  0.3104  0.2468  0.6048
  811MOL0     C 9355   9.388   5.863  11.489 -0.6034 -0.5257 -0.1839
  811MOL0     C 9356   9.304   5.970  11.489 -0.0063  0.6220 -0.0890
  811MOL0     C 9357   9.212   5.992  11.389 -0.8488 -0.3594 -0.2728
  811MOL0     O 9358   9.141   6.110  11.399  1.0147  0.6244  0.4118
  811MOL0     C 9359   9.023   6.114  11.322 -0.2772  0.0734 -0.8236
  811MOL0     C 9360   8.946   6.235  11.358  0.2067  0.0121 -0.3348
  811MOL0     C 9361   8.820   6.239  11.274 -0.3172 -1.0245 -0.1352
  811MOL0     C 9362   8.724   6.343  11.343 -1.0439 -0.1194 -0.5602
  811MOL0     C 9363   8.617   6.376  11.245 -0.2783  0.4795  0.1670
  811MOL0     C 9364   8.501   6.450  11.313  0.5657  0.3388 -1.1310
  811MOL0     C 9365   8.372   6.481  11.245 -0.6504  0.4565  0.9059
  811MOL0     C 9366   8.262   6.530  11.345  0.0490 -0.5824 -0.0449
  811MOL0     N 9367   8.132   6.535  11.275 -0.2610  0.9279 -0.1668
  811MOL0     C 9368   8.094   6.650  11.208  1.1540  0.2034 -0.3385
  811MOL0     C 9369   7.981   6.608  11.141 -0.3796 -0.0579  0.6154
  811MOL0     C 9370   7.908   6.701  11.051 -0.4794  0.0833 -0.3226
  811MOL0     C 9371   7.982   6.728  10.919 -0.3483  0.2016 -0.1325
  811MOL0     C 9372   7.885   6.785  10.816 -0.2638 -1.4509 -0.2385
  811MOL0     C 9373   7.942   6.795  10.678  0.5534  1.2612  0.5068
  811MOL0     O 9374   7.850   6.866  10.594 -0.2907  0.0345 -0.5194
  811MOL0     C 9375   7.723   6.818  10.573 -0.2877 -0.0283  0.8500
  811MOL0     C 9376   7.624   6.904  10.624  0.3454  0.1620 -0.9772
  811MOL0     C 9377   7.490   6.884  10.590  0.2678 -0.3086 -0.3781
  811MOL0     C 9378   7.391   6.993  10.620  0.2764 -0.3193  0.6481
  811MOL0     C 9379   7.452   6.772  10.520  1.0544  0.9301 -0.3485
  811MOL0     C 9380   7.310   6.727  10.502  0.4339  0.3108 -0.1412
  811MOL0     O 9381   7.269   6.654  10.392  0.4730 -0.2888 -0.4556
  811MOL0     C 9382   7.140   6.608  10.380  0.7126  0.2543 -1.2317
  811MOL0     C 9383   7.123   6.474  10.398  0.0055  0.5633  0.2107
  811MOL0     C 9384   6.996   6.416  10.405 -0.5788  0.0964 -0.3777
  811MOL0     C 9385   6.882   6.489  10.396  0.2872 -0.4037 -0.2942
  811MOL0     O 9386   6.754   6.449  10.425  0.1300  0.4534 -0.2357
  811MOL0     C 9387   6.730   6.307  10.416  0.4557 -0.0437 -0.1925
  811MOL0     C 9388   6.596   6.271  10.480  0.2491 -0.0236 -0.0099
  811MOL0     C 9389   6.483   6.249  10.375  0.4570  0.0950  0.5438
  811MOL0     C 9390   6.358   6.204  10.451 -0.5422  0.1139  0.4693
  811MOL0     C 9391   6.243   6.173  10.349 -1.2737  0.1004  0.4380
  811MOL0     C 9392   6.117   6.135  10.420 -0.2907  0.3334 -0.6319
  811MOL0     C 9393   6.002   6.163  10.325 -0.8830 -0.0758  0.1167
  811MOL0     C 9394   5.868   6.132  10.389 -0.5797 -0.2788 -0.6974
  811MOL0    Cl 9395   5.743   6.145  10.255  0.1477  0.2483 -0.3508
  811MOL0     C 9396   6.897   6.626  10.385  0.4264 -0.0361 -0.0342
  811MOL0     C 9397   7.025   6.685  10.376  0.0571  0.3652  0.7759
  811MOL0     O 9398   7.242   6.750  10.603  0.0429  0.2100 -0.3426
  811MOL0     C 9399   7.547   6.672  10.487 -1.1718  0.3270 -0.3796
  811MOL0     C 9400   7.688   6.702  10.507  0.2063  0.3841  0.3510
  811MOL0     N 9401   7.957   6.481  11.166  1.4117 -0.1571  0.4527
  811MOL0     N 9402   8.044   6.435  11.246  0.2589  0.8368  0.1826
  811MOL0     C 9403   9.196   5.885  11.296 -0.8264  0.2501 -0.3208
  811MOL0     C 9404   9.291   5.780  11.296 -1.0758 -0.2989 -0.8843
  811MOL0     C 9405   9.688   5.554  11.389  0.0393  0.4310 -0.2418
  811MOL0     C 9406   9.631   5.427  11.372 -0.0705 -0.9945  0.9344
  811MOL0     C 9407   9.713   5.309  11.385 -0.0839 -0.0030 -0.2519
  811MOL0     C 9408   9.849   5.312  11.422  0.1572 -0.3009 -0.0993
  811MOL0     O 9409   9.914   5.186  11.444  0.2385 -0.4884  0.3607
  811MOL0     C 9410  10.048   5.186  11.491 -0.2163  0.7042  0.3590
  811MOL0     C 9411  10.139   5.072  11.428 -0.6079 -0.8118  0.6581
  811MOL0     C 9412  10.290   5.091  11.475 -0.9957  0.1672 -0.1906
  811MOL0     C 9413  10.360   4.964  11.432 -0.6782 -0.1468 -0.3622
  811MOL0     C 9414  10.498   4.966  11.474 -0.5688  0.0708 -0.0512
  811MOL0     C 9415  10.615   4.971  11.505  1.0626 -1.2344 -0.8214
  811MOL0     C 9416   9.906   5.444  11.437 -0.3186 -0.1548 -0.1295
  811MOL0     C 9417   9.828   5.558  11.419  0.5944 -0.5681  0.0171
  811MOL0     H 9418   9.457   5.851  11.572  0.7385  0.7838 -1.0480
  811MOL0     H 9419   9.288   6.030  11.578 -1.4132  1.3444 -0.7980
  811MOL0     H 9420   9.042   6.117  11.214 -1.1663 -3.8950 -1.2332
  811MOL0     H 9421   8.970   6.020  11.338  1.0745 -0.7435 -0.9849
  811MOL0     H 9422   8.923   6.223  11.465  1.8943  0.8728  0.1686
  811MOL0     H 9423   9.008   6.326  11.350 -0.7613  1.1198  2.9306
  811MOL0     H 9424   8.852   6.275  11.175  3.2773 -0.3657  1.1211
  811MOL0     H 9425   8.768   6.143  11.271 -0.3195 -1.2352  3.3237
  811MOL0     H 9426   8.675   6.294  11.427  1.0357 -3.1173 -0.9195
  811MOL0     H 9427   8.785   6.429  11.372 -0.6703 -0.6341  0.2061
  811MOL0     H 9428   8.659   6.440  11.167 -0.2643  0.9580  0.5620
  811MOL0     H 9429   8.573   6.285  11.203  1.6614 -0.2504 -0.4202
  811MOL0     H 9430   8.461   6.395  11.399 -0.0774  1.9829 -0.3220
  811MOL0     H 9431   8.546   6.546  11.342  1.6642 -0.8460  1.4059
  811MOL0     H 9432   8.384   6.553  11.163  1.6186 -1.7506 -0.8762
  811MOL0     H 9433   8.337   6.388  11.199 -1.1347  1.0516  0.0502
  811MOL0     H 9434   8.280   6.633  11.379 -4.6368  0.1420  0.8495
  811MOL0     H 9435   8.254   6.459  11.428  2.4213 -0.9343 -0.0253
  811MOL0     H 9436   8.154   6.739  11.191  0.3923  0.4889 -1.5915
  811MOL0     H 9437   7.808   6.659  11.040 -0.8761  1.1124 -0.7776
  811MOL0     H 9438   7.892   6.795  11.104 -1.9682  0.3114 -1.1241
  811MOL0     H 9439   8.030   6.636  10.885  1.4678  0.4239  1.6574
  811MOL0     H 9440   8.067   6.793  10.938 -0.7190  0.3881  0.9455
  811MOL0     H 9441   7.875   6.890  10.844 -1.7286 -0.5012 -3.7202
  811MOL0     H 9442   7.788   6.736  10.820 -0.4484 -1.2210 -1.3905
  811MOL0     H 9443   7.957   6.696  10.632  0.4058  2.0878 -1.4082
  811MOL0     H 9444   8.037   6.849  10.682  1.9906 -1.0400 -0.2248
  811MOL0     H 9445   7.645   6.992  10.684 -0.2163  0.1898 -0.8091
  811MOL0     H 9446   7.353   6.969  10.720  2.2976 -2.3489  1.0251
  811MOL0     H 9447   7.439   7.091  10.613  2.1487 -1.2441 -0.1653
  811MOL0     H 9448   7.311   6.994  10.545  0.0498 -0.0915  0.8905
  811MOL0     H 9449   7.208   6.406  10.399 -0.4710 -0.0435 -0.1911
  811MOL0     H 9450   6.997   6.308  10.414 -0.4550 -0.2439 -3.4316
  811MOL0     H 9451   6.748   6.271  10.315  0.8389  1.9688 -0.9033
  811MOL0     H 9452   6.791   6.247  10.484 -0.8469  0.0451  1.1063
  811MOL0     H 9453   6.593   6.172  10.525  1.5009 -1.1081 -2.1736
  811MOL0     H 9454   6.565   6.357  10.541 -0.4339 -0.7081  0.6231
  811MOL0     H 9455   6.517   6.172  10.305 -0.1555  0.2463  0.0741
  811MOL0     H 9456   6.469   6.343  10.322 -0.1420 -0.0404  0.4590
  811MOL0     H 9457   6.386   6.111  10.501  2.2715  1.3467  1.4026
  811MOL0     H 9458   6.327   6.282  10.521 -2.9778  2.1828 -2.6526
  811MOL0     H 9459   6.271   6.100  10.273 -0.2288  0.9026  0.0239
  811MOL0     H 9460   6.235   6.267  10.293 -1.6011 -0.8959 -1.2605
  811MOL0     H 9461   6.136   6.028  10.439 -1.7040 -0.3096 -2.5819
  811MOL0     H 9462   6.108   6.199  10.508  1.0084  1.7257 -1.4772
  811MOL0     H 9463   6.017   6.102  10.235 -2.7150 -0.7052  0.1869
  811MOL0     H 9464   5.995   6.266  10.289 -1.8107 -0.2110 -0.1350
  811MOL0     H 9465   5.851   6.200  10.473  2.9559 -1.0514  0.8213
  811MOL0     H 9466   5.876   6.033  10.436  3.5904  0.9397  1.6724
  811MOL0     H 9467   6.806   6.685  10.392  0.0929 -0.6304  0.8525
  811MOL0     H 9468   7.038   6.792  10.365  1.4307  0.0415 -1.2324
  811MOL0     H 9469   7.520   6.576  10.444 -1.5935 -1.3166  3.1730
  811MOL0     H 9470   7.766   6.634  10.475 -1.2964 -1.0747 -0.3194
  811MOL0     H 9471   9.123   5.900  11.218 -0.9616 -2.5099 -0.7973
  811MOL0     H 9472   9.297   5.697  11.226  4.1834 -3.0925  2.2385
  811MOL0     H 9473   9.524   5.430  11.352 -0.0271  3.6038  0.1765
  811MOL0     H 9474   9.662   5.214  11.387 -2.6385  1.2885  0.0319
  811MOL0     H 9475  10.090   5.280  11.456 -1.8744  0.8407 -1.4781
  811MOL0     H 9476  10.061   5.188  11.600  1.2302  1.3013  0.1980
  811MOL0     H 9477  10.157   5.071  11.320 -3.0584 -0.3968  0.1998
  811MOL0     H 9478  10.105   4.973  11.461  1.4312 -1.6530  0.4378
  811MOL0     H 9479  10.298   5.100  11.583 -0.3732 -1.4671 -0.0721
  811MOL0     H 9480  10.335   5.182  11.433  0.8729  0.0387  1.3879
  811MOL0     H 9481  10.352   4.941  11.325 -0.0328  1.8821 -0.8881
  811MOL0     H 9482  10.317   4.879  11.487 -1.2010 -1.0058 -2.0091
  811MOL0     H 9483  10.717   4.985  11.535  0.7614 -1.8599  0.5896
  811MOL0     H 9484  10.010   5.449  11.467  0.1898 -0.8171 -1.6838
  811MOL0     H 9485   9.875   5.655  11.433 -0.2060  0.3408 -2.8686
  812MOL0     O 9486   1.994   0.029   1.774  0.1604  0.4894 -0.1776
  812MOL0     C 9487   2.002   0.052   1.895 -0.3979 -0.4913  0.1562
  812MOL0     O 9488   1.903   0.058   1.981  1.0998 -0.3174  0.7599
  812MOL0     C 9489   1.767   0.049   1.947 -0.7164  0.4357  0.1891
  812MOL0     C 9490   1.716  -0.023   1.837 -0.4733  0.4062  0.4460
  812MOL0     C 9491   1.574  -0.033   1.822 -0.3676  0.1766 -0.0953
  812MOL0     C 9492   1.481   0.022   1.912 -0.2335  0.3602  0.2005
  812MOL0     O 9493   1.344  -0.004   1.913 -0.6503  0.7735 -0.2712
  812MOL0     C 9494   1.283  -0.021   1.788  0.1756 -0.0919 -0.5895
  812MOL0     C 9495   1.138   0.004   1.802  0.0351  0.0781  0.4833
  812MOL0     C 9496   1.103   0.145   1.833 -0.2360 -0.5560 -0.6068
  812MOL0     C 9497   0.975   0.189   1.770 -0.8171 -0.1071  0.5210
  812MOL0     C 9498   0.935   0.328   1.815  0.0739 -0.5237 -0.2576
  812MOL0     C 9499   0.979   0.433   1.715 -0.9042  0.3174  0.4584
  812MOL0     C 9500   0.934   0.571   1.770  0.3736  0.2595 -0.4450
  812MOL0     C 9501   0.973   0.688   1.668 -0.2188  0.2821 -0.4879
  812MOL0     N 9502   1.116   0.688   1.630  0.4932 -0.8211  0.0773
  812MOL0     C 9503   1.172   0.659   1.506 -0.2795 -0.1252 -0.3027
  812MOL0     C 9504   1.300   0.709   1.503 -0.1090  0.8094 -0.1787
  812MOL0     C 9505   1.400   0.696   1.392 -0.6071 -0.1542 -0.0276
  812MOL0     C 9506   1.538   0.667   1.453 -0.0995 -0.0033 -0.5244
  812MOL0     C 9507   1.608   0.803   1.471 -0.1940  0.1677 -0.1559
  812MOL0     C 9508   1.743   0.774   1.557 -0.4957 -0.0216 -1.1920
  812MOL0     O 9509   1.836   0.685   1.486 -0.5683 -0.1146 -0.1788
  812MOL0     C 9510   1.958   0.658   1.539 -0.9564  0.5046  0.3821
  812MOL0     C 9511   2.027   0.731   1.640 -0.2969 -0.6744 -0.3253
  812MOL0     C 9512   2.165   0.722   1.671 -0.3248  0.0455 -0.3458
  812MOL0     C 9513   2.205   0.810   1.790 -0.7551 -0.0641  0.3554
  812MOL0     C 9514   2.246   0.630   1.599  0.0464  0.2202  0.1266
  812MOL0     C 9515   2.382   0.605   1.621 -0.1774  0.1256  0.1999
  812MOL0     O 9516   2.406   0.470   1.628 -1.0135 -0.1221 -0.2657
  812MOL0     C 9517   2.527   0.421   1.676  0.6652 -0.0424 -0.2292
  812MOL0     C 9518   2.648   0.457   1.620 -0.9726 -0.4166 -0.3586
  812MOL0     C 9519   2.771   0.420   1.670 -1.1229 -0.2129  0.0727
  812MOL0     C 9520   2.767   0.328   1.779  0.2190  0.7293 -0.6370
  812MOL0     O 9521   2.877   0.291   1.843 -0.3051  0.9118  0.5062
  812MOL0     C 9522   3.016   0.311   1.800 -0.1208  0.3164 -0.2407
  812MOL0     C 9523   3.047   0.218   1.690  0.2258  0.9395 -0.3761
  812MOL0     C 9524   3.169   0.247   1.608  0.2602 -0.8928 -0.2778
  812MOL0     C 9525   3.300   0.273   1.681  0.4259 -0.4542 -0.0037
  812MOL0     C 9526   3.423   0.271   1.587 -0.2676 -0.0889 -0.1994
  812MOL0     C 9527   3.492   0.134   1.589 -0.7425  0.5903 -0.2145
  812MOL0     C 9528   3.594   0.112   1.470 -0.1136 -0.9527 -0.4075
  812MOL0     C 9529   3.701   0.020   1.511 -0.7564  0.5682  0.0243
  812MOL0    Cl 9530   3.620  -0.131   1.556  0.3381  0.1058  0.4745
  812MOL0     C 9531   2.642   0.292   1.838 -0.3248  0.1828  1.0904
  812MOL0     C 9532   2.521   0.337   1.788 -0.5536  0.2583  0.3979
  812MOL0     O 9533   2.455   0.699   1.652  0.2743  0.4822 -0.1596
  812MOL0     C 9534   2.180   0.551   1.505 -0.6287  0.0322  0.3541
  812MOL0     C 9535   2.045   0.564   1.473 -0.0310  0.6052 -0.1196
  812MOL0     N 9536   1.320   0.771   1.632 -0.4723 -0.2436 -0.0777
  812MOL0     N 9537   1.209   0.758   1.697  0.0303  0.1215 -1.0011
  812MOL0     C 9538   1.539   0.086   2.024  0.4530 -0.5652  1.1748
  812MOL0     C 9539   1.677   0.103   2.038 -0.6838  1.1879 -1.6057
  812MOL0     C 9540   2.141   0.077   1.941 -0.1541  0.3674 -0.9268
  812MOL0     C 9541   2.156   0.126   2.071 -0.1752 -0.6703  0.0161
  812MOL0     C 9542   2.281   0.116   2.136  0.6417  0.4209  0.0569
  812MOL0     C 9543   2.395   0.077   2.061 -0.2910  0.8801 -0.0233
  812MOL0     O 9544   2.518   0.061   2.120 -0.2875 -0.3254  0.6629
  812MOL0     C 9545   2.570   0.166   2.200 -0.3011 -0.3208  0.5510
  812MOL0     C 9546   2.543   0.165   2.353 -0.3526  0.6308  0.9035
  812MOL0     C 9547   2.597   0.032   2.424 -0.4552  0.1715 -0.0996
  812MOL0     C 9548   2.746   0.016   2.411 -0.0238 -0.3500  0.2249
  812MOL0     C 9549   2.794  -0.108   2.465 -0.1825  1.2708 -0.1165
  812MOL0     C 9550   2.839  -0.223   2.483  0.1052  0.0188 -0.0185
  812MOL0     C 9551   2.378   0.047   1.929  0.2622 -0.2989 -0.0597
  812MOL0     C 9552   2.254   0.046   1.869  0.3945 -0.4438  1.5555
  812MOL0     H 9553   1.786  -0.076   1.773 -1.1778 -1.3981  1.1031
  812MOL0     H 9554   1.540  -0.089   1.735 -1.3444 -2.5101  1.8577
  812MOL0     H 9555   1.320   0.043   1.707 -0.3726 -1.7410 -2.1909
  812MOL0     H 9556   1.291  -0.126   1.760 -4.7317 -0.6152 -0.7716
  812MOL0     H 9557   1.098  -0.035   1.708  0.0358  2.8055 -0.7307
  812MOL0     H 9558   1.093  -0.060   1.878 -2.1935  0.6220 -0.2864
  812MOL0     H 9559   1.088   0.148   1.942 -1.2484 -3.0633 -0.6020
  812MOL0     H 9560   1.184   0.207   1.794 -0.4711 -0.7951 -1.4921
  812MOL0     H 9561   0.961   0.184   1.662 -1.3245  1.0050  0.5139
  812MOL0     H 9562   0.902   0.117   1.807 -1.9118 -0.1504 -1.5893
  812MOL0     H 9563   0.826   0.336   1.812  0.0774 -0.7169 -1.3336
  812MOL0     H 9564   0.979   0.349   1.913  1.6975 -0.4129 -0.9628
  812MOL0     H 9565   1.088   0.422   1.721 -1.2069 -3.3028  1.9117
  812MOL0     H 9566   0.940   0.412   1.615 -0.7105  1.5619  0.1047
  812MOL0     H 9567   0.830   0.592   1.797  0.5478 -0.0477  0.5309
  812MOL0     H 9568   0.991   0.584   1.863  0.6270 -0.5189 -0.4832
  812MOL0     H 9569   0.959   0.785   1.717  0.8286  0.6961 -0.9654
  812MOL0     H 9570   0.905   0.686   1.583  0.4053  0.2278 -0.9924
  812MOL0     H 9571   1.121   0.621   1.418  3.0536 -2.8801 -1.3033
  812MOL0     H 9572   1.373   0.612   1.328  1.3706 -1.3177  0.5914
  812MOL0     H 9573   1.388   0.788   1.333 -3.8569 -0.1962  0.4163
  812MOL0     H 9574   1.597   0.611   1.380 -0.3412  0.5705 -1.1767
  812MOL0     H 9575   1.516   0.605   1.540 -2.8873 -2.5992 -2.8620
  812MOL0     H 9576   1.542   0.877   1.517 -0.5593  0.6015 -1.3509
  812MOL0     H 9577   1.643   0.841   1.374 -0.0782 -0.0143 -0.1866
  812MOL0     H 9578   1.724   0.753   1.663  1.9173  1.1659 -0.4602
  812MOL0     H 9579   1.786   0.873   1.576 -0.9713  0.3304 -1.8859
  812MOL0     H 9580   1.972   0.804   1.697  1.5905  2.1009 -1.8308
  812MOL0     H 9581   2.209   0.918   1.770 -0.2009 -0.1082  0.2001
  812MOL0     H 9582   2.128   0.791   1.865  0.3787 -0.3973  1.4632
  812MOL0     H 9583   2.306   0.786   1.825 -0.4987  0.9890  0.3953
  812MOL0     H 9584   2.646   0.532   1.541  0.5644 -0.5967 -0.6014
  812MOL0     H 9585   2.864   0.464   1.636 -0.5596  1.7449  3.7165
  812MOL0     H 9586   3.033   0.414   1.767  0.5249 -0.3631 -2.1936
  812MOL0     H 9587   3.082   0.288   1.884 -0.9690 -1.2505  0.0416
  812MOL0     H 9588   3.055   0.117   1.733 -0.4282  0.4427 -1.3671
  812MOL0     H 9589   2.963   0.211   1.620 -0.1586 -1.4492  0.2406
  812MOL0     H 9590   3.152   0.325   1.533 -2.4887 -0.6269  0.5301
  812MOL0     H 9591   3.175   0.162   1.540 -1.5797 -1.9974  0.8632
  812MOL0     H 9592   3.282   0.374   1.719 -3.1294 -0.8643 -0.2910
  812MOL0     H 9593   3.323   0.214   1.770 -0.3458  2.9816  2.7036
  812MOL0     H 9594   3.493   0.342   1.631  0.4000 -2.9930  3.9578
  812MOL0     H 9595   3.388   0.294   1.486  0.6279 -0.9579 -0.7271
  812MOL0     H 9596   3.540   0.133   1.687 -2.4618  3.0084  0.7543
  812MOL0     H 9597   3.418   0.053   1.584 -1.6650  1.0608  3.3279
  812MOL0     H 9598   3.635   0.212   1.450  1.9438 -1.6969 -0.1348
  812MOL0     H 9599   3.543   0.072   1.382  0.0418  2.9789 -2.5516
  812MOL0     H 9600   3.742   0.070   1.599 -2.5779  4.8764 -1.3098
  812MOL0     H 9601   3.778   0.002   1.435 -0.0976 -0.0801  0.8244
  812MOL0     H 9602   2.651   0.208   1.906 -1.7695 -1.0636 -0.1756
  812MOL0     H 9603   2.424   0.312   1.829 -1.5700 -1.7625 -2.8492
  812MOL0     H 9604   2.240   0.474   1.458 -0.9772 -0.0875  0.1079
  812MOL0     H 9605   1.992   0.515   1.391  1.0484  3.7165 -2.8898
  812MOL0     H 9606   1.468   0.126   2.096 -0.3512  0.7129 -0.2778
  812MOL0     H 9607   1.723   0.150   2.124 -1.7201  0.7292 -0.7701
  812MOL0     H 9608   2.071   0.169   2.125  1.4682  1.4072  1.1040
  812MOL0     H 9609   2.298   0.141   2.240  2.4844 -1.0565  0.1626
  812MOL0     H 9610   2.678   0.170   2.183 -0.8752  1.1041 -4.5831
  812MOL0     H 9611   2.535   0.260   2.157  0.2714 -0.9461 -1.3997
  812MOL0     H 9612   2.439   0.184   2.379 -0.5710  2.0450 -0.7637
  812MOL0     H 9613   2.604   0.243   2.401  0.5538  0.2695  0.3596
  812MOL0     H 9614   2.544  -0.058   2.389  2.5257 -1.6023 -0.3397
  812MOL0     H 9615   2.569   0.040   2.530 -0.0422  1.1831 -0.0560
  812MOL0     H 9616   2.803   0.102   2.447 -1.2375  1.4949 -1.9868
  812MOL0     H 9617   2.768   0.002   2.305 -0.4567  0.9125 -0.0559
  812MOL0     H 9618   2.867  -0.323   2.508  0.9196  0.0113 -0.8974
  812MOL0     H 9619   2.462   0.035   1.861  0.8069  2.3410  0.0397
  812MOL0     H 9620   2.252   0.006   1.768 -1.7458  1.9620  0.5567
  813MOL0     O 9621   8.644   6.313   6.565  0.3639  0.1282  0.6709
  813MOL0     C 9622   8.667   6.296   6.681 -0.0342  0.1466 -0.4138
  813MOL0     O 9623   8.793   6.274   6.736  0.7415 -0.1902 -0.7896
  813MOL0     C 9624   8.902   6.256   6.658  0.8333  0.0868  0.1354
  813MOL0     C 9625   9.007   6.350   6.668 -0.3232  0.0872  0.7019
  813MOL0     C 9626   9.108   6.327   6.577 -0.4764  0.6237 -0.7510
  813MOL0     C 9627   9.111   6.219   6.490 -1.4406 -0.8862 -0.1635
  813MOL0     O 9628   9.222   6.209   6.404 -0.5363  0.8466  0.4729
  813MOL0     C 9629   9.202   6.155   6.268 -0.1028  0.9914  0.0417
  813MOL0     C 9630   9.311   6.202   6.177 -0.3394 -0.3803 -0.1925
  813MOL0     C 9631   9.444   6.209   6.259 -0.3211 -0.0561 -0.6314
  813MOL0     C 9632   9.546   6.283   6.175  0.1635 -1.1527 -0.5630
  813MOL0     C 9633   9.610   6.196   6.068  0.9814  0.2725  0.3510
  813MOL0     C 9634   9.716   6.259   5.981 -0.3477 -1.0900 -0.0016
  813MOL0     C 9635   9.655   6.377   5.909  0.2669 -0.1431  0.1322
  813MOL0     C 9636   9.741   6.425   5.786  0.5103  0.3224 -0.6585
  813MOL0     N 9637   9.694   6.333   5.677  0.2320 -0.7404  0.6027
  813MOL0     C 9638   9.577   6.347   5.609  0.1502  0.3299  0.6690
  813MOL0     C 9639   9.574   6.225   5.539 -0.1768 -0.6255  0.9983
  813MOL0     C 9640   9.464   6.180   5.450  0.5030  0.2861 -0.5141
  813MOL0     C 9641   9.348   6.111   5.523  0.4530 -0.2006 -0.4212
  813MOL0     C 9642   9.261   6.023   5.428 -0.7735 -0.2223  0.0260
  813MOL0     C 9643   9.135   5.970   5.498  0.4770  0.8035  0.2969
  813MOL0     O 9644   9.040   6.076   5.535  0.1437 -0.2789  0.3995
  813MOL0     C 9645   8.922   6.051   5.594 -0.2037  0.3539  0.6780
  813MOL0     C 9646   8.864   5.927   5.605 -0.7419 -0.7706  0.5765
  813MOL0     C 9647   8.737   5.896   5.657  0.1565  0.0940  0.4011
  813MOL0     C 9648   8.688   5.747   5.672 -0.3719 -0.2104 -0.0144
  813MOL0     C 9649   8.672   6.007   5.718 -0.2162 -0.6481 -0.7014
  813MOL0     C 9650   8.539   5.999   5.796 -0.1363 -0.2731  1.0148
  813MOL0     O 9651   8.488   6.119   5.843  0.2467 -0.2011  0.5746
  813MOL0     C 9652   8.359   6.122   5.892 -1.6314 -1.0195  1.4975
  813MOL0     C 9653   8.337   6.148   6.021  0.2671  0.4912  0.2644
  813MOL0     C 9654   8.213   6.154   6.070  0.2362  0.7580  0.2269
  813MOL0     C 9655   8.100   6.132   5.984  0.4826  0.0532 -0.0871
  813MOL0     O 9656   7.981   6.155   6.042 -0.2372  0.1356  0.6663
  813MOL0     C 9657   7.872   6.073   6.006 -0.3162  0.6529  0.7431
  813MOL0     C 9658   7.749   6.155   6.051 -0.3603 -0.0982 -0.7299
  813MOL0     C 9659   7.619   6.094   6.002 -1.0942 -0.9266  1.2536
  813MOL0     C 9660   7.567   5.989   6.091  0.3190  0.4913  0.0045
  813MOL0     C 9661   7.433   5.927   6.044 -0.2362 -0.1610  0.5898
  813MOL0     C 9662   7.437   5.773   6.062  0.3680  0.3226 -0.5122
  813MOL0     C 9663   7.420   5.724   6.207 -0.0939  0.5296  0.5795
  813MOL0     C 9664   7.393   5.574   6.205 -0.3124  0.4934 -0.5110
  813MOL0    Cl 9665   7.271   5.535   6.086 -0.0982  0.1650 -0.0578
  813MOL0     C 9666   8.128   6.101   5.846  0.7975 -0.3563 -0.5238
  813MOL0     C 9667   8.261   6.094   5.803 -0.4165 -0.4980 -0.0555
  813MOL0     O 9668   8.475   5.894   5.799  0.0252 -1.0596 -0.0274
  813MOL0     C 9669   8.732   6.145   5.707 -0.2157  0.6539 -1.0607
  813MOL0     C 9670   8.845   6.165   5.638 -0.2614  0.2426 -0.1348
  813MOL0     N 9671   9.681   6.148   5.571 -0.0970 -0.2037  0.6915
  813MOL0     N 9672   9.759   6.214   5.651 -0.0345 -0.0528  0.6871
  813MOL0     C 9673   9.008   6.129   6.490 -0.3015  0.4116  1.4823
  813MOL0     C 9674   8.912   6.141   6.579  0.2472  0.5515 -0.1948
  813MOL0     C 9675   8.560   6.318   6.778  0.2088  0.2204 -0.2735
  813MOL0     C 9676   8.583   6.327   6.924  0.6102 -0.1567  0.3207
  813MOL0     C 9677   8.493   6.325   7.021  0.4793 -1.8121  0.5977
  813MOL0     C 9678   8.355   6.339   6.977  0.5315  0.4830 -0.1992
  813MOL0     O 9679   8.245   6.353   7.059  0.0685 -0.5347  0.2745
  813MOL0     C 9680   8.251   6.305   7.193  0.3192 -0.1550 -0.0709
  813MOL0     C 9681   8.119   6.354   7.260 -0.4164  0.4683 -0.4250
  813MOL0     C 9682   8.007   6.258   7.214  0.1901 -0.7232 -0.1505
  813MOL0     C 9683   7.873   6.302   7.283 -0.5638 -0.1643 -0.5043
  813MOL0     C 9684   7.835   6.448   7.286  0.0615  0.8913  0.3191
  813MOL0     C 9685   7.797   6.557   7.274  0.6087 -0.7718 -0.0029
  813MOL0     C 9686   8.320   6.336   6.834  0.5661 -0.4724  0.3054
  813MOL0     C 9687   8.425   6.318   6.735 -0.2218  0.7232  0.1882
  813MOL0     H 9688   9.002   6.435   6.736  1.6676  0.8995 -0.0938
  813MOL0     H 9689   9.195   6.391   6.578  1.1575 -1.3740  2.3819
  813MOL0     H 9690   9.205   6.046   6.280 -2.3307  0.9224  0.4326
  813MOL0     H 9691   9.107   6.183   6.222 -0.9641  1.7429  2.1628
  813MOL0     H 9692   9.308   6.134   6.091 -0.9699 -1.9329  1.0268
  813MOL0     H 9693   9.296   6.304   6.141  1.7333 -0.3903 -1.2992
  813MOL0     H 9694   9.434   6.260   6.356  0.3409  1.2759 -1.2281
  813MOL0     H 9695   9.471   6.106   6.284 -1.6534 -0.4399 -0.6864
  813MOL0     H 9696   9.493   6.371   6.136 -4.3443 -2.3445  2.1793
  813MOL0     H 9697   9.629   6.323   6.234  0.1631 -0.4962 -0.9881
  813MOL0     H 9698   9.643   6.096   6.098  0.3657 -1.5450 -4.1938
  813MOL0     H 9699   9.537   6.179   5.988  2.2879  0.6219 -0.9644
  813MOL0     H 9700   9.803   6.302   6.030  0.9078  0.7076 -3.4800
  813MOL0     H 9701   9.743   6.191   5.900  1.5372  0.5950 -0.8578
  813MOL0     H 9702   9.551   6.356   5.881 -0.7978  2.0186  2.0301
  813MOL0     H 9703   9.650   6.453   5.988  2.3248 -0.9913  1.1462
  813MOL0     H 9704   9.843   6.402   5.816  0.0152  0.0726  0.9438
  813MOL0     H 9705   9.726   6.531   5.767  2.6987  0.7135 -0.4361
  813MOL0     H 9706   9.508   6.431   5.600 -0.3451 -0.2629 -2.2664
  813MOL0     H 9707   9.428   6.262   5.387 -1.0173  1.9383  2.2759
  813MOL0     H 9708   9.520   6.110   5.387  0.4193 -0.5608  0.3259
  813MOL0     H 9709   9.289   6.191   5.568 -1.4063 -0.9539 -1.3998
  813MOL0     H 9710   9.396   6.048   5.599  2.6273  0.3736 -1.2353
  813MOL0     H 9711   9.319   5.941   5.385 -0.0197  0.0509  0.4990
  813MOL0     H 9712   9.226   6.078   5.340 -0.2889  1.0912  0.6174
  813MOL0     H 9713   9.152   5.911   5.589 -2.7840 -0.4208  0.2664
  813MOL0     H 9714   9.102   5.907   5.415  3.0030  1.7436 -1.5438
  813MOL0     H 9715   8.926   5.843   5.578  0.4092  0.6255 -1.3415
  813MOL0     H 9716   8.745   5.672   5.616 -2.1239 -3.3677  2.1521
  813MOL0     H 9717   8.701   5.717   5.776 -0.5563 -1.5744 -0.3631
  813MOL0     H 9718   8.585   5.737   5.637  0.1178 -2.8178 -0.9345
  813MOL0     H 9719   8.420   6.173   6.086  0.2236  1.5636 -0.0614
  813MOL0     H 9720   8.190   6.178   6.174 -0.5606 -1.5785  0.6612
  813MOL0     H 9721   7.868   6.072   5.896 -1.0807  1.6277  0.7420
  813MOL0     H 9722   7.877   5.975   6.053 -1.2085  0.7598  1.0750
  813MOL0     H 9723   7.752   6.168   6.159  1.4630 -0.9062 -0.6523
  813MOL0     H 9724   7.774   6.255   6.012  3.0563 -1.0372 -1.2513
  813MOL0     H 9725   7.620   6.066   5.896  1.5859  3.4505 -0.1224
  813MOL0     H 9726   7.546   6.175   6.016  2.3128  2.0160  3.8354
  813MOL0     H 9727   7.640   5.907   6.094 -0.1113  0.0750 -0.5794
  813MOL0     H 9728   7.549   6.031   6.190 -0.2622  0.9484 -0.2875
  813MOL0     H 9729   7.415   5.943   5.937  0.1602  2.8031  0.8658
  813MOL0     H 9730   7.350   5.963   6.107 -1.5960  0.1686 -1.2878
  813MOL0     H 9731   7.346   5.747   6.007 -0.2819  0.5384  0.4363
  813MOL0     H 9732   7.522   5.723   6.015 -0.3703 -0.2297 -1.2987
  813MOL0     H 9733   7.327   5.765   6.247 -2.1523 -2.3780 -0.9230
  813MOL0     H 9734   7.501   5.759   6.272 -1.3042  1.2857  1.7354
  813MOL0     H 9735   7.366   5.530   6.302  1.7214  1.0985  0.3758
  813MOL0     H 9736   7.488   5.533   6.172 -1.3265 -2.5803  0.1203
  813MOL0     H 9737   8.053   6.086   5.768  0.2913  0.6647 -0.2557
  813MOL0     H 9738   8.280   6.068   5.700 -2.0029  3.1378 -1.4619
  813MOL0     H 9739   8.699   6.235   5.758  1.2881  1.7952 -2.0203
  813MOL0     H 9740   8.881   6.267   5.640 -1.5753  0.7174  1.2380
  813MOL0     H 9741   9.002   6.050   6.416  0.6804  2.0471 -0.4040
  813MOL0     H 9742   8.825   6.077   6.572 -0.4494  1.6456 -2.9863
  813MOL0     H 9743   8.689   6.318   6.947  0.7749 -2.0623 -0.9251
  813MOL0     H 9744   8.533   6.328   7.122  0.8174  0.1055  0.4271
  813MOL0     H 9745   8.269   6.197   7.194 -2.6708 -0.7658 -1.0634
  813MOL0     H 9746   8.334   6.352   7.246  1.4049 -2.1796  0.1435
  813MOL0     H 9747   8.110   6.459   7.231 -0.9888 -0.2030 -2.8983
  813MOL0     H 9748   8.135   6.348   7.368 -0.5902  1.0531 -0.3659
  813MOL0     H 9749   8.026   6.151   7.229 -1.2949 -1.1226 -0.8434
  813MOL0     H 9750   7.996   6.262   7.105  2.0682 -1.8682 -0.4312
  813MOL0     H 9751   7.865   6.258   7.383  0.4888  0.6630 -0.0374
  813MOL0     H 9752   7.783   6.271   7.228  1.8813 -4.8113 -2.3901
  813MOL0     H 9753   7.759   6.656   7.283  4.3657  0.7443  1.2870
  813MOL0     H 9754   8.216   6.347   6.806  0.0005 -1.7747  1.7483
  813MOL0     H 9755   8.403   6.304   6.630 -2.2911 -0.3449  0.7179
  814MOL0     O 9756   4.963   2.497   2.082  0.6041  0.0830  0.2468
  814MOL0     C 9757   4.985   2.521   2.197  0.7349 -0.3524 -0.2259
  814MOL0     O 9758   4.919   2.473   2.293 -0.1348  0.7633 -0.6119
  814MOL0     C 9759   4.800   2.410   2.277 -0.0618 -0.4019 -0.3027
  814MOL0     C 9760   4.779   2.287   2.346 -0.7355  0.6049 -0.0281
  814MOL0     C 9761   4.651   2.225   2.342  0.2137  0.1790  0.8836
  814MOL0     C 9762   4.556   2.276   2.263  0.4480 -0.2312  0.1401
  814MOL0     O 9763   4.434   2.208   2.248  0.1401 -0.3001 -0.2824
  814MOL0     C 9764   4.404   2.125   2.137 -0.3489 -0.1495  0.1191
  814MOL0     C 9765   4.252   2.080   2.168  0.1540 -0.3377  0.5315
  814MOL0     C 9766   4.174   2.035   2.045 -1.0130 -0.4103  1.0750
  814MOL0     C 9767   4.090   2.154   1.996  0.6111  0.8051 -0.4153
  814MOL0     C 9768   4.010   2.135   1.858 -0.0042  0.7553 -1.4158
  814MOL0     C 9769   3.883   2.059   1.879 -0.2354 -0.0686  0.0205
  814MOL0     C 9770   3.784   2.074   1.764 -0.8754 -0.3352  0.3473
  814MOL0     C 9771   3.659   1.996   1.797  0.8005  0.4249 -0.6120
  814MOL0     N 9772   3.561   2.074   1.878  0.5432 -0.0425  0.4031
  814MOL0     C 9773   3.450   2.132   1.823  0.3403  0.0766  0.4102
  814MOL0     C 9774   3.403   2.200   1.924  0.4428  0.7269 -0.5447
  814MOL0     C 9775   3.269   2.265   1.927 -0.5968 -0.0160  0.0733
  814MOL0     C 9776   3.153   2.161   1.939  0.2569  0.4415  0.9798
  814MOL0     C 9777   3.019   2.224   1.887 -0.9302 -0.0332 -0.1094
  814MOL0     C 9778   2.898   2.130   1.907 -0.3311  0.5819 -0.3451
  814MOL0     O 9779   2.839   2.143   2.041 -0.2224 -0.7315  0.8239
  814MOL0     C 9780   2.747   2.066   2.096  1.0610  0.1422  1.2839
  814MOL0     C 9781   2.668   1.974   2.023  0.2381  0.2431 -0.6284
  814MOL0     C 9782   2.565   1.902   2.077 -0.7902 -0.6186 -0.2024
  814MOL0     C 9783   2.505   1.806   1.984  0.0927 -0.3361 -0.7011
  814MOL0     C 9784   2.537   1.918   2.211 -1.4437  0.1284 -0.6439
  814MOL0     C 9785   2.425   1.857   2.280  0.1544 -0.0971  0.2173
  814MOL0     O 9786   2.302   1.815   2.216 -0.2911 -0.4328 -0.8630
  814MOL0     C 9787   2.194   1.811   2.298 -0.9615  1.1766  0.5737
  814MOL0     C 9788   2.111   1.922   2.320 -0.6067 -0.4689  0.2068
  814MOL0     C 9789   2.002   1.907   2.408 -0.2679  0.6385  0.3912
  814MOL0     C 9790   1.989   1.791   2.479  0.6790 -0.2263  0.3683
  814MOL0     O 9791   1.886   1.774   2.572 -0.4918 -0.1746  0.1677
  814MOL0     C 9792   1.815   1.879   2.630 -0.5037 -0.6352  0.2404
  814MOL0     C 9793   1.762   1.828   2.761  0.3553 -0.1316 -0.6746
  814MOL0     C 9794   1.658   1.921   2.827  0.1274 -0.3396 -0.8871
  814MOL0     C 9795   1.506   1.876   2.789 -1.3060  0.3129 -0.5634
  814MOL0     C 9796   1.415   1.945   2.885  0.7174 -0.0017  0.4660
  814MOL0     C 9797   1.276   1.884   2.872  0.3655 -0.5696  0.4173
  814MOL0     C 9798   1.163   1.948   2.952 -0.2402 -0.5185 -0.4332
  814MOL0     C 9799   1.179   1.934   3.103 -0.1026  1.0019  0.1932
  814MOL0    Cl 9800   1.146   1.762   3.144  0.2072 -0.0020 -0.4561
  814MOL0     C 9801   2.073   1.689   2.459 -0.2434  0.0514  0.1755
  814MOL0     C 9802   2.172   1.698   2.365  0.3672  0.7620 -0.3643
  814MOL0     O 9803   2.439   1.862   2.399 -0.0921  0.4917  0.1828
  814MOL0     C 9804   2.609   2.021   2.286 -0.2593 -0.0769 -0.2080
  814MOL0     C 9805   2.710   2.096   2.231  0.2534 -0.5049  0.0979
  814MOL0     N 9806   3.473   2.174   2.039  0.8396  0.2883 -0.4791
  814MOL0     N 9807   3.573   2.103   2.008 -0.6803 -0.1003 -0.5022
  814MOL0     C 9808   4.578   2.398   2.201 -0.2454 -0.7708 -0.6151
  814MOL0     C 9809   4.694   2.470   2.208  0.1108  0.7667  0.0692
  814MOL0     C 9810   5.092   2.615   2.237  0.6786 -0.3936  0.4108
  814MOL0     C 9811   5.136   2.628   2.369  0.4058  0.2485  0.6133
  814MOL0     C 9812   5.226   2.726   2.406 -1.2269  0.4933 -0.1577
  814MOL0     C 9813   5.288   2.812   2.310  0.0399  0.6280 -0.4559
  814MOL0     O 9814   5.382   2.909   2.343  0.2751 -0.0623  0.3076
  814MOL0     C 9815   5.463   2.894   2.459  0.3872  0.5030 -0.5372
  814MOL0     C 9816   5.600   2.966   2.440 -0.9241 -0.5802  0.1851
  814MOL0     C 9817   5.695   2.919   2.333 -0.3556  0.4887  0.3653
  814MOL0     C 9818   5.823   3.009   2.338 -0.2153 -0.3524 -0.6076
  814MOL0     C 9819   5.941   2.952   2.399 -0.1697  0.1871 -0.9158
  814MOL0     C 9820   6.037   2.926   2.469  0.2803  0.0149 -0.3800
  814MOL0     C 9821   5.267   2.780   2.175  0.4449 -0.2524 -0.3650
  814MOL0     C 9822   5.163   2.691   2.139  0.4632 -0.1080 -0.6537
  814MOL0     H 9823   4.863   2.244   2.399  1.8332  1.8605 -2.7562
  814MOL0     H 9824   4.627   2.131   2.391 -3.0492  0.3023 -0.2273
  814MOL0     H 9825   4.421   2.175   2.041  4.0182 -2.3434 -0.4966
  814MOL0     H 9826   4.462   2.033   2.127 -0.7752 -0.4997  0.8111
  814MOL0     H 9827   4.255   1.986   2.224 -2.8325 -0.4416  0.6734
  814MOL0     H 9828   4.197   2.149   2.233  0.2524 -2.0202  2.5012
  814MOL0     H 9829   4.241   2.011   1.963  0.2263  2.7333  1.0080
  814MOL0     H 9830   4.108   1.951   2.071  0.6999 -1.8960  0.7486
  814MOL0     H 9831   4.012   2.175   2.070  0.4275  0.2154 -0.4407
  814MOL0     H 9832   4.155   2.242   1.989 -0.7248  1.7198 -1.8628
  814MOL0     H 9833   3.994   2.235   1.815  1.0825  1.2738 -0.6737
  814MOL0     H 9834   4.079   2.075   1.798  0.7949  0.1708  0.0461
  814MOL0     H 9835   3.912   1.953   1.872  0.3118  0.1280 -0.9796
  814MOL0     H 9836   3.834   2.079   1.974 -0.3069  0.8089 -0.1960
  814MOL0     H 9837   3.763   2.177   1.735 -0.0055 -0.5938 -1.3109
  814MOL0     H 9838   3.831   2.032   1.675 -0.2665  0.1815  0.4185
  814MOL0     H 9839   3.685   1.906   1.854  1.2394  0.1829 -1.1986
  814MOL0     H 9840   3.614   1.951   1.708  2.8754 -1.3688 -0.8337
  814MOL0     H 9841   3.420   2.115   1.720  0.2797 -0.0867  0.4549
  814MOL0     H 9842   3.264   2.322   2.019 -2.7595  0.7652 -0.4712
  814MOL0     H 9843   3.251   2.328   1.839 -0.9133 -1.9924 -1.3670
  814MOL0     H 9844   3.147   2.121   2.040  2.7175  1.9045  1.8068
  814MOL0     H 9845   3.172   2.079   1.869  0.0106  0.8445  0.4252
  814MOL0     H 9846   3.049   2.233   1.782 -0.4879 -0.1815  0.0031
  814MOL0     H 9847   2.997   2.323   1.927 -2.3956 -1.2870  2.4275
  814MOL0     H 9848   2.936   2.027   1.902  2.1040  1.4247 -0.1225
  814MOL0     H 9849   2.822   2.156   1.833 -0.7436 -0.6716 -0.3984
  814MOL0     H 9850   2.703   1.958   1.921 -0.6629  1.9757 -1.2526
  814MOL0     H 9851   2.398   1.827   1.970  0.2775  1.3144  0.1150
  814MOL0     H 9852   2.549   1.793   1.885 -2.6212 -1.6690 -1.8271
  814MOL0     H 9853   2.525   1.707   2.026 -0.2540  0.5792  1.8262
  814MOL0     H 9854   2.137   2.014   2.267 -0.7902 -0.5931 -0.1005
  814MOL0     H 9855   1.914   1.970   2.419  0.1242  1.7358 -2.0873
  814MOL0     H 9856   1.880   1.964   2.655 -3.3348  1.2330  1.8112
  814MOL0     H 9857   1.732   1.921   2.573 -0.2215  1.7085  1.4552
  814MOL0     H 9858   1.726   1.726   2.741  2.6595 -0.7715 -1.9418
  814MOL0     H 9859   1.843   1.818   2.834  0.2531  0.1265 -0.5240
  814MOL0     H 9860   1.680   2.027   2.816 -3.5269  0.6972  0.1806
  814MOL0     H 9861   1.683   1.906   2.933  2.4999 -3.5155 -1.7426
  814MOL0     H 9862   1.497   1.908   2.685 -0.1893  0.1984 -0.7100
  814MOL0     H 9863   1.488   1.769   2.805 -0.3461  0.0106 -1.3829
  814MOL0     H 9864   1.401   2.051   2.861  1.5170 -0.4534 -2.4723
  814MOL0     H 9865   1.455   1.944   2.986 -0.4732  4.4380  1.1570
  814MOL0     H 9866   1.242   1.890   2.768  2.5397  1.8058 -0.2699
  814MOL0     H 9867   1.283   1.775   2.882  3.5860 -0.3681  1.7874
  814MOL0     H 9868   1.069   1.900   2.927 -0.1988 -0.7759 -0.0944
  814MOL0     H 9869   1.151   2.055   2.932  3.4768  0.7053  2.5494
  814MOL0     H 9870   1.097   1.993   3.145 -0.8048  1.1888 -1.3883
  814MOL0     H 9871   1.268   1.974   3.153 -0.2353 -0.3797  1.6194
  814MOL0     H 9872   2.052   1.604   2.525 -1.3128  0.5404  0.4875
  814MOL0     H 9873   2.224   1.608   2.336  2.1997  0.5716  2.9998
  814MOL0     H 9874   2.585   2.054   2.386 -0.9476 -2.4741  0.4685
  814MOL0     H 9875   2.761   2.175   2.284 -0.9465 -0.4017  1.1566
  814MOL0     H 9876   4.501   2.442   2.139  0.5684  1.4991 -0.1281
  814MOL0     H 9877   4.705   2.561   2.151 -1.5620  0.1833 -1.2929
  814MOL0     H 9878   5.071   2.582   2.443 -2.6571 -0.1033 -2.0674
  814MOL0     H 9879   5.231   2.762   2.508  1.8917  2.8714 -0.9834
  814MOL0     H 9880   5.408   2.924   2.549  0.5752 -1.4134  0.2784
  814MOL0     H 9881   5.486   2.788   2.473  0.4857  0.8032  2.0809
  814MOL0     H 9882   5.656   2.971   2.533 -1.9772 -1.8133  0.9301
  814MOL0     H 9883   5.578   3.071   2.419 -2.1865 -0.6757  0.9496
  814MOL0     H 9884   5.641   2.911   2.238  0.2365  0.6660  0.0094
  814MOL0     H 9885   5.737   2.819   2.348 -2.1134 -0.2734  0.5276
  814MOL0     H 9886   5.808   3.105   2.387  2.5566 -0.7403  1.2750
  814MOL0     H 9887   5.850   3.027   2.234  1.7510 -0.5402 -0.1734
  814MOL0     H 9888   6.117   2.888   2.530 -1.4371 -3.3753 -0.0262
  814MOL0     H 9889   5.311   2.847   2.102 -0.4325  2.5375  1.5002
  814MOL0     H 9890   5.144   2.671   2.034  0.2524 -0.4111 -0.5557
  815MOL0     O 9891   6.827   2.733   6.132 -0.7225  0.4709  0.7406
  815MOL0     C 9892   6.859   2.857   6.143  0.0564  0.1015  0.0559
  815MOL0     O 9893   6.779   2.955   6.166  0.1490  0.3710  0.1297
  815MOL0     C 9894   6.644   2.937   6.135 -0.1671 -0.3255  0.8584
  815MOL0     C 9895   6.599   2.912   6.007  0.1456  0.2744  0.4363
  815MOL0     C 9896   6.458   2.891   6.000 -0.1097  0.3009  0.5363
  815MOL0     C 9897   6.368   2.902   6.103  0.1746  0.1917 -0.2210
  815MOL0     O 9898   6.234   2.871   6.069 -0.4637 -0.6292 -0.1497
  815MOL0     C 9899   6.156   2.841   6.183  0.6647  0.6880 -0.2110
  815MOL0     C 9900   6.014   2.771   6.143  0.7341 -0.6181  0.5726
  815MOL0     C 9901   5.925   2.878   6.078  0.5484  0.7831  0.4619
  815MOL0     C 9902   5.819   2.801   6.003  0.3535  0.1779  0.1058
  815MOL0     C 9903   5.698   2.900   5.958 -0.1010  1.0366  0.4929
  815MOL0     C 9904   5.597   2.812   5.877  0.5797 -0.4451 -0.3742
  815MOL0     C 9905   5.481   2.886   5.812  0.0413 -0.2359  1.2491
  815MOL0     C 9906   5.542   2.993   5.716  0.2091  0.4771 -0.3453
  815MOL0     N 9907   5.458   3.022   5.594  1.0125 -0.4883 -0.4520
  815MOL0     C 9908   5.325   3.074   5.593  0.2513 -0.0857 -0.9427
  815MOL0     C 9909   5.277   3.033   5.472 -0.3076  1.0199 -0.5896
  815MOL0     C 9910   5.137   3.054   5.426  0.3105 -0.1520  0.0283
  815MOL0     C 9911   5.118   3.203   5.410  0.3862  0.9035 -0.8375
  815MOL0     C 9912   5.047   3.226   5.280 -0.7584 -0.0974  1.1117
  815MOL0     C 9913   4.991   3.369   5.272 -0.0628  0.5327 -0.6511
  815MOL0     O 9914   4.877   3.379   5.353 -0.2267 -0.6385 -0.2392
  815MOL0     C 9915   4.766   3.418   5.273  0.1850  0.7873  0.8426
  815MOL0     C 9916   4.685   3.320   5.210 -0.0682  0.2351 -0.6320
  815MOL0     C 9917   4.562   3.353   5.147  0.0147  0.6354 -0.6242
  815MOL0     C 9918   4.486   3.244   5.083  0.0964 -1.2977  0.4277
  815MOL0     C 9919   4.515   3.496   5.157 -0.1260  0.1630 -0.0164
  815MOL0     C 9920   4.388   3.542   5.101 -0.4775  0.1942 -0.0922
  815MOL0     O 9921   4.343   3.659   5.171  0.3855 -0.7999  0.8109
  815MOL0     C 9922   4.225   3.728   5.133 -0.2770  0.3742  0.5350
  815MOL0     C 9923   4.156   3.728   5.009  0.1159 -0.1359 -0.2516
  815MOL0     C 9924   4.034   3.798   4.989 -0.1133  0.1924 -0.0030
  815MOL0     C 9925   3.978   3.868   5.095  0.8253  0.2458 -0.2388
  815MOL0     O 9926   3.866   3.945   5.089  0.4983  0.9955  0.4952
  815MOL0     C 9927   3.801   3.969   4.967 -0.3414  0.2395  0.0323
  815MOL0     C 9928   3.692   4.068   4.987  0.6106  1.6391  0.0832
  815MOL0     C 9929   3.602   4.072   4.866  0.1802 -0.4070  1.3516
  815MOL0     C 9930   3.514   4.197   4.871 -0.4892  0.0288 -1.1320
  815MOL0     C 9931   3.408   4.202   4.764  0.3469  0.0025 -0.4744
  815MOL0     C 9932   3.281   4.289   4.794  0.1508 -0.7460 -0.4833
  815MOL0     C 9933   3.236   4.362   4.677  0.8986 -1.1029  0.7663
  815MOL0     C 9934   3.089   4.402   4.689  0.3600  0.0389  0.0201
  815MOL0    Cl 9935   3.032   4.476   4.844 -0.2012 -0.0166  0.0354
  815MOL0     C 9936   4.040   3.874   5.223 -0.1822  0.2567 -0.0092
  815MOL0     C 9937   4.166   3.803   5.235  0.4560  0.3618  0.2819
  815MOL0     O 9938   4.336   3.498   5.004  0.1709 -0.2963 -0.6251
  815MOL0     C 9939   4.601   3.581   5.219 -0.0683 -0.3858 -0.2389
  815MOL0     C 9940   4.719   3.543   5.278  0.4890 -0.7521 -0.2870
  815MOL0     N 9941   5.383   2.965   5.403  0.1102 -0.0252  0.1321
  815MOL0     N 9942   5.485   2.967   5.479 -0.5365 -0.1448 -0.9271
  815MOL0     C 9943   6.421   2.950   6.231 -1.1944 -0.0150 -0.0455
  815MOL0     C 9944   6.562   2.960   6.245 -0.0189 -0.0959 -0.1245
  815MOL0     C 9945   7.005   2.889   6.144  0.8112  0.4982  0.3584
  815MOL0     C 9946   7.108   2.797   6.116 -0.4737  0.5645 -0.5693
  815MOL0     C 9947   7.240   2.831   6.136 -0.3780 -0.1469  0.8038
  815MOL0     C 9948   7.277   2.956   6.169 -0.5844 -0.6704  0.0214
  815MOL0     O 9949   7.406   3.005   6.183  0.3492  0.0935 -0.2141
  815MOL0     C 9950   7.515   2.904   6.204  1.0013 -0.5187 -1.1555
  815MOL0     C 9951   7.623   2.961   6.292 -1.0387 -0.3353 -0.3163
  815MOL0     C 9952   7.574   3.045   6.407  0.4151 -0.1967 -0.6363
  815MOL0     C 9953   7.494   2.961   6.508  0.8827  0.5546  0.6395
  815MOL0     C 9954   7.459   3.056   6.621  0.4332 -0.3986  0.7151
  815MOL0     C 9955   7.438   3.134   6.709  0.3624 -0.0112 -0.3995
  815MOL0     C 9956   7.175   3.049   6.185 -0.6386 -0.3734 -0.4398
  815MOL0     C 9957   7.043   3.018   6.188 -0.1400  0.1923  0.5615
  815MOL0     H 9958   6.669   2.908   5.924  1.9329  0.7040  1.8722
  815MOL0     H 9959   6.409   2.871   5.905  0.2206  1.4439  0.1007
  815MOL0     H 9960   6.209   2.771   6.248  0.4934  1.1227  0.4067
  815MOL0     H 9961   6.133   2.928   6.245  1.0282 -0.3859  1.5064
  815MOL0     H 9962   6.037   2.693   6.070  0.0822  0.0036 -0.3194
  815MOL0     H 9963   5.973   2.736   6.238 -1.7250  0.2726 -0.0897
  815MOL0     H 9964   5.880   2.942   6.154  2.8728  2.4971  0.5035
  815MOL0     H 9965   5.981   2.947   6.014 -0.1062 -0.6362 -1.7861
  815MOL0     H 9966   5.870   2.756   5.917  0.7083  1.6438 -0.4794
  815MOL0     H 9967   5.770   2.724   6.064  0.8712 -0.6427 -0.4795
  815MOL0     H 9968   5.648   2.949   6.041  0.2997  0.8768  0.8295
  815MOL0     H 9969   5.737   2.979   5.894  0.8191  1.5758  1.7053
  815MOL0     H 9970   5.647   2.754   5.800  0.5277  1.0146 -1.5486
  815MOL0     H 9971   5.560   2.741   5.951  2.1304  0.1870  1.0790
  815MOL0     H 9972   5.418   2.814   5.760  1.7603 -2.1671  1.7081
  815MOL0     H 9973   5.414   2.924   5.890  3.1133  0.0992  3.9352
  815MOL0     H 9974   5.638   2.959   5.677  0.5738  3.7435 -2.6581
  815MOL0     H 9975   5.557   3.086   5.772  1.7553 -1.7437  3.3281
  815MOL0     H 9976   5.262   3.119   5.669 -0.9223  1.1402 -2.5820
  815MOL0     H 9977   5.096   3.005   5.337 -2.5762  2.0379 -0.0082
  815MOL0     H 9978   5.076   3.026   5.512  0.5423 -2.3441 -0.4419
  815MOL0     H 9979   5.216   3.251   5.410 -0.0162  1.7606 -0.7993
  815MOL0     H 9980   5.069   3.245   5.499  0.6796 -1.5070  0.5150
  815MOL0     H 9981   4.967   3.159   5.248 -0.2482  0.8137 -2.5256
  815MOL0     H 9982   5.113   3.221   5.192 -0.6279 -1.4381  1.2637
  815MOL0     H 9983   4.965   3.399   5.170  1.8665 -0.5078 -1.5067
  815MOL0     H 9984   5.069   3.442   5.296  0.5814  1.7498 -5.3646
  815MOL0     H 9985   4.730   3.221   5.207 -1.3290 -0.3437 -2.7922
  815MOL0     H 9986   4.520   3.236   4.979  2.3065  0.8074  0.9012
  815MOL0     H 9987   4.514   3.152   5.134  1.6670  0.6173  3.2680
  815MOL0     H 9988   4.381   3.272   5.090  0.6134  1.0998 -0.5244
  815MOL0     H 9989   4.196   3.680   4.920  0.4249 -1.3306  0.5116
  815MOL0     H 9990   3.987   3.781   4.893  0.0606 -3.6547  0.4193
  815MOL0     H 9991   3.882   4.005   4.903  0.2498 -0.6772  0.2499
  815MOL0     H 9992   3.767   3.875   4.922 -0.5558 -0.2659  1.2167
  815MOL0     H 9993   3.639   4.040   5.079  0.4103 -0.9251 -0.7313
  815MOL0     H 9994   3.746   4.161   5.005  3.8772 -0.3793  1.5968
  815MOL0     H 9995   3.536   3.985   4.875 -1.0388  0.3696  0.1860
  815MOL0     H 9996   3.660   4.065   4.774 -1.1466  0.5972  0.4062
  815MOL0     H 9997   3.464   4.190   4.968 -1.0741  1.4141 -1.3082
  815MOL0     H 9998   3.576   4.285   4.889  0.2449 -0.9873  1.9553
  815MOL0     H 9999   3.368   4.103   4.740  0.5168 -0.4487  0.9688
  815MOL0     H10000   3.457   4.247   4.677 -0.0520  1.4748  0.0297
  815MOL0     H10001   3.199   4.228   4.834  0.7713 -2.4666 -1.7202
  815MOL0     H10002   3.295   4.364   4.873 -2.1752 -0.6533 -0.0835
  815MOL0     H10003   3.252   4.304   4.585 -2.0535 -1.5727  0.4465
  815MOL0     H10004   3.284   4.460   4.689 -0.1628 -0.3702 -0.6875
  815MOL0     H10005   3.031   4.311   4.680  0.1887 -0.1006  2.1111
  815MOL0     H10006   3.063   4.469   4.606  1.3246 -1.7800 -1.8445
  815MOL0     H10007   3.997   3.932   5.304 -1.3642 -1.3244  0.5468
  815MOL0     H10008   4.217   3.797   5.331 -1.4864 -2.2757  1.2855
  815MOL0     H10009   4.573   3.684   5.237 -0.6513 -0.5299 -0.2948
  815MOL0     H10010   4.778   3.618   5.330  2.0178 -2.3399  0.3733
  815MOL0     H10011   6.347   2.975   6.306 -0.2539 -1.0996  1.2720
  815MOL0     H10012   6.613   2.978   6.340  0.4244 -2.9159  0.2653
  815MOL0     H10013   7.087   2.693   6.094  0.3103  0.1754  0.4402
  815MOL0     H10014   7.318   2.756   6.125 -0.6253 -0.3401  0.3458
  815MOL0     H10015   7.462   2.823   6.255  0.2763 -1.3808 -3.1297
  815MOL0     H10016   7.559   2.865   6.112  0.2221  2.6185 -3.0171
  815MOL0     H10017   7.686   3.018   6.224  0.5598 -1.3774  0.2268
  815MOL0     H10018   7.682   2.878   6.331  0.4573  0.6115 -0.4910
  815MOL0     H10019   7.521   3.134   6.370  1.2643  0.9990  0.8981
  815MOL0     H10020   7.661   3.097   6.446  1.4055 -2.8207  0.8892
  815MOL0     H10021   7.556   2.880   6.548  1.7183  0.3152 -1.0284
  815MOL0     H10022   7.402   2.929   6.459  1.9859  2.0302 -2.6445
  815MOL0     H10023   7.453   3.194   6.796  0.8416  1.4059 -1.4161
  815MOL0     H10024   7.207   3.150   6.211 -2.0317 -0.0915  0.2812
  815MOL0     H10025   6.975   3.099   6.213 -0.1489 -0.2746  2.1633
  816MOL0     O10026   3.711   7.784   5.066 -0.5160  0.6958 -0.0446
  816MOL0     C10027   3.782   7.683   5.055  0.4227  0.4400 -0.3488
  816MOL0     O10028   3.740   7.554   5.026  0.2099 -0.5977  0.5737
  816MOL0     C10029   3.611   7.517   4.976 -0.1013  0.2861 -0.1600
  816MOL0     C10030   3.566   7.377   4.991  0.6536 -0.3265  1.1801
  816MOL0     C10031   3.442   7.331   4.940 -0.3986 -0.0644 -1.1683
  816MOL0     C10032   3.353   7.416   4.881 -0.3213  0.2268 -0.6450
  816MOL0     O10033   3.248   7.354   4.823  0.3042  0.2059  0.4329
  816MOL0     C10034   3.120   7.383   4.881 -0.1607 -0.1018  0.8007
  816MOL0     C10035   3.112   7.313   5.014 -0.1945 -0.4141  0.0318
  816MOL0     C10036   2.966   7.297   5.065 -0.3814  1.2359  0.4561
  816MOL0     C10037   2.887   7.426   5.101  0.0139 -0.0535 -0.0063
  816MOL0     C10038   2.740   7.391   5.142 -0.4023  0.4250  0.2852
  816MOL0     C10039   2.644   7.512   5.163 -0.4449  0.2678  0.0208
  816MOL0     C10040   2.489   7.486   5.167 -0.1343 -0.3036  0.2368
  816MOL0     C10041   2.458   7.418   5.301  1.7519  0.2392 -0.2475
  816MOL0     N10042   2.312   7.442   5.337 -0.2421  0.3752 -0.7445
  816MOL0     C10043   2.258   7.494   5.459 -0.4114  0.0196 -0.2442
  816MOL0     C10044   2.121   7.493   5.444 -0.1347  0.3216  0.2720
  816MOL0     C10045   2.038   7.565   5.540  0.1215  0.8475 -0.8435
  816MOL0     C10046   1.891   7.591   5.490  0.7674 -0.1981 -0.9223
  816MOL0     C10047   1.807   7.467   5.472  0.3338  0.0149 -0.1787
  816MOL0     C10048   1.659   7.489   5.470  0.6470  0.5114 -0.1307
  816MOL0     O10049   1.602   7.379   5.545 -0.2305 -0.0821  0.0590
  816MOL0     C10050   1.466   7.382   5.554 -0.3003 -0.5752  0.1087
  816MOL0     C10051   1.402   7.285   5.634  0.1621  0.0620  0.3591
  816MOL0     C10052   1.263   7.262   5.628  0.1684 -0.5021 -0.5762
  816MOL0     C10053   1.202   7.143   5.700 -0.0683  0.0699 -0.8591
  816MOL0     C10054   1.185   7.354   5.559  0.8669  0.3677 -0.1104
  816MOL0     C10055   1.036   7.354   5.548 -0.2111 -0.1682 -0.0080
  816MOL0     O10056   0.973   7.289   5.644  0.2225 -0.0094 -0.5510
  816MOL0     C10057   0.841   7.309   5.661 -0.5177  0.4595  0.3415
  816MOL0     C10058   0.759   7.250   5.570  0.2109  0.3240  0.7289
  816MOL0     C10059   0.620   7.257   5.586  0.1778 -0.4998  0.2216
  816MOL0     C10060   0.565   7.346   5.687  0.0992  0.0273  0.2332
  816MOL0     O10061   0.432   7.357   5.720  0.0031  0.0149 -0.5570
  816MOL0     C10062   0.337   7.274   5.646  0.0343 -0.8001  0.0187
  816MOL0     C10063   0.191   7.271   5.705 -0.0881  0.2204  0.4805
  816MOL0     C10064   0.113   7.152   5.642  0.5310 -0.1352 -0.2630
  816MOL0     C10065   0.042   7.196   5.518 -0.2300  0.0186  0.3886
  816MOL0     C10066  -0.016   7.079   5.436 -0.3212  0.3383  0.1325
  816MOL0     C10067  -0.129   6.999   5.503 -0.1886 -0.2163 -0.1676
  816MOL0     C10068  -0.213   6.926   5.388  0.3006 -0.3087  0.1711
  816MOL0     C10069  -0.295   6.809   5.442 -0.4870  0.1543  0.7072
  816MOL0    Cl10070  -0.366   6.750   5.303  0.3013  0.1643  0.7660
  816MOL0     C10071   0.654   7.432   5.750 -0.0861 -0.7761 -0.1830
  816MOL0     C10072   0.794   7.402   5.752  0.6097  0.9764 -0.0438
  816MOL0     O10073   0.981   7.407   5.454  0.1223 -0.0281  0.5821
  816MOL0     C10074   1.248   7.447   5.476  0.6724 -0.1224 -0.2453
  816MOL0     C10075   1.383   7.467   5.485 -0.6474 -0.4640  0.4269
  816MOL0     N10076   2.087   7.457   5.324  0.5004  0.2400  0.1386
  816MOL0     N10077   2.202   7.431   5.257  0.9912  0.5173 -0.4475
  816MOL0     C10078   3.388   7.549   4.859 -0.0262  0.4662 -0.3015
  816MOL0     C10079   3.510   7.603   4.907 -0.3933  0.9828 -0.2366
  816MOL0     C10080   3.923   7.717   5.063 -0.4976  0.8924 -0.0148
  816MOL0     C10081   3.968   7.842   5.104 -0.4160 -0.5182 -0.1210
  816MOL0     C10082   4.100   7.882   5.099 -0.6264  0.6844 -0.0336
  816MOL0     C10083   4.197   7.790   5.050 -0.2294 -0.5322 -0.9872
  816MOL0     O10084   4.327   7.835   5.066 -0.8007 -0.2824 -0.0366
  816MOL0     C10085   4.438   7.738   5.069  0.1822  0.6009  0.0421
  816MOL0     C10086   4.558   7.786   4.990 -0.9513 -0.0456 -0.3973
  816MOL0     C10087   4.512   7.804   4.836  0.1120 -0.7049  0.5155
  816MOL0     C10088   4.615   7.762   4.727  0.4726 -0.0009 -0.6789
  816MOL0     C10089   4.718   7.869   4.700  0.5151  0.1512  0.4365
  816MOL0     C10090   4.813   7.945   4.681  0.3495 -0.7792  0.0240
  816MOL0     C10091   4.158   7.666   4.996  0.7447  0.2471  0.5926
  816MOL0     C10092   4.023   7.633   5.012 -0.7550  0.7404  0.2262
  816MOL0     H10093   3.634   7.307   5.038  0.3220 -1.5286 -0.0786
  816MOL0     H10094   3.418   7.225   4.948  2.2582 -0.8332 -2.4132
  816MOL0     H10095   3.108   7.491   4.880  3.7655  0.4752  0.7777
  816MOL0     H10096   3.046   7.346   4.809  0.9341  0.5671 -0.7293
  816MOL0     H10097   3.147   7.210   5.002  0.2046 -0.2623 -0.0939
  816MOL0     H10098   3.170   7.372   5.085  0.6894 -1.5934  0.3135
  816MOL0     H10099   2.904   7.249   4.988 -1.5817  0.6916  1.7214
  816MOL0     H10100   2.959   7.226   5.148 -1.4036  0.3460 -0.3722
  816MOL0     H10101   2.939   7.474   5.184 -0.6813 -0.6931  0.8124
  816MOL0     H10102   2.884   7.495   5.016  1.0073 -0.9090 -0.7728
  816MOL0     H10103   2.698   7.321   5.069 -0.5776 -1.8925  2.4838
  816MOL0     H10104   2.751   7.333   5.234  0.8088  0.8986  0.4660
  816MOL0     H10105   2.679   7.567   5.251  2.1102 -0.3667 -0.5333
  816MOL0     H10106   2.654   7.575   5.074 -4.0790 -2.9369 -2.9915
  816MOL0     H10107   2.447   7.586   5.158 -1.8696 -1.0262 -0.1287
  816MOL0     H10108   2.452   7.435   5.078  1.7605  1.1857 -1.5107
  816MOL0     H10109   2.517   7.456   5.385 -1.0402 -0.6963  2.3056
  816MOL0     H10110   2.486   7.313   5.288  5.2433  0.9653  0.4205
  816MOL0     H10111   2.319   7.526   5.544  0.2172 -1.8781  0.0654
  816MOL0     H10112   2.029   7.512   5.636  2.6475  1.6960 -0.0389
  816MOL0     H10113   2.092   7.657   5.563  0.6411  0.4814 -0.5595
  816MOL0     H10114   1.875   7.651   5.399  0.5015  0.3285 -0.5360
  816MOL0     H10115   1.853   7.654   5.571 -0.4140  0.7019 -2.1194
  816MOL0     H10116   1.836   7.410   5.561 -0.2712 -1.3286 -0.8103
  816MOL0     H10117   1.836   7.412   5.381  2.2010  0.4865  0.0838
  816MOL0     H10118   1.631   7.500   5.365 -1.5170  1.0224  0.4564
  816MOL0     H10119   1.635   7.586   5.515 -0.8632  1.0662 -1.9967
  816MOL0     H10120   1.454   7.210   5.693 -1.0328 -1.1123 -0.0366
  816MOL0     H10121   1.148   7.082   5.627 -1.1244 -1.8499  1.4187
  816MOL0     H10122   1.268   7.073   5.752 -0.5747 -2.4603 -3.4016
  816MOL0     H10123   1.128   7.180   5.772 -0.0266 -1.1238 -0.1816
  816MOL0     H10124   0.803   7.189   5.491  2.6143 -0.0885  2.2993
  816MOL0     H10125   0.567   7.184   5.527  1.9419 -2.1610  0.5952
  816MOL0     H10126   0.336   7.295   5.539 -0.0170  0.0662  0.1885
  816MOL0     H10127   0.377   7.173   5.659  0.5446 -0.5113  0.6967
  816MOL0     H10128   0.197   7.244   5.811  1.3038 -1.4812  0.0120
  816MOL0     H10129   0.135   7.363   5.688  0.8491  0.7625  0.2579
  816MOL0     H10130   0.047   7.122   5.723  1.9055 -2.3928  0.0896
  816MOL0     H10131   0.177   7.067   5.618 -0.1602 -0.5158 -0.7703
  816MOL0     H10132  -0.048   7.251   5.548 -0.0272 -0.4135  1.8420
  816MOL0     H10133   0.101   7.266   5.457 -0.8421 -0.6707 -1.0640
  816MOL0     H10134   0.052   7.015   5.379 -2.9541  0.1315 -3.1221
  816MOL0     H10135  -0.060   7.134   5.352 -1.3303  1.0914  1.1264
  816MOL0     H10136  -0.082   6.922   5.564 -2.4347  0.4307  2.5765
  816MOL0     H10137  -0.191   7.071   5.557  0.0845  2.7018 -3.3956
  816MOL0     H10138  -0.143   6.891   5.312  1.4894  2.9157 -0.3513
  816MOL0     H10139  -0.279   6.997   5.339  0.8541  0.3244  0.3236
  816MOL0     H10140  -0.368   6.860   5.506  0.3811  1.9510  0.3383
  816MOL0     H10141  -0.236   6.726   5.481  0.0213 -1.4289 -2.9985
  816MOL0     H10142   0.617   7.518   5.805  0.8442 -0.0575 -0.6570
  816MOL0     H10143   0.854   7.462   5.820  1.6457 -1.7926  1.6563
  816MOL0     H10144   1.189   7.509   5.409 -0.0586 -0.7975 -0.2456
  816MOL0     H10145   1.429   7.542   5.420  3.8006 -1.7965  1.7343
  816MOL0     H10146   3.318   7.611   4.803 -0.3202  1.4684  1.1261
  816MOL0     H10147   3.537   7.708   4.896  0.6223  0.7941  0.2921
  816MOL0     H10148   3.907   7.921   5.148 -0.5517 -0.9675  0.5185
  816MOL0     H10149   4.125   7.971   5.156  3.3518 -1.0677  1.3636
  816MOL0     H10150   4.491   7.729   5.164  1.2899  0.5943 -0.5582
  816MOL0     H10151   4.400   7.642   5.032 -0.4065  0.4474  1.0123
  816MOL0     H10152   4.644   7.720   4.990  1.9072  3.3746  0.4436
  816MOL0     H10153   4.591   7.881   5.032 -2.0087  0.1586  0.0034
  816MOL0     H10154   4.478   7.907   4.820 -0.8547 -0.8178  1.6455
  816MOL0     H10155   4.418   7.750   4.823 -1.2894  1.5951  0.3339
  816MOL0     H10156   4.562   7.734   4.636 -0.6088  1.3638 -0.4973
  816MOL0     H10157   4.655   7.671   4.772 -2.3648 -0.8720  0.2837
  816MOL0     H10158   4.897   8.008   4.661  1.9969 -2.4479  1.2901
  816MOL0     H10159   4.220   7.591   4.948 -1.3684 -0.4771 -1.1303
  816MOL0     H10160   3.994   7.534   4.978 -2.9846  0.5067  2.5570
  817MOL0     O10161   4.391   8.839   9.504  0.4888  0.7030  0.8506
  817MOL0     C10162   4.331   8.765   9.578  0.3222  0.6069  0.0072
  817MOL0     O10163   4.217   8.687   9.541 -0.0357 -0.6128  0.4029
  817MOL0     C10164   4.156   8.751   9.438 -0.3106 -0.1797 -0.1834
  817MOL0     C10165   4.080   8.864   9.455  0.2162  0.0635  0.6038
  817MOL0     C10166   3.999   8.904   9.353 -0.2337  0.0811  0.4027
  817MOL0     C10167   3.988   8.830   9.227 -1.0476 -0.3036  0.3628
  817MOL0     O10168   3.914   8.872   9.122 -0.0292  0.1806 -0.4050
  817MOL0     C10169   3.847   8.768   9.043  0.7692 -0.3174 -0.3722
  817MOL0     C10170   3.724   8.822   8.979  0.0811  0.4403  0.9207
  817MOL0     C10171   3.608   8.872   9.079 -0.4094  0.0981 -0.1653
  817MOL0     C10172   3.504   8.960   9.005 -0.4957 -0.2660 -0.3992
  817MOL0     C10173   3.401   8.996   9.113  1.2789  0.4048  0.0974
  817MOL0     C10174   3.297   9.100   9.068 -0.4084  0.2531 -0.4239
  817MOL0     C10175   3.232   9.155   9.191  0.0714  0.3331  0.1808
  817MOL0     C10176   3.114   9.245   9.153 -0.4428 -0.4240  0.1078
  817MOL0     N10177   3.035   9.278   9.276 -0.9315  0.3480 -0.3313
  817MOL0     C10178   3.024   9.411   9.317 -1.0206 -0.2789 -0.4975
  817MOL0     C10179   2.913   9.417   9.398  0.2632 -0.3305 -0.4385
  817MOL0     C10180   2.875   9.543   9.472  0.4977  0.9806  0.6842
  817MOL0     C10181   2.939   9.553   9.608  0.1787 -0.2007  0.1305
  817MOL0     C10182   3.091   9.567   9.609 -1.0550  1.2068 -0.8127
  817MOL0     C10183   3.160   9.611   9.748  0.4010  0.1727  0.6484
  817MOL0     O10184   3.127   9.510   9.844  0.7320 -0.5283 -0.4639
  817MOL0     C10185   3.009   9.499   9.904 -0.0915 -0.7842 -1.0656
  817MOL0     C10186   2.968   9.371   9.928 -1.0405 -0.6001  0.5382
  817MOL0     C10187   2.861   9.341  10.011 -0.4635  0.0720 -0.3199
  817MOL0     C10188   2.836   9.193  10.041  0.0798 -0.0231  0.1669
  817MOL0     C10189   2.792   9.446  10.072  0.7855  0.1823  0.2592
  817MOL0     C10190   2.676   9.433  10.166  0.4947  0.1306  0.8577
  817MOL0     O10191   2.617   9.546  10.198  0.4353 -0.0315  0.9319
  817MOL0     C10192   2.514   9.532  10.289 -0.8706 -0.0466  0.2586
  817MOL0     C10193   2.391   9.561  10.236  0.2378  0.0727  0.0659
  817MOL0     C10194   2.284   9.596  10.315 -0.8916  0.0547 -0.6629
  817MOL0     C10195   2.293   9.583  10.454  0.3371 -0.0757  0.4331
  817MOL0     O10196   2.182   9.607  10.529 -0.1756 -0.5974  0.3158
  817MOL0     C10197   2.199   9.613  10.670  0.1063 -0.2876  0.3833
  817MOL0     C10198   2.072   9.661  10.741  0.3865  0.4934  0.0608
  817MOL0     C10199   1.958   9.561  10.732 -0.0999  0.3528  0.2881
  817MOL0     C10200   1.843   9.569  10.837  0.1035 -0.9767 -0.2372
  817MOL0     C10201   1.746   9.679  10.818 -0.5677 -0.3621  0.0498
  817MOL0     C10202   1.664   9.704  10.945 -0.0476 -0.1781  0.2227
  817MOL0     C10203   1.594   9.836  10.929 -0.5501 -1.3703  0.5004
  817MOL0     C10204   1.474   9.835  11.023 -0.1674  0.0753 -0.4192
  817MOL0    Cl10205   1.356   9.712  10.955 -0.0772 -0.3370  0.2481
  817MOL0     C10206   2.414   9.545  10.509  0.0236 -0.0478 -0.0773
  817MOL0     C10207   2.536   9.533  10.428 -0.7357 -0.5204 -0.5180
  817MOL0     O10208   2.648   9.325  10.215  0.5351  0.3717  0.1712
  817MOL0     C10209   2.832   9.579  10.040 -0.4765  0.4900  1.2004
  817MOL0     C10210   2.946   9.606   9.957  0.3890  0.5995 -0.0753
  817MOL0     N10211   2.862   9.284   9.409 -0.1815 -0.4978  0.6952
  817MOL0     N10212   2.930   9.216   9.331 -0.6189  0.5422  0.3009
  817MOL0     C10213   4.079   8.726   9.206  1.2890 -0.3595  0.0284
  817MOL0     C10214   4.156   8.681   9.314  0.4113 -0.8972 -0.3596
  817MOL0     C10215   4.405   8.724   9.700  0.8432  0.2623 -0.4131
  817MOL0     C10216   4.335   8.628   9.786  0.7883 -1.6512 -0.5566
  817MOL0     C10217   4.391   8.615   9.916 -0.5601 -0.1595 -0.2779
  817MOL0     C10218   4.512   8.678   9.955  0.4115 -0.3570  0.2189
  817MOL0     O10219   4.569   8.669  10.078 -0.1513  0.1460  0.2778
  817MOL0     C10220   4.508   8.640  10.201  0.4553  0.1781  0.1575
  817MOL0     C10221   4.618   8.633  10.306  1.1583 -0.0907 -0.1462
  817MOL0     C10222   4.648   8.781  10.343 -0.0130  0.2619 -0.2853
  817MOL0     C10223   4.754   8.788  10.456  0.0492  0.0967  0.3679
  817MOL0     C10224   4.840   8.907  10.450  0.7911 -0.7253  0.1120
  817MOL0     C10225   4.892   9.015  10.448 -0.2476 -0.3770 -0.0766
  817MOL0     C10226   4.574   8.760   9.859 -0.1745  0.6081 -0.2083
  817MOL0     C10227   4.528   8.776   9.736 -0.0257 -0.3615  0.1977
  817MOL0     H10228   4.067   8.908   9.553 -4.5632 -1.7262  1.0343
  817MOL0     H10229   3.947   8.996   9.376  0.3208  1.1151 -2.0951
  817MOL0     H10230   3.905   8.710   8.972 -1.1226 -1.4022 -1.1166
  817MOL0     H10231   3.820   8.700   9.124 -0.2322  1.8291  1.2056
  817MOL0     H10232   3.756   8.905   8.915 -0.9372 -0.1111 -0.3376
  817MOL0     H10233   3.686   8.746   8.910  1.3657 -1.6833  2.4340
  817MOL0     H10234   3.562   8.783   9.124 -1.4379  1.0315  0.6750
  817MOL0     H10235   3.648   8.928   9.163  1.1850 -0.5593 -0.4602
  817MOL0     H10236   3.562   9.052   8.991 -0.1707 -0.2601  0.8503
  817MOL0     H10237   3.464   8.924   8.910 -1.3635  1.6060 -0.7988
  817MOL0     H10238   3.341   8.913   9.153  0.7812  1.4181  1.5537
  817MOL0     H10239   3.447   9.036   9.204 -0.0427  1.4373  0.3376
  817MOL0     H10240   3.339   9.179   9.004 -3.1425  0.9186 -1.5643
  817MOL0     H10241   3.222   9.047   9.008  1.6495 -1.4411 -1.6549
  817MOL0     H10242   3.197   9.074   9.255  0.8289  0.9135  1.3652
  817MOL0     H10243   3.297   9.212   9.258 -0.2227  2.8250 -1.5299
  817MOL0     H10244   3.055   9.178   9.090  1.0875 -0.0717 -1.8040
  817MOL0     H10245   3.156   9.328   9.095  0.5967 -0.4547  0.7944
  817MOL0     H10246   3.076   9.499   9.280  0.5912 -0.7740  0.5181
  817MOL0     H10247   2.893   9.637   9.418 -0.2312  1.2163  0.8414
  817MOL0     H10248   2.766   9.544   9.481  0.6167  2.6318  2.6676
  817MOL0     H10249   2.906   9.472   9.674 -0.1093  1.1583  1.7262
  817MOL0     H10250   2.896   9.640   9.659  1.6181 -1.1111  3.1225
  817MOL0     H10251   3.112   9.647   9.538 -1.0899  3.0429  1.1520
  817MOL0     H10252   3.135   9.474   9.570  1.0970  2.5067 -1.6624
  817MOL0     H10253   3.123   9.710   9.777  0.9314 -0.0882  2.3586
  817MOL0     H10254   3.269   9.612   9.738  0.5767 -1.3466  1.9561
  817MOL0     H10255   3.034   9.297   9.883  1.7775  1.5317  0.9020
  817MOL0     H10256   2.878   9.157  10.136 -2.1831 -2.4704  0.3434
  817MOL0     H10257   2.731   9.167  10.033  0.4000 -2.1187  1.9077
  817MOL0     H10258   2.877   9.136   9.957  1.8325  2.0542 -0.4996
  817MOL0     H10259   2.373   9.551  10.130  2.7470 -3.9485 -0.2030
  817MOL0     H10260   2.186   9.622  10.276 -1.5270  2.2802  2.0383
  817MOL0     H10261   2.230   9.519  10.717  0.3565  0.2263  1.2697
  817MOL0     H10262   2.270   9.692  10.693  0.6220 -1.2314  2.2149
  817MOL0     H10263   2.096   9.697  10.841  0.3733  0.9298 -0.0866
  817MOL0     H10264   2.049   9.748  10.679 -0.7199  1.4616  1.7649
  817MOL0     H10265   2.006   9.463  10.746 -1.5725 -0.1960  1.8541
  817MOL0     H10266   1.901   9.572  10.639 -2.5355  1.6906  1.8343
  817MOL0     H10267   1.790   9.476  10.815 -0.4713 -0.8172  0.4405
  817MOL0     H10268   1.888   9.566  10.936  0.3408 -2.2531 -0.3649
  817MOL0     H10269   1.682   9.652  10.733 -0.9337  1.9038 -0.4610
  817MOL0     H10270   1.800   9.767  10.784  1.6253 -1.0289  1.5462
  817MOL0     H10271   1.592   9.623  10.958  0.4801 -0.7979 -0.6443
  817MOL0     H10272   1.729   9.711  11.033  0.5848  2.0044 -0.3512
  817MOL0     H10273   1.559   9.855  10.827  2.3866  0.3372 -0.2989
  817MOL0     H10274   1.654   9.921  10.961 -1.2951 -0.6772  0.1110
  817MOL0     H10275   1.422   9.931  11.035  0.1298 -0.1464  4.8322
  817MOL0     H10276   1.510   9.811  11.124 -2.3454 -0.4036  0.2956
  817MOL0     H10277   2.438   9.540  10.615  0.6210  0.0390 -0.2064
  817MOL0     H10278   2.635   9.518  10.469 -0.7396  1.8847  0.5532
  817MOL0     H10279   2.789   9.671  10.079 -0.6038  0.9176  0.0886
  817MOL0     H10280   2.982   9.706   9.936 -1.3568  1.9841  2.8586
  817MOL0     H10281   4.084   8.686   9.105  0.0588 -1.4356  0.3531
  817MOL0     H10282   4.223   8.596   9.309  0.5846 -0.7020 -1.8140
  817MOL0     H10283   4.238   8.589   9.758  0.5357 -1.4282 -0.0207
  817MOL0     H10284   4.334   8.547   9.980 -1.0076  1.0751  0.6643
  817MOL0     H10285   4.438   8.720  10.227 -1.1602 -2.0491  3.3882
  817MOL0     H10286   4.459   8.542  10.196 -0.0161  0.4144  0.0979
  817MOL0     H10287   4.702   8.574  10.267 -0.6803 -3.9296  1.2190
  817MOL0     H10288   4.573   8.579  10.389  1.9013 -1.6495 -0.7281
  817MOL0     H10289   4.559   8.836  10.374  1.4372  2.0503  0.9346
  817MOL0     H10290   4.687   8.836  10.257  1.8076  1.8840  1.4489
  817MOL0     H10291   4.811   8.697  10.437 -1.2277 -0.8416  0.8635
  817MOL0     H10292   4.713   8.787  10.558 -1.7196 -0.0859 -0.3262
  817MOL0     H10293   4.945   9.108  10.441 -0.1674 -0.1447  2.7449
  817MOL0     H10294   4.659   8.823   9.885  0.0604  1.4308 -2.7550
  817MOL0     H10295   4.579   8.839   9.664 -0.4321  0.4433  0.5983
  818MOL0     O10296   7.724  11.303   5.535 -0.4494 -0.6155  0.4882
  818MOL0     C10297   7.777  11.395   5.476  0.6257 -0.9579  0.9061
  818MOL0     O10298   7.716  11.467   5.380  0.0676  0.0701 -0.1172
  818MOL0     C10299   7.584  11.455   5.347  0.3417 -0.3649  0.4192
  818MOL0     C10300   7.470  11.429   5.430 -0.3230  0.3590 -0.4543
  818MOL0     C10301   7.337  11.462   5.394 -1.0284  0.3505  0.2903
  818MOL0     C10302   7.316  11.515   5.263  0.5378 -0.1947 -0.0924
  818MOL0     O10303   7.194  11.564   5.213  0.5313 -0.2436  0.4473
  818MOL0     C10304   7.095  11.595   5.310  0.1694  0.3686 -0.1957
  818MOL0     C10305   6.976  11.617   5.228  0.5273  0.1068  1.0683
  818MOL0     C10306   6.985  11.748   5.153 -0.0010 -0.1448  0.0673
  818MOL0     C10307   6.867  11.780   5.070 -0.5812  0.6216  1.3405
  818MOL0     C10308   6.833  11.918   5.029 -0.6569  0.1114  0.0383
  818MOL0     C10309   6.730  11.912   4.909  0.5156 -0.4915 -0.3801
  818MOL0     C10310   6.659  12.040   4.879  0.4062  0.0269 -0.4111
  818MOL0     C10311   6.753  12.142   4.822 -0.8388 -0.1595 -0.5467
  818MOL0     N10312   6.684  12.249   4.752 -0.0735 -0.0038 -0.5265
  818MOL0     C10313   6.657  12.377   4.793 -0.3469 -0.6158 -0.6127
  818MOL0     C10314   6.595  12.435   4.694 -0.0580  0.0266  0.2990
  818MOL0     C10315   6.518  12.557   4.697  0.0472  0.7173  0.2238
  818MOL0     C10316   6.370  12.517   4.719 -0.2115 -0.5831 -0.4653
  818MOL0     C10317   6.269  12.627   4.698  0.3304  0.0914 -0.1066
  818MOL0     C10318   6.278  12.680   4.549 -0.2416 -0.2591  0.0622
  818MOL0     O10319   6.168  12.774   4.530 -0.5848 -0.6313 -0.2217
  818MOL0     C10320   6.039  12.733   4.494  0.4002 -0.9727 -0.1153
  818MOL0     C10321   5.941  12.834   4.508 -0.5651 -0.3724  0.3839
  818MOL0     C10322   5.808  12.804   4.493 -0.0520 -0.1965  0.4487
  818MOL0     C10323   5.713  12.924   4.508  0.5955  0.6650 -0.8143
  818MOL0     C10324   5.768  12.672   4.468 -0.0730  0.3911  0.0208
  818MOL0     C10325   5.627  12.624   4.453 -0.2796 -0.3677 -0.5175
  818MOL0     O10326   5.532  12.681   4.531  0.0402  0.2661 -0.5902
  818MOL0     C10327   5.404  12.630   4.522  0.1174  0.0120 -0.3568
  818MOL0     C10328   5.376  12.515   4.595 -0.2255 -0.2504 -0.3522
  818MOL0     C10329   5.262  12.445   4.580  0.3917 -0.0097 -0.5143
  818MOL0     C10330   5.158  12.492   4.500 -0.1193  0.3091  0.8271
  818MOL0     O10331   5.037  12.434   4.487  0.5854 -0.2491  0.6494
  818MOL0     C10332   5.003  12.308   4.548 -0.0539 -0.0984  0.2413
  818MOL0     C10333   5.082  12.186   4.504  0.5551  0.6272  0.0653
  818MOL0     C10334   5.041  12.068   4.586 -0.4238 -0.0409  0.5096
  818MOL0     C10335   5.115  11.949   4.534  0.4065  0.6130  0.4769
  818MOL0     C10336   5.092  11.812   4.613  0.2102 -0.5010  0.0928
  818MOL0     C10337   4.944  11.770   4.601 -0.3500  0.6999 -1.0944
  818MOL0     C10338   4.916  11.622   4.589  0.5819  0.8472  0.3313
  818MOL0     C10339   4.969  11.534   4.704 -0.3524  0.0863 -0.3960
  818MOL0    Cl10340   4.967  11.364   4.643 -0.2106 -0.1422 -0.2322
  818MOL0     C10341   5.186  12.610   4.423  0.3963 -0.4679  0.0246
  818MOL0     C10342   5.307  12.680   4.436 -0.7856  1.1160 -0.4346
  818MOL0     O10343   5.606  12.537   4.369 -0.2366 -0.4281 -0.4875
  818MOL0     C10344   5.867  12.583   4.449 -0.1744  0.3887  0.4280
  818MOL0     C10345   6.000  12.611   4.459  0.7267 -0.9016  0.5590
  818MOL0     N10346   6.604  12.356   4.581 -0.2985  0.5469 -0.2320
  818MOL0     N10347   6.664  12.243   4.616  0.1995 -0.7625  0.0414
  818MOL0     C10348   7.419  11.512   5.172  0.7337 -0.8390  0.1348
  818MOL0     C10349   7.557  11.483   5.210 -0.2140  0.6752 -0.4620
  818MOL0     C10350   7.919  11.425   5.507  0.8243 -0.3800  0.8813
  818MOL0     C10351   7.971  11.539   5.465 -0.4678 -0.3531 -0.4502
  818MOL0     C10352   8.103  11.575   5.488  0.2868  0.0534 -0.0850
  818MOL0     C10353   8.183  11.493   5.566  0.0606 -0.6250  0.0275
  818MOL0     O10354   8.313  11.539   5.570  0.2264  0.5784 -0.8881
  818MOL0     C10355   8.414  11.440   5.619  0.0343  0.1081 -0.0695
  818MOL0     C10356   8.553  11.466   5.562  1.0634 -0.7130  0.3616
  818MOL0     C10357   8.624  11.597   5.609  0.6580 -0.6338 -0.8239
  818MOL0     C10358   8.764  11.609   5.535  0.0490 -1.0676 -0.2622
  818MOL0     C10359   8.826  11.732   5.584  0.4766 -0.2693 -0.1501
  818MOL0     C10360   8.907  11.819   5.612 -0.1891  0.4696 -0.0030
  818MOL0     C10361   8.126  11.373   5.616 -0.3395  0.2861 -0.4297
  818MOL0     C10362   7.989  11.336   5.588  0.0807  0.2574  0.7478
  818MOL0     H10363   7.490  11.374   5.521 -0.1031 -2.2891 -1.9870
  818MOL0     H10364   7.259  11.424   5.458  0.6276  0.2879  2.3771
  818MOL0     H10365   7.078  11.515   5.383  1.1206  1.2632  1.0640
  818MOL0     H10366   7.117  11.685   5.368  3.3753  1.0209 -2.2182
  818MOL0     H10367   6.973  11.539   5.151  3.9952  2.2803 -1.5704
  818MOL0     H10368   6.886  11.613   5.290 -0.1584 -0.3274  0.0690
  818MOL0     H10369   6.992  11.821   5.234  1.7093  0.8036 -0.8821
  818MOL0     H10370   7.081  11.756   5.102 -0.4325 -1.9650 -1.1553
  818MOL0     H10371   6.878  11.724   4.977  1.1779  0.9529  1.3303
  818MOL0     H10372   6.776  11.741   5.118 -1.2756  1.1957  0.5192
  818MOL0     H10373   6.794  11.975   5.114 -0.6135  0.1258  0.0488
  818MOL0     H10374   6.930  11.965   5.008 -0.6883  2.6057  4.2393
  818MOL0     H10375   6.782  11.879   4.818 -0.5163 -0.7377 -0.8885
  818MOL0     H10376   6.653  11.838   4.930 -2.1448  2.0445 -0.6229
  818MOL0     H10377   6.588  12.021   4.798  0.4855 -5.9937  0.5217
  818MOL0     H10378   6.614  12.081   4.970  2.9158 -0.3183  1.1016
  818MOL0     H10379   6.826  12.104   4.750  1.0189 -1.4422  1.8667
  818MOL0     H10380   6.815  12.181   4.902  1.3103 -3.2967 -0.4843
  818MOL0     H10381   6.662  12.411   4.896  0.3831  0.9554 -1.1455
  818MOL0     H10382   6.563  12.621   4.773 -0.3618  0.4717  0.6794
  818MOL0     H10383   6.548  12.597   4.600  2.0909  0.6872  0.7947
  818MOL0     H10384   6.361  12.488   4.824 -0.1563  1.4585  0.1466
  818MOL0     H10385   6.352  12.432   4.652  3.9666 -2.4294  0.4743
  818MOL0     H10386   6.281  12.702   4.777  1.3213 -2.2640  2.1165
  818MOL0     H10387   6.163  12.601   4.706  0.4773 -0.5167 -0.1119
  818MOL0     H10388   6.268  12.596   4.480 -2.2960 -0.1223  0.1196
  818MOL0     H10389   6.371  12.735   4.530  1.0118 -1.6757  1.7290
  818MOL0     H10390   5.976  12.937   4.518 -3.4625  1.2268 -3.5523
  818MOL0     H10391   5.627  12.916   4.440  0.2979 -2.4954 -0.2219
  818MOL0     H10392   5.696  12.926   4.616 -1.4238 -2.2182 -0.9498
  818MOL0     H10393   5.766  13.013   4.474  1.1666  0.4202 -0.5782
  818MOL0     H10394   5.454  12.471   4.656 -0.4980 -0.0845  0.1255
  818MOL0     H10395   5.247  12.365   4.652 -3.7711  0.8472 -0.1734
  818MOL0     H10396   5.012  12.326   4.655 -0.0862  1.2464  0.0267
  818MOL0     H10397   4.895  12.300   4.535 -0.5348  2.6469  1.8908
  818MOL0     H10398   5.054  12.176   4.399 -0.2477  2.9527 -0.0150
  818MOL0     H10399   5.191  12.196   4.505  0.6683 -0.3794 -0.8093
  818MOL0     H10400   4.934  12.049   4.589 -0.3363 -1.2624 -1.8268
  818MOL0     H10401   5.076  12.092   4.687  0.3969 -1.8021  0.6802
  818MOL0     H10402   5.088  11.929   4.430  0.9871 -4.6659  1.0574
  818MOL0     H10403   5.221  11.971   4.549  1.1564 -2.2530  0.0571
  818MOL0     H10404   5.115  11.819   4.720 -0.6540 -0.9858  0.3199
  818MOL0     H10405   5.153  11.735   4.565  0.5761  0.9206 -1.8203
  818MOL0     H10406   4.897  11.800   4.696  1.4927 -1.4921  0.6417
  818MOL0     H10407   4.896  11.828   4.523  0.4595  0.8438 -1.4903
  818MOL0     H10408   4.958  11.589   4.493 -0.2226  2.9119 -0.7994
  818MOL0     H10409   4.808  11.610   4.582  0.7865 -0.2519 -2.4279
  818MOL0     H10410   4.904  11.550   4.791 -0.8121 -0.0576 -0.7065
  818MOL0     H10411   5.070  11.554   4.739 -0.5999 -0.4613  0.6768
  818MOL0     H10412   5.123  12.647   4.343  0.5583 -0.5555 -0.1444
  818MOL0     H10413   5.325  12.767   4.374  0.2292  1.5638  0.4634
  818MOL0     H10414   5.839  12.481   4.428  0.2871  0.1705  0.8599
  818MOL0     H10415   6.068  12.529   4.439 -0.0799 -1.4335 -0.0344
  818MOL0     H10416   7.406  11.539   5.068  2.3178  0.0870  0.1369
  818MOL0     H10417   7.637  11.471   5.138 -1.0070 -2.5933 -0.9554
  818MOL0     H10418   7.903  11.606   5.414 -0.7227  0.5137  0.9569
  818MOL0     H10419   8.147  11.657   5.433 -0.2714 -0.5146 -1.4264
  818MOL0     H10420   8.425  11.439   5.728 -1.1590 -1.7465  0.0789
  818MOL0     H10421   8.370  11.343   5.596 -0.2468 -0.0755  1.1788
  818MOL0     H10422   8.551  11.461   5.453  0.9168  2.7820  0.1020
  818MOL0     H10423   8.621  11.391   5.604  1.4296 -1.1207 -0.9182
  818MOL0     H10424   8.622  11.607   5.718 -1.6074  2.4853 -1.0311
  818MOL0     H10425   8.560  11.680   5.577  0.5630 -0.5995 -0.5460
  818MOL0     H10426   8.752  11.618   5.426  1.3201  4.1957 -0.2488
  818MOL0     H10427   8.819  11.517   5.559 -1.2401 -1.5120  1.1523
  818MOL0     H10428   8.972  11.899   5.638 -2.0407  1.5326  1.6720
  818MOL0     H10429   8.185  11.302   5.674 -2.1803 -1.6368 -0.8007
  818MOL0     H10430   7.951  11.238   5.614  1.1034 -1.2155 -2.6821
  819MOL0     O10431   8.254   6.750   9.145  0.1282  0.2468 -0.1244
  819MOL0     C10432   8.368   6.766   9.110  0.3049  1.2193 -0.2594
  819MOL0     O10433   8.407   6.802   8.979 -0.7166 -1.0445  0.2285
  819MOL0     C10434   8.326   6.838   8.875  0.5007  0.0281  0.2717
  819MOL0     C10435   8.249   6.954   8.884  0.3057 -0.1012 -0.5002
  819MOL0     C10436   8.176   6.995   8.771 -0.8377  0.6250 -0.6449
  819MOL0     C10437   8.179   6.926   8.653  0.3550  0.5583 -0.0710
  819MOL0     O10438   8.109   6.972   8.545  0.5878 -0.8308 -0.0954
  819MOL0     C10439   7.976   7.028   8.558  0.3458 -0.2339 -0.2978
  819MOL0     C10440   7.870   6.930   8.607 -0.4778  0.2081 -0.2193
  819MOL0     C10441   7.734   7.001   8.621 -0.5039 -0.5385  0.0431
  819MOL0     C10442   7.642   6.909   8.694  0.7014  0.8754  0.4146
  819MOL0     C10443   7.497   6.943   8.655  0.4279 -0.8235 -0.5131
  819MOL0     C10444   7.435   7.034   8.767  0.3209 -0.1910  0.3436
  819MOL0     C10445   7.280   7.035   8.761  0.9713 -0.3571 -0.2010
  819MOL0     C10446   7.202   7.057   8.629 -0.2900 -0.0834 -1.0467
  819MOL0     N10447   7.206   7.191   8.586 -1.2495 -0.1500  0.3449
  819MOL0     C10448   7.314   7.282   8.567  0.2352  0.7150 -0.0885
  819MOL0     C10449   7.255   7.399   8.556  0.2765  0.3322  0.4715
  819MOL0     C10450   7.333   7.528   8.536  1.3533 -0.7448 -0.8220
  819MOL0     C10451   7.440   7.529   8.433  0.7836 -0.7833  1.8038
  819MOL0     C10452   7.484   7.682   8.403  0.1578  0.5243 -0.1771
  819MOL0     C10453   7.615   7.684   8.325  0.1780 -0.6022 -0.2279
  819MOL0     O10454   7.714   7.617   8.411  0.8833 -0.6179  0.5629
  819MOL0     C10455   7.824   7.558   8.354  0.9916 -0.5059  0.1213
  819MOL0     C10456   7.896   7.624   8.258  0.0043 -0.7938  0.5585
  819MOL0     C10457   8.003   7.564   8.186  0.9207 -0.1219 -0.4022
  819MOL0     C10458   8.065   7.647   8.082 -0.5363  0.1181  0.0694
  819MOL0     C10459   8.056   7.444   8.225  0.5591  0.0962  0.1716
  819MOL0     C10460   8.186   7.385   8.179 -0.0696 -0.0681 -0.1554
  819MOL0     O10461   8.226   7.263   8.238 -0.4905 -0.0450  0.4185
  819MOL0     C10462   8.362   7.227   8.234 -0.3582 -0.3720  0.1181
  819MOL0     C10463   8.387   7.088   8.239  0.2854  0.6253  0.0612
  819MOL0     C10464   8.512   7.038   8.232 -0.1657 -0.3674  0.0606
  819MOL0     C10465   8.624   7.122   8.222  0.8963 -0.2027 -0.3118
  819MOL0     O10466   8.744   7.054   8.228  0.2388 -0.3145  0.7078
  819MOL0     C10467   8.868   7.126   8.204 -0.1756  0.4512 -0.4020
  819MOL0     C10468   8.987   7.041   8.238  0.0317  0.3097  0.1086
  819MOL0     C10469   9.026   7.028   8.378  1.1998 -0.0639  0.0748
  819MOL0     C10470   9.153   6.943   8.399 -0.2021  0.8099 -0.5002
  819MOL0     C10471   9.175   6.943   8.551  0.3896  0.1734 -0.7502
  819MOL0     C10472   9.301   6.868   8.586  0.8966  0.0760 -0.5689
  819MOL0     C10473   9.418   6.963   8.566 -0.1703 -0.4068  0.2875
  819MOL0     C10474   9.550   6.909   8.615  0.3056 -0.0906 -0.9302
  819MOL0    Cl10475   9.541   6.861   8.780 -0.0607 -0.1013 -0.0056
  819MOL0     C10476   8.603   7.255   8.204 -0.9846  0.1881 -0.6751
  819MOL0     C10477   8.478   7.308   8.232 -0.3070 -0.2090  0.4131
  819MOL0     O10478   8.254   7.454   8.099 -0.2562 -0.0726 -0.2907
  819MOL0     C10479   7.985   7.378   8.328 -0.5418 -0.6284 -0.1470
  819MOL0     C10480   7.866   7.429   8.385  0.4595 -0.3391 -0.4394
  819MOL0     N10481   7.116   7.380   8.558 -0.3267  0.9722  0.4164
  819MOL0     N10482   7.089   7.257   8.559 -0.6876  0.3112 -1.2435
  819MOL0     C10483   8.248   6.805   8.652  0.0923  0.2631  0.1003
  819MOL0     C10484   8.325   6.760   8.751  0.1995 -0.0208 -0.4410
  819MOL0     C10485   8.478   6.732   9.199  0.2270 -0.2451  0.0784
  819MOL0     C10486   8.472   6.627   9.291 -0.1015  0.8683 -0.9349
  819MOL0     C10487   8.587   6.587   9.350  0.3768  0.2463  0.2115
  819MOL0     C10488   8.716   6.655   9.329  0.0366  0.0864  0.1906
  819MOL0     O10489   8.834   6.623   9.390 -0.0694  0.2477  0.4564
  819MOL0     C10490   8.857   6.495   9.447 -0.2576  0.7094  0.1624
  819MOL0     C10491   9.006   6.482   9.497  0.1449 -0.0892  0.3206
  819MOL0     C10492   9.114   6.511   9.387  0.6307  0.0272  0.3739
  819MOL0     C10493   9.248   6.517   9.462  0.9663 -0.6138  0.0090
  819MOL0     C10494   9.367   6.512   9.375 -0.1899  0.4188  0.2851
  819MOL0     C10495   9.469   6.507   9.313  0.6647 -0.7550  1.0359
  819MOL0     C10496   8.714   6.760   9.246 -0.8358 -0.3604  0.5385
  819MOL0     C10497   8.598   6.804   9.179  0.2324  0.3056  0.0516
  819MOL0     H10498   8.244   7.013   8.975 -0.7241  2.3635 -2.0465
  819MOL0     H10499   8.109   7.080   8.773 -0.3560  1.1363 -3.1782
  819MOL0     H10500   7.981   7.117   8.621  2.3309 -0.7368  0.3260
  819MOL0     H10501   7.952   7.054   8.454  0.5435 -1.9323 -0.8118
  819MOL0     H10502   7.865   6.852   8.530  0.7081 -2.5853  2.3420
  819MOL0     H10503   7.897   6.890   8.705  1.0659  1.8193  0.0607
  819MOL0     H10504   7.740   7.100   8.666  0.7961 -0.4682 -0.2400
  819MOL0     H10505   7.705   7.024   8.518  1.4692  0.6680 -0.3067
  819MOL0     H10506   7.656   6.808   8.655 -2.1302  0.9767 -1.1396
  819MOL0     H10507   7.666   6.909   8.801  0.3124 -1.4779  0.5621
  819MOL0     H10508   7.491   6.995   8.560  3.2444 -1.7926 -1.2983
  819MOL0     H10509   7.442   6.849   8.642  4.3129 -3.4989  0.5036
  819MOL0     H10510   7.464   7.010   8.869  0.1491 -1.7556  0.0378
  819MOL0     H10511   7.473   7.137   8.757  2.7819 -0.8363  2.1750
  819MOL0     H10512   7.239   6.942   8.802 -2.0472  2.0610  2.8753
  819MOL0     H10513   7.248   7.116   8.827 -0.3426 -1.6293  0.7950
  819MOL0     H10514   7.096   7.035   8.649 -0.1121  0.4855  0.7059
  819MOL0     H10515   7.243   6.995   8.549  2.3981 -0.7764  0.7749
  819MOL0     H10516   7.421   7.267   8.558  0.2556  0.6589  0.2382
  819MOL0     H10517   7.256   7.603   8.516  3.4303  2.7394  2.6825
  819MOL0     H10518   7.371   7.560   8.633 -0.4844  0.9923 -0.6155
  819MOL0     H10519   7.414   7.464   8.348  1.5554 -2.5962  2.8837
  819MOL0     H10520   7.528   7.478   8.474  0.2193 -3.4589 -0.0400
  819MOL0     H10521   7.518   7.737   8.491  0.1785 -2.0593  1.5076
  819MOL0     H10522   7.409   7.752   8.364  0.1031 -0.2659 -1.5713
  819MOL0     H10523   7.647   7.786   8.305  2.9141 -1.0426  1.3746
  819MOL0     H10524   7.606   7.630   8.231 -0.1647  2.0989 -1.8458
  819MOL0     H10525   7.868   7.726   8.235 -1.9628 -1.0268  1.7383
  819MOL0     H10526   8.171   7.663   8.101 -0.0855 -1.9667 -0.4454
  819MOL0     H10527   8.059   7.599   7.984  2.6456  0.5535 -0.4485
  819MOL0     H10528   8.013   7.743   8.091 -1.1004 -0.2831  1.2983
  819MOL0     H10529   8.298   7.026   8.239  0.1269  0.7470 -2.3451
  819MOL0     H10530   8.542   6.934   8.220  3.8748  0.6597 -0.1951
  819MOL0     H10531   8.868   7.161   8.100 -1.3135 -0.7897 -0.8503
  819MOL0     H10532   8.882   7.217   8.263  1.9256  0.7969 -1.3383
  819MOL0     H10533   8.980   6.941   8.195  2.0163  0.1636  0.0409
  819MOL0     H10534   9.072   7.091   8.191 -0.4737  1.2902  0.1944
  819MOL0     H10535   8.952   6.988   8.449  1.1509  2.6703  1.6989
  819MOL0     H10536   9.040   7.127   8.422 -0.7224 -0.9482  3.0281
  819MOL0     H10537   9.153   6.839   8.366  0.3037  0.9540 -0.9747
  819MOL0     H10538   9.236   6.983   8.340  0.8604  1.5394  1.3884
  819MOL0     H10539   9.096   6.887   8.602 -1.1625  2.2143 -0.7592
  819MOL0     H10540   9.173   7.041   8.600 -2.5342 -0.6846  1.0856
  819MOL0     H10541   9.302   6.851   8.694 -0.7163 -0.3541 -0.5973
  819MOL0     H10542   9.310   6.775   8.528  2.0800 -0.1769  0.0065
  819MOL0     H10543   9.393   7.060   8.611  1.4204 -0.3490  1.1298
  819MOL0     H10544   9.439   6.978   8.459  0.8628  0.8374  0.6380
  819MOL0     H10545   9.628   6.984   8.599  1.4823 -0.8173  1.0414
  819MOL0     H10546   9.571   6.827   8.546 -2.4315 -1.8317  0.1327
  819MOL0     H10547   8.689   7.319   8.186  0.5623 -1.2807  1.1053
  819MOL0     H10548   8.461   7.414   8.215 -0.7014 -0.7970 -3.8282
  819MOL0     H10549   8.022   7.283   8.367  2.1694  1.1860  2.0971
  819MOL0     H10550   7.810   7.380   8.464 -0.4340  1.1994 -0.0717
  819MOL0     H10551   8.239   6.757   8.555 -0.4784  2.0324 -0.7581
  819MOL0     H10552   8.385   6.671   8.739 -1.9113 -1.5205 -0.3525
  819MOL0     H10553   8.378   6.576   9.312 -0.0935  1.3569  0.3775
  819MOL0     H10554   8.577   6.500   9.414 -2.8859 -0.5714 -1.1996
  819MOL0     H10555   8.784   6.479   9.527 -0.8320 -0.5523 -0.5815
  819MOL0     H10556   8.837   6.418   9.371  1.4594 -0.0375  0.4310
  819MOL0     H10557   9.021   6.383   9.542 -2.7011 -1.2550 -1.0703
  819MOL0     H10558   9.025   6.553   9.578  1.7670  1.5241 -1.3855
  819MOL0     H10559   9.098   6.609   9.342 -1.5999  0.5583  2.1463
  819MOL0     H10560   9.120   6.428   9.316 -2.2668 -0.2058  0.2902
  819MOL0     H10561   9.249   6.429   9.526  0.6282 -0.6273 -0.0004
  819MOL0     H10562   9.263   6.605   9.524 -0.7731 -2.4691  3.3645
  819MOL0     H10563   9.562   6.510   9.259 -0.0599 -4.2254 -0.7125
  819MOL0     H10564   8.805   6.816   9.226  0.0870 -0.8178  3.1256
  819MOL0     H10565   8.621   6.888   9.114  3.5288 -0.5552 -0.0684
  820MOL0     O10566   8.617   0.598   8.793 -0.4191 -0.3800 -0.2389
  820MOL0     C10567   8.608   0.675   8.889 -0.7987  1.0347  0.1084
  820MOL0     O10568   8.541   0.795   8.899  0.2065  0.5446  0.5987
  820MOL0     C10569   8.475   0.856   8.792  0.4464 -0.1404 -0.2341
  820MOL0     C10570   8.383   0.954   8.829  0.0916 -0.2177 -0.0601
  820MOL0     C10571   8.316   1.028   8.731  0.0965  0.4631  0.4065
  820MOL0     C10572   8.336   1.015   8.593 -0.5055 -0.1970 -0.0081
  820MOL0     O10573   8.284   1.107   8.509 -0.0906 -0.3049  0.2216
  820MOL0     C10574   8.142   1.151   8.526  0.6360  0.2107 -0.3419
  820MOL0     C10575   8.073   1.213   8.397  1.3393  0.3837  0.7797
  820MOL0     C10576   7.929   1.252   8.408 -0.0800  0.3184 -0.0805
  820MOL0     C10577   7.837   1.132   8.393 -0.1590 -0.7374  0.3908
  820MOL0     C10578   7.690   1.166   8.406  0.2012 -0.0403  0.0450
  820MOL0     C10579   7.628   1.240   8.289  0.2030 -0.0642 -0.0915
  820MOL0     C10580   7.471   1.246   8.290 -0.8379 -0.6485  0.3769
  820MOL0     C10581   7.395   1.346   8.387 -0.3903  0.2122 -0.9703
  820MOL0     N10582   7.248   1.327   8.374 -0.0200  0.2070  1.0144
  820MOL0     C10583   7.161   1.403   8.437  0.0883 -0.5373 -0.5544
  820MOL0     C10584   7.041   1.368   8.398 -0.6610  0.2822 -0.0265
  820MOL0     C10585   6.904   1.425   8.436 -0.3276 -0.5018 -0.5511
  820MOL0     C10586   6.902   1.495   8.579 -0.2459  1.1210 -0.7354
  820MOL0     C10587   6.777   1.568   8.629 -0.0926 -0.0064 -0.0602
  820MOL0     C10588   6.667   1.463   8.671 -0.6362  0.2171  0.0057
  820MOL0     O10589   6.550   1.523   8.737 -0.1899 -0.1618 -0.9125
  820MOL0     C10590   6.425   1.476   8.708  0.4507  0.1209 -0.4237
  820MOL0     C10591   6.331   1.554   8.652  0.3927  0.7135  0.5206
  820MOL0     C10592   6.197   1.492   8.624  0.2988 -0.1337 -0.4172
  820MOL0     C10593   6.081   1.585   8.589  0.5745 -0.5704  0.1740
  820MOL0     C10594   6.178   1.359   8.655 -0.0076  0.1980  0.2429
  820MOL0     C10595   6.054   1.286   8.650  1.5877 -0.6398  0.5390
  820MOL0     O10596   6.027   1.196   8.746  0.1725  0.7497  0.4333
  820MOL0     C10597   5.918   1.116   8.763 -0.2361  0.0466 -0.7091
  820MOL0     C10598   5.798   1.130   8.702  0.0948  0.4856 -0.8905
  820MOL0     C10599   5.682   1.056   8.746 -0.1845  0.2734  0.1800
  820MOL0     C10600   5.692   0.960   8.847 -0.1625 -0.0134 -0.2412
  820MOL0     O10601   5.573   0.892   8.881 -0.5510  0.6998  0.3049
  820MOL0     C10602   5.579   0.792   8.986  0.2031 -0.6836  0.6247
  820MOL0     C10603   5.442   0.753   9.021 -0.1221 -0.0735 -0.7916
  820MOL0     C10604   5.434   0.632   9.115  0.1160 -1.1039  0.3405
  820MOL0     C10605   5.300   0.628   9.193  0.2837  0.1832  0.2178
  820MOL0     C10606   5.272   0.502   9.264 -0.7783  0.0348  0.5631
  820MOL0     C10607   5.128   0.489   9.317  0.5274 -0.6993 -0.9687
  820MOL0     C10608   5.101   0.372   9.412  0.0736  0.5601  0.5376
  820MOL0     C10609   4.973   0.378   9.468  0.5153 -0.5258 -0.2339
  820MOL0    Cl10610   4.942   0.230   9.548  0.1102  0.5320  0.2435
  820MOL0     C10611   5.818   0.945   8.906 -0.1068 -0.5985  0.5543
  820MOL0     C10612   5.926   1.022   8.865  0.5575  0.0634  0.5372
  820MOL0     O10613   5.990   1.303   8.545 -0.3257 -0.3125 -0.2645
  820MOL0     C10614   6.279   1.285   8.714 -0.9679  0.0748  0.3735
  820MOL0     C10615   6.406   1.337   8.739 -0.2543  0.4167 -0.5057
  820MOL0     N10616   7.056   1.254   8.320  0.7688 -0.0643  0.4266
  820MOL0     N10617   7.185   1.231   8.297  0.6679  0.2228  0.1760
  820MOL0     C10618   8.445   0.926   8.561 -0.3249 -1.1721  0.2161
  820MOL0     C10619   8.503   0.843   8.655  0.0517  0.0960 -0.0169
  820MOL0     C10620   8.663   0.626   9.013 -0.4157 -0.5950  0.4576
  820MOL0     C10621   8.688   0.494   9.031 -0.5094  0.9723 -0.4022
  820MOL0     C10622   8.724   0.447   9.155 -0.4008  0.5122 -0.1456
  820MOL0     C10623   8.749   0.533   9.259 -0.4452 -0.2746 -0.5678
  820MOL0     O10624   8.807   0.483   9.370 -0.5337 -0.2131 -0.5111
  820MOL0     C10625   8.816   0.571   9.485 -0.9618 -0.2164 -0.6071
  820MOL0     C10626   8.904   0.498   9.587  1.0449 -0.6386 -0.2165
  820MOL0     C10627   8.928   0.598   9.704  0.2200  0.1544 -0.2101
  820MOL0     C10628   8.897   0.527   9.842  0.0898  0.5108  0.1004
  820MOL0     C10629   8.937   0.616   9.949  0.8492  0.4764  0.0082
  820MOL0     C10630   8.967   0.676  10.043  0.0478  0.6610 -0.2127
  820MOL0     C10631   8.731   0.668   9.243  0.0577  0.3693  0.6736
  820MOL0     C10632   8.675   0.719   9.119 -0.3114  0.6282 -1.2729
  820MOL0     H10633   8.369   0.968   8.936  2.5651 -1.6047  0.5140
  820MOL0     H10634   8.237   1.084   8.780  0.6589  2.9880 -1.3681
  820MOL0     H10635   8.077   1.071   8.562 -0.4761  1.5817  0.8339
  820MOL0     H10636   8.130   1.228   8.603 -0.4381  1.9758 -2.1700
  820MOL0     H10637   8.130   1.303   8.376 -0.2195  0.2960 -5.9463
  820MOL0     H10638   8.080   1.147   8.310 -2.6308  0.9605 -0.1742
  820MOL0     H10639   7.906   1.318   8.493  0.0073  0.1585  0.0676
  820MOL0     H10640   7.903   1.307   8.317 -0.4732  2.7238  1.4015
  820MOL0     H10641   7.864   1.067   8.310  1.5829 -4.1891  3.4088
  820MOL0     H10642   7.859   1.065   8.476  3.1682  0.3782  0.5745
  820MOL0     H10643   7.650   1.064   8.413  0.6742 -0.3231 -1.1921
  820MOL0     H10644   7.673   1.204   8.508 -1.3160  2.6849 -1.1158
  820MOL0     H10645   7.657   1.345   8.292  1.0609 -0.1917 -2.5911
  820MOL0     H10646   7.662   1.187   8.200 -0.8495  0.0053 -0.5481
  820MOL0     H10647   7.435   1.280   8.193 -0.3269  3.2122  1.4004
  820MOL0     H10648   7.429   1.146   8.309  1.5673 -2.2727 -2.1681
  820MOL0     H10649   7.425   1.445   8.349  3.2313  0.9152  2.9432
  820MOL0     H10650   7.424   1.333   8.491  2.6998 -0.2386 -1.7845
  820MOL0     H10651   7.188   1.492   8.494  2.6090 -0.5971 -1.4933
  820MOL0     H10652   6.876   1.493   8.355  1.0443  0.1473 -0.5153
  820MOL0     H10653   6.821   1.356   8.451 -1.2255  1.0607  2.3971
  820MOL0     H10654   6.991   1.555   8.600 -1.1190  2.5683 -1.0691
  820MOL0     H10655   6.921   1.415   8.651  2.3132  1.7431 -0.6089
  820MOL0     H10656   6.753   1.653   8.565  1.8842  0.2341 -0.5229
  820MOL0     H10657   6.813   1.617   8.720 -0.4264  2.1041 -1.0090
  820MOL0     H10658   6.704   1.387   8.741 -0.9233  1.9080  2.1168
  820MOL0     H10659   6.632   1.399   8.590 -2.2694  0.5176  0.4266
  820MOL0     H10660   6.354   1.660   8.642 -0.9488  1.0254  0.4191
  820MOL0     H10661   6.062   1.580   8.482 -2.0491  1.1814  0.4804
  820MOL0     H10662   5.991   1.545   8.637  0.0233 -0.0755 -0.4274
  820MOL0     H10663   6.098   1.693   8.600  0.3410 -0.6036  0.9559
  820MOL0     H10664   5.793   1.209   8.628 -2.8923  2.6596  1.3476
  820MOL0     H10665   5.582   1.080   8.713 -1.0927  2.5154  3.8937
  820MOL0     H10666   5.632   0.702   8.953  0.9624 -0.6680  1.7399
  820MOL0     H10667   5.635   0.822   9.075  0.7266 -0.9110  0.3710
  820MOL0     H10668   5.408   0.845   9.068 -0.7768 -0.8214  0.2418
  820MOL0     H10669   5.380   0.738   8.932  0.1459  0.2057 -1.0276
  820MOL0     H10670   5.509   0.639   9.195 -1.7656  1.3867  2.0262
  820MOL0     H10671   5.436   0.539   9.057 -2.5492 -2.5147  2.3360
  820MOL0     H10672   5.288   0.706   9.268  3.4166 -1.9108  3.1740
  820MOL0     H10673   5.234   0.650   9.108  3.6404  0.4811 -2.5537
  820MOL0     H10674   5.335   0.496   9.354 -1.0918  0.9182  0.8494
  820MOL0     H10675   5.298   0.421   9.195  1.6067  0.6531  0.6255
  820MOL0     H10676   5.110   0.587   9.363  1.1577 -1.1275  0.2302
  820MOL0     H10677   5.063   0.480   9.230 -0.9495 -0.5299  0.0761
  820MOL0     H10678   5.178   0.368   9.490 -0.2138 -3.3926  0.7966
  820MOL0     H10679   5.100   0.280   9.354  1.3175  0.2365  0.9939
  820MOL0     H10680   4.888   0.387   9.399  0.1876  0.2834  0.2567
  820MOL0     H10681   4.964   0.460   9.540 -4.1061 -0.4287 -0.5869
  820MOL0     H10682   5.837   0.878   8.989  2.0195 -0.5624  0.1482
  820MOL0     H10683   6.020   1.009   8.918  0.4609 -3.5448  0.1188
  820MOL0     H10684   6.264   1.189   8.762  0.0662  0.2274  1.0242
  820MOL0     H10685   6.474   1.275   8.795 -0.7010  0.6443  0.3040
  820MOL0     H10686   8.471   0.929   8.456  0.0301  3.7388  0.2058
  820MOL0     H10687   8.578   0.772   8.621  2.8114  2.4347  0.8783
  820MOL0     H10688   8.658   0.421   8.957 -0.2316 -0.0311  0.4505
  820MOL0     H10689   8.742   0.340   9.166  2.1936  0.8765 -0.1606
  820MOL0     H10690   8.866   0.663   9.452 -1.6173 -0.8134 -3.6146
  820MOL0     H10691   8.714   0.587   9.521 -1.0172  2.4953 -1.7013
  820MOL0     H10692   9.000   0.474   9.541 -0.1864  0.5887 -3.7290
  820MOL0     H10693   8.858   0.405   9.620  2.8253 -1.8589 -0.9979
  820MOL0     H10694   8.867   0.689   9.696  0.9009  0.4638 -2.7832
  820MOL0     H10695   9.031   0.636   9.706 -0.3167  1.6693  0.3219
  820MOL0     H10696   8.960   0.439   9.853 -0.6350  0.2757  2.9349
  820MOL0     H10697   8.794   0.495   9.857  0.2997 -0.1187  0.2156
  820MOL0     H10698   9.004   0.735  10.125  3.3277 -0.2596 -0.8796
  820MOL0     H10699   8.736   0.743   9.321 -1.1676  1.3770 -0.1860
  820MOL0     H10700   8.649   0.824   9.128 -0.7892  0.3267  2.2850
  821MOL0     O10701   1.322   7.183  11.256  0.3321 -0.6466  0.0782
  821MOL0     C10702   1.251   7.258  11.191 -0.2756  0.1228 -0.3854
  821MOL0     O10703   1.277   7.304  11.064  0.0601  0.3901 -0.3738
  821MOL0     C10704   1.401   7.290  11.005  0.4710 -0.0783 -0.4671
  821MOL0     C10705   1.433   7.219  10.893 -0.1294 -0.0671  0.2833
  821MOL0     C10706   1.560   7.204  10.837 -0.4123 -0.1511 -0.5144
  821MOL0     C10707   1.669   7.267  10.902 -0.0101 -0.1138 -0.2742
  821MOL0     O10708   1.798   7.255  10.852 -0.5915 -0.3328 -0.3556
  821MOL0     C10709   1.808   7.229  10.713  0.3443  0.0964 -0.4349
  821MOL0     C10710   1.946   7.223  10.664  0.0916 -0.1629  0.3370
  821MOL0     C10711   2.000   7.364  10.659 -1.4697 -0.3432 -0.2793
  821MOL0     C10712   2.148   7.345  10.621  0.1038 -0.8566 -0.1366
  821MOL0     C10713   2.205   7.473  10.562  0.6776 -0.0265 -0.6357
  821MOL0     C10714   2.298   7.454  10.446  0.4487 -0.1416  0.5651
  821MOL0     C10715   2.218   7.447  10.318  0.7758 -0.0828 -0.5920
  821MOL0     C10716   2.276   7.349  10.214 -0.5721  0.7288  0.5838
  821MOL0     N10717   2.402   7.411  10.174 -0.0162 -0.3087  0.3676
  821MOL0     C10718   2.529   7.376  10.223  0.4773  0.9741 -1.0942
  821MOL0     C10719   2.613   7.441  10.143  0.5796  0.1292  0.0690
  821MOL0     C10720   2.761   7.417  10.121  1.2874 -0.3549 -0.0135
  821MOL0     C10721   2.807   7.430   9.974 -0.0759 -0.8022 -0.2630
  821MOL0     C10722   2.945   7.376   9.973 -0.4348  0.3831 -0.0733
  821MOL0     C10723   3.012   7.417   9.846 -0.6172 -0.3447  0.8347
  821MOL0     O10724   2.947   7.359   9.729  0.2250 -0.1362 -0.6091
  821MOL0     C10725   2.989   7.344   9.602 -0.4549 -0.4270 -0.7982
  821MOL0     C10726   3.118   7.369   9.558 -0.0365 -0.1555 -0.1668
  821MOL0     C10727   3.159   7.329   9.432 -0.1506  0.7641 -0.0287
  821MOL0     C10728   3.305   7.312   9.396 -0.8149  0.3199  0.7814
  821MOL0     C10729   3.055   7.293   9.338 -0.3839  0.1181 -0.1455
  821MOL0     C10730   3.092   7.278   9.195  0.0178 -0.2343  1.5414
  821MOL0     O10731   2.981   7.306   9.111  0.0951  0.4621  0.3288
  821MOL0     C10732   2.989   7.292   8.970 -0.2069  1.0411 -0.4329
  821MOL0     C10733   3.079   7.206   8.905 -0.1279  0.3576  0.9554
  821MOL0     C10734   3.079   7.199   8.765  0.0777  0.2421 -0.1697
  821MOL0     C10735   2.980   7.269   8.694  0.4269  0.3013 -0.1695
  821MOL0     O10736   2.965   7.269   8.559 -0.0364  1.3337  0.4640
  821MOL0     C10737   3.059   7.199   8.472 -0.1984  0.2472 -0.5864
  821MOL0     C10738   3.011   7.200   8.331 -0.1222  0.0077 -0.0995
  821MOL0     C10739   2.897   7.096   8.320 -0.5903 -0.8237 -0.6462
  821MOL0     C10740   2.819   7.110   8.200 -0.7396  0.4023  0.3315
  821MOL0     C10741   2.713   7.004   8.182  0.7255  0.4031  1.0973
  821MOL0     C10742   2.600   7.013   8.284  0.2665 -0.7794 -1.0782
  821MOL0     C10743   2.495   6.905   8.251 -0.4654 -0.0577  0.2184
  821MOL0     C10744   2.394   6.887   8.364  0.4918 -0.6569 -0.0481
  821MOL0    Cl10745   2.260   7.013   8.358 -0.1565  0.1958  0.2358
  821MOL0     C10746   2.883   7.348   8.768  0.1764 -0.0525 -0.1921
  821MOL0     C10747   2.896   7.368   8.899  0.4446  0.0275  0.1968
  821MOL0     O10748   3.210   7.274   9.148  0.2463 -0.6124 -0.8942
  821MOL0     C10749   2.922   7.279   9.376  0.2659  0.3839  0.2843
  821MOL0     C10750   2.897   7.303   9.510  0.2468  0.0327 -0.3339
  821MOL0     N10751   2.545   7.531  10.070 -0.1414  0.1329  0.0308
  821MOL0     N10752   2.415   7.513  10.082 -0.5971  0.1305  0.6460
  821MOL0     C10753   1.645   7.335  11.018  0.8094 -0.4358 -0.4703
  821MOL0     C10754   1.508   7.353  11.065  0.0121  0.5593  0.0260
  821MOL0     C10755   1.116   7.284  11.244 -0.1624  0.6161 -0.3823
  821MOL0     C10756   1.052   7.406  11.207  0.0068  0.0486 -0.2893
  821MOL0     C10757   0.927   7.444  11.262  0.1623  0.4182 -0.7083
  821MOL0     C10758   0.856   7.346  11.341  0.5803  0.0389 -0.1475
  821MOL0     O10759   0.731   7.375  11.395 -0.1492 -0.1407  0.0362
  821MOL0     C10760   0.694   7.519  11.397 -0.0303  0.2969 -0.7347
  821MOL0     C10761   0.558   7.517  11.453 -0.4037  0.0476  0.2002
  821MOL0     C10762   0.556   7.466  11.594 -0.1983  0.0495  1.0646
  821MOL0     C10763   0.410   7.468  11.648  0.0296  0.3740  0.2849
  821MOL0     C10764   0.334   7.336  11.624 -0.3028 -0.1559  0.0277
  821MOL0     C10765   0.289   7.230  11.585  0.8633  1.0617  0.4775
  821MOL0     C10766   0.926   7.225  11.373  0.5851  0.2831  0.8977
  821MOL0     C10767   1.051   7.195  11.326  0.1530  0.5463 -0.0298
  821MOL0     H10768   1.344   7.184  10.842 -0.2138  0.9631 -0.2950
  821MOL0     H10769   1.566   7.140  10.749  3.8452 -2.3253  1.0480
  821MOL0     H10770   1.761   7.130  10.702  2.1634 -1.0422  1.3007
  821MOL0     H10771   1.747   7.303  10.661 -2.9686 -1.2689  1.1889
  821MOL0     H10772   2.011   7.163  10.729 -0.6125 -0.7704  0.4917
  821MOL0     H10773   1.935   7.177  10.566 -0.8469  2.1013 -0.6976
  821MOL0     H10774   1.954   7.426  10.580  0.4975 -1.9479 -2.8660
  821MOL0     H10775   1.993   7.401  10.761 -0.8719 -1.4448  0.1765
  821MOL0     H10776   2.214   7.309  10.701  1.1329 -1.1956 -1.1242
  821MOL0     H10777   2.156   7.280  10.533  0.0192  0.7713 -1.3880
  821MOL0     H10778   2.128   7.545  10.537  0.8520  0.6064  0.6017
  821MOL0     H10779   2.267   7.523  10.637 -0.9024 -0.6797  1.1832
  821MOL0     H10780   2.360   7.543  10.446  1.2175 -0.6095 -1.6218
  821MOL0     H10781   2.358   7.363  10.461  0.8817 -0.6515 -3.1901
  821MOL0     H10782   2.117   7.409  10.336  0.7809  0.8513  1.7681
  821MOL0     H10783   2.209   7.549  10.280  0.3424  0.4315  0.8500
  821MOL0     H10784   2.216   7.321  10.127 -0.3730 -2.0803  1.2387
  821MOL0     H10785   2.295   7.251  10.258 -0.7523  0.2399 -0.4092
  821MOL0     H10786   2.558   7.298  10.292 -1.5630  0.5244 -0.6941
  821MOL0     H10787   2.819   7.477  10.191  1.5022  0.3165 -0.7494
  821MOL0     H10788   2.775   7.312  10.149  1.4528 -0.6843 -1.2589
  821MOL0     H10789   2.795   7.533   9.940 -0.3194 -0.1598  1.6465
  821MOL0     H10790   2.742   7.371   9.909 -2.0273  0.0219  0.8728
  821MOL0     H10791   2.949   7.269   9.992  1.1545  0.3151 -0.6233
  821MOL0     H10792   2.997   7.427  10.055 -0.9661  0.7033  0.0712
  821MOL0     H10793   3.119   7.392   9.847  0.1260  2.3808 -0.4209
  821MOL0     H10794   3.012   7.526   9.843  0.9905 -0.3243  0.1833
  821MOL0     H10795   3.196   7.405   9.625  1.2661 -1.7491 -0.7467
  821MOL0     H10796   3.343   7.387   9.326  1.7530 -0.0654  1.6601
  821MOL0     H10797   3.364   7.319   9.488  4.1491 -0.8974 -1.9042
  821MOL0     H10798   3.324   7.213   9.355  0.5225 -1.1049  4.4139
  821MOL0     H10799   3.152   7.154   8.967  0.9227  1.8066  0.9738
  821MOL0     H10800   3.162   7.144   8.721 -0.7107 -0.2712 -1.0498
  821MOL0     H10801   3.160   7.239   8.484  0.6617 -0.8322 -3.3650
  821MOL0     H10802   3.063   7.095   8.506  5.6962  0.8460  1.6525
  821MOL0     H10803   2.971   7.299   8.307  2.0749  1.5970  2.1979
  821MOL0     H10804   3.085   7.173   8.256 -2.0736 -1.4653 -1.6055
  821MOL0     H10805   2.830   7.090   8.407  0.5567 -1.4220  0.2119
  821MOL0     H10806   2.951   7.002   8.311  2.2257  0.4633  1.4087
  821MOL0     H10807   2.778   7.211   8.192  0.6875  0.8789 -1.9477
  821MOL0     H10808   2.888   7.082   8.120 -3.2314 -2.7445 -0.9227
  821MOL0     H10809   2.759   6.905   8.194  2.8616  1.3477  1.2021
  821MOL0     H10810   2.667   7.007   8.084 -0.6691 -2.0952  1.5868
  821MOL0     H10811   2.624   7.009   8.391 -1.1908 -0.5714 -0.7176
  821MOL0     H10812   2.550   7.111   8.284  1.6702  0.1210  2.6483
  821MOL0     H10813   2.540   6.809   8.223  2.4995  1.0822  0.6558
  821MOL0     H10814   2.423   6.925   8.171 -0.9677  0.2966  0.7502
  821MOL0     H10815   2.456   6.896   8.454  1.4015  3.2127 -0.9073
  821MOL0     H10816   2.344   6.790   8.369 -2.1489  0.5765 -0.7884
  821MOL0     H10817   2.818   7.410   8.707  2.5958  2.0884 -0.7753
  821MOL0     H10818   2.830   7.435   8.953 -0.9896 -0.4857 -0.8561
  821MOL0     H10819   2.836   7.271   9.311  0.6586 -0.0942 -0.1896
  821MOL0     H10820   2.793   7.313   9.539 -0.4524  1.2506 -2.9767
  821MOL0     H10821   1.728   7.384  11.068  0.9878 -0.5834 -0.6226
  821MOL0     H10822   1.484   7.398  11.161  1.0048 -2.4340  1.7898
  821MOL0     H10823   1.099   7.478  11.141  0.3959  1.3842  1.3628
  821MOL0     H10824   0.894   7.545  11.242 -0.4882  0.0114 -1.7536
  821MOL0     H10825   0.773   7.569  11.455  0.1139  0.6848 -1.2586
  821MOL0     H10826   0.693   7.571  11.301  0.8038  0.8766 -0.4454
  821MOL0     H10827   0.494   7.458  11.387 -0.3026  2.0676 -1.8272
  821MOL0     H10828   0.513   7.616  11.438 -1.5889 -0.6430 -1.0797
  821MOL0     H10829   0.615   7.533  11.658  0.5967  0.1912  0.2004
  821MOL0     H10830   0.601   7.368  11.610 -3.3441 -1.1769  3.4241
  821MOL0     H10831   0.357   7.556  11.609  1.7014  1.4862  0.4119
  821MOL0     H10832   0.418   7.487  11.756 -1.5517 -0.0016  0.4936
  821MOL0     H10833   0.247   7.132  11.569 -0.4844  1.7747 -0.5686
  821MOL0     H10834   0.874   7.154  11.436 -1.7081  1.6707  0.6742
  821MOL0     H10835   1.102   7.101  11.344 -0.0382  0.0431 -1.9567
  822MOL0     O10836   9.147   6.610   6.493  0.7182 -0.1518 -0.0403
  822MOL0     C10837   9.149   6.646   6.374 -0.1905  0.0223 -0.2164
  822MOL0     O10838   9.039   6.682   6.297 -0.2274  0.6177  0.4478
  822MOL0     C10839   8.921   6.703   6.356  0.6190  0.0852  0.7479
  822MOL0     C10840   8.870   6.838   6.359  0.1484  0.0624  0.5159
  822MOL0     C10841   8.750   6.857   6.417  0.2942  0.9200  0.0206
  822MOL0     C10842   8.673   6.758   6.477 -0.8353 -0.3137 -0.1169
  822MOL0     O10843   8.546   6.812   6.515  0.0233  0.0000 -0.4717
  822MOL0     C10844   8.460   6.726   6.582  1.1912  0.3673 -0.5022
  822MOL0     C10845   8.310   6.773   6.554  0.1801 -0.0553 -0.5243
  822MOL0     C10846   8.228   6.734   6.678  0.4215 -0.3318 -0.2026
  822MOL0     C10847   8.078   6.776   6.661 -0.6467 -0.1343 -0.2553
  822MOL0     C10848   8.002   6.772   6.797  1.2767  0.0585 -0.2015
  822MOL0     C10849   7.847   6.774   6.774 -0.1746  0.6703 -0.4080
  822MOL0     C10850   7.768   6.790   6.902 -0.1850  0.1302 -0.9798
  822MOL0     C10851   7.628   6.827   6.862 -0.0677 -0.2036 -0.1703
  822MOL0     N10852   7.535   6.744   6.937 -0.4770 -0.1623  0.6228
  822MOL0     C10853   7.483   6.773   7.056 -0.3183  0.4167 -0.0669
  822MOL0     C10854   7.413   6.657   7.085  0.0226  0.3397  0.5343
  822MOL0     C10855   7.352   6.620   7.214  0.6660  0.2276 -0.6751
  822MOL0     C10856   7.286   6.735   7.281  0.0949 -0.5594 -0.2682
  822MOL0     C10857   7.172   6.808   7.198 -0.4332 -0.3624  0.1744
  822MOL0     C10858   7.096   6.902   7.281  0.7453  0.2861 -0.3547
  822MOL0     O10859   6.957   6.923   7.236  0.4578  0.6347 -0.9690
  822MOL0     C10860   6.879   6.986   7.322  0.5463 -0.7424  0.3613
  822MOL0     C10861   6.749   6.937   7.341 -0.3328  0.8888  0.1503
  822MOL0     C10862   6.658   6.995   7.423 -0.0552  0.1384 -0.3054
  822MOL0     C10863   6.523   6.940   7.445  0.0477 -0.0749  0.0833
  822MOL0     C10864   6.695   7.107   7.502  0.3343  0.9262 -0.0769
  822MOL0     C10865   6.615   7.171   7.609  0.4207  0.9858 -0.4279
  822MOL0     O10866   6.570   7.086   7.714 -1.2259 -0.8329 -0.2088
  822MOL0     C10867   6.472   7.128   7.796  0.2819 -0.0761  0.1475
  822MOL0     C10868   6.345   7.152   7.746 -0.7262  0.7005  0.0675
  822MOL0     C10869   6.247   7.186   7.836 -0.5777 -0.0954 -0.5388
  822MOL0     C10870   6.279   7.217   7.969  0.6764 -0.5992 -0.3786
  822MOL0     O10871   6.198   7.284   8.065  0.5773  0.8882  0.6051
  822MOL0     C10872   6.169   7.414   8.030  0.2760 -0.3704 -0.8990
  822MOL0     C10873   6.110   7.477   8.163  0.7810  0.3027 -0.1541
  822MOL0     C10874   5.972   7.424   8.211  0.6219  0.8939 -0.7501
  822MOL0     C10875   5.939   7.490   8.348 -0.5288  0.1167 -0.8407
  822MOL0     C10876   5.796   7.464   8.382  0.3445  0.2114  0.1597
  822MOL0     C10877   5.733   7.596   8.433  0.0138 -0.1691 -0.3694
  822MOL0     C10878   5.759   7.637   8.574  0.1035 -0.4625 -0.1141
  822MOL0     C10879   5.655   7.738   8.627 -0.4415  0.3838  0.3744
  822MOL0    Cl10880   5.693   7.756   8.803 -0.0781 -0.1013  0.0936
  822MOL0     C10881   6.411   7.193   8.019  0.6453 -0.1119  0.4443
  822MOL0     C10882   6.504   7.142   7.935  0.0695  0.3738  0.3136
  822MOL0     O10883   6.584   7.294   7.595 -0.0808  0.4777 -0.5699
  822MOL0     C10884   6.829   7.158   7.488  0.2554 -1.2201  0.0199
  822MOL0     C10885   6.920   7.086   7.410 -0.7336 -0.1298 -0.1725
  822MOL0     N10886   7.432   6.574   6.976  0.5536 -0.2187 -1.1619
  822MOL0     N10887   7.509   6.624   6.894  0.2514 -0.5005  0.3951
  822MOL0     C10888   8.730   6.631   6.495  0.3476 -0.0158  0.6692
  822MOL0     C10889   8.855   6.607   6.436  0.1201  0.0090  0.7160
  822MOL0     C10890   9.281   6.635   6.304  0.1503 -0.7344  0.0745
  822MOL0     C10891   9.396   6.596   6.375  0.1009 -0.2858  0.4560
  822MOL0     C10892   9.519   6.601   6.321  0.5105  0.7426 -0.2100
  822MOL0     C10893   9.534   6.654   6.186 -0.1862 -0.0155 -0.3594
  822MOL0     O10894   9.654   6.673   6.122  0.8528 -0.2504 -0.2908
  822MOL0     C10895   9.782   6.617   6.166 -0.1535 -0.2463  1.2058
  822MOL0     C10896   9.905   6.655   6.074  0.0384  0.3892  0.3197
  822MOL0     C10897  10.023   6.552   6.102  0.4191 -0.5441  0.6906
  822MOL0     C10898  10.143   6.568   6.008  0.9307 -0.4668 -0.6004
  822MOL0     C10899  10.115   6.522   5.868 -0.3068  0.0515 -1.0198
  822MOL0     C10900  10.077   6.484   5.753 -0.0487 -0.2683 -0.6662
  822MOL0     C10901   9.423   6.698   6.120 -0.2159  1.3010 -0.4450
  822MOL0     C10902   9.294   6.694   6.173 -0.6975 -0.9991 -1.0299
  822MOL0     H10903   8.934   6.915   6.318  1.0407  0.0291  1.7823
  822MOL0     H10904   8.699   6.953   6.419 -1.7747 -0.1085  2.8932
  822MOL0     H10905   8.470   6.623   6.546 -0.0342 -0.1407  0.5442
  822MOL0     H10906   8.477   6.738   6.690 -1.9931 -2.1196  0.4333
  822MOL0     H10907   8.308   6.881   6.536 -0.5548  0.1482  0.6395
  822MOL0     H10908   8.266   6.726   6.466  0.0590 -2.6281  0.8008
  822MOL0     H10909   8.222   6.626   6.690 -1.0676 -0.3730 -1.0538
  822MOL0     H10910   8.280   6.782   6.762 -1.3949 -1.5998  1.7677
  822MOL0     H10911   8.061   6.882   6.640 -1.9928  0.0048  1.3701
  822MOL0     H10912   8.032   6.716   6.582 -1.6490  0.9949 -0.5562
  822MOL0     H10913   8.029   6.687   6.859  0.7558  0.5636  0.7349
  822MOL0     H10914   8.027   6.865   6.849  0.4824 -1.0893  2.3999
  822MOL0     H10915   7.811   6.859   6.715 -1.0440  2.2880  2.2709
  822MOL0     H10916   7.814   6.680   6.730  0.3907 -0.5323  1.5674
  822MOL0     H10917   7.758   6.691   6.947  0.8461  1.0870  1.5262
  822MOL0     H10918   7.808   6.864   6.971 -2.8721  3.2463 -2.4942
  822MOL0     H10919   7.607   6.808   6.756 -1.1476 -1.4533  0.2567
  822MOL0     H10920   7.613   6.934   6.881  1.0498  0.4168 -2.3886
  822MOL0     H10921   7.492   6.856   7.125 -0.1507  1.5069 -1.3726
  822MOL0     H10922   7.275   6.547   7.187  0.7241  0.6176 -1.9747
  822MOL0     H10923   7.433   6.579   7.274 -0.4347 -0.3507  0.4627
  822MOL0     H10924   7.373   6.798   7.302  0.9080 -2.1527  1.3286
  822MOL0     H10925   7.242   6.696   7.373  2.2232  0.2401  1.1426
  822MOL0     H10926   7.105   6.737   7.149 -2.3732  0.8135  0.9907
  822MOL0     H10927   7.214   6.875   7.123  2.4072 -1.8178  0.3314
  822MOL0     H10928   7.152   6.996   7.289  1.1379 -0.0831  1.5648
  822MOL0     H10929   7.088   6.859   7.381  2.9719 -1.4128 -0.8154
  822MOL0     H10930   6.715   6.850   7.286  0.8255 -0.2752  1.2006
  822MOL0     H10931   6.453   6.997   7.383 -2.5453 -2.6985  0.3700
  822MOL0     H10932   6.522   6.838   7.405 -0.3029 -0.4128  0.9481
  822MOL0     H10933   6.483   6.942   7.546 -3.9908  0.2622 -1.3483
  822MOL0     H10934   6.318   7.153   7.641 -3.6329 -0.0360  0.7360
  822MOL0     H10935   6.149   7.219   7.803 -1.3620  3.0481  3.9731
  822MOL0     H10936   6.255   7.473   7.997  0.5088  0.0015  0.3205
  822MOL0     H10937   6.088   7.408   7.957 -2.0943  0.2679  1.5075
  822MOL0     H10938   6.174   7.453   8.248  0.7801  1.4505  0.1823
  822MOL0     H10939   6.095   7.585   8.159 -3.4019 -0.0889  0.1297
  822MOL0     H10940   5.960   7.315   8.214  1.2959  0.8126  2.4001
  822MOL0     H10941   5.899   7.460   8.138 -1.7391  0.2436  1.1432
  822MOL0     H10942   6.001   7.455   8.432 -2.2327  0.9523  0.8378
  822MOL0     H10943   5.968   7.595   8.338  0.4413  0.5148  3.8437
  822MOL0     H10944   5.790   7.393   8.465 -2.8057  0.2482  0.0957
  822MOL0     H10945   5.739   7.417   8.300  1.5844 -1.7190  0.3444
  822MOL0     H10946   5.747   7.668   8.352  1.3277  2.2618  1.8380
  822MOL0     H10947   5.626   7.578   8.426  0.2589 -1.2805 -1.6197
  822MOL0     H10948   5.854   7.690   8.584  0.4622 -0.8926 -1.0553
  822MOL0     H10949   5.764   7.547   8.635 -2.3291  1.5684  3.4187
  822MOL0     H10950   5.551   7.706   8.617 -0.0577 -0.5497 -0.8038
  822MOL0     H10951   5.651   7.831   8.570  2.5087 -0.3319 -1.2252
  822MOL0     H10952   6.447   7.219   8.119  0.2235  1.0140  0.3157
  822MOL0     H10953   6.601   7.114   7.973 -0.5879 -0.6264  1.3074
  822MOL0     H10954   6.851   7.253   7.537 -0.4542  1.0419 -3.6561
  822MOL0     H10955   7.021   7.124   7.398 -0.7048 -0.9910 -4.1291
  822MOL0     H10956   8.679   6.554   6.550  0.7559  0.1440  1.2853
  822MOL0     H10957   8.900   6.508   6.436 -0.7720 -0.4052 -0.2039
  822MOL0     H10958   9.385   6.545   6.470  1.0082 -1.4669 -0.0385
  822MOL0     H10959   9.600   6.563   6.383  2.2511  4.9618  0.4514
  822MOL0     H10960   9.813   6.636   6.269  4.2996  1.2044 -0.1747
  822MOL0     H10961   9.770   6.509   6.155 -2.3460 -0.2661  3.1094
  822MOL0     H10962   9.935   6.755   6.105  1.4101  0.3353 -0.7431
  822MOL0     H10963   9.869   6.656   5.971  0.1232  2.3039  0.2872
  822MOL0     H10964   9.990   6.448   6.092  1.1061 -0.5855 -1.6796
  822MOL0     H10965  10.054   6.574   6.205  0.5826  3.0571 -0.0043
  822MOL0     H10966  10.233   6.522   6.051  1.3337  2.3710  1.8964
  822MOL0     H10967  10.161   6.676   6.004 -0.2443 -0.3135 -2.3437
  822MOL0     H10968  10.041   6.445   5.660 -0.9453  0.2641 -0.5531
  822MOL0     H10969   9.434   6.738   6.019 -4.1697  1.2679 -1.0430
  822MOL0     H10970   9.214   6.737   6.114 -0.5900 -0.4949 -0.8107
  823MOL0     O10971   3.698  11.198   8.148 -0.5761 -0.2465 -0.7289
  823MOL0     C10972   3.699  11.073   8.144 -0.2336 -0.5481  0.2190
  823MOL0     O10973   3.611  10.996   8.089  0.3878 -0.2180 -0.0246
  823MOL0     C10974   3.516  11.049   8.004  0.8569 -0.1960  0.2384
  823MOL0     C10975   3.485  10.974   7.894 -0.3606  0.4648 -0.6803
  823MOL0     C10976   3.391  11.013   7.804  1.0746  0.0700  0.1954
  823MOL0     C10977   3.304  11.119   7.837 -0.5070 -0.0221 -0.4572
  823MOL0     O10978   3.199  11.146   7.750 -0.5827 -0.7399 -0.4287
  823MOL0     C10979   3.089  11.231   7.788  0.5075 -0.3129  0.4239
  823MOL0     C10980   2.998  11.163   7.901  0.1653  0.0347  0.2368
  823MOL0     C10981   2.877  11.242   7.935  0.6268 -0.7028  0.0831
  823MOL0     C10982   2.789  11.161   8.027 -0.3114  1.0310  0.4444
  823MOL0     C10983   2.698  11.060   7.944 -0.7589 -0.8675 -0.2633
  823MOL0     C10984   2.582  11.141   7.879 -0.3322  0.1080  0.3934
  823MOL0     C10985   2.470  11.065   7.804 -0.7227  0.7140 -0.8012
  823MOL0     C10986   2.518  10.996   7.671  0.4595  0.3613  0.3445
  823MOL0     N10987   2.656  11.014   7.627 -0.6344 -0.2635 -0.4946
  823MOL0     C10988   2.734  10.904   7.613  0.1665  0.5302 -0.7156
  823MOL0     C10989   2.855  10.942   7.578 -0.3932 -0.5255  0.1277
  823MOL0     C10990   2.971  10.848   7.560  0.0747  0.7601  0.4243
  823MOL0     C10991   3.069  10.830   7.670  0.3111 -0.0982 -0.0181
  823MOL0     C10992   3.191  10.738   7.642 -0.4933  0.2148 -0.6833
  823MOL0     C10993   3.258  10.685   7.775  0.5392 -0.1766 -0.1695
  823MOL0     O10994   3.394  10.635   7.737  0.3103  0.0856  0.1810
  823MOL0     C10995   3.482  10.599   7.838 -0.3926  0.0057 -0.0327
  823MOL0     C10996   3.582  10.502   7.819  0.4524 -1.2597 -0.5946
  823MOL0     C10997   3.670  10.451   7.919  0.9164 -0.3445 -1.8896
  823MOL0     C10998   3.755  10.335   7.887 -0.5206 -0.2294 -0.5740
  823MOL0     C10999   3.655  10.513   8.056 -0.6422 -0.0933  0.3715
  823MOL0     C11000   3.730  10.450   8.176  0.1637  0.2628  0.5561
  823MOL0     O11001   3.693  10.496   8.295 -0.4599 -0.9356 -0.7402
  823MOL0     C11002   3.764  10.461   8.407 -0.0179  0.1578  0.5226
  823MOL0     C11003   3.894  10.411   8.425 -0.1330  0.0898  0.6387
  823MOL0     C11004   3.940  10.369   8.549  1.0025 -0.2581  0.0317
  823MOL0     C11005   3.858  10.373   8.664  1.3843  0.6195 -0.0451
  823MOL0     O11006   3.898  10.335   8.789  0.7934 -0.0920 -0.4029
  823MOL0     C11007   4.023  10.263   8.806  0.6356 -0.1619  0.5172
  823MOL0     C11008   4.130  10.361   8.816  0.0435  0.4297 -0.9687
  823MOL0     C11009   4.267  10.287   8.818  0.2939  0.6915 -0.3303
  823MOL0     C11010   4.374  10.375   8.875 -1.0048 -0.0015 -0.6459
  823MOL0     C11011   4.518  10.312   8.861  0.2351  0.2910 -0.2939
  823MOL0     C11012   4.616  10.393   8.953  0.2756  0.0599  0.4695
  823MOL0     C11013   4.756  10.332   8.972 -0.7010 -0.3139  0.6939
  823MOL0     C11014   4.825  10.410   9.089  0.0134  0.0216  0.6812
  823MOL0    Cl11015   4.836  10.586   9.048  0.5197  0.2756 -0.4327
  823MOL0     C11016   3.727  10.424   8.647  0.7650 -1.0520  0.1578
  823MOL0     C11017   3.681  10.465   8.520 -0.7415  0.0846 -0.8229
  823MOL0     O11018   3.820  10.375   8.150 -0.4705  0.0086 -0.0143
  823MOL0     C11019   3.558  10.609   8.073 -0.2224 -1.3254 -1.2339
  823MOL0     C11020   3.472  10.657   7.970  0.0058  0.8087  0.7894
  823MOL0     N11021   2.856  11.079   7.563  0.1426 -0.2652  0.3519
  823MOL0     N11022   2.729  11.121   7.575  0.8134  0.0829 -0.4025
  823MOL0     C11023   3.334  11.202   7.949 -0.0856 -0.1534  0.0520
  823MOL0     C11024   3.442  11.165   8.034  0.3277 -0.4255 -0.2271
  823MOL0     C11025   3.807  11.009   8.227 -0.1115  0.4131 -0.5081
  823MOL0     C11026   3.827  10.871   8.225 -0.1188 -0.1983 -0.6678
  823MOL0     C11027   3.916  10.808   8.312  0.3103  0.4705  0.1158
  823MOL0     C11028   4.002  10.884   8.394 -0.9740  0.2817 -0.0522
  823MOL0     O11029   4.101  10.836   8.478  0.6066 -0.5189 -0.2730
  823MOL0     C11030   4.129  10.693   8.481 -0.1227 -0.8036  0.0850
  823MOL0     C11031   4.192  10.643   8.355  0.3976  0.5922  0.3460
  823MOL0     C11032   4.310  10.735   8.309  0.3248  0.1887 -0.5385
  823MOL0     C11033   4.438  10.707   8.389  0.5219 -0.4611 -0.2976
  823MOL0     C11034   4.469  10.566   8.408 -0.2734  0.0615 -0.0832
  823MOL0     C11035   4.515  10.453   8.423  0.5798 -0.6273  0.0924
  823MOL0     C11036   3.992  11.030   8.393  0.1892  0.1088  0.0865
  823MOL0     C11037   3.895  11.088   8.308  0.5999  0.3622  0.6820
  823MOL0     H11038   3.553  10.893   7.872  0.2268  0.8704 -0.3799
  823MOL0     H11039   3.377  10.956   7.713 -1.1199 -1.3329  1.3192
  823MOL0     H11040   3.123  11.328   7.826 -1.1199 -0.0131  1.2130
  823MOL0     H11041   3.022  11.254   7.705 -0.4922  0.4349  1.4157
  823MOL0     H11042   2.962  11.065   7.869  0.8887  0.5658 -2.5000
  823MOL0     H11043   3.056  11.153   7.994  3.4567 -1.4607 -1.8003
  823MOL0     H11044   2.919  11.331   7.982  1.5742 -0.2511 -1.5210
  823MOL0     H11045   2.818  11.268   7.847  0.4241  0.9263  0.6656
  823MOL0     H11046   2.847  11.109   8.104 -0.7217  0.1360  0.1697
  823MOL0     H11047   2.716  11.220   8.082 -1.0060  0.8264 -0.2336
  823MOL0     H11048   2.748  11.002   7.865 -0.5077  0.2399 -0.9456
  823MOL0     H11049   2.646  10.990   8.009 -1.8982  2.1790  2.3566
  823MOL0     H11050   2.529  11.174   7.969  1.4788 -1.6349  2.1883
  823MOL0     H11051   2.606  11.233   7.825 -0.1677 -0.4271 -0.4698
  823MOL0     H11052   2.427  10.981   7.858 -0.0007 -1.3670 -3.2539
  823MOL0     H11053   2.393  11.139   7.781  0.2685  3.4310  3.4233
  823MOL0     H11054   2.451  11.047   7.601 -0.2892  3.4701  3.0311
  823MOL0     H11055   2.491  10.890   7.667 -1.7757  0.8951 -2.3605
  823MOL0     H11056   2.714  10.801   7.642  1.8325  0.6455  1.0462
  823MOL0     H11057   2.935  10.747   7.537  4.9524 -1.1383  0.1139
  823MOL0     H11058   3.032  10.888   7.479  0.6434  1.1054  1.0161
  823MOL0     H11059   3.027  10.800   7.766 -1.6260  2.1848 -0.0289
  823MOL0     H11060   3.103  10.934   7.675 -0.4206  0.1380  0.2729
  823MOL0     H11061   3.269  10.795   7.592 -0.3856 -0.1085 -0.8915
  823MOL0     H11062   3.161  10.648   7.587 -0.4731 -0.1851 -0.0528
  823MOL0     H11063   3.201  10.618   7.840 -0.3863  0.6314 -0.1240
  823MOL0     H11064   3.260  10.782   7.826  0.1672  0.0684 -0.6172
  823MOL0     H11065   3.567  10.457   7.721 -0.2825 -2.4618  0.0454
  823MOL0     H11066   3.705  10.255   7.943 -0.3433  1.4900  2.2224
  823MOL0     H11067   3.745  10.297   7.785 -3.8549 -1.3937  0.0696
  823MOL0     H11068   3.860  10.358   7.904 -1.1369  3.1918 -0.7147
  823MOL0     H11069   3.953  10.426   8.335 -2.4786  1.6991 -0.7592
  823MOL0     H11070   4.045  10.343   8.547  0.4346 -2.7955 -2.1720
  823MOL0     H11071   4.015  10.206   8.899  0.1928  2.0848  1.9357
  823MOL0     H11072   4.037  10.201   8.717 -0.0083 -3.2988  2.4635
  823MOL0     H11073   4.131  10.448   8.748  0.4839  2.0842  1.0606
  823MOL0     H11074   4.113  10.405   8.915 -0.5067  2.2244 -1.8101
  823MOL0     H11075   4.287  10.252   8.717  0.1728 -0.1690 -0.0636
  823MOL0     H11076   4.245  10.200   8.881  0.7051 -0.2436 -1.4343
  823MOL0     H11077   4.399  10.463   8.816 -1.0531 -0.8610 -1.9752
  823MOL0     H11078   4.355  10.403   8.979  0.8300 -1.8488  0.2669
  823MOL0     H11079   4.547  10.305   8.756 -0.2637  0.1940 -0.4293
  823MOL0     H11080   4.519  10.208   8.896  0.9055 -0.3811 -2.2126
  823MOL0     H11081   4.620  10.481   8.888 -1.1844 -2.2939 -3.1068
  823MOL0     H11082   4.564  10.414   9.047 -3.1110  1.2084 -1.4778
  823MOL0     H11083   4.806  10.341   8.875  0.4128 -1.6568  1.1104
  823MOL0     H11084   4.766  10.225   8.990 -0.8255 -0.4366  0.0521
  823MOL0     H11085   4.920  10.361   9.111  1.9051  2.1930 -1.9482
  823MOL0     H11086   4.765  10.390   9.178  2.2361 -0.2007  2.2056
  823MOL0     H11087   3.659  10.449   8.728 -0.7770  1.4692 -1.7689
  823MOL0     H11088   3.581  10.507   8.521 -1.0337 -0.4511  2.2127
  823MOL0     H11089   3.553  10.655   8.171  4.9227  0.5873 -1.5356
  823MOL0     H11090   3.394  10.729   7.989 -0.7211  0.0168  0.8862
  823MOL0     H11091   3.282  11.296   7.970 -0.2865  0.0068 -1.0798
  823MOL0     H11092   3.456  11.222   8.126 -1.5293  2.8116 -1.7647
  823MOL0     H11093   3.762  10.815   8.158 -0.3439  0.0989 -0.7056
  823MOL0     H11094   3.915  10.700   8.306  2.7993  0.3852  0.1831
  823MOL0     H11095   4.196  10.669   8.564  0.2304 -0.6770 -0.1603
  823MOL0     H11096   4.038  10.636   8.504 -0.2767 -0.9794 -0.9229
  823MOL0     H11097   4.123  10.659   8.271  2.6567  2.5547 -1.2736
  823MOL0     H11098   4.221  10.538   8.356 -1.3787  0.0582  0.6591
  823MOL0     H11099   4.288  10.842   8.315 -0.2898  0.0269  0.2309
  823MOL0     H11100   4.328  10.711   8.204  0.7462 -0.2109 -0.3815
  823MOL0     H11101   4.435  10.755   8.487 -1.0357 -0.3715 -0.3683
  823MOL0     H11102   4.521  10.758   8.339  0.7870 -0.9962 -0.4122
  823MOL0     H11103   4.554  10.359   8.455 -1.9625 -1.1509  1.9731
  823MOL0     H11104   4.067  11.094   8.440 -0.1971  1.1572 -0.6773
  823MOL0     H11105   3.875  11.194   8.305 -6.1720 -0.4287 -3.0631
  824MOL0     O11106  11.370   5.131   4.559  0.3233 -0.0751  0.6273
  824MOL0     C11107  11.419   5.057   4.466 -0.1010  0.2071  0.5618
  824MOL0     O11108  11.348   5.011   4.360 -0.1803  0.6988  0.2652
  824MOL0     C11109  11.218   5.047   4.345 -0.3201 -0.3265 -0.2723
  824MOL0     C11110  11.183   5.177   4.328  0.7960  1.0130 -0.1506
  824MOL0     C11111  11.051   5.209   4.299  0.2868  0.7679  0.8495
  824MOL0     C11112  10.955   5.112   4.279  1.1127  0.3358  0.8592
  824MOL0     O11113  10.823   5.149   4.243 -0.0697  0.8699  0.3233
  824MOL0     C11114  10.725   5.045   4.212  0.0032 -0.6130  0.7313
  824MOL0     C11115  10.596   5.115   4.168  0.8704 -0.1700 -0.2401
  824MOL0     C11116  10.494   5.000   4.162 -0.7709  0.3269 -0.5994
  824MOL0     C11117  10.368   5.048   4.097 -0.3764  0.0010  0.3596
  824MOL0     C11118  10.268   4.927   4.102 -1.0776 -0.0615 -0.8693
  824MOL0     C11119  10.139   4.971   4.035 -0.3818 -0.0503 -0.4875
  824MOL0     C11120  10.048   4.842   4.031 -0.7228 -0.4184 -0.7052
  824MOL0     C11121   9.934   4.866   3.936  0.2229 -1.2570 -0.0081
  824MOL0     N11122   9.825   4.768   3.940  0.0439 -0.2607 -0.7874
  824MOL0     C11123   9.698   4.805   3.984  0.3299  1.1339 -0.2415
  824MOL0     C11124   9.622   4.700   3.950  0.4492  0.4518 -0.0706
  824MOL0     C11125   9.472   4.716   3.951  0.5466  0.9091 -0.4073
  824MOL0     C11126   9.409   4.724   3.809  0.0280  0.3347 -0.2555
  824MOL0     C11127   9.262   4.691   3.794 -0.9046  0.5046 -0.5521
  824MOL0     C11128   9.168   4.772   3.888 -0.5645 -0.7292 -0.0527
  824MOL0     O11129   9.190   4.910   3.842  0.0937 -0.9213 -0.2384
  824MOL0     C11130   9.138   5.019   3.916  0.6926  0.2365 -0.5765
  824MOL0     C11131   9.183   5.152   3.892  0.7860 -0.1063 -0.0005
  824MOL0     C11132   9.135   5.265   3.971  0.3395  0.2975  0.6788
  824MOL0     C11133   9.214   5.399   3.935  1.1452  0.7087  0.5108
  824MOL0     C11134   9.032   5.248   4.068 -0.0324  0.4609  0.1499
  824MOL0     C11135   8.980   5.356   4.153 -0.3957 -0.3996 -0.3601
  824MOL0     O11136   8.912   5.320   4.260 -0.6499  0.3088 -0.4091
  824MOL0     C11137   8.857   5.418   4.328 -0.7562 -0.3196 -0.2661
  824MOL0     C11138   8.929   5.507   4.402  0.7162 -0.4899  0.4762
  824MOL0     C11139   8.858   5.600   4.478  0.9123  0.0137  0.5320
  824MOL0     C11140   8.715   5.622   4.464 -0.2410 -0.1299 -0.5820
  824MOL0     O11141   8.656   5.735   4.526  0.5285  0.0645 -0.6988
  824MOL0     C11142   8.519   5.766   4.500  0.2077 -0.3434  0.0443
  824MOL0     C11143   8.418   5.679   4.582 -0.6343 -0.2425 -0.1069
  824MOL0     C11144   8.276   5.736   4.572 -1.1319 -0.4737  0.4310
  824MOL0     C11145   8.234   5.830   4.684  0.6366  1.3965  0.2393
  824MOL0     C11146   8.124   5.922   4.624  0.1600  0.6039 -0.2536
  824MOL0     C11147   8.068   6.025   4.724  0.0046  0.2180  0.2549
  824MOL0     C11148   7.972   5.975   4.833  0.5295  0.0101  0.8870
  824MOL0     C11149   7.895   6.086   4.906  0.1941 -0.0283  0.2417
  824MOL0    Cl11150   7.779   6.159   4.803  0.2975 -0.3881 -0.0865
  824MOL0     C11151   8.653   5.539   4.371  0.9307  0.0488 -0.0193
  824MOL0     C11152   8.722   5.433   4.311  0.5416  0.1265 -0.9326
  824MOL0     O11153   9.018   5.474   4.132 -0.1925  0.5745 -0.0384
  824MOL0     C11154   8.987   5.114   4.087  0.3966 -0.3807 -0.1923
  824MOL0     C11155   9.042   5.005   4.020  0.2013 -0.0123  0.6214
  824MOL0     N11156   9.703   4.600   3.896  0.2978 -0.3209  0.1472
  824MOL0     N11157   9.824   4.643   3.885  0.2194  0.1047 -0.2726
  824MOL0     C11158  10.989   4.980   4.328  0.6270 -0.2055 -0.0383
  824MOL0     C11159  11.122   4.953   4.357 -0.1709 -0.1719  0.4915
  824MOL0     C11160  11.559   5.013   4.471 -0.8012  0.9513 -0.8675
  824MOL0     C11161  11.652   5.052   4.576  0.4542 -0.6815  0.3646
  824MOL0     C11162  11.784   5.009   4.568  0.2168  0.2497  0.1743
  824MOL0     C11163  11.829   4.920   4.482 -0.9640  1.1977  0.6932
  824MOL0     O11164  11.958   4.865   4.488 -0.0796 -0.6295 -0.8142
  824MOL0     C11165  12.036   4.898   4.614 -0.0460  0.4483  0.1838
  824MOL0     C11166  11.977   4.851   4.749 -0.0420  0.6909 -0.1552
  824MOL0     C11167  11.928   4.705   4.753  0.2342 -0.4646  0.1425
  824MOL0     C11168  11.858   4.670   4.880  0.3787 -0.6340 -0.4522
  824MOL0     C11169  11.718   4.729   4.876  0.2095 -0.7546  0.9383
  824MOL0     C11170  11.614   4.790   4.877 -0.0119  0.5091 -0.4482
  824MOL0     C11171  11.741   4.876   4.381  0.2476  0.1718  0.4078
  824MOL0     C11172  11.605   4.914   4.379 -0.6978  0.8142  0.3957
  824MOL0     H11173  11.258   5.253   4.349  1.2412  0.6324 -0.3660
  824MOL0     H11174  11.009   5.308   4.286 -0.9387  0.0640 -1.0451
  824MOL0     H11175  10.766   4.977   4.136 -0.7663 -0.8211  0.4984
  824MOL0     H11176  10.702   4.987   4.301  0.3048 -1.7195  0.1061
  824MOL0     H11177  10.556   5.192   4.234  0.9955  0.1691 -0.5574
  824MOL0     H11178  10.603   5.162   4.070 -1.1634 -0.6838 -0.6892
  824MOL0     H11179  10.536   4.905   4.128  1.0241  0.6926  0.5087
  824MOL0     H11180  10.460   4.968   4.261 -1.2561  0.0140 -0.8608
  824MOL0     H11181  10.325   5.136   4.146  0.3596 -0.9658  2.9080
  824MOL0     H11182  10.389   5.066   3.991 -3.0456  0.9723 -0.0811
  824MOL0     H11183  10.315   4.849   4.041  0.0266  0.5489 -0.8435
  824MOL0     H11184  10.244   4.904   4.206  0.8748 -0.3838 -0.4513
  824MOL0     H11185  10.096   5.049   4.098  1.6684 -0.4549  1.5262
  824MOL0     H11186  10.153   5.022   3.940  0.3424  1.1348  0.2316
  824MOL0     H11187  10.107   4.763   3.982 -0.7429 -0.6392 -0.3773
  824MOL0     H11188  10.037   4.804   4.133  3.9121 -3.5735 -1.0587
  824MOL0     H11189   9.973   4.870   3.834  2.2866  1.1609  0.7780
  824MOL0     H11190   9.898   4.969   3.952  0.2787 -0.6492 -3.0838
  824MOL0     H11191   9.665   4.905   4.009 -1.2517  0.4148  0.6718
  824MOL0     H11192   9.425   4.637   4.010 -4.5159  3.4992 -0.4246
  824MOL0     H11193   9.434   4.806   4.000 -0.0994  0.4723 -0.0780
  824MOL0     H11194   9.452   4.642   3.750 -2.3178 -1.7723  0.7971
  824MOL0     H11195   9.445   4.816   3.764  1.1665  0.7267  1.3810
  824MOL0     H11196   9.231   4.589   3.819  0.3603  0.3321  0.4482
  824MOL0     H11197   9.241   4.712   3.689  0.1036  2.4873 -0.4078
  824MOL0     H11198   9.186   4.754   3.994  0.8640 -4.4555 -0.7724
  824MOL0     H11199   9.061   4.752   3.878 -0.6844 -1.7511  2.4552
  824MOL0     H11200   9.256   5.150   3.812  2.3157 -0.8101  1.3810
  824MOL0     H11201   9.287   5.368   3.859  0.1861 -2.0884  0.5883
  824MOL0     H11202   9.139   5.468   3.896  0.1987 -1.4222 -1.7430
  824MOL0     H11203   9.259   5.451   4.020  2.4465 -0.7962  0.7879
  824MOL0     H11204   9.037   5.503   4.396  0.6852  0.4540 -3.0831
  824MOL0     H11205   8.901   5.670   4.548 -0.0643  3.3481 -1.9253
  824MOL0     H11206   8.521   5.873   4.523 -0.6516  0.1552 -2.0318
  824MOL0     H11207   8.486   5.760   4.396 -0.9019 -1.3439  0.4262
  824MOL0     H11208   8.411   5.577   4.545  2.0473 -0.4661 -0.2087
  824MOL0     H11209   8.461   5.677   4.683  0.6152 -1.0667 -0.6389
  824MOL0     H11210   8.211   5.648   4.577 -1.6134 -0.1080  0.5939
  824MOL0     H11211   8.272   5.784   4.474 -1.7777  1.1874  1.2306
  824MOL0     H11212   8.189   5.774   4.766 -1.2419  0.1126 -1.5788
  824MOL0     H11213   8.317   5.890   4.722  1.6173 -0.5711  1.2859
  824MOL0     H11214   8.042   5.850   4.612  0.4256  0.1330  0.6167
  824MOL0     H11215   8.157   5.973   4.533  1.9657 -0.2815 -0.1276
  824MOL0     H11216   8.157   6.075   4.762  2.4976 -3.7302  0.1879
  824MOL0     H11217   8.007   6.094   4.665 -1.6131 -2.7477 -1.8506
  824MOL0     H11218   8.019   5.908   4.906 -2.6744 -1.6400  1.6125
  824MOL0     H11219   7.895   5.917   4.780 -0.0861 -0.0809  1.8616
  824MOL0     H11220   7.963   6.164   4.942 -0.2551  0.3115  0.3636
  824MOL0     H11221   7.839   6.054   4.995 -2.2611 -1.2798 -1.6192
  824MOL0     H11222   8.547   5.542   4.350  0.1974  0.8811  3.2568
  824MOL0     H11223   8.675   5.368   4.238 -0.4503  0.2689 -0.4473
  824MOL0     H11224   8.914   5.095   4.165  1.0654 -0.6394  0.3788
  824MOL0     H11225   9.008   4.905   4.048  1.5289 -0.3365  1.1581
  824MOL0     H11226  10.912   4.907   4.350  1.0940 -0.4075  0.9867
  824MOL0     H11227  11.139   4.851   4.391 -0.3364 -0.7477 -1.0601
  824MOL0     H11228  11.634   5.124   4.655  2.5498 -0.3589  0.6036
  824MOL0     H11229  11.850   5.055   4.641  2.7341  0.0306 -1.8421
  824MOL0     H11230  12.135   4.852   4.604 -0.1318  0.2313  0.3180
  824MOL0     H11231  12.049   5.006   4.616  1.4954  0.3361 -1.4281
  824MOL0     H11232  11.895   4.916   4.782 -1.5185 -0.8628 -0.6115
  824MOL0     H11233  12.059   4.851   4.822 -0.5610 -1.0509  0.4907
  824MOL0     H11234  12.026   4.655   4.754  1.4625  1.7753 -1.4495
  824MOL0     H11235  11.870   4.680   4.664  0.3467  2.8996 -1.0135
  824MOL0     H11236  11.907   4.711   4.968  4.2192  1.9505 -3.4677
  824MOL0     H11237  11.839   4.564   4.900 -4.0027  0.1551  0.7578
  824MOL0     H11238  11.523   4.841   4.903  2.6600  3.8578  3.5165
  824MOL0     H11239  11.793   4.814   4.309  1.8888  2.7260 -0.7771
  824MOL0     H11240  11.547   4.865   4.302  0.1475 -0.7761  0.7323
  825MOL0     O11241   5.909   0.927   5.538  0.0658  0.0099  0.7907
  825MOL0     C11242   6.007   0.895   5.470  0.6529  0.1491  0.1832
  825MOL0     O11243   5.999   0.830   5.345  0.1416  0.9132 -0.3298
  825MOL0     C11244   5.873   0.801   5.295 -0.5946 -0.6165 -0.2229
  825MOL0     C11245   5.825   0.667   5.312 -1.1764 -1.2169 -0.2413
  825MOL0     C11246   5.696   0.635   5.263 -1.1740 -0.6018 -0.1323
  825MOL0     C11247   5.619   0.727   5.192  0.1803 -0.2501  0.2982
  825MOL0     O11248   5.511   0.678   5.131  0.4958 -0.2287  0.0729
  825MOL0     C11249   5.469   0.740   5.008 -0.1211  1.3463  0.4818
  825MOL0     C11250   5.397   0.622   4.927  0.0502 -0.9435  0.0652
  825MOL0     C11251   5.412   0.668   4.783  0.8878  0.0765  0.7872
  825MOL0     C11252   5.514   0.585   4.701 -0.2054 -0.1901  0.0697
  825MOL0     C11253   5.535   0.658   4.570 -0.1368 -0.1827  0.5923
  825MOL0     C11254   5.666   0.738   4.573 -0.1215  0.7647 -0.1174
  825MOL0     C11255   5.710   0.829   4.454 -0.1573 -0.2150 -0.0798
  825MOL0     C11256   5.749   0.755   4.333  1.4070 -0.2937  0.2763
  825MOL0     N11257   5.627   0.718   4.256  0.5987  0.2340 -0.0052
  825MOL0     C11258   5.535   0.804   4.205 -0.0334  0.3991  0.6652
  825MOL0     C11259   5.437   0.727   4.155  1.2422 -0.1161 -1.1161
  825MOL0     C11260   5.312   0.777   4.086 -0.5245  0.5754  1.0123
  825MOL0     C11261   5.231   0.881   4.160  0.7826  0.3547 -0.6327
  825MOL0     C11262   5.104   0.923   4.084 -0.3948 -0.0028  0.6287
  825MOL0     C11263   4.994   0.823   4.050 -0.0230 -0.1250 -0.1182
  825MOL0     O11264   4.910   0.803   4.171 -0.1589  0.2756  0.8933
  825MOL0     C11265   4.813   0.705   4.174  1.4406  1.3326  0.7079
  825MOL0     C11266   4.743   0.687   4.298  0.9663 -0.2791 -0.6554
  825MOL0     C11267   4.655   0.579   4.320 -0.6113 -0.5496  0.3542
  825MOL0     C11268   4.605   0.564   4.455  0.1199  0.5919  0.1501
  825MOL0     C11269   4.630   0.488   4.208 -0.1450  0.3930 -0.2949
  825MOL0     C11270   4.550   0.368   4.214  0.3731 -0.2844 -0.8409
  825MOL0     O11271   4.593   0.261   4.132  0.2947  0.3421  0.6886
  825MOL0     C11272   4.507   0.159   4.099  0.1758  0.0932 -0.5109
  825MOL0     C11273   4.572   0.055   4.027 -0.6730  0.0325 -0.0204
  825MOL0     C11274   4.498  -0.041   3.965  0.0707 -0.3594  0.1529
  825MOL0     C11275   4.362  -0.049   3.981  0.8838  0.2426 -0.2326
  825MOL0     O11276   4.309  -0.166   3.929  1.0282  0.4266  0.5745
  825MOL0     C11277   4.294  -0.280   4.011 -0.9587 -0.5985  0.3743
  825MOL0     C11278   4.182  -0.271   4.116 -0.6208  0.7871  0.3765
  825MOL0     C11279   4.160  -0.410   4.181 -0.4767  0.4972  0.1682
  825MOL0     C11280   4.088  -0.501   4.092 -0.0253 -0.5295 -0.5838
  825MOL0     C11281   4.040  -0.622   4.179 -0.0068 -0.1455  0.2365
  825MOL0     C11282   3.970  -0.729   4.095  0.5209 -0.1080  0.3450
  825MOL0     C11283   4.083  -0.805   4.018  0.2412  0.3546  0.0882
  825MOL0     C11284   4.089  -0.955   4.064  1.0818  0.1173 -0.4910
  825MOL0    Cl11285   4.253  -1.010   4.005  0.0419  0.0935 -0.3513
  825MOL0     C11286   4.289   0.063   4.040  0.8885 -0.3246 -0.2819
  825MOL0     C11287   4.362   0.162   4.109  0.6598  0.2773  0.0944
  825MOL0     O11288   4.465   0.357   4.305 -0.2786 -0.8242 -0.2090
  825MOL0     C11289   4.691   0.516   4.078 -0.3801  0.2730  0.2073
  825MOL0     C11290   4.782   0.619   4.065 -0.7630 -0.0648 -0.4412
  825MOL0     N11291   5.462   0.595   4.193 -0.3285  0.6345 -0.1691
  825MOL0     N11292   5.578   0.594   4.253 -0.2731  0.4973  0.5129
  825MOL0     C11293   5.676   0.851   5.168  0.7549  0.4563  0.1147
  825MOL0     C11294   5.800   0.893   5.222  0.5686 -0.1406  0.2343
  825MOL0     C11295   6.137   0.942   5.528  0.7408  0.1503 -0.1463
  825MOL0     C11296   6.244   0.957   5.450 -0.5038  0.6498  0.4891
  825MOL0     C11297   6.369   0.998   5.492  0.0090  0.3286 -0.2588
  825MOL0     C11298   6.383   1.049   5.628 -0.3133 -0.5564  0.0063
  825MOL0     O11299   6.510   1.074   5.688  0.3625 -0.0971 -0.2161
  825MOL0     C11300   6.623   1.074   5.602  0.5889  0.0932  0.5542
  825MOL0     C11301   6.743   1.128   5.679  0.0641  0.9835  0.9598
  825MOL0     C11302   6.867   1.098   5.595  0.6187  0.0572  0.4083
  825MOL0     C11303   6.986   1.140   5.681  0.4122  0.3764  0.4490
  825MOL0     C11304   7.109   1.142   5.599 -0.8023  0.1883  0.9052
  825MOL0     C11305   7.206   1.145   5.518  0.0170  0.3037 -0.1573
  825MOL0     C11306   6.268   1.045   5.699  0.5973 -0.0157  0.0924
  825MOL0     C11307   6.146   0.979   5.664  0.3637 -0.3160  0.4610
  825MOL0     H11308   5.886   0.591   5.362 -1.8920 -1.4057  0.3665
  825MOL0     H11309   5.650   0.540   5.289  0.3862 -1.0566  1.1378
  825MOL0     H11310   5.394   0.818   5.026 -2.7189 -1.3532  2.3838
  825MOL0     H11311   5.554   0.775   4.949 -1.0278  2.5882 -0.1114
  825MOL0     H11312   5.441   0.524   4.950  1.4391 -0.4470 -0.4018
  825MOL0     H11313   5.293   0.632   4.960 -0.6873 -2.0843 -1.7603
  825MOL0     H11314   5.313   0.655   4.739  2.0800 -0.4186 -1.9674
  825MOL0     H11315   5.439   0.773   4.772  0.5403  0.0640 -0.2945
  825MOL0     H11316   5.602   0.564   4.762 -0.1997  1.4405  0.6797
  825MOL0     H11317   5.474   0.488   4.671 -1.6100  0.8995 -1.8318
  825MOL0     H11318   5.534   0.586   4.487  1.6420  1.6746 -1.1438
  825MOL0     H11319   5.451   0.726   4.555  0.3173  1.7095  5.1575
  825MOL0     H11320   5.664   0.807   4.659  1.8565 -1.3606  1.7762
  825MOL0     H11321   5.744   0.662   4.583  1.4274  2.2337 -0.5044
  825MOL0     H11322   5.634   0.906   4.437 -1.3647 -1.1203  0.9712
  825MOL0     H11323   5.799   0.879   4.494 -1.2707  2.1371 -0.3640
  825MOL0     H11324   5.819   0.672   4.349  1.5532  0.0239  1.4405
  825MOL0     H11325   5.810   0.826   4.276  0.3663  0.1362 -0.3132
  825MOL0     H11326   5.547   0.911   4.199  1.7856  0.1513 -1.0140
  825MOL0     H11327   5.354   0.818   3.994  2.9869 -3.6379  0.3951
  825MOL0     H11328   5.247   0.691   4.064 -1.2651  1.3301  0.1983
  825MOL0     H11329   5.298   0.962   4.191 -0.1090  0.7967  0.2090
  825MOL0     H11330   5.191   0.831   4.249 -0.8465  0.1345 -1.4489
  825MOL0     H11331   5.138   0.980   3.997  3.5316 -2.9718 -0.0126
  825MOL0     H11332   5.053   1.006   4.135 -2.8250 -1.8196  1.3188
  825MOL0     H11333   5.043   0.732   4.015  3.5413  0.3417  2.8982
  825MOL0     H11334   4.941   0.857   3.961 -0.9372 -1.0166  0.0792
  825MOL0     H11335   4.775   0.753   4.378 -1.3589 -0.5190  0.5438
  825MOL0     H11336   4.595   0.457   4.474  3.1050 -0.5034 -3.2977
  825MOL0     H11337   4.690   0.599   4.515 -0.3586  0.9618  0.6213
  825MOL0     H11338   4.517   0.625   4.481 -2.1141 -2.1030 -0.6551
  825MOL0     H11339   4.681   0.059   4.025 -0.6859  0.3235 -0.2926
  825MOL0     H11340   4.541  -0.123   3.909  1.3377 -2.5507  3.9144
  825MOL0     H11341   4.287  -0.359   3.936 -0.5565 -0.4229  0.1451
  825MOL0     H11342   4.385  -0.297   4.069 -0.2201 -2.9998 -1.3333
  825MOL0     H11343   4.221  -0.209   4.198 -0.5444 -1.7553  2.3932
  825MOL0     H11344   4.091  -0.230   4.072  0.4048  0.5958 -2.0924
  825MOL0     H11345   4.115  -0.391   4.279 -1.4654  3.5500 -0.7564
  825MOL0     H11346   4.259  -0.453   4.200 -0.0659  2.0854  1.9055
  825MOL0     H11347   4.016  -0.453   4.026  3.7109  1.8949 -3.2781
  825MOL0     H11348   4.163  -0.545   4.026  0.3516  1.0506 -1.2367
  825MOL0     H11349   3.986  -0.596   4.271  1.6831  1.1975  0.8877
  825MOL0     H11350   4.122  -0.678   4.225 -0.6420 -3.9595 -2.7714
  825MOL0     H11351   3.918  -0.801   4.159 -0.0414 -0.6262 -0.6588
  825MOL0     H11352   3.890  -0.684   4.035 -2.5765  0.3935  4.4162
  825MOL0     H11353   4.180  -0.755   4.031  0.0740  0.8402 -0.4741
  825MOL0     H11354   4.067  -0.783   3.912  1.8150 -0.2696 -0.2986
  825MOL0     H11355   4.004  -1.015   4.028  0.7322 -1.8109  3.0846
  825MOL0     H11356   4.080  -0.973   4.171  1.3887 -2.8040 -0.8602
  825MOL0     H11357   4.181   0.055   4.040  1.0327 -3.2312 -0.0167
  825MOL0     H11358   4.310   0.238   4.166  1.9541  2.0881 -1.0593
  825MOL0     H11359   4.664   0.451   3.995 -0.8426  1.8032 -0.8986
  825MOL0     H11360   4.832   0.627   3.969  0.0813 -0.9966 -0.1034
  825MOL0     H11361   5.621   0.927   5.112 -1.8783 -0.7066  0.9339
  825MOL0     H11362   5.830   0.997   5.215 -2.6356  0.8726 -0.0801
  825MOL0     H11363   6.225   0.921   5.350  3.4157 -1.7865  0.4103
  825MOL0     H11364   6.448   0.993   5.417 -1.8992  0.5284 -2.3749
  825MOL0     H11365   6.646   0.970   5.576  1.7942  0.7783 -1.3322
  825MOL0     H11366   6.600   1.135   5.514 -0.5026  0.8568  1.3486
  825MOL0     H11367   6.763   1.067   5.768 -2.1884  2.3267  2.4943
  825MOL0     H11368   6.726   1.231   5.709 -2.1117  0.7622  0.6701
  825MOL0     H11369   6.865   1.151   5.500  0.5813 -1.9214 -0.7493
  825MOL0     H11370   6.867   0.992   5.566  0.2869  0.4925 -1.2556
  825MOL0     H11371   6.999   1.072   5.765 -0.8886 -1.2587 -0.6099
  825MOL0     H11372   6.962   1.238   5.723 -0.1747  0.4028  0.0544
  825MOL0     H11373   7.289   1.164   5.452  0.2404 -1.6023 -0.4830
  825MOL0     H11374   6.253   1.073   5.803 -1.3821 -0.5086 -0.0147
  825MOL0     H11375   6.055   0.979   5.724 -0.4522  0.6318 -0.7299
  826MOL0     O11376   8.627  10.783  10.959 -0.4602  0.4652 -0.3984
  826MOL0     C11377   8.622  10.818  10.842 -1.2895  0.6795 -0.9283
  826MOL0     O11378   8.511  10.845  10.769  0.0931  0.9144  0.1362
  826MOL0     C11379   8.388  10.842  10.828 -0.4886  0.8180 -0.7317
  826MOL0     C11380   8.283  10.942  10.800 -0.1681 -0.2110 -0.9213
  826MOL0     C11381   8.161  10.935  10.850  0.2063 -0.3371  0.6046
  826MOL0     C11382   8.120  10.822  10.927 -1.1644 -0.0062 -0.0235
  826MOL0     O11383   7.988  10.804  10.961 -0.0292  0.2318 -0.1391
  826MOL0     C11384   7.946  10.669  10.989 -0.4727  0.5946 -0.6818
  826MOL0     C11385   7.790  10.691  11.009  0.1734  1.0158  0.1443
  826MOL0     C11386   7.731  10.554  11.003  0.1375 -0.3844 -0.0567
  826MOL0     C11387   7.580  10.552  11.055 -0.7512 -0.2556  0.3606
  826MOL0     C11388   7.520  10.413  11.060 -0.8427  0.2184 -0.7817
  826MOL0     C11389   7.575  10.320  11.180 -0.2219 -0.1595 -0.9843
  826MOL0     C11390   7.507  10.361  11.310 -0.5038  1.1081 -0.4688
  826MOL0     C11391   7.411  10.248  11.373  0.4561 -0.9701 -0.4700
  826MOL0     N11392   7.298  10.228  11.275 -0.2103 -0.7911 -0.6259
  826MOL0     C11393   7.196  10.323  11.254  0.2697 -0.8756 -0.1155
  826MOL0     C11394   7.097  10.261  11.185 -0.3948 -0.3541 -0.4798
  826MOL0     C11395   6.975  10.322  11.121 -0.2145 -1.0366 -0.3165
  826MOL0     C11396   6.839  10.309  11.199 -0.9432  0.6173 -0.8159
  826MOL0     C11397   6.729  10.391  11.129  0.7462 -0.1549 -0.2267
  826MOL0     C11398   6.727  10.537  11.161  0.1017  0.2385 -0.1932
  826MOL0     O11399   6.624  10.618  11.102 -0.3133 -0.0862 -0.0612
  826MOL0     C11400   6.503  10.635  11.163  0.1976 -0.1175  0.1111
  826MOL0     C11401   6.493  10.701  11.285 -0.4420 -0.1950 -0.4880
  826MOL0     C11402   6.368  10.728  11.346 -0.6449  0.0441 -0.1794
  826MOL0     C11403   6.384  10.809  11.481 -1.0078  0.0929  0.2524
  826MOL0     C11404   6.250  10.691  11.293  0.4967  0.8240  0.6011
  826MOL0     C11405   6.114  10.726  11.352  0.7519  0.0515  0.9518
  826MOL0     O11406   6.094  10.839  11.432 -0.3109 -0.3271 -0.0299
  826MOL0     C11407   5.979  10.863  11.505 -0.0359 -0.7591 -0.5863
  826MOL0     C11408   5.991  10.981  11.575  0.8107 -0.8142 -0.9250
  826MOL0     C11409   5.885  11.028  11.662 -0.6836 -0.3896  0.2328
  826MOL0     C11410   5.758  10.965  11.673 -0.1455 -1.0963 -0.3860
  826MOL0     O11411   5.664  11.038  11.747 -0.2228  0.2857 -0.4108
  826MOL0     C11412   5.531  11.011  11.724  0.1467 -0.0356  0.1153
  826MOL0     C11413   5.459  11.088  11.830 -0.6436 -0.1106 -0.0508
  826MOL0     C11414   5.469  11.039  11.980  0.3377 -0.0395 -0.1723
  826MOL0     C11415   5.418  11.149  12.067 -0.0875 -0.3730  0.1476
  826MOL0     C11416   5.404  11.110  12.212 -0.5189 -0.5421  0.0640
  826MOL0     C11417   5.388  11.224  12.309 -0.2358  0.0557  0.0417
  826MOL0     C11418   5.386  11.183  12.455  0.4141 -0.2806  0.1676
  826MOL0     C11419   5.316  11.277  12.554 -0.4836  0.3711 -0.7213
  826MOL0    Cl11420   5.259  11.172  12.694  0.0742  0.6699 -0.3659
  826MOL0     C11421   5.750  10.839  11.601  0.1779 -0.4652  0.3474
  826MOL0     C11422   5.862  10.789  11.533 -0.1310 -0.2793 -0.4003
  826MOL0     O11423   6.020  10.654  11.311  0.7608  1.1039  0.4768
  826MOL0     C11424   6.259  10.616  11.166  0.0612 -0.5905  0.4607
  826MOL0     C11425   6.384  10.591  11.103  0.8634 -1.0459 -0.8004
  826MOL0     N11426   7.144  10.135  11.156 -0.3044 -0.4770 -0.9753
  826MOL0     N11427   7.262  10.116  11.202 -0.1554 -0.1046 -0.5346
  826MOL0     C11428   8.218  10.719  10.949 -0.7309 -1.0534  0.2511
  826MOL0     C11429   8.349  10.727  10.904  0.4719 -0.4009  0.2235
  826MOL0     C11430   8.755  10.820  10.764 -0.6643  0.6681 -0.4555
  826MOL0     C11431   8.876  10.758  10.820  0.1767  0.2586  0.4323
  826MOL0     C11432   8.998  10.759  10.755 -0.4885 -0.2248 -0.2526
  826MOL0     C11433   9.009  10.817  10.624  0.4129  0.3110 -0.1365
  826MOL0     O11434   9.116  10.814  10.543  0.7356  0.1961 -0.0774
  826MOL0     C11435   9.235  10.764  10.603 -0.6835 -0.0995  0.6839
  826MOL0     C11436   9.349  10.818  10.513 -0.6804  0.2535 -0.3196
  826MOL0     C11437   9.490  10.752  10.552 -0.0141 -0.3563 -0.1427
  826MOL0     C11438   9.602  10.775  10.461  0.0528  0.9237  0.1976
  826MOL0     C11439   9.667  10.910  10.481  0.1785 -0.2262  0.6490
  826MOL0     C11440   9.726  11.013  10.522  0.3706  0.4534 -0.3208
  826MOL0     C11441   8.892  10.868  10.564 -0.3406  0.4064  0.6166
  826MOL0     C11442   8.777  10.882  10.637 -1.1198 -1.1934 -0.1423
  826MOL0     H11443   8.307  11.025  10.735 -0.0753  0.5160  0.0261
  826MOL0     H11444   8.096  11.019  10.832 -1.5764 -0.8997  3.7845
  826MOL0     H11445   7.982  10.602  10.911  3.0033  0.6994  0.6737
  826MOL0     H11446   7.992  10.639  11.083  0.2779  1.2084 -0.8450
  826MOL0     H11447   7.777  10.722  11.113  1.5638  0.8185  0.3990
  826MOL0     H11448   7.751  10.763  10.936 -1.0564  0.3823  0.1683
  826MOL0     H11449   7.744  10.513  10.903 -2.7073  0.9663 -1.0934
  826MOL0     H11450   7.775  10.484  11.074 -0.3920 -1.1457 -0.4671
  826MOL0     H11451   7.562  10.602  11.151 -0.8177  1.9948 -0.7366
  826MOL0     H11452   7.530  10.617  10.982  0.3732 -1.0263 -1.1468
  826MOL0     H11453   7.411  10.424  11.064 -0.8649 -0.2477  0.2626
  826MOL0     H11454   7.551  10.350  10.976  1.7682 -0.5193  0.6272
  826MOL0     H11455   7.562  10.213  11.159  0.0939 -1.0590  2.6260
  826MOL0     H11456   7.683  10.332  11.181 -0.0384 -1.6372 -0.5643
  826MOL0     H11457   7.583  10.365  11.388 -0.3010 -0.1286 -0.5830
  826MOL0     H11458   7.463  10.460  11.292  0.6561  1.3959 -1.8924
  826MOL0     H11459   7.366  10.283  11.466 -1.8306  0.9281 -2.1563
  826MOL0     H11460   7.466  10.154  11.383  3.9568  1.0650  1.2949
  826MOL0     H11461   7.192  10.426  11.287 -2.6251 -0.2209 -2.1166
  826MOL0     H11462   7.004  10.428  11.111  0.2853 -1.1204  0.2144
  826MOL0     H11463   6.962  10.278  11.022 -2.2395 -1.9187  0.2906
  826MOL0     H11464   6.839  10.321  11.308 -1.0757 -0.5812 -0.6765
  826MOL0     H11465   6.807  10.206  11.180 -0.7334  0.7247 -1.8383
  826MOL0     H11466   6.635  10.343  11.157  0.9090  0.3643  1.2878
  826MOL0     H11467   6.738  10.369  11.023  1.9463 -2.4268  0.2742
  826MOL0     H11468   6.823  10.579  11.129 -1.3673  2.0519 -2.5368
  826MOL0     H11469   6.722  10.543  11.271 -0.9397 -1.8743 -0.0896
  826MOL0     H11470   6.587  10.739  11.324 -2.3774  6.3321 -1.0639
  826MOL0     H11471   6.337  10.746  11.557 -1.4079 -2.0563 -1.6826
  826MOL0     H11472   6.489  10.833  11.499 -0.6738 -1.5001  0.5294
  826MOL0     H11473   6.320  10.898  11.477 -3.6981 -1.6736  1.1171
  826MOL0     H11474   6.085  11.034  11.563  0.3759  0.4845  0.8736
  826MOL0     H11475   5.889  11.120  11.719 -0.8476 -0.1796 -0.0873
  826MOL0     H11476   5.487  11.046  11.630 -0.5878 -1.9506 -0.3123
  826MOL0     H11477   5.498  10.907  11.730 -2.4906  0.8010  2.3645
  826MOL0     H11478   5.502  11.188  11.818 -2.0266  0.4338 -0.5634
  826MOL0     H11479   5.355  11.086  11.797 -0.6060 -0.8440 -0.1544
  826MOL0     H11480   5.573  11.027  12.011  0.9870  1.9241 -1.3545
  826MOL0     H11481   5.413  10.949  12.005 -1.6116  1.7009  2.1423
  826MOL0     H11482   5.497  11.223  12.081 -1.0428  0.6305  0.3189
  826MOL0     H11483   5.322  11.188  12.033 -1.1023 -0.6283  2.5011
  826MOL0     H11484   5.487  11.044  12.240 -0.5294 -1.2632 -1.4959
  826MOL0     H11485   5.311  11.054  12.204 -1.0262  0.5440 -4.1372
  826MOL0     H11486   5.474  11.290  12.297 -0.0927  0.1315  1.2773
  826MOL0     H11487   5.306  11.294  12.291  0.2876  1.3361  2.2325
  826MOL0     H11488   5.487  11.167  12.497  0.9938 -1.5832 -1.5810
  826MOL0     H11489   5.336  11.085  12.460 -0.9489  0.2193 -2.3960
  826MOL0     H11490   5.231  11.335  12.516 -0.2468  1.4067  0.2715
  826MOL0     H11491   5.389  11.350  12.590 -0.2403  0.0395 -0.5368
  826MOL0     H11492   5.655  10.786  11.596 -1.3730  2.1533  0.0496
  826MOL0     H11493   5.870  10.687  11.497 -0.5480 -0.8663  1.1072
  826MOL0     H11494   6.168  10.576  11.122 -1.2424  0.4864  2.0703
  826MOL0     H11495   6.396  10.534  11.011  2.8173 -1.6867 -0.2065
  826MOL0     H11496   8.202  10.624  10.999  2.5174 -2.1950 -0.6109
  826MOL0     H11497   8.409  10.638  10.919 -1.2015 -1.5836  0.1722
  826MOL0     H11498   8.862  10.705  10.914  0.5337  0.1882  0.4452
  826MOL0     H11499   9.079  10.695  10.788 -2.6563 -2.2038  1.5547
  826MOL0     H11500   9.257  10.809  10.700 -0.5453 -1.3953  1.2814
  826MOL0     H11501   9.230  10.655  10.615 -3.4723 -0.2227 -0.8122
  826MOL0     H11502   9.361  10.926  10.528  0.3006 -0.0923  1.7165
  826MOL0     H11503   9.325  10.801  10.407  0.5915  0.3914 -0.6489
  826MOL0     H11504   9.468  10.646  10.566 -2.1896  0.0180 -0.3042
  826MOL0     H11505   9.521  10.787  10.651 -2.0308  0.3600  0.2960
  826MOL0     H11506   9.565  10.757  10.359  3.1136 -2.8132 -0.4891
  826MOL0     H11507   9.676  10.695  10.476 -0.7858  0.3373  1.4015
  826MOL0     H11508   9.784  11.097  10.555  0.7418 -0.0201  0.2463
  826MOL0     H11509   8.897  10.916  10.466  0.0043  1.8701  1.3295
  826MOL0     H11510   8.687  10.927  10.595 -0.0817  0.8599 -0.3036
  827MOL0     O11511   2.214   3.802  10.104  0.1861 -0.5155 -0.2667
  827MOL0     C11512   2.277   3.905  10.083 -0.0951  0.0781  0.0761
  827MOL0     O11513   2.261   3.995   9.973  0.0576 -0.0519  0.6879
  827MOL0     C11514   2.156   3.977   9.882 -0.6243 -0.5465  0.8748
  827MOL0     C11515   2.037   3.901   9.888  0.6176 -0.3223  0.4907
  827MOL0     C11516   1.942   3.883   9.791  0.6647 -0.1783  0.6646
  827MOL0     C11517   1.963   3.945   9.666 -0.2684 -0.6793  0.9576
  827MOL0     O11518   1.880   3.932   9.554  0.1508 -0.8983 -0.3880
  827MOL0     C11519   1.761   3.858   9.573 -0.6875  0.5066  0.1874
  827MOL0     C11520   1.670   3.895   9.451 -0.0691  0.0219  0.2579
  827MOL0     C11521   1.734   3.861   9.317 -0.0345 -0.5562  0.1063
  827MOL0     C11522   1.764   3.712   9.304  0.0484 -1.0434 -0.5076
  827MOL0     C11523   1.835   3.686   9.166  0.2218  0.9338  0.9809
  827MOL0     C11524   1.840   3.542   9.112  0.3863 -0.6616 -1.1000
  827MOL0     C11525   1.962   3.456   9.151  0.4753  0.6592 -0.5312
  827MOL0     C11526   1.940   3.310   9.141  0.1647  0.2044 -0.8906
  827MOL0     N11527   1.848   3.291   9.032 -0.4548  0.0479  0.0685
  827MOL0     C11528   1.715   3.267   9.035 -0.3778 -0.5223  0.6399
  827MOL0     C11529   1.667   3.289   8.911 -0.6336  1.1055 -0.2152
  827MOL0     C11530   1.527   3.302   8.862  0.3421 -0.1297 -0.7744
  827MOL0     C11531   1.437   3.384   8.966  0.2583 -0.2369  0.1054
  827MOL0     C11532   1.481   3.523   9.006 -0.3639 -0.9867 -0.2419
  827MOL0     C11533   1.361   3.615   9.042  0.0300 -0.2546 -0.2727
  827MOL0     O11534   1.297   3.568   9.154 -0.1023  0.0184  0.3518
  827MOL0     C11535   1.187   3.645   9.194  0.1965 -0.4621 -0.1536
  827MOL0     C11536   1.124   3.607   9.312  0.4568  0.1957  0.2519
  827MOL0     C11537   1.007   3.658   9.366  0.2749 -0.1302 -1.3902
  827MOL0     C11538   0.945   3.570   9.477  0.1037  0.2675 -0.1576
  827MOL0     C11539   0.956   3.776   9.310 -0.4999 -0.3012 -0.0152
  827MOL0     C11540   0.842   3.862   9.359  0.2765  0.3574 -0.5332
  827MOL0     O11541   0.758   3.808   9.455  0.1991  0.1512  0.2432
  827MOL0     C11542   0.645   3.875   9.479  0.7442  0.5326 -0.1713
  827MOL0     C11543   0.630   3.922   9.608  0.1579 -0.9957 -1.1449
  827MOL0     C11544   0.520   3.995   9.648  0.4018  0.7048  0.4988
  827MOL0     C11545   0.421   4.022   9.554 -0.1598 -0.2978  0.6783
  827MOL0     O11546   0.303   4.086   9.588 -0.0137 -0.3470  0.8826
  827MOL0     C11547   0.277   4.145   9.717  0.0910 -0.9634 -0.0698
  827MOL0     C11548   0.128   4.174   9.726  0.7276  0.9543 -0.9186
  827MOL0     C11549   0.105   4.323   9.744 -0.0310 -0.2587 -0.3861
  827MOL0     C11550   0.170   4.382   9.874  0.9240 -0.6748 -0.4059
  827MOL0     C11551   0.116   4.519   9.892  0.0792 -0.2864  0.5191
  827MOL0     C11552   0.157   4.587  10.028 -0.1269  0.7801  0.8077
  827MOL0     C11553   0.053   4.649  10.113 -0.0480  0.4501  0.6051
  827MOL0     C11554  -0.054   4.545  10.153 -0.6851  0.7273  0.3620
  827MOL0    Cl11555  -0.192   4.634  10.239 -0.1390  0.3546  0.2035
  827MOL0     C11556   0.431   3.975   9.424 -0.6081 -0.3734 -0.1093
  827MOL0     C11557   0.546   3.896   9.386  1.0715 -0.3905 -0.5828
  827MOL0     O11558   0.835   3.974   9.325 -0.8273  0.9613 -0.9769
  827MOL0     C11559   1.024   3.826   9.193 -0.0997 -0.0899  0.3397
  827MOL0     C11560   1.139   3.765   9.143 -0.4734 -0.2360  0.4468
  827MOL0     N11561   1.782   3.316   8.838 -0.1238  0.7667 -0.0059
  827MOL0     N11562   1.886   3.306   8.905 -0.6596 -0.0844  0.3013
  827MOL0     C11563   2.081   4.025   9.649  0.1079 -0.2101 -0.3354
  827MOL0     C11564   2.177   4.040   9.752 -0.1613  0.6456 -0.1304
  827MOL0     C11565   2.376   3.944  10.183  0.7676  0.5090 -1.1907
  827MOL0     C11566   2.404   3.861  10.301 -0.1065 -0.0896  0.5152
  827MOL0     C11567   2.486   3.913  10.400 -0.2602 -0.2956  0.1989
  827MOL0     C11568   2.568   4.025  10.390  0.4210 -0.4767  0.2077
  827MOL0     O11569   2.649   4.062  10.494 -0.2160 -0.5538 -0.0968
  827MOL0     C11570   2.747   4.173  10.470  0.2686 -0.0578  0.5308
  827MOL0     C11571   2.884   4.117  10.438 -0.2974  0.3016  0.0052
  827MOL0     C11572   2.939   4.073  10.581 -0.4229 -0.6641 -0.7846
  827MOL0     C11573   3.074   4.145  10.605  0.0444 -0.0327 -0.2119
  827MOL0     C11574   3.181   4.107  10.514 -0.0130  0.6793 -0.2407
  827MOL0     C11575   3.267   4.088  10.431 -0.0587  0.7138 -0.3665
  827MOL0     C11576   2.564   4.086  10.256  0.0559 -0.3130 -0.6304
  827MOL0     C11577   2.464   4.049  10.156 -0.0417 -0.3600 -0.1604
  827MOL0     H11578   2.013   3.847   9.979 -1.2722  1.2960  1.0063
  827MOL0     H11579   1.846   3.843   9.824  0.6733  0.4928  1.5228
  827MOL0     H11580   1.779   3.750   9.578  2.1141  0.9080  0.4694
  827MOL0     H11581   1.709   3.893   9.663  1.3703  4.3011  0.0904
  827MOL0     H11582   1.566   3.864   9.460 -0.3841  0.4319 -1.6216
  827MOL0     H11583   1.669   4.005   9.449  1.5861  0.0694  0.5530
  827MOL0     H11584   1.662   3.875   9.236  0.8426 -4.4560 -1.6272
  827MOL0     H11585   1.819   3.928   9.300 -1.2683  0.9016 -0.5087
  827MOL0     H11586   1.829   3.687   9.388  0.2587  0.4094 -0.2115
  827MOL0     H11587   1.669   3.657   9.305 -1.6749  1.5636 -3.4447
  827MOL0     H11588   1.766   3.735   9.097 -0.4451  0.0724  1.0201
  827MOL0     H11589   1.927   3.745   9.156  0.3429  0.6194  0.1420
  827MOL0     H11590   1.760   3.493   9.167  1.1843  0.0360  0.7573
  827MOL0     H11591   1.829   3.535   9.003  1.6895 -2.9892 -1.1530
  827MOL0     H11592   2.033   3.479   9.071 -0.7029 -0.8355 -2.0728
  827MOL0     H11593   2.004   3.477   9.250  1.5458 -0.8212 -0.6454
  827MOL0     H11594   1.887   3.270   9.227 -2.3274  1.3143 -1.8321
  827MOL0     H11595   2.028   3.245   9.136  0.4656  0.2736  2.1659
  827MOL0     H11596   1.659   3.239   9.123 -1.0988 -2.5554 -0.4016
  827MOL0     H11597   1.525   3.354   8.766 -2.3205  0.8209 -0.3095
  827MOL0     H11598   1.479   3.204   8.864 -1.0171  0.3933  3.8231
  827MOL0     H11599   1.438   3.332   9.063 -1.5050  1.2340  0.9680
  827MOL0     H11600   1.334   3.380   8.932  0.1075  0.0974  0.5161
  827MOL0     H11601   1.547   3.569   8.932 -0.3039 -0.0122  0.4149
  827MOL0     H11602   1.539   3.517   9.098 -0.8713 -1.9799  0.0365
  827MOL0     H11603   1.299   3.621   8.953 -0.1041 -1.0762 -0.2404
  827MOL0     H11604   1.412   3.712   9.054  2.8061 -1.0957 -3.5571
  827MOL0     H11605   1.145   3.509   9.355 -0.6911 -1.1792 -2.1342
  827MOL0     H11606   0.850   3.534   9.437  0.1155  0.1034 -0.0403
  827MOL0     H11607   1.009   3.483   9.497 -1.5219 -0.3928  2.5824
  827MOL0     H11608   0.935   3.632   9.566  1.7041 -0.0610  0.2944
  827MOL0     H11609   0.703   3.891   9.683 -0.8420 -3.6198 -1.1359
  827MOL0     H11610   0.506   4.032   9.749 -2.4584  0.9577  0.0954
  827MOL0     H11611   0.289   4.070   9.796 -2.8270  0.1464  1.5866
  827MOL0     H11612   0.352   4.220   9.743  0.7330 -1.6135 -0.0009
  827MOL0     H11613   0.077   4.137   9.636 -2.6356  1.0299  0.8129
  827MOL0     H11614   0.089   4.109   9.805  1.4827  0.9627 -0.5227
  827MOL0     H11615  -0.004   4.331   9.743 -0.1261 -0.8719 -3.2274
  827MOL0     H11616   0.139   4.390   9.665  0.4524  0.6169  0.5342
  827MOL0     H11617   0.134   4.312   9.950  1.2490 -1.5872 -1.0782
  827MOL0     H11618   0.279   4.378   9.866  0.9861 -0.5075  0.3443
  827MOL0     H11619   0.006   4.520   9.887  0.1079 -1.1184 -0.8117
  827MOL0     H11620   0.148   4.580   9.807  1.5600  0.9608  1.9190
  827MOL0     H11621   0.208   4.511  10.089 -1.8480 -1.3526 -0.2744
  827MOL0     H11622   0.227   4.666  10.000 -1.7005  1.2789 -2.1104
  827MOL0     H11623   0.002   4.737  10.073 -0.1167  0.3879  0.5536
  827MOL0     H11624   0.097   4.686  10.205 -1.4089  2.2952  0.5711
  827MOL0     H11625  -0.027   4.465  10.223  1.3018  1.4132  0.4390
  827MOL0     H11626  -0.086   4.496  10.061 -0.0250  2.2609 -0.7239
  827MOL0     H11627   0.353   4.012   9.359  2.6216  3.8376 -2.0876
  827MOL0     H11628   0.547   3.857   9.285 -0.8239  1.1497 -1.2611
  827MOL0     H11629   0.983   3.914   9.145 -0.1515 -1.0732 -1.4976
  827MOL0     H11630   1.186   3.803   9.053 -1.5948 -0.9813 -0.4843
  827MOL0     H11631   2.091   4.076   9.554 -1.1756 -0.3271 -0.5513
  827MOL0     H11632   2.269   4.096   9.738  1.8503 -1.8724  2.1159
  827MOL0     H11633   2.343   3.772  10.315 -1.8832  1.0422  0.1804
  827MOL0     H11634   2.490   3.854  10.491  3.0523  0.6703  0.8350
  827MOL0     H11635   2.711   4.250  10.402  1.9483  0.1448 -0.1742
  827MOL0     H11636   2.757   4.229  10.563  1.9792 -0.3157  0.5356
  827MOL0     H11637   2.944   4.195  10.390  0.8376 -0.6718 -0.1901
  827MOL0     H11638   2.893   4.038  10.363  2.0657 -0.6298  1.1568
  827MOL0     H11639   2.948   3.965  10.586  0.6315 -0.5787 -0.5147
  827MOL0     H11640   2.877   4.100  10.667  0.5127 -0.2024 -0.2275
  827MOL0     H11641   3.111   4.126  10.707  1.2943  1.5287 -0.3270
  827MOL0     H11642   3.065   4.254  10.606  2.2936  0.2293 -1.0846
  827MOL0     H11643   3.339   4.061  10.356 -0.3019 -1.5944  0.1365
  827MOL0     H11644   2.640   4.159  10.227  1.1925  1.1147  4.8223
  827MOL0     H11645   2.455   4.112  10.069  0.8370  3.5082  2.2996
  828MOL0     O11646  10.326   0.461   8.989 -0.2030 -0.6920  0.1634
  828MOL0     C11647  10.351   0.570   9.040 -0.0820 -0.2452 -0.5432
  828MOL0     O11648  10.250   0.653   9.089 -0.0381 -0.4675 -0.4829
  828MOL0     C11649  10.125   0.621   9.130  0.8606 -0.1525 -0.5420
  828MOL0     C11650  10.055   0.727   9.188 -0.7720 -0.1406  0.8560
  828MOL0     C11651   9.917   0.722   9.220  0.0617  0.0100 -0.0525
  828MOL0     C11652   9.842   0.605   9.192 -0.3055  0.6963  0.0110
  828MOL0     O11653   9.709   0.587   9.213  0.9318 -0.3919 -0.0647
  828MOL0     C11654   9.648   0.636   9.332  0.1589 -0.2278 -0.2223
  828MOL0     C11655   9.519   0.553   9.368  0.1528 -0.4976  0.7808
  828MOL0     C11656   9.389   0.622   9.315 -0.4091  0.7848  0.4711
  828MOL0     C11657   9.280   0.524   9.286  0.4668 -0.7746  0.4230
  828MOL0     C11658   9.151   0.608   9.237 -0.7748  0.1932 -0.1291
  828MOL0     C11659   9.170   0.667   9.098 -0.1289 -0.3749  0.1197
  828MOL0     C11660   9.034   0.677   9.038 -0.2760  0.5637  0.4645
  828MOL0     C11661   9.029   0.702   8.883  0.6859 -0.4519 -0.1628
  828MOL0     N11662   9.008   0.844   8.854  0.2961 -0.4663  0.7330
  828MOL0     C11663   8.926   0.880   8.756  0.2979  0.5082  0.4025
  828MOL0     C11664   8.926   1.012   8.748 -0.0177  0.4180 -0.2352
  828MOL0     C11665   8.846   1.095   8.651  0.1524 -0.0992  0.6960
  828MOL0     C11666   8.904   1.240   8.640  0.6581 -0.3293  0.3710
  828MOL0     C11667   8.820   1.315   8.543 -0.5911  0.1597 -0.2831
  828MOL0     C11668   8.881   1.302   8.397  0.5030 -0.1384  0.4172
  828MOL0     O11669   8.820   1.395   8.303  0.6360 -0.0146  0.1259
  828MOL0     C11670   8.690   1.371   8.261 -0.0008 -0.5011 -0.6188
  828MOL0     C11671   8.641   1.261   8.203  1.0470 -0.2793  0.8122
  828MOL0     C11672   8.506   1.250   8.164 -0.3504 -0.2276 -0.4546
  828MOL0     C11673   8.461   1.117   8.118  0.6613 -0.3936 -0.4832
  828MOL0     C11674   8.425   1.369   8.159  0.2332  0.2938  0.8531
  828MOL0     C11675   8.285   1.373   8.090 -0.5103 -0.1207 -1.1376
  828MOL0     O11676   8.205   1.477   8.126  0.0431 -0.5290  0.0498
  828MOL0     C11677   8.106   1.520   8.042 -0.0829  0.0581  0.6503
  828MOL0     C11678   8.108   1.517   7.901  0.3187 -0.3675 -0.7067
  828MOL0     C11679   8.005   1.565   7.817  0.1399  0.9795 -1.0093
  828MOL0     C11680   7.892   1.627   7.878  0.5826  0.2023 -0.1264
  828MOL0     O11681   7.790   1.670   7.789  0.5786  0.5551  0.3672
  828MOL0     C11682   7.652   1.665   7.841  0.0544 -0.3561  0.8948
  828MOL0     C11683   7.552   1.674   7.729 -0.0224  0.2722  0.3440
  828MOL0     C11684   7.586   1.795   7.646  1.0132  0.2385 -0.7664
  828MOL0     C11685   7.478   1.798   7.537  0.7279  0.5365  0.4227
  828MOL0     C11686   7.333   1.855   7.567 -0.5500 -0.1352 -0.1959
  828MOL0     C11687   7.331   1.964   7.676  1.0403  0.0725  0.1157
  828MOL0     C11688   7.192   2.035   7.673 -0.7166 -0.1447 -0.0320
  828MOL0     C11689   7.165   2.086   7.814  0.0771  0.3312 -0.1199
  828MOL0    Cl11690   7.013   2.184   7.811  0.0885 -0.2746  0.1729
  828MOL0     C11691   7.886   1.634   8.015 -0.4458 -0.3899 -0.0604
  828MOL0     C11692   7.988   1.581   8.099 -0.7591 -0.5195 -0.8790
  828MOL0     O11693   8.255   1.287   8.013  0.1953 -0.0983  0.5164
  828MOL0     C11694   8.476   1.481   8.222 -0.4497  0.1512  1.0156
  828MOL0     C11695   8.610   1.485   8.267 -0.2466  0.6861  1.0211
  828MOL0     N11696   9.024   1.054   8.824 -0.4922  0.2609 -0.6243
  828MOL0     N11697   9.082   0.953   8.894 -0.0415  0.1044  0.3426
  828MOL0     C11698   9.916   0.493   9.129  0.5068  0.4742  0.1051
  828MOL0     C11699  10.052   0.501   9.107 -0.1559 -1.1491  0.2926
  828MOL0     C11700  10.495   0.618   9.032 -0.4734 -0.7865 -0.7948
  828MOL0     C11701  10.542   0.727   9.114 -0.4816  1.3260 -0.1022
  828MOL0     C11702  10.673   0.776   9.103  0.0870  0.3637  0.0505
  828MOL0     C11703  10.763   0.710   9.022 -0.0780  0.7390  0.4068
  828MOL0     O11704  10.878   0.780   8.973  0.5180 -0.1646  0.1308
  828MOL0     C11705  10.989   0.793   9.067  0.3811 -0.9916 -0.9208
  828MOL0     C11706  11.109   0.717   9.016  0.5817 -0.2455 -0.0854
  828MOL0     C11707  11.082   0.566   9.017 -0.3436  0.6122 -0.3730
  828MOL0     C11708  11.125   0.489   9.150 -0.2314  0.7374  0.2220
  828MOL0     C11709  11.268   0.513   9.173  0.5990  0.2988 -0.3122
  828MOL0     C11710  11.374   0.555   9.203 -0.8481  0.3484  0.9499
  828MOL0     C11711  10.717   0.606   8.941 -0.3501  0.7573  0.1413
  828MOL0     C11712  10.585   0.560   8.945  0.7175  0.9639 -0.6081
  828MOL0     H11713  10.117   0.812   9.214 -1.1526  0.2789  0.4293
  828MOL0     H11714   9.872   0.811   9.262 -0.0105  0.3674 -0.8533
  828MOL0     H11715   9.726   0.636   9.408  1.8408 -0.4202 -1.8686
  828MOL0     H11716   9.610   0.736   9.307 -0.4754 -1.0166 -2.7930
  828MOL0     H11717   9.528   0.454   9.324  2.4517 -0.1379  0.2885
  828MOL0     H11718   9.513   0.545   9.477  1.5822 -0.3986  0.8888
  828MOL0     H11719   9.363   0.705   9.382 -0.3857  1.2243 -0.0651
  828MOL0     H11720   9.424   0.643   9.214  0.8288 -2.4725  0.0882
  828MOL0     H11721   9.298   0.482   9.187 -1.0797  0.6595 -0.5294
  828MOL0     H11722   9.266   0.451   9.366  1.4888 -3.0674 -1.3761
  828MOL0     H11723   9.061   0.546   9.245  0.3136 -1.2146  2.5200
  828MOL0     H11724   9.135   0.691   9.307  1.8620  0.7312 -0.0830
  828MOL0     H11725   9.212   0.767   9.115  1.1097 -0.9273  0.4042
  828MOL0     H11726   9.233   0.611   9.029 -0.0500  0.7226 -0.7383
  828MOL0     H11727   8.992   0.576   9.042 -2.6940  1.3346 -2.2881
  828MOL0     H11728   8.971   0.741   9.101 -3.0764 -1.7782  0.2620
  828MOL0     H11729   8.933   0.655   8.863 -0.7620  0.9505  2.8572
  828MOL0     H11730   9.115   0.661   8.829  2.4617  0.6334  1.7111
  828MOL0     H11731   8.868   0.816   8.689  1.8346 -1.7957  1.1609
  828MOL0     H11732   8.851   1.045   8.554  0.9708  0.5222  0.4082
  828MOL0     H11733   8.740   1.098   8.680 -1.2605 -3.3238 -3.1432
  828MOL0     H11734   9.011   1.250   8.616 -0.1178  3.1773 -2.6167
  828MOL0     H11735   8.897   1.284   8.740 -1.4038 -1.6473  0.8506
  828MOL0     H11736   8.821   1.420   8.574 -1.0543  0.4075 -1.0812
  828MOL0     H11737   8.715   1.292   8.561  0.0012 -1.3005  1.7348
  828MOL0     H11738   8.857   1.202   8.358  0.8148 -0.6723  1.5717
  828MOL0     H11739   8.989   1.322   8.399 -0.2636  5.6977  2.0829
  828MOL0     H11740   8.700   1.171   8.195  0.3227 -0.6029 -1.4621
  828MOL0     H11741   8.532   1.040   8.148 -0.4855 -0.9534  0.8979
  828MOL0     H11742   8.365   1.087   8.160  0.9291  0.7853  1.0819
  828MOL0     H11743   8.458   1.125   8.009  0.6915  1.5044 -0.3801
  828MOL0     H11744   8.193   1.475   7.848  1.4770 -1.6174  1.9259
  828MOL0     H11745   8.015   1.554   7.709  1.3270 -2.4417 -0.6721
  828MOL0     H11746   7.643   1.568   7.891 -1.0850 -1.2624 -0.9433
  828MOL0     H11747   7.634   1.743   7.915  1.2847  3.1445 -2.1565
  828MOL0     H11748   7.567   1.586   7.666  1.0329  0.2125  0.6592
  828MOL0     H11749   7.452   1.694   7.769  0.2017  0.2312  0.9425
  828MOL0     H11750   7.677   1.774   7.588  2.3289  1.7494  0.6466
  828MOL0     H11751   7.591   1.881   7.712 -0.8541 -0.5437  0.4720
  828MOL0     H11752   7.521   1.856   7.455  1.2152  0.9829  0.9886
  828MOL0     H11753   7.463   1.695   7.503 -1.1364  0.4821  1.2501
  828MOL0     H11754   7.277   1.771   7.610 -1.3080  0.3120 -0.3025
  828MOL0     H11755   7.281   1.886   7.477 -2.4859  0.6020  1.1281
  828MOL0     H11756   7.352   1.916   7.772  1.8625  0.0817 -0.0573
  828MOL0     H11757   7.397   2.046   7.649  1.4428  0.2288  1.5220
  828MOL0     H11758   7.116   1.960   7.648 -0.3657 -0.7293  0.6145
  828MOL0     H11759   7.184   2.121   7.606 -0.8274 -0.3307 -0.2582
  828MOL0     H11760   7.244   2.151   7.852 -0.7451  1.8418 -0.9063
  828MOL0     H11761   7.151   2.004   7.886  1.0108  1.3679  1.2908
  828MOL0     H11762   7.798   1.681   8.057 -1.1896  0.1838 -2.1234
  828MOL0     H11763   7.992   1.590   8.207  2.3533  0.0532 -0.9511
  828MOL0     H11764   8.425   1.574   8.204  1.2409  1.1072  0.9644
  828MOL0     H11765   8.653   1.577   8.305 -1.4262  0.6521  2.5735
  828MOL0     H11766   9.864   0.402   9.100 -0.3353  0.3908  1.7946
  828MOL0     H11767  10.102   0.420   9.055 -0.3810 -1.1999  0.1521
  828MOL0     H11768  10.483   0.773   9.194 -2.2867 -0.4331 -0.3373
  828MOL0     H11769  10.717   0.861   9.154 -1.2347 -0.2617  2.3773
  828MOL0     H11770  11.009   0.900   9.066 -3.4754 -0.0117  2.4117
  828MOL0     H11771  10.952   0.768   9.167  0.5011  1.2002 -0.2836
  828MOL0     H11772  11.194   0.727   9.084 -0.5343 -1.5367  1.5752
  828MOL0     H11773  11.126   0.751   8.913 -0.5735 -1.5393 -0.7282
  828MOL0     H11774  11.129   0.523   8.929 -1.2915  1.0584 -1.1161
  828MOL0     H11775  10.978   0.536   9.004 -0.0359 -1.1892  0.9963
  828MOL0     H11776  11.124   0.382   9.131  1.4080  0.3497  1.9752
  828MOL0     H11777  11.075   0.521   9.242  1.7102  1.6560  1.0238
  828MOL0     H11778  11.463   0.593   9.250 -1.6530  0.2088  2.6687
  828MOL0     H11779  10.796   0.571   8.875  0.0971  0.3784  0.8665
  828MOL0     H11780  10.554   0.489   8.869  1.1848  2.1665 -1.9824
  829MOL0     O11781  10.506   9.958   9.605  0.3816 -0.3901 -0.8460
  829MOL0     C11782  10.604   9.944   9.676  0.2278 -0.3682 -0.9477
  829MOL0     O11783  10.633  10.017   9.790  0.5303 -1.0702 -0.1840
  829MOL0     C11784  10.527  10.094   9.831 -0.2693 -0.3770 -0.1740
  829MOL0     C11785  10.495  10.217   9.763  0.5013  1.6754  0.0679
  829MOL0     C11786  10.397  10.306   9.824  0.5155  0.4329 -0.3677
  829MOL0     C11787  10.342  10.279   9.949  0.0906 -0.4954 -0.1719
  829MOL0     O11788  10.243  10.351  10.007 -0.0350 -0.3146 -0.0328
  829MOL0     C11789  10.200  10.479   9.952 -0.1711  0.0906  0.4441
  829MOL0     C11790  10.102  10.453   9.840 -0.3756 -0.1259 -0.4995
  829MOL0     C11791  10.047  10.583   9.767 -1.0865 -0.1946 -0.7628
  829MOL0     C11792  10.130  10.617   9.646 -0.7010  0.4800 -0.7468
  829MOL0     C11793  10.051  10.723   9.569  0.3577  0.8855 -0.0058
  829MOL0     C11794  10.069  10.875   9.619 -1.1623  0.1799 -0.0341
  829MOL0     C11795  10.041  10.991   9.512 -0.5925 -0.8382  0.3445
  829MOL0     C11796   9.898  10.983   9.451  0.7320 -0.0937 -0.8977
  829MOL0     N11797   9.801  11.018   9.557  0.2511 -0.5000 -0.0850
  829MOL0     C11798   9.739  11.140   9.588  0.3302 -0.0579 -0.4073
  829MOL0     C11799   9.657  11.128   9.693  0.2307  0.1673  0.3740
  829MOL0     C11800   9.578  11.232   9.769 -0.7604  0.2402  0.0475
  829MOL0     C11801   9.441  11.179   9.816  0.6140  0.2272 -0.4064
  829MOL0     C11802   9.378  11.302   9.887 -0.0050 -0.2930 -0.3555
  829MOL0     C11803   9.241  11.273   9.946 -0.0478 -0.4516  0.3644
  829MOL0     O11804   9.209  11.390  10.029  0.0998 -0.3540  0.2466
  829MOL0     C11805   9.072  11.397  10.048  0.6791  0.0579  0.3202
  829MOL0     C11806   9.010  11.298  10.122 -0.0673  0.6104  0.6082
  829MOL0     C11807   8.879  11.302  10.148  0.2679  0.0263 -0.4205
  829MOL0     C11808   8.823  11.186  10.227 -0.4704  0.2564  0.5342
  829MOL0     C11809   8.805  11.425  10.114  0.0663  0.3579  1.1466
  829MOL0     C11810   8.665  11.456  10.153 -0.0294 -1.1716  0.7665
  829MOL0     O11811   8.625  11.578  10.120  0.6208  0.0785 -0.1381
  829MOL0     C11812   8.496  11.612  10.135  0.7256  0.0825 -0.5307
  829MOL0     C11813   8.465  11.741  10.180 -0.2958  1.4803 -0.1282
  829MOL0     C11814   8.337  11.783  10.222 -1.2149  0.4150 -0.4354
  829MOL0     C11815   8.231  11.705  10.199 -0.0610  0.0965 -0.4307
  829MOL0     O11816   8.106  11.742  10.251  0.0104 -0.5010  0.5101
  829MOL0     C11817   7.985  11.695  10.180 -0.5004  0.5123 -0.6519
  829MOL0     C11818   7.969  11.713  10.023  0.1169  0.7072 -1.2215
  829MOL0     C11819   7.928  11.851   9.982  1.0275 -0.3285  0.0953
  829MOL0     C11820   7.942  11.874   9.827  0.7148 -1.3606  0.2050
  829MOL0     C11821   7.897  12.011   9.785  0.3047 -0.6723  0.2519
  829MOL0     C11822   7.886  12.041   9.630  0.1318  0.3580 -0.4050
  829MOL0     C11823   7.790  12.160   9.609  0.2596  0.4183  0.2818
  829MOL0     C11824   7.843  12.254   9.500  0.3747  0.7438  0.1041
  829MOL0    Cl11825   7.873  12.167   9.346 -0.3136 -0.1910 -0.2432
  829MOL0     C11826   8.245  11.577  10.138 -0.4744  0.4468 -0.2058
  829MOL0     C11827   8.381  11.531  10.111  0.2283  0.1064  0.2282
  829MOL0     O11828   8.605  11.367  10.207  0.2211 -0.3355 -0.3117
  829MOL0     C11829   8.874  11.520  10.031 -0.5514 -0.5109  0.3611
  829MOL0     C11830   9.004  11.506   9.998  0.4655  0.3468  0.3832
  829MOL0     N11831   9.655  10.990   9.723  0.0658  0.0714  0.2329
  829MOL0     N11832   9.733  10.929   9.640  0.9734  0.4223 -1.1144
  829MOL0     C11833  10.377  10.157  10.006  0.8823 -0.0767 -0.5107
  829MOL0     C11834  10.470  10.076   9.954  0.4797  0.0948  0.0223
  829MOL0     C11835  10.703   9.844   9.622  0.4402  0.2103  0.0161
  829MOL0     C11836  10.828   9.833   9.672  0.0169 -0.7095 -0.0445
  829MOL0     C11837  10.927   9.762   9.604  0.3209 -0.5355  0.1882
  829MOL0     C11838  10.890   9.681   9.492  0.7234 -0.2964 -0.0563
  829MOL0     O11839  10.983   9.596   9.439  0.7864 -0.4655 -0.1733
  829MOL0     C11840  11.094   9.647   9.373  0.2880  0.4379  0.3282
  829MOL0     C11841  11.189   9.533   9.323  1.1357 -0.0465 -0.4488
  829MOL0     C11842  11.316   9.595   9.274  0.2988  0.2136  0.7062
  829MOL0     C11843  11.423   9.489   9.241 -1.0292 -0.7780  0.1148
  829MOL0     C11844  11.393   9.385   9.145  0.7432 -0.7526 -0.2572
  829MOL0     C11845  11.355   9.296   9.069  0.1090  0.4141 -0.1440
  829MOL0     C11846  10.756   9.689   9.443  0.2145  0.2419  0.0177
  829MOL0     C11847  10.664   9.768   9.504  0.3007  0.9021 -0.2370
  829MOL0     H11848  10.560  10.253   9.684  1.3294  2.0368  0.8886
  829MOL0     H11849  10.383  10.401   9.774  3.2532  0.8499 -0.4956
  829MOL0     H11850  10.146  10.539  10.025 -1.4780  0.1857 -0.5499
  829MOL0     H11851  10.283  10.537   9.911  0.1475 -1.6541 -1.5478
  829MOL0     H11852  10.133  10.380   9.765  1.3052 -0.6277  0.6356
  829MOL0     H11853  10.011  10.418   9.891 -0.1839 -1.7140 -1.1868
  829MOL0     H11854   9.941  10.570   9.744 -0.4727 -1.7887 -2.9950
  829MOL0     H11855  10.055  10.664   9.840  0.8605 -1.1950  0.2195
  829MOL0     H11856  10.233  10.653   9.658 -1.2458  2.0645 -0.5425
  829MOL0     H11857  10.143  10.529   9.583 -0.1635  0.1105 -0.1286
  829MOL0     H11858  10.088  10.727   9.466 -2.3055  1.5173 -1.0233
  829MOL0     H11859   9.947  10.693   9.557  0.9810 -0.6387 -2.1353
  829MOL0     H11860  10.010  10.890   9.710 -0.9537  0.0495  0.1253
  829MOL0     H11861  10.173  10.893   9.649 -0.4021 -0.3404 -2.2010
  829MOL0     H11862  10.067  11.088   9.556  1.4695 -0.0316 -2.2997
  829MOL0     H11863  10.124  10.987   9.440  2.2549  1.7060  3.1458
  829MOL0     H11864   9.876  10.885   9.407 -0.9322  0.3900 -1.2091
  829MOL0     H11865   9.898  11.062   9.375  1.2115  0.0524 -0.7497
  829MOL0     H11866   9.761  11.232   9.535 -2.3337 -1.1831 -3.7821
  829MOL0     H11867   9.628  11.254   9.864  0.4831 -0.5692 -0.3964
  829MOL0     H11868   9.567  11.330   9.723 -2.6904 -0.5136 -1.2223
  829MOL0     H11869   9.457  11.100   9.890  1.0377 -1.1221 -1.8836
  829MOL0     H11870   9.388  11.146   9.726  2.1176  0.6844 -1.4960
  829MOL0     H11871   9.380  11.387   9.818 -1.1635 -0.0144 -0.0767
  829MOL0     H11872   9.440  11.323   9.974 -0.1764 -0.5559 -0.1672
  829MOL0     H11873   9.256  11.192  10.018 -1.4043 -1.6149 -0.6221
  829MOL0     H11874   9.169  11.256   9.865  1.1330  2.8138 -1.5847
  829MOL0     H11875   9.077  11.232  10.176  0.0732  0.5037  0.3077
  829MOL0     H11876   8.824  11.206  10.334 -0.4021  2.1173  0.2223
  829MOL0     H11877   8.722  11.167  10.189 -0.1560 -2.4439  0.8438
  829MOL0     H11878   8.867  11.089  10.203 -1.1847  0.5974 -2.6541
  829MOL0     H11879   8.554  11.803  10.189 -0.3780  2.1748 -2.9999
  829MOL0     H11880   8.331  11.877  10.276 -1.4190 -0.4253  1.0608
  829MOL0     H11881   7.968  11.591  10.209 -1.5125  0.6999 -0.5475
  829MOL0     H11882   7.899  11.733  10.236 -0.5232 -0.6598  0.1481
  829MOL0     H11883   8.067  11.696   9.977  1.4451 -0.0828  1.6530
  829MOL0     H11884   7.895  11.641   9.987 -0.5220  0.8904 -0.3160
  829MOL0     H11885   7.985  11.928  10.035  0.7892  0.8842 -1.3330
  829MOL0     H11886   7.827  11.867  10.021  1.5675  2.0945  0.6881
  829MOL0     H11887   8.051  11.872   9.811  0.9566  2.2855  0.4293
  829MOL0     H11888   7.897  11.795   9.766 -3.5291  0.2801  0.8626
  829MOL0     H11889   7.975  12.083   9.812  1.3859 -1.4430 -0.7081
  829MOL0     H11890   7.806  12.032   9.841 -1.5716 -1.6027 -2.2568
  829MOL0     H11891   7.987  12.066   9.596  1.5956 -2.1732  1.6930
  829MOL0     H11892   7.856  11.951   9.577  1.0325 -0.2222  0.0504
  829MOL0     H11893   7.779  12.211   9.705 -4.1429 -1.8064  1.2393
  829MOL0     H11894   7.689  12.122   9.592  1.1233 -3.4612  2.4779
  829MOL0     H11895   7.933  12.298   9.544 -0.2194 -0.4432  2.6936
  829MOL0     H11896   7.766  12.324   9.467 -2.0235 -1.6252  0.3180
  829MOL0     H11897   8.164  11.504  10.139  0.7913 -1.0544  1.8124
  829MOL0     H11898   8.393  11.428  10.078 -0.0188 -0.0065  0.4889
  829MOL0     H11899   8.817  11.609  10.005  0.7398  0.2835  0.1099
  829MOL0     H11900   9.066  11.580   9.948  1.2589  1.8079  3.3365
  829MOL0     H11901  10.342  10.119  10.102  1.3063  0.0926 -0.2845
  829MOL0     H11902  10.498   9.986  10.008  1.9182  0.0113 -0.8211
  829MOL0     H11903  10.859   9.893   9.757 -1.6742 -0.4410  0.4242
  829MOL0     H11904  11.024   9.752   9.653  0.9719  0.1788 -0.9000
  829MOL0     H11905  11.073   9.699   9.279 -1.9234  2.1784  1.6773
  829MOL0     H11906  11.146   9.718   9.438  1.2532 -0.2243  0.2882
  829MOL0     H11907  11.138   9.484   9.240  2.6927  0.1841 -1.6021
  829MOL0     H11908  11.207   9.468   9.410  2.2991  1.1332  0.2312
  829MOL0     H11909  11.357   9.670   9.343  0.6469  1.2508 -0.5871
  829MOL0     H11910  11.300   9.650   9.182  3.1501  0.5042  0.2787
  829MOL0     H11911  11.457   9.459   9.340  2.0488  1.6270 -0.0479
  829MOL0     H11912  11.519   9.532   9.211 -2.0443  1.3747 -0.3058
  829MOL0     H11913  11.331   9.211   9.008 -1.5272  0.3508  0.5193
  829MOL0     H11914  10.727   9.626   9.360 -0.1229 -1.1574  1.1479
  829MOL0     H11915  10.570   9.780   9.450 -0.2901  2.1775  1.0096
  830MOL0     O11916   0.996   1.363   9.187 -0.3531  0.5473  0.3633
  830MOL0     C11917   0.934   1.412   9.286  0.1881 -0.4924 -0.0932
  830MOL0     O11918   0.801   1.437   9.288  0.4747  0.2800 -0.5975
  830MOL0     C11919   0.715   1.396   9.188  0.2553  0.7601 -0.5869
  830MOL0     C11920   0.738   1.355   9.057 -0.2873  0.3996 -0.1648
  830MOL0     C11921   0.629   1.319   8.987  0.3819  0.4310  0.3439
  830MOL0     C11922   0.500   1.330   9.029 -0.5904  0.3645 -0.4228
  830MOL0     O11923   0.392   1.291   8.951  0.2308 -0.0689  0.0580
  830MOL0     C11924   0.408   1.182   8.854 -0.7474 -0.2284 -0.8135
  830MOL0     C11925   0.397   1.238   8.711  0.2778 -0.4488  0.7505
  830MOL0     C11926   0.257   1.216   8.638  1.0160 -0.9583 -0.0156
  830MOL0     C11927   0.271   1.258   8.488  0.2208  0.7912 -0.0030
  830MOL0     C11928   0.134   1.241   8.422 -0.3395  0.1480 -0.6609
  830MOL0     C11929   0.138   1.246   8.270 -0.4730 -0.0360 -0.2980
  830MOL0     C11930   0.153   1.385   8.208 -0.6669  0.2278  0.5956
  830MOL0     C11931   0.007   1.449   8.209  0.5949 -0.6917 -0.0952
  830MOL0     N11932   0.006   1.564   8.114  0.2444  0.7022  0.3493
  830MOL0     C11933   0.079   1.687   8.116  0.0899  0.5266 -0.1959
  830MOL0     C11934   0.047   1.746   7.998  0.9206  0.6773  0.7982
  830MOL0     C11935   0.091   1.873   7.938  0.3442  0.3437  0.7624
  830MOL0     C11936   0.066   2.008   8.005  0.8831  0.2536  0.8756
  830MOL0     C11937  -0.080   2.018   8.056 -0.0690  0.1190  1.2674
  830MOL0     C11938  -0.177   2.068   7.950 -0.5958  0.5505 -0.2917
  830MOL0     O11939  -0.314   2.027   7.995  0.3249  0.1066  0.0871
  830MOL0     C11940  -0.411   2.133   8.001 -0.4869 -0.0072  0.1579
  830MOL0     C11941  -0.377   2.268   8.027  1.3729 -0.9502 -0.3020
  830MOL0     C11942  -0.480   2.361   8.037 -0.5984 -0.2688  0.4717
  830MOL0     C11943  -0.430   2.501   8.049  0.8167  0.2751  0.4474
  830MOL0     C11944  -0.624   2.324   8.040 -0.1012  0.1519  0.6462
  830MOL0     C11945  -0.734   2.414   8.065  0.2910 -0.9613  0.6375
  830MOL0     O11946  -0.863   2.374   8.034  0.2031 -0.2960  0.6113
  830MOL0     C11947  -0.972   2.445   8.068  0.4122 -0.3457  0.4536
  830MOL0     C11948  -0.980   2.593   8.062 -0.5518  0.2764  0.1147
  830MOL0     C11949  -1.096   2.653   8.102 -0.5707 -0.0372  0.9842
  830MOL0     C11950  -1.207   2.576   8.136 -0.0140  0.8038 -0.4269
  830MOL0     O11951  -1.320   2.637   8.177  0.3281  0.9258  0.0532
  830MOL0     C11952  -1.453   2.597   8.127  0.4027  0.7270 -0.5341
  830MOL0     C11953  -1.563   2.650   8.220 -0.5066 -1.0065  0.0826
  830MOL0     C11954  -1.705   2.651   8.159 -0.3473 -0.0370 -0.2222
  830MOL0     C11955  -1.822   2.696   8.253  0.0540  0.5280  0.5905
  830MOL0     C11956  -1.879   2.572   8.310 -0.2128  1.2196 -0.2436
  830MOL0     C11957  -1.938   2.467   8.207  0.4170  0.6936 -0.1410
  830MOL0     C11958  -2.053   2.536   8.134  0.3595  0.7881  0.3424
  830MOL0     C11959  -2.033   2.550   7.985 -0.6773 -0.6293  0.4330
  830MOL0    Cl11960  -2.174   2.587   7.902  0.4324 -0.0619 -0.0547
  830MOL0     C11961  -1.206   2.433   8.127  0.2498  0.1728  0.0368
  830MOL0     C11962  -1.088   2.370   8.083 -0.4660 -0.0427 -0.7197
  830MOL0     O11963  -0.710   2.511   8.137 -1.4568  0.6440  0.0761
  830MOL0     C11964  -0.656   2.186   8.000  0.1411 -0.0436 -0.1231
  830MOL0     C11965  -0.548   2.094   7.985  0.4292 -0.3896 -0.0004
  830MOL0     N11966  -0.035   1.659   7.930 -0.2850 -0.0839  0.9145
  830MOL0     N11967  -0.055   1.551   7.993 -0.1716 -0.2003  0.2283
  830MOL0     C11968   0.478   1.364   9.160 -0.1068 -0.4673 -1.0905
  830MOL0     C11969   0.585   1.402   9.237 -0.2131  0.0413 -0.8672
  830MOL0     C11970   1.008   1.462   9.405 -0.0322  0.4331 -0.5715
  830MOL0     C11971   1.151   1.474   9.397 -0.1563  0.8751 -0.1808
  830MOL0     C11972   1.233   1.506   9.506 -0.7618  0.7720  0.0532
  830MOL0     C11973   1.171   1.529   9.632 -0.2056 -0.2084  0.4560
  830MOL0     O11974   1.254   1.549   9.745 -0.1942 -0.8838 -0.2136
  830MOL0     C11975   1.196   1.613   9.866  0.5524 -0.5043  0.4681
  830MOL0     C11976   1.295   1.690   9.955 -0.1318  0.3082  0.4166
  830MOL0     C11977   1.351   1.824   9.886  0.1291  0.5433  0.4726
  830MOL0     C11978   1.465   1.869   9.973  0.0971 -0.5373 -0.1348
  830MOL0     C11979   1.551   1.979   9.912 -0.4795  0.4842  0.0895
  830MOL0     C11980   1.632   2.063   9.866 -0.4978  0.4885 -0.2101
  830MOL0     C11981   1.031   1.520   9.643 -0.4400 -0.2106 -0.7424
  830MOL0     C11982   0.950   1.498   9.535 -0.1711  0.4567 -0.4021
  830MOL0     H11983   0.836   1.356   9.010 -0.9950  0.2965 -1.6744
  830MOL0     H11984   0.660   1.268   8.896 -1.1905  0.2525 -0.1260
  830MOL0     H11985   0.508   1.137   8.858  0.0172  1.4495  0.4764
  830MOL0     H11986   0.331   1.111   8.887 -1.0597  0.3474 -0.2777
  830MOL0     H11987   0.430   1.342   8.705  1.5390 -0.9263 -2.4822
  830MOL0     H11988   0.477   1.192   8.653  0.8314  0.1934  0.9925
  830MOL0     H11989   0.239   1.108   8.647  0.6739 -0.8769  0.3164
  830MOL0     H11990   0.176   1.274   8.683  2.3163 -0.5970  2.0288
  830MOL0     H11991   0.306   1.362   8.497 -0.2756  0.7433  4.3029
  830MOL0     H11992   0.350   1.202   8.437  0.3945  2.5407 -1.8370
  830MOL0     H11993   0.096   1.142   8.446  0.2840 -1.1649 -4.3607
  830MOL0     H11994   0.073   1.323   8.461  0.1949 -0.5814  1.9139
  830MOL0     H11995   0.232   1.197   8.240 -0.4582 -1.3845  1.7242
  830MOL0     H11996   0.059   1.189   8.221 -1.1135 -0.4616  1.1666
  830MOL0     H11997   0.213   1.454   8.268 -0.4456  0.5862 -0.0390
  830MOL0     H11998   0.195   1.380   8.107  0.9959 -0.8718  1.2930
  830MOL0     H11999  -0.005   1.481   8.313  1.3568 -2.8185  0.6836
  830MOL0     H12000  -0.068   1.377   8.176 -2.1117  0.8804  2.1864
  830MOL0     H12001   0.153   1.717   8.189  2.8450 -0.2496 -2.5083
  830MOL0     H12002   0.196   1.864   7.909 -0.7403 -2.9910 -2.9767
  830MOL0     H12003   0.038   1.879   7.843  1.0189  0.4305  0.3863
  830MOL0     H12004   0.089   2.091   7.937 -2.2486  0.9182  0.4493
  830MOL0     H12005   0.127   2.014   8.095  0.5280 -3.4408  1.5277
  830MOL0     H12006  -0.077   2.100   8.130 -1.0337  0.7888  0.5882
  830MOL0     H12007  -0.121   1.929   8.104 -1.2079 -1.4469 -2.2943
  830MOL0     H12008  -0.159   2.012   7.858  3.1661 -2.0754  1.7313
  830MOL0     H12009  -0.174   2.172   7.916 -2.0263  0.8746  0.4981
  830MOL0     H12010  -0.275   2.299   8.048  0.3688  0.7769  2.5223
  830MOL0     H12011  -0.392   2.536   7.952  2.0157  0.9807  1.1494
  830MOL0     H12012  -0.496   2.578   8.092  1.0130  0.5594  0.2498
  830MOL0     H12013  -0.356   2.489   8.128  0.3318 -4.1964  0.4477
  830MOL0     H12014  -0.902   2.658   8.024  1.2054 -1.3392  0.7768
  830MOL0     H12015  -1.112   2.761   8.102 -3.7340 -0.3411 -2.2758
  830MOL0     H12016  -1.464   2.645   8.029  0.0367  0.6429 -0.5358
  830MOL0     H12017  -1.472   2.489   8.128 -0.6627  0.7701  3.8130
  830MOL0     H12018  -1.560   2.594   8.313  2.3830 -2.9249 -1.0353
  830MOL0     H12019  -1.540   2.755   8.240 -2.2705 -0.7761  1.2010
  830MOL0     H12020  -1.727   2.554   8.114  0.0440  0.0660 -0.6320
  830MOL0     H12021  -1.696   2.731   8.085  1.9535  0.8394  0.9087
  830MOL0     H12022  -1.793   2.754   8.341 -2.1544 -0.3977  2.0162
  830MOL0     H12023  -1.898   2.746   8.193 -0.7612 -2.0435 -0.6716
  830MOL0     H12024  -1.958   2.592   8.383 -0.8297 -1.4311 -0.0576
  830MOL0     H12025  -1.799   2.516   8.360  0.7664  2.4292 -0.4030
  830MOL0     H12026  -1.862   2.419   8.145 -0.5343  0.9169 -1.5393
  830MOL0     H12027  -1.982   2.390   8.271  0.1569  2.7062  2.2561
  830MOL0     H12028  -2.076   2.634   8.176  0.5117  2.2825 -2.7724
  830MOL0     H12029  -2.144   2.478   8.148 -0.7672  2.5189  0.5004
  830MOL0     H12030  -1.986   2.461   7.943 -0.5692 -0.4672  0.2082
  830MOL0     H12031  -1.965   2.634   7.969 -1.4901  0.0691  0.5643
  830MOL0     H12032  -1.285   2.360   8.140  1.0772 -0.4511  1.8818
  830MOL0     H12033  -1.084   2.262   8.073 -1.9728 -0.1549 -0.4024
  830MOL0     H12034  -0.758   2.152   7.985  0.7256 -1.7608 -0.5152
  830MOL0     H12035  -0.572   1.991   7.960 -0.8563 -0.6549  2.0493
  830MOL0     H12036   0.379   1.361   9.205  0.2732 -3.2810 -0.2454
  830MOL0     H12037   0.584   1.436   9.340  2.6902 -1.0690 -0.3610
  830MOL0     H12038   1.206   1.452   9.306 -0.1411 -0.2934  0.0939
  830MOL0     H12039   1.341   1.496   9.505 -0.4508  3.1310 -2.5842
  830MOL0     H12040   1.136   1.697   9.830  0.3356  0.6750  3.3385
  830MOL0     H12041   1.128   1.547   9.921  0.4775 -1.2387 -0.4567
  830MOL0     H12042   1.369   1.617   9.990  0.9076  0.1037 -2.0254
  830MOL0     H12043   1.243   1.736  10.039  0.3187  1.4478  0.0870
  830MOL0     H12044   1.266   1.892   9.876 -0.4173 -0.2680 -0.6707
  830MOL0     H12045   1.393   1.795   9.789 -1.2158  1.2809 -0.3523
  830MOL0     H12046   1.517   1.783  10.017 -3.8432 -2.5832  0.9320
  830MOL0     H12047   1.415   1.918  10.057 -0.7246 -0.0530 -0.8829
  830MOL0     H12048   1.685   2.140   9.814  2.7774 -1.6832 -0.3597
  830MOL0     H12049   0.979   1.542   9.735 -2.2685 -1.2255 -1.4969
  830MOL0     H12050   0.842   1.500   9.550 -0.0430  0.2361  0.6103
  831MOL0     O12051  10.096   7.485   6.747 -0.0843  0.4034 -0.1020
  831MOL0     C12052  10.063   7.390   6.676  0.3921  0.5793 -1.0276
  831MOL0     O12053   9.928   7.364   6.644 -0.0599  0.1155 -0.1724
  831MOL0     C12054   9.836   7.449   6.687  0.0641  0.7794 -0.3625
  831MOL0     C12055   9.734   7.477   6.595 -0.3798  0.5391  0.3584
  831MOL0     C12056   9.634   7.562   6.627 -0.2616 -0.3965  0.8524
  831MOL0     C12057   9.627   7.624   6.749  0.4724 -1.0072  0.3490
  831MOL0     O12058   9.528   7.718   6.774 -0.3301 -0.1847  0.1999
  831MOL0     C12059   9.527   7.808   6.881 -0.2334  0.5005 -0.7009
  831MOL0     C12060   9.406   7.906   6.887 -0.4731  0.5678  0.4399
  831MOL0     C12061   9.393   7.995   6.764  0.2331 -0.3284  0.5209
  831MOL0     C12062   9.273   8.095   6.780  0.0057 -0.2758 -0.0482
  831MOL0     C12063   9.140   8.051   6.741 -0.2859 -0.1842 -0.2738
  831MOL0     C12064   9.036   8.164   6.773 -0.3813 -0.0705 -0.1863
  831MOL0     C12065   8.893   8.115   6.753 -0.6052 -0.3062  0.1471
  831MOL0     C12066   8.795   8.206   6.835  0.4779  0.1205 -0.6155
  831MOL0     N12067   8.659   8.150   6.824  0.0999 -0.2760 -0.7918
  831MOL0     C12068   8.567   8.163   6.920 -0.7520 -0.3936 -0.4689
  831MOL0     C12069   8.453   8.110   6.862 -0.5328 -0.2008  0.7374
  831MOL0     C12070   8.314   8.107   6.915  0.2148  0.2677  0.5727
  831MOL0     C12071   8.258   7.964   6.932 -0.5377  0.2878 -0.0371
  831MOL0     C12072   8.113   7.956   6.985  0.1476 -0.3922  0.5475
  831MOL0     C12073   8.045   7.816   7.020 -0.4778  0.5883  1.2677
  831MOL0     O12074   8.031   7.821   7.164 -0.5275 -0.1407 -0.1045
  831MOL0     C12075   7.915   7.770   7.212  0.5894  0.6877 -0.2286
  831MOL0     C12076   7.857   7.651   7.150  0.8608 -1.0895 -0.0129
  831MOL0     C12077   7.729   7.611   7.187  0.4965 -0.3915 -0.0217
  831MOL0     C12078   7.664   7.499   7.116  0.3976 -0.2689 -0.5058
  831MOL0     C12079   7.665   7.687   7.285  0.0063  0.6063 -0.0409
  831MOL0     C12080   7.538   7.647   7.342 -0.4181 -0.3628  0.6714
  831MOL0     O12081   7.445   7.752   7.373  0.3748  0.6431  1.2367
  831MOL0     C12082   7.332   7.712   7.452  0.2118  0.3582  0.9121
  831MOL0     C12083   7.333   7.710   7.588 -0.7444  0.5385  0.4506
  831MOL0     C12084   7.218   7.667   7.659 -0.0015  0.3694  0.0811
  831MOL0     C12085   7.102   7.630   7.586  0.6951 -0.2537 -0.6923
  831MOL0     O12086   6.984   7.612   7.650 -0.1473  0.2389 -0.3325
  831MOL0     C12087   6.979   7.474   7.693 -0.6784  0.0009 -0.6311
  831MOL0     C12088   6.847   7.438   7.757 -0.0405  0.7278  1.0578
  831MOL0     C12089   6.790   7.532   7.863  0.0045 -0.2270 -0.3002
  831MOL0     C12090   6.695   7.470   7.962  0.0614 -0.3155  0.6960
  831MOL0     C12091   6.668   7.567   8.068 -0.3883 -0.1835 -0.8551
  831MOL0     C12092   6.584   7.489   8.177 -0.0431 -0.2985  0.1041
  831MOL0     C12093   6.569   7.584   8.295 -0.4407  0.4746  0.4969
  831MOL0     C12094   6.700   7.612   8.370 -0.6099  1.0038 -1.2207
  831MOL0    Cl12095   6.651   7.676   8.526  0.2148  0.1733  0.0718
  831MOL0     C12096   7.105   7.632   7.451  0.3668  0.2981  0.4883
  831MOL0     C12097   7.217   7.678   7.378  0.7061 -0.3605 -1.3244
  831MOL0     O12098   7.522   7.526   7.359  0.8343 -0.8507  0.1114
  831MOL0     C12099   7.725   7.793   7.349 -0.6667  0.5784 -1.1110
  831MOL0     C12100   7.844   7.843   7.302 -0.5740 -0.3940 -0.3193
  831MOL0     N12101   8.481   8.084   6.728  0.1469 -0.8915  0.2806
  831MOL0     N12102   8.602   8.110   6.706  0.7256  0.5071  0.5595
  831MOL0     C12103   9.716   7.593   6.848 -0.0135 -0.4823  0.4967
  831MOL0     C12104   9.817   7.504   6.818 -0.9057  0.7510 -0.2399
  831MOL0     C12105  10.161   7.291   6.631 -0.6854  1.3435 -0.0173
  831MOL0     C12106  10.131   7.186   6.541 -0.0516  1.0665  0.9593
  831MOL0     C12107  10.228   7.096   6.498  0.5534  0.1276 -0.3565
  831MOL0     C12108  10.365   7.104   6.546  0.7969 -0.0645 -0.6830
  831MOL0     O12109  10.463   7.020   6.515 -0.7243  0.9200  0.2726
  831MOL0     C12110  10.501   7.034   6.373 -0.3390  0.7340  0.2390
  831MOL0     C12111  10.623   6.955   6.349 -0.1400 -0.7473 -0.0708
  831MOL0     C12112  10.604   6.803   6.357 -0.4113  0.0641  0.4411
  831MOL0     C12113  10.745   6.746   6.324  0.8535 -0.4211  0.5093
  831MOL0     C12114  10.747   6.603   6.315  0.0566 -0.4590 -0.6859
  831MOL0     C12115  10.718   6.489   6.293  0.2177  0.3193  0.1951
  831MOL0     C12116  10.399   7.208   6.630  0.5195  0.2888 -0.1516
  831MOL0     C12117  10.291   7.297   6.678  0.7919  0.5643  0.1134
  831MOL0     H12118   9.736   7.441   6.493 -1.9784  1.4164 -0.0203
  831MOL0     H12119   9.564   7.568   6.544  0.2507 -0.5889  0.4011
  831MOL0     H12120   9.526   7.769   6.983  2.1473 -0.2329 -0.8911
  831MOL0     H12121   9.623   7.860   6.870 -0.9020  1.9689  0.0966
  831MOL0     H12122   9.318   7.846   6.910 -0.4251  0.2647 -0.1502
  831MOL0     H12123   9.428   7.961   6.979 -2.6451 -0.9777  1.9659
  831MOL0     H12124   9.487   8.049   6.746  1.0282 -1.9558 -0.4728
  831MOL0     H12125   9.379   7.940   6.670  0.4581  1.0257 -0.3260
  831MOL0     H12126   9.280   8.134   6.882 -2.4224 -1.3427  0.5986
  831MOL0     H12127   9.297   8.186   6.723 -0.7003  0.9477  1.5218
  831MOL0     H12128   9.152   8.042   6.633  2.1454  2.6952 -0.3744
  831MOL0     H12129   9.116   7.952   6.781  1.8741 -1.3348 -1.6402
  831MOL0     H12130   9.054   8.195   6.877  1.4006 -0.1302 -0.4378
  831MOL0     H12131   9.045   8.252   6.709  0.3118 -0.0094 -0.0174
  831MOL0     H12132   8.875   8.103   6.646  3.1728  1.4858 -0.8615
  831MOL0     H12133   8.879   8.014   6.794  1.5399  0.1131  2.1289
  831MOL0     H12134   8.797   8.305   6.790  1.3507  0.5119  0.2423
  831MOL0     H12135   8.820   8.213   6.941  0.6515  0.1755 -0.6595
  831MOL0     H12136   8.580   8.209   7.017 -0.2306  2.4484 -1.7799
  831MOL0     H12137   8.314   8.159   7.011 -1.8931  0.7901  0.3576
  831MOL0     H12138   8.245   8.162   6.850  0.0126 -2.9896 -2.2504
  831MOL0     H12139   8.318   7.922   7.013 -2.9863  0.1247  1.7879
  831MOL0     H12140   8.275   7.905   6.841  0.2054  1.9163 -0.9962
  831MOL0     H12141   8.059   8.012   6.907  0.5044  1.4500  1.5573
  831MOL0     H12142   8.098   8.021   7.072 -0.6467 -0.8421  0.7530
  831MOL0     H12143   8.107   7.736   6.979 -3.0485 -1.8092  1.7630
  831MOL0     H12144   7.944   7.801   6.982 -0.1795 -2.4110  1.4713
  831MOL0     H12145   7.910   7.603   7.068  2.8640  1.9318 -0.6598
  831MOL0     H12146   7.635   7.422   7.187 -1.6763  2.0192  1.3092
  831MOL0     H12147   7.568   7.525   7.070 -0.6518  0.1157  1.7769
  831MOL0     H12148   7.738   7.452   7.051 -0.1610 -1.0245 -0.6077
  831MOL0     H12149   7.426   7.739   7.635  0.7968 -0.6299 -1.6859
  831MOL0     H12150   7.213   7.660   7.767 -1.4239  1.8680  0.1582
  831MOL0     H12151   6.997   7.422   7.598  2.1013  2.0912 -1.3686
  831MOL0     H12152   7.063   7.449   7.759 -1.0424 -1.3366 -0.6378
  831MOL0     H12153   6.773   7.453   7.678  1.8859 -3.1164 -1.8338
  831MOL0     H12154   6.846   7.331   7.782 -2.0287  0.2082 -0.8927
  831MOL0     H12155   6.737   7.618   7.822  3.5973  2.2921 -0.1857
  831MOL0     H12156   6.883   7.566   7.911  1.3687 -1.6280 -1.8510
  831MOL0     H12157   6.605   7.435   7.910  1.5615 -2.7921 -0.4494
  831MOL0     H12158   6.739   7.377   8.000 -2.3962 -2.2336 -0.8524
  831MOL0     H12159   6.618   7.656   8.029  1.4702  0.0187 -2.9612
  831MOL0     H12160   6.755   7.602   8.123 -0.9645 -1.8867  1.2578
  831MOL0     H12161   6.484   7.475   8.136 -1.0580  2.1633  1.5090
  831MOL0     H12162   6.617   7.389   8.207 -0.7469 -1.1589 -1.8476
  831MOL0     H12163   6.504   7.537   8.369 -0.6330  2.5852  1.7448
  831MOL0     H12164   6.521   7.680   8.273 -3.2987 -0.8157  0.6588
  831MOL0     H12165   6.759   7.684   8.313  4.5412 -2.4562 -0.9678
  831MOL0     H12166   6.767   7.527   8.383 -0.7978  0.9052 -0.8741
  831MOL0     H12167   7.012   7.612   7.398  0.4616 -1.3009  0.9002
  831MOL0     H12168   7.213   7.685   7.270 -1.8576 -1.2655 -1.3822
  831MOL0     H12169   7.664   7.841   7.424  0.7288  5.2140 -2.6176
  831MOL0     H12170   7.884   7.938   7.336  1.4901 -1.4630  0.4423
  831MOL0     H12171   9.694   7.630   6.948  1.6213  1.9959  0.0192
  831MOL0     H12172   9.881   7.476   6.901  0.9881  0.8205 -1.6132
  831MOL0     H12173  10.030   7.165   6.508 -0.9213  3.8179  1.5992
  831MOL0     H12174  10.197   7.014   6.433  2.5938 -0.5704 -0.5427
  831MOL0     H12175  10.418   7.003   6.309 -1.9007  0.7386  2.1781
  831MOL0     H12176  10.516   7.140   6.351 -1.4282  1.0198  0.8381
  831MOL0     H12177  10.694   6.991   6.425  1.2235  0.0710 -1.6726
  831MOL0     H12178  10.658   6.972   6.247  0.9561 -2.6485 -0.0495
  831MOL0     H12179  10.526   6.764   6.291 -0.3411 -0.8248  0.8844
  831MOL0     H12180  10.595   6.776   6.462 -0.3931  2.6719  1.1905
  831MOL0     H12181  10.819   6.787   6.394 -0.6200  3.8760 -0.1137
  831MOL0     H12182  10.768   6.780   6.222  0.4747 -1.3596  0.1041
  831MOL0     H12183  10.688   6.389   6.270 -3.3856  1.1531  0.6563
  831MOL0     H12184  10.497   7.216   6.674 -0.2118  2.2220  1.2417
  831MOL0     H12185  10.311   7.377   6.747 -2.1894  0.2997  1.4146
  832MOL0     O12186   1.606   8.541   5.625  0.6805 -0.7568 -0.7624
  832MOL0     C12187   1.694   8.517   5.704 -0.3996  0.1794 -0.1168
  832MOL0     O12188   1.682   8.440   5.822 -0.4273  0.0475  0.1840
  832MOL0     C12189   1.562   8.399   5.873  0.2984 -0.0586  0.7749
  832MOL0     C12190   1.432   8.468   5.861  0.4797  0.0045 -0.4156
  832MOL0     C12191   1.326   8.417   5.938  0.1323 -0.0197 -0.4447
  832MOL0     C12192   1.333   8.307   6.022 -0.9161  0.0050  0.0694
  832MOL0     O12193   1.228   8.247   6.085  0.3264 -0.4605  0.8655
  832MOL0     C12194   1.094   8.289   6.043 -0.2314  0.3905  0.7542
  832MOL0     C12195   1.003   8.192   6.108 -0.0720 -0.2100  0.9920
  832MOL0     C12196   0.987   8.204   6.261 -0.3259  0.2336  0.6900
  832MOL0     C12197   0.863   8.128   6.308  0.6353 -0.1119 -0.9196
  832MOL0     C12198   0.829   8.163   6.463  0.7484 -0.9368 -1.2259
  832MOL0     C12199   0.694   8.096   6.506 -0.5529 -0.3573  0.0189
  832MOL0     C12200   0.578   8.179   6.480 -0.1177 -0.4496  0.3224
  832MOL0     C12201   0.449   8.118   6.546 -0.6697 -1.1502 -0.2552
  832MOL0     N12202   0.434   7.977   6.514 -0.1953  0.0295 -0.8383
  832MOL0     C12203   0.423   7.873   6.606 -1.4333  0.5059 -0.0804
  832MOL0     C12204   0.415   7.760   6.526  0.7544  0.0576 -0.4037
  832MOL0     C12205   0.404   7.624   6.595  0.0095 -0.4289 -0.6297
  832MOL0     C12206   0.277   7.613   6.685 -0.1440  0.2298  0.1962
  832MOL0     C12207   0.300   7.501   6.792 -0.3331  0.0148  1.0968
  832MOL0     C12208   0.176   7.478   6.872  1.1809 -0.2828 -0.0615
  832MOL0     O12209   0.130   7.603   6.930  0.7519 -0.0530  0.3639
  832MOL0     C12210   0.001   7.609   6.978 -0.3314 -0.2657  1.7721
  832MOL0     C12211  -0.070   7.732   6.994  0.3124  0.2523  0.4819
  832MOL0     C12212  -0.207   7.743   7.008 -0.6557  0.1029  0.2511
  832MOL0     C12213  -0.260   7.886   7.003  0.1443  0.2739  0.5726
  832MOL0     C12214  -0.283   7.627   7.026 -0.4019  0.3104  0.8725
  832MOL0     C12215  -0.425   7.628   7.049 -0.7687  0.9454  0.7502
  832MOL0     O12216  -0.474   7.550   7.153 -0.2544  0.7424  0.8805
  832MOL0     C12217  -0.613   7.541   7.165  0.3299  0.0478  0.7643
  832MOL0     C12218  -0.676   7.421   7.128 -0.1590 -0.7101  0.0191
  832MOL0     C12219  -0.815   7.414   7.133  0.3569 -0.1143 -0.0938
  832MOL0     C12220  -0.892   7.523   7.156  0.5611 -0.0055 -0.2244
  832MOL0     O12221  -1.031   7.517   7.150  0.1334 -0.1352 -0.0284
  832MOL0     C12222  -1.105   7.390   7.144  0.0635 -0.0887 -0.3236
  832MOL0     C12223  -1.252   7.402   7.134  0.1477  0.3066 -0.2741
  832MOL0     C12224  -1.311   7.490   7.242 -0.6991  0.9697 -0.6934
  832MOL0     C12225  -1.465   7.492   7.223 -0.4417 -0.3666  0.4679
  832MOL0     C12226  -1.528   7.592   7.311 -0.2111  0.3185  0.0506
  832MOL0     C12227  -1.681   7.578   7.302 -0.6197  0.8395  1.0160
  832MOL0     C12228  -1.741   7.704   7.360  0.3428  0.1036  0.2567
  832MOL0     C12229  -1.890   7.690   7.389 -0.6930  0.6396  0.2772
  832MOL0    Cl12230  -1.962   7.671   7.224 -0.3136  0.2207 -0.5934
  832MOL0     C12231  -0.833   7.640   7.191 -0.7293  0.2613  0.2299
  832MOL0     C12232  -0.687   7.649   7.201  0.6240 -0.6109 -1.0590
  832MOL0     O12233  -0.499   7.696   6.975 -0.7773  0.7688  0.6714
  832MOL0     C12234  -0.220   7.501   7.022 -0.3109 -0.0081  0.3555
  832MOL0     C12235  -0.084   7.491   6.993 -0.0893 -0.3533 -0.3799
  832MOL0     N12236   0.423   7.792   6.391 -0.0960  0.4886 -0.0515
  832MOL0     N12237   0.447   7.918   6.392 -0.4401 -0.1099 -0.2392
  832MOL0     C12238   1.458   8.239   6.023  0.4821  0.5582 -0.4468
  832MOL0     C12239   1.571   8.290   5.958  0.2485  0.0212  0.2641
  832MOL0     C12240   1.829   8.570   5.675 -0.6256  0.3824  0.3221
  832MOL0     C12241   1.942   8.542   5.760  0.3660  0.2079  0.1085
  832MOL0     C12242   2.061   8.618   5.748  0.0709  0.7187 -0.0359
  832MOL0     C12243   2.080   8.704   5.648  0.4865  0.0514  0.0073
  832MOL0     O12244   2.186   8.791   5.645 -0.2762  0.1100 -0.5681
  832MOL0     C12245   2.298   8.773   5.557  0.7890  0.0265  0.2145
  832MOL0     C12246   2.396   8.681   5.631 -0.1383  0.3466 -0.0266
  832MOL0     C12247   2.488   8.632   5.521  1.1651 -1.0570  0.4556
  832MOL0     C12248   2.611   8.566   5.566 -1.1774 -0.2346  0.6849
  832MOL0     C12249   2.667   8.490   5.450  0.3781  0.1344 -0.2248
  832MOL0     C12250   2.721   8.434   5.358 -0.1614  0.5087 -0.0693
  832MOL0     C12251   1.974   8.716   5.551 -0.4125  0.4089  0.2668
  832MOL0     C12252   1.848   8.653   5.566 -0.2441  0.4598  0.8419
  832MOL0     H12253   1.425   8.556   5.798  0.1193 -0.4220 -0.9793
  832MOL0     H12254   1.234   8.473   5.923  0.2129  0.1348 -0.3636
  832MOL0     H12255   1.075   8.391   6.079  3.0646  0.5053  2.5223
  832MOL0     H12256   1.094   8.280   5.934  2.3014  2.2781  0.4886
  832MOL0     H12257   0.904   8.197   6.062  1.3570 -0.4289 -2.4475
  832MOL0     H12258   1.043   8.092   6.085  0.2959 -0.2371  1.7282
  832MOL0     H12259   1.067   8.145   6.307  0.9367 -0.8802 -2.6522
  832MOL0     H12260   1.001   8.307   6.295  1.2331 -0.6272  2.9072
  832MOL0     H12261   0.778   8.172   6.253  0.7309 -1.1121 -1.8917
  832MOL0     H12262   0.864   8.019   6.300 -3.0511 -0.3900  0.2013
  832MOL0     H12263   0.911   8.132   6.529  1.7772 -0.7595 -2.3836
  832MOL0     H12264   0.823   8.270   6.485 -1.2857 -0.2461 -4.4886
  832MOL0     H12265   0.690   7.999   6.457  2.2951 -0.8610  0.5594
  832MOL0     H12266   0.697   8.091   6.615 -1.5680  2.8671  0.3053
  832MOL0     H12267   0.583   8.281   6.520 -0.3122 -0.3551  0.1054
  832MOL0     H12268   0.570   8.174   6.371  3.8790 -3.1729 -0.0469
  832MOL0     H12269   0.354   8.154   6.505 -0.4533 -0.5353 -0.2251
  832MOL0     H12270   0.445   8.163   6.646 -0.6864 -2.9209  0.5659
  832MOL0     H12271   0.406   7.872   6.713 -4.8435  2.5924 -0.4549
  832MOL0     H12272   0.403   7.548   6.517  1.1904  1.5856 -2.7460
  832MOL0     H12273   0.491   7.604   6.658  0.0416 -0.8614 -0.8121
  832MOL0     H12274   0.193   7.587   6.621  0.9895 -1.8839 -0.5466
  832MOL0     H12275   0.253   7.707   6.736 -1.0562  0.8297 -1.2912
  832MOL0     H12276   0.387   7.519   6.855 -0.5030 -2.3599  2.1127
  832MOL0     H12277   0.335   7.409   6.744  2.1114  1.5725 -0.3498
  832MOL0     H12278   0.188   7.399   6.947 -1.9273 -2.7379 -1.9238
  832MOL0     H12279   0.101   7.436   6.805 -0.7322 -0.1179  1.8531
  832MOL0     H12280  -0.019   7.827   6.978 -0.9797  0.8469 -0.2082
  832MOL0     H12281  -0.347   7.892   7.069 -1.0066 -0.9308 -0.7588
  832MOL0     H12282  -0.196   7.958   7.053 -1.6038  1.8928  0.5654
  832MOL0     H12283  -0.290   7.922   6.904  3.0275  1.0551 -0.1240
  832MOL0     H12284  -0.620   7.335   7.092 -1.9059 -1.4069 -1.1509
  832MOL0     H12285  -0.854   7.319   7.099  1.6803 -0.4925 -0.6261
  832MOL0     H12286  -1.068   7.344   7.052  0.2708  0.1555 -0.3656
  832MOL0     H12287  -1.078   7.323   7.226 -1.0065 -1.6551 -1.2040
  832MOL0     H12288  -1.273   7.441   7.033  0.2603  0.1426 -0.3616
  832MOL0     H12289  -1.295   7.303   7.147 -0.4162  0.9059  3.0811
  832MOL0     H12290  -1.265   7.589   7.234  1.5590  0.0522  0.0272
  832MOL0     H12291  -1.286   7.448   7.340  0.4319  3.6212  0.2354
  832MOL0     H12292  -1.486   7.499   7.116  1.8887 -5.4512 -0.6254
  832MOL0     H12293  -1.503   7.393   7.249  0.5960 -1.4336 -1.7631
  832MOL0     H12294  -1.504   7.696   7.284  0.7337  0.6681  2.0894
  832MOL0     H12295  -1.493   7.577   7.413 -4.1868  1.7942  1.8512
  832MOL0     H12296  -1.714   7.560   7.199  0.2222 -1.0638  1.0322
  832MOL0     H12297  -1.697   7.490   7.365 -1.5400  0.0085 -0.3270
  832MOL0     H12298  -1.720   7.791   7.298  2.8948  0.7828  1.9157
  832MOL0     H12299  -1.696   7.728   7.457 -0.6666 -1.3492  1.1316
  832MOL0     H12300  -1.923   7.784   7.434  4.4606  1.3479  3.2931
  832MOL0     H12301  -1.905   7.618   7.471 -0.1038  1.1608  0.8481
  832MOL0     H12302  -0.885   7.733   7.212 -0.5104  0.0381  1.9658
  832MOL0     H12303  -0.644   7.744   7.230 -0.9570 -0.5116  1.1987
  832MOL0     H12304  -0.276   7.410   7.040  0.0202 -0.3688 -0.4221
  832MOL0     H12305  -0.037   7.394   7.003 -0.0066 -0.2053  0.9049
  832MOL0     H12306   1.464   8.146   6.079 -0.1680 -0.0671 -1.3693
  832MOL0     H12307   1.664   8.234   5.959  0.6267  0.4974 -2.1348
  832MOL0     H12308   1.924   8.468   5.837 -0.4860  0.5826  0.2794
  832MOL0     H12309   2.134   8.622   5.828  0.6663 -0.0833 -0.5327
  832MOL0     H12310   2.263   8.721   5.467  1.3914 -2.1029  1.1396
  832MOL0     H12311   2.345   8.868   5.530 -0.1630  1.5407  3.4614
  832MOL0     H12312   2.354   8.594   5.682  1.4497 -1.0803 -1.0596
  832MOL0     H12313   2.454   8.742   5.700 -0.3959 -0.6588  1.1117
  832MOL0     H12314   2.518   8.712   5.452  1.4824 -1.6029 -0.0504
  832MOL0     H12315   2.429   8.564   5.459 -0.4538 -1.0349  1.8707
  832MOL0     H12316   2.583   8.503   5.651  2.7221  0.6776  2.8813
  832MOL0     H12317   2.675   8.647   5.601 -4.2625  3.0229 -0.5118
  832MOL0     H12318   2.782   8.383   5.286  1.5321  1.3939  0.6963
  832MOL0     H12319   1.985   8.779   5.463 -0.2758  0.3148  0.2173
  832MOL0     H12320   1.773   8.669   5.489  1.4521 -0.7210 -1.1902
  833MOL0     O12321   9.277   7.814   1.242  0.0915 -0.1496  0.3358
  833MOL0     C12322   9.163   7.840   1.186  0.1659 -0.4148  0.0173
  833MOL0     O12323   9.098   7.766   1.092  0.5246  0.1330 -0.3353
  833MOL0     C12324   9.141   7.641   1.057  1.2925 -0.1033  0.0231
  833MOL0     C12325   9.077   7.589   0.948 -0.3000 -0.3526  0.0329
  833MOL0     C12326   9.101   7.457   0.909 -0.6081 -0.6324  0.9491
  833MOL0     C12327   9.187   7.367   0.976 -0.1003 -0.2686 -0.0971
  833MOL0     O12328   9.200   7.242   0.924  0.7211 -0.0646 -0.4024
  833MOL0     C12329   9.308   7.154   0.961  0.2290  0.7535  0.5154
  833MOL0     C12330   9.318   7.018   0.890 -0.4404 -0.4825  0.5595
  833MOL0     C12331   9.206   6.931   0.923 -1.1528 -0.4715  0.8321
  833MOL0     C12332   9.198   6.804   0.848 -0.3022  0.0158  0.7475
  833MOL0     C12333   9.078   6.720   0.897  0.6278  0.1812  0.6820
  833MOL0     C12334   9.073   6.671   1.046  0.6988  0.0808  0.2907
  833MOL0     C12335   8.950   6.576   1.064  0.6626 -0.6176  0.6225
  833MOL0     C12336   8.828   6.670   1.111 -0.3202  0.2956 -0.3218
  833MOL0     N12337   8.725   6.582   1.170  0.1137  0.2541  0.2977
  833MOL0     C12338   8.734   6.469   1.251  0.0760  0.6239 -1.2958
  833MOL0     C12339   8.602   6.434   1.284 -0.0151 -0.3986 -0.3855
  833MOL0     C12340   8.559   6.320   1.372 -0.1845  0.5185  0.4109
  833MOL0     C12341   8.406   6.333   1.406 -0.6582  0.2802  0.2987
  833MOL0     C12342   8.360   6.211   1.490  0.2733  0.5649 -0.2212
  833MOL0     C12343   8.221   6.239   1.537 -0.7569 -0.2564  0.9314
  833MOL0     O12344   8.182   6.164   1.654 -0.0442  1.0459  0.3345
  833MOL0     C12345   8.048   6.174   1.684  0.4594 -0.4368 -1.1123
  833MOL0     C12346   8.010   6.090   1.790 -1.3735  0.2665  0.4036
  833MOL0     C12347   7.878   6.078   1.829  0.1233  0.1990 -0.2478
  833MOL0     C12348   7.850   5.976   1.943  0.4098  0.2956 -0.3806
  833MOL0     C12349   7.769   6.150   1.755 -0.5330  0.6646 -0.3159
  833MOL0     C12350   7.627   6.156   1.792 -0.6243  0.2142  0.1286
  833MOL0     O12351   7.537   6.246   1.723 -0.2350 -0.3455  0.2955
  833MOL0     C12352   7.409   6.248   1.761 -0.1256 -0.4442  0.4488
  833MOL0     C12353   7.311   6.237   1.660  0.1289 -0.1838 -0.1362
  833MOL0     C12354   7.171   6.231   1.690 -0.8617 -0.1680  0.5523
  833MOL0     C12355   7.128   6.257   1.821 -0.4960  0.5445  0.5152
  833MOL0     O12356   6.997   6.279   1.834  0.3564  0.5989 -0.2530
  833MOL0     C12357   6.920   6.182   1.901  0.2856  0.4439 -0.2030
  833MOL0     C12358   6.769   6.215   1.890 -0.0095 -0.3977  0.1428
  833MOL0     C12359   6.724   6.232   1.741 -0.8689  0.6280 -0.4035
  833MOL0     C12360   6.580   6.271   1.732  0.6104  0.0604 -0.1013
  833MOL0     C12361   6.531   6.388   1.818 -0.2826  0.4008  0.3956
  833MOL0     C12362   6.385   6.378   1.811  0.4769 -0.4823 -0.3927
  833MOL0     C12363   6.309   6.512   1.830  0.3378  0.1637 -0.0826
  833MOL0     C12364   6.154   6.491   1.846  1.2401  0.1413  0.0311
  833MOL0    Cl12365   6.101   6.407   1.708 -0.1300  0.1339 -0.0453
  833MOL0     C12366   7.222   6.278   1.927 -0.6006  0.9432  0.7365
  833MOL0     C12367   7.366   6.272   1.894  0.0901  0.3975  0.8116
  833MOL0     O12368   7.599   6.088   1.885  0.3778 -0.3762 -0.3482
  833MOL0     C12369   7.813   6.232   1.656  0.0643  1.3114 -0.3450
  833MOL0     C12370   7.945   6.246   1.619  0.1398 -0.6092 -0.1505
  833MOL0     N12371   8.517   6.510   1.208  0.9375 -0.2215 -0.8693
  833MOL0     N12372   8.586   6.598   1.152 -0.0841 -0.4657  0.3500
  833MOL0     C12373   9.247   7.420   1.091 -0.1811  1.3801  0.9045
  833MOL0     C12374   9.221   7.554   1.129 -0.2775  0.1504 -0.0188
  833MOL0     C12375   9.113   7.972   1.223 -0.0928  1.4603  0.2014
  833MOL0     C12376   9.173   8.061   1.310  0.5989 -1.2667 -0.1379
  833MOL0     C12377   9.123   8.192   1.328 -0.6356  0.4453  0.4722
  833MOL0     C12378   9.019   8.241   1.254 -0.4988  0.6374 -0.2447
  833MOL0     O12379   9.003   8.376   1.259  0.0762  0.7578 -0.1294
  833MOL0     C12380   8.910   8.444   1.169 -0.0707 -0.1548 -0.7071
  833MOL0     C12381   8.981   8.575   1.123 -0.4698  0.5240 -0.3927
  833MOL0     C12382   9.120   8.548   1.059 -0.4692 -0.3878 -0.0148
  833MOL0     C12383   9.197   8.684   1.014  0.0698  0.4248  0.5374
  833MOL0     C12384   9.335   8.652   0.972  0.1077 -0.2508 -0.3141
  833MOL0     C12385   9.449   8.629   0.945 -0.3870  0.4097  0.2825
  833MOL0     C12386   8.964   8.149   1.161  1.0524 -0.1187  1.4544
  833MOL0     C12387   8.998   8.015   1.151 -0.6016  0.7805 -0.1005
  833MOL0     H12388   9.029   7.650   0.872  2.0153  0.4292 -0.8864
  833MOL0     H12389   9.073   7.418   0.812 -2.0911  1.2631  0.5687
  833MOL0     H12390   9.405   7.201   0.941  0.4845  0.5750  1.3094
  833MOL0     H12391   9.307   7.128   1.067  1.2971  0.9824  0.5959
  833MOL0     H12392   9.312   7.032   0.781 -2.5167 -0.7192  0.6026
  833MOL0     H12393   9.417   6.975   0.909  0.1036  0.1176 -0.7520
  833MOL0     H12394   9.204   6.910   1.030  0.8954 -0.5203  0.9078
  833MOL0     H12395   9.117   6.988   0.894 -1.9790 -0.7096  2.7163
  833MOL0     H12396   9.181   6.819   0.741  0.7172 -1.6460  0.3221
  833MOL0     H12397   9.293   6.751   0.861  0.5637  0.1646 -3.5259
  833MOL0     H12398   8.994   6.788   0.877  1.1893 -0.4188 -5.1698
  833MOL0     H12399   9.065   6.635   0.830  2.6369 -0.4321  1.0048
  833MOL0     H12400   9.159   6.614   1.083 -1.4531 -2.0923  2.2680
  833MOL0     H12401   9.065   6.755   1.115  3.0588 -0.1080  0.8990
  833MOL0     H12402   8.913   6.528   0.973 -0.2353  1.8504 -0.3928
  833MOL0     H12403   8.976   6.507   1.145 -0.3339 -1.6343  0.1063
  833MOL0     H12404   8.789   6.717   1.020 -2.1103 -1.7892 -0.7195
  833MOL0     H12405   8.850   6.745   1.187 -2.3091  1.6237 -0.9780
  833MOL0     H12406   8.822   6.412   1.278 -1.6428 -1.3999  0.3749
  833MOL0     H12407   8.564   6.226   1.317 -2.0390  0.1891  0.7231
  833MOL0     H12408   8.620   6.313   1.463  3.1905  0.0817 -1.7204
  833MOL0     H12409   8.339   6.324   1.321  0.2759 -1.1292 -0.3201
  833MOL0     H12410   8.398   6.430   1.456  0.4902 -0.0188  1.1157
  833MOL0     H12411   8.417   6.185   1.580  1.3982 -3.4057 -1.8485
  833MOL0     H12412   8.351   6.123   1.425 -1.4536  1.1865 -0.8916
  833MOL0     H12413   8.154   6.218   1.453  1.5629 -3.8044 -0.2409
  833MOL0     H12414   8.215   6.346   1.557 -2.2583 -0.8010  4.1433
  833MOL0     H12415   8.080   6.026   1.844 -1.3496 -1.2660 -1.3707
  833MOL0     H12416   7.779   5.895   1.924  2.6722 -1.9432  0.2046
  833MOL0     H12417   7.937   5.917   1.973 -1.7163 -3.8205 -1.6244
  833MOL0     H12418   7.810   6.040   2.023  1.5163  1.7342 -0.9222
  833MOL0     H12419   7.349   6.205   1.564  0.2290 -4.5293  1.1523
  833MOL0     H12420   7.104   6.200   1.610 -1.6358 -1.9352  1.8402
  833MOL0     H12421   6.945   6.083   1.861 -2.1197 -0.3437  0.0902
  833MOL0     H12422   6.944   6.193   2.008 -1.0970 -0.4340  0.2291
  833MOL0     H12423   6.711   6.139   1.942  2.0115 -0.4442  2.5400
  833MOL0     H12424   6.758   6.316   1.931 -1.5836  0.0058 -1.1741
  833MOL0     H12425   6.728   6.129   1.704 -0.8544 -0.1458  1.6695
  833MOL0     H12426   6.796   6.301   1.694 -2.0027  3.9150  2.2634
  833MOL0     H12427   6.560   6.295   1.627 -0.0267 -0.7163 -0.1618
  833MOL0     H12428   6.515   6.192   1.768 -0.0025  2.4452  4.8700
  833MOL0     H12429   6.565   6.487   1.786  1.8171 -0.0378  1.0976
  833MOL0     H12430   6.559   6.371   1.923 -2.5624  1.8220  1.3148
  833MOL0     H12431   6.351   6.343   1.713 -0.4861 -1.0504  0.1267
  833MOL0     H12432   6.347   6.305   1.883  1.7860 -1.4128 -0.6064
  833MOL0     H12433   6.335   6.579   1.747  1.8959  0.0687  0.2960
  833MOL0     H12434   6.361   6.544   1.920  2.3478  0.7351 -1.3799
  833MOL0     H12435   6.104   6.587   1.860 -0.3137 -0.5755 -0.4566
  833MOL0     H12436   6.124   6.427   1.929  0.2360  2.3000  1.4290
  833MOL0     H12437   7.179   6.281   2.026  1.5236 -1.1511  1.8278
  833MOL0     H12438   7.443   6.277   1.971  1.3124  0.2815 -0.3550
  833MOL0     H12439   7.739   6.284   1.596 -0.9624 -0.3454 -0.5905
  833MOL0     H12440   7.976   6.304   1.533  0.8546  0.2851  0.6940
  833MOL0     H12441   9.312   7.352   1.146 -1.4191 -0.4152  0.2411
  833MOL0     H12442   9.257   7.580   1.228  0.0260 -0.7568  0.1116
  833MOL0     H12443   9.265   8.029   1.356  2.0132 -1.0066 -2.6069
  833MOL0     H12444   9.182   8.248   1.400  2.5596 -1.6100 -0.3370
  833MOL0     H12445   8.883   8.381   1.084  0.7152 -1.0807 -0.2920
  833MOL0     H12446   8.819   8.464   1.226  0.6433 -1.0294  0.8055
  833MOL0     H12447   8.998   8.629   1.217  2.9966 -1.2198  0.1580
  833MOL0     H12448   8.918   8.635   1.058 -0.3349  1.3322  0.1968
  833MOL0     H12449   9.113   8.475   0.978  0.0546  1.2771 -1.6163
  833MOL0     H12450   9.188   8.505   1.133 -0.6232  0.8483  0.8833
  833MOL0     H12451   9.216   8.739   1.106 -0.8037  1.1353  0.3118
  833MOL0     H12452   9.152   8.742   0.933 -0.2731  0.5723  0.8307
  833MOL0     H12453   9.550   8.602   0.923 -1.0644 -2.8912  0.7524
  833MOL0     H12454   8.881   8.181   1.099  0.3275 -1.1847  1.8481
  833MOL0     H12455   8.941   7.946   1.090 -2.3776  1.2306  0.9743
  834MOL0     O12456  10.537   2.753   5.898  0.2076 -0.3320 -0.4625
  834MOL0     C12457  10.544   2.874   5.928  0.3132  0.4426 -0.6407
  834MOL0     O12458  10.466   2.966   5.881  0.3653 -0.4353  0.1028
  834MOL0     C12459  10.352   2.940   5.809  0.2754  0.8299  0.1106
  834MOL0     C12460  10.321   3.031   5.713 -0.8888  0.1229 -0.5356
  834MOL0     C12461  10.220   3.018   5.618  0.4078  0.5570 -0.3395
  834MOL0     C12462  10.144   2.900   5.614  0.0132 -0.1615  0.2864
  834MOL0     O12463  10.060   2.872   5.507  0.4379 -0.3545 -0.7465
  834MOL0     C12464   9.924   2.848   5.535  0.9052 -0.1609  0.2428
  834MOL0     C12465   9.884   2.744   5.426  0.2073 -0.2356  0.1722
  834MOL0     C12466   9.744   2.711   5.452  0.6301  0.4148  0.7634
  834MOL0     C12467   9.675   2.623   5.350 -0.0236 -0.1755  0.3042
  834MOL0     C12468   9.531   2.576   5.389  0.2098 -0.5579 -0.0801
  834MOL0     C12469   9.471   2.470   5.292 -0.0513  0.1542 -0.0229
  834MOL0     C12470   9.321   2.466   5.269 -0.9068  0.1845 -0.1958
  834MOL0     C12471   9.303   2.378   5.144 -0.3642  0.6671  0.6722
  834MOL0     N12472   9.165   2.371   5.096 -0.2621 -0.5242 -0.1350
  834MOL0     C12473   9.051   2.367   5.177 -0.3481 -0.1235  0.0740
  834MOL0     C12474   8.949   2.334   5.103  0.1976 -1.2355 -0.3808
  834MOL0     C12475   8.805   2.330   5.147  0.4646  0.2812  0.3869
  834MOL0     C12476   8.748   2.470   5.176  0.0868  0.7150  0.2924
  834MOL0     C12477   8.599   2.475   5.183  0.8474  0.6703 -0.1024
  834MOL0     C12478   8.539   2.612   5.212 -0.6465  0.3158 -0.2939
  834MOL0     O12479   8.400   2.603   5.184 -0.0408  0.3933 -0.5883
  834MOL0     C12480   8.330   2.719   5.196  0.5618  0.0394 -0.4568
  834MOL0     C12481   8.201   2.706   5.157 -0.0493 -0.3808  0.5460
  834MOL0     C12482   8.108   2.812   5.159 -0.1604 -0.4362 -0.3936
  834MOL0     C12483   7.968   2.771   5.105 -0.8248 -0.1615  0.5875
  834MOL0     C12484   8.146   2.938   5.195 -0.1732  0.1945  0.2201
  834MOL0     C12485   8.046   3.047   5.188 -0.4060 -0.1962  0.1236
  834MOL0     O12486   8.101   3.169   5.165 -0.1611  0.1916 -0.4753
  834MOL0     C12487   8.023   3.278   5.156 -0.2603 -1.0694  0.2753
  834MOL0     C12488   8.081   3.400   5.203  0.4039  0.1290  0.7370
  834MOL0     C12489   8.015   3.523   5.197  0.0890  0.5227  0.6486
  834MOL0     C12490   7.881   3.523   5.164  0.4200  0.8174  0.0395
  834MOL0     O12491   7.815   3.629   5.194 -0.1181 -0.3809 -0.2232
  834MOL0     C12492   7.773   3.624   5.334  0.5097 -0.4257 -0.1199
  834MOL0     C12493   7.650   3.710   5.347 -0.5277  0.2620 -0.4001
  834MOL0     C12494   7.540   3.654   5.258 -0.4543  0.0004  0.4999
  834MOL0     C12495   7.403   3.705   5.305  0.5892 -0.4026  0.1018
  834MOL0     C12496   7.297   3.641   5.215  0.5797  0.6231 -0.0753
  834MOL0     C12497   7.266   3.711   5.084  0.4570  0.3954  0.0911
  834MOL0     C12498   7.222   3.851   5.091 -0.1906  0.2191  0.0504
  834MOL0     C12499   7.077   3.851   5.129  0.2779 -0.2828 -0.2674
  834MOL0    Cl12500   6.971   3.759   5.008 -0.0803  0.0886 -0.0470
  834MOL0     C12501   7.813   3.403   5.113 -0.2618  0.0547 -0.0539
  834MOL0     C12502   7.893   3.293   5.099 -0.6838  0.5439 -0.5877
  834MOL0     O12503   7.933   3.035   5.231 -0.3802  0.8357  0.0994
  834MOL0     C12504   8.276   2.953   5.243  1.0853  0.1291  0.2082
  834MOL0     C12505   8.369   2.844   5.246 -0.6637 -0.4524  0.4833
  834MOL0     N12506   8.995   2.335   4.968  0.4121  0.3581 -0.5451
  834MOL0     N12507   9.126   2.355   4.964  0.0282  0.0665 -0.0108
  834MOL0     C12508  10.161   2.809   5.718  0.3370 -0.4491  0.0035
  834MOL0     C12509  10.267   2.824   5.813  0.2897 -0.3572 -0.0449
  834MOL0     C12510  10.655   2.925   6.008  0.5974  0.1047  0.3290
  834MOL0     C12511  10.715   3.046   5.975 -0.7756 -0.3498 -0.6128
  834MOL0     C12512  10.829   3.100   6.035 -0.1189 -0.2337 -0.8755
  834MOL0     C12513  10.881   3.044   6.152  0.6189  0.4304 -0.8811
  834MOL0     O12514  11.000   3.079   6.210  0.2017 -0.2891 -0.5395
  834MOL0     C12515  11.086   3.174   6.141  0.1135  0.0594  0.1447
  834MOL0     C12516  11.234   3.161   6.186  0.3952  0.2698  0.4155
  834MOL0     C12517  11.301   3.039   6.118  0.4992  0.5397 -0.2080
  834MOL0     C12518  11.453   3.024   6.139  0.0252 -1.0420  0.3267
  834MOL0     C12519  11.524   3.141   6.080  0.3260  0.0724  0.0357
  834MOL0     C12520  11.576   3.217   6.006 -0.1143  0.8146 -0.5519
  834MOL0     C12521  10.810   2.924   6.190 -0.1087 -0.9687  0.1481
  834MOL0     C12522  10.706   2.861   6.119  0.3502  0.6792 -0.0712
  834MOL0     H12523  10.369   3.128   5.725  2.7949 -1.5898 -0.1402
  834MOL0     H12524  10.206   3.104   5.553  1.2604 -0.2255 -1.6106
  834MOL0     H12525   9.906   2.799   5.632  1.1466 -2.7111 -0.9201
  834MOL0     H12526   9.864   2.938   5.526 -0.4436 -0.8548  1.7803
  834MOL0     H12527   9.898   2.792   5.329  1.7916 -0.1744  0.4068
  834MOL0     H12528   9.948   2.657   5.446 -0.4352 -0.2072  2.7693
  834MOL0     H12529   9.735   2.663   5.550  0.4939  0.3707  0.7302
  834MOL0     H12530   9.689   2.806   5.453 -1.6608 -0.6666 -2.9609
  834MOL0     H12531   9.676   2.674   5.254 -2.6780  0.4681  0.5377
  834MOL0     H12532   9.733   2.531   5.336 -0.5330 -0.1519 -2.4831
  834MOL0     H12533   9.541   2.532   5.489 -1.6083  0.6900  0.7222
  834MOL0     H12534   9.466   2.664   5.394  1.1599  0.1029  1.2690
  834MOL0     H12535   9.517   2.494   5.196  3.4412 -0.4899  1.3255
  834MOL0     H12536   9.492   2.365   5.317  0.4976  0.0374 -0.9410
  834MOL0     H12537   9.270   2.427   5.357  3.3603 -0.2565  2.3776
  834MOL0     H12538   9.286   2.567   5.246 -0.8455 -0.0791 -1.5089
  834MOL0     H12539   9.325   2.276   5.177  1.4829  1.3292  1.6595
  834MOL0     H12540   9.368   2.402   5.059  0.1413 -1.0046  0.5368
  834MOL0     H12541   9.050   2.397   5.281 -1.4676  1.0904 -0.2623
  834MOL0     H12542   8.764   2.279   5.059  3.2883 -1.0025 -0.3183
  834MOL0     H12543   8.794   2.271   5.239 -0.6351 -0.6966 -0.3371
  834MOL0     H12544   8.788   2.540   5.101  1.0955  0.4841  0.5944
  834MOL0     H12545   8.785   2.493   5.276 -0.6525 -2.0849  1.2679
  834MOL0     H12546   8.559   2.401   5.253 -1.4720  1.6485 -0.2929
  834MOL0     H12547   8.563   2.453   5.083  1.2658 -2.6838  0.3737
  834MOL0     H12548   8.592   2.681   5.147  1.4996 -1.0705 -0.1396
  834MOL0     H12549   8.560   2.636   5.317  1.1222 -0.6001 -0.3928
  834MOL0     H12550   8.172   2.605   5.130 -1.2228 -0.1275  0.8049
  834MOL0     H12551   7.898   2.781   5.188 -1.3643 -0.3978  0.1680
  834MOL0     H12552   7.946   2.836   5.019 -0.8772 -3.8813 -2.5185
  834MOL0     H12553   7.967   2.670   5.064 -3.0083 -0.1953  0.6231
  834MOL0     H12554   8.181   3.399   5.243  0.3413  0.1298  0.8944
  834MOL0     H12555   8.055   3.618   5.231  0.4106 -0.3900  3.0381
  834MOL0     H12556   7.750   3.519   5.357 -0.6372  0.2556  2.1098
  834MOL0     H12557   7.853   3.670   5.392  0.4849 -0.8012  0.2216
  834MOL0     H12558   7.611   3.702   5.448 -0.9698 -1.3922 -0.6731
  834MOL0     H12559   7.678   3.812   5.317  4.7706 -1.2607 -1.6999
  834MOL0     H12560   7.532   3.547   5.281 -0.8107  0.0715  0.7149
  834MOL0     H12561   7.551   3.673   5.151 -0.5360 -3.8610 -0.3153
  834MOL0     H12562   7.388   3.676   5.410  0.2288 -0.3092  0.0787
  834MOL0     H12563   7.399   3.814   5.298 -0.6220 -0.4855 -0.6776
  834MOL0     H12564   7.203   3.642   5.272  0.8835 -1.0532  0.5005
  834MOL0     H12565   7.319   3.535   5.202  0.4112  0.6424 -0.5330
  834MOL0     H12566   7.349   3.699   5.014 -0.6230  0.2230 -1.2197
  834MOL0     H12567   7.187   3.651   5.036 -0.9675 -0.9256  3.7742
  834MOL0     H12568   7.230   3.899   4.994  2.4589 -1.4178 -0.6365
  834MOL0     H12569   7.281   3.916   5.157 -2.0424 -0.1002  2.1788
  834MOL0     H12570   7.031   3.949   5.145 -0.0613 -0.8914  3.0824
  834MOL0     H12571   7.062   3.818   5.232 -3.9013  1.1329 -0.2201
  834MOL0     H12572   7.707   3.411   5.091 -0.4442 -1.2172  0.2886
  834MOL0     H12573   7.841   3.203   5.067  2.3477 -1.4376 -0.2974
  834MOL0     H12574   8.300   3.051   5.282 -1.6252  1.4892 -1.2443
  834MOL0     H12575   8.469   2.866   5.282 -1.0296  0.3197  1.0330
  834MOL0     H12576  10.105   2.716   5.725 -0.4495 -0.0929 -1.2269
  834MOL0     H12577  10.283   2.745   5.886 -1.8004 -1.1934 -0.3995
  834MOL0     H12578  10.676   3.086   5.882 -0.5400  0.9694 -0.1653
  834MOL0     H12579  10.861   3.188   5.979 -2.4918 -0.6788 -3.1624
  834MOL0     H12580  11.075   3.156   6.034 -0.8627 -2.6816  0.6123
  834MOL0     H12581  11.041   3.271   6.162 -0.8278  0.0828 -1.7741
  834MOL0     H12582  11.244   3.148   6.294  1.2317 -0.6423  0.2502
  834MOL0     H12583  11.283   3.253   6.155  0.1959 -0.0097 -0.7670
  834MOL0     H12584  11.278   3.038   6.011  0.5453  0.4288 -0.2172
  834MOL0     H12585  11.245   2.957   6.164 -1.3893  1.8782 -0.0143
  834MOL0     H12586  11.492   2.937   6.086 -0.5443  0.2237 -2.3288
  834MOL0     H12587  11.488   3.025   6.243  3.6521 -0.3910 -0.7496
  834MOL0     H12588  11.615   3.289   5.937  0.5117  0.6424 -0.3866
  834MOL0     H12589  10.851   2.874   6.277  1.6691  2.9549  1.8038
  834MOL0     H12590  10.653   2.779   6.167  0.4588 -0.7932 -2.2914
  835MOL0     O12591   1.856   2.452   8.384  0.2557 -0.0480  0.1193
  835MOL0     C12592   1.891   2.571   8.370 -0.0978 -0.0890 -0.6108
  835MOL0     O12593   1.813   2.673   8.339  0.1305  0.3736 -0.0614
  835MOL0     C12594   1.685   2.667   8.319  0.5804 -0.0843  0.3213
  835MOL0     C12595   1.632   2.774   8.231 -0.6076  0.5294  0.0058
  835MOL0     C12596   1.488   2.773   8.201 -0.1500 -0.2672  0.3920
  835MOL0     C12597   1.404   2.678   8.259  0.3885 -0.1897  0.6755
  835MOL0     O12598   1.269   2.682   8.215 -0.1484  0.0077  0.7936
  835MOL0     C12599   1.174   2.588   8.272  0.1459 -1.2074  0.0068
  835MOL0     C12600   1.058   2.608   8.178 -0.8566 -0.1240 -0.0440
  835MOL0     C12601   0.945   2.519   8.212  0.7156  0.8281  0.0004
  835MOL0     C12602   0.838   2.543   8.103  0.9923 -0.1455  0.5744
  835MOL0     C12603   0.748   2.416   8.097  0.1605  0.1061  1.1408
  835MOL0     C12604   0.650   2.401   8.216  0.6713 -0.6423 -0.1688
  835MOL0     C12605   0.552   2.291   8.206  1.3698  0.8457  0.1241
  835MOL0     C12606   0.613   2.156   8.212 -0.1835 -0.0771 -0.1202
  835MOL0     N12607   0.503   2.051   8.233 -0.3565 -0.4528 -0.2096
  835MOL0     C12608   0.449   2.023   8.353 -0.0590  0.8692  0.2961
  835MOL0     C12609   0.367   1.917   8.330 -1.2298 -0.4284 -0.7085
  835MOL0     C12610   0.298   1.838   8.431 -0.0394  0.3719 -0.0921
  835MOL0     C12611   0.145   1.855   8.434  0.5578  0.1372  0.0379
  835MOL0     C12612   0.096   1.965   8.529  0.4035  0.6759  0.2720
  835MOL0     C12613  -0.048   1.948   8.575  0.1789 -0.7782  0.4780
  835MOL0     O12614  -0.132   2.015   8.467  0.2765 -0.3204 -0.3346
  835MOL0     C12615  -0.264   1.980   8.465 -1.0639  0.1050  0.0881
  835MOL0     C12616  -0.324   1.913   8.572  0.4778 -0.1450 -0.0819
  835MOL0     C12617  -0.460   1.872   8.572  0.0151 -0.8513 -0.0431
  835MOL0     C12618  -0.501   1.779   8.686 -0.2019  0.8118 -0.2740
  835MOL0     C12619  -0.548   1.915   8.471 -1.0906  0.9576  0.4321
  835MOL0     C12620  -0.690   1.893   8.470  0.7942  0.4457  0.5249
  835MOL0     O12621  -0.748   1.946   8.353 -1.2831  0.2596  0.1578
  835MOL0     C12622  -0.879   1.964   8.334  0.7063 -0.0181  0.2851
  835MOL0     C12623  -0.927   1.984   8.199  0.0573  0.5466  0.3917
  835MOL0     C12624  -1.058   2.021   8.173  0.9871 -0.3443  0.0479
  835MOL0     C12625  -1.147   2.057   8.281 -1.1406  0.0995  0.2500
  835MOL0     O12626  -1.272   2.103   8.253 -0.0717 -0.2468  0.1220
  835MOL0     C12627  -1.383   2.008   8.276  0.5259 -0.8441 -0.7749
  835MOL0     C12628  -1.492   2.036   8.177 -0.1466  0.4255  0.7755
  835MOL0     C12629  -1.626   1.966   8.197  1.0894  0.8328 -0.2038
  835MOL0     C12630  -1.695   2.009   8.320  0.5242 -0.2295  0.5104
  835MOL0     C12631  -1.820   1.920   8.342  0.9448 -0.6088 -0.3680
  835MOL0     C12632  -1.941   1.943   8.252  0.7542 -0.9365  0.4062
  835MOL0     C12633  -1.992   2.080   8.286  0.3315 -0.4569  1.3774
  835MOL0     C12634  -2.131   2.108   8.228 -0.2473 -0.2243  0.1992
  835MOL0    Cl12635  -2.116   2.123   8.048  0.3093 -0.1197 -0.0538
  835MOL0     C12636  -1.111   2.025   8.409 -0.1744 -0.5103 -0.0706
  835MOL0     C12637  -0.976   1.992   8.435 -0.0560  0.3985  0.7298
  835MOL0     O12638  -0.750   1.855   8.566  0.3397 -0.7123 -0.2445
  835MOL0     C12639  -0.488   1.995   8.364  0.0278  0.1711  0.0817
  835MOL0     C12640  -0.348   2.024   8.363 -0.3981  1.0212  0.0447
  835MOL0     N12641   0.378   1.887   8.191 -0.0878  0.4384  0.3132
  835MOL0     N12642   0.461   1.963   8.140  0.1128  0.1078 -0.2916
  835MOL0     C12643   1.456   2.581   8.348 -0.1264  0.3632 -0.1707
  835MOL0     C12644   1.589   2.575   8.382 -0.2436 -0.0491 -0.1615
  835MOL0     C12645   2.040   2.604   8.368  0.2921  0.7397 -1.1280
  835MOL0     C12646   2.084   2.729   8.401  1.1535 -0.2979 -0.2981
  835MOL0     C12647   2.227   2.768   8.406  0.3924  0.5079  0.1230
  835MOL0     C12648   2.323   2.673   8.367 -0.0104 -0.3763 -0.4376
  835MOL0     O12649   2.456   2.708   8.356  0.3879  0.0756 -0.3811
  835MOL0     C12650   2.548   2.642   8.441 -0.8928 -0.0670  0.4362
  835MOL0     C12651   2.691   2.658   8.384 -0.6804  0.2201 -0.9561
  835MOL0     C12652   2.744   2.801   8.395 -1.2598 -0.0319 -0.4579
  835MOL0     C12653   2.875   2.828   8.327 -1.0983 -0.3186  0.9937
  835MOL0     C12654   2.985   2.752   8.385  0.2067  0.6747 -0.2326
  835MOL0     C12655   3.067   2.675   8.436 -0.4181  0.0844 -0.4271
  835MOL0     C12656   2.276   2.539   8.343 -0.8634 -1.1715  0.4181
  835MOL0     C12657   2.137   2.510   8.335  0.3979  0.0341 -0.5038
  835MOL0     H12658   1.707   2.837   8.184 -1.4702  0.5045 -1.4275
  835MOL0     H12659   1.442   2.840   8.129 -0.2099  1.4597  1.9611
  835MOL0     H12660   1.206   2.484   8.267  2.3176 -0.5831 -0.0416
  835MOL0     H12661   1.154   2.616   8.377  2.4289  1.7910 -0.2202
  835MOL0     H12662   1.026   2.713   8.183  0.9432  0.5059 -0.8081
  835MOL0     H12663   1.097   2.587   8.078  0.6602  0.8669  0.3046
  835MOL0     H12664   0.971   2.414   8.226  1.4306  0.6218 -2.4830
  835MOL0     H12665   0.911   2.552   8.311 -0.6713  2.0458 -0.8459
  835MOL0     H12666   0.772   2.625   8.132  0.9757 -0.4818  1.5086
  835MOL0     H12667   0.890   2.567   8.010 -0.1366  0.1148 -0.0113
  835MOL0     H12668   0.686   2.434   8.009 -0.6932 -1.0676  1.4771
  835MOL0     H12669   0.814   2.328   8.095  1.7361  1.1973 -2.1907
  835MOL0     H12670   0.713   2.397   8.305  0.5131  1.0460  0.0536
  835MOL0     H12671   0.591   2.492   8.202  1.2785 -0.3610 -0.9556
  835MOL0     H12672   0.483   2.294   8.291  1.1225  1.5265 -0.0888
  835MOL0     H12673   0.505   2.288   8.107 -2.0976 -1.7919  1.6586
  835MOL0     H12674   0.683   2.153   8.296  0.0562  0.8096 -0.2785
  835MOL0     H12675   0.668   2.143   8.119  2.0232  1.1642  0.9144
  835MOL0     H12676   0.471   2.062   8.451  2.9502 -1.1378  0.5338
  835MOL0     H12677   0.310   1.734   8.399 -3.7903 -0.5485  0.9524
  835MOL0     H12678   0.342   1.853   8.530  2.9464 -1.3943 -1.0132
  835MOL0     H12679   0.110   1.757   8.467  2.1000  0.1688  1.9128
  835MOL0     H12680   0.111   1.875   8.332  1.5601 -2.1792 -0.8064
  835MOL0     H12681   0.122   2.061   8.484  1.3278 -0.1504 -1.0197
  835MOL0     H12682   0.155   1.963   8.621  2.2769  0.5096 -0.8720
  835MOL0     H12683  -0.067   2.011   8.663 -0.4722  0.6739 -0.6415
  835MOL0     H12684  -0.071   1.847   8.608  1.8601 -1.4311 -0.2452
  835MOL0     H12685  -0.274   1.875   8.661  1.6265  1.2225 -0.1193
  835MOL0     H12686  -0.560   1.829   8.763  0.4337 -0.2723  0.9594
  835MOL0     H12687  -0.558   1.690   8.658  0.0530  0.5477  0.0302
  835MOL0     H12688  -0.409   1.745   8.736 -1.8701 -0.4798  2.0849
  835MOL0     H12689  -0.869   1.958   8.111 -1.5526 -4.8247  0.5380
  835MOL0     H12690  -1.103   2.021   8.075 -0.0686  2.3645  0.4255
  835MOL0     H12691  -1.354   1.903   8.276  1.0746 -0.8721  3.5702
  835MOL0     H12692  -1.416   2.027   8.379 -0.2668  1.4074 -1.3838
  835MOL0     H12693  -1.514   2.143   8.176 -2.7707 -0.0247 -1.3727
  835MOL0     H12694  -1.453   1.991   8.086 -0.6357  0.0046  0.7673
  835MOL0     H12695  -1.606   1.858   8.194 -0.1073  0.4716  2.4678
  835MOL0     H12696  -1.693   1.979   8.112  0.9046 -2.9359 -0.8437
  835MOL0     H12697  -1.629   2.014   8.407  3.0564 -1.8311 -1.1986
  835MOL0     H12698  -1.725   2.111   8.296  1.8249  0.6331  2.3083
  835MOL0     H12699  -1.843   1.961   8.441  2.3792 -0.9554  0.1431
  835MOL0     H12700  -1.802   1.813   8.349 -0.0657 -1.0403 -3.1229
  835MOL0     H12701  -1.920   1.946   8.145 -2.0481  0.4822 -0.1892
  835MOL0     H12702  -2.023   1.876   8.278 -0.9906  1.4426  1.3561
  835MOL0     H12703  -1.918   2.157   8.262  1.5269 -0.8046  3.6061
  835MOL0     H12704  -2.024   2.085   8.390 -1.7460 -0.0432  0.7667
  835MOL0     H12705  -2.172   2.201   8.268  3.8514  1.5929  0.7337
  835MOL0     H12706  -2.193   2.024   8.261  0.8428 -0.7899  0.8895
  835MOL0     H12707  -1.172   2.056   8.494  0.6195  4.3435 -0.9500
  835MOL0     H12708  -0.951   1.987   8.540  0.8847  1.6222  0.5849
  835MOL0     H12709  -0.542   2.025   8.276 -0.1171 -0.2224  0.0329
  835MOL0     H12710  -0.322   2.088   8.279 -1.5787  2.2392  0.5663
  835MOL0     H12711   1.397   2.496   8.383 -0.1170  2.0263  4.5153
  835MOL0     H12712   1.614   2.505   8.460  1.2034  0.8250  0.1968
  835MOL0     H12713   2.014   2.808   8.423  1.5681  0.7755 -2.5475
  835MOL0     H12714   2.257   2.866   8.444 -0.0932  0.3741  0.8846
  835MOL0     H12715   2.536   2.696   8.535  0.6715  1.2333 -0.0438
  835MOL0     H12716   2.527   2.541   8.475  0.2844  0.2239  2.1800
  835MOL0     H12717   2.697   2.639   8.277  1.8320  1.1141 -1.0320
  835MOL0     H12718   2.756   2.585   8.434 -2.6979 -0.0891  1.4381
  835MOL0     H12719   2.754   2.825   8.502 -0.5790 -1.8796 -0.0765
  835MOL0     H12720   2.679   2.874   8.345 -1.3685 -0.1262 -0.4563
  835MOL0     H12721   2.901   2.933   8.312  3.2769 -1.5256 -2.1087
  835MOL0     H12722   2.872   2.797   8.222  3.2519  4.2960 -0.9134
  835MOL0     H12723   3.137   2.603   8.474  1.4327  1.2747 -1.4307
  835MOL0     H12724   2.349   2.459   8.331 -0.1526 -0.5164  0.3008
  835MOL0     H12725   2.108   2.409   8.308  0.6490 -0.6514  1.5758
  836MOL0     O12726   8.783  10.838  11.281 -0.1600 -0.0455  0.0542
  836MOL0     C12727   8.791  10.936  11.204 -0.7450 -0.1874 -0.3710
  836MOL0     O12728   8.692  11.020  11.171  0.2765 -0.4809 -0.4225
  836MOL0     C12729   8.573  11.016  11.241  0.0235 -0.1138 -1.0214
  836MOL0     C12730   8.459  11.025  11.166 -0.0389 -0.8089 -0.3688
  836MOL0     C12731   8.334  11.053  11.234  0.1917  0.2802  0.2583
  836MOL0     C12732   8.332  11.081  11.376  0.3316  0.6966 -0.9291
  836MOL0     O12733   8.213  11.121  11.441  0.1873 -0.6894  0.8735
  836MOL0     C12734   8.117  11.018  11.431  0.1717 -0.1222  0.3545
  836MOL0     C12735   7.994  11.049  11.522  0.3734 -0.3333  0.1133
  836MOL0     C12736   7.869  10.976  11.474 -0.5145  0.4838 -0.2636
  836MOL0     C12737   7.736  11.019  11.550  0.4195 -0.0439 -0.7347
  836MOL0     C12738   7.669  11.147  11.481 -0.5172  1.0832  0.1303
  836MOL0     C12739   7.515  11.165  11.511 -0.3893  0.1042 -0.5713
  836MOL0     C12740   7.483  11.195  11.651  0.0389  0.1768  0.1357
  836MOL0     C12741   7.332  11.214  11.674  0.5958 -0.9440 -1.1806
  836MOL0     N12742   7.313  11.244  11.812 -0.0593 -0.4497  0.6583
  836MOL0     C12743   7.266  11.162  11.912  0.1477 -0.6737 -0.1802
  836MOL0     C12744   7.272  11.237  12.031  0.1351  0.1940  0.4143
  836MOL0     C12745   7.234  11.189  12.171 -0.2801 -0.1719  0.4052
  836MOL0     C12746   7.363  11.174  12.260  0.0783  0.8401 -0.0052
  836MOL0     C12747   7.401  11.030  12.283  0.0368  0.6783  0.6104
  836MOL0     C12748   7.404  10.920  12.177  0.1676  0.3480 -0.2374
  836MOL0     O12749   7.448  10.990  12.055  0.2185  0.0076  0.3065
  836MOL0     C12750   7.584  10.996  12.033 -0.5765 -0.6966 -0.2330
  836MOL0     C12751   7.642  11.121  12.011 -0.3146  0.2972  0.0162
  836MOL0     C12752   7.784  11.132  11.973 -0.1634  0.8252 -0.0087
  836MOL0     C12753   7.837  11.277  11.963 -0.1565 -0.0750  0.8456
  836MOL0     C12754   7.862  11.012  11.971  0.2273  0.3481 -0.2546
  836MOL0     C12755   8.009  11.007  11.939  0.7838  0.2740 -0.8014
  836MOL0     O12756   8.062  10.882  11.945 -0.1224 -0.4848  0.0861
  836MOL0     C12757   8.189  10.864  11.900 -0.7716  0.3408 -0.3515
  836MOL0     C12758   8.248  10.929  11.788 -0.2007  0.2016 -1.0022
  836MOL0     C12759   8.374  10.906  11.747 -0.2897 -0.5640  0.4674
  836MOL0     C12760   8.451  10.804  11.803  0.0588  0.0994 -0.6570
  836MOL0     O12761   8.570  10.752  11.762  0.7663  0.5693  0.6686
  836MOL0     C12762   8.648  10.814  11.656  0.8369 -0.5519  0.0334
  836MOL0     C12763   8.790  10.763  11.653  0.2357  0.6998 -0.0501
  836MOL0     C12764   8.803  10.609  11.658  0.4827 -0.1503 -0.0914
  836MOL0     C12765   8.937  10.549  11.613 -0.1871  0.0655  0.8411
  836MOL0     C12766   8.932  10.403  11.565  0.0324  0.2122  0.3789
  836MOL0     C12767   9.054  10.345  11.485 -0.0821  0.8855  0.1611
  836MOL0     C12768   9.198  10.367  11.540  0.2939  0.5379  0.2688
  836MOL0     C12769   9.226  10.316  11.684  0.5479  0.1778  0.4908
  836MOL0    Cl12770   9.399  10.284  11.709  0.3203 -0.1555 -0.2318
  836MOL0     C12771   8.388  10.728  11.906  0.5877  0.6727 -0.4218
  836MOL0     C12772   8.265  10.768  11.963  0.4817 -1.1609  0.6028
  836MOL0     O12773   8.060  11.113  11.914 -0.5603  0.1922  0.0381
  836MOL0     C12774   7.793  10.889  11.987  0.1510  0.2933  0.6285
  836MOL0     C12775   7.662  10.880  12.029  0.5851  0.6854  0.2085
  836MOL0     N12776   7.299  11.367  11.995  0.8048 -0.2776  0.1542
  836MOL0     N12777   7.332  11.373  11.867 -0.2470 -0.3810  0.5740
  836MOL0     C12778   8.456  11.081  11.449  0.1170 -1.1330 -0.0571
  836MOL0     C12779   8.572  11.030  11.383 -0.0715 -0.2929 -0.2136
  836MOL0     C12780   8.917  10.976  11.139  0.1625  0.3622 -0.0285
  836MOL0     C12781   9.042  10.944  11.186  0.8697 -0.0911 -0.3701
  836MOL0     C12782   9.160  10.961  11.123  0.2825  0.5491  0.2193
  836MOL0     C12783   9.153  11.023  11.002 -1.1657 -0.0448  1.2641
  836MOL0     O12784   9.273  11.052  10.943  0.4961 -0.1370 -0.3813
  836MOL0     C12785   9.296  11.169  10.861  0.3728 -0.2682 -0.0064
  836MOL0     C12786   9.440  11.167  10.806  0.2047  0.4299 -0.7172
  836MOL0     C12787   9.543  11.134  10.915 -0.0350 -0.0800 -0.2139
  836MOL0     C12788   9.587  10.987  10.910 -0.6618  0.2900 -0.9162
  836MOL0     C12789   9.728  10.979  10.885 -0.8011 -0.2090  1.1014
  836MOL0     C12790   9.849  10.979  10.872 -0.6052  0.5620  0.4001
  836MOL0     C12791   9.033  11.058  10.937  0.4936  0.4363 -0.8226
  836MOL0     C12792   8.913  11.046  11.015 -0.0732 -0.1296  0.4319
  836MOL0     H12793   8.450  11.016  11.058 -2.5294  0.5887 -0.3472
  836MOL0     H12794   8.234  11.048  11.192  1.0412  0.7108 -1.9246
  836MOL0     H12795   8.077  11.009  11.330  0.3661  3.2639 -0.1445
  836MOL0     H12796   8.150  10.920  11.467 -2.4381 -0.8512  1.0088
  836MOL0     H12797   8.009  11.015  11.625 -0.7229 -2.0001 -0.2280
  836MOL0     H12798   7.965  11.154  11.511 -0.5578 -0.5976 -0.0365
  836MOL0     H12799   7.856  10.995  11.367  1.4603  0.7382 -0.5047
  836MOL0     H12800   7.877  10.867  11.472 -1.7476  0.3959 -0.7108
  836MOL0     H12801   7.667  10.934  11.546  1.2363 -0.6692 -1.9077
  836MOL0     H12802   7.773  11.032  11.652  1.9344 -0.8641 -1.1542
  836MOL0     H12803   7.733  11.234  11.498 -0.2728  0.9770 -0.2304
  836MOL0     H12804   7.671  11.147  11.372  0.0403  0.7542  0.1377
  836MOL0     H12805   7.484  11.243  11.440  1.5436  1.2498 -0.2388
  836MOL0     H12806   7.447  11.084  11.485 -1.0845 -0.4027  2.4607
  836MOL0     H12807   7.518  11.114  11.716  1.0357  0.5034  0.0213
  836MOL0     H12808   7.532  11.291  11.673 -1.7226  1.4648 -1.2825
  836MOL0     H12809   7.271  11.129  11.644  0.3000 -0.8837 -0.7601
  836MOL0     H12810   7.297  11.300  11.617  3.6470 -0.4272 -2.5155
  836MOL0     H12811   7.221  11.064  11.900  1.8047 -1.9287  2.8081
  836MOL0     H12812   7.174  11.266  12.220 -0.0691  1.4526 -1.7337
  836MOL0     H12813   7.174  11.098  12.173  1.2902 -1.2683 -0.2746
  836MOL0     H12814   7.353  11.219  12.359  0.0461 -1.9327  1.3274
  836MOL0     H12815   7.444  11.233  12.214 -0.5004  0.5433 -1.4530
  836MOL0     H12816   7.330  10.987  12.354 -0.1048  0.3621  0.2820
  836MOL0     H12817   7.497  11.028  12.335  2.8941 -1.0781 -4.0697
  836MOL0     H12818   7.298  10.899  12.165 -0.1944  1.0571  1.4838
  836MOL0     H12819   7.450  10.825  12.204  0.7510  1.6256  4.0193
  836MOL0     H12820   7.577  11.207  12.003 -0.3384  0.1460 -1.8874
  836MOL0     H12821   7.862  11.304  11.860 -0.8876  0.1829  0.7307
  836MOL0     H12822   7.762  11.346  12.001 -1.0805 -1.2527  1.2283
  836MOL0     H12823   7.921  11.301  12.029 -1.4157  2.2744  1.6956
  836MOL0     H12824   8.186  10.987  11.720 -0.6667  0.0955 -0.6671
  836MOL0     H12825   8.414  10.958  11.661 -3.5165 -0.5900 -1.1947
  836MOL0     H12826   8.612  10.803  11.553 -1.2552  2.2624  0.3544
  836MOL0     H12827   8.652  10.920  11.680  2.5677 -0.8169  1.0977
  836MOL0     H12828   8.829  10.803  11.559 -1.3874  2.8140  0.1012
  836MOL0     H12829   8.841  10.796  11.743 -1.4295 -0.2464  1.3020
  836MOL0     H12830   8.719  10.571  11.598 -0.0224 -0.3392  0.7168
  836MOL0     H12831   8.788  10.577  11.762  1.3815 -0.3754 -0.0251
  836MOL0     H12832   8.980  10.598  11.524  1.4946  1.7400  2.4682
  836MOL0     H12833   9.012  10.564  11.691 -2.1236  1.5824  2.5108
  836MOL0     H12834   8.852  10.378  11.495  3.7542 -2.3817 -3.4793
  836MOL0     H12835   8.903  10.346  11.654 -0.1088  0.9523  0.8166
  836MOL0     H12836   9.027  10.239  11.474 -2.2025  1.6502 -3.7650
  836MOL0     H12837   9.063  10.386  11.385  1.1692  1.7911  0.6159
  836MOL0     H12838   9.227  10.472  11.534 -2.7035  1.3764 -3.6002
  836MOL0     H12839   9.269  10.334  11.463  0.1116  3.2794 -1.1754
  836MOL0     H12840   9.170  10.222  11.694  0.2924  0.0040 -1.9636
  836MOL0     H12841   9.188  10.392  11.754 -0.2450 -1.3368  1.7857
  836MOL0     H12842   8.442  10.643  11.945  0.4084 -0.7363 -2.9972
  836MOL0     H12843   8.224  10.718  12.050 -2.0553  0.3974  0.4028
  836MOL0     H12844   7.845  10.793  11.992  1.1399  0.4908 -2.9683
  836MOL0     H12845   7.608  10.791  12.061 -1.1201  1.4604 -0.3695
  836MOL0     H12846   8.462  11.110  11.553 -0.8073 -0.3616 -0.2072
  836MOL0     H12847   8.665  11.034  11.439 -0.6654 -1.3543  0.8716
  836MOL0     H12848   9.042  10.895  11.282  3.9555  0.0966 -0.1910
  836MOL0     H12849   9.254  10.926  11.166  1.5956  0.3858 -2.5823
  836MOL0     H12850   9.223  11.171  10.780  0.2824  2.9627  0.0160
  836MOL0     H12851   9.292  11.262  10.918 -2.1124 -0.9395  1.0203
  836MOL0     H12852   9.474  11.259  10.758 -1.5541  0.6037 -1.7361
  836MOL0     H12853   9.442  11.089  10.729  0.4018 -2.2028  1.7958
  836MOL0     H12854   9.500  11.157  11.013  0.3762 -1.0311  0.2002
  836MOL0     H12855   9.628  11.202  10.906  0.8209 -1.2022 -0.8266
  836MOL0     H12856   9.524  10.929  10.843 -2.2276  0.8193  0.0436
  836MOL0     H12857   9.576  10.945  11.010 -2.9384 -0.9385 -1.6096
  836MOL0     H12858   9.955  10.986  10.880 -0.5323  0.5611 -0.4759
  836MOL0     H12859   9.035  11.117  10.845 -1.3861  1.4598 -0.2464
  836MOL0     H12860   8.816  11.073  10.976  0.1088 -0.4923 -0.2901
  837MOL0     O12861   6.457  10.446   4.533  0.2807  0.4195 -0.0556
  837MOL0     C12862   6.416  10.558   4.500 -0.6417  0.1417  0.6026
  837MOL0     O12863   6.504  10.659   4.466 -0.0664 -0.0384 -0.0678
  837MOL0     C12864   6.635  10.633   4.500  0.4376 -0.4267  0.5233
  837MOL0     C12865   6.680  10.612   4.635  0.3038  1.0930  0.2525
  837MOL0     C12866   6.814  10.590   4.658 -0.6166  0.3398 -1.2117
  837MOL0     C12867   6.909  10.572   4.566 -0.6519  0.0686  1.0613
  837MOL0     O12868   7.040  10.556   4.608  0.2917  0.9233 -0.4227
  837MOL0     C12869   7.137  10.528   4.511  0.1414 -0.3661  0.7571
  837MOL0     C12870   7.273  10.522   4.583 -0.0701  0.1912  0.6735
  837MOL0     C12871   7.307  10.387   4.646  0.0325  0.3008  0.6336
  837MOL0     C12872   7.313  10.408   4.798 -0.3532  0.1041 -1.4104
  837MOL0     C12873   7.380  10.285   4.863 -0.1425  0.1342  0.0761
  837MOL0     C12874   7.367  10.294   5.021  0.0622  0.0773  0.2272
  837MOL0     C12875   7.441  10.174   5.087  0.1626 -0.6639 -0.1237
  837MOL0     C12876   7.363  10.045   5.061 -0.5495  0.3241  0.1572
  837MOL0     N12877   7.233  10.048   5.114 -0.1248 -0.1886 -0.2267
  837MOL0     C12878   7.111  10.032   5.061  0.7073 -0.1468  0.5779
  837MOL0     C12879   7.028  10.024   5.167 -0.3379 -0.0330 -0.3527
  837MOL0     C12880   6.879  10.025   5.163  0.5439  0.1511  0.3046
  837MOL0     C12881   6.810  10.152   5.113 -0.2347  0.0974 -0.1129
  837MOL0     C12882   6.704  10.117   5.002  0.2665 -0.1259  0.5355
  837MOL0     C12883   6.594  10.229   4.976 -1.4085 -0.2486  0.0599
  837MOL0     O12884   6.474  10.167   4.925 -0.1275 -0.3731 -0.9023
  837MOL0     C12885   6.360  10.242   4.900 -0.1358  0.5619  0.4688
  837MOL0     C12886   6.238  10.181   4.922  0.0804 -0.4301 -0.6188
  837MOL0     C12887   6.116  10.258   4.921  0.8224  0.0047  0.3944
  837MOL0     C12888   5.986  10.204   4.972 -0.0040 -0.3806 -0.0761
  837MOL0     C12889   6.117  10.381   4.847 -0.0327 -0.1902 -0.8615
  837MOL0     C12890   5.996  10.449   4.805 -0.1594 -0.8837  0.4762
  837MOL0     O12891   5.997  10.586   4.813  0.2841 -0.2485 -0.4861
  837MOL0     C12892   5.885  10.656   4.768 -0.2767 -0.8087  0.6577
  837MOL0     C12893   5.754  10.643   4.811  0.4210 -0.4285  0.2411
  837MOL0     C12894   5.651  10.719   4.754  0.7697  0.5097  0.0673
  837MOL0     C12895   5.680  10.821   4.673  0.4012 -0.3896 -0.1954
  837MOL0     O12896   5.576  10.895   4.636 -0.2736  0.1272  0.0076
  837MOL0     C12897   5.599  11.018   4.555 -0.0493  0.1498 -0.3058
  837MOL0     C12898   5.465  11.091   4.553 -0.1992  0.0663  0.7223
  837MOL0     C12899   5.348  11.006   4.495  0.0988 -0.1665 -0.4811
  837MOL0     C12900   5.213  11.076   4.516 -0.6177  1.1207 -0.4644
  837MOL0     C12901   5.100  10.996   4.473  0.8800  0.5165 -0.7433
  837MOL0     C12902   5.119  10.929   4.327  0.5409 -0.3357 -0.0164
  837MOL0     C12903   5.000  10.854   4.283  0.5193  0.4412  0.0702
  837MOL0     C12904   5.021  10.789   4.147  0.0839  0.7352  0.0104
  837MOL0    Cl12905   4.877  10.678   4.127  0.1251  0.2901 -0.5423
  837MOL0     C12906   5.816  10.848   4.644  0.4748 -0.1991  0.0424
  837MOL0     C12907   5.918  10.761   4.691  0.2398 -0.2452  0.2367
  837MOL0     O12908   5.907  10.387   4.751 -0.4664  0.4780  0.3269
  837MOL0     C12909   6.241  10.428   4.822 -0.4309  0.0185 -0.0283
  837MOL0     C12910   6.360  10.367   4.847  0.1529 -0.1649 -0.3303
  837MOL0     N12911   7.096  10.030   5.288 -0.8406 -0.6991 -0.1585
  837MOL0     N12912   7.218  10.039   5.251  0.6101  0.2530  0.0800
  837MOL0     C12913   6.866  10.591   4.436 -0.6542  0.4802  0.3690
  837MOL0     C12914   6.726  10.616   4.405 -0.4216  0.4241 -0.1506
  837MOL0     C12915   6.270  10.581   4.484  0.2544  0.5531 -1.0035
  837MOL0     C12916   6.223  10.701   4.431 -0.0495 -0.4881  0.7768
  837MOL0     C12917   6.091  10.724   4.400  0.4912  0.2958  0.5036
  837MOL0     C12918   5.996  10.620   4.419 -0.1132  0.0645 -0.3501
  837MOL0     O12919   5.862  10.653   4.389 -0.1808 -0.2454 -0.4436
  837MOL0     C12920   5.750  10.567   4.416 -0.1154  0.3289  0.6405
  837MOL0     C12921   5.732  10.500   4.278  0.3095 -0.1947 -0.4623
  837MOL0     C12922   5.661  10.376   4.289  0.2917 -0.0068  0.1955
  837MOL0     C12923   5.602  10.302   4.168  0.3361  0.1353  0.2263
  837MOL0     C12924   5.495  10.384   4.101  0.1652 -0.1197 -0.8988
  837MOL0     C12925   5.410  10.456   4.044 -0.2327  0.3830 -0.2444
  837MOL0     C12926   6.043  10.499   4.477  1.1951 -0.3960  0.7794
  837MOL0     C12927   6.171  10.483   4.512 -0.3198 -0.2814 -0.0554
  837MOL0     H12928   6.607  10.623   4.715 -1.5779  0.6009 -1.3136
  837MOL0     H12929   6.842  10.579   4.762 -1.5694 -2.8512 -1.1679
  837MOL0     H12930   7.128  10.436   4.453  1.1537 -1.1925  1.8496
  837MOL0     H12931   7.146  10.607   4.436  1.5168 -0.5056  0.7416
  837MOL0     H12932   7.346  10.547   4.506 -0.9822  4.7410  0.9877
  837MOL0     H12933   7.284  10.594   4.665 -3.4431 -0.3034  1.7171
  837MOL0     H12934   7.227  10.317   4.623  0.8857 -0.2314 -0.8489
  837MOL0     H12935   7.388  10.342   4.588  0.5720  1.6666  0.2784
  837MOL0     H12936   7.374  10.494   4.828 -0.1524 -0.8125  1.0132
  837MOL0     H12937   7.210  10.418   4.832 -0.3879 -0.2981 -1.3983
  837MOL0     H12938   7.345  10.186   4.834 -1.1101 -0.2891  2.4018
  837MOL0     H12939   7.487  10.294   4.842  0.6117  0.5075  3.4351
  837MOL0     H12940   7.415  10.388   5.050 -0.3120  0.3578 -0.0521
  837MOL0     H12941   7.263  10.307   5.052  0.4467 -1.1401  2.1814
  837MOL0     H12942   7.533  10.158   5.029 -1.4526  0.0568 -3.0936
  837MOL0     H12943   7.462  10.191   5.193 -1.5599 -1.7974  0.4410
  837MOL0     H12944   7.417   9.974   5.124  0.0534 -1.2641 -2.0513
  837MOL0     H12945   7.366  10.015   4.956 -2.8153  0.7515 -0.0769
  837MOL0     H12946   7.079  10.042   4.957 -0.9161  0.0888  1.0686
  837MOL0     H12947   6.859   9.944   5.092 -1.1078 -2.4569  3.4628
  837MOL0     H12948   6.839   9.997   5.261 -0.0566  2.3448  0.7286
  837MOL0     H12949   6.885  10.218   5.067  1.4397 -2.9266 -2.0469
  837MOL0     H12950   6.762  10.184   5.206 -1.8357 -2.9072  0.2228
  837MOL0     H12951   6.651  10.024   5.021  1.1509 -0.4070  1.6851
  837MOL0     H12952   6.765  10.097   4.913 -0.0079  1.1000  0.0427
  837MOL0     H12953   6.630  10.303   4.904 -0.0192  0.0032  0.9646
  837MOL0     H12954   6.591  10.280   5.073  0.1458  0.3335 -0.1628
  837MOL0     H12955   6.232  10.078   4.957 -0.9825 -0.5586 -1.1457
  837MOL0     H12956   5.926  10.147   4.900  2.5730 -1.3466 -1.5830
  837MOL0     H12957   6.017  10.139   5.054 -0.7208 -0.9177 -0.2223
  837MOL0     H12958   5.925  10.290   5.003  1.6769  0.8814 -0.1176
  837MOL0     H12959   5.728  10.558   4.872  0.7988 -1.4784 -1.0109
  837MOL0     H12960   5.550  10.706   4.792  1.0426  0.0609  0.6289
  837MOL0     H12961   5.672  11.083   4.604 -0.9981 -0.1748  1.6150
  837MOL0     H12962   5.628  10.973   4.460  1.3516 -4.3984  1.9722
  837MOL0     H12963   5.443  11.118   4.657 -0.7150  0.4410  0.5215
  837MOL0     H12964   5.477  11.178   4.487  0.1769  0.6848  1.5839
  837MOL0     H12965   5.348  10.904   4.536  1.0401 -0.4935 -1.2783
  837MOL0     H12966   5.374  10.989   4.391  2.2276 -2.2360  0.3079
  837MOL0     H12967   5.205  11.103   4.621  1.9549  0.4139 -0.0043
  837MOL0     H12968   5.222  11.164   4.452  0.8191 -0.1369 -2.0853
  837MOL0     H12969   5.008  11.053   4.483 -1.7395 -3.5863  1.8372
  837MOL0     H12970   5.085  10.920   4.550 -0.0375  0.5122 -0.9158
  837MOL0     H12971   5.120  11.016   4.261 -3.4637  2.2976  2.9211
  837MOL0     H12972   5.206  10.862   4.329  0.5270 -0.3435  1.4718
  837MOL0     H12973   4.917  10.924   4.270  0.5065  0.6200  1.0534
  837MOL0     H12974   4.978  10.783   4.363 -0.0023  1.1002  0.5136
  837MOL0     H12975   5.111  10.727   4.138 -2.1159 -2.3398 -3.9573
  837MOL0     H12976   5.025  10.860   4.064  0.3659 -0.9632 -1.4686
  837MOL0     H12977   5.835  10.937   4.585  0.9084 -1.3987 -1.6598
  837MOL0     H12978   6.016  10.802   4.669 -0.1040 -1.0897 -3.4966
  837MOL0     H12979   6.235  10.516   4.758  0.2969  0.3472  0.3407
  837MOL0     H12980   6.460  10.402   4.821 -0.4467  1.0702 -1.0303
  837MOL0     H12981   6.941  10.568   4.361 -0.9019  1.2814 -0.1453
  837MOL0     H12982   6.706  10.636   4.300  1.5368  1.7778 -0.3168
  837MOL0     H12983   6.290  10.780   4.402 -3.0239  1.2012 -2.1602
  837MOL0     H12984   6.055  10.809   4.343  3.3067  1.8367  0.8420
  837MOL0     H12985   5.774  10.493   4.492  0.2814 -0.5677 -0.3372
  837MOL0     H12986   5.667  10.628   4.453 -0.7248  0.1752 -0.4544
  837MOL0     H12987   5.832  10.493   4.234  2.3938 -1.5315  3.9316
  837MOL0     H12988   5.673  10.569   4.216  0.0900 -0.0749 -0.1234
  837MOL0     H12989   5.575  10.393   4.355 -0.2020 -0.3514 -0.3452
  837MOL0     H12990   5.728  10.300   4.331  1.0590 -1.4688 -3.3465
  837MOL0     H12991   5.559  10.207   4.199  1.5847 -0.0282  1.5676
  837MOL0     H12992   5.682  10.274   4.100  1.5854  0.7842  1.3682
  837MOL0     H12993   5.331  10.510   3.998 -0.1728 -0.1512 -1.0084
  837MOL0     H12994   5.970  10.423   4.504 -2.4912  2.3894 -0.3752
  837MOL0     H12995   6.209  10.396   4.564  0.7966 -0.3069 -0.8619
  838MOL0     O12996  10.944  10.516   3.147  0.0374  0.4481  0.1651
  838MOL0     C12997  10.932  10.394   3.135  0.7097 -0.3263  0.2739
  838MOL0     O12998  10.816  10.321   3.107 -0.2099  0.1002 -0.1217
  838MOL0     C12999  10.693  10.380   3.082 -0.3330  0.1711  0.0896
  838MOL0     C13000  10.594  10.286   3.044  0.2264  0.0249  0.3140
  838MOL0     C13001  10.466  10.334   3.001 -0.2725  0.2130 -0.5451
  838MOL0     C13002  10.422  10.460   3.019 -0.2896 -0.1054  0.6798
  838MOL0     O13003  10.290  10.493   2.999 -0.2366  0.4515  0.1905
  838MOL0     C13004  10.261  10.629   2.945  0.5280  0.3133  0.1774
  838MOL0     C13005  10.182  10.708   3.044  0.1699 -0.4530  0.2659
  838MOL0     C13006  10.150  10.850   2.997  0.0442  0.1881  0.1303
  838MOL0     C13007  10.040  10.907   3.075 -0.9858  0.1151 -0.0238
  838MOL0     C13008   9.991  11.047   3.033  0.0849 -0.6555 -0.3151
  838MOL0     C13009   9.863  11.083   3.101 -0.2857  0.1046 -0.4508
  838MOL0     C13010   9.823  11.225   3.063  0.2397 -0.0338 -0.4004
  838MOL0     C13011   9.760  11.237   2.924 -0.0428 -0.1901 -0.2341
  838MOL0     N13012   9.625  11.175   2.923  0.6086  0.7280  0.6519
  838MOL0     C13013   9.592  11.055   2.869  0.8319  0.3185 -0.5487
  838MOL0     C13014   9.459  11.044   2.882 -0.3330 -0.1446 -0.4744
  838MOL0     C13015   9.367  10.933   2.845  0.6163  0.4329  0.4268
  838MOL0     C13016   9.380  10.821   2.953 -0.2777 -0.3970  0.4729
  838MOL0     C13017   9.279  10.717   2.925  0.0497  0.4809 -0.0812
  838MOL0     C13018   9.271  10.625   3.048 -0.7053 -0.7157  0.3632
  838MOL0     O13019   9.201  10.507   2.998 -0.2977 -0.2351 -0.0928
  838MOL0     C13020   9.067  10.520   2.992  0.1638  0.4341 -0.3410
  838MOL0     C13021   9.000  10.461   2.888 -0.1068  0.2358 -0.3369
  838MOL0     C13022   8.867  10.468   2.859 -0.3909 -0.8883 -1.3519
  838MOL0     C13023   8.822  10.381   2.754  0.2232 -0.4583 -0.1726
  838MOL0     C13024   8.790  10.552   2.946 -0.5444 -0.9983  0.3152
  838MOL0     C13025   8.642  10.576   2.926 -0.4045 -0.7603  0.3215
  838MOL0     O13026   8.582  10.520   2.814 -0.4233 -0.1247 -0.2871
  838MOL0     C13027   8.445  10.520   2.789 -0.2750 -0.4489 -0.0679
  838MOL0     C13028   8.353  10.618   2.829 -0.9209 -0.3051 -1.0187
  838MOL0     C13029   8.221  10.611   2.785  0.0992 -0.4597 -0.4675
  838MOL0     C13030   8.175  10.503   2.712 -0.0371  0.8138 -0.5331
  838MOL0     O13031   8.045  10.480   2.674  0.2964  0.8688 -0.1356
  838MOL0     C13032   7.950  10.576   2.699 -0.6008 -0.2014 -0.1653
  838MOL0     C13033   7.827  10.529   2.611  0.0430  0.8541 -1.0030
  838MOL0     C13034   7.711  10.618   2.625 -0.2493  1.1375  0.8736
  838MOL0     C13035   7.604  10.579   2.514  0.2343  0.8995  0.4123
  838MOL0     C13036   7.503  10.695   2.527  0.1565 -0.1845  0.0426
  838MOL0     C13037   7.391  10.679   2.421  0.0479 -0.3594  0.3847
  838MOL0     C13038   7.265  10.751   2.440  0.2932  0.4174 -0.3476
  838MOL0     C13039   7.158  10.702   2.335  0.1627 -0.1739 -0.3400
  838MOL0    Cl13040   7.194  10.750   2.174 -0.2443 -0.2306  0.3752
  838MOL0     C13041   8.263  10.395   2.689 -0.3673  0.7665  0.5516
  838MOL0     C13042   8.399  10.409   2.721  0.0013  0.3866  0.0457
  838MOL0     O13043   8.582  10.643   3.016  0.8089  0.9046  0.2731
  838MOL0     C13044   8.858  10.628   3.046 -0.6107  1.0421 -0.2895
  838MOL0     C13045   8.991  10.603   3.075 -0.1303  0.6571 -0.8424
  838MOL0     N13046   9.415  11.145   2.959  0.4591 -0.3161  0.7376
  838MOL0     N13047   9.515  11.230   2.980 -0.1080  0.5793  0.0151
  838MOL0     C13048  10.520  10.550   3.059  0.0405  0.2247 -0.4253
  838MOL0     C13049  10.654  10.513   3.099 -0.4929  0.6575  0.5941
  838MOL0     C13050  11.064  10.323   3.131  0.3206  0.3891  0.2957
  838MOL0     C13051  11.175  10.371   3.191 -1.0026  0.1499 -0.8062
  838MOL0     C13052  11.303  10.316   3.174 -0.4628  0.5838 -0.3557
  838MOL0     C13053  11.317  10.207   3.088  0.5382 -0.3846 -0.9978
  838MOL0     O13054  11.450  10.172   3.074  0.1597 -0.9693  0.4083
  838MOL0     C13055  11.488  10.111   2.943 -0.2144  0.8378 -0.2063
  838MOL0     C13056  11.637  10.077   2.945  0.3033  0.6604  0.2573
  838MOL0     C13057  11.671   9.947   3.017 -0.6333 -0.4856  0.5417
  838MOL0     C13058  11.831   9.908   3.014 -0.0511 -0.1450 -0.1197
  838MOL0     C13059  11.859   9.764   3.038  0.1020 -0.3489  0.1918
  838MOL0     C13060  11.883   9.649   3.045 -0.7239  0.0630 -0.2448
  838MOL0     C13061  11.206  10.162   3.015 -0.4104 -0.0525 -1.0714
  838MOL0     C13062  11.079  10.214   3.044  0.0136 -0.6030  0.4344
  838MOL0     H13063  10.617  10.180   3.044  1.2988  0.2314  1.5585
  838MOL0     H13064  10.399  10.256   2.968  0.7371 -1.0140  0.2078
  838MOL0     H13065  10.349  10.688   2.917  0.9489  1.3652  3.3117
  838MOL0     H13066  10.195  10.606   2.861  2.3154 -2.3741 -0.6085
  838MOL0     H13067  10.095  10.646   3.067  1.0216 -2.4443 -1.4215
  838MOL0     H13068  10.243  10.714   3.134  0.3213  0.1851  0.1228
  838MOL0     H13069  10.234  10.920   3.008  1.3515 -0.7158 -2.9328
  838MOL0     H13070  10.123  10.842   2.891  2.0680 -2.5978 -0.2804
  838MOL0     H13071   9.956  10.836   3.071  0.5179 -1.9469  2.1717
  838MOL0     H13072  10.067  10.919   3.180 -1.0872 -0.7967  0.1154
  838MOL0     H13073  10.064  11.127   3.050  0.6111 -1.5716  2.1432
  838MOL0     H13074   9.963  11.039   2.928  0.9478 -1.3013 -0.4998
  838MOL0     H13075   9.793  11.002   3.081 -1.3481  1.3411 -2.0315
  838MOL0     H13076   9.891  11.093   3.206  0.2750  0.3000 -0.6141
  838MOL0     H13077   9.756  11.264   3.140  0.6814 -0.1034  0.0207
  838MOL0     H13078   9.914  11.286   3.067  2.0481 -2.3866 -2.5734
  838MOL0     H13079   9.821  11.185   2.850 -0.1250 -0.9546  0.2198
  838MOL0     H13080   9.749  11.345   2.910 -0.6121 -0.1035  0.7714
  838MOL0     H13081   9.657  10.989   2.812 -0.2510 -1.7352  0.5272
  838MOL0     H13082   9.267  10.976   2.851  0.6502  0.4012  1.3729
  838MOL0     H13083   9.393  10.890   2.748 -1.0951 -1.8295  0.8800
  838MOL0     H13084   9.348  10.872   3.044  2.2299  0.8874  0.7219
  838MOL0     H13085   9.484  10.790   2.965  0.4527  2.7237  4.2744
  838MOL0     H13086   9.301  10.672   2.828  2.7167  1.2315  0.1164
  838MOL0     H13087   9.174  10.748   2.918 -0.3690 -0.1112  2.4299
  838MOL0     H13088   9.235  10.673   3.139  1.2548 -0.3662  1.0235
  838MOL0     H13089   9.373  10.592   3.071 -0.7857 -0.1567  1.6282
  838MOL0     H13090   9.062  10.411   2.815  0.5254 -2.3638  1.8138
  838MOL0     H13091   8.783  10.445   2.674 -2.1905  3.2857  3.5603
  838MOL0     H13092   8.903  10.323   2.709 -1.2611 -1.4192 -1.7376
  838MOL0     H13093   8.745  10.309   2.785  1.5104 -0.4877  3.4410
  838MOL0     H13094   8.389  10.707   2.880 -2.2602  0.8570 -2.0093
  838MOL0     H13095   8.164  10.702   2.805  2.1799  0.6491  0.8400
  838MOL0     H13096   7.930  10.584   2.807 -0.4598 -1.7918  0.0077
  838MOL0     H13097   7.983  10.676   2.669 -0.0037  0.0440  1.2427
  838MOL0     H13098   7.870  10.515   2.511 -0.1149  0.3911 -1.0104
  838MOL0     H13099   7.802  10.427   2.643  1.2023  0.3257 -1.7351
  838MOL0     H13100   7.751  10.719   2.613  2.2912 -0.0381 -2.1778
  838MOL0     H13101   7.662  10.604   2.721  0.7931 -3.9660  0.9217
  838MOL0     H13102   7.633  10.583   2.409  0.6369  1.7812  0.5507
  838MOL0     H13103   7.569  10.476   2.531  1.3465  0.6014  1.0581
  838MOL0     H13104   7.543  10.796   2.520 -1.5028  0.4477 -0.7178
  838MOL0     H13105   7.454  10.697   2.625 -1.0001 -0.6518 -0.5071
  838MOL0     H13106   7.431  10.708   2.323 -0.6574  3.5760  1.0817
  838MOL0     H13107   7.370  10.573   2.409  3.1267 -0.8808 -1.7732
  838MOL0     H13108   7.287  10.858   2.432 -0.9387  0.5337 -3.2332
  838MOL0     H13109   7.233  10.732   2.544 -1.7114  1.7124 -0.6555
  838MOL0     H13110   7.058  10.735   2.365 -1.3544 -1.5125 -3.4282
  838MOL0     H13111   7.144  10.593   2.329  0.3039 -0.1668 -0.8589
  838MOL0     H13112   8.236  10.314   2.622  0.7109  1.3361 -0.6196
  838MOL0     H13113   8.469  10.332   2.689 -1.3751 -0.8751  0.0063
  838MOL0     H13114   8.806  10.701   3.106 -1.9342  0.2524 -0.4436
  838MOL0     H13115   9.023  10.657   3.164  1.6663 -1.2139 -0.2966
  838MOL0     H13116  10.479  10.650   3.072 -2.0959 -0.5771 -0.5468
  838MOL0     H13117  10.712  10.589   3.149  4.2306 -0.9769 -1.8327
  838MOL0     H13118  11.169  10.469   3.237 -1.4704  0.3654 -1.3131
  838MOL0     H13119  11.386  10.371   3.217 -2.0031  2.2653  0.6327
  838MOL0     H13120  11.428  10.020   2.953  0.7099  0.4073  1.9633
  838MOL0     H13121  11.452  10.164   2.855 -3.1637  0.5046  0.6776
  838MOL0     H13122  11.682  10.163   2.996  1.7509 -0.9938  1.9163
  838MOL0     H13123  11.672  10.074   2.842 -0.4586  2.0984 -0.0723
  838MOL0     H13124  11.616   9.869   2.962 -0.3838  0.6758 -1.4296
  838MOL0     H13125  11.636   9.943   3.121 -1.1883 -0.8756  0.3491
  838MOL0     H13126  11.877   9.958   3.100  2.2552  0.7315 -1.7821
  838MOL0     H13127  11.878   9.958   2.929 -2.7385  1.1647 -0.9502
  838MOL0     H13128  11.910   9.546   3.049  3.5686  0.9848  3.0477
  838MOL0     H13129  11.213  10.082   2.942 -3.1643 -0.6105 -0.8077
  838MOL0     H13130  10.988  10.176   3.000 -0.8361  0.5968  1.1186
  839MOL0     O13131   7.668   5.411   9.477 -0.0753 -0.9220  0.5919
  839MOL0     C13132   7.728   5.494   9.547 -0.6865 -0.7668 -0.0569
  839MOL0     O13133   7.669   5.593   9.623 -0.6128 -0.4183 -0.5454
  839MOL0     C13134   7.528   5.601   9.648 -0.2076  0.7043  0.4496
  839MOL0     C13135   7.423   5.590   9.552 -0.3529  0.2779  0.4942
  839MOL0     C13136   7.288   5.593   9.597  0.6394 -0.1130  1.2948
  839MOL0     C13137   7.254   5.614   9.726  0.0972  0.6713 -0.0137
  839MOL0     O13138   7.124   5.599   9.769 -0.1224  0.4015  0.5328
  839MOL0     C13139   7.095   5.597   9.910 -1.0253  0.1659  0.2311
  839MOL0     C13140   6.947   5.585   9.917  0.1159  0.1390  0.0667
  839MOL0     C13141   6.906   5.580  10.059  0.4312 -0.9001 -0.2761
  839MOL0     C13142   6.779   5.494  10.074  0.0532 -0.1397 -0.2936
  839MOL0     C13143   6.711   5.534  10.206 -0.0796  0.2104 -0.4000
  839MOL0     C13144   6.588   5.451  10.242 -0.0200 -0.3453 -0.4168
  839MOL0     C13145   6.640   5.309  10.276  0.4209  0.2416 -0.0546
  839MOL0     C13146   6.620   5.293  10.431  0.0134 -0.3854  0.2780
  839MOL0     N13147   6.633   5.151  10.467  0.0427 -0.3094  0.8131
  839MOL0     C13148   6.536   5.081  10.537  0.0734  0.7887 -0.1782
  839MOL0     C13149   6.581   4.962  10.530  0.3505  0.2671 -0.3656
  839MOL0     C13150   6.503   4.850  10.586 -0.6390  0.5147  0.6549
  839MOL0     C13151   6.421   4.775  10.480  0.1306 -0.4217 -0.0158
  839MOL0     C13152   6.344   4.650  10.531 -0.3649 -0.5035  0.1838
  839MOL0     C13153   6.251   4.589  10.425  0.3404  0.4677 -0.6070
  839MOL0     O13154   6.172   4.683  10.352  0.1902 -0.3610 -0.3226
  839MOL0     C13155   6.056   4.731  10.404  0.2099 -0.1104  0.1247
  839MOL0     C13156   6.010   4.734  10.542 -0.5425  0.1337 -0.4690
  839MOL0     C13157   5.881   4.769  10.577 -0.1434 -0.7605  0.7949
  839MOL0     C13158   5.851   4.774  10.727 -0.0305 -0.2742  0.1163
  839MOL0     C13159   5.776   4.808  10.480 -0.0765 -0.5291 -0.0978
  839MOL0     C13160   5.631   4.837  10.515  0.4878 -0.5998  0.4861
  839MOL0     O13161   5.584   4.841  10.640 -0.1163 -0.1010 -0.3965
  839MOL0     C13162   5.451   4.825  10.679 -0.0617 -0.2600 -0.2179
  839MOL0     C13163   5.409   4.852  10.806 -0.8189 -0.2587 -0.1202
  839MOL0     C13164   5.285   4.822  10.850 -0.1959  0.0042 -0.2404
  839MOL0     C13165   5.191   4.779  10.759  1.5849  0.3238 -0.1048
  839MOL0     O13166   5.062   4.748  10.804 -0.8902  0.0301 -0.4895
  839MOL0     C13167   4.959   4.699  10.723  0.8652 -0.0121  0.2088
  839MOL0     C13168   4.833   4.677  10.800 -0.2683  0.9474 -0.2690
  839MOL0     C13169   4.737   4.593  10.710 -0.2708  1.0853 -0.1099
  839MOL0     C13170   4.594   4.578  10.766  0.5287  0.0362 -0.3802
  839MOL0     C13171   4.514   4.501  10.673  0.2412 -0.9271 -0.4099
  839MOL0     C13172   4.372   4.458  10.719  0.2913  0.6772  0.6210
  839MOL0     C13173   4.291   4.565  10.794 -0.4365  0.3993 -0.8823
  839MOL0     C13174   4.143   4.542  10.805  0.2135 -0.5031  1.3738
  839MOL0    Cl13175   4.086   4.444  10.940  0.3977 -0.1079  0.0242
  839MOL0     C13176   5.230   4.761  10.629 -0.3644  0.6250  0.1864
  839MOL0     C13177   5.359   4.772  10.589  0.6776  0.3422  0.7079
  839MOL0     O13178   5.565   4.868  10.421 -0.0166  0.2069  1.0824
  839MOL0     C13179   5.823   4.801  10.341 -0.2724 -0.3390 -0.2515
  839MOL0     C13180   5.961   4.777  10.314  0.2109 -0.0350 -0.0169
  839MOL0     N13181   6.694   4.953  10.450 -0.0311  0.0097  0.4657
  839MOL0     N13182   6.727   5.066  10.406  0.3372 -0.3064 -0.5819
  839MOL0     C13183   7.364   5.630   9.817  0.4521 -0.2928  0.5159
  839MOL0     C13184   7.493   5.618   9.775 -0.6445 -0.8941 -0.2057
  839MOL0     C13185   7.879   5.493   9.532 -0.3259 -0.0605  0.5375
  839MOL0     C13186   7.957   5.597   9.585 -0.1888  0.2595 -0.9049
  839MOL0     C13187   8.096   5.597   9.572  1.0046 -0.0434  0.1035
  839MOL0     C13188   8.165   5.503   9.498 -0.2521  0.1770  0.2691
  839MOL0     O13189   8.301   5.517   9.483 -0.4958  0.2830 -0.4518
  839MOL0     C13190   8.376   5.404   9.431 -0.1308  0.4929 -0.0420
  839MOL0     C13191   8.386   5.294   9.536  0.0452 -0.4641 -0.7256
  839MOL0     C13192   8.482   5.342   9.649 -0.0568 -0.1867  0.4411
  839MOL0     C13193   8.534   5.214   9.725 -0.7555  1.0142 -0.2474
  839MOL0     C13194   8.440   5.152   9.820 -1.0651 -0.6021  0.0540
  839MOL0     C13195   8.364   5.101   9.895 -0.9993  0.8745  0.4377
  839MOL0     C13196   8.085   5.397   9.449  0.1858  1.0017 -0.1842
  839MOL0     C13197   7.950   5.394   9.460  0.4956  0.7873 -0.8574
  839MOL0     H13198   7.444   5.574   9.447  1.1179  0.7327  0.6878
  839MOL0     H13199   7.221   5.572   9.514  3.8854 -1.6008 -1.2331
  839MOL0     H13200   7.138   5.507   9.955  0.1631  0.2003 -0.7930
  839MOL0     H13201   7.145   5.682   9.959 -0.7469  1.8827 -2.7885
  839MOL0     H13202   6.906   5.676   9.871  2.3044  0.8378 -0.6247
  839MOL0     H13203   6.914   5.493   9.868 -1.2222 -0.2489  1.6292
  839MOL0     H13204   6.979   5.545  10.132 -0.3856 -0.2575  0.8979
  839MOL0     H13205   6.889   5.680  10.102  2.9555 -0.2944 -0.5483
  839MOL0     H13206   6.718   5.518   9.986  1.5009 -0.7278 -1.5167
  839MOL0     H13207   6.812   5.390  10.063 -0.8182 -0.2792 -1.9085
  839MOL0     H13208   6.780   5.519  10.290  1.9879  0.0620 -2.0393
  839MOL0     H13209   6.680   5.638  10.201 -0.6178  0.0158 -3.7073
  839MOL0     H13210   6.536   5.505  10.321  0.0032  3.2909 -2.6480
  839MOL0     H13211   6.529   5.445  10.150  1.9951 -1.4575 -1.7147
  839MOL0     H13212   6.582   5.233  10.222 -1.7664  1.8071 -0.0393
  839MOL0     H13213   6.746   5.286  10.265  0.0732 -2.8705  1.8169
  839MOL0     H13214   6.519   5.326  10.456  0.2633  1.4366 -0.9405
  839MOL0     H13215   6.696   5.351  10.485 -0.3688 -0.2426  0.6703
  839MOL0     H13216   6.450   5.122  10.590 -0.1629  1.2193 -0.8782
  839MOL0     H13217   6.575   4.779  10.627  0.4433  3.5117  4.5234
  839MOL0     H13218   6.440   4.879  10.670 -0.5112  0.1545  0.8807
  839MOL0     H13219   6.496   4.743  10.406  0.7330 -0.5546  0.6364
  839MOL0     H13220   6.353   4.838  10.423  2.1303  3.0373  1.1442
  839MOL0     H13221   6.293   4.664  10.627  1.1934  0.4949  0.9015
  839MOL0     H13222   6.422   4.575  10.549 -0.4257 -0.9265 -1.2461
  839MOL0     H13223   6.182   4.525  10.480  1.0452  1.2128  1.2118
  839MOL0     H13224   6.309   4.531  10.352  0.5089  0.3997 -0.4192
  839MOL0     H13225   6.076   4.717  10.626 -2.5274 -0.0746  1.1004
  839MOL0     H13226   5.837   4.881  10.747  1.2381 -0.6195  3.3965
  839MOL0     H13227   5.770   4.708  10.759  0.8919 -3.6362 -3.5912
  839MOL0     H13228   5.934   4.752  10.794  0.8081  1.7774 -0.1557
  839MOL0     H13229   5.483   4.897  10.871 -1.4919 -0.4819  0.8066
  839MOL0     H13230   5.259   4.827  10.955  4.5930 -1.2752  1.2601
  839MOL0     H13231   4.938   4.766  10.639 -0.2316  0.4228  0.8111
  839MOL0     H13232   4.987   4.602  10.680 -0.3069 -0.1563 -0.2639
  839MOL0     H13233   4.856   4.613  10.885 -2.5226 -1.7918 -1.5353
  839MOL0     H13234   4.783   4.771  10.827 -2.6160 -0.3008 -0.0873
  839MOL0     H13235   4.783   4.495  10.694  1.5739  2.2035 -2.2940
  839MOL0     H13236   4.739   4.635  10.609  0.8247  1.8743  0.2089
  839MOL0     H13237   4.594   4.524  10.861 -0.7315  2.8469  1.3679
  839MOL0     H13238   4.548   4.673  10.796 -0.3289 -0.7507  0.9300
  839MOL0     H13239   4.572   4.412  10.647  0.2718 -2.3402  3.7411
  839MOL0     H13240   4.498   4.565  10.585 -1.2669 -1.6438 -0.7059
  839MOL0     H13241   4.311   4.433  10.631 -0.6329  2.7422  0.6268
  839MOL0     H13242   4.374   4.371  10.786  0.4829 -0.1688 -0.4466
  839MOL0     H13243   4.311   4.663  10.750 -1.2421 -0.3557 -3.0842
  839MOL0     H13244   4.330   4.572  10.896  0.5425  1.7697 -1.3213
  839MOL0     H13245   4.105   4.507  10.708  0.7747 -1.5045  1.4965
  839MOL0     H13246   4.105   4.644  10.813 -0.3512 -0.2299 -2.6687
  839MOL0     H13247   5.156   4.725  10.558  2.2789  0.4926 -2.6878
  839MOL0     H13248   5.371   4.742  10.486 -3.9669  1.0890 -0.2554
  839MOL0     H13249   5.751   4.810  10.260  2.1283  2.1596 -2.2642
  839MOL0     H13250   5.980   4.776  10.207 -1.9292 -1.6461 -0.4581
  839MOL0     H13251   7.342   5.642   9.922  2.6845 -1.1010  1.1200
  839MOL0     H13252   7.565   5.619   9.855 -0.2950  4.3405 -0.2754
  839MOL0     H13253   7.917   5.686   9.631  0.7025 -0.0988  0.6581
  839MOL0     H13254   8.150   5.683   9.610 -1.3039  1.6908 -0.3286
  839MOL0     H13255   8.326   5.367   9.341 -0.2960  0.2336  0.1557
  839MOL0     H13256   8.473   5.442   9.397  0.6268  1.0988  2.5943
  839MOL0     H13257   8.412   5.200   9.486 -1.1073 -1.3022  0.1864
  839MOL0     H13258   8.290   5.285   9.588  1.3358  0.4740  1.9851
  839MOL0     H13259   8.448   5.428   9.707  3.2556  3.2230 -2.2013
  839MOL0     H13260   8.568   5.384   9.597  1.0310 -3.2751 -0.4592
  839MOL0     H13261   8.610   5.252   9.793 -0.8219  0.3337  0.2212
  839MOL0     H13262   8.592   5.141   9.669 -0.1432 -1.4580  3.3039
  839MOL0     H13263   8.296   5.041   9.952  0.5855 -0.3262  1.1412
  839MOL0     H13264   8.127   5.310   9.400 -2.7003 -0.4272 -0.3173
  839MOL0     H13265   7.891   5.315   9.412  0.6608  0.1609 -0.0467
  840MOL0     O13266   0.812   6.104   4.521 -0.0192  0.3607 -0.6314
  840MOL0     C13267   0.889   6.148   4.435  0.8997  0.3243 -0.1485
  840MOL0     O13268   0.858   6.256   4.347 -0.1851  0.3965  0.7023
  840MOL0     C13269   0.745   6.334   4.346 -0.5932 -0.8119 -1.0037
  840MOL0     C13270   0.724   6.420   4.227  0.7962  0.7023 -0.1689
  840MOL0     C13271   0.611   6.501   4.216 -0.3923 -0.3877  0.6480
  840MOL0     C13272   0.512   6.503   4.311 -0.2003  0.0048  0.4755
  840MOL0     O13273   0.396   6.578   4.309  0.1628 -0.2442 -0.4470
  840MOL0     C13274   0.330   6.576   4.181  0.0445  0.0311 -0.3965
  840MOL0     C13275   0.195   6.657   4.201  0.0585 -0.1541  0.1681
  840MOL0     C13276   0.151   6.692   4.064 -0.3064 -0.1940  0.4551
  840MOL0     C13277   0.031   6.784   4.083  0.8126  0.3424  0.0081
  840MOL0     C13278  -0.014   6.845   3.950 -0.2042 -0.9245 -0.6268
  840MOL0     C13279  -0.136   6.934   3.957 -0.3226  0.1200 -0.0276
  840MOL0     C13280  -0.151   7.014   3.830 -0.8346 -0.3564  0.7903
  840MOL0     C13281  -0.296   7.063   3.806 -0.2432 -0.3008  0.4204
  840MOL0     N13282  -0.329   7.150   3.919  0.0992 -1.1208  0.3578
  840MOL0     C13283  -0.327   7.287   3.911  1.2368 -0.3476  0.5969
  840MOL0     C13284  -0.385   7.328   4.027 -0.3955  0.5956  0.1089
  840MOL0     C13285  -0.407   7.469   4.071  0.0763 -0.6370 -0.1747
  840MOL0     C13286  -0.491   7.552   3.972  0.2127 -0.3236  0.5374
  840MOL0     C13287  -0.522   7.689   4.018  0.0649  0.0884 -0.0418
  840MOL0     C13288  -0.609   7.766   3.924  0.9005 -1.1261 -0.5086
  840MOL0     O13289  -0.661   7.885   3.986 -0.1555  0.0274 -1.0223
  840MOL0     C13290  -0.743   7.976   3.911 -0.8766 -0.2949 -0.0753
  840MOL0     C13291  -0.765   7.974   3.775  0.2728  0.0599 -0.5521
  840MOL0     C13292  -0.847   8.079   3.713 -0.3521 -0.0465  0.3963
  840MOL0     C13293  -0.859   8.067   3.565  1.1819 -1.1537  0.9878
  840MOL0     C13294  -0.901   8.189   3.782 -0.2989 -0.0335 -0.0201
  840MOL0     C13295  -0.981   8.303   3.729  0.6777 -0.4467  0.7992
  840MOL0     O13296  -1.020   8.398   3.821 -0.3838 -0.2764  0.2763
  840MOL0     C13297  -1.120   8.481   3.786 -0.1425  0.3778 -1.0625
  840MOL0     C13298  -1.091   8.599   3.727  0.0268  0.5956  0.5474
  840MOL0     C13299  -1.187   8.694   3.691  0.6207  0.1984 -0.0793
  840MOL0     C13300  -1.323   8.667   3.718  0.2022  0.3285  0.9654
  840MOL0     O13301  -1.412   8.765   3.670  0.4314  0.3742  0.7477
  840MOL0     C13302  -1.552   8.740   3.686 -0.5938  0.1752 -0.1114
  840MOL0     C13303  -1.649   8.854   3.663 -0.4665 -0.2516  0.2542
  840MOL0     C13304  -1.646   8.869   3.510  0.3561  0.7379  0.3936
  840MOL0     C13305  -1.784   8.827   3.442 -0.6487 -0.2277 -0.2537
  840MOL0     C13306  -1.793   8.887   3.300  0.2768  0.3503  1.0172
  840MOL0     C13307  -1.693   8.819   3.208 -0.1724  0.9399 -0.4282
  840MOL0     C13308  -1.735   8.790   3.066  0.3255  0.1038 -0.6982
  840MOL0     C13309  -1.599   8.794   2.981  0.4880  0.2813 -0.5539
  840MOL0    Cl13310  -1.653   8.781   2.817 -0.1044  0.9974 -0.1507
  840MOL0     C13311  -1.358   8.542   3.774 -0.7215 -0.6869 -0.2706
  840MOL0     C13312  -1.253   8.458   3.816  0.2423  0.1444  0.4727
  840MOL0     O13313  -1.029   8.292   3.611  0.4876 -0.6855  0.4494
  840MOL0     C13314  -0.878   8.180   3.921 -0.8278  0.1519  0.0046
  840MOL0     C13315  -0.804   8.083   3.985 -0.7516  0.1773  0.5460
  840MOL0     N13316  -0.417   7.212   4.099  0.5504 -0.4971  0.2059
  840MOL0     N13317  -0.390   7.108   4.029  0.0858  0.2586 -0.1521
  840MOL0     C13318   0.532   6.423   4.426 -0.6650 -0.1332  0.0571
  840MOL0     C13319   0.644   6.337   4.444 -0.0154 -0.1088 -0.0811
  840MOL0     C13320   1.023   6.083   4.426 -0.3893 -0.1687 -0.8357
  840MOL0     C13321   1.067   5.988   4.523 -0.1849 -0.4312  0.5236
  840MOL0     C13322   1.190   5.930   4.524 -0.6610  0.5801 -0.2252
  840MOL0     C13323   1.290   5.955   4.428  0.8267 -0.2217 -0.3602
  840MOL0     O13324   1.414   5.897   4.425  0.1666 -0.1192  0.0575
  840MOL0     C13325   1.454   5.821   4.535 -0.4255  0.5426 -0.8630
  840MOL0     C13326   1.576   5.737   4.500  0.7010  0.2447 -0.1586
  840MOL0     C13327   1.705   5.826   4.492  0.3523 -0.1833  0.2106
  840MOL0     C13328   1.820   5.763   4.423  0.4538 -0.3190  0.4036
  840MOL0     C13329   1.935   5.849   4.436 -0.1985 -0.4708  0.5930
  840MOL0     C13330   2.022   5.941   4.445 -0.2525  0.3564  0.4701
  840MOL0     C13331   1.247   6.037   4.326 -0.1964  0.2989  0.4856
  840MOL0     C13332   1.121   6.105   4.325  0.5693  0.6443  0.1558
  840MOL0     H13333   0.806   6.402   4.158 -1.4465 -0.5876 -2.6922
  840MOL0     H13334   0.608   6.548   4.118  0.6290 -1.2509  0.1888
  840MOL0     H13335   0.386   6.623   4.100 -1.5042 -0.8196 -2.0327
  840MOL0     H13336   0.312   6.470   4.161 -2.2685  0.3532 -0.3714
  840MOL0     H13337   0.118   6.598   4.251 -1.8002  2.5241  0.7250
  840MOL0     H13338   0.198   6.752   4.257  1.0544  1.5683 -2.5864
  840MOL0     H13339   0.232   6.736   4.006 -0.4876  0.4940  0.7154
  840MOL0     H13340   0.122   6.608   4.000  1.8944 -0.0702 -0.8137
  840MOL0     H13341  -0.052   6.724   4.121 -0.8475  0.7053 -2.7786
  840MOL0     H13342   0.055   6.877   4.136 -0.9731  0.8479 -0.0058
  840MOL0     H13343   0.055   6.904   3.890  0.3891 -2.6073 -1.6843
  840MOL0     H13344  -0.031   6.768   3.873 -0.8030  0.7600 -2.2679
  840MOL0     H13345  -0.219   6.865   3.975 -0.0752 -0.1352  0.1360
  840MOL0     H13346  -0.127   7.009   4.036  2.5144  0.9146 -1.0053
  840MOL0     H13347  -0.095   7.108   3.836 -0.5337 -0.0771 -3.2470
  840MOL0     H13348  -0.110   6.966   3.741 -0.3170  0.1498  0.7452
  840MOL0     H13349  -0.351   6.968   3.803  2.8886 -2.3117 -3.7265
  840MOL0     H13350  -0.308   7.114   3.710  2.3412 -0.5109 -0.0853
  840MOL0     H13351  -0.297   7.357   3.833 -2.1932  3.5670  2.3980
  840MOL0     H13352  -0.468   7.451   4.160 -0.7157 -0.6195 -0.7060
  840MOL0     H13353  -0.307   7.510   4.088 -0.5545  1.1405 -0.4320
  840MOL0     H13354  -0.580   7.498   3.936 -1.6348  2.5470  0.4420
  840MOL0     H13355  -0.430   7.572   3.884 -1.1013 -2.4797 -0.9656
  840MOL0     H13356  -0.428   7.744   4.029 -0.1780  0.1383  2.0965
  840MOL0     H13357  -0.570   7.679   4.115 -0.3315 -1.9310 -0.3851
  840MOL0     H13358  -0.693   7.703   3.894 -0.7146  0.6891 -0.0192
  840MOL0     H13359  -0.560   7.789   3.829 -0.1835  0.1139 -0.8073
  840MOL0     H13360  -0.717   7.893   3.721  2.0300  0.1636  0.7584
  840MOL0     H13361  -0.808   7.974   3.541  0.2300 -1.0740 -1.8125
  840MOL0     H13362  -0.951   8.064   3.505  1.2680  0.5014  0.7227
  840MOL0     H13363  -0.806   8.147   3.512 -0.1273 -0.0129  1.3289
  840MOL0     H13364  -0.986   8.609   3.703  0.4824  1.1303  2.5757
  840MOL0     H13365  -1.157   8.775   3.625  0.6689 -2.1951 -3.2631
  840MOL0     H13366  -1.578   8.656   3.621  2.5767 -1.1876  0.1937
  840MOL0     H13367  -1.574   8.712   3.790  0.1266  1.4049  0.3947
  840MOL0     H13368  -1.752   8.836   3.694  0.0063  0.8591  2.7549
  840MOL0     H13369  -1.620   8.941   3.724 -0.4963 -0.1607  0.1392
  840MOL0     H13370  -1.563   8.809   3.474  0.0543  0.6270 -0.1268
  840MOL0     H13371  -1.623   8.975   3.496  0.0338  0.6418 -1.0089
  840MOL0     H13372  -1.801   8.719   3.447 -0.5853 -0.2500  5.1989
  840MOL0     H13373  -1.863   8.870   3.504  1.1914  1.5925  0.9569
  840MOL0     H13374  -1.774   8.995   3.299  2.1063  0.0652 -0.2656
  840MOL0     H13375  -1.888   8.863   3.250  1.2300  1.2993 -1.4170
  840MOL0     H13376  -1.602   8.881   3.205  0.8087 -0.3551  1.1007
  840MOL0     H13377  -1.669   8.719   3.245 -2.7457  0.2592 -0.4150
  840MOL0     H13378  -1.803   8.870   3.033  0.3042 -0.1841 -1.3803
  840MOL0     H13379  -1.794   8.698   3.065 -0.4348  0.5829 -0.7935
  840MOL0     H13380  -1.544   8.701   2.999 -0.7511 -0.2331  0.8139
  840MOL0     H13381  -1.538   8.883   3.001 -0.1954  0.5847  0.2394
  840MOL0     H13382  -1.462   8.527   3.799 -1.1454  0.4360 -1.2773
  840MOL0     H13383  -1.280   8.371   3.875 -0.0096 -0.7250 -0.8757
  840MOL0     H13384  -0.919   8.259   3.983 -1.2027 -2.2143  3.0895
  840MOL0     H13385  -0.787   8.096   4.091  0.2173 -0.1922  0.4453
  840MOL0     H13386   0.450   6.428   4.498  1.0661 -0.9964  2.2370
  840MOL0     H13387   0.645   6.286   4.540 -1.3945  2.0346  1.1498
  840MOL0     H13388   0.999   5.964   4.604 -0.0685 -1.2614  0.3803
  840MOL0     H13389   1.209   5.852   4.598  1.0281  0.8969 -0.2825
  840MOL0     H13390   1.471   5.882   4.624  0.2402 -1.4862  0.4862
  840MOL0     H13391   1.379   5.750   4.572 -2.2788  2.8803  0.1571
  840MOL0     H13392   1.555   5.686   4.405 -4.1698 -1.6545  1.6081
  840MOL0     H13393   1.589   5.656   4.571 -0.1378  0.3806  0.1647
  840MOL0     H13394   1.734   5.856   4.593  0.0452  0.9011 -0.0118
  840MOL0     H13395   1.686   5.921   4.441  0.7009  0.2794  0.9232
  840MOL0     H13396   1.798   5.741   4.318 -2.3706 -0.3670  0.9227
  840MOL0     H13397   1.849   5.670   4.473  2.6610  0.3790  0.5324
  840MOL0     H13398   2.097   6.017   4.448 -0.4515  0.6208 -0.5608
  840MOL0     H13399   1.320   6.053   4.246 -1.6908  1.8463 -0.6454
  840MOL0     H13400   1.084   6.168   4.246  1.0884 -1.1431 -1.5885
  841MOL0     O13401   1.584   8.952   8.515  0.6857  0.4104  0.1421
  841MOL0     C13402   1.650   8.859   8.555  0.4864  0.3519  0.2580
  841MOL0     O13403   1.606   8.752   8.619 -0.4406  0.2353  0.8315
  841MOL0     C13404   1.474   8.724   8.628  1.0934  0.5267 -0.1804
  841MOL0     C13405   1.403   8.735   8.743 -0.5133  0.7183 -0.2638
  841MOL0     C13406   1.262   8.728   8.743 -0.1429 -0.0693 -0.3385
  841MOL0     C13407   1.194   8.704   8.630  0.5757 -0.4536  0.0256
  841MOL0     O13408   1.057   8.718   8.646  0.1244  0.3458 -0.1105
  841MOL0     C13409   0.972   8.636   8.557 -0.4416 -0.4985  0.6466
  841MOL0     C13410   0.829   8.658   8.589  0.1866  0.9735  0.5314
  841MOL0     C13411   0.773   8.801   8.541 -0.0901 -0.1823  0.6168
  841MOL0     C13412   0.626   8.804   8.584 -1.0231  0.7515  0.2895
  841MOL0     C13413   0.604   8.883   8.715  0.6262 -0.6951  0.1358
  841MOL0     C13414   0.471   8.846   8.778  0.7082  0.2393  0.2487
  841MOL0     C13415   0.447   8.915   8.919 -0.3156  0.3947  0.4885
  841MOL0     C13416   0.308   8.892   8.960 -0.2049 -0.3305  0.8126
  841MOL0     N13417   0.212   8.976   8.884 -0.0702 -0.7608 -0.1111
  841MOL0     C13418   0.110   8.938   8.795  0.4557  0.7212 -0.1667
  841MOL0     C13419   0.052   9.060   8.760 -0.2200 -0.0060  0.0460
  841MOL0     C13420  -0.061   9.075   8.663 -1.2283  0.2809 -0.5687
  841MOL0     C13421  -0.182   9.139   8.725 -1.2559 -0.6807 -0.1358
  841MOL0     C13422  -0.254   9.038   8.824  0.1817 -0.0422 -0.9773
  841MOL0     C13423  -0.387   9.094   8.877 -0.4956  0.1135  1.8222
  841MOL0     O13424  -0.463   9.140   8.770  0.4015 -0.3346 -0.3140
  841MOL0     C13425  -0.582   9.205   8.797  0.2966 -0.1535  1.4512
  841MOL0     C13426  -0.658   9.234   8.685  0.2382  0.0149  0.8485
  841MOL0     C13427  -0.794   9.278   8.691 -0.4627 -0.2565  0.3827
  841MOL0     C13428  -0.868   9.303   8.558 -0.5191  0.3233  0.2270
  841MOL0     C13429  -0.852   9.302   8.820 -0.4444 -0.1331 -0.1026
  841MOL0     C13430  -0.992   9.344   8.837  0.4901 -0.6042 -0.5799
  841MOL0     O13431  -1.035   9.361   8.967  0.9046 -0.0813 -0.2276
  841MOL0     C13432  -1.169   9.388   8.993  0.5082 -0.6315 -1.0098
  841MOL0     C13433  -1.211   9.522   9.008 -0.2318  0.5019 -0.5843
  841MOL0     C13434  -1.346   9.545   9.026 -0.1980 -0.4911  1.0619
  841MOL0     C13435  -1.437   9.444   9.052 -0.0124 -0.2468 -0.4273
  841MOL0     O13436  -1.564   9.487   9.087  0.0358  0.5061  0.0825
  841MOL0     C13437  -1.677   9.421   9.016 -0.5905  0.1531  0.8567
  841MOL0     C13438  -1.806   9.498   9.067 -0.4804  0.2854  0.8160
  841MOL0     C13439  -1.934   9.452   8.990  0.0481  0.7770 -0.0079
  841MOL0     C13440  -2.058   9.540   9.020 -1.0114 -1.1397  0.4670
  841MOL0     C13441  -2.183   9.485   8.947  0.0768  0.1924  1.3703
  841MOL0     C13442  -2.219   9.342   8.996  0.4645  0.3626 -0.4242
  841MOL0     C13443  -2.366   9.291   8.962 -0.0894 -0.0430  0.4251
  841MOL0     C13444  -2.486   9.380   8.984 -0.5417 -1.6300 -0.1766
  841MOL0    Cl13445  -2.465   9.453   9.157 -0.1460  0.3200  0.3538
  841MOL0     C13446  -1.400   9.314   9.045  0.2499  0.5704 -0.3340
  841MOL0     C13447  -1.266   9.284   9.020  0.8209 -1.3523 -0.9099
  841MOL0     O13448  -1.058   9.371   8.738  0.1216 -0.3005  0.1407
  841MOL0     C13449  -0.767   9.288   8.929 -0.2797  0.2330 -0.2233
  841MOL0     C13450  -0.640   9.233   8.925  0.0373  0.1101  0.3743
  841MOL0     N13451   0.111   9.170   8.824  0.1415  0.0736 -0.4287
  841MOL0     N13452   0.204   9.113   8.902 -0.1306  0.5841  0.8811
  841MOL0     C13453   1.263   8.683   8.513 -0.3714 -0.0681 -0.0766
  841MOL0     C13454   1.399   8.703   8.513 -0.1411  0.6178  0.8702
  841MOL0     C13455   1.790   8.864   8.529 -0.6209  0.0881  0.2748
  841MOL0     C13456   1.853   8.963   8.446 -0.7970 -0.3378  0.0143
  841MOL0     C13457   1.989   8.944   8.406 -0.1780  0.1683 -0.2400
  841MOL0     C13458   2.065   8.835   8.462  0.4618 -0.1127 -0.6819
  841MOL0     O13459   2.186   8.814   8.407 -0.8453 -0.7842 -0.3688
  841MOL0     C13460   2.250   8.686   8.420 -0.2612  0.0061  0.0786
  841MOL0     C13461   2.339   8.662   8.547 -0.1400 -0.2366  0.2159
  841MOL0     C13462   2.469   8.743   8.545  0.3192  0.4879 -0.1226
  841MOL0     C13463   2.590   8.672   8.487  0.0370 -0.5313 -0.6252
  841MOL0     C13464   2.702   8.765   8.462 -0.1143 -0.7632  1.0759
  841MOL0     C13465   2.798   8.837   8.442 -0.1335  0.1310  0.3491
  841MOL0     C13466   2.004   8.760   8.567 -0.1592 -0.0628 -0.0858
  841MOL0     C13467   1.871   8.776   8.592 -1.0561  0.1111  0.1006
  841MOL0     H13468   1.456   8.762   8.834 -0.1916 -1.4438  0.2433
  841MOL0     H13469   1.202   8.753   8.830 -1.0753 -1.6506 -0.4944
  841MOL0     H13470   0.980   8.663   8.451 -3.2389 -1.5953  0.0751
  841MOL0     H13471   1.003   8.531   8.562 -0.4530 -0.5443 -0.1216
  841MOL0     H13472   0.768   8.586   8.533  2.0445  0.1275 -0.4692
  841MOL0     H13473   0.820   8.639   8.696  0.3102 -2.6565  0.0326
  841MOL0     H13474   0.832   8.877   8.594 -2.2309 -0.1519  3.1896
  841MOL0     H13475   0.785   8.821   8.435  1.1621 -1.9272  0.3754
  841MOL0     H13476   0.568   8.851   8.504 -0.6503  2.9432  1.2253
  841MOL0     H13477   0.596   8.700   8.594  1.5552  0.0737  1.6382
  841MOL0     H13478   0.671   8.841   8.791  0.7396 -0.7092  0.0282
  841MOL0     H13479   0.609   8.989   8.692 -2.6356 -0.4142  0.2364
  841MOL0     H13480   0.395   8.870   8.703  1.2986  1.1531 -0.0671
  841MOL0     H13481   0.463   8.739   8.800  1.2693 -1.0050 -4.5175
  841MOL0     H13482   0.515   8.867   8.990 -0.0349 -1.2552 -0.8219
  841MOL0     H13483   0.475   9.019   8.904  0.2288  0.2843  0.6977
  841MOL0     H13484   0.304   8.915   9.067  0.1846 -2.9770  1.4443
  841MOL0     H13485   0.271   8.792   8.937  1.0245 -0.2927 -1.6709
  841MOL0     H13486   0.082   8.838   8.765  1.8896 -0.3536  1.8014
  841MOL0     H13487  -0.030   9.132   8.575 -1.3023  0.0149 -0.7666
  841MOL0     H13488  -0.087   8.975   8.627 -1.9670 -0.3905  1.6768
  841MOL0     H13489  -0.252   9.157   8.643 -1.6210  0.4379  0.4042
  841MOL0     H13490  -0.169   9.230   8.784  1.2368 -1.8114  1.2412
  841MOL0     H13491  -0.192   9.027   8.914  0.6056 -0.7972 -1.3532
  841MOL0     H13492  -0.264   8.936   8.784 -0.2346 -1.1162  1.6560
  841MOL0     H13493  -0.383   9.160   8.965 -1.2429  1.6374  0.7609
  841MOL0     H13494  -0.430   8.996   8.900  0.3204 -0.9844 -0.9372
  841MOL0     H13495  -0.622   9.230   8.583 -1.5645  0.4226  0.1742
  841MOL0     H13496  -0.847   9.410   8.547 -0.5232  0.1713 -1.6771
  841MOL0     H13497  -0.818   9.258   8.472  1.1310 -1.9889  2.2616
  841MOL0     H13498  -0.973   9.273   8.554 -0.7607  0.7350  2.3789
  841MOL0     H13499  -1.136   9.599   9.002  1.1122 -0.8086 -1.1643
  841MOL0     H13500  -1.386   9.643   9.001 -0.7413 -0.7452  0.9152
  841MOL0     H13501  -1.661   9.436   8.908  2.9289 -2.0527  0.9083
  841MOL0     H13502  -1.689   9.313   9.028 -1.7405  0.0664 -0.6883
  841MOL0     H13503  -1.820   9.486   9.175  0.6186  4.8095  1.6770
  841MOL0     H13504  -1.777   9.602   9.050  2.7820 -0.8848 -1.7034
  841MOL0     H13505  -1.957   9.359   9.043  0.0407  0.2152 -0.9808
  841MOL0     H13506  -1.925   9.433   8.883 -2.0180  1.1369 -0.2939
  841MOL0     H13507  -2.087   9.551   9.125  1.3532 -2.2703  1.2984
  841MOL0     H13508  -2.043   9.640   8.977  3.4429 -2.4014 -1.4550
  841MOL0     H13509  -2.170   9.476   8.839 -0.2277  1.4845  1.2148
  841MOL0     H13510  -2.265   9.556   8.964  2.1222  3.4502 -1.2091
  841MOL0     H13511  -2.145   9.281   8.943  1.1860  2.2307 -1.6640
  841MOL0     H13512  -2.209   9.345   9.104 -1.1143  0.4247 -0.2487
  841MOL0     H13513  -2.376   9.194   9.012  5.6291 -1.8123 -1.1035
  841MOL0     H13514  -2.357   9.271   8.855  2.3060 -3.2472  1.0808
  841MOL0     H13515  -2.578   9.321   8.984 -0.2585 -2.1028 -1.5435
  841MOL0     H13516  -2.481   9.459   8.907 -0.4000 -0.8203  0.6402
  841MOL0     H13517  -1.477   9.241   9.068 -3.4945  3.9653 -0.8519
  841MOL0     H13518  -1.231   9.182   9.028  1.1177 -1.3927 -2.3651
  841MOL0     H13519  -0.811   9.299   9.028  2.3934 -1.8137  1.3414
  841MOL0     H13520  -0.582   9.205   9.012  0.6235 -2.4204 -0.7355
  841MOL0     H13521   1.215   8.677   8.416 -0.5647  0.0118  0.0124
  841MOL0     H13522   1.456   8.684   8.423  0.0277 -0.1775  1.1385
  841MOL0     H13523   1.794   9.039   8.396  1.5400  0.5067 -1.6118
  841MOL0     H13524   2.036   9.017   8.340  0.0150  0.3730  0.1188
  841MOL0     H13525   2.185   8.599   8.411  0.1345 -0.6265  2.6527
  841MOL0     H13526   2.309   8.678   8.329 -1.3644 -0.2667 -0.6384
  841MOL0     H13527   2.373   8.558   8.549  1.0118  0.1273  2.0270
  841MOL0     H13528   2.282   8.681   8.639  0.2685 -1.2668  0.6914
  841MOL0     H13529   2.484   8.773   8.649  0.1430  0.1357  0.0052
  841MOL0     H13530   2.455   8.838   8.491 -0.7644  0.6728  0.4614
  841MOL0     H13531   2.565   8.631   8.388 -0.2632  2.6796 -2.0142
  841MOL0     H13532   2.630   8.594   8.552  0.9939 -0.4914 -1.1402
  841MOL0     H13533   2.885   8.899   8.430  0.1839 -0.1961  0.8887
  841MOL0     H13534   2.059   8.685   8.624 -0.9740 -0.0721  0.7134
  841MOL0     H13535   1.835   8.713   8.672 -1.1872  0.2223  0.1289
  842MOL0     O13536   3.184   8.630   6.532 -0.3567  0.1559  0.0590
  842MOL0     C13537   3.243   8.710   6.459  0.5937  0.2770  0.4832
  842MOL0     O13538   3.184   8.789   6.365 -0.0146  0.6166 -0.2327
  842MOL0     C13539   3.047   8.785   6.345 -0.4905 -1.6060  0.7165
  842MOL0     C13540   2.971   8.902   6.335 -0.2069  0.2753 -1.0165
  842MOL0     C13541   2.829   8.897   6.319 -0.8664 -0.7724 -0.5990
  842MOL0     C13542   2.765   8.772   6.308 -0.0580 -0.0728  0.3150
  842MOL0     O13543   2.623   8.769   6.300 -0.3461  0.3306 -0.0522
  842MOL0     C13544   2.565   8.641   6.314  0.3045  0.0794 -0.9458
  842MOL0     C13545   2.413   8.663   6.313  0.3519  0.5598 -0.2828
  842MOL0     C13546   2.363   8.716   6.181 -0.3781 -0.0378 -0.2930
  842MOL0     C13547   2.223   8.758   6.212  0.4712  0.2718 -0.5116
  842MOL0     C13548   2.137   8.748   6.084  0.2758  0.2093  0.2173
  842MOL0     C13549   1.991   8.772   6.130  0.2785 -0.1972 -0.3045
  842MOL0     C13550   1.899   8.778   6.002  0.3819  0.7128 -0.3907
  842MOL0     C13551   1.762   8.839   6.023 -0.5349 -1.0411 -1.0350
  842MOL0     N13552   1.755   8.981   6.049 -0.1301 -0.7067  0.7260
  842MOL0     C13553   1.685   9.044   6.150  0.0610 -0.8087 -0.0398
  842MOL0     C13554   1.700   9.180   6.130 -0.4686  0.2739  0.1119
  842MOL0     C13555   1.634   9.286   6.211  0.3199  0.4851 -0.5970
  842MOL0     C13556   1.500   9.326   6.141 -0.4258 -0.1389  0.1807
  842MOL0     C13557   1.413   9.431   6.224  0.0744 -0.4910  0.5178
  842MOL0     C13558   1.309   9.489   6.137  0.2468  0.4332 -0.2029
  842MOL0     O13559   1.203   9.395   6.128 -0.3012  0.6339 -0.4941
  842MOL0     C13560   1.077   9.447   6.143 -0.4317 -0.1150  0.2314
  842MOL0     C13561   0.996   9.422   6.250 -0.3502 -0.9272 -1.2416
  842MOL0     C13562   0.856   9.460   6.256  0.4182  0.6220 -1.0912
  842MOL0     C13563   0.788   9.454   6.394 -0.0626  0.3557 -1.4484
  842MOL0     C13564   0.800   9.524   6.145  0.3862  0.9908  0.0833
  842MOL0     C13565   0.653   9.574   6.139  0.3134 -0.1314  0.2311
  842MOL0     O13566   0.609   9.584   5.999  0.8159 -1.2802 -0.8440
  842MOL0     C13567   0.488   9.644   5.961 -1.0570 -0.5000 -0.2711
  842MOL0     C13568   0.373   9.658   6.035 -0.3139  0.0002 -0.2170
  842MOL0     C13569   0.258   9.722   5.974  0.2551  0.5708  0.1543
  842MOL0     C13570   0.253   9.758   5.842  0.1866  0.2027  0.6339
  842MOL0     O13571   0.143   9.803   5.770  0.3899  0.3887 -0.0119
  842MOL0     C13572   0.014   9.786   5.822  0.0505 -0.2009  0.3221
  842MOL0     C13573  -0.089   9.838   5.714 -0.1028 -0.3362 -0.5845
  842MOL0     C13574  -0.135   9.983   5.744  0.5444 -1.2278  1.4083
  842MOL0     C13575  -0.249  10.035   5.644 -0.4934  0.1906 -0.6875
  842MOL0     C13576  -0.316  10.154   5.708  0.1492 -0.6546  1.3638
  842MOL0     C13577  -0.406  10.223   5.599  0.0348  0.7205  0.6718
  842MOL0     C13578  -0.472  10.336   5.659 -0.3984  0.0203  0.1547
  842MOL0     C13579  -0.563  10.402   5.551 -0.2502  0.1139  0.8538
  842MOL0    Cl13580  -0.712  10.307   5.527 -0.2229 -0.0347 -0.3962
  842MOL0     C13581   0.371   9.746   5.768 -1.2742 -0.3267  0.2934
  842MOL0     C13582   0.488   9.690   5.831  0.5065 -0.7989  0.4725
  842MOL0     O13583   0.590   9.603   6.242  0.8376 -0.4383 -0.1839
  842MOL0     C13584   0.883   9.549   6.034 -0.0194 -0.1634 -0.3131
  842MOL0     C13585   1.024   9.522   6.039  1.4720  0.0821  0.7511
  842MOL0     N13586   1.776   9.199   6.013  0.9076  0.8594  0.4917
  842MOL0     N13587   1.804   9.078   5.969 -0.4357 -0.2174 -0.3959
  842MOL0     C13588   2.849   8.650   6.299 -0.0742 -0.2480 -0.8903
  842MOL0     C13589   2.988   8.665   6.312 -0.2693 -0.2285 -0.4193
  842MOL0     C13590   3.387   8.722   6.487  0.1774 -0.4405  0.1763
  842MOL0     C13591   3.459   8.826   6.430  1.0841 -0.9087 -0.0779
  842MOL0     C13592   3.596   8.839   6.461  0.6048  0.1577  1.0013
  842MOL0     C13593   3.669   8.739   6.532  0.2825 -0.4773  0.4744
  842MOL0     O13594   3.807   8.750   6.563 -0.2755 -0.5571 -0.0430
  842MOL0     C13595   3.888   8.655   6.505  0.6063  0.6657  0.4036
  842MOL0     C13596   3.966   8.717   6.394 -0.0059 -0.0045 -0.5485
  842MOL0     C13597   4.069   8.634   6.317 -0.0578 -0.3469  0.3691
  842MOL0     C13598   4.198   8.605   6.399  0.0099  0.1362 -0.1459
  842MOL0     C13599   4.297   8.539   6.314 -0.1297 -0.4721 -1.2226
  842MOL0     C13600   4.379   8.512   6.229  0.3880 -0.9165  0.3143
  842MOL0     C13601   3.595   8.642   6.594  0.5215 -0.1997  0.1831
  842MOL0     C13602   3.456   8.634   6.571 -0.2569 -0.7774 -0.6019
  842MOL0     H13603   3.022   8.995   6.357 -0.7103 -0.0976  2.1308
  842MOL0     H13604   2.759   8.980   6.325  1.4572  1.2209  0.5032
  842MOL0     H13605   2.585   8.580   6.226  0.9038  1.2379 -1.6449
  842MOL0     H13606   2.592   8.597   6.411  0.8749  1.5428 -0.4047
  842MOL0     H13607   2.360   8.570   6.335  0.9632  0.3706  0.4651
  842MOL0     H13608   2.380   8.738   6.385 -0.7515  1.0396 -1.2628
  842MOL0     H13609   2.417   8.805   6.148 -1.1104 -0.1941 -1.9624
  842MOL0     H13610   2.352   8.643   6.100 -3.9301  0.8547 -0.7498
  842MOL0     H13611   2.179   8.695   6.289 -0.9102 -0.4326 -1.8190
  842MOL0     H13612   2.225   8.863   6.244 -1.3101 -0.2174  1.3909
  842MOL0     H13613   2.177   8.821   6.013  0.0545  0.0854 -0.0367
  842MOL0     H13614   2.141   8.644   6.049 -1.5005  0.5267 -1.0578
  842MOL0     H13615   1.958   8.692   6.197  3.5606  0.2900  2.1681
  842MOL0     H13616   1.979   8.858   6.196  1.1520  0.4388 -0.9597
  842MOL0     H13617   1.944   8.847   5.931 -1.1075  2.7414  0.5241
  842MOL0     H13618   1.885   8.683   5.951  1.8477  0.0047  0.4748
  842MOL0     H13619   1.709   8.791   6.106 -1.9254  1.2535 -0.5363
  842MOL0     H13620   1.699   8.810   5.939 -2.2152  2.4183 -1.1172
  842MOL0     H13621   1.614   8.997   6.216  2.6362 -1.8916  2.1800
  842MOL0     H13622   1.607   9.245   6.308  0.6110 -1.1611 -1.1770
  842MOL0     H13623   1.703   9.370   6.227  1.1002 -0.1642 -0.5139
  842MOL0     H13624   1.439   9.239   6.118 -1.0036  0.4331 -0.5123
  842MOL0     H13625   1.534   9.363   6.044  0.4251  0.3337  0.6432
  842MOL0     H13626   1.478   9.509   6.263 -3.5911  2.3989  1.4390
  842MOL0     H13627   1.385   9.387   6.321  4.0115  0.5916  2.3560
  842MOL0     H13628   1.351   9.511   6.039 -0.0396  0.9269 -0.2184
  842MOL0     H13629   1.282   9.590   6.169 -0.0148  0.5118 -0.6775
  842MOL0     H13630   1.039   9.372   6.336  0.0192  1.5011  0.0588
  842MOL0     H13631   0.696   9.394   6.395  0.1832 -0.0269  0.0915
  842MOL0     H13632   0.856   9.406   6.464 -1.2836  3.0614  1.9375
  842MOL0     H13633   0.775   9.557   6.431  0.5164  0.3449 -1.2210
  842MOL0     H13634   0.364   9.636   6.141  1.2474 -0.2322 -0.1075
  842MOL0     H13635   0.171   9.741   6.036 -0.8778  2.7326 -1.9504
  842MOL0     H13636  -0.009   9.681   5.838  1.2811 -0.7653 -1.3451
  842MOL0     H13637  -0.004   9.839   5.916  0.1708  1.8806 -0.7580
  842MOL0     H13638  -0.043   9.831   5.615 -0.8773  1.6862 -1.1233
  842MOL0     H13639  -0.182   9.781   5.712 -0.2284 -0.1133 -2.2587
  842MOL0     H13640  -0.049  10.051   5.738  0.5448 -1.3277 -1.5394
  842MOL0     H13641  -0.165   9.993   5.848  2.2114  1.5243  1.7198
  842MOL0     H13642  -0.181  10.071   5.567  1.3887 -2.5898 -0.4971
  842MOL0     H13643  -0.310   9.950   5.609 -1.7359  1.5966 -2.0598
  842MOL0     H13644  -0.242  10.228   5.740  0.3549  1.4680 -3.1122
  842MOL0     H13645  -0.377  10.119   5.791  0.3989 -0.3282  1.6887
  842MOL0     H13646  -0.346  10.263   5.516 -0.0791 -1.5553 -0.5920
  842MOL0     H13647  -0.489  10.161   5.565 -0.2524  0.0291  2.5015
  842MOL0     H13648  -0.403  10.414   5.691  1.4349 -0.8347 -1.4981
  842MOL0     H13649  -0.523  10.302   5.750 -2.7270  0.6594 -0.8360
  842MOL0     H13650  -0.522  10.414   5.450 -0.1797  4.0246  1.2031
  842MOL0     H13651  -0.590  10.504   5.579 -0.1790  0.8889 -1.6901
  842MOL0     H13652   0.361   9.782   5.666  0.9666 -0.4122 -0.0021
  842MOL0     H13653   0.574   9.677   5.766 -0.7177  0.5572 -1.5249
  842MOL0     H13654   0.850   9.597   5.942  4.5586 -0.6960 -2.5333
  842MOL0     H13655   1.082   9.539   5.949 -0.7702  1.1913 -0.5769
  842MOL0     H13656   2.802   8.553   6.313  2.2443 -1.0421  2.5548
  842MOL0     H13657   3.040   8.569   6.305  0.2090  0.0337 -0.5211
  842MOL0     H13658   3.409   8.895   6.363  0.5089 -1.3059 -0.0633
  842MOL0     H13659   3.634   8.927   6.410 -0.1029  0.5572  1.1476
  842MOL0     H13660   3.946   8.611   6.586  1.7319 -2.1427 -1.7906
  842MOL0     H13661   3.835   8.570   6.462  2.1921 -0.2393  0.1926
  842MOL0     H13662   4.011   8.811   6.429 -2.2278  1.1921 -0.7007
  842MOL0     H13663   3.899   8.749   6.313 -0.4058  2.0684  0.5138
  842MOL0     H13664   4.104   8.687   6.228  0.6917 -2.3531 -0.6070
  842MOL0     H13665   4.035   8.539   6.274  0.1456 -0.0353 -0.4896
  842MOL0     H13666   4.166   8.537   6.479 -2.1868  0.1521 -0.9560
  842MOL0     H13667   4.235   8.701   6.436  0.4759 -0.0964  0.0062
  842MOL0     H13668   4.452   8.481   6.157  1.3887  0.5208  0.6546
  842MOL0     H13669   3.658   8.574   6.650  1.4759 -1.1153 -1.8967
  842MOL0     H13670   3.420   8.547   6.625  2.3134 -2.1002 -0.8312
  843MOL0     O13671   3.949   7.191   5.612  0.1816  0.2149  0.5927
  843MOL0     C13672   4.026   7.103   5.582  0.4396 -0.2644  0.7421
  843MOL0     O13673   4.008   7.009   5.482 -0.4141 -0.1539 -0.4750
  843MOL0     C13674   3.903   7.018   5.410 -0.2975 -0.0395 -0.7211
  843MOL0     C13675   3.855   7.133   5.346 -0.0350  0.5754  0.2793
  843MOL0     C13676   3.735   7.133   5.278  0.6270 -0.2801  0.1316
  843MOL0     C13677   3.657   7.019   5.277 -0.5918  0.0574 -1.2230
  843MOL0     O13678   3.530   7.032   5.225  0.4258  0.3475 -0.8908
  843MOL0     C13679   3.469   6.918   5.179 -0.7366 -0.0741 -0.0795
  843MOL0     C13680   3.360   6.967   5.089 -0.5125  0.4627 -0.6711
  843MOL0     C13681   3.274   6.851   5.033  0.7808  0.2094  0.5353
  843MOL0     C13682   3.197   6.783   5.149 -0.2395  0.8514  0.6277
  843MOL0     C13683   3.060   6.727   5.103 -1.0500 -0.8819  0.5614
  843MOL0     C13684   2.959   6.841   5.126 -0.7075  0.2207  0.1006
  843MOL0     C13685   2.819   6.805   5.061 -0.3825 -0.1675  0.1011
  843MOL0     C13686   2.765   6.684   5.123  0.1250 -0.3317  0.7217
  843MOL0     N13687   2.623   6.683   5.127  0.6326 -0.1364  0.4751
  843MOL0     C13688   2.536   6.711   5.229  0.4244 -0.2467  0.5233
  843MOL0     C13689   2.421   6.653   5.188  0.3698 -0.2387 -0.1520
  843MOL0     C13690   2.293   6.658   5.270 -0.5457 -0.1967 -0.5346
  843MOL0     C13691   2.301   6.561   5.397  0.9345 -0.8563  0.0033
  843MOL0     C13692   2.329   6.632   5.533  0.5235 -0.0940 -0.1162
  843MOL0     C13693   2.201   6.685   5.596  0.6019 -0.7478  0.0165
  843MOL0     O13694   2.089   6.584   5.588  0.3527  0.0509  0.0605
  843MOL0     C13695   1.960   6.629   5.607  0.5898 -0.0250 -0.3379
  843MOL0     C13696   1.932   6.754   5.668  0.3449 -0.0640  0.1290
  843MOL0     C13697   1.797   6.795   5.682 -0.1949 -0.1756 -0.3315
  843MOL0     C13698   1.788   6.926   5.746  0.2303  0.3472 -0.0792
  843MOL0     C13699   1.692   6.704   5.652  0.3539  0.6105  0.2003
  843MOL0     C13700   1.547   6.746   5.675 -0.3125 -0.0365 -1.0525
  843MOL0     O13701   1.457   6.639   5.660 -0.3922 -0.4703  0.6157
  843MOL0     C13702   1.321   6.672   5.676 -0.5706  1.0088 -0.6896
  843MOL0     C13703   1.235   6.634   5.573  0.0679 -0.5194 -0.5320
  843MOL0     C13704   1.101   6.661   5.600  0.4685  0.6649  0.8767
  843MOL0     C13705   1.051   6.726   5.710 -0.1775  0.3674  0.2154
  843MOL0     O13706   0.912   6.747   5.727 -0.3081  0.3943 -0.6929
  843MOL0     C13707   0.836   6.790   5.617  0.2341 -0.7773 -0.6783
  843MOL0     C13708   0.687   6.811   5.667  0.8320  0.4986  0.7026
  843MOL0     C13709   0.676   6.921   5.768 -0.3836 -0.2194  0.1171
  843MOL0     C13710   0.670   6.865   5.905 -0.0327  0.9056 -0.8016
  843MOL0     C13711   0.679   6.959   6.024 -0.8125  0.0235 -1.5957
  843MOL0     C13712   0.805   7.047   6.033  0.5287 -0.5458 -0.1397
  843MOL0     C13713   0.938   6.976   6.049 -0.1103 -0.3296 -0.5555
  843MOL0     C13714   1.053   7.056   6.128  0.3579 -0.8047  0.5557
  843MOL0    Cl13715   1.096   7.219   6.076 -0.1808 -0.0603  0.0721
  843MOL0     C13716   1.140   6.761   5.812 -0.0918 -0.2265  0.0951
  843MOL0     C13717   1.277   6.743   5.788 -1.0263  0.4831  0.2940
  843MOL0     O13718   1.519   6.863   5.702 -0.2996 -0.1655  0.1869
  843MOL0     C13719   1.723   6.566   5.605  0.7949  0.6580  0.2866
  843MOL0     C13720   1.857   6.536   5.583 -0.2520 -0.4365  0.5061
  843MOL0     N13721   2.434   6.604   5.052  0.2536 -0.1312 -0.9008
  843MOL0     N13722   2.560   6.627   5.023  0.1536  0.1253 -0.4976
  843MOL0     C13723   3.705   6.900   5.340 -0.4604  0.3904  0.0188
  843MOL0     C13724   3.838   6.895   5.395 -0.1094  0.0357  0.1912
  843MOL0     C13725   4.156   7.105   5.649 -0.1815 -0.1509  1.1754
  843MOL0     C13726   4.263   7.028   5.607 -0.4782  1.0130 -0.6320
  843MOL0     C13727   4.389   7.037   5.661  0.2105 -0.9510  0.7614
  843MOL0     C13728   4.420   7.133   5.751 -0.0666  0.4711  0.8053
  843MOL0     O13729   4.549   7.139   5.790 -0.0657  0.7310 -0.3396
  843MOL0     C13730   4.619   7.270   5.799  0.0450 -0.1530 -0.0810
  843MOL0     C13731   4.746   7.295   5.717 -0.3733  0.1761 -0.6056
  843MOL0     C13732   4.715   7.297   5.563 -0.1290  0.1244  0.1103
  843MOL0     C13733   4.598   7.389   5.520  0.6760 -0.7693 -0.3176
  843MOL0     C13734   4.588   7.391   5.375  0.6386  0.0061  0.0109
  843MOL0     C13735   4.580   7.388   5.251  0.2084 -0.3516  1.0720
  843MOL0     C13736   4.323   7.218   5.782 -0.1660  0.3621  0.8090
  843MOL0     C13737   4.189   7.207   5.736  0.4885  0.5997 -0.2541
  843MOL0     H13738   3.917   7.221   5.358 -0.8502  1.0928  0.7172
  843MOL0     H13739   3.691   7.219   5.230  0.6648 -0.2203  0.2053
  843MOL0     H13740   3.549   6.866   5.125  1.0650  0.7688  1.6803
  843MOL0     H13741   3.433   6.862   5.266 -2.8428  1.0206 -0.1720
  843MOL0     H13742   3.296   7.021   5.159  0.2067 -2.5547  2.5996
  843MOL0     H13743   3.403   7.032   5.013  0.0091 -1.8967 -2.5145
  843MOL0     H13744   3.197   6.887   4.963  0.3369 -0.3581  0.7219
  843MOL0     H13745   3.328   6.773   4.979 -1.8441 -1.4026  0.0476
  843MOL0     H13746   3.245   6.695   5.193 -1.0129  0.2267  0.2638
  843MOL0     H13747   3.201   6.842   5.240  2.0083 -0.4299  1.4451
  843MOL0     H13748   3.059   6.697   4.998 -1.6058 -2.9316  1.1209
  843MOL0     H13749   3.042   6.633   5.156  5.0862 -4.0763 -2.0167
  843MOL0     H13750   2.944   6.844   5.234 -1.5191 -0.6798  0.0270
  843MOL0     H13751   2.996   6.934   5.082 -1.5228  0.4398 -0.1522
  843MOL0     H13752   2.760   6.893   5.087  1.3707  0.9124  0.6299
  843MOL0     H13753   2.827   6.804   4.951  2.5700 -0.6472  0.2430
  843MOL0     H13754   2.799   6.667   5.226  0.9333 -2.6121  0.1534
  843MOL0     H13755   2.804   6.600   5.065  1.8309 -0.6971  2.2890
  843MOL0     H13756   2.557   6.751   5.328 -2.8937  1.7869  0.5685
  843MOL0     H13757   2.271   6.764   5.289  2.7017  0.3118  1.0465
  843MOL0     H13758   2.215   6.623   5.201 -1.0278  0.2098 -0.2068
  843MOL0     H13759   2.384   6.489   5.386  0.1655 -1.7206 -0.2487
  843MOL0     H13760   2.218   6.490   5.404 -2.3198  2.8287  2.9645
  843MOL0     H13761   2.398   6.717   5.524 -1.3058  1.3651 -1.0134
  843MOL0     H13762   2.380   6.556   5.594  0.4472 -0.5840 -0.6590
  843MOL0     H13763   2.168   6.770   5.535  0.0125 -0.9771  0.0087
  843MOL0     H13764   2.225   6.711   5.699  1.5317 -0.0929 -0.3557
  843MOL0     H13765   2.016   6.822   5.685  0.8824 -0.0735 -2.1125
  843MOL0     H13766   1.799   7.006   5.672  1.2609  1.1069  0.8732
  843MOL0     H13767   1.696   6.953   5.798 -1.1161  3.6460 -3.6770
  843MOL0     H13768   1.872   6.951   5.811  0.5674 -1.1182  0.0916
  843MOL0     H13769   1.266   6.586   5.481  1.0260 -0.3127 -0.3324
  843MOL0     H13770   1.045   6.655   5.508  4.0475 -1.6938 -1.4123
  843MOL0     H13771   0.879   6.885   5.584  1.4537  0.1859  3.2352
  843MOL0     H13772   0.834   6.725   5.529 -2.3862 -0.8533 -0.6352
  843MOL0     H13773   0.620   6.833   5.582  2.7055 -0.8635 -1.2274
  843MOL0     H13774   0.655   6.721   5.720 -1.7353  1.3964  0.8174
  843MOL0     H13775   0.580   6.971   5.753 -0.2137  0.0024 -0.2284
  843MOL0     H13776   0.763   6.988   5.762 -0.7006  0.2215  0.3970
  843MOL0     H13777   0.593   6.789   5.920  2.4853 -1.2401  2.7440
  843MOL0     H13778   0.755   6.797   5.916 -0.7505  0.2712  1.3915
  843MOL0     H13779   0.675   6.887   6.107 -1.2575 -0.2022 -1.8110
  843MOL0     H13780   0.593   7.026   6.019 -0.9659 -0.0623 -0.5404
  843MOL0     H13781   0.805   7.114   5.946 -0.3367 -1.1946 -0.6565
  843MOL0     H13782   0.794   7.106   6.125  1.3587 -1.6570  0.7032
  843MOL0     H13783   0.975   6.975   5.946  0.4251 -2.4306 -0.3818
  843MOL0     H13784   0.928   6.876   6.091  0.6187 -0.3190 -0.3363
  843MOL0     H13785   1.141   6.993   6.113  0.2282 -1.0766  0.9149
  843MOL0     H13786   1.038   7.070   6.236  1.9811 -0.5230  0.7616
  843MOL0     H13787   1.104   6.815   5.899 -2.1423  1.0743 -1.4595
  843MOL0     H13788   1.350   6.775   5.862  1.1123  0.9418 -1.8447
  843MOL0     H13789   1.646   6.490   5.598  2.4383 -0.9661 -1.0731
  843MOL0     H13790   1.894   6.442   5.544  0.5741  0.3886 -0.7913
  843MOL0     H13791   3.651   6.805   5.334 -1.3435  0.9147 -0.5092
  843MOL0     H13792   3.879   6.805   5.439 -0.3128 -0.8163 -1.3040
  843MOL0     H13793   4.256   6.953   5.529  1.5672 -1.4068  1.3318
  843MOL0     H13794   4.464   6.969   5.622 -0.3671 -0.9657 -0.3709
  843MOL0     H13795   4.539   7.342   5.777 -0.4039 -0.1738  1.3776
  843MOL0     H13796   4.644   7.290   5.904 -0.8417  0.1391  0.0844
  843MOL0     H13797   4.819   7.218   5.744 -2.1974 -2.2390 -2.0621
  843MOL0     H13798   4.790   7.388   5.753  0.3115 -0.6369  0.7127
  843MOL0     H13799   4.684   7.199   5.527  0.2588  1.2273 -3.5946
  843MOL0     H13800   4.809   7.318   5.512  0.0542 -0.9909 -0.0455
  843MOL0     H13801   4.597   7.489   5.565 -0.9396 -2.0507  2.7766
  843MOL0     H13802   4.504   7.344   5.554 -0.9496  3.3453  1.3872
  843MOL0     H13803   4.574   7.378   5.145 -1.3461 -0.3364  1.1252
  843MOL0     H13804   4.361   7.294   5.850  4.1314  1.7606 -2.6967
  843MOL0     H13805   4.109   7.273   5.767 -0.2987 -1.6128  2.9651
  844MOL0     O13806   7.202   5.038   6.978  0.3818  0.3282  0.3468
  844MOL0     C13807   7.259   5.151   6.992  0.2566  0.5884  0.1518
  844MOL0     O13808   7.212   5.263   7.045 -0.0700 -0.4281 -0.2067
  844MOL0     C13809   7.080   5.265   7.023  0.2072  0.0079 -0.0848
  844MOL0     C13810   6.993   5.188   7.110  0.0305 -0.3925  0.5917
  844MOL0     C13811   6.857   5.193   7.079 -0.6190  0.4710  0.2637
  844MOL0     C13812   6.810   5.250   6.962  0.5596 -1.7290 -0.9251
  844MOL0     O13813   6.675   5.264   6.949  0.5688 -0.5457  0.0907
  844MOL0     C13814   6.604   5.144   6.923 -1.1168 -0.6999 -0.2717
  844MOL0     C13815   6.461   5.157   6.973  0.0292  0.1384  0.2456
  844MOL0     C13816   6.393   5.023   6.938 -0.0950  0.9592  0.9617
  844MOL0     C13817   6.242   5.030   6.958  0.4524 -0.7110 -0.4965
  844MOL0     C13818   6.162   4.912   6.904  0.0074 -1.2668  0.0502
  844MOL0     C13819   6.016   4.904   6.954 -0.0529 -0.4723 -0.3845
  844MOL0     C13820   5.920   5.022   6.915  0.3028  0.3967  0.0668
  844MOL0     C13821   5.914   5.140   7.020  0.3668  0.3462  0.1201
  844MOL0     N13822   5.877   5.090   7.157 -0.3076  0.2036 -0.0901
  844MOL0     C13823   5.754   5.027   7.193 -0.6090 -0.3966  0.1126
  844MOL0     C13824   5.768   5.014   7.319  0.5290 -0.2570 -0.2910
  844MOL0     C13825   5.656   4.982   7.407  0.0134  0.8410 -0.3795
  844MOL0     C13826   5.564   5.100   7.435 -0.4074  0.8897 -0.1821
  844MOL0     C13827   5.637   5.210   7.506 -0.3371 -0.5871  0.1029
  844MOL0     C13828   5.545   5.327   7.552 -0.2706  0.7564 -0.7394
  844MOL0     O13829   5.486   5.394   7.446  0.1763  0.2881 -0.0514
  844MOL0     C13830   5.375   5.476   7.470 -0.1998 -0.6828  0.3490
  844MOL0     C13831   5.341   5.562   7.368  0.0657 -0.1848 -0.7687
  844MOL0     C13832   5.236   5.647   7.381  0.2871 -0.1328  0.1138
  844MOL0     C13833   5.210   5.748   7.270 -0.6689  0.3512 -0.5211
  844MOL0     C13834   5.150   5.643   7.497  0.2041 -0.4459 -0.7411
  844MOL0     C13835   5.018   5.712   7.514  0.7202  0.0920 -0.1336
  844MOL0     O13836   4.952   5.704   7.634 -1.3142  0.5426 -0.5938
  844MOL0     C13837   4.826   5.752   7.649 -1.2434  0.0791 -0.3688
  844MOL0     C13838   4.804   5.885   7.690 -0.3444 -0.4994  0.6338
  844MOL0     C13839   4.678   5.912   7.743 -0.0207 -0.7610  0.0140
  844MOL0     C13840   4.575   5.826   7.730  0.1506 -0.5013  0.1599
  844MOL0     O13841   4.450   5.858   7.771  0.2960 -1.1264 -0.0634
  844MOL0     C13842   4.403   5.975   7.704 -0.3861 -0.1415 -0.3608
  844MOL0     C13843   4.293   5.943   7.609  0.1396 -0.0340 -0.2970
  844MOL0     C13844   4.159   5.907   7.671 -0.0595 -0.6192 -0.4303
  844MOL0     C13845   4.029   5.952   7.607  0.0224 -0.1604 -1.0553
  844MOL0     C13846   3.905   5.879   7.663 -0.4507  0.2222 -0.1103
  844MOL0     C13847   3.833   5.967   7.768 -0.1469  0.6403  0.1431
  844MOL0     C13848   3.688   5.951   7.793 -0.9425 -0.3135 -0.6043
  844MOL0     C13849   3.655   5.841   7.891 -0.0829 -0.4134  1.2894
  844MOL0    Cl13850   3.477   5.842   7.895  0.4688 -0.0440  0.5435
  844MOL0     C13851   4.597   5.699   7.680 -0.5175 -0.5434 -1.1679
  844MOL0     C13852   4.726   5.656   7.649 -0.2544  0.9461  0.3112
  844MOL0     O13853   4.958   5.753   7.414 -0.3518  0.1391 -0.5931
  844MOL0     C13854   5.191   5.573   7.606 -0.3170  1.4176 -1.3419
  844MOL0     C13855   5.306   5.496   7.594 -0.1820 -0.9379 -0.0497
  844MOL0     N13856   5.890   5.040   7.361 -0.0280 -0.2514  0.2591
  844MOL0     N13857   5.960   5.080   7.266  0.3937  0.2966 -0.3344
  844MOL0     C13858   6.901   5.320   6.881  0.5951  0.0768 -0.2919
  844MOL0     C13859   7.031   5.322   6.900 -0.5551 -0.2203 -0.3238
  844MOL0     C13860   7.406   5.161   6.956 -0.0955  0.1783 -0.1521
  844MOL0     C13861   7.462   5.054   6.892 -0.2168 -0.3379  0.1201
  844MOL0     C13862   7.598   5.048   6.853  0.5043 -0.6640  0.1167
  844MOL0     C13863   7.672   5.156   6.870 -0.2905  0.0496  0.1797
  844MOL0     O13864   7.798   5.179   6.815 -0.1833 -0.4405  0.8640
  844MOL0     C13865   7.841   5.094   6.718 -0.0590 -0.4789 -0.1209
  844MOL0     C13866   7.782   5.126   6.573 -0.2827 -0.0704 -0.8946
  844MOL0     C13867   7.848   5.057   6.458  0.5205 -0.1962  0.1424
  844MOL0     C13868   7.805   4.905   6.451 -0.4971 -0.5648  0.4539
  844MOL0     C13869   7.654   4.887   6.424 -0.8361  0.9134  0.4037
  844MOL0     C13870   7.531   4.885   6.402 -0.0583  0.7897  0.0101
  844MOL0     C13871   7.618   5.261   6.941  0.2242 -0.2328  0.3660
  844MOL0     C13872   7.488   5.262   6.990 -0.1164 -0.3241  0.0902
  844MOL0     H13873   7.033   5.130   7.193  4.2949  0.6351 -0.5041
  844MOL0     H13874   6.792   5.140   7.148 -1.8106  3.0154  1.2690
  844MOL0     H13875   6.607   5.124   6.816 -0.0582  1.0060 -0.5982
  844MOL0     H13876   6.659   5.070   6.982 -1.5160 -0.4684  0.4062
  844MOL0     H13877   6.463   5.170   7.082  1.5315 -0.0280  0.2647
  844MOL0     H13878   6.400   5.237   6.931 -1.8620 -1.5012 -0.2931
  844MOL0     H13879   6.416   4.988   6.837 -0.2871  0.6593  1.0209
  844MOL0     H13880   6.443   4.952   7.006  3.5672  1.6360 -0.7958
  844MOL0     H13881   6.215   5.047   7.063 -1.1258  0.9331 -1.1284
  844MOL0     H13882   6.199   5.119   6.912 -0.1963  0.7209  2.6012
  844MOL0     H13883   6.160   4.922   6.795 -1.1663 -0.0467  0.1670
  844MOL0     H13884   6.217   4.822   6.937  0.2620 -1.6412 -1.3162
  844MOL0     H13885   5.976   4.811   6.914 -0.3631 -0.8186  0.6891
  844MOL0     H13886   6.022   4.902   7.063 -1.9698  1.8607 -0.1617
  844MOL0     H13887   5.938   5.061   6.815  4.5652 -1.2629 -0.0373
  844MOL0     H13888   5.819   4.979   6.917 -0.3617  1.8868 -0.3882
  844MOL0     H13889   5.843   5.219   6.990 -1.1500 -0.0471  2.3946
  844MOL0     H13890   6.010   5.189   7.038 -0.4331  1.3462  1.9222
  844MOL0     H13891   5.660   5.024   7.139 -2.0144 -1.9265  2.4513
  844MOL0     H13892   5.588   4.901   7.379 -3.1534  1.4853  4.2762
  844MOL0     H13893   5.689   4.948   7.506  2.2130  0.6853 -1.0947
  844MOL0     H13894   5.483   5.062   7.497  0.4298  1.1303  1.1042
  844MOL0     H13895   5.527   5.127   7.336 -1.3529  2.3771  0.5488
  844MOL0     H13896   5.713   5.259   7.445 -1.0751  2.4556  1.4579
  844MOL0     H13897   5.687   5.168   7.594 -1.4228 -0.7568  0.6581
  844MOL0     H13898   5.596   5.404   7.610  1.5671 -1.7472  1.2135
  844MOL0     H13899   5.469   5.279   7.614  0.0635  0.8637 -0.2424
  844MOL0     H13900   5.408   5.573   7.283  0.4418  3.1030 -0.1676
  844MOL0     H13901   5.291   5.767   7.199 -0.9741 -0.9870 -1.2654
  844MOL0     H13902   5.128   5.709   7.208 -1.4953 -0.3182  0.9332
  844MOL0     H13903   5.185   5.848   7.306 -2.3085  1.0055 -3.1872
  844MOL0     H13904   4.893   5.946   7.702  1.3650 -2.8136  0.4213
  844MOL0     H13905   4.655   6.008   7.787 -2.1287 -1.6269  0.9531
  844MOL0     H13906   4.352   6.043   7.774  0.5890 -0.4184  0.6310
  844MOL0     H13907   4.488   6.028   7.661  1.2350 -0.1800  2.5363
  844MOL0     H13908   4.281   6.027   7.540 -0.5841 -0.2629 -0.4619
  844MOL0     H13909   4.331   5.866   7.541 -1.5732  1.5082 -3.2092
  844MOL0     H13910   4.166   5.956   7.769  0.5541  0.5022 -1.0066
  844MOL0     H13911   4.155   5.801   7.696 -1.0180 -0.6428 -0.6549
  844MOL0     H13912   4.019   6.060   7.618 -2.2359 -0.4725  0.7869
  844MOL0     H13913   4.033   5.929   7.500 -1.5829  2.2168 -1.7102
  844MOL0     H13914   3.923   5.774   7.688 -1.1021 -0.2000 -1.3465
  844MOL0     H13915   3.842   5.870   7.574  0.8002 -3.8055 -0.8244
  844MOL0     H13916   3.889   5.961   7.861  0.0361  5.2525  0.5711
  844MOL0     H13917   3.855   6.070   7.738 -0.3746  0.9279  0.9205
  844MOL0     H13918   3.634   5.930   7.700 -1.9129 -4.7821  0.6883
  844MOL0     H13919   3.652   6.046   7.832 -0.0503 -0.2472  0.0822
  844MOL0     H13920   3.699   5.886   7.981 -1.7502  0.6411  1.6102
  844MOL0     H13921   3.699   5.744   7.866  2.0852  0.1361  2.6336
  844MOL0     H13922   4.508   5.637   7.679 -2.7137  1.7210  4.9416
  844MOL0     H13923   4.752   5.557   7.614 -0.6549  0.3456  1.6581
  844MOL0     H13924   5.143   5.556   7.702  0.0801 -1.3939 -1.5578
  844MOL0     H13925   5.318   5.442   7.687  0.4742 -2.3952 -0.9504
  844MOL0     H13926   6.856   5.385   6.806  1.4417 -1.3997 -2.1937
  844MOL0     H13927   7.086   5.360   6.814 -0.6896 -0.3817 -0.4814
  844MOL0     H13928   7.394   4.971   6.878  0.0240 -1.0636  2.8057
  844MOL0     H13929   7.641   4.951   6.829  0.2148 -0.8812  0.4501
  844MOL0     H13930   7.949   5.109   6.717  0.2546 -2.1172 -2.8408
  844MOL0     H13931   7.826   4.989   6.743 -0.5593 -0.0123  1.6605
  844MOL0     H13932   7.796   5.232   6.550  1.1606 -0.2770 -1.0278
  844MOL0     H13933   7.674   5.106   6.571 -0.2631 -0.0917 -1.9918
  844MOL0     H13934   7.956   5.063   6.472  0.2715  1.9156  1.5902
  844MOL0     H13935   7.831   5.111   6.364  1.4968  0.5027  0.3535
  844MOL0     H13936   7.828   4.852   6.544  0.9896 -0.7431  0.0102
  844MOL0     H13937   7.865   4.856   6.375 -0.5447  0.9817 -0.6284
  844MOL0     H13938   7.428   4.901   6.375 -0.2736  0.0028  0.3373
  844MOL0     H13939   7.683   5.343   6.967  0.9863 -0.9679  0.8329
  844MOL0     H13940   7.444   5.351   7.033  0.3285 -1.7665  3.9466
  845MOL0     O13941   8.001   3.511   5.528  0.0165  0.3812  0.1589
  845MOL0     C13942   8.020   3.394   5.562  0.2846  0.4372 -0.2476
  845MOL0     O13943   7.916   3.303   5.593 -0.0428  0.3094  0.8340
  845MOL0     C13944   7.794   3.357   5.599  0.3399  0.1640  0.8255
  845MOL0     C13945   7.730   3.432   5.700 -0.3638 -1.0367  0.4381
  845MOL0     C13946   7.593   3.467   5.700 -0.5819 -0.2364 -0.3057
  845MOL0     C13947   7.513   3.434   5.590  0.5768  0.5556 -0.1097
  845MOL0     O13948   7.380   3.483   5.588 -0.5770 -0.6027  0.2636
  845MOL0     C13949   7.273   3.435   5.498 -0.8003  0.5730 -0.6961
  845MOL0     C13950   7.226   3.307   5.566  0.3656  0.6843 -0.3429
  845MOL0     C13951   7.159   3.322   5.700  0.0485 -0.2024 -1.0844
  845MOL0     C13952   7.093   3.198   5.749 -0.2872  0.8640 -0.1107
  845MOL0     C13953   7.048   3.208   5.892 -0.8704 -0.2486 -0.4534
  845MOL0     C13954   6.922   3.292   5.911  0.4487 -0.1975 -0.4157
  845MOL0     C13955   6.806   3.241   5.831  0.5455  0.5251 -0.6588
  845MOL0     C13956   6.671   3.293   5.886 -0.1811 -0.5642  0.2757
  845MOL0     N13957   6.559   3.255   5.802 -0.0969 -0.2529 -0.2108
  845MOL0     C13958   6.444   3.201   5.844 -0.5353 -0.1838 -0.1542
  845MOL0     C13959   6.372   3.188   5.730  0.0655  0.5330 -0.0312
  845MOL0     C13960   6.252   3.102   5.691 -0.3212 -0.0962 -0.4443
  845MOL0     C13961   6.114   3.179   5.732 -0.3778  0.0516 -0.2322
  845MOL0     C13962   5.974   3.135   5.670  0.0864 -0.6179  0.1329
  845MOL0     C13963   5.945   3.199   5.536 -0.2987  0.5784 -0.0716
  845MOL0     O13964   5.949   3.334   5.522  0.9163  0.3997  0.3009
  845MOL0     C13965   5.845   3.406   5.569  0.5627 -0.0805 -0.3994
  845MOL0     C13966   5.708   3.371   5.560 -0.6906 -0.2224  0.4902
  845MOL0     C13967   5.596   3.445   5.600  0.1428  0.8463  0.2597
  845MOL0     C13968   5.457   3.390   5.569  0.0232 -0.3417 -0.5074
  845MOL0     C13969   5.623   3.559   5.681 -0.8636 -0.6742  0.4275
  845MOL0     C13970   5.517   3.636   5.744 -0.1632  0.5173  0.3365
  845MOL0     O13971   5.511   3.626   5.882  0.5022 -0.9867 -0.0179
  845MOL0     C13972   5.409   3.693   5.949  0.5596  0.1824 -0.3570
  845MOL0     C13973   5.356   3.640   6.062  0.8732 -0.3098 -0.9268
  845MOL0     C13974   5.248   3.692   6.143 -0.8433 -0.6875 -0.1823
  845MOL0     C13975   5.207   3.818   6.102  0.7316 -0.0671  0.0691
  845MOL0     O13976   5.105   3.874   6.181  0.2678  0.2786  0.3260
  845MOL0     C13977   5.001   3.938   6.104 -0.5403  0.2518  0.3741
  845MOL0     C13978   4.870   3.955   6.185 -1.1116 -0.4076 -0.2887
  845MOL0     C13979   4.826   3.820   6.242 -0.0080  0.5001 -0.3877
  845MOL0     C13980   4.688   3.809   6.311 -0.4212 -0.1363 -0.6430
  845MOL0     C13981   4.637   3.663   6.340 -0.3093 -0.4847  0.2683
  845MOL0     C13982   4.490   3.677   6.401 -0.7980 -0.6671 -0.0159
  845MOL0     C13983   4.435   3.532   6.402  0.0711  1.0562  0.2940
  845MOL0     C13984   4.289   3.538   6.381  0.8650  1.5404 -0.6555
  845MOL0    Cl13985   4.223   3.392   6.449  0.2151 -0.2788 -0.2341
  845MOL0     C13986   5.266   3.886   5.996 -0.3392 -0.9221  0.6600
  845MOL0     C13987   5.366   3.822   5.912  1.0373  0.5964 -0.2405
  845MOL0     O13988   5.448   3.701   5.667 -0.1899  0.5386  0.8013
  845MOL0     C13989   5.761   3.597   5.700 -0.0077  0.2894 -0.2344
  845MOL0     C13990   5.864   3.518   5.654  0.4755 -0.0617  0.5581
  845MOL0     N13991   6.437   3.247   5.627 -1.0506 -0.1689 -0.9821
  845MOL0     N13992   6.546   3.289   5.672  0.2396 -0.6150 -0.0681
  845MOL0     C13993   7.572   3.353   5.488 -0.1096  0.0374  0.4850
  845MOL0     C13994   7.710   3.318   5.495  0.1689 -0.5401 -0.1491
  845MOL0     C13995   8.156   3.345   5.537  0.0382 -0.2545  0.6283
  845MOL0     C13996   8.181   3.208   5.567 -0.5064 -0.3389 -0.1817
  845MOL0     C13997   8.317   3.162   5.565  0.4204  0.7952  0.2611
  845MOL0     C13998   8.421   3.246   5.513  0.7085 -0.0647  0.6305
  845MOL0     O13999   8.553   3.204   5.503  0.0340 -0.4641 -0.2732
  845MOL0     C14000   8.600   3.084   5.572  0.3823 -0.0455 -0.7411
  845MOL0     C14001   8.749   3.063   5.560  0.2089 -0.1508  0.4487
  845MOL0     C14002   8.841   3.114   5.677 -0.0235 -0.1224  0.3325
  845MOL0     C14003   8.862   3.268   5.670 -0.6523 -0.0204 -0.0205
  845MOL0     C14004   8.968   3.305   5.772  0.4244  0.2244 -0.0569
  845MOL0     C14005   9.048   3.325   5.860 -0.3176  0.2354  0.5806
  845MOL0     C14006   8.389   3.377   5.473 -0.3396  0.5935  0.4194
  845MOL0     C14007   8.262   3.425   5.486  0.1694  0.6774  0.2550
  845MOL0     H14008   7.788   3.448   5.791  3.4442  0.2751 -1.9778
  845MOL0     H14009   7.553   3.527   5.780  3.3216  1.5501  0.5478
  845MOL0     H14010   7.197   3.514   5.501 -0.2945  1.0270  0.7399
  845MOL0     H14011   7.306   3.417   5.395  1.5236 -2.9063  0.4749
  845MOL0     H14012   7.154   3.258   5.501  1.2209  0.2155 -0.9540
  845MOL0     H14013   7.314   3.242   5.566  0.0514  0.2397 -1.6515
  845MOL0     H14014   7.230   3.351   5.778 -2.0567 -0.4248  1.0050
  845MOL0     H14015   7.081   3.398   5.705  0.2728 -0.0236 -0.1475
  845MOL0     H14016   7.009   3.177   5.682  1.7987 -1.0874 -2.2913
  845MOL0     H14017   7.164   3.116   5.735 -0.9109  0.3383 -0.2479
  845MOL0     H14018   7.017   3.107   5.919 -1.9556  1.0092  3.8050
  845MOL0     H14019   7.139   3.239   5.944 -0.3929  1.2821 -2.0793
  845MOL0     H14020   6.896   3.276   6.016  3.4588 -1.2673  0.2756
  845MOL0     H14021   6.939   3.398   5.890  2.4608  0.0279  1.8903
  845MOL0     H14022   6.815   3.254   5.723  2.2436 -0.0873 -0.6334
  845MOL0     H14023   6.800   3.137   5.863  3.5671  0.0517 -1.2639
  845MOL0     H14024   6.678   3.402   5.894 -1.5466 -0.3361 -1.2793
  845MOL0     H14025   6.659   3.249   5.986  1.3634 -0.3900  0.5751
  845MOL0     H14026   6.422   3.171   5.946  0.4283 -0.7113 -0.0899
  845MOL0     H14027   6.249   3.076   5.585 -0.7879 -1.6813 -0.0801
  845MOL0     H14028   6.257   3.007   5.745 -0.1097  0.4891  0.5895
  845MOL0     H14029   6.121   3.288   5.726  0.7129  0.1430  1.7010
  845MOL0     H14030   6.103   3.158   5.839  0.5790 -0.8338 -0.2873
  845MOL0     H14031   5.893   3.166   5.736  0.0785 -1.6476  0.6212
  845MOL0     H14032   5.968   3.026   5.667  0.6288 -0.6354 -1.3470
  845MOL0     H14033   5.860   3.146   5.494  0.0086  1.3895 -1.7984
  845MOL0     H14034   6.033   3.164   5.481  0.5136  1.4429  0.6381
  845MOL0     H14035   5.682   3.291   5.492 -0.1799  0.5996 -0.6992
  845MOL0     H14036   5.386   3.457   5.519  0.7191 -0.8266 -2.2121
  845MOL0     H14037   5.462   3.305   5.502 -0.3602  1.5349 -3.0618
  845MOL0     H14038   5.404   3.360   5.660 -2.2795  0.9317 -1.3498
  845MOL0     H14039   5.396   3.544   6.094 -0.6089 -1.0906 -1.3022
  845MOL0     H14040   5.207   3.648   6.233 -1.1611  1.3319  0.7024
  845MOL0     H14041   5.038   4.035   6.070  0.2068 -0.3330 -0.5491
  845MOL0     H14042   4.982   3.876   6.015 -3.0775  0.3205  0.7934
  845MOL0     H14043   4.879   4.031   6.262 -2.2737 -1.1504  0.6107
  845MOL0     H14044   4.789   3.979   6.115 -1.4718  0.9891  0.5611
  845MOL0     H14045   4.902   3.779   6.309  0.7775  0.0265 -1.5244
  845MOL0     H14046   4.827   3.754   6.154  1.6174  0.6493 -0.5010
  845MOL0     H14047   4.696   3.873   6.399 -0.8659  2.0286 -2.0953
  845MOL0     H14048   4.614   3.858   6.246 -0.1407 -0.9475 -1.6074
  845MOL0     H14049   4.703   3.612   6.411  1.4230 -1.2069 -1.7577
  845MOL0     H14050   4.641   3.598   6.252 -1.2343 -3.9597  2.5859
  845MOL0     H14051   4.495   3.711   6.505  0.3305 -4.1945  1.2367
  845MOL0     H14052   4.425   3.749   6.350 -0.2351  1.2375  1.8232
  845MOL0     H14053   4.462   3.494   6.501  1.2177  0.8590 -0.0809
  845MOL0     H14054   4.475   3.462   6.329  0.1039  0.6238  0.7219
  845MOL0     H14055   4.277   3.540   6.272  1.3257  0.4997 -0.7432
  845MOL0     H14056   4.242   3.623   6.431 -0.4277  0.5893 -0.1946
  845MOL0     H14057   5.238   3.990   5.980 -0.8891 -1.2717 -0.7276
  845MOL0     H14058   5.414   3.875   5.831 -1.1818 -1.1159 -2.8484
  845MOL0     H14059   5.794   3.672   5.772  0.8497 -1.3103  1.1246
  845MOL0     H14060   5.965   3.535   5.690  0.0830  0.7562  1.3511
  845MOL0     H14061   7.514   3.307   5.409  0.2250 -2.7592  1.7292
  845MOL0     H14062   7.750   3.256   5.415  3.6731  3.1496 -1.5850
  845MOL0     H14063   8.099   3.141   5.592  0.2000 -0.3235  2.4918
  845MOL0     H14064   8.347   3.061   5.590 -0.7199  0.5195  0.5911
  845MOL0     H14065   8.574   3.093   5.678  0.2492 -3.6357 -0.3202
  845MOL0     H14066   8.558   2.995   5.524  2.4429 -0.9531 -0.9606
  845MOL0     H14067   8.772   3.120   5.469  1.8436 -0.7512  0.4650
  845MOL0     H14068   8.782   2.965   5.527  0.2505  0.1903 -0.5600
  845MOL0     H14069   8.937   3.063   5.680  0.7323  1.2585  0.3726
  845MOL0     H14070   8.790   3.093   5.771 -1.7926 -0.6348 -0.6870
  845MOL0     H14071   8.773   3.329   5.689 -0.3917  0.1519  0.6555
  845MOL0     H14072   8.901   3.297   5.572 -1.2402 -0.7085 -0.4691
  845MOL0     H14073   9.131   3.350   5.923  1.6182 -1.6500 -1.0133
  845MOL0     H14074   8.462   3.445   5.432  0.2201 -1.6470 -2.6083
  845MOL0     H14075   8.241   3.516   5.430 -1.4890  0.5040  0.5694
  846MOL0     O14076   7.004   3.001   2.498 -0.1442  0.4110  0.5959
  846MOL0     C14077   6.888   3.035   2.467 -0.6464 -0.3887 -0.0411
  846MOL0     O14078   6.793   2.958   2.410 -0.7877 -0.5357 -0.1389
  846MOL0     C14079   6.811   2.824   2.401  0.6604  0.6486  0.2268
  846MOL0     C14080   6.753   2.766   2.294  0.4560 -0.9788 -0.2179
  846MOL0     C14081   6.739   2.632   2.268 -0.2221  0.4820  0.0951
  846MOL0     C14082   6.809   2.542   2.353  0.4342 -0.2550  0.7033
  846MOL0     O14083   6.823   2.410   2.329 -0.0311 -0.2731  0.4653
  846MOL0     C14084   6.721   2.324   2.377 -0.5571  0.3997 -0.4605
  846MOL0     C14085   6.755   2.177   2.351  1.1715  0.8645 -0.1793
  846MOL0     C14086   6.627   2.090   2.399 -0.3964 -0.3120 -0.3588
  846MOL0     C14087   6.618   1.953   2.325 -0.5353 -0.1701  0.5107
  846MOL0     C14088   6.485   1.880   2.361  0.3613 -0.4366 -0.3802
  846MOL0     C14089   6.506   1.821   2.507 -0.4596  1.0252  0.4488
  846MOL0     C14090   6.492   1.665   2.511  0.5414  0.1291  0.5355
  846MOL0     C14091   6.466   1.607   2.652  0.3195  0.4057  0.2501
  846MOL0     N14092   6.595   1.577   2.727 -0.2133  0.1956  0.0580
  846MOL0     C14093   6.718   1.621   2.702 -0.5151  0.5740 -1.0240
  846MOL0     C14094   6.801   1.559   2.791  0.5490  0.4843  0.9466
  846MOL0     C14095   6.946   1.546   2.797 -0.2789  0.1773 -0.8686
  846MOL0     C14096   6.998   1.507   2.942  0.9672  0.3206  0.1048
  846MOL0     C14097   7.143   1.522   2.963 -0.2273 -0.1589 -0.0879
  846MOL0     C14098   7.223   1.407   2.905  0.0631 -0.8734  0.4607
  846MOL0     O14099   7.241   1.300   3.004 -0.2203  0.2640 -0.6418
  846MOL0     C14100   7.358   1.221   3.000 -0.5379 -0.2446  0.6302
  846MOL0     C14101   7.386   1.153   3.114 -0.4999 -0.8473  0.2121
  846MOL0     C14102   7.485   1.055   3.117  0.4390 -0.3986 -0.1764
  846MOL0     C14103   7.481   0.973   3.241 -0.2594  0.2282 -0.7184
  846MOL0     C14104   7.552   1.019   2.999 -0.1246  0.0375 -1.0346
  846MOL0     C14105   7.654   0.911   2.997  0.4965  0.4077  0.0869
  846MOL0     O14106   7.720   0.907   2.883 -0.1395 -0.4921  0.1749
  846MOL0     C14107   7.851   0.865   2.888 -0.5842 -0.4988 -0.0982
  846MOL0     C14108   7.886   0.762   2.800 -0.9315 -0.1454 -0.1039
  846MOL0     C14109   8.023   0.741   2.787 -0.0142  0.9827 -0.8940
  846MOL0     C14110   8.124   0.807   2.853 -0.4546  0.4657  0.0826
  846MOL0     O14111   8.251   0.766   2.822 -1.0414 -0.2644 -0.8640
  846MOL0     C14112   8.347   0.819   2.913 -0.0168  0.1257  0.5155
  846MOL0     C14113   8.490   0.756   2.886 -0.4102 -0.3622  0.2535
  846MOL0     C14114   8.516   0.627   2.965 -0.0471 -0.1066 -0.5143
  846MOL0     C14115   8.413   0.518   2.936  0.1018 -0.0951 -0.5029
  846MOL0     C14116   8.429   0.392   3.025  0.2933  0.7935 -0.2702
  846MOL0     C14117   8.509   0.287   2.945 -0.6412  0.8040  0.3808
  846MOL0     C14118   8.566   0.169   3.030  0.0747  0.5207  0.7284
  846MOL0     C14119   8.620   0.042   2.958  0.1439  0.5315 -0.6026
  846MOL0    Cl14120   8.779   0.064   2.879  0.0718  0.1252 -0.2849
  846MOL0     C14121   8.079   0.901   2.945 -0.1986 -0.2206  0.5078
  846MOL0     C14122   7.947   0.934   2.959  0.1715  0.0338 -0.3287
  846MOL0     O14123   7.685   0.850   3.096 -0.6427 -0.2965 -0.4246
  846MOL0     C14124   7.512   1.083   2.879 -0.1510  0.5789 -0.3218
  846MOL0     C14125   7.419   1.180   2.872 -0.0561 -1.0558 -0.1406
  846MOL0     N14126   6.722   1.482   2.876 -0.4844 -0.1868 -0.4688
  846MOL0     N14127   6.608   1.493   2.831 -0.4059 -0.3237  0.2356
  846MOL0     C14128   6.871   2.599   2.469 -1.7100  0.0944 -0.2946
  846MOL0     C14129   6.875   2.739   2.489 -0.2756  0.3580  0.5286
  846MOL0     C14130   6.854   3.176   2.479  0.0747 -0.3101  0.0189
  846MOL0     C14131   6.952   3.277   2.447  0.9753  0.3268  0.1887
  846MOL0     C14132   6.922   3.414   2.438 -1.4567  0.3111 -0.2819
  846MOL0     C14133   6.790   3.450   2.485  0.0077  1.1190  0.0217
  846MOL0     O14134   6.772   3.583   2.483  0.0690  0.0614  0.3386
  846MOL0     C14135   6.648   3.631   2.537  0.0280  0.6731 -0.1596
  846MOL0     C14136   6.556   3.679   2.420 -0.3353 -0.5546  0.0061
  846MOL0     C14137   6.427   3.752   2.483  0.8233  1.0256 -0.6270
  846MOL0     C14138   6.356   3.815   2.355 -0.4326  1.0105 -0.5373
  846MOL0     C14139   6.274   3.936   2.390  0.1521 -0.1759 -0.7736
  846MOL0     C14140   6.203   4.035   2.412 -0.4786  0.1083  0.5029
  846MOL0     C14141   6.696   3.348   2.498  0.0647 -0.8741  0.5539
  846MOL0     C14142   6.723   3.213   2.500  0.3435  1.0026  0.0517
  846MOL0     H14143   6.702   2.833   2.225  0.1489  1.4614  2.2095
  846MOL0     H14144   6.691   2.587   2.181  0.6704 -0.4028  0.0371
  846MOL0     H14145   6.701   2.334   2.484 -0.2687  0.6984 -0.4352
  846MOL0     H14146   6.626   2.351   2.329 -0.6425  0.1985 -0.4044
  846MOL0     H14147   6.771   2.164   2.244  1.5860 -1.1356  0.1014
  846MOL0     H14148   6.850   2.155   2.401  1.1160 -1.5941 -1.0385
  846MOL0     H14149   6.623   2.076   2.507 -1.3363 -0.5852 -0.4198
  846MOL0     H14150   6.538   2.149   2.375 -0.7563 -1.2116 -1.3175
  846MOL0     H14151   6.624   1.970   2.217  1.5782 -2.7422  0.1271
  846MOL0     H14152   6.699   1.887   2.357 -1.0813 -0.1606  1.9609
  846MOL0     H14153   6.391   1.935   2.359 -0.0106 -0.9701  1.0452
  846MOL0     H14154   6.465   1.804   2.284 -3.3508 -1.6036  1.4871
  846MOL0     H14155   6.606   1.838   2.547 -0.1978 -0.9317  0.7396
  846MOL0     H14156   6.435   1.870   2.575 -0.7955 -0.5938  1.3460
  846MOL0     H14157   6.409   1.639   2.445 -0.6060 -0.7796  2.2448
  846MOL0     H14158   6.583   1.620   2.471  0.0349 -1.1519  0.7770
  846MOL0     H14159   6.415   1.512   2.638 -2.2858  1.4370  1.9413
  846MOL0     H14160   6.399   1.677   2.704  1.0321  1.9028 -0.7815
  846MOL0     H14161   6.753   1.688   2.625 -0.2361  2.9218  0.9978
  846MOL0     H14162   6.976   1.458   2.740 -0.7174 -0.8560  0.4533
  846MOL0     H14163   6.993   1.640   2.767 -0.2260 -0.6021 -3.4201
  846MOL0     H14164   6.974   1.401   2.958  3.7924 -0.3082  0.6387
  846MOL0     H14165   6.955   1.571   3.019  1.3583 -1.9461  2.3204
  846MOL0     H14166   7.149   1.506   3.071  1.8496 -1.3006 -0.3256
  846MOL0     H14167   7.189   1.618   2.938  1.8810 -1.2146 -0.5009
  846MOL0     H14168   7.312   1.465   2.879  0.5959 -2.3985 -1.2950
  846MOL0     H14169   7.181   1.371   2.810 -0.1001  2.7352 -1.0063
  846MOL0     H14170   7.329   1.188   3.199 -0.5599 -0.1103 -0.1258
  846MOL0     H14171   7.400   1.016   3.302  1.6405  1.3422  1.1909
  846MOL0     H14172   7.458   0.869   3.217 -2.8804  0.5702 -0.0017
  846MOL0     H14173   7.569   0.978   3.307 -2.9456  0.0891  3.2301
  846MOL0     H14174   7.817   0.703   2.741 -0.7336  2.5771 -3.4142
  846MOL0     H14175   8.050   0.653   2.729 -1.2068 -1.1988  1.6302
  846MOL0     H14176   8.368   0.926   2.906  0.2912  0.1504  1.6443
  846MOL0     H14177   8.312   0.804   3.015 -1.4508 -0.0354  0.0181
  846MOL0     H14178   8.491   0.726   2.780  1.0517 -1.4357  0.5205
  846MOL0     H14179   8.574   0.824   2.905  0.2341 -0.6742 -1.2951
  846MOL0     H14180   8.515   0.659   3.070  1.7875  0.5519 -0.6610
  846MOL0     H14181   8.614   0.583   2.950 -1.4014 -3.3134 -0.6305
  846MOL0     H14182   8.317   0.552   2.973  0.0448 -0.5766 -0.2041
  846MOL0     H14183   8.393   0.495   2.830  0.1447  0.5096 -0.6435
  846MOL0     H14184   8.332   0.342   3.039  1.2876 -0.6552  1.8916
  846MOL0     H14185   8.484   0.392   3.119 -0.3857 -2.2553  0.2377
  846MOL0     H14186   8.442   0.249   2.867  0.9233 -0.5621 -0.3675
  846MOL0     H14187   8.586   0.342   2.890  0.4248  0.1318  1.1681
  846MOL0     H14188   8.486   0.122   3.089  0.0377 -0.9082 -0.4255
  846MOL0     H14189   8.628   0.210   3.111  1.0886  1.9924 -0.7334
  846MOL0     H14190   8.551   0.000   2.884  0.5699  0.3742 -0.9124
  846MOL0     H14191   8.629  -0.040   3.030 -2.0275 -0.0113 -0.8862
  846MOL0     H14192   8.155   0.955   3.001  1.0518 -0.3015 -1.0256
  846MOL0     H14193   7.907   1.016   3.017  4.2635  2.3723 -0.4111
  846MOL0     H14194   7.561   1.052   2.787 -1.0680 -1.1365 -0.2796
  846MOL0     H14195   7.396   1.215   2.771 -1.3108 -0.7288  0.2400
  846MOL0     H14196   6.913   2.527   2.538 -2.1482  0.8058  0.7296
  846MOL0     H14197   6.929   2.779   2.574 -2.0506  1.5795  1.1434
  846MOL0     H14198   7.051   3.246   2.415  0.3592 -2.2644  0.6199
  846MOL0     H14199   6.992   3.491   2.408 -0.6871 -0.8457 -1.5451
  846MOL0     H14200   6.598   3.560   2.603 -2.5161 -0.1268 -2.7394
  846MOL0     H14201   6.656   3.726   2.592  1.7394  1.0227 -0.9456
  846MOL0     H14202   6.517   3.602   2.353 -0.1069 -0.1431 -0.6082
  846MOL0     H14203   6.614   3.742   2.351  0.1550 -0.9034  0.0985
  846MOL0     H14204   6.451   3.827   2.560  1.3513 -2.5634  3.0099
  846MOL0     H14205   6.356   3.685   2.531  0.2236  1.3182 -1.0877
  846MOL0     H14206   6.296   3.733   2.314  1.1586 -0.5444  0.1380
  846MOL0     H14207   6.431   3.834   2.278  0.0166 -0.6976 -0.5397
  846MOL0     H14208   6.161   4.134   2.413 -0.5264  0.1657 -1.8213
  846MOL0     H14209   6.597   3.381   2.527  0.1594  0.4142 -0.5186
  846MOL0     H14210   6.646   3.144   2.534  1.2486  1.0836  2.4790
  847MOL0     O14211   9.568   9.917   2.991 -0.1332 -0.2076  0.2023
  847MOL0     C14212   9.652   9.914   3.084 -0.2147  0.2118  0.9001
  847MOL0     O14213   9.629   9.923   3.216  0.6272 -0.3446 -0.1287
  847MOL0     C14214   9.509   9.925   3.275 -0.6052 -0.6830 -0.1482
  847MOL0     C14215   9.507   9.950   3.413 -0.1030 -0.0473 -0.2716
  847MOL0     C14216   9.390   9.924   3.485 -0.4008 -0.8207  0.3255
  847MOL0     C14217   9.273   9.885   3.428  0.5336 -0.4357 -0.2694
  847MOL0     O14218   9.172   9.857   3.513  0.1345  0.2832  0.2053
  847MOL0     C14219   9.051   9.935   3.488  0.6257 -0.1457  0.7146
  847MOL0     C14220   8.941   9.866   3.405  0.1244 -0.0067 -1.5886
  847MOL0     C14221   8.817   9.958   3.430 -0.4574 -0.5961  0.1309
  847MOL0     C14222   8.698   9.899   3.352 -0.8202  0.4578 -0.5262
  847MOL0     C14223   8.575   9.991   3.390 -0.7538  0.6457  0.2695
  847MOL0     C14224   8.447   9.937   3.331  0.4073 -0.0421  0.1025
  847MOL0     C14225   8.323  10.008   3.367  0.8475 -0.5152 -0.1830
  847MOL0     C14226   8.269   9.972   3.516 -0.2886 -0.4509  0.2772
  847MOL0     N14227   8.148  10.050   3.545  0.1558 -0.6151 -0.0565
  847MOL0     C14228   8.030  10.041   3.471  0.9041 -0.6148  0.2856
  847MOL0     C14229   7.957  10.136   3.533  0.4229  0.0025  0.2953
  847MOL0     C14230   7.821  10.199   3.487 -1.0720  0.9213 -0.2264
  847MOL0     C14231   7.836  10.333   3.403 -0.0230  1.0834  0.3312
  847MOL0     C14232   7.705  10.403   3.400 -0.1288  0.5862  0.1289
  847MOL0     C14233   7.594  10.322   3.335  0.7527 -0.1449 -0.4141
  847MOL0     O14234   7.477  10.392   3.361 -0.4419  0.4853  0.3101
  847MOL0     C14235   7.355  10.351   3.326 -0.4396  0.4265  0.6315
  847MOL0     C14236   7.345  10.233   3.257  0.0072  0.3695  0.3719
  847MOL0     C14237   7.212  10.191   3.216  0.7638 -0.4315 -1.2035
  847MOL0     C14238   7.194  10.066   3.135  0.5271 -0.1025 -0.4341
  847MOL0     C14239   7.097  10.273   3.258  0.2314  0.0350 -0.3619
  847MOL0     C14240   6.953  10.254   3.210 -0.4050  0.1065  0.4322
  847MOL0     O14241   6.891  10.366   3.190  0.0726 -0.4467 -0.1998
  847MOL0     C14242   6.762  10.391   3.139 -0.2621  0.0891 -0.5103
  847MOL0     C14243   6.678  10.302   3.072 -0.6957 -0.9396  0.3551
  847MOL0     C14244   6.542  10.342   3.042  0.8323 -0.3302 -0.2670
  847MOL0     C14245   6.494  10.470   3.075 -0.1379 -0.7156 -0.2648
  847MOL0     O14246   6.362  10.514   3.067 -0.3138  0.1321 -0.0312
  847MOL0     C14247   6.253  10.436   3.030 -1.2595  0.2128  0.8739
  847MOL0     C14248   6.141  10.529   3.064  0.5660  0.0916 -0.6203
  847MOL0     C14249   6.008  10.460   3.077  0.6989 -0.1045 -0.6769
  847MOL0     C14250   5.997  10.373   3.207  0.3868 -0.4378 -0.6963
  847MOL0     C14251   5.964  10.459   3.331 -0.0828 -0.6141  0.0715
  847MOL0     C14252   5.926  10.372   3.447 -0.0655  1.4881 -0.4428
  847MOL0     C14253   5.859  10.448   3.562  0.7229 -0.3145 -0.7394
  847MOL0     C14254   5.893  10.396   3.703  0.2891  0.6848  0.5841
  847MOL0    Cl14255   6.064  10.401   3.727 -0.4895 -0.1245 -0.0193
  847MOL0     C14256   6.578  10.562   3.137  0.8580  0.1169  0.2546
  847MOL0     C14257   6.708  10.520   3.166  0.8278  0.3522  0.4591
  847MOL0     O14258   6.902  10.141   3.190 -0.3048  0.3399  0.3956
  847MOL0     C14259   7.123  10.397   3.322  0.1271  0.6130 -0.4465
  847MOL0     C14260   7.250  10.435   3.358 -0.4069 -0.2162  0.4205
  847MOL0     N14261   8.021  10.192   3.644 -0.9174 -0.6226 -0.1325
  847MOL0     N14262   8.136  10.138   3.648 -0.3653  1.0958  0.2738
  847MOL0     C14263   9.271   9.878   3.289  0.8072  0.7205 -0.8335
  847MOL0     C14264   9.389   9.892   3.216 -0.2185  0.1881 -0.0272
  847MOL0     C14265   9.794   9.919   3.053  0.3252 -0.4404  1.2657
  847MOL0     C14266   9.831   9.924   2.924  0.0868  0.3622  0.4508
  847MOL0     C14267   9.973   9.926   2.895  0.3807  0.5788  0.4070
  847MOL0     C14268  10.071   9.918   2.993  0.4333  0.2177 -0.0160
  847MOL0     O14269  10.204   9.903   2.959  0.2535  0.5670  0.9401
  847MOL0     C14270  10.302   9.903   3.069  1.3406  0.8930  0.5638
  847MOL0     C14271  10.454   9.909   3.014  0.2001 -0.5251  0.5307
  847MOL0     C14272  10.482   9.775   2.941 -0.4908 -0.1267 -0.1140
  847MOL0     C14273  10.640   9.746   2.935 -0.2725  0.8940  0.4576
  847MOL0     C14274  10.692   9.644   2.847  0.5089 -1.2831 -0.3168
  847MOL0     C14275  10.734   9.564   2.765 -0.3777  0.5836 -1.0296
  847MOL0     C14276  10.020   9.913   3.124 -0.6074 -0.2127 -0.1305
  847MOL0     C14277   9.885   9.916   3.150  0.0365  0.1601 -0.4628
  847MOL0     H14278   9.599   9.975   3.465  0.2243 -2.8087  0.6682
  847MOL0     H14279   9.402   9.927   3.593  1.0926 -2.0875  0.2385
  847MOL0     H14280   9.007   9.960   3.585 -0.6295 -1.3426  0.4873
  847MOL0     H14281   9.084  10.029   3.444 -0.6239  1.1474  2.4324
  847MOL0     H14282   8.980   9.870   3.302 -1.4823  1.0973 -2.1953
  847MOL0     H14283   8.918   9.765   3.437  0.7453  0.5901  0.9548
  847MOL0     H14284   8.800   9.951   3.538  0.1055  0.5977  0.3225
  847MOL0     H14285   8.846  10.062   3.411 -1.3111  0.2106  2.7120
  847MOL0     H14286   8.718   9.886   3.245 -1.2259 -0.3085 -0.5175
  847MOL0     H14287   8.680   9.800   3.393 -0.3278  1.7346  3.1785
  847MOL0     H14288   8.574   9.993   3.500 -0.0434 -1.0265  0.3308
  847MOL0     H14289   8.592  10.093   3.354  1.6443  0.9719  2.0345
  847MOL0     H14290   8.460   9.943   3.222  1.3617  1.4921  0.2766
  847MOL0     H14291   8.434   9.831   3.356  0.7925 -0.1682 -0.2117
  847MOL0     H14292   8.350  10.114   3.359  0.6437 -0.5192 -1.0166
  847MOL0     H14293   8.249   9.993   3.288  0.7168  1.3303 -0.4494
  847MOL0     H14294   8.348  10.006   3.583 -2.2464  1.1088  1.9363
  847MOL0     H14295   8.241   9.867   3.530 -1.8141 -0.0137  0.7560
  847MOL0     H14296   8.021   9.993   3.375 -1.1883  1.5773 -0.7465
  847MOL0     H14297   7.772  10.129   3.418  3.1302  0.3396 -3.0130
  847MOL0     H14298   7.761  10.226   3.574 -0.5244  0.8179  0.1888
  847MOL0     H14299   7.863  10.320   3.298  1.1516  1.2097  0.6005
  847MOL0     H14300   7.902  10.405   3.453 -0.4550 -0.6429  3.7295
  847MOL0     H14301   7.705  10.499   3.348 -0.5505 -0.0180 -1.0209
  847MOL0     H14302   7.673  10.421   3.503  1.5482  0.1002  0.7695
  847MOL0     H14303   7.576  10.224   3.381 -2.2188  0.3063 -0.4253
  847MOL0     H14304   7.600  10.319   3.225 -2.1604 -2.1796 -0.6600
  847MOL0     H14305   7.425  10.162   3.237  2.6373  2.1207  3.7380
  847MOL0     H14306   7.233   9.981   3.191  2.8373 -0.1589 -1.9418
  847MOL0     H14307   7.099  10.041   3.088  1.5201 -0.6067 -2.3088
  847MOL0     H14308   7.262  10.077   3.049 -0.3165  0.2619 -1.0733
  847MOL0     H14309   6.716  10.208   3.034 -0.0775  0.4225 -2.7144
  847MOL0     H14310   6.474  10.268   3.002 -0.7644  1.4925 -1.0730
  847MOL0     H14311   6.250  10.422   2.922  0.5226 -0.8480  0.9300
  847MOL0     H14312   6.255  10.342   3.086  0.0891  0.7279  1.7375
  847MOL0     H14313   6.153  10.575   3.163 -1.8418 -2.1981  0.8438
  847MOL0     H14314   6.132  10.605   2.986  1.6524 -1.5706 -2.4488
  847MOL0     H14315   5.993  10.396   2.990  1.1616 -2.5920  0.9487
  847MOL0     H14316   5.929  10.536   3.077  0.1643 -0.5906  1.3793
  847MOL0     H14317   5.914  10.302   3.198 -2.1665  2.0557  1.2599
  847MOL0     H14318   6.085  10.309   3.216  0.5658 -0.1895 -0.6650
  847MOL0     H14319   5.882  10.528   3.313 -0.3714 -0.5561  1.4913
  847MOL0     H14320   6.050  10.519   3.362 -0.7711 -1.2466  3.7331
  847MOL0     H14321   5.865  10.287   3.416  0.4590  0.4434  1.2405
  847MOL0     H14322   6.014  10.321   3.487 -1.6670 -0.7142  0.5241
  847MOL0     H14323   5.753  10.425   3.547  0.4184  1.5003 -1.6975
  847MOL0     H14324   5.886  10.554   3.569  2.8363 -0.8696  0.0302
  847MOL0     H14325   5.871  10.288   3.709  1.0001  0.6032  2.4713
  847MOL0     H14326   5.828  10.454   3.769 -3.0230  2.2315 -3.6120
  847MOL0     H14327   6.529  10.657   3.157 -1.9532 -0.9569 -1.0311
  847MOL0     H14328   6.774  10.590   3.217  0.8994  1.1600 -0.7152
  847MOL0     H14329   7.040  10.464   3.342 -0.0660  0.2918 -0.1677
  847MOL0     H14330   7.273  10.530   3.405 -0.6127  0.8389 -1.4773
  847MOL0     H14331   9.175   9.854   3.246  1.6756 -1.5851 -1.6510
  847MOL0     H14332   9.377   9.877   3.109  0.0503 -0.8875  0.0766
  847MOL0     H14333   9.770   9.901   2.838  1.2484 -0.5354 -0.1648
  847MOL0     H14334   9.996   9.921   2.789  2.1581  2.0263  0.6691
  847MOL0     H14335  10.287  10.000   3.117 -1.3878  2.5210 -3.1574
  847MOL0     H14336  10.290   9.819   3.138  0.1717  1.0794  0.6114
  847MOL0     H14337  10.511   9.931   3.104 -0.3641  0.8374  0.5795
  847MOL0     H14338  10.483   9.996   2.954 -0.8244 -0.4622  0.1080
  847MOL0     H14339  10.452   9.770   2.836  1.6236 -3.7893 -0.7057
  847MOL0     H14340  10.436   9.700   3.006  0.6101  1.0068  2.1146
  847MOL0     H14341  10.671   9.719   3.037 -1.6830 -2.5470  0.1217
  847MOL0     H14342  10.677   9.846   2.909 -0.8783  1.0823  0.3164
  847MOL0     H14343  10.762   9.481   2.704 -1.3002 -0.0515 -0.6212
  847MOL0     H14344  10.087   9.903   3.209 -2.8539  0.3639  1.7859
  847MOL0     H14345   9.858   9.920   3.255 -0.2965  3.2996 -0.5959
  848MOL0     O14346   0.474   6.680   0.244  0.5741  0.3462  0.1667
  848MOL0     C14347   0.561   6.768   0.256 -0.3760  1.1491  0.8414
  848MOL0     O14348   0.558   6.870   0.349 -0.9677  0.2827  0.0506
  848MOL0     C14349   0.444   6.870   0.435  0.9923 -0.0171  0.3387
  848MOL0     C14350   0.380   6.995   0.445  0.6513 -0.1656 -0.1795
  848MOL0     C14351   0.267   7.003   0.531 -0.1582  0.1789  1.0452
  848MOL0     C14352   0.220   6.898   0.601  0.4564 -0.6873  0.1136
  848MOL0     O14353   0.104   6.908   0.679 -0.2594  0.0091 -0.3828
  848MOL0     C14354  -0.001   6.812   0.659 -0.2115  0.4118 -0.0649
  848MOL0     C14355  -0.085   6.772   0.782 -1.3065  0.1895  0.0643
  848MOL0     C14356  -0.135   6.899   0.850  0.5384  0.1516  0.4086
  848MOL0     C14357  -0.228   6.869   0.970  0.2011  0.0995 -0.0791
  848MOL0     C14358  -0.311   6.986   1.006  0.5857  1.0387 -0.3666
  848MOL0     C14359  -0.235   7.109   1.029 -0.2181 -0.4615 -0.1949
  848MOL0     C14360  -0.316   7.231   1.091  0.3513 -0.9838  1.0073
  848MOL0     C14361  -0.339   7.231   1.236  0.1438  0.0891  0.6210
  848MOL0     N14362  -0.415   7.350   1.272 -0.1195 -0.1558  0.3799
  848MOL0     C14363  -0.359   7.478   1.278  0.9570  0.1431 -0.1547
  848MOL0     C14364  -0.458   7.568   1.300  0.1604  0.3329  1.4987
  848MOL0     C14365  -0.444   7.712   1.314 -0.7498 -0.5783  0.3182
  848MOL0     C14366  -0.302   7.752   1.365  1.0764 -0.6045 -1.0144
  848MOL0     C14367  -0.301   7.904   1.353 -0.1524  0.1381 -0.4305
  848MOL0     C14368  -0.201   7.978   1.448  0.3190  0.9461 -0.2837
  848MOL0     O14369  -0.070   7.948   1.395 -0.4199  0.5525  0.1140
  848MOL0     C14370   0.032   7.972   1.487 -0.7110  0.5530  0.1897
  848MOL0     C14371   0.125   8.067   1.467 -0.1550  0.4370 -0.6164
  848MOL0     C14372   0.228   8.095   1.559 -0.8388 -0.2955 -0.6345
  848MOL0     C14373   0.305   8.225   1.539 -0.2305  0.7563  0.3833
  848MOL0     C14374   0.256   8.005   1.671 -1.2743 -0.8771  0.7264
  848MOL0     C14375   0.373   8.008   1.761 -0.9522  0.2995 -0.0505
  848MOL0     O14376   0.351   7.979   1.891 -0.3691 -0.9746  0.0874
  848MOL0     C14377   0.463   7.956   1.970  0.7034  0.4897  0.4345
  848MOL0     C14378   0.477   8.026   2.093 -0.4085  0.0772 -0.7278
  848MOL0     C14379   0.573   7.992   2.185  0.5718 -0.4400  0.0887
  848MOL0     C14380   0.661   7.880   2.161 -0.1151  0.1416  0.5085
  848MOL0     O14381   0.754   7.850   2.261  0.0490  0.4764  0.1038
  848MOL0     C14382   0.846   7.740   2.249  0.4800 -0.4520  0.9063
  848MOL0     C14383   0.946   7.751   2.359  0.3259 -0.2699 -0.4925
  848MOL0     C14384   1.055   7.868   2.331  0.0186 -0.4260 -0.9887
  848MOL0     C14385   1.153   7.809   2.228  0.0671 -0.2820 -1.2710
  848MOL0     C14386   1.271   7.905   2.200 -0.4250  0.0853 -1.1382
  848MOL0     C14387   1.372   7.838   2.116 -0.7881  0.5482 -0.1906
  848MOL0     C14388   1.490   7.918   2.054 -0.3831  0.3293  0.4134
  848MOL0     C14389   1.626   7.885   2.120  0.4697  0.2709  0.3031
  848MOL0    Cl14390   1.601   7.862   2.303  0.1019 -0.5271  0.2711
  848MOL0     C14391   0.642   7.811   2.041 -0.2828  1.0264 -0.3404
  848MOL0     C14392   0.543   7.847   1.956 -0.0140  0.0906  0.6702
  848MOL0     O14393   0.476   8.047   1.711  0.9022 -0.4736 -0.3030
  848MOL0     C14394   0.156   7.906   1.693 -0.5028  0.5751 -0.0727
  848MOL0     C14395   0.052   7.893   1.605 -0.0151  0.5184 -0.1233
  848MOL0     N14396  -0.583   7.502   1.291  0.0348  0.1820  0.3271
  848MOL0     N14397  -0.553   7.373   1.270 -0.4031  0.7776 -0.3573
  848MOL0     C14398   0.289   6.784   0.604 -0.4491  0.0665 -0.1845
  848MOL0     C14399   0.399   6.766   0.510 -0.4423 -0.4701 -0.2646
  848MOL0     C14400   0.675   6.743   0.161 -0.1188  0.2785 -0.2351
  848MOL0     C14401   0.755   6.847   0.124  0.3164 -0.0356 -0.2326
  848MOL0     C14402   0.861   6.823   0.033 -0.3232 -0.1069  0.6852
  848MOL0     C14403   0.893   6.692  -0.003 -0.6195  0.2303 -1.0121
  848MOL0     O14404   1.005   6.657  -0.068 -0.4296  0.1055  0.1533
  848MOL0     C14405   1.051   6.725  -0.184 -0.5362 -0.2402 -1.1607
  848MOL0     C14406   1.157   6.634  -0.256  0.3438  0.3666 -0.3175
  848MOL0     C14407   1.190   6.687  -0.396  1.5455 -0.0581  0.2884
  848MOL0     C14408   1.250   6.581  -0.480 -0.1481  0.4432  0.4123
  848MOL0     C14409   1.373   6.518  -0.431  0.4898 -0.5647 -0.8455
  848MOL0     C14410   1.473   6.455  -0.385 -0.2144 -0.4765 -0.6728
  848MOL0     C14411   0.816   6.588   0.041  0.7740  0.3903 -0.1476
  848MOL0     C14412   0.704   6.609   0.113 -0.1100  0.0507 -1.1810
  848MOL0     H14413   0.420   7.080   0.391  3.9475 -0.7640  1.0545
  848MOL0     H14414   0.215   7.099   0.531 -0.1706  0.1856  0.1639
  848MOL0     H14415  -0.065   6.856   0.582 -1.6207 -3.0725 -1.0666
  848MOL0     H14416   0.040   6.724   0.607  0.2956  0.2094  0.6621
  848MOL0     H14417  -0.162   6.701   0.749  0.8390 -2.4453  0.3247
  848MOL0     H14418  -0.018   6.724   0.854 -0.1413  2.5245  0.6041
  848MOL0     H14419  -0.054   6.962   0.888  1.0587 -0.9725  1.1886
  848MOL0     H14420  -0.191   6.955   0.774 -0.9358  0.4765  1.6768
  848MOL0     H14421  -0.303   6.797   0.938  0.1655 -0.2583  0.7818
  848MOL0     H14422  -0.166   6.832   1.052  0.0282  0.6778  0.3104
  848MOL0     H14423  -0.384   6.996   0.926 -0.0960  0.6379  0.1956
  848MOL0     H14424  -0.367   6.963   1.097 -0.1344  0.7524 -0.8755
  848MOL0     H14425  -0.159   7.083   1.103 -0.9366  0.0254  0.7390
  848MOL0     H14426  -0.186   7.143   0.938 -0.1179  0.6357  0.2458
  848MOL0     H14427  -0.274   7.323   1.049 -0.5646 -1.1512 -0.3503
  848MOL0     H14428  -0.417   7.233   1.049  0.8551 -3.1296 -0.4670
  848MOL0     H14429  -0.246   7.224   1.293  0.8454  0.7214 -0.4103
  848MOL0     H14430  -0.401   7.143   1.257  0.5246 -1.0250 -2.3370
  848MOL0     H14431  -0.253   7.499   1.263  0.9919  0.1433  0.1041
  848MOL0     H14432  -0.452   7.763   1.218  0.3253 -1.8464 -0.4793
  848MOL0     H14433  -0.517   7.741   1.390 -0.9883 -0.1207 -0.0822
  848MOL0     H14434  -0.222   7.707   1.306  4.5621  1.2217  1.8864
  848MOL0     H14435  -0.284   7.722   1.469  0.9262  2.3071 -0.0584
  848MOL0     H14436  -0.396   7.951   1.380 -1.1508 -0.0817 -3.1884
  848MOL0     H14437  -0.282   7.939   1.251  0.2089  2.3333  0.3370
  848MOL0     H14438  -0.214   7.939   1.550  3.4315 -1.5402 -0.6773
  848MOL0     H14439  -0.207   8.087   1.446  1.4318  1.0143 -0.3327
  848MOL0     H14440   0.092   8.135   1.389 -0.1670  0.4682 -0.5844
  848MOL0     H14441   0.293   8.298   1.620 -0.9244  0.8858  0.1675
  848MOL0     H14442   0.411   8.204   1.523 -0.2734 -0.4932  1.6321
  848MOL0     H14443   0.268   8.262   1.443 -1.0552 -2.0499 -0.4645
  848MOL0     H14444   0.410   8.106   2.124 -1.4955 -1.1214  0.0940
  848MOL0     H14445   0.570   8.043   2.281 -0.2177 -0.0850 -0.1132
  848MOL0     H14446   0.789   7.648   2.264  0.9287 -0.9806 -0.4646
  848MOL0     H14447   0.903   7.738   2.156  2.0077  1.7335  1.7091
  848MOL0     H14448   0.885   7.771   2.448 -1.9215 -1.9511 -1.5448
  848MOL0     H14449   0.990   7.652   2.362  0.9270 -0.0662 -1.8088
  848MOL0     H14450   1.094   7.895   2.430 -2.1235  2.3250 -0.7570
  848MOL0     H14451   1.014   7.961   2.289 -2.5416 -1.8775 -1.9003
  848MOL0     H14452   1.191   7.715   2.270  0.8346  0.4870 -0.1584
  848MOL0     H14453   1.100   7.784   2.136  0.6606  0.5608 -1.8505
  848MOL0     H14454   1.312   7.934   2.298 -2.2247  0.8309 -0.5644
  848MOL0     H14455   1.227   7.993   2.153 -0.3235  0.7072 -0.1156
  848MOL0     H14456   1.409   7.749   2.167  3.8334  1.5766 -1.3146
  848MOL0     H14457   1.309   7.815   2.030 -2.2943  2.4305  0.3466
  848MOL0     H14458   1.474   8.026   2.066 -3.1771  0.3189 -2.0538
  848MOL0     H14459   1.500   7.890   1.949  3.3489 -2.4866  1.3059
  848MOL0     H14460   1.697   7.965   2.097  0.9366 -0.3614 -0.5062
  848MOL0     H14461   1.675   7.796   2.079  1.0348  1.5053 -1.8439
  848MOL0     H14462   0.709   7.727   2.026  2.7649  1.6396  6.0295
  848MOL0     H14463   0.526   7.792   1.864  0.4862  2.0694 -0.6654
  848MOL0     H14464   0.152   7.855   1.788  1.1612 -0.0005 -0.2754
  848MOL0     H14465  -0.028   7.829   1.639 -1.1194  1.7212 -0.3692
  848MOL0     H14466   0.265   6.701   0.669  1.3125  0.0608  0.5166
  848MOL0     H14467   0.445   6.668   0.517  2.5661  0.9165  2.2847
  848MOL0     H14468   0.723   6.946   0.156 -1.0830  0.4718 -2.9102
  848MOL0     H14469   0.925   6.903  -0.002 -1.2334 -0.5203 -2.1691
  848MOL0     H14470   0.966   6.744  -0.250 -1.5030  2.3289  0.6325
  848MOL0     H14471   1.101   6.819  -0.157 -0.7718 -0.6597  0.8629
  848MOL0     H14472   1.123   6.530  -0.266 -0.6731  0.7381 -0.8111
  848MOL0     H14473   1.250   6.618  -0.200  0.2430 -3.7451 -0.9641
  848MOL0     H14474   1.255   6.772  -0.377  1.1908  0.2487  0.1319
  848MOL0     H14475   1.099   6.717  -0.448  1.1823 -2.4116 -0.5457
  848MOL0     H14476   1.263   6.621  -0.582  1.3560 -0.9761  0.0015
  848MOL0     H14477   1.178   6.500  -0.489 -0.2979  0.4672  1.3412
  848MOL0     H14478   1.555   6.396  -0.348 -3.5966 -4.9826  0.6088
  848MOL0     H14479   0.855   6.488   0.025  3.2016  1.0659  1.1207
  848MOL0     H14480   0.649   6.522   0.147 -2.6975  1.5463 -1.2418
  849MOL0     O14481   6.140   3.583  10.583 -0.3111  0.1111  0.0205
  849MOL0     C14482   6.137   3.687  10.518 -0.8634 -0.5772 -0.0413
  849MOL0     O14483   6.035   3.765  10.488 -0.0101  0.5725 -0.3141
  849MOL0     C14484   5.921   3.746  10.558  0.4920 -1.0071  0.4131
  849MOL0     C14485   5.912   3.751  10.692 -0.9661  0.8202 -0.5478
  849MOL0     C14486   5.791   3.739  10.755 -1.0312 -1.1937  0.0675
  849MOL0     C14487   5.673   3.734  10.676  0.2337 -0.1404 -0.4635
  849MOL0     O14488   5.552   3.719  10.731  0.5121 -0.5684 -0.6984
  849MOL0     C14489   5.471   3.825  10.773 -0.9411 -0.5349  0.2812
  849MOL0     C14490   5.346   3.776  10.840  0.5210  0.0207 -0.4075
  849MOL0     C14491   5.361   3.718  10.979 -0.4564  0.5884 -0.6971
  849MOL0     C14492   5.246   3.624  11.007 -0.9719  0.4737  0.8834
  849MOL0     C14493   5.125   3.713  11.026  0.3615  0.2605 -0.9489
  849MOL0     C14494   4.997   3.636  11.056  0.4868 -0.4155  1.0993
  849MOL0     C14495   4.881   3.722  11.058  0.2257  0.2443 -0.2945
  849MOL0     C14496   4.750   3.642  11.080 -0.0985  0.2942  0.5256
  849MOL0     N14497   4.627   3.706  11.027  0.7783 -0.8867  0.1338
  849MOL0     C14498   4.574   3.820  11.080 -1.3228 -0.6330  0.7550
  849MOL0     C14499   4.452   3.834  11.016 -0.7027  0.4917 -0.3728
  849MOL0     C14500   4.342   3.927  11.051  0.3694 -0.1909 -0.1798
  849MOL0     C14501   4.344   4.059  10.972 -0.3242  0.4032  0.1686
  849MOL0     C14502   4.292   4.166  11.072 -0.1155  1.0305  0.5816
  849MOL0     C14503   4.143   4.171  11.118  0.6728 -0.9685  0.0884
  849MOL0     O14504   4.099   4.051  11.168  0.1735  0.4951  0.1197
  849MOL0     C14505   3.962   4.028  11.192  0.0907  0.4795  0.5771
  849MOL0     C14506   3.911   3.898  11.207  0.1774 -0.2067  0.6400
  849MOL0     C14507   3.771   3.872  11.237  0.1753  0.0770 -0.6205
  849MOL0     C14508   3.732   3.729  11.236  0.4989  0.4194 -0.2428
  849MOL0     C14509   3.690   3.980  11.282 -0.3460 -1.3443 -0.1644
  849MOL0     C14510   3.548   3.979  11.331  0.4048  0.2228  0.4179
  849MOL0     O14511   3.511   4.097  11.401 -0.1794  0.0332  0.5739
  849MOL0     C14512   3.383   4.097  11.460 -0.3431 -0.7335  1.1086
  849MOL0     C14513   3.381   4.155  11.582  0.2568  0.1020 -0.3179
  849MOL0     C14514   3.256   4.169  11.654 -0.0479  0.3719  0.0683
  849MOL0     C14515   3.140   4.133  11.585  0.1219 -0.5608 -0.3028
  849MOL0     O14516   3.024   4.173  11.645  0.5097 -0.7237  0.2043
  849MOL0     C14517   2.923   4.231  11.554  0.4721  0.6697 -0.8038
  849MOL0     C14518   2.805   4.270  11.640 -0.3362  0.2793 -0.1110
  849MOL0     C14519   2.712   4.329  11.541  0.4932 -0.0022 -0.1011
  849MOL0     C14520   2.578   4.347  11.607 -0.7185 -0.9317 -0.5355
  849MOL0     C14521   2.478   4.231  11.588 -0.0640 -0.0895  0.6402
  849MOL0     C14522   2.344   4.259  11.658 -0.4496  0.7077 -0.5050
  849MOL0     C14523   2.251   4.134  11.659  0.1441 -0.7505 -0.1150
  849MOL0     C14524   2.106   4.180  11.700 -0.3970  0.0118  0.5089
  849MOL0    Cl14525   2.036   4.267  11.571  0.5306 -0.3047 -0.0972
  849MOL0     C14526   3.140   4.077  11.457  0.4575  0.0263  0.0664
  849MOL0     C14527   3.263   4.067  11.397  0.7290 -0.4239 -0.0325
  849MOL0     O14528   3.484   3.876  11.316  0.6923  0.1540 -0.2581
  849MOL0     C14529   3.743   4.120  11.262  0.2359  0.9829  0.6155
  849MOL0     C14530   3.872   4.133  11.211 -0.3954 -0.9315  1.0568
  849MOL0     N14531   4.442   3.733  10.921  0.5201  0.4440  0.4871
  849MOL0     N14532   4.545   3.664  10.923 -1.2728  0.1041  0.3440
  849MOL0     C14533   5.676   3.739  10.538 -0.2804  0.2221 -0.7427
  849MOL0     C14534   5.803   3.749  10.484  0.0873 -0.2912 -1.3092
  849MOL0     C14535   6.275   3.724  10.461 -0.1525 -0.4148 -0.6372
  849MOL0     C14536   6.383   3.635  10.447  0.7411  0.0151  0.1506
  849MOL0     C14537   6.502   3.666  10.395  0.4433 -0.7656 -0.4601
  849MOL0     C14538   6.527   3.794  10.353 -0.5603 -0.3889  0.6086
  849MOL0     O14539   6.648   3.833  10.297 -0.5263  0.3003  0.0641
  849MOL0     C14540   6.746   3.728  10.261 -0.2779  0.3308 -0.5794
  849MOL0     C14541   6.877   3.801  10.223  0.4824  0.9807  0.0543
  849MOL0     C14542   6.979   3.703  10.160 -0.1354 -0.7530  0.2578
  849MOL0     C14543   7.032   3.600  10.262  0.8241 -0.4928  0.3560
  849MOL0     C14544   7.087   3.678  10.382 -0.1357 -0.1660  0.2872
  849MOL0     C14545   7.114   3.745  10.484 -0.7830  1.4622 -0.0940
  849MOL0     C14546   6.429   3.891  10.367 -0.4254  0.7067  0.7894
  849MOL0     C14547   6.302   3.855  10.422 -0.2780  0.1090  0.7365
  849MOL0     H14548   6.002   3.754  10.754 -0.2442  1.5158 -1.5985
  849MOL0     H14549   5.782   3.727  10.862 -0.8220 -1.1087  0.0951
  849MOL0     H14550   5.533   3.889  10.837 -0.3519 -0.0516 -0.7396
  849MOL0     H14551   5.439   3.882  10.685  1.9394 -0.5277 -0.8615
  849MOL0     H14552   5.291   3.869  10.852  2.2559  0.9726  0.6148
  849MOL0     H14553   5.279   3.715  10.778  0.5266 -1.5178  1.0081
  849MOL0     H14554   5.455   3.665  10.996 -1.3623 -0.6507  0.5738
  849MOL0     H14555   5.360   3.804  11.046 -2.5761  1.1788 -1.4088
  849MOL0     H14556   5.232   3.556  10.923 -2.7898 -2.0210  3.0437
  849MOL0     H14557   5.255   3.564  11.098 -1.3466  2.5167  2.3506
  849MOL0     H14558   5.138   3.786  11.107  1.5602  0.8832 -1.6783
  849MOL0     H14559   5.100   3.776  10.940 -3.9045  0.3844  0.1593
  849MOL0     H14560   4.980   3.554  10.986  1.4551  0.6436 -0.4432
  849MOL0     H14561   5.008   3.587  11.154 -1.3803 -1.0284  1.0247
  849MOL0     H14562   4.887   3.810  11.123 -1.6182 -0.0180  0.2858
  849MOL0     H14563   4.876   3.764  10.957  0.5484  2.1993  0.4557
  849MOL0     H14564   4.737   3.637  11.188 -0.6348 -1.2665  0.4047
  849MOL0     H14565   4.759   3.544  11.033 -0.2276 -0.2067  1.5399
  849MOL0     H14566   4.604   3.874  11.169 -0.3948  0.4566 -0.1898
  849MOL0     H14567   4.249   3.872  11.036  1.4175 -3.1159  2.9256
  849MOL0     H14568   4.345   3.944  11.159 -0.1913 -3.3126  0.4126
  849MOL0     H14569   4.275   4.055  10.887  1.5191  0.1714 -1.3712
  849MOL0     H14570   4.443   4.080  10.931  0.1903 -2.3444 -0.1358
  849MOL0     H14571   4.322   4.261  11.028  2.5026 -0.6796 -1.6426
  849MOL0     H14572   4.360   4.159  11.157  2.8041 -1.8332 -1.7217
  849MOL0     H14573   4.083   4.200  11.031  1.3462  0.0992 -0.0323
  849MOL0     H14574   4.126   4.247  11.195 -1.6338 -0.9493 -0.3501
  849MOL0     H14575   3.972   3.814  11.175 -0.9736 -0.2340 -1.6691
  849MOL0     H14576   3.690   3.713  11.137  2.7125 -2.7793 -0.8158
  849MOL0     H14577   3.819   3.663  11.236 -0.2006 -0.5235 -0.7705
  849MOL0     H14578   3.658   3.705  11.313  1.9204 -3.0839  0.2020
  849MOL0     H14579   3.477   4.174  11.629  0.1901  1.3169 -0.6444
  849MOL0     H14580   3.245   4.192  11.759 -2.9165 -3.2483  0.7232
  849MOL0     H14581   2.965   4.323  11.512  3.3220 -0.0580  0.2495
  849MOL0     H14582   2.893   4.157  11.478  3.2334 -3.0236  1.3610
  849MOL0     H14583   2.770   4.176  11.684  1.9313 -0.4401  0.2659
  849MOL0     H14584   2.827   4.340  11.722 -0.3364  0.9179 -0.6423
  849MOL0     H14585   2.713   4.263  11.454  0.7344  0.5199 -0.5026
  849MOL0     H14586   2.751   4.425  11.504 -0.0517  0.7030  1.0943
  849MOL0     H14587   2.584   4.363  11.715 -3.6942  0.5783 -0.4883
  849MOL0     H14588   2.532   4.434  11.559  1.1197 -1.0200 -2.6051
  849MOL0     H14589   2.521   4.150  11.648  1.9578  1.3609  1.2715
  849MOL0     H14590   2.468   4.209  11.481  0.6123 -1.9152  0.9215
  849MOL0     H14591   2.348   4.284  11.765 -2.4876 -0.5118 -0.1029
  849MOL0     H14592   2.294   4.341  11.604  0.6574  0.6173 -1.7199
  849MOL0     H14593   2.288   4.064  11.733 -1.0371  1.2739  2.5636
  849MOL0     H14594   2.259   4.075  11.567  2.2854 -3.2544  1.5602
  849MOL0     H14595   2.121   4.239  11.791 -0.0226 -2.2821  2.0112
  849MOL0     H14596   2.038   4.101  11.730  2.4695 -2.8178  0.0574
  849MOL0     H14597   3.056   4.052  11.393 -0.1869  0.6713  0.6414
  849MOL0     H14598   3.260   4.020  11.299 -1.6329  1.5949 -1.0357
  849MOL0     H14599   3.689   4.213  11.279  0.4927  0.6168  4.2987
  849MOL0     H14600   3.924   4.228  11.206  2.1420 -2.0302  3.6274
  849MOL0     H14601   5.587   3.741  10.476 -0.3212  1.5190 -0.6818
  849MOL0     H14602   5.819   3.753  10.377  1.2595  0.0207 -1.1405
  849MOL0     H14603   6.364   3.533  10.480 -2.8239  1.6288  3.8908
  849MOL0     H14604   6.573   3.584  10.395 -1.1072 -2.1909  0.7636
  849MOL0     H14605   6.755   3.649  10.336  0.1575  0.8102 -0.1099
  849MOL0     H14606   6.708   3.683  10.170 -0.9200  1.2338 -0.7693
  849MOL0     H14607   6.916   3.856  10.310  2.0950 -1.7625  1.2023
  849MOL0     H14608   6.853   3.876  10.147  1.5746  1.5685  0.2557
  849MOL0     H14609   7.058   3.767  10.120 -0.6900 -0.6272 -0.6509
  849MOL0     H14610   6.918   3.652  10.085 -0.1335 -0.1199 -0.1820
  849MOL0     H14611   7.110   3.536  10.219 -0.1310 -0.9388 -0.7708
  849MOL0     H14612   6.949   3.537  10.297  1.3310 -0.3102  1.9647
  849MOL0     H14613   7.148   3.800  10.570  1.4083 -0.0033  0.0546
  849MOL0     H14614   6.456   3.988  10.326  1.9803  0.5971  1.9602
  849MOL0     H14615   6.228   3.929  10.448 -1.9054 -0.8688 -0.8078
  850MOL0     O14616   6.790   2.692   6.747  0.8462  0.6665  0.7642
  850MOL0     C14617   6.801   2.692   6.625 -0.8413  0.5001  0.2778
  850MOL0     O14618   6.921   2.720   6.556 -0.2104  0.6323  0.2783
  850MOL0     C14619   7.043   2.702   6.623  0.2677  0.2723 -0.4892
  850MOL0     C14620   7.116   2.586   6.599 -0.0518  0.5052 -0.6836
  850MOL0     C14621   7.239   2.574   6.651  0.1702 -0.1986 -0.1158
  850MOL0     C14622   7.304   2.678   6.714 -0.3772  0.0474 -0.1032
  850MOL0     O14623   7.427   2.655   6.775  0.3367 -0.1961  0.4414
  850MOL0     C14624   7.446   2.696   6.912 -0.9009 -0.2759 -0.4936
  850MOL0     C14625   7.583   2.645   6.950 -0.1186 -0.3389  0.0291
  850MOL0     C14626   7.681   2.757   6.953 -0.2393  0.4933 -1.4086
  850MOL0     C14627   7.720   2.807   6.807 -1.3073 -0.0712  0.0931
  850MOL0     C14628   7.761   2.704   6.703  0.0927 -1.2043  0.2273
  850MOL0     C14629   7.892   2.623   6.727  0.6030 -0.2749  0.0409
  850MOL0     C14630   7.914   2.523   6.608  0.1720 -1.0531  0.4051
  850MOL0     C14631   8.021   2.423   6.653  0.8697 -0.4402 -0.0667
  850MOL0     N14632   8.040   2.315   6.563 -0.4668 -0.0416  0.1763
  850MOL0     C14633   8.110   2.315   6.449 -0.5196  0.0965  0.0119
  850MOL0     C14634   8.118   2.197   6.402 -0.2141 -0.4692  0.0996
  850MOL0     C14635   8.168   2.155   6.268 -0.5781  0.3902  0.1475
  850MOL0     C14636   8.313   2.148   6.250  0.5142 -0.3544 -0.3138
  850MOL0     C14637   8.353   2.100   6.115  1.4775  0.8898 -0.5442
  850MOL0     C14638   8.510   2.135   6.089  0.3405  0.8759  0.1668
  850MOL0     O14639   8.598   2.032   6.148  0.3932 -0.1283 -0.0717
  850MOL0     C14640   8.732   2.034   6.145  0.8104  0.5456  0.5974
  850MOL0     C14641   8.804   2.110   6.060 -0.0622 -0.1769  0.6630
  850MOL0     C14642   8.940   2.102   6.061 -0.7200  0.6456  0.3909
  850MOL0     C14643   9.006   2.196   5.966  0.2400 -0.0055 -0.2930
  850MOL0     C14644   9.011   2.001   6.144 -0.0063  0.0960 -0.6130
  850MOL0     C14645   9.160   1.988   6.141  0.2012  0.0725 -0.7397
  850MOL0     O14646   9.234   2.056   6.058  0.0447 -0.1881 -0.3367
  850MOL0     C14647   9.369   2.038   6.075 -0.0100 -0.4207 -0.3789
  850MOL0     C14648   9.458   2.137   6.037 -0.4539 -0.8182  0.4626
  850MOL0     C14649   9.600   2.122   6.025  0.4612  0.2052  0.7910
  850MOL0     C14650   9.658   1.995   6.043  1.0723 -0.7022  1.2284
  850MOL0     O14651   9.787   1.966   6.041  0.2088 -0.1121 -0.6056
  850MOL0     C14652   9.887   2.059   6.004 -0.4334  0.1843  0.2954
  850MOL0     C14653   9.960   2.122   6.128  0.3728  0.8082 -0.1386
  850MOL0     C14654  10.106   2.072   6.141 -0.7653 -0.3606  0.8030
  850MOL0     C14655  10.171   2.102   6.283 -0.8194  0.2947  0.4214
  850MOL0     C14656  10.314   2.048   6.300  0.0301  0.1503  0.0821
  850MOL0     C14657  10.417   2.103   6.197 -0.9527  0.5631  0.0338
  850MOL0     C14658  10.552   2.022   6.216 -0.1568  0.0398  0.8067
  850MOL0     C14659  10.546   1.873   6.163  0.1049 -0.1498  0.1125
  850MOL0    Cl14660  10.706   1.828   6.114 -0.1492 -0.0340 -0.0866
  850MOL0     C14661   9.567   1.889   6.071 -0.7365 -0.1383 -0.3852
  850MOL0     C14662   9.430   1.914   6.090 -0.0369  0.2747 -0.0464
  850MOL0     O14663   9.200   1.918   6.233 -0.3652  0.0529 -0.5164
  850MOL0     C14664   8.929   1.929   6.240 -0.2959 -0.1642 -0.0726
  850MOL0     C14665   8.793   1.947   6.233 -0.2607 -0.1300  0.7037
  850MOL0     N14666   8.039   2.119   6.488  0.6965  1.2438 -0.6603
  850MOL0     N14667   7.987   2.193   6.575  0.2409  0.5530  0.7230
  850MOL0     C14668   7.234   2.800   6.735 -0.1226  0.7534  0.3931
  850MOL0     C14669   7.102   2.804   6.700 -0.8105 -0.2849  0.3507
  850MOL0     C14670   6.686   2.668   6.534 -0.1267  0.7821 -0.0350
  850MOL0     C14671   6.556   2.688   6.583 -0.6659 -0.7306 -0.1024
  850MOL0     C14672   6.444   2.668   6.497 -0.5333  0.3696 -0.0765
  850MOL0     C14673   6.458   2.606   6.368 -0.4369 -0.8093  0.9415
  850MOL0     O14674   6.342   2.593   6.297 -0.4461  0.5330 -0.2906
  850MOL0     C14675   6.330   2.485   6.201 -0.5307  0.4557  0.6505
  850MOL0     C14676   6.185   2.436   6.179 -0.2983 -0.2301  0.3391
  850MOL0     C14677   6.128   2.402   6.311  1.1145  0.6104 -0.6249
  850MOL0     C14678   5.972   2.413   6.330 -0.1610  0.8426 -0.8110
  850MOL0     C14679   5.907   2.315   6.244  0.1094 -0.3515 -0.7079
  850MOL0     C14680   5.840   2.233   6.177  0.3981  0.0427  1.0019
  850MOL0     C14681   6.590   2.591   6.317  0.5167 -0.3445  0.1484
  850MOL0     C14682   6.703   2.623   6.399  0.3284 -0.4066  0.2388
  850MOL0     H14683   7.068   2.504   6.546  2.3453 -0.5492 -1.3508
  850MOL0     H14684   7.285   2.476   6.642 -0.7877 -0.8992  2.0333
  850MOL0     H14685   7.439   2.805   6.913 -2.3024 -0.3276 -1.7229
  850MOL0     H14686   7.369   2.651   6.976 -0.4038  0.9161  1.0090
  850MOL0     H14687   7.571   2.605   7.051 -1.4419 -2.2212 -0.8177
  850MOL0     H14688   7.617   2.558   6.892 -0.1381 -0.5685  0.3580
  850MOL0     H14689   7.641   2.839   7.014  0.1899 -0.5543  0.3517
  850MOL0     H14690   7.773   2.724   7.002 -1.8501  1.0645  2.3302
  850MOL0     H14691   7.644   2.869   6.758 -0.8263 -1.2707 -2.3103
  850MOL0     H14692   7.809   2.867   6.829 -1.5745 -0.1016  1.3435
  850MOL0     H14693   7.680   2.630   6.699 -2.3271  1.2744  0.3200
  850MOL0     H14694   7.762   2.744   6.601  0.8877 -0.7276  0.4143
  850MOL0     H14695   7.976   2.693   6.740 -0.6147  0.9044  2.1651
  850MOL0     H14696   7.888   2.570   6.823 -0.2167  1.8426  1.2643
  850MOL0     H14697   7.824   2.462   6.593  0.8111 -2.4874  2.1104
  850MOL0     H14698   7.955   2.573   6.520  1.9140 -1.1396  1.1224
  850MOL0     H14699   8.002   2.378   6.750 -0.3201 -0.3576 -0.2336
  850MOL0     H14700   8.119   2.471   6.655  1.2331 -1.1911  2.5064
  850MOL0     H14701   8.155   2.408   6.419 -0.5098  0.0024 -0.2658
  850MOL0     H14702   8.132   2.053   6.253  2.3029 -0.5348 -1.1729
  850MOL0     H14703   8.121   2.218   6.192  2.4395  1.8179 -0.6551
  850MOL0     H14704   8.367   2.086   6.322  0.0954 -0.5185 -0.1356
  850MOL0     H14705   8.344   2.250   6.277  2.3314 -1.6003  2.9325
  850MOL0     H14706   8.293   2.141   6.033 -0.5764 -0.8968 -0.0286
  850MOL0     H14707   8.344   1.991   6.105 -0.0306  1.0361 -1.0303
  850MOL0     H14708   8.533   2.235   6.128 -2.6974  2.4196 -1.6187
  850MOL0     H14709   8.536   2.130   5.983 -1.4011  1.1930 -0.3101
  850MOL0     H14710   8.751   2.169   5.987  1.6950 -1.7118 -2.0239
  850MOL0     H14711   9.076   2.253   6.027 -0.9549 -1.1201  2.3106
  850MOL0     H14712   9.062   2.144   5.888  0.6215 -0.6852  0.4247
  850MOL0     H14713   8.940   2.273   5.923  0.5862  0.3072 -0.2724
  850MOL0     H14714   9.419   2.238   6.024  0.8005 -0.3242  0.4218
  850MOL0     H14715   9.661   2.211   6.013  2.3967 -1.3481 -2.3645
  850MOL0     H14716   9.964   2.007   5.946  1.9386  1.8860  1.7094
  850MOL0     H14717   9.848   2.144   5.947  0.5912  1.3416  1.2585
  850MOL0     H14718   9.953   2.230   6.141  2.1592  0.9970 -0.4101
  850MOL0     H14719   9.900   2.097   6.215 -0.7708  0.4845 -1.0000
  850MOL0     H14720  10.163   2.120   6.060 -1.5966  0.4631  0.6784
  850MOL0     H14721  10.108   1.967   6.112  2.2260 -0.2106  0.1438
  850MOL0     H14722  10.175   2.209   6.305 -0.1526  0.1123  1.2605
  850MOL0     H14723  10.112   2.042   6.353 -2.0164  0.1596 -0.6714
  850MOL0     H14724  10.299   1.942   6.280 -0.7734  0.1455  0.6980
  850MOL0     H14725  10.335   2.061   6.407  2.2883 -2.9854  0.1424
  850MOL0     H14726  10.375   2.091   6.097 -2.2719  3.7839  0.0629
  850MOL0     H14727  10.435   2.208   6.225 -0.2541  0.5267 -0.2391
  850MOL0     H14728  10.594   2.032   6.317 -0.7749  2.2151  0.9012
  850MOL0     H14729  10.637   2.061   6.160 -0.7700  0.5485  0.2216
  850MOL0     H14730  10.482   1.871   6.075 -2.9093 -0.3615  2.1804
  850MOL0     H14731  10.507   1.809   6.243 -0.8976  3.3137  2.6417
  850MOL0     H14732   9.599   1.786   6.086  0.5963  0.5117  1.7053
  850MOL0     H14733   9.372   1.823   6.100  0.8086 -0.3482 -0.5602
  850MOL0     H14734   8.977   1.846   6.291  2.9820  0.5123 -1.7805
  850MOL0     H14735   8.720   1.909   6.303  0.3496 -1.8093  0.4624
  850MOL0     H14736   7.296   2.874   6.784  1.2683  0.0324 -0.2172
  850MOL0     H14737   7.040   2.892   6.713  0.1637  0.4153  0.4327
  850MOL0     H14738   6.538   2.712   6.687  0.8269 -0.0781  0.0289
  850MOL0     H14739   6.343   2.691   6.529 -0.4295 -0.0078  0.5401
  850MOL0     H14740   6.374   2.526   6.110 -0.2505 -1.8181 -0.3096
  850MOL0     H14741   6.387   2.396   6.229 -1.7869 -0.6206 -0.0938
  850MOL0     H14742   6.190   2.354   6.106  0.0678 -1.8786  2.1286
  850MOL0     H14743   6.135   2.520   6.129  0.8956 -0.2356 -0.9270
  850MOL0     H14744   6.169   2.471   6.385 -0.1792  1.8850 -1.0396
  850MOL0     H14745   6.159   2.303   6.345  1.1298 -0.0074 -2.3353
  850MOL0     H14746   5.925   2.505   6.291  0.5245  1.4505 -0.2257
  850MOL0     H14747   5.944   2.402   6.435  1.2150  1.2142 -0.3862
  850MOL0     H14748   5.784   2.169   6.112 -1.8830  3.4049 -0.5862
  850MOL0     H14749   6.612   2.550   6.219 -0.4920 -0.6016  0.0185
  850MOL0     H14750   6.804   2.613   6.361  0.9569  3.7218  0.4284
  851MOL0     O14751   7.933   3.117   0.615 -0.3247 -0.0638 -0.5690
  851MOL0     C14752   8.016   3.032   0.574  0.6057  0.2680 -0.7572
  851MOL0     O14753   8.089   3.060   0.463 -0.3389  0.2060 -0.1760
  851MOL0     C14754   8.063   3.166   0.390  0.4736  0.3698 -0.3367
  851MOL0     C14755   7.951   3.162   0.309  0.3642  0.0939  0.8496
  851MOL0     C14756   7.909   3.268   0.236  0.2723 -0.7912 -0.8406
  851MOL0     C14757   7.977   3.392   0.246  0.0979 -0.0991  0.4931
  851MOL0     O14758   7.936   3.503   0.176 -0.7087 -0.0866  0.2667
  851MOL0     C14759   7.798   3.515   0.149  0.1445  0.0190 -0.1343
  851MOL0     C14760   7.764   3.663   0.160 -0.7059  0.8609 -0.6414
  851MOL0     C14761   7.618   3.695   0.157 -0.0176 -0.4397  0.4662
  851MOL0     C14762   7.611   3.842   0.182 -0.0442 -0.1301  1.0067
  851MOL0     C14763   7.460   3.879   0.166  0.5072 -0.3098 -0.4274
  851MOL0     C14764   7.414   4.026   0.186  0.0251  0.6767  0.0399
  851MOL0     C14765   7.262   4.047   0.153 -0.3916 -0.2108 -0.2138
  851MOL0     C14766   7.167   3.953   0.218 -0.7942  0.4034  0.2763
  851MOL0     N14767   7.029   3.990   0.186  0.0910 -0.1146 -0.6128
  851MOL0     C14768   6.961   3.954   0.069  0.1458 -0.2026 -0.0399
  851MOL0     C14769   6.832   3.984   0.111  0.4019 -1.2713  0.0353
  851MOL0     C14770   6.698   3.987   0.031  0.3098  0.7030 -1.1937
  851MOL0     C14771   6.586   3.924   0.122 -0.6064  0.8570 -0.2600
  851MOL0     C14772   6.457   3.886   0.043  0.2502  0.4223 -0.6019
  851MOL0     C14773   6.338   3.879   0.141 -0.2700  0.0467 -0.0860
  851MOL0     O14774   6.223   3.849   0.064 -0.8116 -0.5793  0.1798
  851MOL0     C14775   6.100   3.842   0.116  0.4993 -0.8100  0.5719
  851MOL0     C14776   6.073   3.860   0.250  0.2614  0.2989 -0.1619
  851MOL0     C14777   5.947   3.850   0.307  1.1132 -0.0502  0.9834
  851MOL0     C14778   5.936   3.887   0.457 -0.4389  0.1182  0.2542
  851MOL0     C14779   5.844   3.808   0.226  1.4485  0.2757 -0.0462
  851MOL0     C14780   5.703   3.805   0.270 -0.4547 -0.4865 -0.4107
  851MOL0     O14781   5.610   3.839   0.183  0.3891 -0.3001  0.4847
  851MOL0     C14782   5.477   3.828   0.217  0.3544  0.0539  0.4343
  851MOL0     C14783   5.410   3.939   0.260 -0.5715 -1.1760 -0.2914
  851MOL0     C14784   5.283   3.921   0.326 -0.7394  0.5843 -0.0711
  851MOL0     C14785   5.233   3.799   0.358  1.0688 -1.0489  0.6839
  851MOL0     O14786   5.122   3.783   0.448 -0.5258  0.5099  0.7449
  851MOL0     C14787   5.096   3.880   0.554 -0.1134  0.0188 -0.5702
  851MOL0     C14788   4.986   3.821   0.639  0.4340 -0.2514  0.3234
  851MOL0     C14789   4.851   3.837   0.562  0.2776 -0.3223  0.0075
  851MOL0     C14790   4.747   3.752   0.628 -0.4578  0.5190  0.2773
  851MOL0     C14791   4.624   3.765   0.547 -0.0963 -1.2697 -0.0288
  851MOL0     C14792   4.516   3.665   0.586 -0.0570 -0.4627 -0.0910
  851MOL0     C14793   4.395   3.679   0.496 -0.2383  0.5180  0.2005
  851MOL0     C14794   4.317   3.549   0.512  0.1582  0.8643  0.0244
  851MOL0    Cl14795   4.262   3.519   0.677 -0.2448  0.0462 -0.0321
  851MOL0     C14796   5.285   3.683   0.296  0.5140  0.4701  0.6148
  851MOL0     C14797   5.414   3.696   0.231  0.1257 -0.1434  0.3713
  851MOL0     O14798   5.684   3.755   0.383  0.2722 -0.3556  0.3565
  851MOL0     C14799   5.861   3.789   0.086  0.0692 -0.0005 -0.0806
  851MOL0     C14800   5.992   3.808   0.039  0.0032  0.7409  0.4587
  851MOL0     N14801   6.835   4.052   0.232 -0.2429  0.3820  0.5516
  851MOL0     N14802   6.948   4.048   0.277  0.0158 -0.0628 -0.4025
  851MOL0     C14803   8.099   3.391   0.309 -0.3371 -0.4630 -0.6678
  851MOL0     C14804   8.133   3.284   0.390  0.7086  0.4932 -0.8214
  851MOL0     C14805   8.016   2.907   0.650  0.1891 -0.4029  0.2260
  851MOL0     C14806   7.898   2.852   0.715 -0.2933 -0.1295 -0.5134
  851MOL0     C14807   7.914   2.736   0.789 -0.3547  0.0872 -0.3693
  851MOL0     C14808   8.034   2.657   0.779 -0.9366  0.0168  0.2602
  851MOL0     O14809   8.062   2.536   0.839 -0.2458 -0.0031 -0.6872
  851MOL0     C14810   7.949   2.442   0.843 -0.4754 -0.2427  0.3286
  851MOL0     C14811   7.979   2.314   0.765  0.0551  0.1377 -0.3562
  851MOL0     C14812   7.881   2.195   0.770 -0.4501  0.8074 -0.9242
  851MOL0     C14813   7.849   2.152   0.920  0.3557  0.5170  0.9304
  851MOL0     C14814   7.964   2.155   1.011  0.4403 -0.4235 -0.0923
  851MOL0     C14815   8.057   2.164   1.086  0.3267 -0.3368 -0.0476
  851MOL0     C14816   8.137   2.708   0.704 -0.0254 -0.0077  0.2161
  851MOL0     C14817   8.127   2.829   0.641 -0.0811 -0.0184 -0.5134
  851MOL0     H14818   7.893   3.072   0.291 -0.5109  0.9659 -0.9872
  851MOL0     H14819   7.821   3.259   0.173  0.2584  2.8993 -1.5406
  851MOL0     H14820   7.770   3.483   0.048 -0.7576  0.7713 -0.1420
  851MOL0     H14821   7.741   3.464   0.227 -2.0538  0.8625 -1.0918
  851MOL0     H14822   7.791   3.711   0.254  0.5250  2.0322 -1.5549
  851MOL0     H14823   7.814   3.717   0.080 -2.1021  2.1700 -0.6738
  851MOL0     H14824   7.576   3.660   0.063  2.2198  1.5206 -1.3896
  851MOL0     H14825   7.558   3.645   0.234 -3.6390  3.5161  0.6100
  851MOL0     H14826   7.635   3.865   0.286  0.6308 -0.7077  0.9881
  851MOL0     H14827   7.681   3.896   0.117  0.6078 -0.1431  1.6789
  851MOL0     H14828   7.431   3.853   0.064 -2.4465 -0.1171  0.2776
  851MOL0     H14829   7.411   3.808   0.233  2.8067 -0.1827  1.5251
  851MOL0     H14830   7.419   4.041   0.294 -4.1475  1.2471  0.3220
  851MOL0     H14831   7.476   4.103   0.140  1.2442  0.9327  2.0007
  851MOL0     H14832   7.233   4.150   0.177 -1.8114 -0.7319  0.3884
  851MOL0     H14833   7.253   4.044   0.044  3.0153 -0.6273 -0.5939
  851MOL0     H14834   7.187   3.948   0.325 -1.2847 -0.2706  0.3457
  851MOL0     H14835   7.187   3.852   0.182 -2.8904  0.2172 -0.5148
  851MOL0     H14836   6.996   3.914  -0.026  1.0076 -1.5827  0.8127
  851MOL0     H14837   6.672   4.084  -0.012  1.8039  1.1135 -1.2496
  851MOL0     H14838   6.712   3.930  -0.061  1.5186  1.8545 -1.7610
  851MOL0     H14839   6.558   3.992   0.202 -0.8942  0.1073  0.2928
  851MOL0     H14840   6.629   3.831   0.162  0.3600  1.5236  0.2995
  851MOL0     H14841   6.471   3.789  -0.005  1.3508 -0.0726  0.6221
  851MOL0     H14842   6.431   3.961  -0.032  4.0244 -0.8923 -3.5737
  851MOL0     H14843   6.321   3.974   0.192 -1.9615  0.7779 -1.8804
  851MOL0     H14844   6.357   3.817   0.229  5.2947  1.8139  0.3660
  851MOL0     H14845   6.161   3.884   0.309  0.0175  0.1254  0.2796
  851MOL0     H14846   6.025   3.938   0.494  0.4648 -3.3417  3.5084
  851MOL0     H14847   5.849   3.951   0.476 -1.6723 -0.8763 -1.7265
  851MOL0     H14848   5.920   3.799   0.520  0.9283 -1.2837 -1.2908
  851MOL0     H14849   5.455   4.036   0.241  2.9465 -2.4351  0.9575
  851MOL0     H14850   5.242   4.007   0.379 -1.0795  0.3576  0.0382
  851MOL0     H14851   5.191   3.890   0.607 -1.0803  0.5738  1.1458
  851MOL0     H14852   5.060   3.978   0.521 -3.3513 -0.6180  0.6295
  851MOL0     H14853   5.014   3.718   0.660 -1.2282 -0.9006 -0.4898
  851MOL0     H14854   4.992   3.878   0.733 -0.7130 -0.7112  0.6940
  851MOL0     H14855   4.866   3.814   0.456 -0.6083  1.6098 -0.5911
  851MOL0     H14856   4.829   3.944   0.566 -1.8040 -0.6945 -0.1010
  851MOL0     H14857   4.778   3.647   0.625  0.3460  0.7654 -0.4482
  851MOL0     H14858   4.741   3.785   0.733  1.5449  0.2240  0.5232
  851MOL0     H14859   4.640   3.757   0.439 -1.6844 -0.7900 -0.3149
  851MOL0     H14860   4.589   3.867   0.561  0.1416 -0.8083 -2.3568
  851MOL0     H14861   4.557   3.564   0.582 -1.4834 -1.0185 -2.7809
  851MOL0     H14862   4.472   3.693   0.682 -0.9967  0.3241 -0.7306
  851MOL0     H14863   4.430   3.705   0.396 -1.7967  3.0863  0.2377
  851MOL0     H14864   4.332   3.763   0.525 -2.1647 -0.1375 -1.8612
  851MOL0     H14865   4.374   3.459   0.488 -1.3003  0.6841 -3.2819
  851MOL0     H14866   4.235   3.539   0.441 -0.5032 -3.4421  1.1162
  851MOL0     H14867   5.261   3.579   0.314  2.3072  0.0441  0.8144
  851MOL0     H14868   5.469   3.606   0.206  0.6856  0.2974  0.0300
  851MOL0     H14869   5.785   3.757   0.015 -1.2274 -0.1943  1.3589
  851MOL0     H14870   6.004   3.788  -0.067 -3.9327 -0.8667  0.1756
  851MOL0     H14871   8.160   3.480   0.316  1.7957 -1.7118 -1.9493
  851MOL0     H14872   8.225   3.280   0.448 -0.0866 -0.5270  0.4331
  851MOL0     H14873   7.805   2.907   0.719 -0.2285  0.4281 -3.8286
  851MOL0     H14874   7.829   2.704   0.848 -0.0839  0.6801  0.3567
  851MOL0     H14875   7.943   2.411   0.948  1.0264 -1.3048  0.1317
  851MOL0     H14876   7.854   2.489   0.817 -0.6298 -0.2170  0.9259
  851MOL0     H14877   8.079   2.272   0.783 -0.2100 -1.7357 -2.7518
  851MOL0     H14878   7.977   2.350   0.662 -1.9414 -1.5068 -0.9589
  851MOL0     H14879   7.931   2.115   0.716 -0.7602 -1.1013  1.4181
  851MOL0     H14880   7.786   2.218   0.721  1.2627  0.9138 -4.5298
  851MOL0     H14881   7.809   2.051   0.909 -1.2599  1.3462 -1.9344
  851MOL0     H14882   7.778   2.228   0.954  0.2094  1.1020 -0.5733
  851MOL0     H14883   8.128   2.151   1.165 -0.9277 -1.7374  0.8925
  851MOL0     H14884   8.229   2.651   0.703 -0.3627 -0.5787 -1.0555
  851MOL0     H14885   8.214   2.868   0.588  0.0019 -1.2899 -1.3634
  852MOL0     O14886  10.941   3.062   8.848 -0.5491 -0.1367 -0.3105
  852MOL0     C14887  11.014   2.961   8.835  0.8432 -0.1859 -0.6759
  852MOL0     O14888  10.979   2.836   8.837 -0.0051 -0.4204 -0.2534
  852MOL0     C14889  10.860   2.803   8.893  0.6873  0.8631  1.0690
  852MOL0     C14890  10.823   2.659   8.881 -0.5915 -0.4165  0.5567
  852MOL0     C14891  10.704   2.601   8.932  0.0576  0.2550 -0.4173
  852MOL0     C14892  10.617   2.693   8.976 -0.4390 -0.0242  0.0041
  852MOL0     O14893  10.500   2.642   9.026  0.1909  0.1884 -0.1305
  852MOL0     C14894  10.381   2.652   8.945 -0.2309  0.0433  0.1896
  852MOL0     C14895  10.294   2.777   8.973  0.9411 -0.4585  0.0433
  852MOL0     C14896  10.141   2.739   8.948 -0.5289 -0.2268 -0.3421
  852MOL0     C14897  10.059   2.862   8.990 -0.0529 -0.2395  0.1662
  852MOL0     C14898   9.913   2.841   8.973  0.1062 -0.0282  0.6266
  852MOL0     C14899   9.864   2.841   8.831 -0.1346 -0.2649 -0.3416
  852MOL0     C14900   9.714   2.824   8.821  0.3663  0.7142  0.3430
  852MOL0     C14901   9.662   2.817   8.682  0.3828 -0.6551 -0.3139
  852MOL0     N14902   9.515   2.854   8.679 -0.3394  0.7656 -0.0310
  852MOL0     C14903   9.405   2.787   8.715  0.4552 -0.2406 -0.3284
  852MOL0     C14904   9.297   2.862   8.682  0.5624  0.2087  0.0324
  852MOL0     C14905   9.153   2.835   8.713 -0.0974  0.2282 -0.3579
  852MOL0     C14906   9.098   2.756   8.584 -0.6166  0.4915 -0.2127
  852MOL0     C14907   8.954   2.716   8.613 -0.1756 -0.9086  0.0644
  852MOL0     C14908   8.852   2.831   8.597 -0.7725 -0.3389  0.2345
  852MOL0     O14909   8.714   2.794   8.567  0.0734 -0.1119  0.3919
  852MOL0     C14910   8.634   2.889   8.504 -0.2948  0.5598  1.0147
  852MOL0     C14911   8.664   3.026   8.469  0.0753 -0.7798 -0.2741
  852MOL0     C14912   8.572   3.106   8.396  0.0277 -0.8160  0.2595
  852MOL0     C14913   8.608   3.252   8.368  0.7596 -0.6622  0.0207
  852MOL0     C14914   8.450   3.051   8.358  0.1516  0.4889  0.3944
  852MOL0     C14915   8.336   3.128   8.295  0.0313  0.0579 -0.4649
  852MOL0     O14916   8.343   3.266   8.291  0.0666  0.7175 -0.4504
  852MOL0     C14917   8.269   3.345   8.203  0.3755  0.1202 -0.3205
  852MOL0     C14918   8.152   3.314   8.133  0.4544 -0.6613 -0.1275
  852MOL0     C14919   8.115   3.375   8.020 -0.4286 -0.4676 -0.2824
  852MOL0     C14920   8.176   3.496   7.973 -0.0318  0.8917 -0.2717
  852MOL0     O14921   8.127   3.564   7.863  0.1263  0.2773  0.1581
  852MOL0     C14922   8.202   3.660   7.796  0.3868  0.4134 -0.1265
  852MOL0     C14923   8.115   3.742   7.697  0.2152  0.2004 -0.0342
  852MOL0     C14924   8.035   3.854   7.755  1.3471  0.6071 -0.8955
  852MOL0     C14925   8.112   3.952   7.849  0.8717  0.2643  0.5073
  852MOL0     C14926   8.012   4.065   7.888 -0.0161  0.0264  0.0279
  852MOL0     C14927   8.052   4.166   7.994 -1.1199 -0.1679 -0.3687
  852MOL0     C14928   7.954   4.279   8.007  0.2613  0.1450 -0.5119
  852MOL0     C14929   7.991   4.383   8.113  0.3195  0.9794 -0.5569
  852MOL0    Cl14930   8.150   4.469   8.090 -0.2402  0.1345 -0.3112
  852MOL0     C14931   8.291   3.527   8.049  0.6884 -0.4632  1.1283
  852MOL0     C14932   8.334   3.454   8.163 -0.7288  0.6551  1.1147
  852MOL0     O14933   8.236   3.070   8.273 -0.5143  0.2917  0.4483
  852MOL0     C14934   8.412   2.923   8.386 -0.6495  0.0364 -0.7067
  852MOL0     C14935   8.499   2.844   8.465 -0.6186 -0.6346  0.0139
  852MOL0     N14936   9.341   2.983   8.639  0.0208  0.7320  0.6625
  852MOL0     N14937   9.465   2.975   8.632 -0.4223  0.7589 -0.2770
  852MOL0     C14938  10.645   2.824   8.989  0.3370 -1.2093  0.0004
  852MOL0     C14939  10.765   2.876   8.955 -0.1963  0.9288 -0.0517
  852MOL0     C14940  11.152   2.990   8.805 -0.9080 -0.4314  0.5975
  852MOL0     C14941  11.223   2.898   8.726 -0.2737 -0.0298  0.5394
  852MOL0     C14942  11.361   2.916   8.709 -0.1069 -0.5902  0.0566
  852MOL0     C14943  11.428   3.040   8.744 -0.6331  0.2594  1.0934
  852MOL0     O14944  11.563   3.078   8.740  0.3563 -0.2089 -0.0813
  852MOL0     C14945  11.647   2.990   8.671 -0.5339  0.6770  0.3924
  852MOL0     C14946  11.792   3.039   8.670  0.4808  0.1929  0.1640
  852MOL0     C14947  11.821   3.191   8.664 -0.2265  0.3712  0.3776
  852MOL0     C14948  11.954   3.225   8.595 -0.4446 -0.1497 -0.5737
  852MOL0     C14949  12.061   3.165   8.669  0.2066  0.3139  0.0583
  852MOL0     C14950  12.151   3.122   8.728  0.2944  0.6511 -0.7813
  852MOL0     C14951  11.352   3.137   8.801  0.6110  0.3557 -0.2425
  852MOL0     C14952  11.214   3.108   8.841 -0.0930 -0.0666 -0.4563
  852MOL0     H14953  10.883   2.593   8.820 -2.5265  0.0514 -2.0213
  852MOL0     H14954  10.669   2.498   8.922  2.2489 -0.5628 -0.2947
  852MOL0     H14955  10.409   2.648   8.839  2.3725 -0.5726  0.8224
  852MOL0     H14956  10.325   2.564   8.974 -2.6899  1.3567 -0.3358
  852MOL0     H14957  10.305   2.805   9.078 -1.0094  0.2792  0.0821
  852MOL0     H14958  10.321   2.862   8.910 -2.1236 -1.2483 -2.6084
  852MOL0     H14959  10.129   2.723   8.841 -1.8094  3.9518 -0.9941
  852MOL0     H14960  10.113   2.648   9.002  1.3971 -0.4329  0.4028
  852MOL0     H14961  10.087   2.887   9.092 -1.7597 -0.0037  0.6065
  852MOL0     H14962  10.088   2.949   8.930 -2.4708 -0.2328 -1.1244
  852MOL0     H14963   9.878   2.756   9.032 -0.4260  1.6834  2.8720
  852MOL0     H14964   9.868   2.933   9.011  1.4439  1.5823 -1.4304
  852MOL0     H14965   9.902   2.935   8.791  1.2118 -0.1389  1.1400
  852MOL0     H14966   9.902   2.764   8.762 -2.0975 -1.1120 -0.5345
  852MOL0     H14967   9.690   2.731   8.874 -2.4145  2.2260  1.9377
  852MOL0     H14968   9.660   2.906   8.869 -2.8119 -1.3848  0.6097
  852MOL0     H14969   9.677   2.715   8.648 -0.5093 -1.2678  1.0432
  852MOL0     H14970   9.702   2.895   8.616  0.5948  0.7300  1.3667
  852MOL0     H14971   9.392   2.691   8.763  0.3555 -0.7189 -1.3073
  852MOL0     H14972   9.147   2.773   8.803  1.5537  1.0778  0.4005
  852MOL0     H14973   9.101   2.932   8.718 -2.0530 -0.7872 -0.1524
  852MOL0     H14974   9.158   2.665   8.578 -0.4004  0.2648  3.3614
  852MOL0     H14975   9.113   2.818   8.495 -0.0121  0.3414 -0.2233
  852MOL0     H14976   8.935   2.678   8.714 -1.3466 -2.3650 -0.6602
  852MOL0     H14977   8.935   2.637   8.540 -0.4326 -0.2498 -0.5961
  852MOL0     H14978   8.888   2.887   8.511 -0.5033  2.0060  1.7826
  852MOL0     H14979   8.862   2.905   8.677 -0.5159 -0.2291  0.1024
  852MOL0     H14980   8.752   3.077   8.509  0.5353 -0.4105 -1.7140
  852MOL0     H14981   8.713   3.282   8.380  1.0629 -1.7124  0.1093
  852MOL0     H14982   8.581   3.273   8.264 -2.0138  2.1140  1.1481
  852MOL0     H14983   8.559   3.315   8.442  1.5945  1.4211 -1.1101
  852MOL0     H14984   8.094   3.226   8.161  2.7309 -1.3905  2.9055
  852MOL0     H14985   8.030   3.341   7.962 -0.7309  1.7359 -1.2412
  852MOL0     H14986   8.253   3.738   7.854 -0.4299  1.1300 -0.3469
  852MOL0     H14987   8.287   3.620   7.741 -0.0292  0.2592 -0.6625
  852MOL0     H14988   8.175   3.781   7.614  2.1624 -1.5465  0.4772
  852MOL0     H14989   8.040   3.687   7.639  0.6733  2.3561 -2.8907
  852MOL0     H14990   7.953   3.805   7.809  2.3312  0.4576  0.4955
  852MOL0     H14991   7.978   3.900   7.673 -1.4022  0.0459  0.5831
  852MOL0     H14992   8.144   3.905   7.942  1.2948  1.6512  1.0752
  852MOL0     H14993   8.197   3.994   7.796 -0.4991  0.6591 -1.5075
  852MOL0     H14994   7.914   4.023   7.914 -0.9076 -0.5715 -3.7516
  852MOL0     H14995   7.998   4.119   7.794  2.0030  0.2960 -0.1634
  852MOL0     H14996   8.077   4.113   8.087 -1.3496  0.4553  0.0532
  852MOL0     H14997   8.144   4.207   7.950  1.1852 -3.9316  0.4418
  852MOL0     H14998   7.852   4.243   8.025  1.3457 -1.0892  4.5189
  852MOL0     H14999   7.946   4.334   7.912 -4.0004 -1.3513 -1.2473
  852MOL0     H15000   7.992   4.328   8.208  0.9985 -1.3102 -1.8057
  852MOL0     H15001   7.912   4.458   8.123  2.0979  2.9317 -0.4506
  852MOL0     H15002   8.353   3.613   8.029  1.1700 -0.9854  0.3413
  852MOL0     H15003   8.424   3.482   8.217 -1.7977  0.6900  2.9650
  852MOL0     H15004   8.314   2.879   8.373  0.0798 -1.4520 -1.4703
  852MOL0     H15005   8.470   2.744   8.493  1.4518 -1.4207 -0.4806
  852MOL0     H15006  10.568   2.889   9.029  1.2743  1.1495 -1.7290
  852MOL0     H15007  10.781   2.979   8.985  1.8680  1.4434 -2.5775
  852MOL0     H15008  11.179   2.802   8.699 -1.6744  0.4805  0.8986
  852MOL0     H15009  11.420   2.829   8.682 -0.0637 -0.4256 -0.3782
  852MOL0     H15010  11.637   2.890   8.713 -5.2682 -0.2603 -2.2207
  852MOL0     H15011  11.615   2.976   8.567  0.5860 -0.1090  0.1402
  852MOL0     H15012  11.840   3.003   8.579 -1.0314 -1.2340 -0.1130
  852MOL0     H15013  11.835   2.993   8.760  1.0673  0.1279 -0.1410
  852MOL0     H15014  11.827   3.218   8.769  0.2993  1.8867 -0.0284
  852MOL0     H15015  11.742   3.243   8.608 -0.7730 -2.3075 -1.5864
  852MOL0     H15016  11.965   3.334   8.585  0.2971  0.1243  2.3235
  852MOL0     H15017  11.957   3.191   8.491  0.9480  0.2648 -0.6939
  852MOL0     H15018  12.234   3.076   8.778 -0.7704 -2.6955 -1.8621
  852MOL0     H15019  11.390   3.233   8.834  2.0281  0.0797 -0.9774
  852MOL0     H15020  11.168   3.188   8.898 -0.7167 -0.1911 -0.7692
  853MOL0     O15021   8.979   6.856   1.738  0.5078  0.0280 -0.2008
  853MOL0     C15022   8.976   6.849   1.611  0.3550  0.4351 -0.7568
  853MOL0     O15023   8.865   6.840   1.534 -0.0070 -0.4126 -0.2778
  853MOL0     C15024   8.737   6.838   1.587 -0.2952 -0.0471 -0.0847
  853MOL0     C15025   8.691   6.926   1.680 -0.4300 -0.6430 -1.2092
  853MOL0     C15026   8.563   6.919   1.734  0.7740 -0.3101  0.1230
  853MOL0     C15027   8.472   6.820   1.679 -0.2390 -0.6852 -0.1498
  853MOL0     O15028   8.349   6.820   1.741  0.6062 -0.4564  0.0447
  853MOL0     C15029   8.258   6.710   1.724  0.1374  0.3534  0.2472
  853MOL0     C15030   8.172   6.733   1.595 -0.0268  0.4050  0.8041
  853MOL0     C15031   8.091   6.867   1.584  1.2693 -0.3098 -0.9868
  853MOL0     C15032   8.065   6.907   1.437  0.9531  0.1152 -0.4827
  853MOL0     C15033   7.949   7.007   1.443  0.9905  0.0533 -0.0851
  853MOL0     C15034   7.924   7.080   1.317  0.1608 -0.9846  0.9377
  853MOL0     C15035   7.800   7.182   1.320 -0.0530  0.0752 -0.5318
  853MOL0     C15036   7.838   7.311   1.406 -0.3139  0.5943  0.3785
  853MOL0     N15037   7.722   7.389   1.437  0.3484  0.3228 -0.2805
  853MOL0     C15038   7.622   7.358   1.531 -0.6798 -0.1440  0.4132
  853MOL0     C15039   7.525   7.449   1.510  0.7339 -0.0420  0.3612
  853MOL0     C15040   7.396   7.425   1.583  0.2743  0.2316 -0.0408
  853MOL0     C15041   7.301   7.537   1.558  0.1842 -0.1525 -0.8879
  853MOL0     C15042   7.213   7.505   1.438  0.8490 -0.3603  0.0196
  853MOL0     C15043   7.146   7.629   1.381 -1.2730 -0.1719  1.3489
  853MOL0     O15044   7.049   7.684   1.471  0.1083  0.2299 -0.2267
  853MOL0     C15045   6.985   7.802   1.433  0.0533 -0.0206  1.0103
  853MOL0     C15046   6.842   7.810   1.428 -0.2034 -0.1611 -0.8534
  853MOL0     C15047   6.771   7.934   1.409 -0.5870 -0.9817  0.6267
  853MOL0     C15048   6.628   7.934   1.447  0.4143 -0.4419  0.5669
  853MOL0     C15049   6.846   8.053   1.367  0.4030 -0.5961 -0.5384
  853MOL0     C15050   6.787   8.186   1.334  0.4129  0.6009  0.7238
  853MOL0     O15051   6.654   8.194   1.282 -0.4292  0.4443 -0.4125
  853MOL0     C15052   6.619   8.321   1.242 -0.5600 -0.2110  0.0551
  853MOL0     C15053   6.503   8.379   1.306  0.0038  0.5563  0.4942
  853MOL0     C15054   6.462   8.508   1.260  0.4104  0.8287  0.2973
  853MOL0     C15055   6.526   8.579   1.156  0.4770  0.5302  0.0385
  853MOL0     O15056   6.476   8.700   1.115  0.2089 -0.4091  1.2000
  853MOL0     C15057   6.571   8.805   1.113  0.7309  0.4273  0.5500
  853MOL0     C15058   6.528   8.926   1.030  0.3793  0.0897 -0.0372
  853MOL0     C15059   6.491   8.897   0.878 -0.9615 -0.5672  0.4136
  853MOL0     C15060   6.422   9.020   0.823  0.3250 -0.2253 -0.0080
  853MOL0     C15061   6.406   9.027   0.670  0.3961 -0.1149 -0.3529
  853MOL0     C15062   6.349   9.169   0.622  0.4990  0.0523  0.1484
  853MOL0     C15063   6.427   9.208   0.499 -0.9250  0.6543  0.3103
  853MOL0     C15064   6.379   9.345   0.474 -0.7410 -0.4677  0.5625
  853MOL0    Cl15065   6.464   9.475   0.570  0.5725 -0.1685  0.5691
  853MOL0     C15066   6.631   8.514   1.094 -0.8107  0.1068  1.3413
  853MOL0     C15067   6.683   8.392   1.139  0.2795  0.6422  0.1022
  853MOL0     O15068   6.856   8.277   1.364 -0.6519  0.2952 -0.5002
  853MOL0     C15069   6.980   8.036   1.363  0.6351 -0.1885  0.0666
  853MOL0     C15070   7.060   7.916   1.399  0.7735  0.5090 -0.4730
  853MOL0     N15071   7.560   7.537   1.404 -0.3885  0.2530 -0.2804
  853MOL0     N15072   7.686   7.503   1.372  0.4128 -0.0444  0.2696
  853MOL0     C15073   8.514   6.731   1.579 -0.2858 -0.0977  0.6991
  853MOL0     C15074   8.645   6.748   1.529 -0.4362  0.1131  0.0078
  853MOL0     C15075   9.106   6.844   1.549 -0.3688 -0.6841 -0.0946
  853MOL0     C15076   9.221   6.897   1.620 -0.4000 -0.3654  0.3902
  853MOL0     C15077   9.340   6.899   1.546  0.1213 -0.0590 -0.4092
  853MOL0     C15078   9.351   6.836   1.417  0.6410 -0.3229 -0.3722
  853MOL0     O15079   9.471   6.826   1.351 -0.8983  0.1497 -0.0706
  853MOL0     C15080   9.598   6.880   1.398  0.4791  0.8447 -0.9866
  853MOL0     C15081   9.604   7.036   1.393  0.1406  0.0394  0.3288
  853MOL0     C15082   9.585   7.082   1.249  0.1395  0.8770 -0.0172
  853MOL0     C15083   9.613   7.222   1.207 -0.7908 -0.5204 -0.5549
  853MOL0     C15084   9.542   7.321   1.286  0.4926 -0.4121  0.2536
  853MOL0     C15085   9.485   7.408   1.352 -0.1431  0.2417  0.1542
  853MOL0     C15086   9.239   6.782   1.357 -0.6771 -0.3880 -0.6329
  853MOL0     C15087   9.115   6.791   1.422 -0.8996  1.0890 -0.3612
  853MOL0     H15088   8.761   6.995   1.726 -0.2428 -1.3124 -0.4725
  853MOL0     H15089   8.535   7.000   1.800  3.8436  0.3669  0.7141
  853MOL0     H15090   8.314   6.616   1.715  1.2776  1.1646 -1.7681
  853MOL0     H15091   8.187   6.706   1.807  1.4039 -0.1821  1.3463
  853MOL0     H15092   8.242   6.731   1.511 -1.1552  0.5937 -0.1703
  853MOL0     H15093   8.105   6.648   1.580  0.8194 -0.0201 -0.7893
  853MOL0     H15094   7.998   6.864   1.641  2.7703  0.1397  1.6906
  853MOL0     H15095   8.135   6.956   1.631 -3.8265  3.4238 -2.3867
  853MOL0     H15096   8.154   6.960   1.402  1.0415  0.9536  0.9177
  853MOL0     H15097   8.049   6.818   1.376 -2.5091 -0.7999  1.4990
  853MOL0     H15098   7.857   6.955   1.470  0.5797  1.5715  1.6487
  853MOL0     H15099   7.978   7.077   1.522  0.6456  0.4780 -0.3308
  853MOL0     H15100   8.013   7.135   1.288 -1.1925  0.3918 -0.8047
  853MOL0     H15101   7.896   7.005   1.243 -0.8730 -0.2144  0.5211
  853MOL0     H15102   7.775   7.215   1.219 -2.0509  0.4662  0.0445
  853MOL0     H15103   7.713   7.134   1.366 -0.1199 -0.6640 -1.4193
  853MOL0     H15104   7.916   7.365   1.351 -0.4423  0.3418 -0.0542
  853MOL0     H15105   7.897   7.295   1.497 -0.7466  0.6023  0.6615
  853MOL0     H15106   7.611   7.274   1.598  2.6988  0.2635  1.6789
  853MOL0     H15107   7.349   7.335   1.544 -0.1109  1.3541 -2.3007
  853MOL0     H15108   7.423   7.417   1.689  1.0445  2.1681 -0.0548
  853MOL0     H15109   7.356   7.632   1.556 -0.0165  0.2629  3.5114
  853MOL0     H15110   7.245   7.540   1.652  1.3421 -2.1579 -0.0537
  853MOL0     H15111   7.135   7.431   1.458  0.2845  0.3744  0.5832
  853MOL0     H15112   7.267   7.460   1.353 -0.1568 -0.7102 -0.4470
  853MOL0     H15113   7.092   7.608   1.288  1.7245 -1.2428 -0.2579
  853MOL0     H15114   7.233   7.693   1.365 -0.5364 -0.7059  2.9910
  853MOL0     H15115   6.773   7.726   1.441  2.5225 -2.3615  0.3013
  853MOL0     H15116   6.573   7.924   1.353  0.9645  0.8052  0.0835
  853MOL0     H15117   6.591   7.848   1.502  0.2461 -0.8792 -0.2106
  853MOL0     H15118   6.600   8.023   1.504 -3.4931 -0.4795 -0.9847
  853MOL0     H15119   6.439   8.329   1.378 -0.4587 -0.3523 -0.5204
  853MOL0     H15120   6.374   8.555   1.304 -0.9920 -2.0302  0.8026
  853MOL0     H15121   6.581   8.839   1.216 -0.2652  0.9114  0.5029
  853MOL0     H15122   6.667   8.773   1.073  0.4241  1.0831 -0.7585
  853MOL0     H15123   6.444   8.971   1.083  1.0375  1.7576 -0.3585
  853MOL0     H15124   6.610   8.997   1.040 -0.5758  1.6988 -2.7048
  853MOL0     H15125   6.420   8.813   0.877  0.8986 -2.3933  3.9721
  853MOL0     H15126   6.580   8.858   0.827 -0.4481 -0.0758  0.9303
  853MOL0     H15127   6.322   9.030   0.865  0.0789  0.9934 -0.8125
  853MOL0     H15128   6.479   9.109   0.855 -2.6756  2.1494 -0.8307
  853MOL0     H15129   6.341   8.948   0.633 -0.6652  0.1600  0.8909
  853MOL0     H15130   6.503   9.007   0.624  1.4210 -2.8205  2.6524
  853MOL0     H15131   6.248   9.142   0.588  0.4153  0.8680 -0.2756
  853MOL0     H15132   6.345   9.245   0.700  0.0685 -0.2750  0.4503
  853MOL0     H15133   6.420   9.127   0.426  0.8455  0.3097  0.4840
  853MOL0     H15134   6.533   9.224   0.521 -0.7725  2.5667 -1.5118
  853MOL0     H15135   6.272   9.364   0.487 -0.4711  1.4637  0.3347
  853MOL0     H15136   6.412   9.372   0.373  1.3284  0.2546  1.3938
  853MOL0     H15137   6.671   8.551   1.000 -2.0758 -3.0053 -0.5812
  853MOL0     H15138   6.770   8.346   1.094 -1.7463 -3.8206  0.2113
  853MOL0     H15139   7.054   8.111   1.340  2.1515 -2.1873 -2.0799
  853MOL0     H15140   7.168   7.914   1.411  0.9266 -2.2303 -1.4751
  853MOL0     H15141   8.448   6.656   1.538 -0.2461  1.9746 -3.7153
  853MOL0     H15142   8.686   6.689   1.447 -1.6668 -0.4860 -0.2014
  853MOL0     H15143   9.207   6.940   1.719 -1.3163 -1.1483  0.6093
  853MOL0     H15144   9.424   6.943   1.600 -0.8275  0.7359  0.4418
  853MOL0     H15145   9.624   6.837   1.495 -1.7676 -0.5094 -0.9216
  853MOL0     H15146   9.673   6.836   1.332 -2.0984  0.6844 -4.0526
  853MOL0     H15147   9.697   7.074   1.435 -1.7958  2.9727  2.3769
  853MOL0     H15148   9.529   7.083   1.458  1.2606 -1.2591  2.6823
  853MOL0     H15149   9.482   7.051   1.228 -0.3714  1.3665  1.5989
  853MOL0     H15150   9.644   7.015   1.185 -0.2919 -1.3300  1.7507
  853MOL0     H15151   9.582   7.249   1.105 -2.0509 -0.7309 -0.2434
  853MOL0     H15152   9.720   7.237   1.222 -0.9361  0.2824 -0.2487
  853MOL0     H15153   9.435   7.489   1.400 -3.7808 -1.0706 -1.1166
  853MOL0     H15154   9.252   6.736   1.259 -0.2962 -0.0856 -0.7249
  853MOL0     H15155   9.036   6.751   1.359  2.0365 -0.2469 -3.5412
  854MOL0     O15156   0.969   0.758   8.919 -0.2133  0.5414 -0.0756
  854MOL0     C15157   0.973   0.881   8.944 -1.1718  0.3933  0.1698
  854MOL0     O15158   0.886   0.979   8.899 -0.8862 -0.5045 -0.6158
  854MOL0     C15159   0.780   0.953   8.817 -0.2865  0.0428 -0.4399
  854MOL0     C15160   0.671   0.878   8.867  0.5095  0.6206  0.1001
  854MOL0     C15161   0.560   0.853   8.800 -0.0847  0.1288  0.3594
  854MOL0     C15162   0.547   0.896   8.663 -0.6444 -0.5253  0.5493
  854MOL0     O15163   0.434   0.860   8.592 -0.1327  0.4987  0.1244
  854MOL0     C15164   0.454   0.858   8.451 -0.6355 -0.1842  0.7707
  854MOL0     C15165   0.342   0.777   8.378  0.1400  0.3010 -0.1103
  854MOL0     C15166   0.201   0.846   8.387 -0.1304  0.0328  0.3527
  854MOL0     C15167   0.120   0.830   8.254  0.4401  0.0380 -0.1750
  854MOL0     C15168  -0.019   0.885   8.274  0.0530 -0.5947 -0.0512
  854MOL0     C15169  -0.101   0.867   8.151  0.4314  0.5142  0.5508
  854MOL0     C15170  -0.250   0.907   8.184  0.5742 -0.0651  0.8670
  854MOL0     C15171  -0.338   0.918   8.053  0.3959 -0.7426  0.1596
  854MOL0     N15172  -0.454   0.997   8.094  0.4662  0.8651  1.0697
  854MOL0     C15173  -0.493   1.119   8.048 -0.4144 -0.0510 -0.1132
  854MOL0     C15174  -0.608   1.153   8.121 -1.4098 -0.6096  0.6063
  854MOL0     C15175  -0.678   1.282   8.108  0.3453  0.0214  1.2942
  854MOL0     C15176  -0.816   1.284   8.183  0.1277 -0.4905  0.6497
  854MOL0     C15177  -0.821   1.272   8.334  0.0047  0.2451  0.1661
  854MOL0     C15178  -0.707   1.336   8.413 -0.0463 -0.7305  0.0214
  854MOL0     O15179  -0.712   1.479   8.407 -0.8222 -0.1272  0.5526
  854MOL0     C15180  -0.815   1.536   8.472  0.0336  0.5898  0.1387
  854MOL0     C15181  -0.821   1.547   8.613 -0.5385 -0.2045 -0.0787
  854MOL0     C15182  -0.930   1.605   8.672  0.7283 -0.2956  0.7346
  854MOL0     C15183  -0.932   1.621   8.823  0.1231 -0.2847  0.1695
  854MOL0     C15184  -1.041   1.657   8.589 -0.4449 -0.4793 -0.5824
  854MOL0     C15185  -1.161   1.712   8.652  1.2115  0.1712 -0.1235
  854MOL0     O15186  -1.242   1.798   8.573 -0.3508  0.0177 -0.0075
  854MOL0     C15187  -1.363   1.839   8.614  0.0800 -0.6833 -0.3784
  854MOL0     C15188  -1.461   1.782   8.541 -0.1520  0.1053 -0.3786
  854MOL0     C15189  -1.595   1.804   8.584 -0.9567 -0.3102 -0.5731
  854MOL0     C15190  -1.630   1.894   8.692  0.0985 -0.6200 -0.6709
  854MOL0     O15191  -1.759   1.920   8.722  0.3232 -0.1646 -0.2771
  854MOL0     C15192  -1.804   1.847   8.832 -0.8922 -0.5819 -0.2813
  854MOL0     C15193  -1.848   1.704   8.788 -0.9927  0.0078 -0.3437
  854MOL0     C15194  -1.938   1.697   8.665 -0.5672 -0.6105 -0.2071
  854MOL0     C15195  -2.059   1.791   8.691  0.4540  0.3304  0.3452
  854MOL0     C15196  -2.153   1.792   8.566  0.0773  0.0334  0.0718
  854MOL0     C15197  -2.308   1.818   8.602 -0.1900  0.5168 -0.8419
  854MOL0     C15198  -2.373   1.683   8.647  0.3516  0.7592  0.3036
  854MOL0     C15199  -2.523   1.716   8.656 -0.5095  0.3745 -0.9016
  854MOL0    Cl15200  -2.559   1.863   8.753 -0.2303  0.0322  0.5925
  854MOL0     C15201  -1.526   1.954   8.757 -1.1163  0.8577 -1.9174
  854MOL0     C15202  -1.389   1.925   8.722 -0.5244 -0.4919  0.0032
  854MOL0     O15203  -1.201   1.668   8.764 -0.1494 -0.1305  0.4304
  854MOL0     C15204  -1.023   1.660   8.447  0.1221 -0.6409 -0.8922
  854MOL0     C15205  -0.908   1.602   8.389 -0.0472  0.6307  0.1903
  854MOL0     N15206  -0.645   1.038   8.189  0.6028 -0.8904  0.2152
  854MOL0     N15207  -0.556   0.949   8.177  0.2767 -0.5376 -0.1471
  854MOL0     C15208   0.654   0.973   8.617 -0.8747 -0.3456 -0.0203
  854MOL0     C15209   0.765   1.009   8.694  0.2477  0.1702 -0.7512
  854MOL0     C15210   1.058   0.928   9.058  0.6804  0.2944 -0.0763
  854MOL0     C15211   1.174   0.856   9.088 -0.3030 -0.4180 -1.2754
  854MOL0     C15212   1.261   0.895   9.198  1.0203  0.8714  0.5540
  854MOL0     C15213   1.235   1.003   9.281  1.0623 -1.1264  0.2292
  854MOL0     O15214   1.315   1.013   9.391 -0.6455 -0.6474 -0.0872
  854MOL0     C15215   1.274   1.108   9.495  0.1346 -0.0874  0.4081
  854MOL0     C15216   1.164   1.057   9.589 -0.1433 -0.2858  0.1570
  854MOL0     C15217   1.122   1.177   9.682  0.3889  0.0218  1.1151
  854MOL0     C15218   1.032   1.129   9.791 -0.0440  0.0242  0.0740
  854MOL0     C15219   0.981   1.238   9.873  0.1825 -0.0304 -0.3375
  854MOL0     C15220   0.958   1.323   9.956  0.0142 -0.0153 -0.1461
  854MOL0     C15221   1.116   1.078   9.245  0.2591  0.8878 -1.0843
  854MOL0     C15222   1.027   1.038   9.141 -0.7166 -0.0901  0.3820
  854MOL0     H15223   0.675   0.848   8.972 -1.1148  0.7195  0.2130
  854MOL0     H15224   0.483   0.791   8.844 -0.1288 -0.6265 -0.7402
  854MOL0     H15225   0.460   0.956   8.403  1.2344 -0.2750  0.7460
  854MOL0     H15226   0.548   0.804   8.434 -0.9189 -0.1802 -1.0143
  854MOL0     H15227   0.366   0.772   8.272 -0.9598 -1.7656 -0.3109
  854MOL0     H15228   0.332   0.676   8.419 -2.9948  1.1902  1.6547
  854MOL0     H15229   0.143   0.797   8.466 -0.6098 -0.8555 -0.5296
  854MOL0     H15230   0.209   0.950   8.418  2.2336 -0.2288  0.8015
  854MOL0     H15231   0.170   0.877   8.169  1.5955  2.0137  1.4967
  854MOL0     H15232   0.100   0.724   8.238 -0.0879  0.2741 -1.1936
  854MOL0     H15233  -0.066   0.834   8.358  0.6590 -1.6216 -0.3124
  854MOL0     H15234  -0.009   0.992   8.293 -0.4146 -0.5989  0.2171
  854MOL0     H15235  -0.073   0.936   8.071 -3.1700  0.9710 -0.4911
  854MOL0     H15236  -0.084   0.767   8.109  0.7676  1.4546 -1.7245
  854MOL0     H15237  -0.303   0.833   8.245  3.5653 -2.7913  0.3965
  854MOL0     H15238  -0.258   1.003   8.237 -1.6578  0.8005 -0.8614
  854MOL0     H15239  -0.358   0.818   8.013 -0.5917 -0.8724  0.9430
  854MOL0     H15240  -0.276   0.981   7.989  1.0778  0.3623  1.8162
  854MOL0     H15241  -0.447   1.187   7.977 -2.3022  0.2174 -1.1320
  854MOL0     H15242  -0.621   1.367   8.148 -0.6746  0.5628  1.6438
  854MOL0     H15243  -0.693   1.299   8.001 -1.7467 -1.1052  1.3568
  854MOL0     H15244  -0.880   1.204   8.144 -0.7732  0.1131  0.8593
  854MOL0     H15245  -0.864   1.379   8.156 -0.1708 -0.6796  0.5076
  854MOL0     H15246  -0.817   1.165   8.355  4.5757 -0.2389 -1.8493
  854MOL0     H15247  -0.923   1.302   8.358 -0.1752  2.0655 -2.3847
  854MOL0     H15248  -0.608   1.298   8.389  0.1137 -0.2178 -0.1440
  854MOL0     H15249  -0.714   1.299   8.516  1.6616  0.9030  0.7883
  854MOL0     H15250  -0.744   1.513   8.682 -0.0209 -3.7966 -2.1304
  854MOL0     H15251  -1.008   1.553   8.862 -2.0815  2.5635  1.1257
  854MOL0     H15252  -0.843   1.608   8.886 -1.0622 -4.3854  1.3140
  854MOL0     H15253  -0.967   1.723   8.839  3.4914  1.2266 -1.0282
  854MOL0     H15254  -1.433   1.728   8.451  1.5035 -2.2426  1.3990
  854MOL0     H15255  -1.672   1.754   8.527 -0.4325 -2.2567  0.3325
  854MOL0     H15256  -1.720   1.846   8.903  0.3904  0.9482 -1.6903
  854MOL0     H15257  -1.888   1.897   8.879 -1.3906 -2.6515  1.1808
  854MOL0     H15258  -1.768   1.630   8.778 -1.9083 -1.1423  0.5458
  854MOL0     H15259  -1.906   1.661   8.870 -0.2790  1.2680  0.8751
  854MOL0     H15260  -1.957   1.593   8.638  0.9764 -0.5750 -1.6449
  854MOL0     H15261  -1.877   1.733   8.581  1.6653  1.1493  1.9915
  854MOL0     H15262  -2.110   1.743   8.775  1.5641  0.5976  1.1922
  854MOL0     H15263  -2.039   1.890   8.734  0.8978  0.5659 -0.3890
  854MOL0     H15264  -2.144   1.699   8.508 -0.1094 -0.0510  0.1764
  854MOL0     H15265  -2.130   1.877   8.502  1.4352 -1.0206 -0.9060
  854MOL0     H15266  -2.309   1.889   8.685 -2.1047 -0.0137 -0.3496
  854MOL0     H15267  -2.361   1.854   8.513 -0.4649  3.6742  0.4495
  854MOL0     H15268  -2.328   1.662   8.745  2.2222  1.4375 -0.3711
  854MOL0     H15269  -2.347   1.607   8.573  1.2144  1.9958 -0.6932
  854MOL0     H15270  -2.567   1.634   8.714 -0.5083  0.3981 -0.8683
  854MOL0     H15271  -2.566   1.720   8.555 -2.5094 -1.7938 -0.2141
  854MOL0     H15272  -1.558   2.022   8.836 -1.4975 -0.7074 -0.6789
  854MOL0     H15273  -1.309   1.980   8.773  0.4213 -1.4845 -0.3761
  854MOL0     H15274  -1.096   1.702   8.380  1.1967  0.6916 -1.2639
  854MOL0     H15275  -0.900   1.587   8.282 -1.2310  0.4794  0.1124
  854MOL0     H15276   0.647   1.015   8.517  2.4470  2.3221  0.7009
  854MOL0     H15277   0.839   1.077   8.653 -1.4908  1.2267 -2.3401
  854MOL0     H15278   1.202   0.769   9.030 -1.1213 -0.3939 -1.7102
  854MOL0     H15279   1.351   0.834   9.202 -0.1987 -1.0393  0.0627
  854MOL0     H15280   1.360   1.128   9.559 -0.4126  0.0475  1.1178
  854MOL0     H15281   1.254   1.207   9.451  2.3359  0.1865 -0.0812
  854MOL0     H15282   1.197   0.969   9.644 -0.2621 -1.3228 -1.3720
  854MOL0     H15283   1.074   1.018   9.541 -0.3452 -1.4545  1.4228
  854MOL0     H15284   1.076   1.254   9.620  0.2729 -0.1985  0.9270
  854MOL0     H15285   1.217   1.216   9.721 -0.9809  3.5167  1.2418
  854MOL0     H15286   1.092   1.067   9.859  2.2468 -0.4244 -2.2074
  854MOL0     H15287   0.957   1.063   9.745  0.2076  0.8221 -1.5385
  854MOL0     H15288   0.959   1.403  10.027 -0.1919 -0.3698  0.2563
  854MOL0     H15289   1.091   1.164   9.306 -2.7589 -0.9610  0.5297
  854MOL0     H15290   0.937   1.096   9.124 -2.4911 -2.7413  0.1003
  855MOL0     O15291   3.232   0.697   6.726  0.3486 -0.8804 -0.2458
  855MOL0     C15292   3.288   0.760   6.633 -0.0365  0.1194 -0.6487
  855MOL0     O15293   3.226   0.801   6.516  0.0358  0.2245  0.5178
  855MOL0     C15294   3.092   0.793   6.496 -0.1254  0.0946 -0.9056
  855MOL0     C15295   2.984   0.807   6.595  0.0394  0.3470 -0.2477
  855MOL0     C15296   2.852   0.787   6.569  0.5610 -0.4052  0.9519
  855MOL0     C15297   2.804   0.757   6.431 -0.2044 -0.4851 -0.1299
  855MOL0     O15298   2.675   0.751   6.402  0.0273  0.5174 -0.1650
  855MOL0     C15299   2.601   0.857   6.448  0.3612  0.0088 -0.3829
  855MOL0     C15300   2.458   0.854   6.404 -0.1941  0.4901  0.6192
  855MOL0     C15301   2.369   0.945   6.493  0.5185 -0.7835 -0.2712
  855MOL0     C15302   2.350   1.084   6.452  0.2306 -0.3397  0.5486
  855MOL0     C15303   2.288   1.166   6.576  0.4009  0.3093  1.0664
  855MOL0     C15304   2.292   1.315   6.538 -0.4399  0.4466  0.0872
  855MOL0     C15305   2.232   1.358   6.401 -0.4626 -0.2580  1.1909
  855MOL0     C15306   2.085   1.318   6.394 -0.7046 -0.0934  0.2082
  855MOL0     N15307   2.014   1.367   6.274 -0.3752  0.3387 -0.4186
  855MOL0     C15308   2.011   1.300   6.161  0.4517  0.3248 -0.3777
  855MOL0     C15309   1.938   1.371   6.075  0.0986 -0.9008  0.0958
  855MOL0     C15310   1.917   1.337   5.934  0.2720 -0.6140 -0.3651
  855MOL0     C15311   1.836   1.202   5.935  0.3349  0.2198 -1.0271
  855MOL0     C15312   1.701   1.198   6.021  0.6593  0.3205 -0.1909
  855MOL0     C15313   1.591   1.269   5.950 -0.0255 -0.3107  0.1793
  855MOL0     O15314   1.477   1.284   6.037 -0.4819 -0.2009  0.3403
  855MOL0     C15315   1.364   1.332   5.985  0.0242  0.0838  0.0491
  855MOL0     C15316   1.345   1.358   5.847  1.4775 -0.4408 -0.3439
  855MOL0     C15317   1.227   1.411   5.810 -0.0005  0.2556  0.4069
  855MOL0     C15318   1.209   1.416   5.658 -0.2910  0.8843 -0.2268
  855MOL0     C15319   1.124   1.442   5.906  0.6678  0.0239  0.9021
  855MOL0     C15320   0.994   1.500   5.879  0.2133 -1.5527  0.1979
  855MOL0     O15321   0.929   1.567   5.979 -0.6289  0.7045  0.6712
  855MOL0     C15322   0.813   1.626   5.945  0.9507 -1.0585 -0.3282
  855MOL0     C15323   0.691   1.568   5.959  0.0191  0.3761 -0.9305
  855MOL0     C15324   0.576   1.639   5.925  0.0153 -0.2133 -0.2305
  855MOL0     C15325   0.582   1.772   5.858 -0.5314 -0.2384  0.1151
  855MOL0     O15326   0.474   1.834   5.797 -0.6053  0.5160  0.3832
  855MOL0     C15327   0.345   1.771   5.820 -0.1629 -0.6046 -0.0402
  855MOL0     C15328   0.238   1.842   5.731  0.7581  0.2053 -0.3648
  855MOL0     C15329   0.186   1.968   5.797 -0.2589 -0.1388 -0.3623
  855MOL0     C15330   0.280   2.080   5.816  0.0044 -1.0059  0.4711
  855MOL0     C15331   0.365   2.117   5.680  0.4819  0.5431 -0.0937
  855MOL0     C15332   0.459   2.240   5.703  0.0445 -0.6134  0.4037
  855MOL0     C15333   0.563   2.221   5.806 -0.4175  0.3708 -0.4750
  855MOL0     C15334   0.662   2.339   5.781 -0.1199  0.2758 -0.1642
  855MOL0    Cl15335   0.575   2.495   5.800 -0.1546 -0.0914  0.3800
  855MOL0     C15336   0.703   1.833   5.845 -0.9091  0.3637 -0.5659
  855MOL0     C15337   0.815   1.759   5.882 -0.0860  0.0285 -0.7538
  855MOL0     O15338   0.949   1.497   5.763 -1.0131 -0.1455  0.0331
  855MOL0     C15339   1.144   1.414   6.044 -0.3489 -0.6140 -0.7384
  855MOL0     C15340   1.264   1.354   6.087  0.1220 -0.8301 -0.3476
  855MOL0     N15341   1.884   1.477   6.143 -0.5765 -0.2542 -0.2757
  855MOL0     N15342   1.931   1.471   6.267  0.2743 -0.2292  0.8827
  855MOL0     C15343   2.911   0.736   6.336 -0.1129  0.2449 -0.8408
  855MOL0     C15344   3.045   0.752   6.375  0.2433 -0.0399  1.3941
  855MOL0     C15345   3.434   0.788   6.631  0.3645 -0.1821 -0.0138
  855MOL0     C15346   3.500   0.806   6.501  0.2974 -0.8911 -0.1828
  855MOL0     C15347   3.641   0.797   6.489  0.2044 -0.4144  0.2011
  855MOL0     C15348   3.723   0.782   6.606  0.7037 -0.2347 -0.3594
  855MOL0     O15349   3.859   0.786   6.610  0.0931  0.0371  0.0782
  855MOL0     C15350   3.927   0.802   6.486  0.2693  0.0865 -0.3445
  855MOL0     C15351   4.069   0.774   6.495 -0.5074  0.5221  0.4942
  855MOL0     C15352   4.135   0.873   6.590 -0.0324 -0.2409  0.3355
  855MOL0     C15353   4.285   0.905   6.570  0.4031  0.2308 -0.2480
  855MOL0     C15354   4.313   1.003   6.455  1.1092 -0.1643  0.1186
  855MOL0     C15355   4.337   1.051   6.350 -0.8021 -0.5660  0.6504
  855MOL0     C15356   3.654   0.771   6.731 -0.2986  0.0400  0.1509
  855MOL0     C15357   3.512   0.784   6.744 -0.6441 -0.2240  0.4591
  855MOL0     H15358   3.020   0.824   6.696  1.7483 -1.6723 -0.4312
  855MOL0     H15359   2.782   0.789   6.652 -0.1613 -1.9677  0.4332
  855MOL0     H15360   2.591   0.849   6.557 -2.7279  1.0970 -0.4863
  855MOL0     H15361   2.647   0.954   6.425  0.3010  0.3538  0.8677
  855MOL0     H15362   2.446   0.875   6.298 -2.1956 -0.8403  0.5295
  855MOL0     H15363   2.433   0.748   6.412  1.4172  0.1290  1.3028
  855MOL0     H15364   2.269   0.903   6.481  0.9038 -1.6278 -0.6752
  855MOL0     H15365   2.402   0.946   6.597  1.5216  1.3267 -0.5667
  855MOL0     H15366   2.444   1.136   6.433  0.4507 -1.5464 -2.0420
  855MOL0     H15367   2.295   1.093   6.358  2.0617  3.2026 -0.3753
  855MOL0     H15368   2.185   1.141   6.603 -0.9314  1.6863 -2.1663
  855MOL0     H15369   2.342   1.146   6.669 -2.7708 -0.9532  2.8207
  855MOL0     H15370   2.239   1.376   6.611 -0.6272  1.8080 -1.1579
  855MOL0     H15371   2.396   1.346   6.525 -0.5675  0.2422 -1.6389
  855MOL0     H15372   2.248   1.467   6.401 -0.2656 -0.2705  0.1806
  855MOL0     H15373   2.286   1.314   6.316 -0.8680  0.3874  0.5826
  855MOL0     H15374   2.039   1.361   6.483  0.5959 -0.0252  0.8721
  855MOL0     H15375   2.079   1.209   6.387 -0.0856 -0.0398 -3.7168
  855MOL0     H15376   2.079   1.218   6.143  0.2095 -0.5876  2.3878
  855MOL0     H15377   1.860   1.415   5.882 -0.8700  1.1083  3.2135
  855MOL0     H15378   2.007   1.324   5.872 -0.9057 -1.2003 -2.0526
  855MOL0     H15379   1.906   1.132   5.981  0.4601  0.8225 -0.2732
  855MOL0     H15380   1.804   1.167   5.836 -0.9088 -3.6471  0.5470
  855MOL0     H15381   1.715   1.240   6.121 -3.3455  1.0800  0.2078
  855MOL0     H15382   1.655   1.100   6.029 -2.9073  1.7252 -1.6132
  855MOL0     H15383   1.563   1.226   5.853 -0.7900 -0.4079  0.4309
  855MOL0     H15384   1.633   1.364   5.916 -1.8591  0.2998 -0.5497
  855MOL0     H15385   1.411   1.324   5.768  1.7037 -1.3605  0.2147
  855MOL0     H15386   1.305   1.441   5.613  0.1444  1.6552  1.0798
  855MOL0     H15387   1.174   1.320   5.619  0.2757  1.5337 -2.4349
  855MOL0     H15388   1.143   1.496   5.625 -2.2449  0.2275  1.7789
  855MOL0     H15389   0.686   1.467   5.999 -0.6989  1.7941  3.1181
  855MOL0     H15390   0.481   1.586   5.924  0.6558 -1.4374  0.4746
  855MOL0     H15391   0.350   1.667   5.787 -0.5142 -1.4382  2.3750
  855MOL0     H15392   0.317   1.773   5.925  2.3581  1.7160  0.7011
  855MOL0     H15393   0.296   1.862   5.640  1.8582  0.2404  0.3246
  855MOL0     H15394   0.160   1.772   5.701  0.6122 -0.4176  1.3585
  855MOL0     H15395   0.137   1.943   5.892 -1.4407  1.7598 -0.4247
  855MOL0     H15396   0.110   2.011   5.731  1.4241  0.6956 -1.8311
  855MOL0     H15397   0.224   2.168   5.847  1.0951 -0.2511  0.3504
  855MOL0     H15398   0.345   2.047   5.898  0.6133 -2.3640 -0.5013
  855MOL0     H15399   0.293   2.140   5.601 -0.0454  0.8217  0.4637
  855MOL0     H15400   0.432   2.037   5.646 -1.5154 -0.2529 -2.4828
  855MOL0     H15401   0.515   2.275   5.615  1.6226 -0.8412  1.2686
  855MOL0     H15402   0.395   2.327   5.722 -1.3172 -1.5659  0.2691
  855MOL0     H15403   0.612   2.125   5.788 -0.6460  0.0906  0.3513
  855MOL0     H15404   0.516   2.222   5.905 -1.7688 -2.7437 -0.9770
  855MOL0     H15405   0.708   2.330   5.683  3.1363  4.7555  0.6257
  855MOL0     H15406   0.746   2.334   5.850  0.1846 -2.6444 -0.6378
  855MOL0     H15407   0.720   1.921   5.785  1.8982 -2.2037 -4.0420
  855MOL0     H15408   0.909   1.809   5.859 -0.5669  1.3748  0.1086
  855MOL0     H15409   1.068   1.429   6.120 -2.3824 -1.7909 -2.4196
  855MOL0     H15410   1.283   1.320   6.189  1.8021  2.8441  0.6985
  855MOL0     H15411   2.880   0.706   6.236 -2.2974  0.8592 -0.4024
  855MOL0     H15412   3.125   0.729   6.306 -0.7507  1.1906 -0.2332
  855MOL0     H15413   3.440   0.851   6.422  1.8115 -0.5047 -1.1627
  855MOL0     H15414   3.671   0.817   6.387 -0.6847 -1.8107 -0.3607
  855MOL0     H15415   3.897   0.725   6.414  3.1540 -1.0674 -0.4246
  855MOL0     H15416   3.897   0.900   6.448 -3.1304  0.4282  2.6901
  855MOL0     H15417   4.114   0.789   6.396  2.6271  2.8417  2.1015
  855MOL0     H15418   4.089   0.668   6.514 -0.3997  0.4935  0.2259
  855MOL0     H15419   4.123   0.837   6.693 -3.5201  1.4348  0.6417
  855MOL0     H15420   4.089   0.972   6.594 -1.0991 -0.6485 -1.1964
  855MOL0     H15421   4.342   0.813   6.555 -0.3926 -0.5365  1.2188
  855MOL0     H15422   4.323   0.947   6.663  2.7184 -1.6645 -0.2579
  855MOL0     H15423   4.386   1.088   6.263  2.1597 -1.7247  1.7029
  855MOL0     H15424   3.709   0.764   6.825 -2.7623  0.9165  1.7676
  855MOL0     H15425   3.480   0.785   6.848  0.0694  0.1409  0.6786
  856MOL0     O15426   2.695   7.893   6.201  0.3493 -0.4347  0.1615
  856MOL0     C15427   2.707   7.799   6.122 -0.2576  0.3456 -0.0233
  856MOL0     O15428   2.612   7.753   6.024 -0.5985  0.6135 -0.3893
  856MOL0     C15429   2.485   7.800   6.000  0.0656 -0.4316 -0.4313
  856MOL0     C15430   2.409   7.881   6.092 -0.1326 -0.3535  0.4456
  856MOL0     C15431   2.280   7.922   6.057 -0.7702 -0.1382 -0.9993
  856MOL0     C15432   2.219   7.871   5.952 -0.8288  0.2707 -0.4096
  856MOL0     O15433   2.092   7.922   5.929  0.1175 -0.6116  0.4093
  856MOL0     C15434   1.989   7.826   5.925 -0.6527 -0.4463 -0.7460
  856MOL0     C15435   1.863   7.908   5.972  0.1508 -0.0929 -0.5996
  856MOL0     C15436   1.757   7.811   6.019 -0.4785 -1.0660  0.2876
  856MOL0     C15437   1.710   7.725   5.903 -0.1108 -0.0364 -0.0638
  856MOL0     C15438   1.583   7.649   5.946  0.0891 -0.0105 -0.2662
  856MOL0     C15439   1.447   7.725   5.973  0.4345 -0.3354 -0.0997
  856MOL0     C15440   1.407   7.814   5.852 -0.1902 -0.1833  0.2455
  856MOL0     C15441   1.302   7.909   5.893 -0.3188 -0.3463 -0.0860
  856MOL0     N15442   1.180   7.840   5.893  0.2710  0.4721  0.8771
  856MOL0     C15443   1.134   7.786   6.012 -0.4222  0.5918  0.2721
  856MOL0     C15444   1.032   7.704   5.976 -0.7060  0.4302  0.1771
  856MOL0     C15445   0.938   7.631   6.069  0.3597  0.0419 -0.3185
  856MOL0     C15446   0.830   7.716   6.127  0.2699  0.8016  0.1387
  856MOL0     C15447   0.750   7.783   6.005  1.1203 -0.3855  0.3155
  856MOL0     C15448   0.598   7.795   6.038 -0.4237 -0.6010  0.5943
  856MOL0     O15449   0.534   7.708   5.944 -0.5780 -0.3512 -0.3073
  856MOL0     C15450   0.396   7.694   5.950 -0.6505 -0.4053  0.1078
  856MOL0     C15451   0.327   7.743   6.060  0.5461 -1.4218 -0.7843
  856MOL0     C15452   0.191   7.739   6.068 -0.6151 -0.1011 -0.3264
  856MOL0     C15453   0.136   7.769   6.202 -0.0436 -0.0032 -0.8971
  856MOL0     C15454   0.119   7.680   5.960 -0.7764 -0.9993  0.2250
  856MOL0     C15455  -0.033   7.664   5.965 -0.2292  0.3641  0.6825
  856MOL0     O15456  -0.112   7.678   6.081  0.4594 -0.8860  0.5209
  856MOL0     C15457  -0.242   7.634   6.088 -0.4995 -0.1123 -0.6468
  856MOL0     C15458  -0.341   7.641   5.988 -0.1076 -1.0448 -0.6610
  856MOL0     C15459  -0.472   7.593   6.015 -0.1603 -0.1342  0.0318
  856MOL0     C15460  -0.516   7.549   6.144 -0.5453  0.7210  0.1038
  856MOL0     O15461  -0.641   7.497   6.172 -0.3732  0.0368  0.7419
  856MOL0     C15462  -0.749   7.575   6.119  0.6000  0.3719  0.6332
  856MOL0     C15463  -0.878   7.509   6.154  0.0621  0.2817  0.1346
  856MOL0     C15464  -0.897   7.499   6.301  0.5223  0.0627 -0.7495
  856MOL0     C15465  -1.045   7.456   6.336 -0.6913 -0.2249 -0.3626
  856MOL0     C15466  -1.157   7.540   6.281  0.0121  0.4229 -0.3408
  856MOL0     C15467  -1.173   7.679   6.340 -0.1751  0.4874 -0.3442
  856MOL0     C15468  -1.256   7.663   6.469 -0.0352 -0.1016  0.0297
  856MOL0     C15469  -1.322   7.786   6.509  1.1101  0.0754  0.0481
  856MOL0    Cl15470  -1.468   7.795   6.401  0.3030  0.0308  0.0692
  856MOL0     C15471  -0.414   7.542   6.241 -0.0462 -0.1752  0.5544
  856MOL0     C15472  -0.278   7.582   6.214 -0.0679 -0.6557 -0.1066
  856MOL0     O15473  -0.077   7.631   5.852  0.9107  0.2244 -0.0453
  856MOL0     C15474   0.196   7.628   5.852 -0.7522 -0.6789  1.2719
  856MOL0     C15475   0.332   7.639   5.843  0.3219 -0.0748 -0.1128
  856MOL0     N15476   1.021   7.708   5.842 -0.3430 -0.1590  0.2714
  856MOL0     N15477   1.102   7.799   5.788 -0.8481  1.1464 -0.2607
  856MOL0     C15478   2.288   7.783   5.864 -1.0347 -0.9874 -0.0571
  856MOL0     C15479   2.417   7.744   5.890  0.2885  0.2740 -0.1059
  856MOL0     C15480   2.842   7.726   6.129 -1.1698  0.2883  0.1704
  856MOL0     C15481   2.872   7.610   6.054 -0.9785  0.1785 -0.0220
  856MOL0     C15482   3.001   7.543   6.065  0.1595 -0.4055 -1.2086
  856MOL0     C15483   3.096   7.593   6.157  0.3306 -0.2995 -0.3939
  856MOL0     O15484   3.213   7.535   6.169  0.2561 -0.0191  0.8350
  856MOL0     C15485   3.302   7.560   6.278 -0.0272 -0.4875 -0.0525
  856MOL0     C15486   3.259   7.501   6.411  0.5399 -0.0431  0.0988
  856MOL0     C15487   3.130   7.571   6.485 -0.5573 -0.0739  0.4741
  856MOL0     C15488   3.109   7.514   6.623  0.4174  0.4114  0.4190
  856MOL0     C15489   3.060   7.375   6.617  0.0794  0.9741 -0.2380
  856MOL0     C15490   3.017   7.266   6.643  0.2341 -0.2211  0.1945
  856MOL0     C15491   3.068   7.720   6.220  0.2087  0.6150  0.0423
  856MOL0     C15492   2.943   7.775   6.209  0.9475  0.6312 -0.2669
  856MOL0     H15493   2.453   7.932   6.177  0.1095  1.1730 -0.5347
  856MOL0     H15494   2.218   7.988   6.117 -2.2182 -1.5348 -0.8981
  856MOL0     H15495   1.980   7.789   5.822  1.2501 -0.6573 -0.8668
  856MOL0     H15496   2.007   7.756   6.007 -1.7024  0.2112  0.0641
  856MOL0     H15497   1.879   7.966   6.063  1.6706 -0.5507 -0.5517
  856MOL0     H15498   1.810   7.967   5.896  0.9856  0.4869 -0.7383
  856MOL0     H15499   1.789   7.751   6.105 -1.7484 -1.8475  0.2331
  856MOL0     H15500   1.668   7.867   6.049 -0.0084 -1.3395  2.3381
  856MOL0     H15501   1.683   7.778   5.812  0.1014 -0.9284 -0.6605
  856MOL0     H15502   1.790   7.656   5.875 -1.0011 -1.3868  0.5934
  856MOL0     H15503   1.575   7.569   5.873 -0.3787 -1.6579  1.5114
  856MOL0     H15504   1.597   7.591   6.038 -3.1740  1.4286  1.3086
  856MOL0     H15505   1.377   7.643   5.987 -0.3161  0.5038  1.3338
  856MOL0     H15506   1.450   7.790   6.062 -0.1382 -1.1773  0.5461
  856MOL0     H15507   1.487   7.878   5.815 -1.7541  3.9478  3.2361
  856MOL0     H15508   1.384   7.744   5.770  0.7428  0.8459 -0.9283
  856MOL0     H15509   1.294   7.988   5.818  1.1916 -0.7263 -0.6819
  856MOL0     H15510   1.336   7.953   5.987  3.9261 -1.4148 -0.8949
  856MOL0     H15511   1.168   7.794   6.114 -0.0073  2.7740  0.0143
  856MOL0     H15512   0.892   7.546   6.017 -2.0996  0.5712  0.8520
  856MOL0     H15513   1.005   7.605   6.151  1.9162  2.4757 -0.7253
  856MOL0     H15514   0.879   7.789   6.191  2.8257  0.2900 -1.1052
  856MOL0     H15515   0.756   7.656   6.180  0.6645 -0.9908 -1.2213
  856MOL0     H15516   0.755   7.724   5.913  1.6181  0.1477 -0.0057
  856MOL0     H15517   0.797   7.879   5.981 -2.2450  1.3205  0.0132
  856MOL0     H15518   0.562   7.897   6.020  1.8718  0.0438 -0.7209
  856MOL0     H15519   0.575   7.763   6.141 -2.2390 -1.5314 -0.0497
  856MOL0     H15520   0.368   7.785   6.151  1.1614 -0.7954 -1.3442
  856MOL0     H15521   0.121   7.672   6.251 -3.2513  0.6661 -0.3317
  856MOL0     H15522   0.194   7.834   6.268 -0.4081  1.2175 -1.7521
  856MOL0     H15523   0.037   7.814   6.192  0.2798  0.5102 -1.9626
  856MOL0     H15524  -0.316   7.689   5.894  2.7976  3.0041  1.8237
  856MOL0     H15525  -0.535   7.621   5.931  0.0082  3.1131  0.8563
  856MOL0     H15526  -0.742   7.678   6.155  1.5451  2.0038 -3.5827
  856MOL0     H15527  -0.737   7.582   6.010  0.3100 -2.4294  0.3616
  856MOL0     H15528  -0.959   7.570   6.114  2.2189  3.0152 -0.3822
  856MOL0     H15529  -0.886   7.401   6.136 -2.3851  0.2432  1.0469
  856MOL0     H15530  -0.878   7.594   6.352 -3.7974  0.9522 -0.4024
  856MOL0     H15531  -0.816   7.431   6.329  0.2324 -0.9969 -2.4188
  856MOL0     H15532  -1.061   7.353   6.303 -1.0550 -0.7518  1.3805
  856MOL0     H15533  -1.046   7.440   6.444  1.4574 -0.3988 -0.3272
  856MOL0     H15534  -1.245   7.477   6.300  0.9225 -0.4334  1.2033
  856MOL0     H15535  -1.143   7.554   6.173 -0.7255  1.1140 -0.3558
  856MOL0     H15536  -1.073   7.719   6.357 -0.5773  0.7890  1.5009
  856MOL0     H15537  -1.224   7.754   6.278  2.0092  2.0743 -0.3473
  856MOL0     H15538  -1.182   7.634   6.544 -0.0606  0.4943  0.2911
  856MOL0     H15539  -1.336   7.589   6.459  0.4722 -0.4108 -2.1448
  856MOL0     H15540  -1.253   7.871   6.512  0.9475  0.1847  1.0174
  856MOL0     H15541  -1.360   7.780   6.611 -1.5011  0.3061 -0.8414
  856MOL0     H15542  -0.433   7.495   6.337  1.1885 -0.0235  0.8913
  856MOL0     H15543  -0.214   7.572   6.301  1.2827  0.9295 -0.8402
  856MOL0     H15544   0.153   7.575   5.767  0.1805 -0.1195  0.4235
  856MOL0     H15545   0.384   7.608   5.752  1.4872  3.6403 -0.9127
  856MOL0     H15546   2.240   7.762   5.770  0.4650  2.1921 -1.6927
  856MOL0     H15547   2.466   7.675   5.823 -1.9489 -2.2258  0.6609
  856MOL0     H15548   2.807   7.564   5.981 -0.1297 -0.8448 -0.1638
  856MOL0     H15549   3.026   7.452   6.011  0.5278 -1.6992  1.0304
  856MOL0     H15550   3.401   7.516   6.263  0.4687  0.3060  0.7921
  856MOL0     H15551   3.327   7.666   6.291  0.9234 -0.4579 -1.8411
  856MOL0     H15552   3.336   7.536   6.481 -1.9543  1.8345  2.1264
  856MOL0     H15553   3.240   7.394   6.413 -2.3519  0.4012  0.3311
  856MOL0     H15554   3.043   7.555   6.422 -0.1722 -0.7978  0.1137
  856MOL0     H15555   3.156   7.677   6.492  0.0060 -0.2513  1.2721
  856MOL0     H15556   3.038   7.584   6.668 -0.1632  0.6375 -0.8075
  856MOL0     H15557   3.200   7.502   6.684 -0.1833 -0.0032  1.2610
  856MOL0     H15558   2.971   7.171   6.661  0.4340 -0.7907 -1.9318
  856MOL0     H15559   3.133   7.775   6.288 -2.4665  2.9228  0.9286
  856MOL0     H15560   2.940   7.864   6.272 -0.8741  0.9268 -0.6938
  857MOL0     O15561  10.285   1.979   3.583  0.0410 -0.3272  0.2902
  857MOL0     C15562  10.349   1.938   3.488  0.6256  0.0711 -0.1413
  857MOL0     O15563  10.292   1.906   3.372 -0.1407 -0.5350 -0.6222
  857MOL0     C15564  10.157   1.938   3.356 -0.8724  0.6711  0.3215
  857MOL0     C15565  10.134   2.026   3.247 -0.2692 -1.1361  0.8008
  857MOL0     C15566   9.999   2.045   3.207 -0.3786 -0.2126 -0.2702
  857MOL0     C15567   9.893   1.999   3.291 -0.3200  0.3106  0.0444
  857MOL0     O15568   9.772   2.032   3.245 -0.2484  0.1533 -0.4731
  857MOL0     C15569   9.663   2.028   3.341 -0.3304 -0.5778  0.6726
  857MOL0     C15570   9.572   2.146   3.305  0.1143  0.0659 -0.4297
  857MOL0     C15571   9.435   2.130   3.371 -0.8104  0.5057  0.4387
  857MOL0     C15572   9.347   2.244   3.338  0.2320  0.2307 -0.4376
  857MOL0     C15573   9.192   2.243   3.371 -0.1314  0.3134  0.6400
  857MOL0     C15574   9.094   2.343   3.306  0.7182 -0.0489 -0.4521
  857MOL0     C15575   8.950   2.317   3.355  0.1901 -0.0181 -1.5351
  857MOL0     C15576   8.941   2.369   3.499  0.1909 -0.6107  0.5153
  857MOL0     N15577   8.806   2.410   3.535  0.4233 -0.6220 -0.0271
  857MOL0     C15578   8.687   2.340   3.524 -0.0129  0.5140 -1.0698
  857MOL0     C15579   8.592   2.417   3.575 -0.5432 -0.0015  0.1067
  857MOL0     C15580   8.450   2.400   3.600 -0.2368  0.3892 -0.0740
  857MOL0     C15581   8.367   2.512   3.552  0.4024  0.6183  0.2028
  857MOL0     C15582   8.217   2.487   3.585 -0.9074 -1.0350  0.6467
  857MOL0     C15583   8.175   2.448   3.721  0.4909  0.0620 -1.0612
  857MOL0     O15584   8.030   2.468   3.739  0.5207  0.2517  0.0225
  857MOL0     C15585   7.967   2.475   3.864  0.5366 -0.5552 -0.3840
  857MOL0     C15586   8.029   2.446   3.984 -0.4539 -0.4097 -0.5620
  857MOL0     C15587   7.967   2.453   4.108 -0.3241  0.2671 -0.4480
  857MOL0     C15588   8.061   2.438   4.228  0.5772 -0.1060  0.8442
  857MOL0     C15589   7.830   2.488   4.104  0.0331 -0.2935 -0.1174
  857MOL0     C15590   7.765   2.506   4.233  0.3573  0.3592 -0.0762
  857MOL0     O15591   7.668   2.599   4.242  0.3002 -0.6269 -0.0641
  857MOL0     C15592   7.603   2.632   4.355  0.4723 -0.0892 -0.0498
  857MOL0     C15593   7.590   2.555   4.473  0.1898 -0.0793 -0.1188
  857MOL0     C15594   7.530   2.601   4.585 -0.1812  0.0179 -0.9153
  857MOL0     C15595   7.454   2.721   4.584  0.1702 -0.3740 -0.1109
  857MOL0     O15596   7.388   2.757   4.703 -0.4945 -0.2440 -0.2377
  857MOL0     C15597   7.248   2.790   4.690  0.4973  0.4258 -1.0744
  857MOL0     C15598   7.217   2.880   4.810 -0.7156 -0.8884  0.0203
  857MOL0     C15599   7.232   2.811   4.943 -0.0793  0.0586 -0.2086
  857MOL0     C15600   7.168   2.884   5.063  0.8656  0.8806 -0.2309
  857MOL0     C15601   7.166   2.801   5.195  0.2901 -0.0787  0.1609
  857MOL0     C15602   7.130   2.889   5.317 -0.0769  0.2218  0.2904
  857MOL0     C15603   7.187   2.821   5.442  0.2170  0.0375  1.0685
  857MOL0     C15604   7.134   2.679   5.480  0.8627 -0.3842 -0.1514
  857MOL0    Cl15605   6.961   2.647   5.475 -0.2528  0.5414  0.6989
  857MOL0     C15606   7.452   2.797   4.466 -0.3127  0.1166  0.5682
  857MOL0     C15607   7.528   2.751   4.353  0.6388  0.3743 -0.3980
  857MOL0     O15608   7.796   2.428   4.317  0.5414 -0.3685  0.5506
  857MOL0     C15609   7.771   2.511   3.982  0.5593  0.3057 -0.1278
  857MOL0     C15610   7.832   2.504   3.860  0.2142 -0.2550 -0.4173
  857MOL0     N15611   8.650   2.537   3.607 -0.2664  0.4650 -0.2089
  857MOL0     N15612   8.778   2.537   3.579  0.3594  0.1509 -0.5916
  857MOL0     C15613   9.917   1.902   3.393 -0.5266 -1.2313  0.0841
  857MOL0     C15614  10.054   1.875   3.425  0.0180  0.2365  0.3276
  857MOL0     C15615  10.495   1.922   3.491  0.2123 -0.3291 -0.1175
  857MOL0     C15616  10.565   1.922   3.608  0.0242  0.9239 -0.5412
  857MOL0     C15617  10.703   1.936   3.599 -0.0597  0.3003  0.4660
  857MOL0     C15618  10.780   1.930   3.487  0.9826 -0.1630  0.6640
  857MOL0     O15619  10.917   1.957   3.498 -0.3317 -0.5041 -0.0559
  857MOL0     C15620  10.996   2.007   3.389  0.0965 -0.4039  0.1389
  857MOL0     C15621  11.112   2.093   3.440  1.0189  0.4522  0.1553
  857MOL0     C15622  11.183   2.159   3.320  0.1081 -0.4738 -0.2615
  857MOL0     C15623  11.315   2.245   3.357  0.9583  0.5744 -0.0496
  857MOL0     C15624  11.426   2.142   3.353  0.1210  0.0813 -0.6196
  857MOL0     C15625  11.503   2.047   3.349 -0.1429 -0.3098 -1.4453
  857MOL0     C15626  10.707   1.901   3.373  0.2667  0.9494 -0.5575
  857MOL0     C15627  10.563   1.913   3.371  0.4272  0.4863  0.1470
  857MOL0     H15628  10.199   2.078   3.177 -1.3032 -1.5416 -0.5208
  857MOL0     H15629   9.980   2.103   3.117 -0.3511 -2.0822 -1.5405
  857MOL0     H15630   9.615   1.932   3.322  1.4500 -1.3383 -0.2584
  857MOL0     H15631   9.695   2.034   3.445  1.2139 -0.5048  0.2139
  857MOL0     H15632   9.628   2.237   3.330  1.1869 -0.4392 -0.9584
  857MOL0     H15633   9.552   2.158   3.198 -1.8560  1.4473  0.0277
  857MOL0     H15634   9.399   2.026   3.369 -1.3694  0.7118 -0.9699
  857MOL0     H15635   9.458   2.147   3.477 -1.2423 -1.0042  0.7975
  857MOL0     H15636   9.388   2.331   3.390 -1.5858  0.9983 -0.1839
  857MOL0     H15637   9.352   2.271   3.232  0.1948 -1.0138 -0.7708
  857MOL0     H15638   9.158   2.145   3.335 -0.0448 -0.5431  2.7289
  857MOL0     H15639   9.181   2.244   3.480 -0.0355 -1.3393  0.6917
  857MOL0     H15640   9.137   2.438   3.339  1.4514  0.0105 -1.4963
  857MOL0     H15641   9.088   2.338   3.197 -2.0701  0.7419 -0.4036
  857MOL0     H15642   8.879   2.377   3.296 -1.2977 -2.3848 -2.2899
  857MOL0     H15643   8.924   2.211   3.351  2.0445 -0.6337  0.4994
  857MOL0     H15644   9.003   2.456   3.526  1.4083 -1.3548  0.1955
  857MOL0     H15645   8.980   2.299   3.574  3.8029  1.9865  1.3649
  857MOL0     H15646   8.680   2.241   3.481 -2.0634  0.7047 -1.2879
  857MOL0     H15647   8.417   2.309   3.549 -1.5268  0.8739 -0.1382
  857MOL0     H15648   8.442   2.398   3.709 -0.7211 -0.2569 -0.1163
  857MOL0     H15649   8.375   2.521   3.443 -0.0102 -0.4007  0.0731
  857MOL0     H15650   8.400   2.607   3.593 -1.3435  1.8990 -1.2294
  857MOL0     H15651   8.176   2.408   3.521 -0.6653 -0.3359 -0.3847
  857MOL0     H15652   8.162   2.578   3.561 -1.1470 -1.0883  0.9776
  857MOL0     H15653   8.241   2.513   3.780  1.0677  0.1205 -1.7468
  857MOL0     H15654   8.203   2.344   3.737  2.9513  1.0387  1.7867
  857MOL0     H15655   8.135   2.426   3.991 -0.5653 -0.4032  2.0832
  857MOL0     H15656   8.017   2.500   4.307 -1.4968  0.8397 -0.9262
  857MOL0     H15657   8.068   2.333   4.258  1.4673 -0.4756 -0.5892
  857MOL0     H15658   8.159   2.473   4.197 -0.4312  0.7724 -1.6362
  857MOL0     H15659   7.634   2.456   4.475 -2.9648 -1.6652 -2.0087
  857MOL0     H15660   7.531   2.546   4.679  0.7485  1.9148  0.2503
  857MOL0     H15661   7.239   2.839   4.593  0.5683 -0.6392 -1.6289
  857MOL0     H15662   7.192   2.697   4.702  0.4366  0.6956  1.1608
  857MOL0     H15663   7.295   2.956   4.803 -0.6948 -0.9570 -0.5331
  857MOL0     H15664   7.117   2.923   4.798 -0.3522 -0.2655 -0.8327
  857MOL0     H15665   7.341   2.814   4.956 -0.2117  0.7021  0.9019
  857MOL0     H15666   7.193   2.709   4.932  0.9521 -0.8989  3.4974
  857MOL0     H15667   7.224   2.976   5.079  1.5095  0.6209 -0.9233
  857MOL0     H15668   7.060   2.894   5.047  0.3608 -0.5387  1.8159
  857MOL0     H15669   7.263   2.753   5.212  0.1095 -0.7178 -0.5345
  857MOL0     H15670   7.098   2.716   5.185  0.7769 -0.2581 -2.0962
  857MOL0     H15671   7.187   2.982   5.323  0.0725  0.1414  0.1498
  857MOL0     H15672   7.026   2.920   5.324 -0.1493 -0.2845  2.1036
  857MOL0     H15673   7.166   2.884   5.528  1.6311  2.3473 -0.1839
  857MOL0     H15674   7.295   2.808   5.430  0.1710  1.3817 -1.5579
  857MOL0     H15675   7.177   2.667   5.580 -0.9858 -0.3039  0.6917
  857MOL0     H15676   7.187   2.603   5.422 -0.9618 -1.2294 -0.7809
  857MOL0     H15677   7.397   2.890   4.461 -1.0614 -0.3588 -0.6150
  857MOL0     H15678   7.518   2.826   4.275 -0.5190  3.5571  2.5118
  857MOL0     H15679   7.664   2.522   3.970  0.1712 -1.4977  1.2496
  857MOL0     H15680   7.788   2.522   3.762  0.7228  2.4311 -0.2352
  857MOL0     H15681   9.835   1.857   3.448  0.2439 -0.6575  1.7809
  857MOL0     H15682  10.073   1.808   3.508 -1.7488 -1.6960 -0.7314
  857MOL0     H15683  10.523   1.918   3.708 -1.7091 -0.9700 -1.2901
  857MOL0     H15684  10.744   1.948   3.699 -1.1975 -1.2347  1.1578
  857MOL0     H15685  11.048   1.927   3.337  0.2698 -0.0717 -0.2034
  857MOL0     H15686  10.937   2.071   3.323  2.2617 -0.2797 -1.8264
  857MOL0     H15687  11.179   2.024   3.492  0.9558 -0.1545 -0.5636
  857MOL0     H15688  11.070   2.173   3.503  0.0313  1.2648 -1.4609
  857MOL0     H15689  11.111   2.234   3.286 -0.8325 -2.0804 -2.0597
  857MOL0     H15690  11.218   2.103   3.232  2.0447  1.4619 -0.8277
  857MOL0     H15691  11.299   2.296   3.452  0.3943 -0.7740  0.5958
  857MOL0     H15692  11.330   2.330   3.290 -2.2431  0.6164 -0.8613
  857MOL0     H15693  11.559   1.956   3.337 -1.3948 -1.7295  2.1882
  857MOL0     H15694  10.755   1.870   3.281  0.3309 -0.9671  0.0894
  857MOL0     H15695  10.501   1.903   3.283 -1.1073 -1.4958  1.3564
  858MOL0     O15696   0.239   3.176   2.251  0.3104  0.6032  0.9897
  858MOL0     C15697   0.339   3.108   2.219  0.8017  0.8888 -0.1867
  858MOL0     O15698   0.346   2.976   2.246  0.3477 -0.0827 -0.0192
  858MOL0     C15699   0.240   2.897   2.273  0.4014  0.4092 -0.7903
  858MOL0     C15700   0.273   2.781   2.342  0.6793  0.2800 -0.7940
  858MOL0     C15701   0.173   2.687   2.374 -0.3997  0.4510  0.0838
  858MOL0     C15702   0.040   2.706   2.347  0.8433 -0.4548 -0.3479
  858MOL0     O15703  -0.042   2.614   2.404  0.1969 -0.1043  0.4527
  858MOL0     C15704  -0.185   2.600   2.375 -0.5276 -0.4230  0.4670
  858MOL0     C15705  -0.243   2.483   2.435  0.0396 -0.1712 -0.1467
  858MOL0     C15706  -0.267   2.469   2.588  0.1537  0.0410 -0.6046
  858MOL0     C15707  -0.149   2.523   2.661  0.7142  0.1666  0.8751
  858MOL0     C15708  -0.159   2.489   2.810 -0.1298 -0.4682 -0.2634
  858MOL0     C15709  -0.054   2.539   2.897 -0.7766 -0.0503  0.5336
  858MOL0     C15710  -0.091   2.681   2.950  0.2671  0.0240  0.6340
  858MOL0     C15711   0.024   2.734   3.036 -0.2351 -0.0509 -0.0117
  858MOL0     N15712   0.151   2.754   2.955 -0.1591  0.6965 -0.5292
  858MOL0     C15713   0.173   2.822   2.837 -0.3638 -0.2497 -0.2288
  858MOL0     C15714   0.287   2.776   2.791 -0.3799 -0.1994 -0.2404
  858MOL0     C15715   0.373   2.820   2.675 -0.5042  0.0768  0.0326
  858MOL0     C15716   0.479   2.934   2.695  0.9252 -1.0363 -0.6058
  858MOL0     C15717   0.419   3.065   2.751  0.3702 -1.0720 -0.4660
  858MOL0     C15718   0.385   3.169   2.646  0.2595  1.1834  0.1721
  858MOL0     O15719   0.292   3.259   2.705  1.4942 -0.1571  0.9922
  858MOL0     C15720   0.156   3.222   2.712 -1.1142 -1.0892  0.4204
  858MOL0     C15721   0.083   3.228   2.824  0.3477 -0.9360  0.4187
  858MOL0     C15722  -0.039   3.158   2.841 -0.8839 -0.1265  0.4147
  858MOL0     C15723  -0.106   3.180   2.974  0.3429  0.2659 -0.6533
  858MOL0     C15724  -0.093   3.080   2.735 -0.1669  0.5043 -0.0224
  858MOL0     C15725  -0.209   2.994   2.753 -0.2232 -1.0550  1.1625
  858MOL0     O15726  -0.282   3.001   2.862 -0.6444  0.2910  0.4070
  858MOL0     C15727  -0.394   2.932   2.879 -0.0330 -0.7685  0.5126
  858MOL0     C15728  -0.418   2.807   2.816 -0.0277 -0.5001 -0.2360
  858MOL0     C15729  -0.534   2.737   2.843  0.8674 -0.2047 -0.2258
  858MOL0     C15730  -0.636   2.781   2.930 -0.6561  1.1957  0.2579
  858MOL0     O15731  -0.745   2.695   2.954  0.1726  0.2477  0.2207
  858MOL0     C15732  -0.843   2.737   3.042  0.5951  1.0733 -0.2560
  858MOL0     C15733  -0.942   2.839   2.977  0.0436  0.9319  1.2527
  858MOL0     C15734  -1.005   2.922   3.083  0.4264  0.4212  0.0265
  858MOL0     C15735  -1.090   2.842   3.193  0.9701 -0.6050  0.4175
  858MOL0     C15736  -1.238   2.822   3.144 -1.2542  0.5698 -0.5799
  858MOL0     C15737  -1.314   2.758   3.257 -0.3246  0.1907 -0.6698
  858MOL0     C15738  -1.452   2.745   3.195 -0.4590 -0.3531  0.4105
  858MOL0     C15739  -1.553   2.721   3.306 -0.9098  0.0516  0.0033
  858MOL0    Cl15740  -1.575   2.844   3.426 -0.0363  0.3245 -0.1538
  858MOL0     C15741  -0.621   2.911   2.982 -0.1335  0.7546 -0.0419
  858MOL0     C15742  -0.499   2.989   2.961 -0.1106 -0.6051  0.4067
  858MOL0     O15743  -0.232   2.922   2.659  0.2274 -0.1432  0.7413
  858MOL0     C15744  -0.023   3.087   2.616 -0.4795  0.4491  0.2704
  858MOL0     C15745   0.097   3.155   2.604  0.0062  0.1885  0.3689
  858MOL0     N15746   0.342   2.686   2.881 -0.2146  0.4088 -0.0071
  858MOL0     N15747   0.266   2.687   2.992  0.2854 -0.1771  0.2683
  858MOL0     C15748   0.006   2.827   2.284 -0.3550  0.0044  1.5519
  858MOL0     C15749   0.103   2.913   2.242 -0.4688 -0.2817  0.9481
  858MOL0     C15750   0.468   3.169   2.179 -0.2895 -0.4393 -0.0724
  858MOL0     C15751   0.479   3.302   2.126 -0.2168 -0.5539  0.0351
  858MOL0     C15752   0.614   3.353   2.095  1.0750  0.1432  0.0665
  858MOL0     C15753   0.722   3.272   2.109 -0.7353  0.4445 -0.4377
  858MOL0     O15754   0.853   3.288   2.067 -0.3484 -0.2905 -0.4906
  858MOL0     C15755   0.918   3.408   2.028  0.9282  0.4139 -0.5530
  858MOL0     C15756   0.944   3.404   1.878  0.3078  0.2559 -0.5093
  858MOL0     C15757   1.031   3.290   1.824 -0.1161 -0.7398  0.1266
  858MOL0     C15758   1.175   3.324   1.854  0.4924  0.0905 -0.4416
  858MOL0     C15759   1.266   3.208   1.827 -0.2355 -0.9144 -0.3812
  858MOL0     C15760   1.348   3.118   1.803 -0.0593  0.2388 -0.1991
  858MOL0     C15761   0.707   3.142   2.157 -0.3499  0.6489 -0.1957
  858MOL0     C15762   0.586   3.090   2.204 -0.4733  0.8189  0.0676
  858MOL0     H15763   0.377   2.754   2.356  0.3629 -0.0071  1.3950
  858MOL0     H15764   0.209   2.597   2.422 -0.5909  1.7918  2.9402
  858MOL0     H15765  -0.227   2.696   2.405  0.2547  0.1625 -0.2817
  858MOL0     H15766  -0.188   2.608   2.266  1.6391  2.2734  0.4937
  858MOL0     H15767  -0.337   2.462   2.382  0.3644 -2.0713 -0.0360
  858MOL0     H15768  -0.168   2.410   2.404  2.5319  2.1236  0.1236
  858MOL0     H15769  -0.353   2.526   2.626  2.7251  2.3152  2.3410
  858MOL0     H15770  -0.289   2.366   2.614 -1.8729  0.2601 -1.2520
  858MOL0     H15771  -0.052   2.484   2.627  0.5930  2.2055 -2.1297
  858MOL0     H15772  -0.141   2.629   2.635  0.3263 -0.5151 -2.4989
  858MOL0     H15773  -0.258   2.523   2.842 -0.3204  0.8020 -2.0666
  858MOL0     H15774  -0.167   2.379   2.813 -0.0320 -0.6223 -2.9564
  858MOL0     H15775  -0.065   2.471   2.983 -2.1751 -3.5643 -2.1841
  858MOL0     H15776   0.033   2.536   2.831 -2.9605 -0.1218 -2.5031
  858MOL0     H15777  -0.118   2.744   2.865  0.2833 -2.6139 -1.4632
  858MOL0     H15778  -0.176   2.665   3.017  0.0171  0.6190  0.4636
  858MOL0     H15779   0.034   2.670   3.124 -2.2457  1.8716  1.7091
  858MOL0     H15780  -0.002   2.834   3.070  1.1655  0.1126  0.6428
  858MOL0     H15781   0.107   2.880   2.774  0.1380 -0.3129 -0.8261
  858MOL0     H15782   0.428   2.736   2.632  0.8576  0.5628  0.7872
  858MOL0     H15783   0.306   2.863   2.600 -0.1891  0.8442  0.1880
  858MOL0     H15784   0.538   2.949   2.604  0.3934  3.6511 -0.4349
  858MOL0     H15785   0.541   2.885   2.770  0.0108  0.0513  0.9296
  858MOL0     H15786   0.497   3.113   2.810 -2.1305  0.7373  1.5670
  858MOL0     H15787   0.343   3.047   2.827  1.0997 -0.6127  0.3982
  858MOL0     H15788   0.354   3.120   2.553 -1.0572 -0.9078  1.6272
  858MOL0     H15789   0.478   3.222   2.625 -0.0733  2.5683  1.9862
  858MOL0     H15790   0.126   3.271   2.914  0.5290 -1.3280  0.5239
  858MOL0     H15791  -0.121   3.085   3.025  0.5225  0.2781 -0.5753
  858MOL0     H15792  -0.053   3.256   3.032 -1.3761  1.2948 -0.3930
  858MOL0     H15793  -0.202   3.224   2.947  0.5411  1.0755 -0.0619
  858MOL0     H15794  -0.343   2.753   2.758 -1.8635 -1.5161 -1.7481
  858MOL0     H15795  -0.540   2.636   2.803 -0.6447 -0.7791  1.3341
  858MOL0     H15796  -0.889   2.639   3.059  3.0978 -0.3377 -1.1033
  858MOL0     H15797  -0.794   2.767   3.135 -0.1697 -0.2137  0.5885
  858MOL0     H15798  -0.888   2.902   2.906  0.5051  0.5289  1.2361
  858MOL0     H15799  -1.023   2.783   2.930 -0.7699  1.3715  2.1136
  858MOL0     H15800  -1.061   3.000   3.032  2.9341  0.0577 -3.6977
  858MOL0     H15801  -0.923   2.974   3.133  0.8513  1.2572 -1.4879
  858MOL0     H15802  -1.054   2.743   3.219 -0.2840 -0.6546  2.1287
  858MOL0     H15803  -1.084   2.910   3.279  0.3952 -1.0488  0.8164
  858MOL0     H15804  -1.244   2.758   3.056 -3.9163 -0.2216  0.0823
  858MOL0     H15805  -1.277   2.922   3.123 -0.3955  0.5566 -2.4643
  858MOL0     H15806  -1.281   2.654   3.268 -0.1898  0.0940 -1.8518
  858MOL0     H15807  -1.310   2.816   3.350 -2.4020 -2.7414  1.4261
  858MOL0     H15808  -1.446   2.663   3.124 -0.2664  0.2462 -0.2752
  858MOL0     H15809  -1.481   2.833   3.137 -0.4274  1.7702  3.3516
  858MOL0     H15810  -1.529   2.626   3.353 -1.5136 -1.0477 -1.7850
  858MOL0     H15811  -1.638   2.702   3.239  1.9800  0.2024 -4.1052
  858MOL0     H15812  -0.702   2.952   3.040 -2.1656 -4.5111  1.4543
  858MOL0     H15813  -0.483   3.080   3.017  0.0557  0.1219 -0.7941
  858MOL0     H15814  -0.042   3.019   2.533  5.0382  0.0720 -1.0444
  858MOL0     H15815   0.153   3.151   2.512  0.1477  2.9621  0.2603
  858MOL0     H15816  -0.101   2.843   2.273 -0.7397 -2.6937  0.5573
  858MOL0     H15817   0.070   3.000   2.186  2.2476  1.0618  1.2662
  858MOL0     H15818   0.389   3.361   2.109 -0.8781 -1.0940  1.4530
  858MOL0     H15819   0.630   3.452   2.054  1.5626 -0.9367 -2.4923
  858MOL0     H15820   0.849   3.489   2.052  0.8585  0.2585 -0.2289
  858MOL0     H15821   1.015   3.429   2.074 -0.3299 -0.3170  2.7216
  858MOL0     H15822   0.983   3.502   1.847 -3.0161  1.8260 -0.1235
  858MOL0     H15823   0.846   3.400   1.830 -0.1078 -0.9949  0.4111
  858MOL0     H15824   1.007   3.278   1.718  0.1916 -2.6969  0.2409
  858MOL0     H15825   0.996   3.209   1.888 -2.0429  0.2852  0.4397
  858MOL0     H15826   1.178   3.354   1.959 -0.4726 -1.3062  0.0169
  858MOL0     H15827   1.208   3.411   1.797  2.8284  0.2329  1.0128
  858MOL0     H15828   1.418   3.042   1.777 -1.7935 -0.6649 -2.4994
  858MOL0     H15829   0.794   3.079   2.175 -0.4160  1.2556  2.6458
  858MOL0     H15830   0.585   2.987   2.238 -0.9571 -0.7728 -4.1837
  859MOL0     O15831   5.258   9.161   8.266 -0.0265  0.1651  0.1934
  859MOL0     C15832   5.342   9.084   8.294 -0.2113  0.8721  0.3412
  859MOL0     O15833   5.479   9.111   8.278  0.0049  0.0386 -1.0561
  859MOL0     C15834   5.524   9.240   8.311 -0.6288  0.1109 -1.0682
  859MOL0     C15835   5.658   9.272   8.292 -0.3932 -0.3540  0.1736
  859MOL0     C15836   5.709   9.400   8.318 -0.6664 -0.0528  0.6065
  859MOL0     C15837   5.629   9.506   8.353 -0.5167 -0.2552  0.2538
  859MOL0     O15838   5.669   9.634   8.385 -1.1723 -0.1868 -0.4402
  859MOL0     C15839   5.586   9.744   8.332  0.0239  0.2009 -0.8759
  859MOL0     C15840   5.640   9.884   8.342 -0.0967  1.9436 -0.3339
  859MOL0     C15841   5.649   9.928   8.484  0.4863  1.4155 -0.8811
  859MOL0     C15842   5.728  10.062   8.492  0.0440  0.3371 -0.3269
  859MOL0     C15843   5.722  10.122   8.630 -0.0671  0.0950  0.2030
  859MOL0     C15844   5.774  10.267   8.636  0.4500  1.0311 -0.5981
  859MOL0     C15845   5.918  10.273   8.569 -0.0932  0.3476 -0.0731
  859MOL0     C15846   5.993  10.409   8.593 -0.6225  0.8195  0.3001
  859MOL0     N15847   6.017  10.447   8.732  0.1404  0.1792  0.4825
  859MOL0     C15848   6.093  10.381   8.832  0.9731  0.4855  1.2529
  859MOL0     C15849   6.057  10.436   8.953 -0.1117  0.8687  0.6973
  859MOL0     C15850   6.087  10.373   9.090  0.9150  0.2900  0.3888
  859MOL0     C15851   6.025  10.241   9.104  0.7716  0.1143  0.0330
  859MOL0     C15852   6.044  10.161   9.235  0.7942 -1.1221  0.8565
  859MOL0     C15853   6.186  10.136   9.278  0.6259  0.4359 -0.0333
  859MOL0     O15854   6.265  10.097   9.169 -0.0636  0.4196  0.3918
  859MOL0     C15855   6.399  10.067   9.185  0.0077  0.1717 -0.1189
  859MOL0     C15856   6.475  10.032   9.075 -0.5853  0.2104 -0.1268
  859MOL0     C15857   6.611  10.000   9.092 -0.8911 -0.0955 -0.7575
  859MOL0     C15858   6.683   9.992   8.960 -0.0881  0.4458 -0.0100
  859MOL0     C15859   6.671   9.995   9.224 -0.3887 -0.0456  0.4036
  859MOL0     C15860   6.809   9.962   9.244 -0.3916  0.8035 -0.4031
  859MOL0     O15861   6.880  10.024   9.354  0.1336  0.0438 -0.4181
  859MOL0     C15862   7.024  10.025   9.365  0.1143 -0.1859 -0.7339
  859MOL0     C15863   7.121   9.988   9.268 -0.4296  0.4745 -0.6539
  859MOL0     C15864   7.255  10.025   9.293 -0.9801  0.9027  0.2653
  859MOL0     C15865   7.300  10.081   9.411  1.0936 -0.4002 -0.0804
  859MOL0     O15866   7.431  10.091   9.451  0.2852  0.6941  0.0673
  859MOL0     C15867   7.534  10.042   9.370  0.2658 -0.1960 -0.0642
  859MOL0     C15868   7.663  10.090   9.435 -0.5992  0.5692  0.1270
  859MOL0     C15869   7.781  10.084   9.337  0.0929 -0.1245  0.1513
  859MOL0     C15870   7.907  10.060   9.403 -0.7099 -0.1722  0.8822
  859MOL0     C15871   8.017  10.042   9.304 -0.3345  0.5407  0.2502
  859MOL0     C15872   8.154   9.987   9.362  0.5945 -0.1771  0.1431
  859MOL0     C15873   8.272  10.024   9.269 -0.2405  0.1578 -0.9477
  859MOL0     C15874   8.273   9.944   9.149  0.2688  0.0827 -0.3301
  859MOL0    Cl15875   8.378  10.017   9.024  0.4729 -0.5354 -0.2859
  859MOL0     C15876   7.204  10.108   9.505 -0.1722 -0.1998  0.0354
  859MOL0     C15877   7.069  10.081   9.487 -0.1177 -0.3547 -0.3479
  859MOL0     O15878   6.845   9.871   9.178 -0.3484  0.0247 -0.0529
  859MOL0     C15879   6.594  10.021   9.332  0.6501  0.0585  0.0046
  859MOL0     C15880   6.465  10.064   9.314  0.1427  0.1144 -0.7087
  859MOL0     N15881   5.984  10.550   8.923  0.4630 -0.6969  0.5197
  859MOL0     N15882   5.959  10.551   8.791 -0.0569 -0.8654  1.2046
  859MOL0     C15883   5.497   9.478   8.385 -0.1346 -1.0712  0.4422
  859MOL0     C15884   5.446   9.347   8.360 -0.5653  0.0516 -0.2111
  859MOL0     C15885   5.309   8.941   8.324  1.0120 -0.2285  1.4175
  859MOL0     C15886   5.410   8.860   8.370  0.0837  0.1713  0.3266
  859MOL0     C15887   5.375   8.726   8.376 -0.0196  0.6709 -0.4789
  859MOL0     C15888   5.245   8.679   8.360 -0.5452 -0.3332 -0.7596
  859MOL0     O15889   5.219   8.544   8.389 -0.4432  0.1931 -0.0478
  859MOL0     C15890   5.281   8.481   8.505 -0.5695 -0.5145  0.6056
  859MOL0     C15891   5.183   8.470   8.620  0.4183  0.9183 -0.6706
  859MOL0     C15892   5.165   8.608   8.693  0.9104 -0.3853  0.2306
  859MOL0     C15893   5.067   8.589   8.806 -0.8335  0.0332 -0.1091
  859MOL0     C15894   5.075   8.707   8.896 -0.4023 -0.1852  0.0741
  859MOL0     C15895   5.069   8.804   8.974  0.6898  0.6340  0.3240
  859MOL0     C15896   5.143   8.759   8.314  0.2186  0.1960 -0.7015
  859MOL0     C15897   5.172   8.888   8.297 -0.3180 -0.1441  0.5217
  859MOL0     H15898   5.730   9.207   8.243 -0.9431 -0.8834  0.0592
  859MOL0     H15899   5.815   9.418   8.305 -1.0917  1.9153 -0.5076
  859MOL0     H15900   5.549   9.728   8.231 -1.0785  0.4919 -0.5255
  859MOL0     H15901   5.490   9.747   8.385  0.4212  1.5766 -0.1860
  859MOL0     H15902   5.741   9.880   8.301  0.1174 -0.9751  0.2737
  859MOL0     H15903   5.570   9.948   8.286 -0.9052 -0.8725 -2.8103
  859MOL0     H15904   5.547   9.939   8.521  1.0636  0.7407  0.9840
  859MOL0     H15905   5.694   9.855   8.551 -0.4398  0.6116 -1.1070
  859MOL0     H15906   5.835  10.044   8.478  0.4169  1.0868  1.3376
  859MOL0     H15907   5.703  10.138   8.416  2.6530  0.6319 -0.9770
  859MOL0     H15908   5.617  10.121   8.660 -0.2767  0.6817 -0.4787
  859MOL0     H15909   5.783  10.061   8.698 -2.2237  1.0133  3.1726
  859MOL0     H15910   5.697  10.325   8.585  0.5099  0.5684 -1.2292
  859MOL0     H15911   5.782  10.298   8.740  3.5079  5.1402 -1.7921
  859MOL0     H15912   5.986  10.198   8.610  2.6378  3.3489  1.3525
  859MOL0     H15913   5.907  10.263   8.461  4.3086 -3.4886 -0.4342
  859MOL0     H15914   5.941  10.492   8.543  2.2735  1.7404 -1.4561
  859MOL0     H15915   6.091  10.404   8.545 -0.3814 -1.0762  0.9069
  859MOL0     H15916   6.155  10.296   8.807 -2.3942 -0.9412 -4.1078
  859MOL0     H15917   6.195  10.358   9.094  0.8176 -0.5155  0.2737
  859MOL0     H15918   6.063  10.422   9.184 -1.3876 -0.8373  0.4694
  859MOL0     H15919   6.051  10.181   9.017 -0.8509 -1.2757  0.4548
  859MOL0     H15920   5.917  10.253   9.092  0.2025 -4.8905 -2.0419
  859MOL0     H15921   6.014  10.056   9.228  1.8118 -1.3546 -0.6715
  859MOL0     H15922   5.982  10.208   9.311 -2.3908 -0.2572 -2.0561
  859MOL0     H15923   6.182  10.059   9.355  3.3178 -0.6066 -0.8181
  859MOL0     H15924   6.215  10.228   9.330 -3.4354  1.5008  0.6313
  859MOL0     H15925   6.431  10.035   8.976 -0.5686  0.0093 -0.1416
  859MOL0     H15926   6.770   9.925   8.962 -0.1878  0.2372  3.4097
  859MOL0     H15927   6.619   9.957   8.878  1.9761 -0.0105 -1.4921
  859MOL0     H15928   6.728  10.090   8.944 -0.3103  0.1138 -3.3141
  859MOL0     H15929   7.095   9.943   9.173  2.5971 -1.0190 -0.8956
  859MOL0     H15930   7.316  10.004   9.206 -1.3802 -2.3542  0.6347
  859MOL0     H15931   7.524   9.935   9.350 -5.0524 -0.0304  0.4419
  859MOL0     H15932   7.530  10.095   9.274 -1.9697  1.2791  0.7786
  859MOL0     H15933   7.659  10.196   9.463  0.4992  0.5988  0.2122
  859MOL0     H15934   7.682  10.026   9.521  0.7929 -1.4415 -1.5643
  859MOL0     H15935   7.778  10.177   9.279 -0.0712  1.3533  2.4241
  859MOL0     H15936   7.766  10.004   9.264 -3.3700  1.0266 -0.5905
  859MOL0     H15937   7.927  10.143   9.472 -0.5100  1.2992 -0.8742
  859MOL0     H15938   7.911   9.975   9.472 -0.1006  0.6760  1.9252
  859MOL0     H15939   8.035  10.131   9.243 -0.7238  1.6410  1.6780
  859MOL0     H15940   7.983   9.970   9.229 -1.3483  4.5762 -3.5649
  859MOL0     H15941   8.170  10.028   9.462 -1.4240  0.1677  0.3725
  859MOL0     H15942   8.140   9.879   9.374  0.0620 -0.3076 -1.3457
  859MOL0     H15943   8.371  10.019   9.315 -0.4147  1.3311 -0.4115
  859MOL0     H15944   8.257  10.128   9.238 -2.0855 -0.3785 -1.9993
  859MOL0     H15945   8.173   9.938   9.105  1.4540 -0.1004 -3.2807
  859MOL0     H15946   8.322   9.849   9.174  0.8016  0.5396  0.4000
  859MOL0     H15947   7.242  10.158   9.594 -0.9763  0.6659 -0.0814
  859MOL0     H15948   6.995  10.090   9.567 -2.1416 -2.4509 -1.8499
  859MOL0     H15949   6.643  10.024   9.429  0.1115  0.9161  0.2660
  859MOL0     H15950   6.414  10.082   9.408 -0.2108 -0.6842 -0.7412
  859MOL0     H15951   5.418   9.544   8.420  0.2163  0.0182 -0.7333
  859MOL0     H15952   5.345   9.323   8.390 -1.7481  1.3486 -2.8338
  859MOL0     H15953   5.512   8.888   8.392  0.4150 -0.9345  0.2929
  859MOL0     H15954   5.451   8.655   8.404 -0.0941  0.5116 -0.6822
  859MOL0     H15955   5.317   8.382   8.475  0.9981  0.3409 -0.4586
  859MOL0     H15956   5.364   8.537   8.549  0.6653 -0.4497 -1.6635
  859MOL0     H15957   5.220   8.400   8.695 -0.1998 -0.9782 -2.0531
  859MOL0     H15958   5.088   8.430   8.582  0.9464 -2.3913  1.2063
  859MOL0     H15959   5.148   8.689   8.622  2.1497 -1.8711 -1.9141
  859MOL0     H15960   5.265   8.638   8.727  1.7747 -0.5571 -1.9915
  859MOL0     H15961   5.090   8.495   8.857 -0.6155  0.1401 -0.0103
  859MOL0     H15962   4.970   8.582   8.755 -1.1494  0.2480  0.4643
  859MOL0     H15963   5.079   8.891   9.035 -0.4215  0.8295  0.2409
  859MOL0     H15964   5.042   8.723   8.297 -0.5500  3.1909 -3.3269
  859MOL0     H15965   5.091   8.956   8.272  1.7188  2.9559  1.7637
  860MOL0     O15966   0.076   2.256   1.497 -0.3857 -0.3200 -0.3176
  860MOL0     C15967   0.121   2.190   1.589  0.0539  0.3897  0.6565
  860MOL0     O15968   0.046   2.134   1.690  1.1362  0.8364  0.8126
  860MOL0     C15969  -0.088   2.159   1.691  0.3590  0.6748 -0.0212
  860MOL0     C15970  -0.171   2.047   1.715  0.3274  0.3803 -0.2093
  860MOL0     C15971  -0.311   2.062   1.737 -0.0788 -0.8659 -0.0333
  860MOL0     C15972  -0.364   2.194   1.763  0.4129 -0.1209  0.3073
  860MOL0     O15973  -0.494   2.213   1.798 -0.0995  0.5032  0.8661
  860MOL0     C15974  -0.545   2.326   1.868 -1.1701 -0.7044  0.1596
  860MOL0     C15975  -0.661   2.394   1.795  0.3636 -0.4506 -0.4625
  860MOL0     C15976  -0.695   2.530   1.863  0.6253  0.1496 -0.0094
  860MOL0     C15977  -0.810   2.605   1.781  0.2367  0.2877 -0.2556
  860MOL0     C15978  -0.864   2.724   1.866  0.4416 -0.0697 -0.7519
  860MOL0     C15979  -0.764   2.821   1.935 -0.0540 -0.6471  0.3745
  860MOL0     C15980  -0.828   2.949   1.987 -0.6236 -0.0451 -0.0187
  860MOL0     C15981  -0.845   3.051   1.873  0.0110  0.0407 -0.0210
  860MOL0     N15982  -0.884   3.179   1.920 -0.6090  0.1019 -0.1295
  860MOL0     C15983  -0.996   3.194   2.004 -0.4452 -0.4069 -0.6667
  860MOL0     C15984  -1.001   3.328   2.020  0.0532 -0.0102 -0.3088
  860MOL0     C15985  -1.105   3.397   2.098  0.4808  0.3294 -0.5110
  860MOL0     C15986  -1.189   3.503   2.026 -0.4096 -1.3832  0.3429
  860MOL0     C15987  -1.194   3.483   1.869 -0.1518 -1.4132 -0.2376
  860MOL0     C15988  -1.287   3.584   1.806 -0.3956 -0.3938 -0.7322
  860MOL0     O15989  -1.423   3.546   1.845 -0.2659 -0.7034 -0.2401
  860MOL0     C15990  -1.533   3.590   1.766  0.6628  1.6483  0.7501
  860MOL0     C15991  -1.532   3.707   1.693 -0.4634  0.1366 -0.1238
  860MOL0     C15992  -1.632   3.763   1.606  0.1732  0.0716  0.2226
  860MOL0     C15993  -1.611   3.901   1.549  0.6599  0.2506  0.4443
  860MOL0     C15994  -1.752   3.691   1.599  0.2886  0.2460  0.2074
  860MOL0     C15995  -1.883   3.730   1.534 -0.4860 -0.2646 -0.5961
  860MOL0     O15996  -1.997   3.671   1.578 -0.0790  0.3503 -0.5691
  860MOL0     C15997  -2.103   3.709   1.501 -1.1156  0.4085 -0.4093
  860MOL0     C15998  -2.222   3.745   1.563 -0.2588 -0.7284 -0.4070
  860MOL0     C15999  -2.334   3.771   1.483 -0.1587 -0.0494 -0.0697
  860MOL0     C16000  -2.324   3.779   1.343 -0.6256  0.5150  0.8906
  860MOL0     O16001  -2.425   3.817   1.257 -0.0765  0.0142  0.3634
  860MOL0     C16002  -2.553   3.862   1.307  0.8618  0.6468  0.5722
  860MOL0     C16003  -2.644   3.922   1.196  0.2372  0.0620 -0.3497
  860MOL0     C16004  -2.789   3.873   1.212  1.2826 -0.5385 -0.1701
  860MOL0     C16005  -2.892   3.927   1.111 -0.5032  0.6830 -0.1032
  860MOL0     C16006  -3.030   3.869   1.153  1.0318 -0.3286  0.0005
  860MOL0     C16007  -3.104   3.957   1.257 -0.3054  0.5855  0.0903
  860MOL0     C16008  -3.240   3.890   1.301 -0.3881 -1.1696 -0.2511
  860MOL0     C16009  -3.325   3.962   1.405  0.2544  0.2595  0.3264
  860MOL0    Cl16010  -3.465   3.858   1.452 -0.5998 -0.3805  0.0464
  860MOL0     C16011  -2.209   3.739   1.284 -1.0669  0.5249 -0.6569
  860MOL0     C16012  -2.094   3.698   1.361  0.9213  0.0443  0.5558
  860MOL0     O16013  -1.883   3.828   1.461  0.6177 -0.0634  1.3100
  860MOL0     C16014  -1.761   3.574   1.686  0.7507  0.3338  0.5504
  860MOL0     C16015  -1.657   3.525   1.767  0.0870 -0.1820  0.0936
  860MOL0     N16016  -0.900   3.391   1.946 -0.1446  0.2520  0.8861
  860MOL0     N16017  -0.828   3.301   1.896 -0.3977 -0.5138  0.0094
  860MOL0     C16018  -0.282   2.304   1.731 -0.3611  0.7263  0.5598
  860MOL0     C16019  -0.142   2.290   1.697 -0.0601  0.8557  0.6684
  860MOL0     C16020   0.263   2.208   1.610 -0.0976 -0.1294 -0.7106
  860MOL0     C16021   0.345   2.273   1.514 -0.3365  0.3955  0.2879
  860MOL0     C16022   0.480   2.299   1.541  0.9894  0.4859  0.1537
  860MOL0     C16023   0.530   2.260   1.663  0.0570  0.5269  0.0141
  860MOL0     O16024   0.669   2.265   1.692  0.0013 -0.5079 -0.0132
  860MOL0     C16025   0.748   2.337   1.598 -0.1275 -0.7321  0.6138
  860MOL0     C16026   0.899   2.342   1.652  1.1339 -0.7774  0.1065
  860MOL0     C16027   0.924   2.412   1.778  0.1497 -0.2977 -0.3557
  860MOL0     C16028   1.066   2.379   1.844 -0.3851  0.1652 -0.8968
  860MOL0     C16029   1.180   2.398   1.757 -1.2460 -0.2108 -0.1906
  860MOL0     C16030   1.262   2.425   1.669 -0.4539 -0.0473 -0.1150
  860MOL0     C16031   0.459   2.187   1.755  0.3872  0.0993 -0.8081
  860MOL0     C16032   0.325   2.164   1.723  0.3425  0.2678  0.4352
  860MOL0     H16033  -0.119   1.953   1.700 -0.2911 -0.1141  0.6714
  860MOL0     H16034  -0.374   1.974   1.744  1.1300 -1.6953  0.6511
  860MOL0     H16035  -0.585   2.293   1.965 -3.5531 -1.4297 -0.9884
  860MOL0     H16036  -0.464   2.399   1.882 -1.9857  0.2556 -0.0438
  860MOL0     H16037  -0.632   2.421   1.693 -0.1344  1.5189 -0.1213
  860MOL0     H16038  -0.746   2.325   1.784 -3.1778  3.5857 -0.9878
  860MOL0     H16039  -0.737   2.515   1.963  2.0083 -1.1346  0.4144
  860MOL0     H16040  -0.605   2.591   1.871 -0.3109  1.6682 -0.4687
  860MOL0     H16041  -0.766   2.643   1.689  1.9335  2.1010  1.2265
  860MOL0     H16042  -0.899   2.544   1.761  0.1853  0.1612  0.3201
  860MOL0     H16043  -0.942   2.779   1.812 -1.4649 -1.4336  0.5008
  860MOL0     H16044  -0.922   2.681   1.948 -0.5895  0.2196 -1.3082
  860MOL0     H16045  -0.719   2.772   2.021  1.7151  0.7805  0.3205
  860MOL0     H16046  -0.685   2.850   1.865 -0.1418  2.9215  1.5563
  860MOL0     H16047  -0.921   2.930   2.041 -1.4918  1.1781 -1.0291
  860MOL0     H16048  -0.755   2.991   2.057 -0.1395 -1.1042  0.1363
  860MOL0     H16049  -0.934   3.029   1.813 -0.7688  1.1271  0.6966
  860MOL0     H16050  -0.750   3.059   1.819  0.0087  0.6728  0.0614
  860MOL0     H16051  -1.051   3.110   2.045 -0.5998 -0.2145 -0.4789
  860MOL0     H16052  -1.179   3.323   2.130 -0.8646  0.6837 -2.6415
  860MOL0     H16053  -1.059   3.442   2.187 -1.0123 -2.1471  1.6867
  860MOL0     H16054  -1.130   3.593   2.049  0.7663 -1.4451 -2.0847
  860MOL0     H16055  -1.280   3.524   2.083  0.0056  3.8923 -0.4431
  860MOL0     H16056  -1.235   3.382   1.858 -2.3928 -0.6204  0.3349
  860MOL0     H16057  -1.099   3.485   1.814  0.9571 -3.0878  1.4707
  860MOL0     H16058  -1.264   3.573   1.699  1.3081  0.2439 -0.4687
  860MOL0     H16059  -1.264   3.686   1.838 -2.3367 -0.0686 -0.2357
  860MOL0     H16060  -1.441   3.765   1.709 -0.7646  1.1789 -2.0308
  860MOL0     H16061  -1.656   3.922   1.451  2.5742  1.8418 -0.1491
  860MOL0     H16062  -1.654   3.973   1.620 -0.8960 -2.8934  2.9703
  860MOL0     H16063  -1.504   3.922   1.547  0.5192  0.9602 -0.3287
  860MOL0     H16064  -2.229   3.728   1.670 -1.1097 -1.4500 -0.5591
  860MOL0     H16065  -2.429   3.802   1.528 -0.8483  1.6107 -2.4651
  860MOL0     H16066  -2.600   3.770   1.344  2.5304 -0.9063 -0.9871
  860MOL0     H16067  -2.549   3.938   1.386  0.2565  1.0704  0.2009
  860MOL0     H16068  -2.643   4.031   1.204 -1.0705  0.0083  1.0329
  860MOL0     H16069  -2.601   3.897   1.098  1.5770 -3.3559  0.9446
  860MOL0     H16070  -2.824   3.887   1.315  2.6846  1.5698  0.0629
  860MOL0     H16071  -2.780   3.768   1.183  1.0722 -0.0222 -2.2624
  860MOL0     H16072  -2.895   4.037   1.115 -0.8932  0.6492  0.6549
  860MOL0     H16073  -2.863   3.893   1.011 -1.6482  0.6941 -0.4494
  860MOL0     H16074  -3.037   3.766   1.188  1.0916 -0.6130 -0.8146
  860MOL0     H16075  -3.091   3.859   1.062 -1.1151  2.5961  0.9424
  860MOL0     H16076  -3.039   3.965   1.345  1.2580  3.0878 -1.1794
  860MOL0     H16077  -3.119   4.059   1.221 -1.2686 -0.0615 -1.4237
  860MOL0     H16078  -3.230   3.785   1.330 -1.0846 -0.6578  2.0407
  860MOL0     H16079  -3.309   3.896   1.217 -0.2179 -1.3191 -0.4016
  860MOL0     H16080  -3.354   4.059   1.364 -3.8330 -2.2389 -3.6263
  860MOL0     H16081  -3.268   3.977   1.497  0.1997  0.5881  0.3072
  860MOL0     H16082  -2.202   3.741   1.176  3.3435  2.5649 -0.5450
  860MOL0     H16083  -2.020   3.642   1.305  0.3175 -1.8177  1.5311
  860MOL0     H16084  -1.846   3.508   1.702 -0.2768  1.5553  0.2640
  860MOL0     H16085  -1.657   3.431   1.821 -3.3458 -1.0771 -1.2152
  860MOL0     H16086  -0.321   2.405   1.733 -1.0214  0.5409 -1.3025
  860MOL0     H16087  -0.081   2.380   1.691  1.5419 -0.3083 -2.3110
  860MOL0     H16088   0.310   2.305   1.416  1.3695  0.2206 -0.4317
  860MOL0     H16089   0.541   2.338   1.460 -0.3882  1.0908 -0.6209
  860MOL0     H16090   0.755   2.284   1.502  1.0920 -0.4882  0.5550
  860MOL0     H16091   0.714   2.439   1.576 -1.1814 -0.7339  2.1115
  860MOL0     H16092   0.967   2.390   1.580  1.2307 -1.0516  0.0100
  860MOL0     H16093   0.926   2.236   1.663  0.8554 -0.7100  1.6361
  860MOL0     H16094   0.843   2.387   1.848 -0.4542 -0.2996 -1.0452
  860MOL0     H16095   0.913   2.517   1.752 -0.6337 -0.4384 -0.6262
  860MOL0     H16096   1.075   2.275   1.877 -0.1236  0.3227 -0.4536
  860MOL0     H16097   1.081   2.442   1.932  4.2866  2.4065 -2.9124
  860MOL0     H16098   1.341   2.423   1.598 -1.0667 -1.7071 -0.7988
  860MOL0     H16099   0.503   2.145   1.845 -2.2017 -2.9265 -0.7987
  860MOL0     H16100   0.270   2.113   1.802 -0.9130 -0.4254 -0.8416
  861MOL0     O16101   2.610   7.440   5.861  0.3883 -0.1186  0.3094
  861MOL0     C16102   2.521   7.403   5.782 -0.3344  0.0945  0.0147
  861MOL0     O16103   2.540   7.407   5.647 -0.5781 -0.4190 -0.3507
  861MOL0     C16104   2.662   7.454   5.597  0.2862  0.6232 -0.1916
  861MOL0     C16105   2.675   7.601   5.594 -0.2759  1.0747 -0.1869
  861MOL0     C16106   2.782   7.649   5.518 -0.0112 -0.4188  0.8684
  861MOL0     C16107   2.868   7.561   5.447  1.0173  0.0684 -1.3519
  861MOL0     O16108   2.960   7.625   5.379 -0.6752  0.1451  0.0283
  861MOL0     C16109   3.069   7.698   5.445 -0.2580 -0.6809  0.0699
  861MOL0     C16110   3.184   7.671   5.361  0.2132 -0.7906 -0.4124
  861MOL0     C16111   3.294   7.757   5.412 -0.9356 -0.4409  0.2586
  861MOL0     C16112   3.389   7.802   5.301 -0.3555  0.9681 -0.4565
  861MOL0     C16113   3.510   7.897   5.349  0.1828 -0.2677  0.1243
  861MOL0     C16114   3.475   8.038   5.366  0.7781  0.5500 -0.9525
  861MOL0     C16115   3.597   8.130   5.363  0.8548  1.1150 -0.3582
  861MOL0     C16116   3.566   8.268   5.409 -0.2769  0.6046  0.4202
  861MOL0     N16117   3.675   8.352   5.362 -0.0008  0.0587  0.4468
  861MOL0     C16118   3.771   8.398   5.446  0.2422 -0.2927 -0.4161
  861MOL0     C16119   3.859   8.473   5.364 -0.3979 -0.7365 -0.1339
  861MOL0     C16120   3.997   8.507   5.401 -0.1781 -0.1315  1.1878
  861MOL0     C16121   4.010   8.610   5.513 -0.5446 -0.9787  0.4489
  861MOL0     C16122   4.001   8.759   5.472 -0.1269  0.0334 -1.1018
  861MOL0     C16123   4.034   8.844   5.601  0.0685 -0.5139  0.4437
  861MOL0     O16124   4.177   8.839   5.625 -0.6787 -0.4370  0.0744
  861MOL0     C16125   4.222   8.886   5.753 -0.4220 -0.6911  0.8369
  861MOL0     C16126   4.357   8.884   5.764 -0.1884 -0.0633  0.7708
  861MOL0     C16127   4.431   8.926   5.875 -0.5412  0.4804 -0.2109
  861MOL0     C16128   4.579   8.894   5.872  0.6309 -0.6752 -0.8544
  861MOL0     C16129   4.359   8.980   5.980 -1.0593 -0.3823  0.6069
  861MOL0     C16130   4.413   9.033   6.112  0.0530  0.7344 -0.5949
  861MOL0     O16131   4.325   9.065   6.210 -0.2376  0.5747  0.2544
  861MOL0     C16132   4.354   9.162   6.307  0.5501 -0.5886  0.2693
  861MOL0     C16133   4.286   9.154   6.425  0.1904 -0.0698 -0.3551
  861MOL0     C16134   4.302   9.250   6.526  0.6812 -0.1165 -0.2016
  861MOL0     C16135   4.389   9.353   6.510  0.2302  0.3461  0.3941
  861MOL0     O16136   4.396   9.460   6.600  0.3541  1.6646 -0.7478
  861MOL0     C16137   4.528   9.486   6.663 -1.0401 -0.5138  0.0780
  861MOL0     C16138   4.596   9.622   6.618  0.2205 -0.9592  0.4377
  861MOL0     C16139   4.488   9.719   6.644 -0.2178 -0.1764  0.0073
  861MOL0     C16140   4.532   9.866   6.616  0.6842  0.2793  1.3392
  861MOL0     C16141   4.402   9.938   6.587 -0.1927 -0.5426  0.0556
  861MOL0     C16142   4.426  10.087   6.571  0.9798  0.7372  0.5231
  861MOL0     C16143   4.285  10.147   6.530  0.1640 -0.1725  0.5062
  861MOL0     C16144   4.294  10.301   6.525 -0.1758 -0.3332  0.5671
  861MOL0    Cl16145   4.132  10.363   6.468  0.0865 -0.1818  0.1958
  861MOL0     C16146   4.469   9.354   6.392 -0.1643  0.3086  0.2908
  861MOL0     C16147   4.462   9.256   6.295  0.6016 -0.1712  0.1066
  861MOL0     O16148   4.534   9.027   6.132  0.1829 -0.0229 -0.0280
  861MOL0     C16149   4.217   9.000   5.961  0.3394 -0.7558 -0.7958
  861MOL0     C16150   4.146   8.944   5.853  0.0391 -0.4198 -1.3053
  861MOL0     N16151   3.803   8.484   5.240  0.4179 -1.0483  0.2874
  861MOL0     N16152   3.696   8.408   5.234 -0.1698 -0.6646 -0.6910
  861MOL0     C16153   2.859   7.431   5.462  0.2473  0.3363  0.7713
  861MOL0     C16154   2.749   7.369   5.531  0.3849 -0.3682  0.2056
  861MOL0     C16155   2.383   7.388   5.826 -0.1513  0.2593  0.1797
  861MOL0     C16156   2.340   7.420   5.955  0.0085 -0.1007 -0.5083
  861MOL0     C16157   2.204   7.406   5.998 -0.4950  0.8110 -0.2454
  861MOL0     C16158   2.108   7.356   5.910  0.7579 -0.0233 -0.6249
  861MOL0     O16159   1.975   7.345   5.949  0.0930 -0.3120 -0.6616
  861MOL0     C16160   1.884   7.320   5.849 -0.2691 -0.4113  0.7652
  861MOL0     C16161   1.743   7.312   5.902  0.2528 -0.0555  0.1725
  861MOL0     C16162   1.725   7.207   6.017  0.1668  0.0698  0.7912
  861MOL0     C16163   1.703   7.276   6.150  0.6063  0.3341  0.5916
  861MOL0     C16164   1.561   7.312   6.154 -0.5364  0.5123  0.1262
  861MOL0     C16165   1.447   7.349   6.156  0.5774 -0.0837  0.3031
  861MOL0     C16166   2.154   7.310   5.786 -0.3118 -0.2453 -1.1717
  861MOL0     C16167   2.288   7.324   5.746  0.9086 -0.4117 -0.7341
  861MOL0     H16168   2.602   7.670   5.636 -0.9625  0.2767 -0.0608
  861MOL0     H16169   2.770   7.756   5.504  0.2950 -0.3384  1.2048
  861MOL0     H16170   3.051   7.806   5.453  1.2161 -0.4243  0.2388
  861MOL0     H16171   3.083   7.665   5.548 -1.5098  0.0605  0.4997
  861MOL0     H16172   3.198   7.564   5.381 -2.4366 -0.7782  2.3503
  861MOL0     H16173   3.162   7.693   5.256  1.3104  0.2182 -0.4464
  861MOL0     H16174   3.262   7.855   5.449 -0.7610  1.0742 -3.2119
  861MOL0     H16175   3.348   7.708   5.494  0.4354 -1.4982 -1.2055
  861MOL0     H16176   3.438   7.711   5.266 -0.0058  0.6967  0.6786
  861MOL0     H16177   3.327   7.843   5.221 -0.3537 -2.0242 -2.0920
  861MOL0     H16178   3.568   7.859   5.434  0.6545 -1.0018 -0.5225
  861MOL0     H16179   3.579   7.879   5.267  1.3543 -1.5634  1.3432
  861MOL0     H16180   3.407   8.071   5.287 -0.5195  0.2639  0.0294
  861MOL0     H16181   3.420   8.054   5.459 -1.0452  0.4798 -1.9654
  861MOL0     H16182   3.683   8.091   5.418 -0.8718  0.0239  1.7042
  861MOL0     H16183   3.618   8.141   5.256 -1.4934 -0.1574 -1.0287
  861MOL0     H16184   3.558   8.285   5.516 -2.0970  2.5690  0.0447
  861MOL0     H16185   3.485   8.313   5.350  0.1722  2.5040  1.1660
  861MOL0     H16186   3.795   8.363   5.546 -1.8608  0.5003  0.4208
  861MOL0     H16187   4.060   8.418   5.414 -2.5716 -1.6910  3.0354
  861MOL0     H16188   4.037   8.564   5.317  2.4377 -1.2133  1.5861
  861MOL0     H16189   4.114   8.605   5.549  0.4328 -2.1547 -2.3345
  861MOL0     H16190   3.936   8.588   5.590 -1.1753 -0.1209  0.1036
  861MOL0     H16191   3.908   8.787   5.422 -0.5521 -1.5722 -1.2620
  861MOL0     H16192   4.080   8.776   5.398 -0.0128 -1.8066 -1.4435
  861MOL0     H16193   3.982   8.809   5.691 -1.0875  0.0040  0.0022
  861MOL0     H16194   4.003   8.947   5.582 -0.4662 -0.9871 -1.4088
  861MOL0     H16195   4.418   8.850   5.681  0.4883  0.3207  1.1046
  861MOL0     H16196   4.610   8.831   5.956 -3.8214 -1.7746  0.2105
  861MOL0     H16197   4.604   8.851   5.774  0.0389  1.5758 -2.0892
  861MOL0     H16198   4.627   8.993   5.875 -1.1618  0.4238 -3.6753
  861MOL0     H16199   4.221   9.068   6.436  2.9494 -2.2012  0.6293
  861MOL0     H16200   4.235   9.246   6.611 -0.3982  0.4918 -1.0160
  861MOL0     H16201   4.512   9.481   6.771 -2.0183 -0.9260 -0.0691
  861MOL0     H16202   4.601   9.408   6.639 -0.6169  0.6781 -3.0898
  861MOL0     H16203   4.689   9.640   6.672 -0.1992  0.2058  0.8082
  861MOL0     H16204   4.646   9.629   6.521  2.8841 -1.9187  1.6613
  861MOL0     H16205   4.444   9.719   6.744 -0.4593  2.4466 -0.0259
  861MOL0     H16206   4.399   9.692   6.585 -2.5435  1.1681  2.6681
  861MOL0     H16207   4.599   9.919   6.685  1.0324  0.7691  0.6270
  861MOL0     H16208   4.590   9.865   6.524 -1.0972 -2.1036  0.1159
  861MOL0     H16209   4.347   9.936   6.681  0.3303  1.1321  0.4386
  861MOL0     H16210   4.341   9.898   6.506  1.6412 -1.5934 -0.8640
  861MOL0     H16211   4.465  10.126   6.665 -1.4517  0.4820  1.7347
  861MOL0     H16212   4.502  10.103   6.494  1.6334 -2.6993  0.3043
  861MOL0     H16213   4.206  10.118   6.599 -0.1491 -0.1607  0.1603
  861MOL0     H16214   4.263  10.097   6.435 -2.2839  0.9617  0.3984
  861MOL0     H16215   4.380  10.337   6.467  0.0662 -1.3161  0.3034
  861MOL0     H16216   4.315  10.341   6.624  0.3599  3.7431 -0.9926
  861MOL0     H16217   4.543   9.433   6.383 -0.4640  0.4012 -1.7207
  861MOL0     H16218   4.519   9.258   6.202 -0.0847  1.0653 -0.3031
  861MOL0     H16219   4.158   9.056   6.033  0.9789 -0.9374 -0.1181
  861MOL0     H16220   4.040   8.950   5.875  0.5270 -1.1687  1.8990
  861MOL0     H16221   2.922   7.368   5.400  0.5105  1.7780 -0.4959
  861MOL0     H16222   2.729   7.262   5.529 -0.1596 -0.3781  2.7198
  861MOL0     H16223   2.405   7.478   6.020 -0.4971  3.7876 -3.1440
  861MOL0     H16224   2.168   7.453   6.089  0.2673  1.5094 -0.2905
  861MOL0     H16225   1.881   7.402   5.777 -1.4593 -0.2561  0.9734
  861MOL0     H16226   1.907   7.224   5.801 -0.4672  0.4180 -1.0428
  861MOL0     H16227   1.682   7.276   5.819 -0.2171 -2.5302  1.4945
  861MOL0     H16228   1.709   7.410   5.936 -0.2361  1.1013 -3.2766
  861MOL0     H16229   1.822   7.158   6.020  0.2768  0.2754  0.6121
  861MOL0     H16230   1.660   7.123   5.991  2.6261 -1.3657 -1.0329
  861MOL0     H16231   1.769   7.364   6.152  0.4247  0.4701  0.6635
  861MOL0     H16232   1.722   7.212   6.236  0.5387 -0.6372 -0.0999
  861MOL0     H16233   1.345   7.379   6.139  1.1133  1.4249 -0.4329
  861MOL0     H16234   2.090   7.258   5.716  0.8832 -3.8380  0.1803
  861MOL0     H16235   2.312   7.293   5.645 -1.4874 -0.2959 -1.3966
  862MOL0     O16236  10.152   3.375   5.592  0.1645  0.6094  0.4874
  862MOL0     C16237  10.125   3.452   5.680  0.4120  0.3702 -0.1423
  862MOL0     O16238  10.213   3.534   5.744  0.8317  0.1604 -0.1296
  862MOL0     C16239  10.345   3.566   5.702  0.0596  0.4850 -0.0846
  862MOL0     C16240  10.406   3.508   5.588  0.2864  1.0454 -0.3408
  862MOL0     C16241  10.542   3.527   5.556 -0.0870  0.7253 -0.1439
  862MOL0     C16242  10.622   3.603   5.641 -0.7553  0.2469 -0.9414
  862MOL0     O16243  10.756   3.596   5.624 -0.1634 -1.0254  0.2400
  862MOL0     C16244  10.847   3.642   5.727  0.0424 -0.1398 -0.8419
  862MOL0     C16245  10.996   3.605   5.705 -0.3149  0.1149 -0.7600
  862MOL0     C16246  11.029   3.460   5.723 -0.5136  0.2786  0.6506
  862MOL0     C16247  11.173   3.422   5.686 -0.2657  0.7319  0.2331
  862MOL0     C16248  11.194   3.276   5.722  0.3274 -1.3037  0.6577
  862MOL0     C16249  11.329   3.216   5.679  0.4257 -0.0839 -0.0538
  862MOL0     C16250  11.388   3.256   5.539 -0.0546 -0.0664  1.0063
  862MOL0     C16251  11.292   3.193   5.439  0.0904  0.8584  0.5276
  862MOL0     N16252  11.372   3.170   5.322  0.0047  0.5248  0.8317
  862MOL0     C16253  11.357   3.234   5.198  0.3589 -0.4063 -0.4807
  862MOL0     C16254  11.441   3.185   5.117  0.4911 -0.5044  0.4964
  862MOL0     C16255  11.469   3.198   4.971 -0.2462 -0.2321  0.4103
  862MOL0     C16256  11.354   3.154   4.885  0.3130  0.4319  0.7121
  862MOL0     C16257  11.341   2.997   4.904  0.3698 -0.4440 -0.1958
  862MOL0     C16258  11.215   2.939   4.841  0.3403 -0.2455  0.6047
  862MOL0     O16259  11.104   2.998   4.897  0.1949 -0.6652  0.1288
  862MOL0     C16260  10.981   2.945   4.869  0.0896  0.3351  0.1044
  862MOL0     C16261  10.879   2.987   4.952  0.2246  0.1145  0.7070
  862MOL0     C16262  10.746   2.938   4.928  0.1824 -0.0771  0.1102
  862MOL0     C16263  10.647   2.982   5.034 -0.3095 -0.9783 -0.2878
  862MOL0     C16264  10.719   2.844   4.825  0.2329 -0.0363 -0.0842
  862MOL0     C16265  10.580   2.785   4.820  0.1461 -0.1167 -0.4984
  862MOL0     O16266  10.553   2.653   4.822 -0.2593  0.5803  0.4249
  862MOL0     C16267  10.428   2.612   4.788 -0.7831 -0.7308 -0.2302
  862MOL0     C16268  10.400   2.617   4.654  0.9464  0.4644 -0.2156
  862MOL0     C16269  10.272   2.577   4.605 -0.8726  0.1270 -0.0236
  862MOL0     C16270  10.179   2.526   4.693  0.0322 -0.5998  0.2367
  862MOL0     O16271  10.057   2.472   4.658 -0.1651  0.3447 -0.5012
  862MOL0     C16272  10.041   2.443   4.522 -0.2180 -0.1577  0.2125
  862MOL0     C16273   9.909   2.366   4.492 -0.5336 -0.3278 -0.6525
  862MOL0     C16274   9.865   2.382   4.347 -0.2531 -0.2183  0.1600
  862MOL0     C16275   9.972   2.344   4.247 -0.6907  0.4275 -0.0529
  862MOL0     C16276   9.914   2.369   4.103 -0.7965  0.4607 -0.3185
  862MOL0     C16277   9.908   2.523   4.075  0.5761 -0.6159  0.5104
  862MOL0     C16278   9.861   2.553   3.934 -0.4172 -0.2505  0.2422
  862MOL0     C16279   9.783   2.684   3.915  0.1406  0.3456 -0.1155
  862MOL0    Cl16280   9.635   2.663   4.009  0.3858 -0.5578 -0.0287
  862MOL0     C16281  10.212   2.516   4.824 -0.2422 -0.0264  0.5855
  862MOL0     C16282  10.335   2.566   4.878 -0.2992 -0.0457 -0.5906
  862MOL0     O16283  10.487   2.875   4.804  0.0003 -0.0364  0.4527
  862MOL0     C16284  10.823   2.812   4.735 -0.4240  0.6455 -0.4710
  862MOL0     C16285  10.954   2.859   4.753  0.1821 -0.5005 -0.9405
  862MOL0     N16286  11.525   3.100   5.188  1.5564 -0.3973 -0.3011
  862MOL0     N16287  11.471   3.080   5.312  0.3412  0.1967  0.0114
  862MOL0     C16288  10.557   3.672   5.748 -1.0887  0.1911  0.7701
  862MOL0     C16289  10.427   3.647   5.779  0.1354 -0.1370  0.5429
  862MOL0     C16290   9.979   3.443   5.727  0.1367 -0.4669  0.3805
  862MOL0     C16291   9.883   3.398   5.637 -0.2040 -1.1216  1.0064
  862MOL0     C16292   9.752   3.376   5.681 -0.7611  0.1147 -0.0752
  862MOL0     C16293   9.711   3.412   5.803  0.2471 -0.2159 -0.3385
  862MOL0     O16294   9.577   3.391   5.823  0.1910 -0.7544 -0.0499
  862MOL0     C16295   9.526   3.407   5.959 -0.5007 -0.3976 -0.6104
  862MOL0     C16296   9.466   3.552   5.982 -0.9384  0.7884  0.7029
  862MOL0     C16297   9.362   3.575   5.881  0.3973 -0.0713 -0.0911
  862MOL0     C16298   9.319   3.722   5.892 -0.6528 -0.9552 -0.0692
  862MOL0     C16299   9.193   3.730   5.956 -0.2796  0.1087 -0.3068
  862MOL0     C16300   9.088   3.738   6.013  0.6973  0.6460  0.8046
  862MOL0     C16301   9.805   3.450   5.900 -0.6337 -0.0449  0.1551
  862MOL0     C16302   9.943   3.473   5.862  0.5948 -0.6985 -0.5402
  862MOL0     H16303  10.359   3.451   5.508  2.5802  1.6970 -2.2613
  862MOL0     H16304  10.586   3.473   5.472  1.1715  1.3164  0.1215
  862MOL0     H16305  10.843   3.751   5.736 -0.1721 -0.2316  0.3644
  862MOL0     H16306  10.811   3.608   5.824  1.1854  0.9827  0.0073
  862MOL0     H16307  11.025   3.637   5.604  0.1159  1.8761 -0.1147
  862MOL0     H16308  11.042   3.663   5.785 -2.6174  1.6063 -0.4025
  862MOL0     H16309  11.020   3.444   5.831 -3.9887  0.7796  0.5446
  862MOL0     H16310  10.958   3.409   5.657 -3.0835  2.8692  1.1717
  862MOL0     H16311  11.190   3.433   5.578  0.9365  1.8660  0.5143
  862MOL0     H16312  11.252   3.474   5.740 -1.7228  2.0695  1.1561
  862MOL0     H16313  11.177   3.255   5.828 -2.1117 -0.2099  0.5618
  862MOL0     H16314  11.113   3.223   5.670  1.2673 -1.3778 -0.7765
  862MOL0     H16315  11.412   3.240   5.746  4.0832 -0.1568 -4.1019
  862MOL0     H16316  11.318   3.108   5.687 -2.3890  0.2355  1.2910
  862MOL0     H16317  11.395   3.363   5.520 -1.7158 -0.3798 -1.8861
  862MOL0     H16318  11.485   3.206   5.527 -0.0808  0.5462 -2.8587
  862MOL0     H16319  11.204   3.257   5.424 -1.3339 -1.3052 -0.8986
  862MOL0     H16320  11.246   3.098   5.468 -0.3547  1.0394  0.4320
  862MOL0     H16321  11.278   3.304   5.171 -0.4534 -1.3359 -0.5874
  862MOL0     H16322  11.489   3.303   4.948  0.5748 -0.3118  0.7305
  862MOL0     H16323  11.563   3.144   4.957  0.2796  0.6586  0.4216
  862MOL0     H16324  11.372   3.173   4.779  0.1901 -1.9428  0.1989
  862MOL0     H16325  11.264   3.202   4.924  0.8983 -0.2497  3.0716
  862MOL0     H16326  11.326   2.978   5.011  0.8122  2.4241  0.4483
  862MOL0     H16327  11.432   2.949   4.867  2.3460  1.2751  2.1778
  862MOL0     H16328  11.213   2.831   4.854  2.0624 -0.3617  0.1840
  862MOL0     H16329  11.220   2.962   4.734 -2.2629  3.1326  1.0291
  862MOL0     H16330  10.907   3.061   5.026  0.7531  0.7251 -0.0870
  862MOL0     H16331  10.692   3.074   5.072 -0.8979 -1.2959  1.2443
  862MOL0     H16332  10.547   3.001   4.993 -1.5395 -0.8233  2.5391
  862MOL0     H16333  10.632   2.907   5.112  0.7100 -1.3285 -0.4209
  862MOL0     H16334  10.477   2.652   4.586 -0.5573 -3.0302 -4.1173
  862MOL0     H16335  10.251   2.591   4.500 -0.4662  0.2338 -0.0946
  862MOL0     H16336  10.026   2.534   4.464 -0.7472 -0.9514 -0.9254
  862MOL0     H16337  10.136   2.405   4.482  0.9412  0.5287  2.2029
  862MOL0     H16338   9.926   2.259   4.506  0.5439  0.1536  2.3192
  862MOL0     H16339   9.822   2.394   4.552  0.6773  0.9064  0.6160
  862MOL0     H16340   9.828   2.483   4.329  1.8711  0.2348 -2.3041
  862MOL0     H16341   9.774   2.323   4.333 -0.2497  0.1193 -1.5834
  862MOL0     H16342  10.058   2.412   4.253 -0.2783 -0.2260  4.1374
  862MOL0     H16343  10.001   2.242   4.270  0.8280  0.7768 -0.3316
  862MOL0     H16344   9.815   2.321   4.104 -0.4506 -0.2804  1.2524
  862MOL0     H16345   9.982   2.327   4.029 -0.2103 -1.1738  1.0626
  862MOL0     H16346   9.836   2.573   4.139 -0.3289 -1.2724  0.0208
  862MOL0     H16347  10.010   2.556   4.097  1.3723 -2.3735 -0.3125
  862MOL0     H16348   9.794   2.474   3.901 -3.1093  2.0850 -0.3175
  862MOL0     H16349   9.959   2.551   3.885  1.2429 -0.1304  3.3171
  862MOL0     H16350   9.751   2.699   3.811  1.1842 -0.7630 -0.6245
  862MOL0     H16351   9.838   2.770   3.954  2.2353 -0.6121 -0.8163
  862MOL0     H16352  10.144   2.475   4.898 -1.8081  0.1008 -0.7290
  862MOL0     H16353  10.352   2.559   4.985  0.2793 -1.0021 -0.7376
  862MOL0     H16354  10.796   2.757   4.645 -0.5948 -2.5892  1.4127
  862MOL0     H16355  11.031   2.832   4.681  1.2472  0.5884 -0.2348
  862MOL0     H16356  10.619   3.740   5.806 -1.4882  0.3676  0.9954
  862MOL0     H16357  10.377   3.690   5.865 -0.8591 -2.2420  1.0809
  862MOL0     H16358   9.903   3.379   5.532  1.0052 -0.2022  1.0455
  862MOL0     H16359   9.671   3.351   5.614  0.9138  0.0516 -2.1985
  862MOL0     H16360   9.444   3.337   5.977 -2.6346  1.9753 -0.5041
  862MOL0     H16361   9.599   3.390   6.038 -1.9126 -0.9632  0.6183
  862MOL0     H16362   9.546   3.627   5.979 -2.8087  2.9789  1.8133
  862MOL0     H16363   9.427   3.549   6.084 -1.1372  1.3091  0.6458
  862MOL0     H16364   9.274   3.510   5.887 -1.6928  2.3204 -2.1759
  862MOL0     H16365   9.394   3.566   5.776  0.5177  1.3163 -0.1920
  862MOL0     H16366   9.313   3.759   5.790 -0.6813 -2.5081 -0.6679
  862MOL0     H16367   9.389   3.788   5.944 -0.8914 -0.7546  0.0010
  862MOL0     H16368   8.994   3.736   6.064  0.4519  0.0750  0.3335
  862MOL0     H16369   9.774   3.475   6.000  0.1450  1.0591  0.1385
  862MOL0     H16370  10.007   3.506   5.943 -0.2748  0.0985 -0.1680
  863MOL0     O16371  10.425   8.660   8.171 -0.3666  0.2481 -0.1586
  863MOL0     C16372  10.436   8.768   8.230  0.1879 -0.6481 -0.6405
  863MOL0     O16373  10.349   8.823   8.324 -0.2036  0.5553 -0.2175
  863MOL0     C16374  10.229   8.756   8.349 -0.4550  0.1462 -0.2070
  863MOL0     C16375  10.141   8.697   8.253 -0.9147  0.5474 -0.4018
  863MOL0     C16376  10.015   8.649   8.296 -0.4748 -0.4489  0.7350
  863MOL0     C16377   9.960   8.684   8.415 -0.8031  0.2457 -0.1682
  863MOL0     O16378   9.834   8.633   8.446 -0.5364 -0.1486  0.2520
  863MOL0     C16379   9.737   8.742   8.464 -0.1176  0.6614 -0.0878
  863MOL0     C16380   9.633   8.723   8.358 -0.1254  0.3200 -0.2648
  863MOL0     C16381   9.542   8.604   8.387  0.0133 -0.1546 -0.5254
  863MOL0     C16382   9.419   8.604   8.297  0.0683  0.7469 -0.3988
  863MOL0     C16383   9.315   8.501   8.339 -0.0759  0.7031  0.9222
  863MOL0     C16384   9.232   8.438   8.223 -0.8482  0.4637 -0.1926
  863MOL0     C16385   9.106   8.369   8.271  0.9107 -0.4170  0.4489
  863MOL0     C16386   8.983   8.462   8.303  0.1317  0.3391  0.8624
  863MOL0     N16387   8.975   8.508   8.439  0.3626 -0.3817 -0.4871
  863MOL0     C16388   8.963   8.425   8.551  0.7409 -0.5438 -0.2813
  863MOL0     C16389   9.014   8.498   8.652 -0.2554 -0.6847  0.1202
  863MOL0     C16390   9.028   8.444   8.790  1.2283 -0.1612  0.0732
  863MOL0     C16391   9.107   8.314   8.794  0.4014  0.3058 -0.0316
  863MOL0     C16392   9.110   8.265   8.935  0.1944 -0.0959  0.1720
  863MOL0     C16393   9.198   8.142   8.942  0.0169  0.4673  0.4395
  863MOL0     O16394   9.335   8.174   8.940 -0.4205  0.2406 -0.1783
  863MOL0     C16395   9.435   8.083   8.924  0.9159  0.5378  0.6908
  863MOL0     C16396   9.418   7.943   8.908  0.0101 -0.6748  0.2284
  863MOL0     C16397   9.522   7.857   8.893  0.3455  0.6140  0.2065
  863MOL0     C16398   9.488   7.713   8.890 -0.4138  0.6716 -0.1709
  863MOL0     C16399   9.653   7.910   8.881  0.2566  0.0384 -0.2656
  863MOL0     C16400   9.781   7.836   8.845  0.1079 -0.4866  0.1299
  863MOL0     O16401   9.890   7.913   8.805  0.7987  0.8523  0.7070
  863MOL0     C16402  10.006   7.855   8.753  0.5362 -0.4051  0.4714
  863MOL0     C16403  10.058   7.893   8.630 -0.0689  1.1985  0.3072
  863MOL0     C16404  10.175   7.832   8.580 -0.0381 -1.0379 -0.7059
  863MOL0     C16405  10.238   7.730   8.651 -0.5807 -0.2564  1.0427
  863MOL0     O16406  10.341   7.666   8.594  0.2236 -0.1941  0.1249
  863MOL0     C16407  10.440   7.593   8.680  0.3492 -0.5548  0.4333
  863MOL0     C16408  10.562   7.583   8.594  0.2229 -0.0839 -0.1583
  863MOL0     C16409  10.542   7.466   8.491  0.2958 -0.0608 -0.4056
  863MOL0     C16410  10.660   7.457   8.398 -0.8815 -0.2708  0.2939
  863MOL0     C16411  10.658   7.371   8.275  0.2261  0.4927  0.2994
  863MOL0     C16412  10.651   7.219   8.306 -0.6088 -0.0738 -0.0123
  863MOL0     C16413  10.693   7.138   8.183  0.9841  0.0216 -0.1661
  863MOL0     C16414  10.558   7.107   8.100  0.1237 -0.4281  0.7010
  863MOL0    Cl16415  10.495   7.258   8.025 -0.2688  0.0984 -0.1700
  863MOL0     C16416  10.188   7.695   8.776 -0.1508 -0.6055 -0.0814
  863MOL0     C16417  10.068   7.753   8.820  0.8398 -0.2366  0.1476
  863MOL0     O16418   9.773   7.713   8.841  0.1405 -1.1502  0.2892
  863MOL0     C16419   9.671   8.047   8.887  0.5707  1.5662  0.5154
  863MOL0     C16420   9.563   8.134   8.912  0.0779 -0.8182 -0.5121
  863MOL0     N16421   9.038   8.630   8.606  0.0569 -0.3502 -0.0770
  863MOL0     N16422   9.005   8.640   8.476  0.1678  0.0842 -0.1809
  863MOL0     C16423  10.043   8.742   8.508  0.1770  0.4611 -0.7017
  863MOL0     C16424  10.174   8.764   8.473  0.1523  0.0929 -0.3688
  863MOL0     C16425  10.557   8.845   8.199  0.0932 -1.0293 -0.6892
  863MOL0     C16426  10.547   8.984   8.213  0.3015  0.5370  0.0688
  863MOL0     C16427  10.661   9.056   8.196 -0.2470 -0.2349  0.7015
  863MOL0     C16428  10.786   8.999   8.162  0.1833 -0.1133 -0.0186
  863MOL0     O16429  10.899   9.077   8.158 -0.0771  0.5303  0.1621
  863MOL0     C16430  10.907   9.181   8.062 -0.2369 -0.3173 -0.1222
  863MOL0     C16431  10.893   9.323   8.129  0.5943 -0.1993 -0.1493
  863MOL0     C16432  11.002   9.349   8.236 -0.1420  0.6301 -0.1482
  863MOL0     C16433  10.970   9.276   8.374  0.1522  1.4854  0.9532
  863MOL0     C16434  10.974   9.371   8.483 -0.3521  0.2305  0.5695
  863MOL0     C16435  11.011   9.452   8.561  0.0908 -0.3466 -0.4985
  863MOL0     C16436  10.794   8.861   8.129 -1.0159  0.1612  0.3171
  863MOL0     C16437  10.679   8.786   8.147  0.2625  1.1085 -0.0548
  863MOL0     H16438  10.167   8.678   8.149 -1.8765 -3.0213 -0.1180
  863MOL0     H16439   9.948   8.616   8.217  1.8796 -0.3520 -1.4308
  863MOL0     H16440   9.692   8.737   8.564 -4.1662  0.4577 -1.7368
  863MOL0     H16441   9.782   8.840   8.448 -1.8993  1.6022  0.3714
  863MOL0     H16442   9.583   8.821   8.362  1.6808  1.2611  1.3427
  863MOL0     H16443   9.691   8.702   8.268 -1.9015  0.3543 -1.4791
  863MOL0     H16444   9.608   8.517   8.374  0.7192 -0.1545  2.4429
  863MOL0     H16445   9.503   8.610   8.489  0.3051 -0.8287 -0.3717
  863MOL0     H16446   9.371   8.702   8.287 -0.3578  0.3455 -4.0885
  863MOL0     H16447   9.447   8.583   8.193 -1.9991 -0.1982 -0.8276
  863MOL0     H16448   9.355   8.422   8.403 -0.0827  0.7514  0.9861
  863MOL0     H16449   9.252   8.552   8.411  0.6413  1.1910  1.2192
  863MOL0     H16450   9.207   8.518   8.152  3.0758  1.6839 -0.4646
  863MOL0     H16451   9.299   8.362   8.181  1.7315  0.9450  2.6975
  863MOL0     H16452   9.075   8.297   8.195 -1.3294  1.6534 -0.7323
  863MOL0     H16453   9.132   8.323   8.366 -1.3328  0.9072  1.7952
  863MOL0     H16454   8.893   8.403   8.282  0.7116  0.2263 -1.6525
  863MOL0     H16455   8.981   8.542   8.228  1.0608  0.2698  0.7526
  863MOL0     H16456   8.939   8.319   8.554 -2.3564 -0.1420 -3.7702
  863MOL0     H16457   9.072   8.525   8.850 -0.9962 -0.2001  1.8949
  863MOL0     H16458   8.923   8.428   8.817 -0.0390  2.8225 -2.4951
  863MOL0     H16459   9.206   8.333   8.752 -0.5471  1.9241 -1.6969
  863MOL0     H16460   9.054   8.239   8.734  1.2954  1.8052 -2.8677
  863MOL0     H16461   9.014   8.237   8.979 -1.0170  1.6003 -1.2295
  863MOL0     H16462   9.153   8.340   9.002  1.0087 -0.0690 -0.3676
  863MOL0     H16463   9.182   8.080   8.853 -1.0348 -1.7749  2.1084
  863MOL0     H16464   9.173   8.081   9.029 -1.1160 -0.0282 -0.2050
  863MOL0     H16465   9.317   7.905   8.913  0.0629 -1.0088 -0.9926
  863MOL0     H16466   9.492   7.675   8.788  0.8890  3.4649 -1.2751
  863MOL0     H16467   9.542   7.643   8.954 -0.3321  1.1343  0.2810
  863MOL0     H16468   9.384   7.699   8.921 -1.2013  0.7830 -2.6015
  863MOL0     H16469  10.003   7.966   8.572 -0.2869 -0.9102 -2.3130
  863MOL0     H16470  10.212   7.863   8.482  0.6169 -0.4455 -0.2724
  863MOL0     H16471  10.457   7.658   8.766  0.2919 -0.0425  0.0670
  863MOL0     H16472  10.403   7.497   8.717  0.2237 -1.2391 -1.3465
  863MOL0     H16473  10.585   7.678   8.544  3.7090 -1.2621 -1.0207
  863MOL0     H16474  10.644   7.555   8.660  0.1314 -0.9889 -0.4199
  863MOL0     H16475  10.460   7.477   8.419  0.6927 -2.0548 -1.2190
  863MOL0     H16476  10.535   7.370   8.543  1.3403 -0.4288 -0.9203
  863MOL0     H16477  10.669   7.555   8.350 -1.4888  1.4414  3.4123
  863MOL0     H16478  10.756   7.427   8.441  0.1907 -0.8705 -2.2996
  863MOL0     H16479  10.742   7.402   8.211  1.7649 -3.1946  0.2886
  863MOL0     H16480  10.573   7.402   8.213  1.1723 -1.3064 -2.0721
  863MOL0     H16481  10.733   7.201   8.376 -0.9529  3.2702  1.4719
  863MOL0     H16482  10.550   7.195   8.343 -1.3995  2.1307 -0.5788
  863MOL0     H16483  10.731   7.043   8.221 -2.8159 -0.7339  2.2926
  863MOL0     H16484  10.769   7.190   8.126  0.9401  1.7947  1.3028
  863MOL0     H16485  10.476   7.065   8.160 -0.4287 -0.0794  0.2082
  863MOL0     H16486  10.585   7.032   8.025 -1.0139 -2.6149  2.3427
  863MOL0     H16487  10.224   7.604   8.822 -1.8651 -2.4017 -2.0619
  863MOL0     H16488  10.017   7.729   8.912  1.2966  0.0095  0.4644
  863MOL0     H16489   9.762   8.098   8.856  0.0250  0.4168 -3.5144
  863MOL0     H16490   9.594   8.237   8.928 -2.3106 -0.0391 -0.5663
  863MOL0     H16491  10.011   8.757   8.611 -1.8488  0.1816 -1.2455
  863MOL0     H16492  10.237   8.799   8.553  1.4907 -1.9584 -0.4400
  863MOL0     H16493  10.464   9.039   8.257  0.0262  1.3773 -1.4215
  863MOL0     H16494  10.645   9.161   8.219 -3.5248 -0.8624  1.8148
  863MOL0     H16495  10.995   9.178   7.997 -0.0946 -0.5258  0.0750
  863MOL0     H16496  10.816   9.161   8.006  0.3071 -2.4408 -0.3565
  863MOL0     H16497  10.802   9.340   8.187  0.8736  1.0915 -0.0678
  863MOL0     H16498  10.884   9.400   8.051  0.5712  1.2465  1.2364
  863MOL0     H16499  10.985   9.456   8.252 -0.0045  1.1712 -3.0663
  863MOL0     H16500  11.098   9.315   8.197 -0.6728 -2.6045  1.0657
  863MOL0     H16501  11.021   9.180   8.389 -2.8408 -1.1610 -3.5821
  863MOL0     H16502  10.865   9.247   8.375  0.8190 -1.5962 -1.4554
  863MOL0     H16503  11.027   9.527   8.635 -0.0882  1.4977 -2.2330
  863MOL0     H16504  10.893   8.823   8.110 -0.0370  3.8784 -3.6095
  863MOL0     H16505  10.679   8.682   8.116 -1.3075  1.2451 -0.6026
  864MOL0     O16506   2.176   4.630   7.247  0.4016 -0.3452 -0.7573
  864MOL0     C16507   2.275   4.559   7.280  0.1222  0.5158 -0.2714
  864MOL0     O16508   2.275   4.422   7.257  0.0629  0.1185 -0.5323
  864MOL0     C16509   2.150   4.367   7.255 -0.1891  0.3992  1.4307
  864MOL0     C16510   2.101   4.297   7.128  0.2445  0.6812 -0.5321
  864MOL0     C16511   1.971   4.256   7.130  1.3522  0.2741  0.5532
  864MOL0     C16512   1.885   4.261   7.238 -0.4604 -0.3575  0.5316
  864MOL0     O16513   1.765   4.201   7.234 -0.0836  0.0303  0.0030
  864MOL0     C16514   1.652   4.273   7.281  0.0222  0.0621  0.2209
  864MOL0     C16515   1.547   4.281   7.167  0.6061  0.0839  0.8403
  864MOL0     C16516   1.484   4.138   7.132 -0.0275 -0.6329 -0.0835
  864MOL0     C16517   1.358   4.154   7.039 -0.4962 -0.2562  0.1421
  864MOL0     C16518   1.305   4.020   6.993  0.1326  0.2823  0.2222
  864MOL0     C16519   1.232   3.948   7.105  0.3420  0.1567  0.1659
  864MOL0     C16520   1.136   3.832   7.050 -1.0520  0.3667 -0.8338
  864MOL0     C16521   1.060   3.756   7.165  0.9469  0.8454 -0.3650
  864MOL0     N16522   0.957   3.671   7.102 -0.5896  0.3309 -0.2251
  864MOL0     C16523   0.977   3.561   7.020 -0.0239 -0.9737 -0.3141
  864MOL0     C16524   0.859   3.537   6.963 -0.5629  0.2169 -0.7820
  864MOL0     C16525   0.831   3.422   6.862 -0.0268  0.5222 -0.6592
  864MOL0     C16526   0.789   3.464   6.733 -0.6208 -0.1213 -0.4394
  864MOL0     C16527   0.745   3.341   6.652  0.8643 -0.3345 -0.4219
  864MOL0     C16528   0.588   3.314   6.661 -0.3540  0.3973 -0.1769
  864MOL0     O16529   0.544   3.205   6.583  0.0917 -0.2297  0.2392
  864MOL0     C16530   0.423   3.146   6.586  0.0614  0.1636 -0.2939
  864MOL0     C16531   0.312   3.198   6.661  0.3439  0.5186  0.0675
  864MOL0     C16532   0.185   3.131   6.668 -0.1219 -0.2218 -0.0347
  864MOL0     C16533   0.087   3.199   6.760  0.2091 -0.2998 -0.0899
  864MOL0     C16534   0.166   3.011   6.603  0.2955  0.0837  0.0646
  864MOL0     C16535   0.047   2.927   6.612  0.3829  0.9930 -0.1051
  864MOL0     O16536  -0.054   2.962   6.700 -0.0703  0.0925 -0.1695
  864MOL0     C16537  -0.162   2.885   6.701 -0.0803  0.0784  0.2386
  864MOL0     C16538  -0.264   2.922   6.616  1.3276  0.2172  0.8434
  864MOL0     C16539  -0.377   2.843   6.610 -1.0340  0.3946 -0.5995
  864MOL0     C16540  -0.393   2.730   6.696  0.5472  0.3782 -0.3106
  864MOL0     O16541  -0.508   2.659   6.697  0.0438  0.0748  0.9066
  864MOL0     C16542  -0.640   2.721   6.693 -0.4443  0.2362  0.3719
  864MOL0     C16543  -0.755   2.632   6.734 -0.2521  0.5620  0.3065
  864MOL0     C16544  -0.746   2.560   6.862  0.0051 -0.2702 -0.9448
  864MOL0     C16545  -0.873   2.484   6.908 -0.5217  0.1451 -0.3805
  864MOL0     C16546  -0.871   2.419   7.047 -0.1758  0.2443 -0.2921
  864MOL0     C16547  -0.743   2.351   7.081  0.2466 -0.1911  0.1522
  864MOL0     C16548  -0.769   2.244   7.187 -0.7384  0.4710  0.1593
  864MOL0     C16549  -0.661   2.133   7.181  0.4665  0.1506  0.7657
  864MOL0    Cl16550  -0.520   2.175   7.298  0.2984  0.5560  0.3352
  864MOL0     C16551  -0.285   2.693   6.776  0.1975 -0.9512 -0.2216
  864MOL0     C16552  -0.171   2.765   6.773 -0.3795  0.3773 -0.5201
  864MOL0     O16553   0.047   2.819   6.544  0.5259 -0.3974  0.4276
  864MOL0     C16554   0.277   2.960   6.531  0.1907 -0.1954  0.7516
  864MOL0     C16555   0.397   3.023   6.521  0.0784  0.9545 -0.3727
  864MOL0     N16556   0.770   3.627   7.028  0.1348 -0.6104 -0.3363
  864MOL0     N16557   0.825   3.705   7.113 -0.4162  0.4559  0.2728
  864MOL0     C16558   1.933   4.329   7.349  0.0732  1.2230  0.5822
  864MOL0     C16559   2.060   4.380   7.359 -0.6214  0.4718 -0.2405
  864MOL0     C16560   2.394   4.626   7.327 -0.1356 -0.3980  0.3041
  864MOL0     C16561   2.397   4.760   7.365  0.4947  1.6087 -0.2923
  864MOL0     C16562   2.514   4.823   7.394  0.0563 -0.3230  0.6717
  864MOL0     C16563   2.631   4.752   7.406  0.0461 -0.0319 -0.5587
  864MOL0     O16564   2.752   4.816   7.434  0.6615 -0.1153  0.2853
  864MOL0     C16565   2.880   4.767   7.395 -0.0791  0.4954 -0.5730
  864MOL0     C16566   2.950   4.678   7.504 -0.3514  0.1507 -0.0278
  864MOL0     C16567   2.994   4.757   7.632  0.5726  0.2503 -0.8479
  864MOL0     C16568   2.893   4.769   7.744  1.2286  0.1770  0.5440
  864MOL0     C16569   2.827   4.644   7.790 -0.5659  0.0843  0.3334
  864MOL0     C16570   2.779   4.539   7.833 -0.4760 -0.1977 -0.5752
  864MOL0     C16571   2.628   4.615   7.376  0.1267 -0.0732 -0.4844
  864MOL0     C16572   2.508   4.550   7.350  0.1319  0.8208  1.1706
  864MOL0     H16573   2.170   4.298   7.044  0.5319  1.9259 -0.3021
  864MOL0     H16574   1.936   4.208   7.039 -3.1900  1.4035  1.4493
  864MOL0     H16575   1.616   4.224   7.372  1.8660 -4.2221 -1.1048
  864MOL0     H16576   1.675   4.375   7.312 -0.1221  0.0722  0.2971
  864MOL0     H16577   1.469   4.354   7.190 -2.3052 -2.4833 -0.2197
  864MOL0     H16578   1.601   4.320   7.080  1.5727 -0.0640  1.3542
  864MOL0     H16579   1.557   4.069   7.089  1.4447 -0.9933  2.7475
  864MOL0     H16580   1.443   4.094   7.223  0.7691  0.5128  0.8641
  864MOL0     H16581   1.283   4.210   7.095  0.0108  2.6108 -1.8626
  864MOL0     H16582   1.386   4.227   6.963  2.9903 -1.8458 -0.3042
  864MOL0     H16583   1.233   4.025   6.911 -1.9848 -2.7095  1.7202
  864MOL0     H16584   1.380   3.948   6.957 -1.1508 -0.4106 -1.1622
  864MOL0     H16585   1.314   3.920   7.171  0.1581 -0.0385  0.3109
  864MOL0     H16586   1.163   4.010   7.162  1.2432 -0.6596  2.2446
  864MOL0     H16587   1.065   3.865   6.974 -1.3569  0.2966 -0.5809
  864MOL0     H16588   1.213   3.768   7.006 -0.3311  1.6684 -1.5379
  864MOL0     H16589   1.007   3.818   7.238  0.4810 -2.1559  2.0718
  864MOL0     H16590   1.126   3.686   7.217  0.0901 -1.0771 -1.7805
  864MOL0     H16591   1.073   3.517   6.995  0.0706 -0.6902 -0.4525
  864MOL0     H16592   0.935   3.387   6.856  0.7085  2.6689 -1.5167
  864MOL0     H16593   0.766   3.349   6.910  0.0191  1.6979  1.3453
  864MOL0     H16594   0.870   3.522   6.687 -2.2070  2.5103 -0.0749
  864MOL0     H16595   0.707   3.536   6.734  0.2521  0.9766 -2.1216
  864MOL0     H16596   0.810   3.256   6.676  2.4958  0.1276 -2.9342
  864MOL0     H16597   0.767   3.369   6.549  1.7549  0.0676 -0.1244
  864MOL0     H16598   0.545   3.411   6.632  2.4377  0.8614 -3.3294
  864MOL0     H16599   0.562   3.292   6.765  0.1600  0.9656  0.0742
  864MOL0     H16600   0.329   3.295   6.706  0.3678  0.9304 -0.7927
  864MOL0     H16601   0.123   3.290   6.809 -0.5286 -0.3929  0.6318
  864MOL0     H16602  -0.005   3.225   6.708  0.5657  0.2770 -0.4416
  864MOL0     H16603   0.064   3.126   6.838 -1.9453 -1.2409 -1.5055
  864MOL0     H16604  -0.261   3.010   6.552 -0.2051  0.3969  0.9846
  864MOL0     H16605  -0.465   2.868   6.551 -1.1417  4.1174  0.8610
  864MOL0     H16606  -0.647   2.804   6.764 -0.6525 -0.3557  1.0553
  864MOL0     H16607  -0.657   2.764   6.594  3.3471  0.3342 -0.4133
  864MOL0     H16608  -0.844   2.694   6.742  0.7928  2.0356  0.8928
  864MOL0     H16609  -0.764   2.568   6.646  0.5575 -2.5319  2.2999
  864MOL0     H16610  -0.723   2.647   6.924 -0.3646 -1.0236  0.2873
  864MOL0     H16611  -0.660   2.492   6.862 -1.4902 -2.2648 -1.4847
  864MOL0     H16612  -0.952   2.558   6.909  1.3552  2.2598 -0.5048
  864MOL0     H16613  -0.894   2.409   6.831 -0.1113  0.6831 -1.0290
  864MOL0     H16614  -0.947   2.340   7.052  0.4858 -0.3453  3.0436
  864MOL0     H16615  -0.891   2.499   7.118 -0.1207 -0.1565  0.1838
  864MOL0     H16616  -0.702   2.305   6.991  1.4559  0.9741  0.0646
  864MOL0     H16617  -0.665   2.421   7.112  2.5786 -2.4209 -0.3412
  864MOL0     H16618  -0.861   2.193   7.157  0.5225 -1.5111 -0.5757
  864MOL0     H16619  -0.773   2.289   7.286  1.3916  1.4112 -0.1108
  864MOL0     H16620  -0.623   2.136   7.079 -1.5466  3.3311 -0.0534
  864MOL0     H16621  -0.705   2.034   7.191  0.8405 -0.1395 -0.3374
  864MOL0     H16622  -0.274   2.598   6.828  2.2813 -0.6777 -0.0658
  864MOL0     H16623  -0.083   2.739   6.831 -0.1568  1.6772 -0.2557
  864MOL0     H16624   0.282   2.856   6.501  0.9792 -0.4084  1.5468
  864MOL0     H16625   0.475   2.962   6.476 -0.4647  2.0865 -3.0669
  864MOL0     H16626   1.865   4.344   7.432  0.7225 -3.9933  2.4079
  864MOL0     H16627   2.098   4.429   7.448 -2.0347  0.1857  0.5475
  864MOL0     H16628   2.301   4.811   7.367  0.1678  0.9940  1.4241
  864MOL0     H16629   2.524   4.930   7.403  0.9444 -0.1658 -1.5337
  864MOL0     H16630   2.861   4.711   7.303  3.5102 -3.8920  0.9853
  864MOL0     H16631   2.941   4.857   7.385 -1.7416  1.8518  0.9702
  864MOL0     H16632   3.036   4.632   7.455 -0.9179 -3.7696  2.2868
  864MOL0     H16633   2.894   4.588   7.530 -0.1832  0.3121  0.9143
  864MOL0     H16634   3.015   4.855   7.588 -0.0587  1.0426  0.5513
  864MOL0     H16635   3.089   4.720   7.670 -0.0081  0.4699  0.9070
  864MOL0     H16636   2.811   4.840   7.728  0.8083 -0.3385  0.3577
  864MOL0     H16637   2.951   4.812   7.826 -0.1847  1.7670  0.7691
  864MOL0     H16638   2.750   4.446   7.876  0.6853  0.2960  1.3584
  864MOL0     H16639   2.715   4.555   7.400 -0.7037 -1.5261 -0.9527
  864MOL0     H16640   2.499   4.442   7.336 -1.6754  0.8931  1.5308
  865MOL0     O16641   2.085   5.157   4.341 -0.0541 -0.1539  0.2621
  865MOL0     C16642   2.083   5.112   4.455 -0.0323  0.2131  1.1818
  865MOL0     O16643   1.982   5.124   4.549  0.1344 -0.3784  0.1944
  865MOL0     C16644   1.852   5.142   4.504  0.4857  0.5132 -0.0922
  865MOL0     C16645   1.804   5.267   4.465 -0.6626  0.4445  0.1282
  865MOL0     C16646   1.664   5.273   4.429 -0.2365 -0.2304  0.5055
  865MOL0     C16647   1.578   5.163   4.441 -0.2363 -0.8589  0.5826
  865MOL0     O16648   1.448   5.191   4.409  0.7987 -0.7441 -0.8405
  865MOL0     C16649   1.367   5.070   4.381  0.2039  0.1324  0.0021
  865MOL0     C16650   1.225   5.123   4.368  0.0716 -0.1780 -0.5453
  865MOL0     C16651   1.128   5.021   4.312  0.0806  0.7295 -0.2968
  865MOL0     C16652   0.993   5.028   4.376 -0.4274  0.5982 -0.2865
  865MOL0     C16653   0.922   5.154   4.328  0.4344 -0.7376 -0.1351
  865MOL0     C16654   0.784   5.158   4.386 -0.5543 -1.1676 -0.5380
  865MOL0     C16655   0.701   5.272   4.331 -0.7155 -0.1728 -1.0389
  865MOL0     C16656   0.560   5.247   4.377 -0.2774 -0.7214 -0.5567
  865MOL0     N16657   0.483   5.363   4.330  0.3449  0.5883 -0.3634
  865MOL0     C16658   0.478   5.487   4.378 -0.0832  0.3209 -0.3147
  865MOL0     C16659   0.357   5.545   4.351  0.0451  0.4388 -0.1844
  865MOL0     C16660   0.318   5.680   4.400 -0.1610  0.0496 -0.1031
  865MOL0     C16661   0.184   5.737   4.364  0.3833  0.7170  0.4978
  865MOL0     C16662   0.149   5.863   4.444 -0.5718  0.1510  0.4910
  865MOL0     C16663  -0.003   5.873   4.456 -0.2698  0.1254 -0.3391
  865MOL0     O16664  -0.058   5.992   4.499 -0.4259 -0.4901 -1.0206
  865MOL0     C16665  -0.190   6.006   4.488  0.2283  0.2981 -0.4386
  865MOL0     C16666  -0.234   6.133   4.501  0.3109 -0.0164  0.6049
  865MOL0     C16667  -0.370   6.169   4.495  0.5368 -0.1820  0.3674
  865MOL0     C16668  -0.408   6.310   4.519  0.2097 -0.2794 -0.1972
  865MOL0     C16669  -0.465   6.062   4.465 -0.3348  0.3440 -0.1572
  865MOL0     C16670  -0.613   6.083   4.463 -0.4069 -0.7471 -0.2750
  865MOL0     O16671  -0.661   6.202   4.412  0.8281 -0.0922  0.0465
  865MOL0     C16672  -0.794   6.239   4.428 -0.6847  0.6118 -0.4795
  865MOL0     C16673  -0.903   6.164   4.370  0.3992 -0.5422  0.4466
  865MOL0     C16674  -1.031   6.213   4.376  0.4786 -0.5897  0.2146
  865MOL0     C16675  -1.061   6.330   4.450  0.0257  0.0497 -0.0992
  865MOL0     O16676  -1.192   6.367   4.475 -0.1426  0.0898  0.1609
  865MOL0     C16677  -1.223   6.506   4.468  0.4655 -0.3646  0.1693
  865MOL0     C16678  -1.378   6.521   4.463 -0.3705  0.0718  0.0123
  865MOL0     C16679  -1.448   6.437   4.356  0.3147 -0.3686 -0.1140
  865MOL0     C16680  -1.593   6.481   4.324  0.1589 -0.2583  0.8833
  865MOL0     C16681  -1.664   6.528   4.457  0.0004  0.2297 -0.6908
  865MOL0     C16682  -1.804   6.591   4.431 -0.0102 -0.0750 -0.3606
  865MOL0     C16683  -1.874   6.642   4.561 -0.5887  0.4029  0.4716
  865MOL0     C16684  -1.784   6.707   4.664 -0.6534  0.6651  0.1380
  865MOL0    Cl16685  -1.893   6.776   4.791  0.0325  0.1853 -0.0042
  865MOL0     C16686  -0.950   6.409   4.494  0.2370  0.8616  0.0771
  865MOL0     C16687  -0.816   6.365   4.481 -0.6140 -0.0113  0.1545
  865MOL0     O16688  -0.683   6.003   4.515  0.0392 -0.2598  0.4990
  865MOL0     C16689  -0.416   5.932   4.446 -0.2579 -0.0133  0.5571
  865MOL0     C16690  -0.285   5.904   4.465 -0.7793  0.2368 -0.1009
  865MOL0     N16691   0.298   5.455   4.263 -0.3934 -0.8345 -0.9168
  865MOL0     N16692   0.363   5.350   4.266 -0.9075 -1.2069 -0.9407
  865MOL0     C16693   1.631   5.034   4.464  0.2073  0.7043 -0.5948
  865MOL0     C16694   1.768   5.031   4.494  0.4365  0.4967  0.0604
  865MOL0     C16695   2.207   5.045   4.505 -0.1512  0.0889  0.2408
  865MOL0     C16696   2.226   5.016   4.645 -0.0837  0.2923  0.1074
  865MOL0     C16697   2.334   4.937   4.684  0.3658 -0.8608  0.4011
  865MOL0     C16698   2.434   4.897   4.595  0.5842 -1.1921 -0.5733
  865MOL0     O16699   2.552   4.825   4.630  0.2632  0.1996  0.2006
  865MOL0     C16700   2.517   4.712   4.718  0.2192  0.1823 -0.9777
  865MOL0     C16701   2.613   4.601   4.691  0.2736 -0.5390  0.3229
  865MOL0     C16702   2.578   4.470   4.776 -0.3265  0.7909 -0.1388
  865MOL0     C16703   2.640   4.343   4.707  0.7675 -0.6666  0.0255
  865MOL0     C16704   2.545   4.288   4.611  0.0993 -0.3183  0.4914
  865MOL0     C16705   2.476   4.246   4.518 -0.0898  0.0873 -0.6453
  865MOL0     C16706   2.419   4.935   4.470 -0.5879  0.7161 -0.1641
  865MOL0     C16707   2.310   4.998   4.415 -0.3485 -0.9133 -0.5226
  865MOL0     H16708   1.859   5.360   4.471 -2.2452  1.3441  1.5194
  865MOL0     H16709   1.616   5.367   4.402 -0.8946 -1.3669 -2.6877
  865MOL0     H16710   1.392   5.025   4.285 -3.0476  0.3805 -1.1046
  865MOL0     H16711   1.383   5.004   4.466  2.0318  0.3325 -0.1470
  865MOL0     H16712   1.184   5.138   4.468  0.5127 -2.2413 -0.0100
  865MOL0     H16713   1.226   5.208   4.299  2.5328  0.2577 -0.0675
  865MOL0     H16714   1.117   5.033   4.204  3.1859 -1.5635 -1.0006
  865MOL0     H16715   1.152   4.917   4.335 -3.3031  0.0234  0.6983
  865MOL0     H16716   0.940   4.935   4.354  1.4590 -0.5030 -0.3201
  865MOL0     H16717   1.007   5.035   4.485  2.4332 -0.7297 -0.4745
  865MOL0     H16718   0.975   5.247   4.351  1.5964 -1.0763 -1.3878
  865MOL0     H16719   0.915   5.150   4.219 -0.8223 -0.1624 -0.1059
  865MOL0     H16720   0.740   5.058   4.376  1.3031 -2.5322  2.9756
  865MOL0     H16721   0.796   5.179   4.493 -1.3032  0.1860 -0.7026
  865MOL0     H16722   0.739   5.369   4.365 -2.0507  0.1601 -0.4268
  865MOL0     H16723   0.716   5.284   4.223  0.8270 -0.6206 -0.8974
  865MOL0     H16724   0.561   5.229   4.485  0.8425 -2.0206 -0.7492
  865MOL0     H16725   0.506   5.160   4.339 -0.0565  0.2317 -3.3098
  865MOL0     H16726   0.546   5.521   4.456  1.5425 -0.6328 -1.2712
  865MOL0     H16727   0.337   5.685   4.507  1.8280  0.5161 -0.4238
  865MOL0     H16728   0.388   5.757   4.365  0.9082 -0.4670  0.8454
  865MOL0     H16729   0.120   5.650   4.381  2.6243 -1.3656 -1.0207
  865MOL0     H16730   0.179   5.766   4.259 -0.9713  4.6465  1.4654
  865MOL0     H16731   0.191   5.952   4.396  2.6277 -0.6950  1.4611
  865MOL0     H16732   0.193   5.858   4.544 -0.5787 -1.6630  0.4432
  865MOL0     H16733  -0.029   5.793   4.526 -0.5403 -0.1551 -0.7548
  865MOL0     H16734  -0.040   5.859   4.354 -0.5936  2.9883 -0.7006
  865MOL0     H16735  -0.156   6.207   4.518  0.9116 -0.3177 -0.7276
  865MOL0     H16736  -0.484   6.321   4.597  0.7497  1.6584  0.1047
  865MOL0     H16737  -0.324   6.376   4.541 -1.2216  2.0552 -1.3398
  865MOL0     H16738  -0.458   6.348   4.429 -0.5539 -2.4800 -0.7660
  865MOL0     H16739  -0.900   6.064   4.326 -0.3450  1.5124 -5.0329
  865MOL0     H16740  -1.117   6.160   4.336 -0.9484  2.3462 -0.9388
  865MOL0     H16741  -1.186   6.569   4.550  0.3302  0.3285 -0.2864
  865MOL0     H16742  -1.182   6.545   4.375  1.7892  1.2076  1.3404
  865MOL0     H16743  -1.400   6.483   4.563 -2.5248 -3.0716 -1.4619
  865MOL0     H16744  -1.399   6.628   4.457  1.1818  0.4429  0.6643
  865MOL0     H16745  -1.442   6.334   4.393  0.6219 -0.3089  0.0046
  865MOL0     H16746  -1.382   6.442   4.269 -1.1211  0.3334 -1.2104
  865MOL0     H16747  -1.596   6.556   4.244 -2.2379 -4.2922 -3.2826
  865MOL0     H16748  -1.647   6.396   4.283  2.0618 -0.4809 -1.4241
  865MOL0     H16749  -1.604   6.597   4.517 -0.9202 -1.1022  1.8643
  865MOL0     H16750  -1.684   6.439   4.517 -0.7447 -0.2721 -1.6527
  865MOL0     H16751  -1.787   6.679   4.367  0.3175  0.2552  0.1669
  865MOL0     H16752  -1.873   6.523   4.381  0.0831  0.1947 -0.8677
  865MOL0     H16753  -1.916   6.556   4.614  1.2153 -1.2746 -0.6836
  865MOL0     H16754  -1.951   6.715   4.535 -0.4117 -0.4294 -2.9314
  865MOL0     H16755  -1.722   6.780   4.611 -0.9009 -1.2732 -3.1438
  865MOL0     H16756  -1.719   6.634   4.713 -1.7417  1.0141  2.2141
  865MOL0     H16757  -0.970   6.508   4.535  1.4170  1.9317 -1.7503
  865MOL0     H16758  -0.738   6.432   4.515 -0.7815  0.9139 -1.2135
  865MOL0     H16759  -0.489   5.853   4.433 -0.3242  0.0955  0.2504
  865MOL0     H16760  -0.248   5.802   4.467  2.4446  1.3034  0.6912
  865MOL0     H16761   1.572   4.944   4.455 -0.9346  1.5371 -1.8974
  865MOL0     H16762   1.802   4.932   4.522 -1.5714  0.1785  1.5722
  865MOL0     H16763   2.154   5.043   4.722 -2.4322 -0.7288 -1.5876
  865MOL0     H16764   2.342   4.909   4.789 -1.6899  0.4738  0.9909
  865MOL0     H16765   2.520   4.741   4.823  1.7041 -1.1319 -0.6152
  865MOL0     H16766   2.414   4.678   4.700 -0.2478 -0.8922  2.8334
  865MOL0     H16767   2.711   4.633   4.728 -1.4965  2.9717  2.5310
  865MOL0     H16768   2.603   4.580   4.584 -1.5227 -2.5366  0.8110
  865MOL0     H16769   2.470   4.460   4.790 -0.6854  1.4876 -2.0521
  865MOL0     H16770   2.636   4.476   4.869 -0.5319  1.0044 -0.0216
  865MOL0     H16771   2.654   4.272   4.789 -0.3001  0.2028  1.0161
  865MOL0     H16772   2.729   4.381   4.657  0.9548 -0.2908  0.6305
  865MOL0     H16773   2.411   4.197   4.448  0.2455 -2.5086  0.7100
  865MOL0     H16774   2.499   4.918   4.399 -1.8274  0.1941 -1.5072
  865MOL0     H16775   2.307   5.022   4.309  0.6001  0.4687 -0.2766
  866MOL0     O16776   2.761   1.256  11.131 -0.4720 -0.0601 -0.5109
  866MOL0     C16777   2.811   1.161  11.070  0.9299 -0.0372 -0.4147
  866MOL0     O16778   2.733   1.059  11.021  0.4453 -0.7053  0.3464
  866MOL0     C16779   2.592   1.070  11.020 -1.0232 -0.2104  0.4464
  866MOL0     C16780   2.548   0.956  10.955 -0.6870  0.6729  1.1434
  866MOL0     C16781   2.419   0.903  10.973  0.0060  0.8902  0.3203
  866MOL0     C16782   2.315   0.996  11.011 -0.9534 -0.1913  0.3700
  866MOL0     O16783   2.184   0.968  10.997  0.5422 -0.3429 -0.4683
  866MOL0     C16784   2.127   0.850  10.938 -0.3082  0.4006 -0.1149
  866MOL0     C16785   1.972   0.863  10.929 -0.6027 -0.1641  0.1433
  866MOL0     C16786   1.906   0.864  11.071  0.5665  0.1786 -0.0948
  866MOL0     C16787   1.751   0.856  11.071 -0.1181  0.4438  0.1226
  866MOL0     C16788   1.698   0.840  11.221  0.6657 -0.5291  0.1749
  866MOL0     C16789   1.562   0.769  11.205  0.4220  0.1097  0.2946
  866MOL0     C16790   1.511   0.704  11.335 -0.1100  0.5100  0.2057
  866MOL0     C16791   1.458   0.806  11.438 -1.0892  0.6729 -0.0079
  866MOL0     N16792   1.328   0.787  11.482  0.0570  0.3739 -1.3820
  866MOL0     C16793   1.226   0.862  11.428 -0.2086  0.0131  0.4998
  866MOL0     C16794   1.127   0.854  11.515 -0.0252 -0.4731  0.6080
  866MOL0     C16795   0.990   0.924  11.512  0.6954 -0.1695  1.1958
  866MOL0     C16796   0.990   1.037  11.617 -0.1601 -0.5225 -0.1228
  866MOL0     C16797   1.133   1.097  11.668  0.8994  1.0563  0.4682
  866MOL0     C16798   1.090   1.214  11.754 -0.0711  0.0906 -0.1840
  866MOL0     O16799   1.004   1.159  11.854 -0.4885 -0.5206 -0.5686
  866MOL0     C16800   0.898   1.229  11.911  0.5169  0.8170  0.0664
  866MOL0     C16801   0.783   1.158  11.946 -0.1714 -0.0734 -0.7029
  866MOL0     C16802   0.668   1.226  12.003  0.0549 -0.0486 -0.7369
  866MOL0     C16803   0.549   1.134  12.044  0.4526  0.2775  0.8961
  866MOL0     C16804   0.658   1.365  12.011 -0.0932  0.3771  0.3205
  866MOL0     C16805   0.549   1.447  12.054 -0.4166 -0.7494 -0.3861
  866MOL0     O16806   0.419   1.402  12.056  0.8779  0.0443  0.6084
  866MOL0     C16807   0.309   1.462  12.112  0.5437  0.0344 -0.2861
  866MOL0     C16808   0.289   1.468  12.247 -0.1014  0.1642  0.8495
  866MOL0     C16809   0.171   1.528  12.297 -1.3384 -0.3356 -0.5882
  866MOL0     C16810   0.081   1.589  12.212  0.9927  0.2592  0.4939
  866MOL0     O16811  -0.024   1.664  12.246 -0.0573 -0.5016 -0.3794
  866MOL0     C16812  -0.109   1.620  12.357  0.4944 -0.2452  0.1338
  866MOL0     C16813  -0.239   1.705  12.349  0.0119 -0.9688  0.5501
  866MOL0     C16814  -0.342   1.688  12.456  0.0809 -1.0381  0.5131
  866MOL0     C16815  -0.457   1.787  12.435  0.1786 -0.4797  0.6118
  866MOL0     C16816  -0.559   1.762  12.540  0.4272  1.1108 -0.0853
  866MOL0     C16817  -0.676   1.862  12.517 -0.2889  0.0105  0.3953
  866MOL0     C16818  -0.767   1.858  12.637  0.6570  0.1719 -0.7401
  866MOL0     C16819  -0.846   1.989  12.662  0.3843 -0.5281 -0.1673
  866MOL0    Cl16820  -0.931   2.059  12.512 -0.5323  0.1938 -0.1400
  866MOL0     C16821   0.097   1.584  12.072 -0.0044 -0.1629 -0.9484
  866MOL0     C16822   0.212   1.521  12.028  0.1803 -0.8911 -0.3332
  866MOL0     O16823   0.580   1.556  12.098  0.1897 -0.0985 -0.9140
  866MOL0     C16824   0.780   1.427  11.966  0.2347 -0.2278  0.0193
  866MOL0     C16825   0.899   1.367  11.926 -0.0660  1.2365 -0.0745
  866MOL0     N16826   1.162   0.768  11.615  0.0359 -0.2068 -0.4691
  866MOL0     N16827   1.282   0.728  11.598 -0.1961 -0.3299  0.0054
  866MOL0     C16828   2.354   1.116  11.051 -0.5209  0.4678  0.4878
  866MOL0     C16829   2.494   1.164  11.064  1.4780 -0.9636  0.0282
  866MOL0     C16830   2.958   1.153  11.052  0.6563  0.1490  0.7536
  866MOL0     C16831   3.031   1.046  10.991 -0.5094  0.3972 -0.2772
  866MOL0     C16832   3.170   1.047  10.965  0.4386 -0.5682 -0.7322
  866MOL0     C16833   3.244   1.155  11.017  0.4295  0.6503  0.7429
  866MOL0     O16834   3.380   1.134  11.009 -0.2508  0.3878 -0.0249
  866MOL0     C16835   3.472   1.235  11.050  0.2558 -0.6838 -0.0368
  866MOL0     C16836   3.609   1.218  10.985  0.1289  0.3760 -0.2243
  866MOL0     C16837   3.677   1.096  11.057 -0.5886  0.0645  0.7083
  866MOL0     C16838   3.822   1.111  11.023 -0.3161 -0.3676 -0.1986
  866MOL0     C16839   3.864   1.059  10.896  0.2501  0.5195  1.5080
  866MOL0     C16840   3.906   1.009  10.791  0.0324  0.8923 -0.1518
  866MOL0     C16841   3.171   1.266  11.071 -0.3782  1.0907 -0.5293
  866MOL0     C16842   3.033   1.256  11.096  0.0160  0.4976 -0.5323
  866MOL0     H16843   2.627   0.894  10.912 -3.1170 -0.6565 -1.7624
  866MOL0     H16844   2.389   0.803  10.940 -1.7647  1.1390  1.0461
  866MOL0     H16845   2.166   0.828  10.838  2.2905  2.3093  0.3595
  866MOL0     H16846   2.159   0.765  10.999  0.2651 -0.1810 -1.1915
  866MOL0     H16847   1.940   0.953  10.875 -1.0001 -0.6472 -0.4556
  866MOL0     H16848   1.937   0.774  10.874  1.9292 -1.4255  0.4524
  866MOL0     H16849   1.959   0.789  11.130  0.1490  0.9692  1.3584
  866MOL0     H16850   1.932   0.956  11.124  0.3395  1.0342 -1.4150
  866MOL0     H16851   1.708   0.945  11.025 -0.6281 -1.6808 -4.0198
  866MOL0     H16852   1.729   0.775  11.000  1.4033 -0.1432  0.2662
  866MOL0     H16853   1.773   0.772  11.264  5.1329  1.2096 -3.8949
  866MOL0     H16854   1.693   0.933  11.279 -2.5645 -1.8623  2.2975
  866MOL0     H16855   1.485   0.840  11.172 -0.3337 -1.3673 -1.2897
  866MOL0     H16856   1.556   0.695  11.125 -2.0368 -0.0587  0.5323
  866MOL0     H16857   1.438   0.627  11.310  3.1121 -3.0718  0.7422
  866MOL0     H16858   1.591   0.642  11.379  2.1948  1.5379 -2.2759
  866MOL0     H16859   1.462   0.908  11.398  3.5317  0.1823 -1.3928
  866MOL0     H16860   1.535   0.802  11.515 -0.5165  3.3752 -0.3224
  866MOL0     H16861   1.239   0.919  11.337  2.6557 -1.1258  0.0864
  866MOL0     H16862   0.976   0.976  11.417 -0.2220  4.2898  3.4859
  866MOL0     H16863   0.908   0.852  11.520  0.8490 -0.3160  1.5048
  866MOL0     H16864   0.945   0.980  11.699 -1.9186 -0.2163 -0.8355
  866MOL0     H16865   0.918   1.115  11.588 -0.0294  0.1194  1.2099
  866MOL0     H16866   1.199   1.123  11.585 -0.6249  0.4495 -0.9786
  866MOL0     H16867   1.184   1.020  11.727 -0.6072 -0.2924  0.0836
  866MOL0     H16868   1.031   1.280  11.689 -2.7390 -2.5624 -0.7158
  866MOL0     H16869   1.178   1.268  11.788 -0.8916  0.4970  1.3714
  866MOL0     H16870   0.782   1.050  11.941  1.7170 -0.2611  1.3465
  866MOL0     H16871   0.490   1.177  12.126 -3.6234 -3.1138  0.0988
  866MOL0     H16872   0.482   1.146  11.958 -0.0005  0.7156  1.3011
  866MOL0     H16873   0.564   1.028  12.062 -2.4576 -0.4286 -0.1407
  866MOL0     H16874   0.365   1.425  12.310  4.0878  2.8890 -1.8385
  866MOL0     H16875   0.145   1.529  12.402  1.0918 -1.2942  0.1116
  866MOL0     H16876  -0.143   1.516  12.356 -3.0496  0.7202 -3.1028
  866MOL0     H16877  -0.052   1.651  12.445 -0.2212  3.4802 -0.5636
  866MOL0     H16878  -0.208   1.810  12.341  0.1174 -0.9965  0.6040
  866MOL0     H16879  -0.287   1.674  12.256  0.7454 -2.6835  0.7170
  866MOL0     H16880  -0.294   1.723  12.548  1.7221  0.8934 -0.9947
  866MOL0     H16881  -0.381   1.586  12.453 -0.7654 -0.7002 -0.4992
  866MOL0     H16882  -0.411   1.886  12.446 -2.1117  0.6936  0.2699
  866MOL0     H16883  -0.500   1.777  12.335  1.2775  3.2206 -0.4245
  866MOL0     H16884  -0.516   1.765  12.641 -1.9209  3.0583  0.9644
  866MOL0     H16885  -0.595   1.658  12.535  3.0511 -0.1625  3.2450
  866MOL0     H16886  -0.623   1.957  12.531 -0.7637  0.4439 -0.6231
  866MOL0     H16887  -0.735   1.855  12.425  0.9116 -0.4130 -0.3661
  866MOL0     H16888  -0.720   1.829  12.732 -1.0166  0.4142  0.1995
  866MOL0     H16889  -0.827   1.769  12.615 -0.9928 -0.1177  3.8132
  866MOL0     H16890  -0.772   2.065  12.688 -0.6458  0.8079 -0.9998
  866MOL0     H16891  -0.915   1.975  12.745  0.5600  0.4751  0.1625
  866MOL0     H16892   0.022   1.630  12.008 -1.7424  0.2424  1.2751
  866MOL0     H16893   0.253   1.526  11.927 -1.0647 -0.9305 -0.8543
  866MOL0     H16894   0.771   1.535  11.961 -3.3674 -0.4154 -0.0391
  866MOL0     H16895   0.994   1.414  11.900  0.9734 -2.0420 -2.9103
  866MOL0     H16896   2.285   1.186  11.096  0.2431  1.6367 -0.0910
  866MOL0     H16897   2.506   1.261  11.111  0.2489 -1.4583  1.4181
  866MOL0     H16898   2.967   0.963  10.962  1.6720 -0.8376 -1.8625
  866MOL0     H16899   3.220   0.964  10.916 -1.4556 -1.5743 -1.0576
  866MOL0     H16900   3.438   1.337  11.026  1.8135 -0.3037 -0.7710
  866MOL0     H16901   3.480   1.240  11.159  0.7411  0.6606 -0.1148
  866MOL0     H16902   3.680   1.300  10.997  2.2729 -1.6642  2.3153
  866MOL0     H16903   3.605   1.208  10.876 -2.5021  0.6953 -0.2141
  866MOL0     H16904   3.633   0.996  11.045  0.4270 -0.2740 -0.4117
  866MOL0     H16905   3.676   1.110  11.165  1.4102 -2.1122  1.0776
  866MOL0     H16906   3.881   1.050  11.092 -2.0734 -3.1856 -1.0441
  866MOL0     H16907   3.853   1.216  11.027 -1.1587  0.0045 -2.2833
  866MOL0     H16908   3.957   0.963  10.708  1.7607  1.9711  0.2454
  866MOL0     H16909   3.224   1.352  11.112 -1.5196  1.3468  0.4707
  866MOL0     H16910   2.984   1.334  11.153 -2.6641  0.1779 -2.2471
  867MOL0     O16911   0.806   0.898   7.997 -0.8469  0.5511 -0.1543
  867MOL0     C16912   0.788   0.895   8.123 -0.4957 -0.6700 -0.4248
  867MOL0     O16913   0.678   0.957   8.187  0.1973  0.5002  0.1556
  867MOL0     C16914   0.577   1.001   8.107  0.7688 -0.3363 -0.2646
  867MOL0     C16915   0.558   1.136   8.085  0.5261 -0.4565  0.0480
  867MOL0     C16916   0.433   1.177   8.010 -0.2604 -0.3597 -0.9593
  867MOL0     C16917   0.334   1.084   7.962  0.1637 -0.5840  0.1219
  867MOL0     O16918   0.226   1.138   7.903  0.7513  0.3157  0.8388
  867MOL0     C16919   0.174   1.075   7.784  1.2141 -0.3518 -0.3800
  867MOL0     C16920   0.082   1.184   7.716  0.1265 -0.3696 -0.0458
  867MOL0     C16921  -0.053   1.189   7.792  0.2475 -0.1543  0.2138
  867MOL0     C16922  -0.135   1.298   7.733 -0.4856  0.0123 -0.4139
  867MOL0     C16923  -0.273   1.306   7.792  0.0123 -0.0242  0.3558
  867MOL0     C16924  -0.362   1.424   7.738 -0.7633  0.2146  0.0716
  867MOL0     C16925  -0.511   1.410   7.765 -0.2988  0.1758 -0.2245
  867MOL0     C16926  -0.602   1.404   7.648  0.3737  0.7432 -0.2334
  867MOL0     N16927  -0.747   1.375   7.680 -0.4867 -0.6186 -0.8305
  867MOL0     C16928  -0.788   1.253   7.730  0.0482  0.2346 -0.6893
  867MOL0     C16929  -0.921   1.267   7.750  0.2407 -0.2232 -0.9602
  867MOL0     C16930  -1.018   1.159   7.775 -0.8674 -0.7195  0.3523
  867MOL0     C16931  -1.132   1.145   7.662 -0.0555 -0.0041 -0.0869
  867MOL0     C16932  -1.234   1.259   7.692  0.0900  0.1270  0.1891
  867MOL0     C16933  -1.372   1.205   7.655  0.6860 -0.9582 -0.0882
  867MOL0     O16934  -1.380   1.140   7.530  0.0348 -0.1711  0.5721
  867MOL0     C16935  -1.506   1.120   7.478  0.0683 -0.3259 -0.9804
  867MOL0     C16936  -1.535   1.162   7.345  0.5706  0.8874 -0.3476
  867MOL0     C16937  -1.666   1.154   7.299  0.3948  0.5298  0.2191
  867MOL0     C16938  -1.697   1.223   7.170 -0.8369 -0.2447 -0.5776
  867MOL0     C16939  -1.768   1.083   7.375 -0.6497 -0.3919  1.1223
  867MOL0     C16940  -1.905   1.051   7.325  0.7563 -0.3912 -1.0521
  867MOL0     O16941  -1.990   0.991   7.420  0.2966 -0.3902  0.2081
  867MOL0     C16942  -2.116   0.966   7.380 -0.4514  0.0274 -0.3693
  867MOL0     C16943  -2.163   0.833   7.377  0.7968  1.3338 -0.3290
  867MOL0     C16944  -2.294   0.807   7.325 -1.2284  0.5001  0.1905
  867MOL0     C16945  -2.377   0.910   7.284  0.3964  0.6161  0.4983
  867MOL0     O16946  -2.504   0.879   7.250 -0.2755 -0.8317  0.7259
  867MOL0     C16947  -2.601   0.983   7.243  0.5917 -0.6900  0.5564
  867MOL0     C16948  -2.747   0.925   7.244 -0.5066 -0.3590 -0.8449
  867MOL0     C16949  -2.836   1.037   7.190 -1.3272  0.2166 -1.7473
  867MOL0     C16950  -2.964   0.992   7.126  0.5806  0.3536  0.0136
  867MOL0     C16951  -2.963   0.950   6.978  0.0007  0.2694  0.1695
  867MOL0     C16952  -3.079   0.856   6.936 -0.2696 -0.1655 -0.1787
  867MOL0     C16953  -3.114   0.869   6.792  0.6374 -0.0624 -0.4177
  867MOL0     C16954  -3.236   0.780   6.750 -0.3592  0.3790  1.0691
  867MOL0    Cl16955  -3.395   0.848   6.811 -0.2794  0.3192  0.2498
  867MOL0     C16956  -2.328   1.044   7.294  0.3499  0.4404  0.0778
  867MOL0     C16957  -2.204   1.073   7.343 -0.0584 -0.0551 -0.2375
  867MOL0     O16958  -1.932   1.066   7.208 -0.6804 -0.6627  0.5679
  867MOL0     C16959  -1.733   1.045   7.505  0.8077  0.1988  1.1336
  867MOL0     C16960  -1.610   1.066   7.553 -0.3279 -0.0463  0.1027
  867MOL0     N16961  -0.960   1.402   7.738  0.1410  0.1981 -0.1517
  867MOL0     N16962  -0.850   1.456   7.690  0.1096  0.2452 -0.0709
  867MOL0     C16963   0.371   0.948   7.974  0.2482 -0.7414  0.4492
  867MOL0     C16964   0.485   0.906   8.047 -0.4784  0.0345 -0.1785
  867MOL0     C16965   0.886   0.820   8.210  0.5263 -0.0018 -0.4943
  867MOL0     C16966   0.962   0.717   8.150 -0.1735  0.0886 -1.2356
  867MOL0     C16967   1.055   0.653   8.235  0.3245  0.0107 -0.7422
  867MOL0     C16968   1.064   0.680   8.376 -0.6619  0.4692  0.2498
  867MOL0     O16969   1.161   0.611   8.442 -0.3972 -0.2624 -0.4520
  867MOL0     C16970   1.195   0.650   8.578 -0.0412 -0.1104 -0.7285
  867MOL0     C16971   1.306   0.573   8.638  0.3478  0.0478 -0.1559
  867MOL0     C16972   1.274   0.422   8.637 -0.3409 -0.4785 -0.3393
  867MOL0     C16973   1.366   0.338   8.724 -0.3793  1.0748  0.0208
  867MOL0     C16974   1.512   0.330   8.688  0.4263  0.7162 -0.1528
  867MOL0     C16975   1.616   0.335   8.641  0.4180  0.8148 -0.4549
  867MOL0     C16976   0.982   0.781   8.429 -0.1464 -0.3958 -0.1813
  867MOL0     C16977   0.899   0.854   8.341  0.8575 -0.3305  0.0684
  867MOL0     H16978   0.627   1.204   8.134  1.8883 -3.0483  2.0037
  867MOL0     H16979   0.421   1.285   8.001 -0.8195 -0.3060  0.2133
  867MOL0     H16980   0.246   1.035   7.712  0.7701  1.5890 -1.9843
  867MOL0     H16981   0.112   0.991   7.816  1.5282 -0.2214  0.6118
  867MOL0     H16982   0.139   1.276   7.731 -0.4907  0.0364 -0.1391
  867MOL0     H16983   0.067   1.165   7.609  2.0323 -0.6168 -0.3107
  867MOL0     H16984  -0.105   1.093   7.789  1.9830 -1.1102 -0.5795
  867MOL0     H16985  -0.042   1.213   7.899  0.3661 -0.7928  0.3452
  867MOL0     H16986  -0.079   1.392   7.744  1.0713 -0.9482  0.3027
  867MOL0     H16987  -0.135   1.293   7.624 -1.0667 -0.4511 -0.3958
  867MOL0     H16988  -0.322   1.210   7.775 -1.5712  0.9399 -0.8796
  867MOL0     H16989  -0.257   1.317   7.900  1.2763 -3.1049  0.5664
  867MOL0     H16990  -0.333   1.523   7.775  0.2243 -0.3854  0.9407
  867MOL0     H16991  -0.352   1.421   7.630  1.1068  1.6475  0.1635
  867MOL0     H16992  -0.536   1.341   7.845 -2.0351 -0.4526 -1.2447
  867MOL0     H16993  -0.537   1.510   7.802  0.2065  0.5606 -0.8701
  867MOL0     H16994  -0.578   1.319   7.584 -1.5670  1.3868 -1.9361
  867MOL0     H16995  -0.582   1.497   7.593  1.4834  0.2489 -0.6954
  867MOL0     H16996  -0.730   1.161   7.736 -0.8650 -0.2897  0.5173
  867MOL0     H16997  -0.967   1.062   7.772  0.1197 -0.1880 -0.8655
  867MOL0     H16998  -1.051   1.180   7.878  0.7786 -1.0551  0.9822
  867MOL0     H16999  -1.173   1.046   7.686  0.6041 -1.2469 -3.6012
  867MOL0     H17000  -1.091   1.143   7.561  0.1024 -0.6572 -0.0189
  867MOL0     H17001  -1.206   1.349   7.637 -1.8565  0.3236 -0.5820
  867MOL0     H17002  -1.236   1.276   7.800 -0.8500  1.7067 -0.0333
  867MOL0     H17003  -1.438   1.292   7.654 -1.3651 -2.4238  0.6624
  867MOL0     H17004  -1.412   1.134   7.729 -2.7963 -2.3283 -3.0013
  867MOL0     H17005  -1.456   1.198   7.280  1.0215 -0.5863 -0.6441
  867MOL0     H17006  -1.633   1.311   7.154 -0.9559 -0.0691 -0.1119
  867MOL0     H17007  -1.695   1.154   7.085 -1.5757  0.4661 -1.1985
  867MOL0     H17008  -1.797   1.268   7.173 -0.4245  0.7098 -0.5007
  867MOL0     H17009  -2.105   0.744   7.400 -0.7884 -0.1603 -1.8220
  867MOL0     H17010  -2.326   0.703   7.323 -1.7938  0.6663  0.3882
  867MOL0     H17011  -2.586   1.060   7.319 -1.9593  2.7393 -2.0796
  867MOL0     H17012  -2.595   1.035   7.147  0.6296 -0.1308  0.8566
  867MOL0     H17013  -2.763   0.839   7.179  0.0530 -1.0494 -0.0853
  867MOL0     H17014  -2.775   0.884   7.342  0.1310 -3.4034 -1.8358
  867MOL0     H17015  -2.783   1.090   7.110 -0.6329 -1.6378 -2.5758
  867MOL0     H17016  -2.863   1.101   7.274 -1.1569  0.8882 -2.1953
  867MOL0     H17017  -3.015   0.913   7.181 -0.3405  0.0292 -1.2627
  867MOL0     H17018  -3.029   1.080   7.126  0.0664  0.0767 -2.7305
  867MOL0     H17019  -2.865   0.903   6.963  0.1325  0.2839  0.9170
  867MOL0     H17020  -2.961   1.042   6.919  0.9471 -1.3442 -2.5254
  867MOL0     H17021  -3.031   0.758   6.943 -0.7118 -0.7994 -3.9638
  867MOL0     H17022  -3.172   0.866   6.992 -0.0252 -0.7031  0.3368
  867MOL0     H17023  -3.024   0.841   6.736  0.2497 -0.5883 -0.7830
  867MOL0     H17024  -3.143   0.973   6.775 -1.1586  0.3194  3.7445
  867MOL0     H17025  -3.227   0.677   6.784  1.6422 -0.6040 -2.0908
  867MOL0     H17026  -3.257   0.778   6.643  0.4454 -3.8933  0.8336
  867MOL0     H17027  -2.390   1.126   7.258 -0.8367 -1.4995 -2.7228
  867MOL0     H17028  -2.169   1.175   7.356 -1.1809  0.1349  1.5318
  867MOL0     H17029  -1.798   0.992   7.574  3.0707 -2.0200  1.7282
  867MOL0     H17030  -1.585   1.022   7.648 -2.4305 -3.1636 -0.6237
  867MOL0     H17031   0.312   0.875   7.920  0.3133 -0.3589 -0.1416
  867MOL0     H17032   0.514   0.801   8.053  1.5401  0.5931  0.5474
  867MOL0     H17033   0.944   0.689   8.047 -1.0326  3.5405 -2.1655
  867MOL0     H17034   1.118   0.580   8.183 -1.8451  0.2499 -4.0123
  867MOL0     H17035   1.210   0.758   8.580  0.6030 -0.1422  2.9132
  867MOL0     H17036   1.112   0.633   8.647  0.3554 -2.4869 -0.7546
  867MOL0     H17037   1.332   0.604   8.740 -0.4114  0.2926 -0.0303
  867MOL0     H17038   1.399   0.585   8.582 -0.0672  0.8559 -0.6854
  867MOL0     H17039   1.278   0.394   8.532  3.2391  2.7975 -1.3209
  867MOL0     H17040   1.174   0.388   8.665  0.0785 -1.3464  0.1435
  867MOL0     H17041   1.331   0.234   8.735 -1.2816  1.2340 -1.2219
  867MOL0     H17042   1.372   0.375   8.827  0.5398 -0.0948  0.4198
  867MOL0     H17043   1.716   0.339   8.604  0.1292 -1.6033 -1.6598
  867MOL0     H17044   0.982   0.820   8.530  2.4955  1.9722 -0.9584
  867MOL0     H17045   0.840   0.938   8.377  3.2831  1.9154 -0.8751
  868MOL0     O17046   1.407   9.288   5.518  0.0307 -0.0180  0.8194
  868MOL0     C17047   1.487   9.240   5.603 -0.2461  0.0778 -0.2712
  868MOL0     O17048   1.457   9.186   5.717 -0.1634  1.2910 -0.0859
  868MOL0     C17049   1.330   9.164   5.742 -0.1968  0.4790  0.5778
  868MOL0     C17050   1.268   9.228   5.850 -0.3183  1.4248  0.6534
  868MOL0     C17051   1.135   9.195   5.869 -0.3635 -0.2721 -0.3553
  868MOL0     C17052   1.061   9.109   5.783  0.1897  0.6416 -0.2738
  868MOL0     O17053   0.927   9.097   5.795  0.7092  0.0585 -0.7738
  868MOL0     C17054   0.867   9.098   5.926  0.9810  0.2651 -0.5144
  868MOL0     C17055   0.717   9.123   5.898  0.8929  0.5927  1.4119
  868MOL0     C17056   0.647   9.090   6.031 -0.0222 -0.4911 -0.0531
  868MOL0     C17057   0.503   9.136   6.023  0.4362  0.5594  0.2505
  868MOL0     C17058   0.494   9.280   6.063 -0.7709 -0.1880 -0.0163
  868MOL0     C17059   0.347   9.325   6.079 -0.7780  0.1560  0.4567
  868MOL0     C17060   0.275   9.338   5.944 -0.4687 -0.4000 -0.3553
  868MOL0     C17061   0.140   9.408   5.947  0.0691 -0.6348  0.0887
  868MOL0     N17062   0.038   9.316   6.003 -0.3630  0.1146 -0.3542
  868MOL0     C17063   0.011   9.290   6.140 -0.2517 -0.3569  0.6112
  868MOL0     C17064  -0.070   9.185   6.143 -0.1177 -1.2209 -0.5670
  868MOL0     C17065  -0.147   9.132   6.270  0.0095  0.6432  0.0273
  868MOL0     C17066  -0.284   9.201   6.291 -0.2935  0.8268 -0.4861
  868MOL0     C17067  -0.327   9.197   6.441 -0.2849  0.1671  0.0855
  868MOL0     C17068  -0.467   9.261   6.452  0.5717  0.1791 -0.3418
  868MOL0     O17069  -0.452   9.385   6.387  0.8510 -0.3097  0.0935
  868MOL0     C17070  -0.571   9.459   6.376  0.2245  0.2205 -0.1494
  868MOL0     C17071  -0.557   9.590   6.353 -0.8657 -0.7619 -0.5316
  868MOL0     C17072  -0.657   9.689   6.356  0.6638 -0.1713 -0.7889
  868MOL0     C17073  -0.615   9.831   6.325  0.4183 -0.0628  0.1584
  868MOL0     C17074  -0.786   9.646   6.380 -1.0533  0.3224  0.4053
  868MOL0     C17075  -0.907   9.728   6.390 -0.0431 -0.6632  0.0423
  868MOL0     O17076  -1.025   9.661   6.420 -0.3219 -1.1733 -0.2566
  868MOL0     C17077  -1.147   9.718   6.456 -0.4372  1.2137  0.1725
  868MOL0     C17078  -1.255   9.632   6.445  0.2613  0.4854 -0.3892
  868MOL0     C17079  -1.387   9.674   6.489  0.4002  0.0176 -0.0497
  868MOL0     C17080  -1.403   9.805   6.546  0.2104  0.4171  0.7535
  868MOL0     O17081  -1.533   9.829   6.583 -0.7974  0.1667  0.1048
  868MOL0     C17082  -1.552   9.957   6.648  1.0692 -0.0183  0.4617
  868MOL0     C17083  -1.698   9.976   6.687 -0.8111  0.3354 -0.2626
  868MOL0     C17084  -1.753   9.875   6.796  0.4201 -0.1176 -0.4606
  868MOL0     C17085  -1.900   9.893   6.801 -1.3256 -0.2577  0.2567
  868MOL0     C17086  -1.964   9.827   6.930 -0.1596 -0.7579  0.1140
  868MOL0     C17087  -1.959   9.675   6.911 -0.4196  0.8685  0.0358
  868MOL0     C17088  -2.040   9.589   7.019 -0.2745 -0.2355 -0.9439
  868MOL0     C17089  -2.007   9.625   7.158 -0.2761 -0.1844  0.6144
  868MOL0    Cl17090  -1.834   9.626   7.197 -0.1422  0.2104 -0.4616
  868MOL0     C17091  -1.295   9.891   6.541  0.6673 -0.2412 -0.0908
  868MOL0     C17092  -1.171   9.843   6.506  0.5675  0.5741 -0.4820
  868MOL0     O17093  -0.894   9.851   6.383  0.2915  0.7576  0.2210
  868MOL0     C17094  -0.808   9.510   6.400 -0.2522  0.2373  1.1678
  868MOL0     C17095  -0.702   9.413   6.399 -0.3796  0.1838  0.3891
  868MOL0     N17096  -0.098   9.139   6.016 -0.7944  0.4627 -0.3476
  868MOL0     N17097  -0.027   9.217   5.933  0.1637 -0.2729 -0.2625
  868MOL0     C17098   1.120   9.051   5.678 -0.0994 -0.3827 -0.4706
  868MOL0     C17099   1.256   9.071   5.665 -0.5623  0.4992 -0.6751
  868MOL0     C17100   1.629   9.270   5.573  0.3227 -0.2955 -0.4443
  868MOL0     C17101   1.724   9.184   5.624 -0.3919  1.3059 -0.2296
  868MOL0     C17102   1.857   9.197   5.596  0.8446 -0.3256 -0.7085
  868MOL0     C17103   1.899   9.298   5.507  0.5904 -0.8439 -0.2665
  868MOL0     O17104   2.036   9.297   5.476  0.1290  0.1160  0.3729
  868MOL0     C17105   2.087   9.378   5.371 -0.7111 -0.2967 -0.3771
  868MOL0     C17106   2.197   9.471   5.423 -0.0935 -0.6875 -0.1558
  868MOL0     C17107   2.318   9.391   5.455  0.6632 -0.4102 -0.2968
  868MOL0     C17108   2.434   9.478   5.519  1.2007  0.4765 -0.5832
  868MOL0     C17109   2.488   9.573   5.424  0.6458  0.7588 -0.5819
  868MOL0     C17110   2.504   9.660   5.335  0.2633 -0.8819  0.0031
  868MOL0     C17111   1.802   9.379   5.444  0.3065  0.5393  0.1626
  868MOL0     C17112   1.663   9.360   5.478  0.1171 -1.2440  0.6193
  868MOL0     H17113   1.312   9.303   5.915 -1.0063  1.5981  0.9291
  868MOL0     H17114   1.091   9.250   5.951 -0.8817 -0.9509 -0.1660
  868MOL0     H17115   0.883   9.005   5.982  2.9425  1.1885  0.5499
  868MOL0     H17116   0.899   9.185   5.984  2.9467  0.3547 -1.6703
  868MOL0     H17117   0.718   9.229   5.873  1.4912  0.7064  1.8846
  868MOL0     H17118   0.682   9.064   5.813 -0.5187  2.2765  0.7642
  868MOL0     H17119   0.640   8.983   6.051 -3.8228 -0.1239  1.3716
  868MOL0     H17120   0.703   9.138   6.112 -0.0825 -0.9950  0.2905
  868MOL0     H17121   0.470   9.121   5.920 -1.0650  0.1748  0.7705
  868MOL0     H17122   0.440   9.080   6.093 -2.3067  1.7943 -1.0952
  868MOL0     H17123   0.551   9.300   6.154 -0.3980 -2.2762  0.2748
  868MOL0     H17124   0.542   9.340   5.985 -1.1068  0.4434  0.2609
  868MOL0     H17125   0.308   9.252   6.150  2.0468 -0.6123  1.3558
  868MOL0     H17126   0.347   9.415   6.141 -0.8136 -0.0265  0.7254
  868MOL0     H17127   0.333   9.397   5.873 -0.9803 -0.7744 -1.0897
  868MOL0     H17128   0.258   9.235   5.912 -1.4472 -0.5292  0.5262
  868MOL0     H17129   0.120   9.435   5.843  0.1204  1.6004  0.6097
  868MOL0     H17130   0.150   9.496   6.011  1.8566 -1.9137  1.6886
  868MOL0     H17131   0.050   9.341   6.227 -3.6548  2.8969  0.4639
  868MOL0     H17132  -0.178   9.029   6.253 -0.4232  0.5883  1.0976
  868MOL0     H17133  -0.079   9.137   6.355 -0.3691 -0.7348  0.4317
  868MOL0     H17134  -0.355   9.158   6.220 -0.3546 -0.0537  0.0955
  868MOL0     H17135  -0.273   9.305   6.260  1.7749  0.5820 -0.7241
  868MOL0     H17136  -0.252   9.255   6.495  1.9526 -1.5694 -1.0142
  868MOL0     H17137  -0.340   9.099   6.486 -0.7342 -0.6744 -1.7752
  868MOL0     H17138  -0.492   9.266   6.559 -2.9346 -0.4485 -1.0044
  868MOL0     H17139  -0.543   9.195   6.409  0.4411 -0.2104  0.4676
  868MOL0     H17140  -0.455   9.625   6.345 -0.7447 -1.1910 -0.8726
  868MOL0     H17141  -0.507   9.839   6.336  0.4023  0.0798  0.2110
  868MOL0     H17142  -0.655   9.870   6.231 -0.2603  2.0182  1.2610
  868MOL0     H17143  -0.652   9.892   6.407  2.0347  1.6007 -0.2902
  868MOL0     H17144  -1.244   9.528   6.415 -2.0239  0.6282 -1.9563
  868MOL0     H17145  -1.473   9.608   6.487 -1.0728  1.8397  0.7216
  868MOL0     H17146  -1.487   9.974   6.734  0.3838  1.1072  0.7819
  868MOL0     H17147  -1.524  10.039   6.582 -0.0198 -0.7828 -0.9972
  868MOL0     H17148  -1.704  10.072   6.739  0.6582 -0.8414  2.2258
  868MOL0     H17149  -1.758   9.994   6.597  0.6597  0.2793 -1.3038
  868MOL0     H17150  -1.724   9.899   6.899 -1.1977  0.6936 -0.1507
  868MOL0     H17151  -1.731   9.771   6.771  0.2818 -0.2151 -0.1781
  868MOL0     H17152  -1.920  10.000   6.809  0.1091  0.2148 -1.8023
  868MOL0     H17153  -1.950   9.862   6.709 -0.1824 -0.7081 -0.2400
  868MOL0     H17154  -2.065   9.867   6.943  1.2964  2.8544  1.5624
  868MOL0     H17155  -1.897   9.856   7.011  3.5578 -1.4801 -2.4450
  868MOL0     H17156  -2.006   9.648   6.816  2.2989 -0.3022 -1.0923
  868MOL0     H17157  -1.856   9.636   6.912 -0.7550 -0.0697  1.9761
  868MOL0     H17158  -2.015   9.484   7.003 -0.1459 -0.5825  1.2161
  868MOL0     H17159  -2.146   9.613   7.005 -0.0995  4.2087  2.6988
  868MOL0     H17160  -2.049   9.545   7.220 -2.4730 -1.7245 -2.6227
  868MOL0     H17161  -2.049   9.725   7.175  2.2087  0.7010  2.0193
  868MOL0     H17162  -1.285   9.996   6.568  2.8937  0.0703 -1.8328
  868MOL0     H17163  -1.082   9.900   6.527  0.8510 -0.3467  0.9194
  868MOL0     H17164  -0.903   9.472   6.436 -1.7019 -0.8008 -3.0858
  868MOL0     H17165  -0.730   9.309   6.414 -0.9110  0.3198  0.3439
  868MOL0     H17166   1.071   8.985   5.607  0.7158 -0.8591 -0.6068
  868MOL0     H17167   1.316   9.010   5.599 -0.3238  2.2217 -2.1553
  868MOL0     H17168   1.698   9.102   5.690 -0.4309 -1.5675 -3.5274
  868MOL0     H17169   1.929   9.130   5.642 -2.0047 -2.4119  1.0744
  868MOL0     H17170   2.135   9.310   5.300  0.5206  0.2198 -0.0627
  868MOL0     H17171   2.026   9.455   5.324  0.9295  0.4700 -1.3101
  868MOL0     H17172   2.167   9.538   5.505 -1.2275 -0.0522 -1.0669
  868MOL0     H17173   2.227   9.541   5.346  0.2459 -2.2128 -1.4670
  868MOL0     H17174   2.354   9.346   5.362 -1.5891 -1.5477 -0.6707
  868MOL0     H17175   2.300   9.310   5.526 -2.8749 -0.1758 -0.7673
  868MOL0     H17176   2.513   9.405   5.540  2.1548  1.9795  1.2883
  868MOL0     H17177   2.402   9.531   5.609  0.8375  0.1256 -0.4999
  868MOL0     H17178   2.501   9.731   5.255  0.1555 -0.7919  0.0873
  868MOL0     H17179   1.827   9.452   5.368  0.7332 -0.9789 -1.1957
  868MOL0     H17180   1.583   9.416   5.430  2.9865  0.6257 -2.4111
  869MOL0     O17181   1.969   1.239   7.635  0.5217  0.4583  0.4335
  869MOL0     C17182   1.885   1.152   7.662  0.4550  0.1348 -0.7985
  869MOL0     O17183   1.910   1.047   7.740 -0.4540  0.0861 -0.2613
  869MOL0     C17184   2.041   1.029   7.784  0.4011  1.4441  0.0875
  869MOL0     C17185   2.119   0.936   7.716  0.4101 -0.3543 -0.4279
  869MOL0     C17186   2.255   0.914   7.746 -0.4132  0.5151 -0.8053
  869MOL0     C17187   2.313   0.966   7.870 -0.8422 -0.6768  1.5856
  869MOL0     O17188   2.445   0.962   7.924  0.2147  0.0333 -0.0387
  869MOL0     C17189   2.533   0.873   7.847 -0.0255 -0.3509  0.1507
  869MOL0     C17190   2.679   0.902   7.897 -0.4447 -0.5528 -0.3408
  869MOL0     C17191   2.705   0.822   8.025  1.4091 -0.5867  0.4639
  869MOL0     C17192   2.709   0.914   8.150 -0.0999  1.1738  0.2299
  869MOL0     C17193   2.750   0.834   8.278 -0.9520  0.2113  0.1402
  869MOL0     C17194   2.789   0.913   8.409 -0.8092  0.4317 -0.3669
  869MOL0     C17195   2.740   0.840   8.543 -0.6847 -1.1629 -0.8965
  869MOL0     C17196   2.788   0.914   8.664  0.0482  0.0726 -0.4258
  869MOL0     N17197   2.733   1.052   8.678 -0.2684  0.6144  0.2315
  869MOL0     C17198   2.601   1.070   8.704  0.6864  0.3296 -0.0870
  869MOL0     C17199   2.589   1.195   8.754 -0.1056 -0.5160 -0.2186
  869MOL0     C17200   2.467   1.254   8.813  0.0635 -0.0692  0.0200
  869MOL0     C17201   2.454   1.213   8.961  0.5495  0.3959 -0.5035
  869MOL0     C17202   2.312   1.251   9.013  0.7435 -1.0586  1.6067
  869MOL0     C17203   2.309   1.295   9.150  0.1026 -0.1688  0.5011
  869MOL0     O17204   2.326   1.184   9.234 -0.1329  0.0249 -0.4239
  869MOL0     C17205   2.270   1.164   9.360  0.6181 -0.2400 -0.2817
  869MOL0     C17206   2.187   1.259   9.430 -0.2051 -0.5563  0.1724
  869MOL0     C17207   2.145   1.227   9.558 -0.2153 -1.2015 -0.3882
  869MOL0     C17208   2.043   1.328   9.620 -0.6543 -0.1026  0.5660
  869MOL0     C17209   2.172   1.105   9.625 -0.1136 -0.3576 -0.2152
  869MOL0     C17210   2.111   1.055   9.758 -0.5688  0.3980 -0.2103
  869MOL0     O17211   2.135   0.929   9.797  0.1352 -0.2675  0.0633
  869MOL0     C17212   2.061   0.877   9.907  0.1108 -1.0359 -0.1138
  869MOL0     C17213   1.917   0.871   9.910  0.4080 -0.4366  1.4020
  869MOL0     C17214   1.851   0.828  10.018  0.3483  0.7327 -0.1369
  869MOL0     C17215   1.923   0.765  10.125 -0.3318  0.3527 -0.4608
  869MOL0     O17216   1.873   0.697  10.226  0.0212 -0.5792  0.4047
  869MOL0     C17217   1.811   0.571  10.184 -0.2452 -0.9404 -0.2815
  869MOL0     C17218   1.660   0.583  10.177 -0.1130 -0.4156  0.1696
  869MOL0     C17219   1.596   0.546  10.314 -0.7762  0.6690  0.5177
  869MOL0     C17220   1.452   0.563  10.313  0.3611 -0.0079 -0.4926
  869MOL0     C17221   1.405   0.518  10.451  0.3689  0.3029 -0.6159
  869MOL0     C17222   1.255   0.521  10.473 -0.0722  1.3544 -0.3276
  869MOL0     C17223   1.172   0.639  10.416 -0.0001 -0.2648  0.8050
  869MOL0     C17224   1.030   0.643  10.466  1.0363 -0.3461 -0.5106
  869MOL0    Cl17225   0.945   0.495  10.422  0.2354 -0.4402 -0.1945
  869MOL0     C17226   2.068   0.778  10.126 -0.7056  0.7301  0.2098
  869MOL0     C17227   2.128   0.820  10.009 -0.3601 -0.8941 -0.6318
  869MOL0     O17228   2.042   1.134   9.830  0.6230  0.3204  0.2065
  869MOL0     C17229   2.255   1.020   9.553 -0.5850  0.1866 -0.9331
  869MOL0     C17230   2.305   1.049   9.424  0.0525  0.5014 -0.3446
  869MOL0     N17231   2.722   1.254   8.742  0.5732  0.3454 -0.0381
  869MOL0     N17232   2.798   1.172   8.690 -0.6478  0.0632 -0.9884
  869MOL0     C17233   2.229   1.046   7.948 -0.2452 -0.7228  0.0369
  869MOL0     C17234   2.100   1.080   7.899  0.1660 -0.1735 -0.0376
  869MOL0     C17235   1.751   1.154   7.590  0.5752  0.3003 -0.2644
  869MOL0     C17236   1.715   1.243   7.485  0.3719  0.7677 -0.3627
  869MOL0     C17237   1.593   1.241   7.418 -0.2822 -0.6882 -0.4777
  869MOL0     C17238   1.496   1.157   7.460 -0.3876 -1.4240 -0.6728
  869MOL0     O17239   1.362   1.161   7.426  0.5303 -0.6621  0.3493
  869MOL0     C17240   1.301   1.275   7.358 -1.5893  0.6635  0.5520
  869MOL0     C17241   1.151   1.273   7.398  0.5984 -0.2956  0.2643
  869MOL0     C17242   1.068   1.153   7.348 -0.2411 -0.6063  1.9417
  869MOL0     C17243   0.984   1.192   7.215 -0.2253 -0.5724  0.2833
  869MOL0     C17244   0.857   1.122   7.207  0.3841  0.1065 -0.2061
  869MOL0     C17245   0.736   1.088   7.206 -0.5360 -0.4078 -0.3990
  869MOL0     C17246   1.524   1.072   7.566 -0.0698  0.5084 -0.0041
  869MOL0     C17247   1.645   1.067   7.636  0.1839  0.1374 -0.2214
  869MOL0     H17248   2.087   0.880   7.629 -0.2324 -3.3441  1.5996
  869MOL0     H17249   2.328   0.856   7.690  1.7938  1.5942  0.7657
  869MOL0     H17250   2.500   0.768   7.851  2.4811 -1.1725  1.0508
  869MOL0     H17251   2.534   0.915   7.746 -0.7765  0.6334  0.5317
  869MOL0     H17252   2.751   0.861   7.826  2.4050  0.9196  1.5042
  869MOL0     H17253   2.702   1.008   7.914  0.4484 -0.6488 -0.9268
  869MOL0     H17254   2.630   0.742   8.032  1.6510 -0.7807  0.9112
  869MOL0     H17255   2.798   0.763   8.016  2.0973  0.2186  1.9339
  869MOL0     H17256   2.788   0.987   8.128  0.1673  0.7072 -0.3886
  869MOL0     H17257   2.615   0.967   8.167 -0.0406  0.3469  4.1883
  869MOL0     H17258   2.672   0.764   8.308  1.0480 -2.0748  0.3257
  869MOL0     H17259   2.832   0.765   8.255 -0.4455 -0.8479  4.2056
  869MOL0     H17260   2.896   0.933   8.396 -0.8489  0.3520 -0.8389
  869MOL0     H17261   2.729   1.004   8.400 -0.1323  0.7963 -1.4936
  869MOL0     H17262   2.631   0.838   8.536 -0.6163 -0.8301 -2.6364
  869MOL0     H17263   2.778   0.738   8.550 -0.4183 -1.0375 -0.4426
  869MOL0     H17264   2.898   0.915   8.667  0.0509  1.4541 -0.4903
  869MOL0     H17265   2.757   0.855   8.750  0.6427 -0.4574 -0.5640
  869MOL0     H17266   2.526   0.992   8.702  1.9092 -1.0641  2.7542
  869MOL0     H17267   2.469   1.363   8.806 -1.5865  0.0078  0.3566
  869MOL0     H17268   2.388   1.208   8.753  1.0153 -2.4257  0.4580
  869MOL0     H17269   2.522   1.276   9.019  2.2419 -1.3062 -0.5238
  869MOL0     H17270   2.486   1.113   8.994 -1.0649  0.1433  0.3951
  869MOL0     H17271   2.239   1.171   8.999 -1.2280  0.8052  0.7214
  869MOL0     H17272   2.264   1.328   8.953 -2.3111 -2.6093  1.8470
  869MOL0     H17273   2.211   1.338   9.173  0.2080  0.2208  0.2236
  869MOL0     H17274   2.374   1.382   9.154 -1.5968  1.2496 -0.9770
  869MOL0     H17275   2.159   1.355   9.388  1.2167 -0.3808 -0.4144
  869MOL0     H17276   2.084   1.376   9.709 -1.7677 -1.8501  2.0837
  869MOL0     H17277   2.023   1.404   9.544  1.4228 -0.4933 -0.4483
  869MOL0     H17278   1.957   1.267   9.652  0.2116 -2.3929 -1.1583
  869MOL0     H17279   1.868   0.907   9.820  1.7383  0.3997  0.9784
  869MOL0     H17280   1.743   0.829  10.027  0.3761  2.7289  0.3672
  869MOL0     H17281   1.854   0.540  10.088  0.1907 -3.1879  0.5790
  869MOL0     H17282   1.845   0.497  10.257  2.9786  2.9190  2.6133
  869MOL0     H17283   1.620   0.682  10.152 -2.4913 -0.6352  2.5539
  869MOL0     H17284   1.637   0.509  10.100  2.2760 -1.1296  0.0764
  869MOL0     H17285   1.638   0.609  10.393  0.7504  1.1829 -0.6666
  869MOL0     H17286   1.620   0.442  10.340 -0.4705  0.5982 -0.0277
  869MOL0     H17287   1.432   0.669  10.291 -0.2365  0.0626  0.3551
  869MOL0     H17288   1.402   0.498  10.241 -0.0485  2.3916 -2.5465
  869MOL0     H17289   1.449   0.580  10.530 -0.8468 -2.8941  2.9012
  869MOL0     H17290   1.442   0.420  10.482  0.1449  0.2076 -0.6424
  869MOL0     H17291   1.219   0.428  10.429  1.5379  1.4612 -1.9967
  869MOL0     H17292   1.242   0.505  10.581  2.1542  0.5834 -0.1258
  869MOL0     H17293   1.172   0.630  10.307 -0.8586 -2.4294  0.9197
  869MOL0     H17294   1.219   0.734  10.442  0.7757 -0.3101 -0.3867
  869MOL0     H17295   0.988   0.726  10.408  2.2463 -0.9825 -2.3899
  869MOL0     H17296   1.036   0.663  10.573 -1.0014  0.1386 -0.4434
  869MOL0     H17297   2.130   0.740  10.206 -2.0643 -0.6218  0.6478
  869MOL0     H17298   2.237   0.816  10.008 -0.0839  2.5312  1.3245
  869MOL0     H17299   2.291   0.925   9.591  0.6759  0.8473 -0.4260
  869MOL0     H17300   2.384   0.986   9.384  1.5983  1.3374  1.2465
  869MOL0     H17301   2.264   1.092   8.040  1.0019 -0.7248 -0.4168
  869MOL0     H17302   2.049   1.146   7.968  0.4343 -1.8098  1.8303
  869MOL0     H17303   1.795   1.310   7.454  0.2075  1.8241  1.3692
  869MOL0     H17304   1.579   1.329   7.356  0.3912 -1.3172 -1.5410
  869MOL0     H17305   1.338   1.373   7.389 -2.6938  0.5687  2.2920
  869MOL0     H17306   1.311   1.253   7.251 -0.5346 -3.7597  1.3373
  869MOL0     H17307   1.119   1.368   7.355  0.5626  0.3770  1.7137
  869MOL0     H17308   1.141   1.285   7.506  0.5474  0.5369  0.1732
  869MOL0     H17309   0.997   1.129   7.427 -2.3764  1.7727  0.9056
  869MOL0     H17310   1.133   1.069   7.324 -0.0498  0.3659 -1.5212
  869MOL0     H17311   1.040   1.163   7.126 -0.7012 -0.6054 -0.0054
  869MOL0     H17312   0.953   1.296   7.225 -0.1711 -0.4418 -0.7680
  869MOL0     H17313   0.634   1.053   7.209 -1.4076  1.9903  0.0770
  869MOL0     H17314   1.440   1.016   7.605  0.1083 -0.4889 -0.9949
  869MOL0     H17315   1.653   0.996   7.717 -3.2227  1.2432  1.2779
  870MOL0     O17316  10.658   3.029   0.813 -0.2613 -0.2869 -0.0499
  870MOL0     C17317  10.596   3.066   0.911  0.0229  0.0185 -0.3893
  870MOL0     O17318  10.655   3.108   1.028  0.9103  0.4383  0.1451
  870MOL0     C17319  10.791   3.110   1.049 -0.3127  0.4564 -0.6117
  870MOL0     C17320  10.898   3.125   0.955 -0.1546  0.6958  0.4029
  870MOL0     C17321  11.028   3.112   1.008 -1.0140  0.7770 -0.0545
  870MOL0     C17322  11.062   3.087   1.144 -0.5002  0.1975  0.2603
  870MOL0     O17323  11.195   3.071   1.175 -0.3211 -0.0351 -0.1683
  870MOL0     C17324  11.258   3.141   1.282  0.3174 -1.4920 -0.5936
  870MOL0     C17325  11.284   3.056   1.394 -0.4788  0.3732  0.6923
  870MOL0     C17326  11.401   3.105   1.478  0.4196  0.2954 -0.6242
  870MOL0     C17327  11.433   3.013   1.596 -0.5407  0.7694  0.6849
  870MOL0     C17328  11.520   3.072   1.698  0.4436 -0.3123 -0.2031
  870MOL0     C17329  11.672   3.076   1.652 -0.3311  0.3639 -0.5511
  870MOL0     C17330  11.753   3.161   1.751  0.2887 -1.0990  0.5477
  870MOL0     C17331  11.890   3.168   1.686 -0.6848 -0.5932 -0.1946
  870MOL0     N17332  11.986   3.059   1.723  0.1627  1.1695  0.6223
  870MOL0     C17333  11.989   2.981   1.838  0.4463 -0.2917  0.6382
  870MOL0     C17334  12.096   2.903   1.827 -0.4255  0.3541 -0.0547
  870MOL0     C17335  12.141   2.805   1.937  0.4790  0.1420  0.7680
  870MOL0     C17336  12.053   2.702   2.005 -0.3953  0.1562 -0.7149
  870MOL0     C17337  11.989   2.626   1.903  0.2420 -0.0163  0.2752
  870MOL0     C17338  11.911   2.501   1.956 -0.0014 -0.0888 -0.0137
  870MOL0     O17339  11.782   2.536   2.004 -0.2681  0.2479  0.5271
  870MOL0     C17340  11.677   2.585   1.920 -0.9791  0.0176  0.2802
  870MOL0     C17341  11.693   2.583   1.780 -0.9779  0.0134  0.0546
  870MOL0     C17342  11.588   2.618   1.688 -0.2664  0.4668 -0.8612
  870MOL0     C17343  11.625   2.610   1.545  0.0475 -0.0937  0.4112
  870MOL0     C17344  11.465   2.657   1.742 -0.6435 -0.5244  0.4955
  870MOL0     C17345  11.342   2.671   1.656  0.4559  0.2021  0.4007
  870MOL0     O17346  11.232   2.704   1.726 -0.1154  0.1164 -0.5714
  870MOL0     C17347  11.116   2.744   1.656 -0.2385 -0.0459  0.4749
  870MOL0     C17348  11.042   2.662   1.571  0.0303 -0.5503 -0.2031
  870MOL0     C17349  10.912   2.703   1.531 -0.1737  0.5396 -0.0736
  870MOL0     C17350  10.862   2.824   1.574  0.5804  0.2387  0.6992
  870MOL0     O17351  10.733   2.867   1.536  0.0049 -0.5771  0.1112
  870MOL0     C17352  10.654   2.803   1.435 -0.0675  0.1046 -0.6606
  870MOL0     C17353  10.508   2.848   1.456 -0.4072 -0.1788 -0.6641
  870MOL0     C17354  10.497   3.000   1.415  0.0275 -1.0328 -0.0483
  870MOL0     C17355  10.351   3.037   1.403  0.2105 -0.6123  0.2850
  870MOL0     C17356  10.334   3.185   1.401  0.7827  0.1181 -0.3209
  870MOL0     C17357  10.188   3.212   1.428 -0.0454 -1.5014 -0.3448
  870MOL0     C17358  10.156   3.355   1.433 -0.4856 -0.4272  0.3502
  870MOL0     C17359  10.010   3.379   1.472  1.1521  0.3584 -0.1501
  870MOL0    Cl17360   9.898   3.289   1.367  0.7191 -0.2374 -0.0951
  870MOL0     C17361  10.941   2.916   1.640 -0.3526 -0.2977  0.3661
  870MOL0     C17362  11.064   2.875   1.695 -0.4506  0.3121  0.6313
  870MOL0     O17363  11.338   2.620   1.545 -0.4420 -0.4271  0.2000
  870MOL0     C17364  11.451   2.672   1.882 -0.2414 -0.3186 -0.2128
  870MOL0     C17365  11.548   2.631   1.966  0.0998  0.1390 -0.5425
  870MOL0     N17366  12.156   2.926   1.703  0.5504  0.1604  0.2769
  870MOL0     N17367  12.083   3.009   1.638 -0.4292 -0.2706 -0.0711
  870MOL0     C17368  10.954   3.096   1.236  0.0067  1.1765 -0.1532
  870MOL0     C17369  10.822   3.092   1.185 -0.2109  0.5752 -0.1046
  870MOL0     C17370  10.447   3.073   0.897 -0.8122  0.1473 -0.0516
  870MOL0     C17371  10.386   3.018   0.785 -1.1724  1.1169 -0.8720
  870MOL0     C17372  10.245   3.025   0.775  0.6612  0.2440  0.7145
  870MOL0     C17373  10.167   3.072   0.881  0.0628  0.2096 -0.1579
  870MOL0     O17374  10.027   3.079   0.887  0.1468 -0.4720 -0.0375
  870MOL0     C17375   9.940   3.045   0.777 -1.1816 -0.0831 -0.3031
  870MOL0     C17376   9.799   3.102   0.801 -1.0987 -0.2428  0.4300
  870MOL0     C17377   9.713   3.045   0.920  0.5441  0.2582  0.4163
  870MOL0     C17378   9.567   3.065   0.886 -1.1780 -0.1941 -0.5345
  870MOL0     C17379   9.494   3.038   1.006 -0.2028  1.6689  0.1563
  870MOL0     C17380   9.441   3.019   1.111  0.2075  0.4557 -0.1581
  870MOL0     C17381  10.228   3.135   0.987 -0.0459 -0.6034  0.6046
  870MOL0     C17382  10.371   3.140   0.996 -0.6588  0.5565 -0.1116
  870MOL0     H17383  10.886   3.141   0.848  2.5924 -1.4731 -0.3636
  870MOL0     H17384  11.116   3.110   0.945  1.2759  2.2110  2.8506
  870MOL0     H17385  11.352   3.180   1.242  0.0638  0.8692  0.9736
  870MOL0     H17386  11.196   3.225   1.312 -1.8153 -3.4945  1.0198
  870MOL0     H17387  11.195   3.034   1.454  0.1857 -1.3929  1.1066
  870MOL0     H17388  11.308   2.955   1.360  0.1740  1.3674 -2.1256
  870MOL0     H17389  11.484   3.126   1.409  1.5695  0.7496  0.8333
  870MOL0     H17390  11.369   3.199   1.523 -1.8239 -0.2836 -0.8997
  870MOL0     H17391  11.346   2.968   1.645  0.4469 -1.8500  0.2222
  870MOL0     H17392  11.482   2.924   1.555  1.3363  2.4991 -1.0830
  870MOL0     H17393  11.484   3.170   1.731 -2.0516 -1.2940  0.2430
  870MOL0     H17394  11.516   3.011   1.789  1.2711 -2.1378 -1.3456
  870MOL0     H17395  11.709   2.973   1.650  1.3436  0.8909  0.8899
  870MOL0     H17396  11.685   3.109   1.548  0.7424  1.1002 -0.2032
  870MOL0     H17397  11.725   3.266   1.753  3.3845 -0.1329 -0.9712
  870MOL0     H17398  11.754   3.126   1.855 -1.1907 -1.0897  0.5917
  870MOL0     H17399  11.939   3.255   1.730 -0.8001 -2.0031  3.0623
  870MOL0     H17400  11.881   3.179   1.578 -0.4851  0.6098 -0.0950
  870MOL0     H17401  11.922   2.980   1.924 -0.5891  3.2696  0.0379
  870MOL0     H17402  12.222   2.748   1.890 -0.0056 -2.6365  3.0199
  870MOL0     H17403  12.192   2.860   2.016 -0.1399 -0.3291  1.5197
  870MOL0     H17404  11.978   2.744   2.072  1.6856  2.6379  0.2401
  870MOL0     H17405  12.119   2.654   2.079  0.5978  3.4774  0.7473
  870MOL0     H17406  12.062   2.599   1.826  1.5860 -2.2250  2.2051
  870MOL0     H17407  11.919   2.697   1.858  1.2620  1.8623  1.5271
  870MOL0     H17408  11.959   2.448   2.039  1.4839 -2.4974 -2.2688
  870MOL0     H17409  11.908   2.423   1.880  0.5689 -2.8241  2.6018
  870MOL0     H17410  11.794   2.565   1.742 -1.3818 -0.7751 -0.6728
  870MOL0     H17411  11.603   2.507   1.514 -0.1697 -0.4723  1.7303
  870MOL0     H17412  11.571   2.677   1.478 -1.5330 -1.4851  0.2016
  870MOL0     H17413  11.727   2.644   1.530 -1.1305  4.3229  1.1351
  870MOL0     H17414  11.083   2.564   1.547  1.0354 -0.2464  0.2387
  870MOL0     H17415  10.859   2.634   1.467 -0.9143  0.9999  0.0324
  870MOL0     H17416  10.700   2.832   1.340  0.1336  0.9149 -0.3231
  870MOL0     H17417  10.650   2.694   1.424  2.3718  0.1545 -3.0823
  870MOL0     H17418  10.436   2.783   1.407 -1.0181 -1.4070  1.7311
  870MOL0     H17419  10.485   2.829   1.562  0.4696 -0.7768 -0.5705
  870MOL0     H17420  10.551   3.021   1.322  1.1950  3.9281  1.4031
  870MOL0     H17421  10.531   3.059   1.501 -0.9250 -0.1644 -0.2450
  870MOL0     H17422  10.304   2.983   1.320 -4.2964 -0.3152  2.3731
  870MOL0     H17423  10.303   2.991   1.491  1.5892  0.9917  1.9597
  870MOL0     H17424  10.354   3.215   1.298 -3.0032 -0.9019 -1.4880
  870MOL0     H17425  10.390   3.243   1.476 -0.0521 -1.3468  1.5202
  870MOL0     H17426  10.141   3.164   1.341 -0.7583 -3.7676  1.1907
  870MOL0     H17427  10.157   3.179   1.528  1.1809 -0.0773  0.5520
  870MOL0     H17428  10.192   3.404   1.342  1.5777 -1.4961  0.5218
  870MOL0     H17429  10.222   3.391   1.513  1.8451 -0.1790 -1.5481
  870MOL0     H17430  10.002   3.488   1.470 -3.1494  0.2333 -2.0153
  870MOL0     H17431  10.000   3.334   1.572  3.1695 -1.8765 -0.8677
  870MOL0     H17432  10.905   3.018   1.649  0.1324 -0.2564  2.4711
  870MOL0     H17433  11.132   2.931   1.759 -0.7885  0.3323  0.9757
  870MOL0     H17434  11.360   2.711   1.927 -0.1612 -1.4372  0.9617
  870MOL0     H17435  11.512   2.639   2.068 -2.3501  1.7954 -1.4663
  870MOL0     H17436  10.955   3.105   1.344  0.2798 -0.2599 -0.0118
  870MOL0     H17437  10.742   3.092   1.258  2.2528  0.0955  2.7952
  870MOL0     H17438  10.447   2.975   0.706  1.2004  1.9368  0.4282
  870MOL0     H17439  10.191   2.989   0.688  2.1049 -2.0510  0.6815
  870MOL0     H17440   9.971   3.102   0.690 -2.1112  0.9671  0.0385
  870MOL0     H17441   9.937   2.936   0.768 -2.0003 -0.1245  0.2754
  870MOL0     H17442   9.740   3.084   0.710  1.9136 -1.6289 -1.4276
  870MOL0     H17443   9.819   3.209   0.811  3.3320 -1.0537  3.7744
  870MOL0     H17444   9.744   3.099   1.010 -0.8956  0.3544  0.8944
  870MOL0     H17445   9.740   2.940   0.932 -1.2693 -0.0266  2.7568
  870MOL0     H17446   9.539   2.992   0.808 -1.1605 -0.3086 -0.4342
  870MOL0     H17447   9.537   3.166   0.858  0.4646  0.4079 -0.2294
  870MOL0     H17448   9.398   2.991   1.205 -0.0468 -1.0934 -0.7112
  870MOL0     H17449  10.166   3.188   1.059  0.7695  2.6824 -0.9276
  870MOL0     H17450  10.428   3.173   1.082  2.4298 -3.0079 -0.5509
  871MOL0     O17451   2.000   5.493   1.816 -0.5083 -0.0052 -0.4468
  871MOL0     C17452   1.911   5.560   1.763  0.7848 -0.1619  0.3838
  871MOL0     O17453   1.927   5.690   1.719  0.0543  0.2330  0.7154
  871MOL0     C17454   2.056   5.740   1.724  0.3528 -0.4113  0.7176
  871MOL0     C17455   2.073   5.857   1.795  0.4931 -0.4614  0.8730
  871MOL0     C17456   2.194   5.922   1.797 -0.3610 -0.5716 -0.8150
  871MOL0     C17457   2.312   5.869   1.733 -0.1014 -0.3536 -0.4084
  871MOL0     O17458   2.439   5.919   1.729 -0.2509 -0.7482  0.2499
  871MOL0     C17459   2.491   6.008   1.824  0.1051 -0.4081  0.3056
  871MOL0     C17460   2.589   6.121   1.770 -0.8783 -0.3462 -0.0668
  871MOL0     C17461   2.738   6.076   1.767  0.2867 -0.3231  0.8562
  871MOL0     C17462   2.841   6.155   1.691  0.2408 -0.2458 -0.3306
  871MOL0     C17463   2.881   6.281   1.761 -0.3700  0.1088 -0.6290
  871MOL0     C17464   3.003   6.362   1.689  0.0879  0.6890 -0.3271
  871MOL0     C17465   3.032   6.485   1.780  0.1202 -0.0406  1.1672
  871MOL0     C17466   3.160   6.568   1.744 -0.3616  0.1110  0.1766
  871MOL0     N17467   3.286   6.489   1.740  0.6520 -0.1140 -1.0217
  871MOL0     C17468   3.334   6.412   1.839  0.0881  0.2918 -0.1766
  871MOL0     C17469   3.441   6.349   1.777  0.3541  0.5627 -0.4218
  871MOL0     C17470   3.541   6.240   1.845 -0.0820 -0.7483  0.7354
  871MOL0     C17471   3.652   6.311   1.925 -0.3552 -0.0892  0.2417
  871MOL0     C17472   3.746   6.207   1.980 -0.1195 -0.2797 -0.5364
  871MOL0     C17473   3.692   6.122   2.106 -0.7210  0.3102  0.1133
  871MOL0     O17474   3.631   6.001   2.067 -0.1338 -0.1129  0.5318
  871MOL0     C17475   3.534   5.938   2.137 -0.1607 -0.1628 -0.8160
  871MOL0     C17476   3.453   5.849   2.066  0.2078  0.2826  0.5211
  871MOL0     C17477   3.342   5.786   2.130 -0.2567  0.6161 -0.3276
  871MOL0     C17478   3.261   5.687   2.051 -0.2180 -0.4913 -0.3091
  871MOL0     C17479   3.327   5.798   2.269  0.2717 -1.2147 -0.4047
  871MOL0     C17480   3.214   5.732   2.343  0.5950 -0.4552 -0.2705
  871MOL0     O17481   3.090   5.752   2.301  0.1284 -0.1125  0.3524
  871MOL0     C17482   2.984   5.687   2.358  0.7863 -0.5131  0.1311
  871MOL0     C17483   2.925   5.575   2.291 -0.0900 -0.8990 -0.4925
  871MOL0     C17484   2.815   5.506   2.345  0.8841 -0.1667  0.6716
  871MOL0     C17485   2.754   5.562   2.463 -0.5593 -0.2289 -0.3124
  871MOL0     O17486   2.645   5.508   2.519 -0.0794 -0.3380 -0.5320
  871MOL0     C17487   2.623   5.368   2.521 -0.4393 -0.5563 -0.0995
  871MOL0     C17488   2.648   5.313   2.667  0.5488 -0.1042 -0.6247
  871MOL0     C17489   2.566   5.399   2.774  0.4979  0.9737  0.4665
  871MOL0     C17490   2.564   5.349   2.925 -0.2463 -0.3341  0.9202
  871MOL0     C17491   2.510   5.445   3.023 -0.2737  0.9997  0.2531
  871MOL0     C17492   2.563   5.576   3.025  0.1799 -0.0651  0.0693
  871MOL0     C17493   2.529   5.662   3.151 -0.1118 -0.1158  0.2370
  871MOL0     C17494   2.600   5.634   3.289 -0.3409 -0.0311 -0.5802
  871MOL0    Cl17495   2.774   5.684   3.264  0.5922  0.1032  0.0499
  871MOL0     C17496   2.816   5.669   2.527  0.0478 -0.5046 -0.2930
  871MOL0     C17497   2.922   5.739   2.475  0.3670 -0.3734  0.6932
  871MOL0     O17498   3.242   5.684   2.453 -0.1128  0.2459 -1.2696
  871MOL0     C17499   3.415   5.879   2.336  0.0508  1.2087  0.1155
  871MOL0     C17500   3.513   5.947   2.280 -0.0268 -0.0345  0.8425
  871MOL0     N17501   3.448   6.388   1.646  0.5437  0.7226  0.8349
  871MOL0     N17502   3.356   6.474   1.629 -0.0869 -0.2200  0.0103
  871MOL0     C17503   2.291   5.749   1.674 -0.7629 -0.5035  0.3664
  871MOL0     C17504   2.169   5.690   1.668  0.1111 -0.4369  0.5525
  871MOL0     C17505   1.774   5.498   1.757 -0.2727 -0.6449  0.6734
  871MOL0     C17506   1.662   5.575   1.728  0.2812  0.0782  0.4681
  871MOL0     C17507   1.530   5.515   1.746  0.0042  1.6901 -0.0066
  871MOL0     C17508   1.519   5.382   1.788 -0.0523 -0.1836  0.2642
  871MOL0     O17509   1.386   5.354   1.822 -0.4450 -0.1415  0.4332
  871MOL0     C17510   1.339   5.217   1.811  0.5324  0.2854 -0.4864
  871MOL0     C17511   1.187   5.230   1.841 -1.2582  0.1929 -0.3200
  871MOL0     C17512   1.117   5.308   1.724  0.8502 -0.5443 -0.7104
  871MOL0     C17513   1.127   5.252   1.587  0.6232  0.9274 -0.2095
  871MOL0     C17514   0.996   5.193   1.562 -0.5201  0.3222  1.5987
  871MOL0     C17515   0.897   5.149   1.517  0.2811 -0.8682 -0.9184
  871MOL0     C17516   1.639   5.304   1.814  0.0851 -0.6613 -0.3891
  871MOL0     C17517   1.759   5.359   1.787 -0.3362  0.2472 -0.2642
  871MOL0     H17518   1.990   5.909   1.840  2.4175  1.7018  2.1817
  871MOL0     H17519   2.209   6.025   1.829  1.3052 -0.5468 -1.6041
  871MOL0     H17520   2.410   6.061   1.874  0.5331  2.4285 -1.7255
  871MOL0     H17521   2.543   5.947   1.899  0.5373  0.1176  0.4367
  871MOL0     H17522   2.558   6.151   1.669 -3.4037  0.6568  0.9207
  871MOL0     H17523   2.587   6.207   1.838  0.9978 -0.1099 -0.2701
  871MOL0     H17524   2.778   6.059   1.868  0.1414 -2.6319  0.5966
  871MOL0     H17525   2.726   5.981   1.714  1.9125  0.2185 -0.5487
  871MOL0     H17526   2.926   6.087   1.695  0.5247  0.1214 -0.0045
  871MOL0     H17527   2.809   6.177   1.589  1.8051  2.2951 -0.3613
  871MOL0     H17528   2.802   6.354   1.777  1.9704  3.2132 -2.0063
  871MOL0     H17529   2.920   6.255   1.860  1.4131  0.3121 -1.2408
  871MOL0     H17530   3.091   6.297   1.685 -0.1495  0.4154 -2.3417
  871MOL0     H17531   2.986   6.392   1.585  0.7324  1.4547 -0.2184
  871MOL0     H17532   2.944   6.550   1.779 -0.6560 -0.9710 -1.6881
  871MOL0     H17533   3.040   6.436   1.878 -1.2118  1.6083  2.1610
  871MOL0     H17534   3.189   6.638   1.823  4.7078 -0.1930 -1.0574
  871MOL0     H17535   3.158   6.613   1.645  1.8043  0.5883  0.2895
  871MOL0     H17536   3.312   6.401   1.944  0.7012  1.8913  0.1437
  871MOL0     H17537   3.485   6.164   1.900  2.2540 -1.5174  2.2035
  871MOL0     H17538   3.590   6.186   1.763 -0.8036 -0.5440  0.1543
  871MOL0     H17539   3.597   6.371   1.998 -3.6854 -0.5981 -1.6612
  871MOL0     H17540   3.712   6.373   1.858  1.5076 -0.3479  1.5611
  871MOL0     H17541   3.835   6.262   2.015  1.2712 -2.7698  0.1115
  871MOL0     H17542   3.782   6.141   1.901  0.6961 -0.3380 -0.1339
  871MOL0     H17543   3.623   6.184   2.166 -0.8925  1.7259 -1.4594
  871MOL0     H17544   3.778   6.100   2.170 -0.4976  2.6044  0.7055
  871MOL0     H17545   3.459   5.841   1.958  0.6501 -1.9695  0.6669
  871MOL0     H17546   3.154   5.713   2.055  0.2025  1.5589 -1.1375
  871MOL0     H17547   3.280   5.693   1.944 -3.2409  1.9560 -0.8775
  871MOL0     H17548   3.279   5.585   2.088  3.1546 -0.4095 -1.4347
  871MOL0     H17549   2.963   5.539   2.196  0.3099  0.6835 -0.9560
  871MOL0     H17550   2.783   5.423   2.284 -2.3540  0.2296  1.6227
  871MOL0     H17551   2.517   5.356   2.498  0.1945 -1.0580 -3.0700
  871MOL0     H17552   2.674   5.312   2.442 -1.1944 -1.9977  0.3998
  871MOL0     H17553   2.604   5.213   2.667 -3.5923  1.5578 -0.5767
  871MOL0     H17554   2.754   5.310   2.696  0.3417 -0.1936  0.1254
  871MOL0     H17555   2.464   5.408   2.735  0.1380 -2.0276  0.4794
  871MOL0     H17556   2.609   5.500   2.775  2.9826 -0.0077 -0.9657
  871MOL0     H17557   2.507   5.256   2.930  1.1435 -1.2277  0.8460
  871MOL0     H17558   2.671   5.334   2.941 -0.6074 -4.0778  0.6877
  871MOL0     H17559   2.528   5.390   3.115  1.0804 -3.1164 -2.2093
  871MOL0     H17560   2.403   5.453   3.000 -0.0164  1.0274 -1.0429
  871MOL0     H17561   2.671   5.574   3.005  0.0771 -3.1708 -0.6594
  871MOL0     H17562   2.520   5.632   2.941 -2.5115 -2.9191 -0.6201
  871MOL0     H17563   2.420   5.656   3.161 -0.0217  0.8723  2.3229
  871MOL0     H17564   2.544   5.768   3.131 -1.1006  0.6175  2.9334
  871MOL0     H17565   2.596   5.529   3.319 -0.0154  0.5746  1.8224
  871MOL0     H17566   2.557   5.686   3.375 -0.2678  0.0020 -0.5635
  871MOL0     H17567   2.774   5.706   2.620 -1.5072 -1.0426 -0.7475
  871MOL0     H17568   2.963   5.821   2.534 -0.6323  0.4554  0.2752
  871MOL0     H17569   3.400   5.889   2.444  1.7018  1.2576  0.3649
  871MOL0     H17570   3.582   6.010   2.337 -1.8243  1.0389  1.9347
  871MOL0     H17571   2.380   5.702   1.633  1.0097  1.4811  1.7312
  871MOL0     H17572   2.162   5.594   1.617 -1.3493  0.3031 -0.7432
  871MOL0     H17573   1.686   5.680   1.717 -1.9995  0.6402  0.4289
  871MOL0     H17574   1.434   5.565   1.745 -1.8837 -1.6396  0.6922
  871MOL0     H17575   1.356   5.182   1.709  0.8610 -0.1545 -0.2804
  871MOL0     H17576   1.383   5.158   1.892  0.0298  0.7289  0.1164
  871MOL0     H17577   1.172   5.279   1.938  0.8911  0.6962 -0.2051
  871MOL0     H17578   1.153   5.126   1.838 -3.0238  0.7104  0.2648
  871MOL0     H17579   1.155   5.411   1.720  0.0552 -0.2334 -4.9111
  871MOL0     H17580   1.012   5.315   1.754  0.7460  2.3045 -1.4316
  871MOL0     H17581   1.197   5.168   1.586  1.2448  1.4178  0.4277
  871MOL0     H17582   1.151   5.330   1.513 -0.2610  0.4470 -1.0256
  871MOL0     H17583   0.804   5.110   1.479 -0.4874 -2.0839  1.8998
  871MOL0     H17584   1.623   5.199   1.837 -0.1576 -0.9418 -1.7644
  871MOL0     H17585   1.847   5.299   1.808 -0.4681  0.1719  0.0808
  872MOL0     O17586  11.154   0.226   3.786  0.2846  0.4148 -0.7779
  872MOL0     C17587  11.167   0.219   3.666 -0.2411 -0.7472  0.6834
  872MOL0     O17588  11.099   0.290   3.569 -0.2038 -0.2339 -0.5488
  872MOL0     C17589  10.998   0.379   3.596 -0.4324  0.8035 -0.3239
  872MOL0     C17590  10.886   0.347   3.684 -0.9760 -0.3805  1.5398
  872MOL0     C17591  10.769   0.428   3.674  0.2873 -0.8636 -1.2441
  872MOL0     C17592  10.762   0.540   3.590 -0.1670  0.4542 -0.6194
  872MOL0     O17593  10.650   0.612   3.594  0.2982  0.5193  0.3508
  872MOL0     C17594  10.639   0.751   3.532  0.3389  0.4229  0.7684
  872MOL0     C17595  10.499   0.807   3.540  0.0693 -0.4248 -0.3610
  872MOL0     C17596  10.499   0.951   3.486 -0.0447 -0.0939  0.3237
  872MOL0     C17597  10.477   1.056   3.598 -0.0767  0.0291  0.8080
  872MOL0     C17598  10.489   1.189   3.535  0.9771 -0.1263  0.2827
  872MOL0     C17599  10.429   1.286   3.633  0.6904 -0.4766  0.4100
  872MOL0     C17600  10.381   1.419   3.564 -0.1882  0.0447 -0.6171
  872MOL0     C17601  10.303   1.506   3.662  0.2275  0.4776 -0.2444
  872MOL0     N17602  10.162   1.473   3.676  1.2306  0.3297 -0.3573
  872MOL0     C17603  10.101   1.362   3.734 -0.9294  0.0719  1.2894
  872MOL0     C17604   9.971   1.386   3.721  1.3098 -0.1633 -0.4299
  872MOL0     C17605   9.884   1.268   3.763 -0.1128 -0.4263 -0.5568
  872MOL0     C17606   9.748   1.331   3.813 -0.2527 -0.4686 -0.4012
  872MOL0     C17607   9.766   1.415   3.944 -0.0022  0.3298 -0.4375
  872MOL0     C17608   9.641   1.459   4.015 -0.4659 -0.9111 -0.0414
  872MOL0     O17609   9.687   1.524   4.137 -0.7119 -0.3209 -0.3823
  872MOL0     C17610   9.599   1.574   4.233 -0.4623  0.0012 -0.5596
  872MOL0     C17611   9.459   1.589   4.210  0.1744  0.2937  0.2836
  872MOL0     C17612   9.371   1.624   4.313  0.2389  0.7647 -0.4541
  872MOL0     C17613   9.230   1.629   4.265  0.0576  0.3763  0.8088
  872MOL0     C17614   9.424   1.655   4.445  0.0122 -0.5008  0.3259
  872MOL0     C17615   9.345   1.703   4.563 -0.7180 -0.4391  0.5434
  872MOL0     O17616   9.217   1.720   4.538  1.0595  0.9644  0.6743
  872MOL0     C17617   9.124   1.769   4.620 -0.5038  0.0894  0.5015
  872MOL0     C17618   9.005   1.699   4.637 -0.4011 -0.1668 -0.0082
  872MOL0     C17619   8.903   1.734   4.724  0.3273 -0.3597  0.3885
  872MOL0     C17620   8.929   1.849   4.807  0.4773  0.3265 -0.1994
  872MOL0     O17621   8.842   1.911   4.900  0.1799  0.2777  0.2356
  872MOL0     C17622   8.703   1.876   4.893 -0.1087 -0.0608  0.6458
  872MOL0     C17623   8.650   1.965   5.000  0.5977 -0.9224 -0.0649
  872MOL0     C17624   8.500   1.955   5.032 -0.5380  0.3416  0.3794
  872MOL0     C17625   8.459   2.012   5.167 -0.0138 -0.8295  0.3528
  872MOL0     C17626   8.306   1.994   5.201 -0.2893  0.3816  0.5388
  872MOL0     C17627   8.209   2.081   5.110  0.6732  0.1571 -0.2633
  872MOL0     C17628   8.059   2.044   5.136  0.7250 -0.4910 -0.0739
  872MOL0     C17629   7.971   2.165   5.082 -0.2564  0.6870 -0.1334
  872MOL0    Cl17630   7.789   2.142   5.125 -0.0369  0.1882 -0.1520
  872MOL0     C17631   9.054   1.921   4.790 -0.2365  0.0309 -0.6853
  872MOL0     C17632   9.150   1.876   4.704 -0.4320 -0.2610  0.2164
  872MOL0     O17633   9.399   1.725   4.670 -0.6902  0.1634 -0.6355
  872MOL0     C17634   9.559   1.636   4.463 -0.8944  0.3511 -0.0144
  872MOL0     C17635   9.644   1.606   4.358 -0.2146 -0.6525  0.4732
  872MOL0     N17636   9.943   1.513   3.673 -0.0607 -0.1215 -0.1179
  872MOL0     N17637  10.060   1.557   3.635  0.1074  0.0039  0.2115
  872MOL0     C17638  10.878   0.575   3.513 -0.6519 -0.2857 -0.4349
  872MOL0     C17639  10.997   0.494   3.515 -0.7864  0.5447 -0.3475
  872MOL0     C17640  11.289   0.144   3.615  1.1315  0.7766  0.4005
  872MOL0     C17641  11.317   0.142   3.473 -0.2255  0.1963  0.1800
  872MOL0     C17642  11.420   0.064   3.421 -0.2916  0.6664 -0.3520
  872MOL0     C17643  11.502  -0.006   3.506 -0.2703 -0.3235  0.6936
  872MOL0     O17644  11.614  -0.070   3.463  0.1180 -0.3296  0.2664
  872MOL0     C17645  11.697   0.023   3.408  1.4793  0.0642  0.7436
  872MOL0     C17646  11.795  -0.036   3.316  0.0809  0.0349 -0.0111
  872MOL0     C17647  11.906  -0.103   3.391  0.1536  0.3470  0.6515
  872MOL0     C17648  11.986  -0.200   3.308 -0.0124  0.1368 -0.0812
  872MOL0     C17649  11.925  -0.333   3.297  0.4647 -0.0168 -0.1491
  872MOL0     C17650  11.877  -0.442   3.280 -0.3717 -0.2746  0.6321
  872MOL0     C17651  11.482  -0.004   3.643  0.1376  0.3160  0.1553
  872MOL0     C17652  11.375   0.069   3.693  0.4380  1.3808 -0.1637
  872MOL0     H17653  10.874   0.257   3.744 -0.5282  0.1647  2.4634
  872MOL0     H17654  10.678   0.421   3.733  0.4943  0.7966 -0.6653
  872MOL0     H17655  10.709   0.824   3.574 -0.5723  1.6211  0.2423
  872MOL0     H17656  10.652   0.741   3.424 -0.0427 -2.5723  0.9186
  872MOL0     H17657  10.431   0.741   3.485 -1.0898  0.7175 -0.3583
  872MOL0     H17658  10.451   0.795   3.638 -3.5831 -1.0769 -2.0463
  872MOL0     H17659  10.595   0.963   3.434  1.2902 -0.7528  2.5190
  872MOL0     H17660  10.413   0.962   3.419 -1.2846 -2.3017  1.4405
  872MOL0     H17661  10.384   1.036   3.652 -0.3561 -0.2071  0.2550
  872MOL0     H17662  10.558   1.030   3.666 -0.1444  0.8491  1.2133
  872MOL0     H17663  10.588   1.220   3.498  0.1262  0.2794 -1.7847
  872MOL0     H17664  10.431   1.194   3.442  1.9098  1.0973 -0.2642
  872MOL0     H17665  10.334   1.251   3.674 -0.5614  1.8253 -0.3498
  872MOL0     H17666  10.495   1.305   3.719  1.3457  0.7521 -0.3295
  872MOL0     H17667  10.467   1.479   3.533 -0.0838  1.4437  2.0617
  872MOL0     H17668  10.317   1.401   3.477 -1.4542  1.0869  0.0647
  872MOL0     H17669  10.312   1.610   3.630 -2.3300  0.8562 -0.0004
  872MOL0     H17670  10.348   1.485   3.760  0.3400 -0.9527 -0.5739
  872MOL0     H17671  10.134   1.264   3.767 -3.0004 -0.3349  2.3603
  872MOL0     H17672   9.871   1.196   3.681 -1.1483  0.1324 -0.9068
  872MOL0     H17673   9.943   1.223   3.843  1.1735  0.3509 -1.0334
  872MOL0     H17674   9.676   1.252   3.835 -0.8612 -0.3322 -1.8434
  872MOL0     H17675   9.714   1.388   3.727  1.1638  0.8290 -0.1674
  872MOL0     H17676   9.840   1.494   3.935  1.2721 -0.7626  0.1530
  872MOL0     H17677   9.814   1.342   4.010 -1.4058 -1.4459 -1.2649
  872MOL0     H17678   9.571   1.378   4.040 -0.0630 -1.2100  0.1205
  872MOL0     H17679   9.603   1.542   3.955  4.3473  1.3456 -0.4313
  872MOL0     H17680   9.414   1.585   4.112  0.9673  0.1832 -0.0811
  872MOL0     H17681   9.171   1.571   4.336 -0.0296 -1.2092 -0.5060
  872MOL0     H17682   9.199   1.734   4.268 -0.8238  0.2679 -1.6591
  872MOL0     H17683   9.208   1.598   4.162 -1.4706  0.0237  1.2192
  872MOL0     H17684   8.988   1.613   4.573 -1.2649 -0.3656  0.4720
  872MOL0     H17685   8.808   1.681   4.732  0.1277 -1.1064 -4.2442
  872MOL0     H17686   8.652   1.893   4.797 -0.4815 -0.5480  0.7461
  872MOL0     H17687   8.678   1.771   4.911  0.9199  0.1202  3.6626
  872MOL0     H17688   8.696   1.956   5.099  1.5753 -0.6752 -0.4814
  872MOL0     H17689   8.662   2.067   4.962 -2.8402  0.2801  1.7258
  872MOL0     H17690   8.465   1.852   5.032 -0.6201  0.3667 -0.2109
  872MOL0     H17691   8.440   1.995   4.950 -2.0934 -4.6915 -1.3041
  872MOL0     H17692   8.520   1.965   5.246  0.5433  3.3695  2.7622
  872MOL0     H17693   8.486   2.118   5.164  0.1542 -0.8524 -3.4718
  872MOL0     H17694   8.282   2.029   5.301  0.8069  0.2445  0.8592
  872MOL0     H17695   8.274   1.890   5.191 -2.7600  1.2369 -2.0303
  872MOL0     H17696   8.219   2.189   5.125 -1.4673  0.7678 -2.5402
  872MOL0     H17697   8.226   2.061   5.004 -0.0463 -3.2623  0.1471
  872MOL0     H17698   8.039   2.035   5.243  0.6752  2.9698  0.3085
  872MOL0     H17699   8.047   1.954   5.076 -0.3652  1.6464 -3.3055
  872MOL0     H17700   7.972   2.164   4.973 -1.3817 -4.7848 -0.3462
  872MOL0     H17701   8.007   2.262   5.119  0.6845  0.7085 -1.0626
  872MOL0     H17702   9.063   2.008   4.855 -3.7344 -1.2459  1.7632
  872MOL0     H17703   9.247   1.924   4.713 -0.6404 -0.2566  4.2874
  872MOL0     H17704   9.611   1.658   4.556  3.6965  2.1360 -2.6230
  872MOL0     H17705   9.752   1.593   4.366 -0.1563 -1.1592 -0.9479
  872MOL0     H17706  10.879   0.669   3.458  0.5147 -1.6258 -2.8735
  872MOL0     H17707  11.087   0.522   3.461  1.6222 -0.2559  2.8904
  872MOL0     H17708  11.258   0.195   3.399  1.5975 -0.1565 -1.6049
  872MOL0     H17709  11.451   0.041   3.319  2.2310  0.6079  0.3615
  872MOL0     H17710  11.647   0.108   3.361  0.3019 -0.2323  1.4146
  872MOL0     H17711  11.752   0.061   3.495 -1.8421  2.3979  2.0401
  872MOL0     H17712  11.843   0.043   3.257  0.6303  0.6140  1.1814
  872MOL0     H17713  11.737  -0.111   3.261 -1.2723  1.3383 -0.4152
  872MOL0     H17714  11.881  -0.133   3.494 -0.0686  3.6985  1.7044
  872MOL0     H17715  11.982  -0.028   3.413 -0.5151  0.3828  3.1609
  872MOL0     H17716  12.081  -0.217   3.360 -0.3472 -1.6951 -0.0056
  872MOL0     H17717  12.004  -0.165   3.206 -1.5244  0.6675 -0.1794
  872MOL0     H17718  11.839  -0.542   3.268 -2.8531  0.2240  3.2281
  872MOL0     H17719  11.539  -0.072   3.705 -0.4742 -0.2675  0.0929
  872MOL0     H17720  11.359   0.071   3.800  0.7262 -0.4020 -0.0568
  873MOL0     O17721   9.005  10.211   6.375 -0.4060 -0.3520 -0.1383
  873MOL0     C17722   8.982  10.146   6.274 -0.2980 -0.3987 -0.3798
  873MOL0     O17723   8.860  10.102   6.235 -0.1646 -0.2757 -0.4421
  873MOL0     C17724   8.759  10.094   6.326  0.1948 -0.3131  0.2567
  873MOL0     C17725   8.676  10.206   6.345 -0.2840  0.0382 -0.0231
  873MOL0     C17726   8.569  10.192   6.437 -0.7427 -0.6645  0.1833
  873MOL0     C17727   8.541  10.067   6.500 -0.3263  0.1790  0.4216
  873MOL0     O17728   8.446  10.047   6.590 -0.1494  0.3526 -0.7296
  873MOL0     C17729   8.345  10.144   6.605 -0.2112  0.2309  0.2736
  873MOL0     C17730   8.239  10.089   6.698  0.2919 -0.4601 -0.1657
  873MOL0     C17731   8.142  10.204   6.736 -0.3204  0.2434  0.2882
  873MOL0     C17732   8.019  10.163   6.820  0.4055  0.0322  0.5849
  873MOL0     C17733   7.931  10.283   6.871 -0.4076  0.0808  0.4564
  873MOL0     C17734   7.813  10.235   6.950  0.5365  0.2392 -0.2973
  873MOL0     C17735   7.726  10.352   6.979 -0.4289 -0.5396 -0.0840
  873MOL0     C17736   7.587  10.331   7.036 -0.3526  0.1610  0.5538
  873MOL0     N17737   7.500  10.316   6.922  0.3144  0.2454  0.0329
  873MOL0     C17738   7.408  10.403   6.876  0.1786  0.2844 -0.2374
  873MOL0     C17739   7.331  10.339   6.781 -1.1590  0.0510  0.2217
  873MOL0     C17740   7.215  10.397   6.704 -0.1757 -0.2798  0.5542
  873MOL0     C17741   7.072  10.347   6.742 -0.8650 -0.3363 -0.3270
  873MOL0     C17742   7.030  10.393   6.888  0.9042 -1.0895  0.0761
  873MOL0     C17743   6.893  10.463   6.880  0.3380  0.8152 -0.3721
  873MOL0     O17744   6.790  10.359   6.843  0.3726 -0.8695 -0.3398
  873MOL0     C17745   6.668  10.405   6.790 -0.1197 -0.2527  0.4245
  873MOL0     C17746   6.635  10.546   6.795 -0.6240 -0.8336  0.1342
  873MOL0     C17747   6.526  10.602   6.723  0.3716 -0.2392  0.3136
  873MOL0     C17748   6.502  10.753   6.734 -0.4353  0.5060 -0.6141
  873MOL0     C17749   6.440  10.511   6.646  0.1544 -0.0931 -0.5653
  873MOL0     C17750   6.336  10.565   6.568 -0.4716  0.3517 -0.2172
  873MOL0     O17751   6.217  10.566   6.623 -0.0107  0.0336  0.0991
  873MOL0     C17752   6.122  10.662   6.597  0.8780  0.2240 -0.1288
  873MOL0     C17753   5.991  10.629   6.644 -0.8683  0.1652  0.3365
  873MOL0     C17754   5.880  10.708   6.619 -0.8284  0.9380 -0.0739
  873MOL0     C17755   5.897  10.832   6.561  0.2870  0.2192 -0.4498
  873MOL0     O17756   5.792  10.912   6.537  0.4360 -0.5168  0.2762
  873MOL0     C17757   5.684  10.848   6.466  0.2373  0.1438  0.4917
  873MOL0     C17758   5.572  10.942   6.454  0.2184 -0.8657 -0.2367
  873MOL0     C17759   5.536  10.997   6.592 -0.5572  0.5631  0.1787
  873MOL0     C17760   5.405  11.088   6.577 -0.9332 -0.0101  0.3783
  873MOL0     C17761   5.353  11.146   6.708  0.2536 -0.5076 -0.4336
  873MOL0     C17762   5.235  11.245   6.697 -0.3579  0.3705 -0.3009
  873MOL0     C17763   5.117  11.189   6.618  0.7237 -0.3358  0.0515
  873MOL0     C17764   4.985  11.277   6.627  0.0333 -0.5831 -0.4765
  873MOL0    Cl17765   4.948  11.304   6.797  0.2666 -0.6554  0.0783
  873MOL0     C17766   6.024  10.867   6.510 -0.4739 -0.7793 -0.8007
  873MOL0     C17767   6.132  10.781   6.522  0.6396 -0.3587 -0.2032
  873MOL0     O17768   6.369  10.590   6.454  0.6472  0.0560  0.0442
  873MOL0     C17769   6.472  10.374   6.640  1.5641 -0.3974 -0.5637
  873MOL0     C17770   6.582  10.325   6.716 -1.0910 -0.6277  0.4665
  873MOL0     N17771   7.381  10.210   6.770 -0.5839  0.0889  0.5755
  873MOL0     N17772   7.479  10.203   6.854  0.8726 -0.4594  0.4833
  873MOL0     C17773   8.631   9.960   6.480 -0.5217 -0.3963 -0.0375
  873MOL0     C17774   8.735   9.970   6.390 -0.3141  0.2245  0.6844
  873MOL0     C17775   9.086  10.130   6.167 -0.1767 -0.5082  1.2111
  873MOL0     C17776   9.060  10.121   6.030  0.1182 -0.1714  0.4104
  873MOL0     C17777   9.163  10.129   5.935 -0.1883  0.2781  0.1806
  873MOL0     C17778   9.297  10.137   5.974 -0.4423 -0.2893  0.1778
  873MOL0     O17779   9.397  10.144   5.876  0.0143  0.0091  0.3017
  873MOL0     C17780   9.530  10.106   5.914 -0.1240  0.9086  0.3076
  873MOL0     C17781   9.601  10.091   5.773 -0.4059  0.2448 -0.4856
  873MOL0     C17782   9.753  10.048   5.779  1.1913 -0.3786  0.8269
  873MOL0     C17783   9.805   9.983   5.904 -0.3413 -0.0593  0.7074
  873MOL0     C17784   9.948   9.958   5.879  1.3419  0.0951  0.2422
  873MOL0     C17785  10.062   9.954   5.848 -0.5590  1.0288 -0.0048
  873MOL0     C17786   9.325  10.156   6.102 -0.0076  0.1959 -0.3585
  873MOL0     C17787   9.221  10.146   6.200 -0.3556 -0.5917 -0.0671
  873MOL0     H17788   8.702  10.302   6.302  1.5965  0.0416  0.9802
  873MOL0     H17789   8.526  10.284   6.476  1.3541  0.0609  0.9038
  873MOL0     H17790   8.387  10.234   6.651 -0.4906 -0.7926  2.6706
  873MOL0     H17791   8.297  10.163   6.509  1.0288 -0.1962 -0.4564
  873MOL0     H17792   8.179  10.012   6.648  0.8866  0.3672 -2.2490
  873MOL0     H17793   8.287  10.049   6.788 -0.2760 -1.3000 -0.2135
  873MOL0     H17794   8.175  10.293   6.790 -2.1242  1.0938  0.0789
  873MOL0     H17795   8.099  10.252   6.647  0.4411 -1.1633 -0.8862
  873MOL0     H17796   7.950  10.104   6.759  2.5599 -3.7907  1.5864
  873MOL0     H17797   8.049  10.119   6.915 -1.0957  1.8417  1.9648
  873MOL0     H17798   7.996  10.337   6.941 -0.3579 -1.3558  1.5884
  873MOL0     H17799   7.916  10.356   6.792  1.2320  0.4020  0.4089
  873MOL0     H17800   7.762  10.154   6.897 -0.6939  1.2632 -0.7121
  873MOL0     H17801   7.839  10.195   7.049 -3.0715  1.9664  1.5412
  873MOL0     H17802   7.775  10.411   7.057 -0.8892 -1.4131  0.8888
  873MOL0     H17803   7.715  10.408   6.886 -2.5987 -1.0461 -0.1813
  873MOL0     H17804   7.567  10.417   7.100  3.5542  0.6053  1.4341
  873MOL0     H17805   7.574  10.240   7.097  1.0564 -0.3477  0.1460
  873MOL0     H17806   7.390  10.504   6.910  1.6127  0.4420  0.1171
  873MOL0     H17807   7.208  10.506   6.695  1.7544 -0.2016 -0.5723
  873MOL0     H17808   7.245  10.362   6.605  2.1003  1.6022  0.4835
  873MOL0     H17809   7.066  10.238   6.741  1.3006 -0.5092  0.3383
  873MOL0     H17810   6.996  10.379   6.671 -0.3221 -3.3520 -2.4572
  873MOL0     H17811   7.091  10.477   6.923  0.3935 -1.0060  0.7851
  873MOL0     H17812   7.040  10.306   6.953 -1.0099 -1.3368  0.0788
  873MOL0     H17813   6.914  10.541   6.806  0.4157 -1.2073 -2.6307
  873MOL0     H17814   6.868  10.507   6.977 -1.8167 -0.1581 -0.4346
  873MOL0     H17815   6.696  10.617   6.850  1.2560 -0.9257 -1.7299
  873MOL0     H17816   6.580  10.791   6.801  1.8495  0.6271 -3.1760
  873MOL0     H17817   6.518  10.806   6.640  0.0251  0.9975 -0.2640
  873MOL0     H17818   6.400  10.776   6.767 -0.6728 -1.6615  0.3518
  873MOL0     H17819   5.982  10.538   6.702 -1.4304 -0.7021 -1.0766
  873MOL0     H17820   5.783  10.680   6.658  0.2378  0.6571  2.6504
  873MOL0     H17821   5.715  10.818   6.365  0.1776  0.3254  0.4188
  873MOL0     H17822   5.649  10.757   6.516 -0.6605 -1.4283 -2.7243
  873MOL0     H17823   5.605  11.030   6.398  0.9475 -0.4035  0.8692
  873MOL0     H17824   5.490  10.893   6.401  0.5219 -0.9057 -0.6753
  873MOL0     H17825   5.616  11.061   6.630 -0.3719  0.8433 -0.6607
  873MOL0     H17826   5.527  10.912   6.659  1.9071  1.2346  1.4906
  873MOL0     H17827   5.430  11.170   6.510 -3.4313  1.4624  1.1096
  873MOL0     H17828   5.337  11.017   6.529  0.0154  0.0512 -1.1183
  873MOL0     H17829   5.441  11.197   6.750 -0.5939  2.1094 -1.6464
  873MOL0     H17830   5.319  11.065   6.773  4.3447 -0.6234  1.9245
  873MOL0     H17831   5.218  11.277   6.800  2.3378  1.4539 -0.1118
  873MOL0     H17832   5.256  11.345   6.659  2.9379  1.4521  3.6524
  873MOL0     H17833   5.084  11.092   6.657  0.7276 -0.4885 -0.3227
  873MOL0     H17834   5.148  11.176   6.514  1.0619  3.1982 -0.4144
  873MOL0     H17835   4.900  11.232   6.575 -2.1512  1.4446  1.1055
  873MOL0     H17836   4.989  11.379   6.587  0.8067 -0.5691 -0.3854
  873MOL0     H17837   6.030  10.964   6.461  2.3170  1.0284  2.6546
  873MOL0     H17838   6.234  10.807   6.495  0.4724  1.1282  0.4849
  873MOL0     H17839   6.416  10.301   6.583  0.4909 -0.0363 -0.0076
  873MOL0     H17840   6.613  10.222   6.703 -2.9171 -0.8486 -3.2959
  873MOL0     H17841   8.610   9.872   6.539 -0.2657  0.7531  1.8454
  873MOL0     H17842   8.804   9.887   6.378 -0.5465  0.1717 -0.3676
  873MOL0     H17843   8.953  10.109   6.010  0.6145 -0.4830 -2.6188
  873MOL0     H17844   9.152  10.110   5.829 -0.0830 -0.4061  0.2820
  873MOL0     H17845   9.567  10.192   5.970  0.8685  2.2478 -2.2461
  873MOL0     H17846   9.535  10.009   5.964 -0.3690 -0.1299 -1.5907
  873MOL0     H17847   9.589  10.184   5.716 -1.4252 -0.4461 -1.4339
  873MOL0     H17848   9.547  10.011   5.723 -2.7154  1.1608  0.3984
  873MOL0     H17849   9.811  10.135   5.747 -1.0939  1.4887  1.5297
  873MOL0     H17850   9.773   9.975   5.700  0.3495 -1.3704  1.4962
  873MOL0     H17851   9.749   9.892   5.926 -0.2945 -0.4512 -0.6764
  873MOL0     H17852   9.798  10.052   5.989  1.1722  0.8303  0.1472
  873MOL0     H17853  10.165   9.952   5.817 -0.5865  1.8943 -0.1712
  873MOL0     H17854   9.425  10.170   6.143 -0.2417  0.8456  0.0100
  873MOL0     H17855   9.240  10.151   6.306 -0.9786  0.9136 -0.0052
  874MOL0     O17856   2.358   2.514   2.882 -0.6263  0.1478 -0.2668
  874MOL0     C17857   2.277   2.447   2.948  0.1428  0.6590  0.1911
  874MOL0     O17858   2.150   2.470   2.963 -0.1643  0.4565 -0.3668
  874MOL0     C17859   2.088   2.551   2.871 -0.3110 -0.4128  0.5565
  874MOL0     C17860   2.107   2.546   2.737 -0.0833 -0.5166 -0.9429
  874MOL0     C17861   2.053   2.630   2.647  1.1981  0.4396 -0.0411
  874MOL0     C17862   1.951   2.724   2.682  0.4778 -0.0969  0.3260
  874MOL0     O17863   1.874   2.797   2.591 -0.4075 -0.2412  0.4543
  874MOL0     C17864   1.875   2.753   2.452  0.4565 -0.4280  0.3723
  874MOL0     C17865   1.765   2.829   2.380  0.0841  0.6118 -0.5055
  874MOL0     C17866   1.754   2.799   2.231  0.0510 -0.1752 -0.6093
  874MOL0     C17867   1.867   2.863   2.143 -0.4199  0.1433 -0.0594
  874MOL0     C17868   1.846   3.020   2.131  0.6233 -0.0359 -0.0153
  874MOL0     C17869   1.696   3.069   2.132 -0.1356 -0.0925  0.8390
  874MOL0     C17870   1.670   3.210   2.090  0.2297 -0.4848 -0.3323
  874MOL0     C17871   1.731   3.322   2.189 -0.3868 -0.2047 -0.5232
  874MOL0     N17872   1.702   3.460   2.149  0.2289  0.0976  0.3676
  874MOL0     C17873   1.738   3.519   2.030  0.7048  0.5441  0.2976
  874MOL0     C17874   1.681   3.640   2.028  0.2888  0.6144  0.2606
  874MOL0     C17875   1.706   3.744   1.919 -0.2647 -0.0255  0.3359
  874MOL0     C17876   1.631   3.707   1.787 -0.1944  0.1183 -0.5021
  874MOL0     C17877   1.482   3.715   1.819 -1.3793 -0.6862  0.9754
  874MOL0     C17878   1.415   3.696   1.685  0.0629 -0.1203 -0.1762
  874MOL0     O17879   1.279   3.682   1.696  0.5631 -0.6967 -0.0458
  874MOL0     C17880   1.195   3.693   1.587 -0.0728 -0.7039 -0.1489
  874MOL0     C17881   1.055   3.674   1.609  0.6281 -0.6762 -0.9574
  874MOL0     C17882   0.954   3.684   1.512  0.2117 -0.5140  0.1855
  874MOL0     C17883   0.811   3.682   1.570 -0.2657  1.0378  0.6258
  874MOL0     C17884   0.989   3.702   1.377  0.2138  0.4105  0.0946
  874MOL0     C17885   0.901   3.704   1.260  0.3236 -0.2244 -0.0131
  874MOL0     O17886   0.786   3.637   1.276 -0.3368  0.5853  0.6749
  874MOL0     C17887   0.711   3.622   1.165  0.7902  0.4163 -0.0823
  874MOL0     C17888   0.612   3.716   1.130 -0.1659  0.6420 -0.9062
  874MOL0     C17889   0.549   3.702   1.011 -0.6464 -0.1058 -0.6458
  874MOL0     C17890   0.573   3.591   0.930  0.1733 -0.6320  0.0838
  874MOL0     O17891   0.509   3.578   0.808  0.4939  0.7790  0.4339
  874MOL0     C17892   0.374   3.535   0.844 -0.1630  0.8858 -0.0996
  874MOL0     C17893   0.303   3.505   0.707  0.0886 -0.2785 -0.1676
  874MOL0     C17894   0.160   3.441   0.727  0.2145 -0.8694 -0.4736
  874MOL0     C17895   0.057   3.487   0.624 -0.2865  0.0236  0.3717
  874MOL0     C17896  -0.078   3.415   0.634 -0.1871 -0.4124  0.1885
  874MOL0     C17897  -0.167   3.439   0.521  0.8840  0.0385  0.5986
  874MOL0     C17898  -0.208   3.587   0.499  0.3246  0.6144  0.4424
  874MOL0     C17899  -0.307   3.610   0.390 -0.0257 -0.0860  0.8074
  874MOL0    Cl17900  -0.233   3.534   0.233 -0.0671  0.0510  0.1401
  874MOL0     C17901   0.660   3.490   0.968  0.4290  0.6103 -0.2978
  874MOL0     C17902   0.728   3.501   1.091 -0.8386  0.7587  0.1593
  874MOL0     O17903   0.935   3.778   1.164 -0.4755  0.0673 -0.3033
  874MOL0     C17904   1.132   3.713   1.355  0.5208 -0.0766 -0.1046
  874MOL0     C17905   1.231   3.709   1.454  0.4289 -1.1079 -0.0295
  874MOL0     N17906   1.593   3.645   2.135 -0.5037 -0.6749  0.5250
  874MOL0     N17907   1.610   3.538   2.210 -0.8848  1.1159 -0.4011
  874MOL0     C17908   1.914   2.725   2.813  0.8592 -0.1040  0.6675
  874MOL0     C17909   1.985   2.646   2.911  0.3723  0.6256 -0.2767
  874MOL0     C17910   2.329   2.327   3.020  0.6919 -0.9131 -0.3980
  874MOL0     C17911   2.465   2.294   2.994 -0.1674  0.9345  0.4693
  874MOL0     C17912   2.515   2.173   3.050 -0.2363 -0.0767  0.2102
  874MOL0     C17913   2.431   2.082   3.129 -0.6405 -0.6458 -0.3115
  874MOL0     O17914   2.471   1.954   3.171 -0.2262 -0.1860  0.1622
  874MOL0     C17915   2.605   1.903   3.133  0.3292 -0.3802 -0.4492
  874MOL0     C17916   2.628   1.775   3.212 -1.0298 -0.1108 -0.4610
  874MOL0     C17917   2.540   1.655   3.164  0.5177 -0.1632 -0.3816
  874MOL0     C17918   2.575   1.525   3.249 -0.1113 -0.5629  0.0974
  874MOL0     C17919   2.572   1.543   3.390 -0.4240  0.1321  0.0835
  874MOL0     C17920   2.559   1.573   3.509 -1.3818 -0.2478  0.2588
  874MOL0     C17921   2.297   2.120   3.148 -0.9055 -0.1438  0.2749
  874MOL0     C17922   2.252   2.242   3.092 -0.3061  0.4403 -0.2144
  874MOL0     H17923   2.172   2.465   2.702 -0.2718  0.6261 -4.3194
  874MOL0     H17924   2.103   2.637   2.551  1.8714  0.3541  0.2968
  874MOL0     H17925   1.967   2.791   2.407 -0.9620  2.8356 -0.0133
  874MOL0     H17926   1.872   2.644   2.436 -0.1345 -0.5042  0.9501
  874MOL0     H17927   1.677   2.789   2.431  2.1731 -0.8943  2.2180
  874MOL0     H17928   1.779   2.934   2.410  3.2688 -0.2270  1.4504
  874MOL0     H17929   1.757   2.690   2.220  1.3211  0.0138 -2.6539
  874MOL0     H17930   1.653   2.823   2.198 -0.8966 -2.7622  0.1906
  874MOL0     H17931   1.965   2.837   2.183  0.7446  1.0330 -2.1982
  874MOL0     H17932   1.865   2.816   2.045 -3.8123  2.9424 -1.5434
  874MOL0     H17933   1.902   3.071   2.211 -0.0259  2.0308 -0.8111
  874MOL0     H17934   1.889   3.062   2.040 -1.4157  3.0278  0.2686
  874MOL0     H17935   1.642   3.001   2.066 -0.8356 -0.6043  1.9201
  874MOL0     H17936   1.648   3.067   2.230 -0.7802 -2.0608  0.5320
  874MOL0     H17937   1.714   3.211   1.990 -0.2603 -0.1936 -0.5485
  874MOL0     H17938   1.563   3.230   2.076  0.5977  2.9050  0.6562
  874MOL0     H17939   1.839   3.314   2.203 -0.2584  2.3613  0.6902
  874MOL0     H17940   1.683   3.298   2.284 -0.0067 -2.6696 -0.8992
  874MOL0     H17941   1.803   3.486   1.949  0.8675 -1.0972  1.0568
  874MOL0     H17942   1.674   3.841   1.960  2.2624  0.5855  1.0755
  874MOL0     H17943   1.812   3.771   1.909 -0.1025  1.1572  3.7121
  874MOL0     H17944   1.664   3.602   1.788 -1.4930 -0.4432  4.0036
  874MOL0     H17945   1.668   3.767   1.704 -1.5532  2.3222  0.3978
  874MOL0     H17946   1.460   3.818   1.847 -0.8192  1.5135 -5.1181
  874MOL0     H17947   1.455   3.640   1.894 -1.5124 -0.5459  1.0694
  874MOL0     H17948   1.457   3.610   1.632 -0.0247 -0.8527  0.9234
  874MOL0     H17949   1.442   3.788   1.631  1.9314  0.5956  1.7983
  874MOL0     H17950   1.021   3.672   1.712  0.3222  1.1526 -0.9867
  874MOL0     H17951   0.792   3.783   1.609 -4.2070  1.4546 -1.8175
  874MOL0     H17952   0.731   3.662   1.498 -0.0140 -1.1406  0.9015
  874MOL0     H17953   0.812   3.605   1.648  0.2629 -1.2926 -1.5560
  874MOL0     H17954   0.601   3.811   1.180 -2.9467  0.0504 -0.2293
  874MOL0     H17955   0.487   3.785   0.979 -0.8356 -0.5975 -1.5830
  874MOL0     H17956   0.368   3.448   0.909 -0.6305  1.1969  0.2819
  874MOL0     H17957   0.332   3.627   0.886 -0.8191  0.2658  0.6192
  874MOL0     H17958   0.298   3.594   0.644 -1.2617  0.4379  0.8878
  874MOL0     H17959   0.367   3.436   0.652  0.1621  1.2800 -2.1205
  874MOL0     H17960   0.125   3.485   0.821  0.3364 -1.0256 -0.3530
  874MOL0     H17961   0.165   3.332   0.734 -2.7513 -1.0496 -0.0508
  874MOL0     H17962   0.045   3.596   0.624  1.4830  0.2622 -1.4586
  874MOL0     H17963   0.093   3.464   0.523  0.4618  0.0895  0.6200
  874MOL0     H17964  -0.126   3.441   0.729 -0.7321  0.4926 -0.3155
  874MOL0     H17965  -0.053   3.309   0.636  2.3528  0.1369  1.4090
  874MOL0     H17966  -0.117   3.410   0.428 -1.8225  0.7460 -1.2115
  874MOL0     H17967  -0.254   3.374   0.535 -0.1408  0.7620 -1.8257
  874MOL0     H17968  -0.117   3.647   0.494  1.3548 -0.5300  3.4091
  874MOL0     H17969  -0.256   3.627   0.588  0.8982  0.0436  1.0147
  874MOL0     H17970  -0.321   3.718   0.380  0.7540 -0.0726 -0.3175
  874MOL0     H17971  -0.408   3.574   0.412 -0.7504 -0.6972 -2.8537
  874MOL0     H17972   0.664   3.394   0.918 -1.7167 -0.9455  2.2799
  874MOL0     H17973   0.800   3.422   1.106 -3.3742 -1.8710 -0.4720
  874MOL0     H17974   1.158   3.725   1.251  0.2236  1.0526 -0.0576
  874MOL0     H17975   1.337   3.727   1.435  0.0941  0.8445 -0.2809
  874MOL0     H17976   1.855   2.808   2.849  1.7346  1.5233 -1.4352
  874MOL0     H17977   1.963   2.654   3.017 -0.2427  1.3104 -0.4462
  874MOL0     H17978   2.532   2.352   2.931  1.2805 -0.5892  0.5508
  874MOL0     H17979   2.616   2.144   3.024  0.4275  1.4300  0.9793
  874MOL0     H17980   2.600   1.884   3.026  0.1640 -1.4545 -0.2610
  874MOL0     H17981   2.680   1.983   3.145 -1.4693  1.2772  0.3123
  874MOL0     H17982   2.603   1.806   3.314 -1.3471  0.0472 -0.5834
  874MOL0     H17983   2.733   1.748   3.196 -0.7278  1.2220 -0.8767
  874MOL0     H17984   2.562   1.624   3.062 -0.4840  1.0226 -0.9800
  874MOL0     H17985   2.433   1.673   3.183  0.9885 -0.2545  3.0936
  874MOL0     H17986   2.673   1.490   3.214 -0.7937 -1.4473 -0.9512
  874MOL0     H17987   2.499   1.450   3.225 -1.0888 -0.1117  1.6183
  874MOL0     H17988   2.550   1.592   3.614  0.2192  0.9573  0.2202
  874MOL0     H17989   2.223   2.056   3.196  0.7087 -0.4931  2.4336
  874MOL0     H17990   2.146   2.259   3.105 -0.4537 -1.3864  1.4046
  875MOL0     O17991   1.951   5.295   2.830 -0.0129 -0.7681 -0.1547
  875MOL0     C17992   1.994   5.258   2.941 -0.2706 -0.3102 -0.5358
  875MOL0     O17993   1.963   5.311   3.066 -0.4516 -0.0709  0.4007
  875MOL0     C17994   1.853   5.388   3.075  0.4197 -0.2545 -0.9874
  875MOL0     C17995   1.870   5.505   3.148 -0.0558  0.2885 -0.8190
  875MOL0     C17996   1.753   5.592   3.191  0.2614 -0.2126 -0.4788
  875MOL0     C17997   1.627   5.548   3.145  0.3865  0.5317 -0.1756
  875MOL0     O17998   1.527   5.622   3.189  0.3234 -0.0032 -0.6216
  875MOL0     C17999   1.401   5.613   3.118  0.1052 -0.7274 -0.1753
  875MOL0     C18000   1.302   5.721   3.149 -0.3911  0.2082 -0.5931
  875MOL0     C18001   1.240   5.690   3.293  0.0824 -0.0052 -0.3877
  875MOL0     C18002   1.151   5.806   3.342 -0.6351  0.1289 -0.9783
  875MOL0     C18003   1.220   5.947   3.347  1.7051 -0.0734 -0.0896
  875MOL0     C18004   1.143   6.052   3.425  0.0977  0.1327 -0.5567
  875MOL0     C18005   0.986   6.033   3.399  0.7974  0.3576 -1.0942
  875MOL0     C18006   0.905   6.161   3.448  0.3949  0.2613  0.0298
  875MOL0     N18007   0.777   6.164   3.380  0.0933 -0.4321  0.6836
  875MOL0     C18008   0.762   6.190   3.245 -0.6589  0.7229 -0.4042
  875MOL0     C18009   0.627   6.196   3.226 -0.2162 -0.2718 -0.1590
  875MOL0     C18010   0.550   6.230   3.104 -0.5855  0.6961 -0.2999
  875MOL0     C18011   0.500   6.107   3.040  0.5457  0.5088  0.7866
  875MOL0     C18012   0.373   6.049   3.113 -0.2865 -0.1174 -0.4249
  875MOL0     C18013   0.261   6.153   3.124 -0.4047 -0.9043 -0.1456
  875MOL0     O18014   0.154   6.079   3.193  0.6150 -0.2434  0.6431
  875MOL0     C18015   0.027   6.125   3.172 -0.0097  0.1457 -0.0501
  875MOL0     C18016  -0.009   6.246   3.113  0.5880  0.3786 -0.3245
  875MOL0     C18017  -0.146   6.283   3.096  0.5508  0.6844 -0.0840
  875MOL0     C18018  -0.160   6.412   3.039 -0.0400  0.1711  0.3495
  875MOL0     C18019  -0.254   6.181   3.126 -0.5464  1.9121 -0.0568
  875MOL0     C18020  -0.393   6.216   3.116  0.4583 -0.4196 -0.8766
  875MOL0     O18021  -0.486   6.177   3.214 -0.8045 -0.2384  0.4891
  875MOL0     C18022  -0.599   6.259   3.227 -0.2047 -0.9644 -0.7365
  875MOL0     C18023  -0.719   6.203   3.194 -0.1441  0.1173  0.1362
  875MOL0     C18024  -0.830   6.294   3.191  0.1216 -0.2517 -0.2544
  875MOL0     C18025  -0.818   6.423   3.234 -0.4967  0.5673 -0.4217
  875MOL0     O18026  -0.932   6.496   3.232 -0.2001 -0.2348 -0.0074
  875MOL0     C18027  -0.934   6.635   3.246  0.0501 -0.4137 -1.1244
  875MOL0     C18028  -1.064   6.688   3.198  0.2171 -0.5070 -1.1412
  875MOL0     C18029  -1.182   6.668   3.301  0.1939  0.8057  0.2371
  875MOL0     C18030  -1.286   6.780   3.289  0.1359 -0.3490 -0.1296
  875MOL0     C18031  -1.392   6.761   3.394  0.5019 -0.2825  0.0639
  875MOL0     C18032  -1.471   6.893   3.422  0.2735 -0.5168  0.1618
  875MOL0     C18033  -1.570   6.931   3.309  0.6686  0.2945 -0.6425
  875MOL0     C18034  -1.660   7.055   3.338  0.3069  0.4071 -0.7476
  875MOL0    Cl18035  -1.771   7.008   3.476 -0.2740 -0.2893 -0.1439
  875MOL0     C18036  -0.695   6.471   3.284 -0.6054 -0.0710 -0.5719
  875MOL0     C18037  -0.581   6.391   3.266  0.0883  0.4681  0.0585
  875MOL0     O18038  -0.429   6.254   3.003  0.3363 -0.5800 -0.1797
  875MOL0     C18039  -0.213   6.064   3.192 -0.1089  0.8394 -0.1431
  875MOL0     C18040  -0.077   6.041   3.220  0.7416  0.4374  0.1370
  875MOL0     N18041   0.565   6.167   3.343  0.1280  0.1424 -0.1578
  875MOL0     N18042   0.653   6.142   3.432 -1.0584  0.2356  0.7817
  875MOL0     C18043   1.611   5.427   3.066 -0.4841 -0.1971 -0.5728
  875MOL0     C18044   1.721   5.342   3.041  0.6077  0.5005 -0.4067
  875MOL0     C18045   2.118   5.179   2.937  0.1441  0.2495 -0.7324
  875MOL0     C18046   2.179   5.135   3.061 -0.5567 -0.3132  0.6086
  875MOL0     C18047   2.306   5.066   3.042  0.1212 -0.5346  0.6445
  875MOL0     C18048   2.374   5.039   2.913  0.8608 -0.3879 -0.7055
  875MOL0     O18049   2.498   4.996   2.891 -0.7308  0.2099 -0.3495
  875MOL0     C18050   2.582   4.994   3.010  0.1392 -0.5191 -0.5662
  875MOL0     C18051   2.722   4.971   2.960 -0.7165  0.0821 -0.0579
  875MOL0     C18052   2.805   4.904   3.074  0.0598  0.9503  0.4004
  875MOL0     C18053   2.952   4.936   3.061 -0.5178  0.1840 -1.1669
  875MOL0     C18054   3.010   4.852   2.954  0.9345  0.1708 -0.1295
  875MOL0     C18055   3.037   4.777   2.860 -0.3301  1.2097 -0.3899
  875MOL0     C18056   2.299   5.081   2.800  1.5421  0.9002 -0.8159
  875MOL0     C18057   2.177   5.143   2.812  0.3890 -0.4501  0.5002
  875MOL0     H18058   1.965   5.540   3.187  0.2558  2.4590 -3.2154
  875MOL0     H18059   1.771   5.678   3.255  2.9620 -0.5683 -0.6339
  875MOL0     H18060   1.412   5.622   3.009 -0.7944 -1.6634 -0.3535
  875MOL0     H18061   1.345   5.523   3.145 -0.3560  0.0985  1.7806
  875MOL0     H18062   1.351   5.819   3.148  0.6593 -0.2821  0.2652
  875MOL0     H18063   1.222   5.719   3.074  0.6766 -1.0236 -1.7607
  875MOL0     H18064   1.178   5.601   3.285  0.7419 -0.4413 -0.7802
  875MOL0     H18065   1.320   5.662   3.362 -1.8982 -1.3657  1.4573
  875MOL0     H18066   1.057   5.815   3.287 -0.9285  0.0166 -0.5016
  875MOL0     H18067   1.127   5.797   3.448 -1.3674 -0.5828 -1.1975
  875MOL0     H18068   1.314   5.936   3.403  0.4726 -4.5899  1.5090
  875MOL0     H18069   1.242   5.980   3.245  0.5882  0.0869 -0.2828
  875MOL0     H18070   1.180   6.047   3.528 -0.1945  3.2906 -0.1940
  875MOL0     H18071   1.167   6.152   3.389 -2.0559 -0.3841 -3.7537
  875MOL0     H18072   0.975   6.012   3.292  0.3912 -0.2898 -0.9298
  875MOL0     H18073   0.947   5.944   3.449  2.7212 -0.1049 -0.3267
  875MOL0     H18074   0.968   6.248   3.433  1.5323 -0.6835 -0.8888
  875MOL0     H18075   0.884   6.154   3.555  0.0822 -0.5388 -0.0735
  875MOL0     H18076   0.833   6.207   3.165 -2.0411  1.0466 -1.6135
  875MOL0     H18077   0.464   6.287   3.143 -0.6669 -0.8367  1.9868
  875MOL0     H18078   0.606   6.289   3.032 -1.5354  2.2014  0.1525
  875MOL0     H18079   0.576   6.028   3.033  1.6334  1.6384 -4.1238
  875MOL0     H18080   0.468   6.125   2.937  2.8082 -1.4761 -0.3645
  875MOL0     H18081   0.390   5.995   3.206 -2.0414  1.2276  0.7415
  875MOL0     H18082   0.351   5.971   3.040  1.8020 -0.9743 -0.2118
  875MOL0     H18083   0.224   6.189   3.028 -2.7514  0.2251  1.1021
  875MOL0     H18084   0.292   6.236   3.189 -0.8360  2.1358 -3.5281
  875MOL0     H18085   0.070   6.321   3.107  0.7931  0.4335  2.1868
  875MOL0     H18086  -0.255   6.432   2.989  0.2274  2.1185  0.5588
  875MOL0     H18087  -0.160   6.494   3.111 -4.8683  2.2503 -1.5634
  875MOL0     H18088  -0.074   6.425   2.972  0.2600 -1.9759  0.2544
  875MOL0     H18089  -0.738   6.108   3.144 -4.7367  0.2602  1.1582
  875MOL0     H18090  -0.926   6.254   3.159  0.4215 -2.7338  1.6906
  875MOL0     H18091  -0.913   6.658   3.351  2.1206 -2.9552 -0.8812
  875MOL0     H18092  -0.849   6.667   3.186  0.7593 -2.7877 -1.4893
  875MOL0     H18093  -1.049   6.795   3.181  2.7973 -0.8162 -1.1685
  875MOL0     H18094  -1.094   6.639   3.104 -0.9537  1.1894 -1.6965
  875MOL0     H18095  -1.135   6.649   3.398  0.6237 -1.0626 -0.2903
  875MOL0     H18096  -1.240   6.578   3.278  0.0242  0.6958  1.0800
  875MOL0     H18097  -1.231   6.872   3.307 -0.3011 -0.2859  0.9220
  875MOL0     H18098  -1.329   6.794   3.189 -1.1860 -0.4389  0.4073
  875MOL0     H18099  -1.346   6.726   3.487  1.3986 -3.2198 -1.3745
  875MOL0     H18100  -1.462   6.681   3.369 -1.5397  0.7297  2.1166
  875MOL0     H18101  -1.533   6.892   3.512  1.5574 -3.0871  1.1156
  875MOL0     H18102  -1.398   6.974   3.422  0.2435 -0.4879 -0.0974
  875MOL0     H18103  -1.642   6.848   3.305  2.2800 -1.1267 -3.9387
  875MOL0     H18104  -1.517   6.942   3.215 -0.6361  1.0563 -1.3264
  875MOL0     H18105  -1.726   7.092   3.259 -3.7597 -0.9798  1.6785
  875MOL0     H18106  -1.597   7.136   3.377  0.1103  0.0019  0.4545
  875MOL0     H18107  -0.695   6.571   3.325 -0.5198 -0.5432  0.6266
  875MOL0     H18108  -0.483   6.429   3.293  0.9348  0.2372 -2.4817
  875MOL0     H18109  -0.295   5.994   3.201  1.9034 -1.8149 -0.8935
  875MOL0     H18110  -0.046   5.943   3.255 -0.1262 -0.0344 -0.3842
  875MOL0     H18111   1.515   5.385   3.036 -1.2568  3.0086 -3.1859
  875MOL0     H18112   1.706   5.257   2.975  0.8554  1.4232 -1.6752
  875MOL0     H18113   2.139   5.137   3.162 -2.1772 -0.3216 -0.0166
  875MOL0     H18114   2.352   5.028   3.132 -0.7509 -1.5778  0.6611
  875MOL0     H18115   2.594   5.092   3.058  4.4441 -0.2128 -1.8435
  875MOL0     H18116   2.553   4.914   3.079  1.8053 -0.7658 -0.0948
  875MOL0     H18117   2.770   5.063   2.925 -1.7726  0.6904  0.0717
  875MOL0     H18118   2.724   4.898   2.878  3.2583  1.8574 -1.8447
  875MOL0     H18119   2.788   4.796   3.078 -1.5778  1.1355 -0.5641
  875MOL0     H18120   2.765   4.946   3.167 -2.1396 -1.0545  0.4700
  875MOL0     H18121   3.015   4.917   3.149 -1.0528 -3.3344 -1.3683
  875MOL0     H18122   2.950   5.042   3.037 -1.2962  1.6825  4.2751
  875MOL0     H18123   3.067   4.718   2.776 -0.1060 -2.0270  1.7364
  875MOL0     H18124   2.345   5.077   2.701  0.6197  1.7757 -1.2972
  875MOL0     H18125   2.131   5.185   2.724 -0.4715 -1.0510  0.6455
  876MOL0     O18126   5.871   7.892   7.107 -0.0485  0.3283 -0.0730
  876MOL0     C18127   5.965   7.894   7.189 -0.1609 -0.2553 -1.2107
  876MOL0     O18128   5.977   7.800   7.293 -0.4985 -0.8003 -0.2297
  876MOL0     C18129   5.868   7.729   7.327 -0.7055  0.6720 -0.0209
  876MOL0     C18130   5.733   7.768   7.329  0.0240 -0.0298 -0.5421
  876MOL0     C18131   5.633   7.702   7.406 -1.0986  0.3420 -0.0693
  876MOL0     C18132   5.666   7.571   7.446 -0.0039  0.8769 -0.2824
  876MOL0     O18133   5.591   7.484   7.515  0.0103  0.0568 -0.5104
  876MOL0     C18134   5.474   7.541   7.587 -0.5170 -0.0163  0.2204
  876MOL0     C18135   5.401   7.421   7.658  0.6782  0.4657 -0.3096
  876MOL0     C18136   5.272   7.450   7.738 -1.0801 -0.4393 -0.6592
  876MOL0     C18137   5.288   7.530   7.870  0.7814  0.0358  0.2309
  876MOL0     C18138   5.173   7.487   7.961 -0.5532 -0.2593  0.0429
  876MOL0     C18139   5.038   7.540   7.920  0.7052 -0.5900  0.2005
  876MOL0     C18140   4.958   7.532   8.046  0.0781 -0.3644 -0.7834
  876MOL0     C18141   4.809   7.588   8.035 -0.2591  0.7314  0.2433
  876MOL0     N18142   4.803   7.728   8.013 -0.1381  0.2783  0.6695
  876MOL0     C18143   4.830   7.829   8.102 -0.5483 -0.4695 -0.8990
  876MOL0     C18144   4.829   7.943   8.026  2.3719  1.1462 -0.8706
  876MOL0     C18145   4.881   8.076   8.069 -0.4289  0.5371  0.2589
  876MOL0     C18146   5.022   8.084   8.011 -0.1230  0.4995  0.0627
  876MOL0     C18147   5.067   8.226   8.036 -1.3121  0.1730 -0.4198
  876MOL0     C18148   5.194   8.252   7.957 -0.5252 -0.0227 -0.8917
  876MOL0     O18149   5.273   8.327   8.048  0.0505 -0.2279 -0.0179
  876MOL0     C18150   5.400   8.359   8.008 -0.5319 -0.8661  0.4786
  876MOL0     C18151   5.476   8.424   8.109 -0.2497 -0.5417  0.1518
  876MOL0     C18152   5.605   8.458   8.088 -1.0633 -0.1415  0.2169
  876MOL0     C18153   5.679   8.521   8.204  1.0795  1.0549 -0.0040
  876MOL0     C18154   5.677   8.438   7.966  0.3473  0.8152 -0.1403
  876MOL0     C18155   5.824   8.461   7.951 -0.0536  0.2679 -0.2626
  876MOL0     O18156   5.910   8.432   8.057 -0.1794  0.8457 -0.1217
  876MOL0     C18157   6.043   8.445   8.031 -1.5783  0.0121 -0.6366
  876MOL0     C18158   6.125   8.525   8.118 -0.6130  0.3302 -0.3219
  876MOL0     C18159   6.264   8.530   8.090 -0.5408  0.4825 -0.3363
  876MOL0     C18160   6.322   8.425   8.008 -0.4737 -0.0265  0.1083
  876MOL0     O18161   6.456   8.398   8.008  0.7125 -0.1478  0.6170
  876MOL0     C18162   6.545   8.491   8.068 -0.3951  0.1530 -0.0281
  876MOL0     C18163   6.692   8.438   8.073 -0.0281 -0.4842 -0.3574
  876MOL0     C18164   6.785   8.530   8.159  0.7553 -0.0622  0.4445
  876MOL0     C18165   6.894   8.449   8.234 -0.0346  0.1682  1.2560
  876MOL0     C18166   6.999   8.537   8.294 -0.1775 -0.4445 -0.3338
  876MOL0     C18167   7.099   8.439   8.367 -0.1001  0.5057  0.4085
  876MOL0     C18168   7.232   8.494   8.421 -0.0082 -1.3275  0.4162
  876MOL0     C18169   7.227   8.521   8.566  0.5400 -0.0882 -1.1715
  876MOL0    Cl18170   7.088   8.622   8.605 -0.1319  0.3289 -0.2573
  876MOL0     C18171   6.244   8.346   7.923  1.1398 -0.2394 -0.3480
  876MOL0     C18172   6.101   8.367   7.931 -0.1878 -0.7417  0.9680
  876MOL0     O18173   5.866   8.495   7.838 -0.2990 -0.3577 -0.5070
  876MOL0     C18174   5.594   8.379   7.865  0.1721 -0.1761  0.5189
  876MOL0     C18175   5.454   8.343   7.880  0.3635 -0.6274  0.5922
  876MOL0     N18176   4.781   7.914   7.895 -0.2737  0.8572 -0.4159
  876MOL0     N18177   4.757   7.786   7.896 -0.1885  0.9000  0.2118
  876MOL0     C18178   5.798   7.528   7.426  0.4612 -0.7754 -1.4892
  876MOL0     C18179   5.901   7.606   7.371  1.0232 -0.2512  0.0743
  876MOL0     C18180   6.085   7.976   7.164  0.1683 -0.3856 -0.1147
  876MOL0     C18181   6.106   8.025   7.031  0.5769  0.5311  0.4990
  876MOL0     C18182   6.212   8.105   7.002 -0.0923 -0.2650  0.0613
  876MOL0     C18183   6.288   8.155   7.108 -0.5560  0.4092  0.4088
  876MOL0     O18184   6.399   8.230   7.088  0.1561  0.1114  0.4395
  876MOL0     C18185   6.357   8.374   7.077  0.5578  0.1176  0.8466
  876MOL0     C18186   6.403   8.450   7.199  0.4101  0.3801  0.4184
  876MOL0     C18187   6.555   8.448   7.215  0.6878 -0.3355 -0.4183
  876MOL0     C18188   6.613   8.548   7.126 -0.5734 -1.2338  0.1391
  876MOL0     C18189   6.746   8.585   7.163 -0.3970  0.0695 -0.3067
  876MOL0     C18190   6.866   8.606   7.189  0.2094 -0.4516  0.7136
  876MOL0     C18191   6.269   8.115   7.242 -0.1797  0.1407 -0.6602
  876MOL0     C18192   6.164   8.019   7.271 -1.1817 -0.4815  0.4469
  876MOL0     H18193   5.705   7.863   7.283  0.8552  0.1507 -0.7085
  876MOL0     H18194   5.535   7.742   7.429 -0.8480  0.7005  0.4041
  876MOL0     H18195   5.505   7.610   7.667 -1.4248 -3.2674  3.6563
  876MOL0     H18196   5.403   7.602   7.532 -0.5613  1.5488  1.8868
  876MOL0     H18197   5.368   7.344   7.587 -0.3703  0.6598 -0.0384
  876MOL0     H18198   5.466   7.359   7.721  0.0807  0.4654  0.3168
  876MOL0     H18199   5.198   7.503   7.677 -0.6894  0.4494 -0.3707
  876MOL0     H18200   5.248   7.348   7.771  1.9673 -0.8362  0.7166
  876MOL0     H18201   5.382   7.506   7.919  1.3976  0.6635 -0.5974
  876MOL0     H18202   5.299   7.639   7.865 -0.5378  0.2544  1.3632
  876MOL0     H18203   5.168   7.378   7.963 -2.0264 -0.2094  0.3229
  876MOL0     H18204   5.208   7.526   8.057  1.3486 -1.4827 -0.1018
  876MOL0     H18205   5.051   7.644   7.890  0.6905 -0.5744  0.2470
  876MOL0     H18206   4.997   7.477   7.840 -0.4853 -2.1828  1.9614
  876MOL0     H18207   4.960   7.429   8.080  1.4679  0.1036  0.6692
  876MOL0     H18208   5.008   7.592   8.123 -1.9528 -0.5520  0.8038
  876MOL0     H18209   4.755   7.560   8.126  0.9724 -2.4901  0.1234
  876MOL0     H18210   4.756   7.534   7.956  0.4033 -0.7269  0.7454
  876MOL0     H18211   4.867   7.818   8.203  3.1352 -1.0154 -2.1222
  876MOL0     H18212   4.816   8.155   8.031 -1.2843 -0.8857 -1.3269
  876MOL0     H18213   4.886   8.087   8.178 -0.2852 -0.0954  0.3202
  876MOL0     H18214   5.012   8.070   7.903  0.7799 -0.2894  0.0750
  876MOL0     H18215   5.087   8.002   8.041  0.7889  1.1506 -0.1079
  876MOL0     H18216   5.067   8.246   8.144 -1.0651 -3.8426  0.4797
  876MOL0     H18217   4.997   8.298   7.994 -1.2668  0.2343 -0.3888
  876MOL0     H18218   5.177   8.315   7.869  0.3169 -0.2275 -1.2073
  876MOL0     H18219   5.253   8.165   7.927 -0.3655 -1.4618  3.0204
  876MOL0     H18220   5.427   8.433   8.205 -1.7659  0.0756 -0.6451
  876MOL0     H18221   5.713   8.443   8.272  1.4271  1.2630  0.0632
  876MOL0     H18222   5.764   8.582   8.169 -0.2297  2.7180 -0.4125
  876MOL0     H18223   5.611   8.594   8.247 -2.7022 -2.4769  0.6261
  876MOL0     H18224   6.083   8.579   8.201 -0.3207 -1.7885  1.2950
  876MOL0     H18225   6.320   8.596   8.155 -1.4911 -0.2026  1.2598
  876MOL0     H18226   6.541   8.590   8.022  1.4287  0.9651  1.4206
  876MOL0     H18227   6.516   8.512   8.172 -5.0699  0.4805 -1.1834
  876MOL0     H18228   6.671   8.338   8.113 -3.4580  0.2243 -0.0964
  876MOL0     H18229   6.734   8.426   7.973 -0.7778  0.4716 -0.8010
  876MOL0     H18230   6.723   8.587   8.229  0.5335  0.5125 -0.2054
  876MOL0     H18231   6.829   8.612   8.101 -1.0032  1.3867  1.0801
  876MOL0     H18232   6.856   8.382   8.311  0.6740  0.3737  1.7950
  876MOL0     H18233   6.933   8.401   8.144 -2.3016 -0.5954  0.6129
  876MOL0     H18234   6.952   8.615   8.355 -2.1019  0.1738 -2.4185
  876MOL0     H18235   7.048   8.599   8.218 -2.9062 -0.4319 -2.2274
  876MOL0     H18236   7.046   8.381   8.444 -1.0413  1.5051  0.5366
  876MOL0     H18237   7.125   8.360   8.296 -4.9950 -2.8315  1.7408
  876MOL0     H18238   7.263   8.585   8.368 -2.8358  0.2495  1.2340
  876MOL0     H18239   7.313   8.422   8.413  0.5460 -0.8976  1.7949
  876MOL0     H18240   7.311   8.572   8.614  2.3024 -3.0866 -0.8548
  876MOL0     H18241   7.207   8.423   8.611 -1.3694  0.2292 -1.2340
  876MOL0     H18242   6.263   8.265   7.854 -1.3696  0.5697 -2.1736
  876MOL0     H18243   6.031   8.312   7.869 -0.8825  3.8611 -2.9213
  876MOL0     H18244   5.642   8.355   7.771 -1.4996  0.6448 -0.6130
  876MOL0     H18245   5.398   8.300   7.798 -0.7815  1.0371  0.4570
  876MOL0     H18246   5.825   7.431   7.469 -0.6762 -0.4390  0.0667
  876MOL0     H18247   6.001   7.564   7.358  1.1440  0.5764 -2.3460
  876MOL0     H18248   6.034   8.006   6.952 -3.1641 -1.4858  4.0132
  876MOL0     H18249   6.228   8.141   6.901 -0.1845  1.3640  0.6017
  876MOL0     H18250   6.389   8.417   6.982 -1.6977 -0.3945 -0.2139
  876MOL0     H18251   6.250   8.397   7.075  0.9949  2.6492  1.9055
  876MOL0     H18252   6.359   8.398   7.284 -0.5851  0.8507  0.2128
  876MOL0     H18253   6.358   8.550   7.191  0.8978  0.5390 -0.4211
  876MOL0     H18254   6.606   8.354   7.191  2.1492  0.7936 -1.9185
  876MOL0     H18255   6.571   8.468   7.322  0.2216 -0.0291 -0.4034
  876MOL0     H18256   6.548   8.636   7.120 -1.3257 -1.6512  1.6946
  876MOL0     H18257   6.628   8.513   7.023 -0.1873  0.2111 -0.3108
  876MOL0     H18258   6.972   8.617   7.202  0.4365 -2.0494  0.4233
  876MOL0     H18259   6.342   8.152   7.313 -2.0710 -1.0013  2.0306
  876MOL0     H18260   6.156   7.988   7.375  0.7753  0.6091  0.9814
  877MOL0     O18261   2.943   1.309   3.804 -0.2738  0.7338 -0.8364
  877MOL0     C18262   3.006   1.208   3.834  0.5461 -0.0457  0.2491
  877MOL0     O18263   2.966   1.083   3.853 -0.2579  0.0352  0.2992
  877MOL0     C18264   2.837   1.033   3.855  1.0575  0.1540 -0.3839
  877MOL0     C18265   2.816   0.890   3.859 -0.0803 -1.0007  0.2981
  877MOL0     C18266   2.697   0.830   3.840  0.8891 -0.1923 -0.2569
  877MOL0     C18267   2.582   0.905   3.848  0.4715  0.3565  0.1101
  877MOL0     O18268   2.463   0.848   3.833 -0.6544  0.3484  0.8993
  877MOL0     C18269   2.439   0.712   3.788  0.3260 -0.3463  0.4140
  877MOL0     C18270   2.287   0.676   3.805  0.4818 -0.7398  0.4318
  877MOL0     C18271   2.257   0.532   3.759  0.0788  0.1231 -0.4362
  877MOL0     C18272   2.105   0.502   3.750 -0.9320  0.1689 -0.2079
  877MOL0     C18273   2.065   0.352   3.731 -0.4630  0.5086 -0.1056
  877MOL0     C18274   1.939   0.311   3.822 -0.7533  0.3686  0.0569
  877MOL0     C18275   1.901   0.167   3.797 -0.9942  0.2698 -0.3966
  877MOL0     C18276   1.786   0.125   3.905  0.0080  1.4736  0.2530
  877MOL0     N18277   1.653   0.173   3.879  0.3348  0.3974  0.5562
  877MOL0     C18278   1.553   0.108   3.802 -1.1850 -0.2623  0.3684
  877MOL0     C18279   1.440   0.183   3.810 -0.4569  0.0493 -0.5268
  877MOL0     C18280   1.310   0.158   3.731  0.2443  0.0744  0.0468
  877MOL0     C18281   1.225   0.037   3.789 -0.2000 -0.1980 -0.0366
  877MOL0     C18282   1.155   0.044   3.935  0.2594  0.1324  0.0515
  877MOL0     C18283   1.042   0.146   3.946  0.3358  0.4707  0.6003
  877MOL0     O18284   0.982   0.131   4.073 -0.1733  0.1787  0.1658
  877MOL0     C18285   0.854   0.172   4.090 -0.6052 -0.1258 -0.3006
  877MOL0     C18286   0.811   0.145   4.215 -0.0620  0.1948  0.3561
  877MOL0     C18287   0.685   0.182   4.265 -0.2140  1.2905  0.4272
  877MOL0     C18288   0.650   0.140   4.413 -0.2824 -0.2251  0.7779
  877MOL0     C18289   0.598   0.251   4.173  0.2901  0.0897 -1.5222
  877MOL0     C18290   0.468   0.301   4.217 -0.4034 -0.7251 -0.3825
  877MOL0     O18291   0.362   0.223   4.235  0.7277  0.9776 -0.1395
  877MOL0     C18292   0.245   0.288   4.241  0.0468  1.0320 -0.2109
  877MOL0     C18293   0.210   0.362   4.356 -0.0020  0.4066 -0.6303
  877MOL0     C18294   0.077   0.409   4.352  0.5955 -0.5639  0.7510
  877MOL0     C18295  -0.021   0.380   4.254  0.2047  0.5939  0.0353
  877MOL0     O18296  -0.149   0.422   4.260 -0.0355 -0.0329  0.5429
  877MOL0     C18297  -0.202   0.459   4.385 -0.6490 -0.4674 -0.0713
  877MOL0     C18298  -0.336   0.541   4.359 -0.6139  0.1024  0.2310
  877MOL0     C18299  -0.425   0.545   4.488 -0.6134  0.0297  0.8470
  877MOL0     C18300  -0.540   0.635   4.448  0.0058 -0.9158 -0.0819
  877MOL0     C18301  -0.634   0.670   4.565 -0.4870  0.2515  0.0489
  877MOL0     C18302  -0.713   0.791   4.521  0.4409 -0.3765 -0.2284
  877MOL0     C18303  -0.840   0.815   4.612  0.8593  0.4672  0.0789
  877MOL0     C18304  -0.933   0.928   4.551 -0.4669  0.5582 -0.7201
  877MOL0    Cl18305  -1.005   0.887   4.391 -0.4264 -0.2023  0.3715
  877MOL0     C18306   0.018   0.311   4.137 -0.5533  1.2725 -0.2772
  877MOL0     C18307   0.153   0.262   4.126 -1.0012 -0.9211 -0.4812
  877MOL0     O18308   0.474   0.425   4.237 -0.3474 -0.1440 -0.0828
  877MOL0     C18309   0.639   0.269   4.041  0.4680  0.5358 -0.4735
  877MOL0     C18310   0.767   0.235   4.001 -0.9448 -0.6448  0.3317
  877MOL0     N18311   1.463   0.280   3.913 -1.2883 -0.3747  0.5520
  877MOL0     N18312   1.587   0.261   3.953 -0.0976 -0.0313 -1.1782
  877MOL0     C18313   2.594   1.044   3.851 -0.4586 -0.2159  0.5490
  877MOL0     C18314   2.722   1.114   3.848  0.6791 -0.0089  0.3700
  877MOL0     C18315   3.155   1.214   3.844  0.0352  0.1737  0.1694
  877MOL0     C18316   3.231   1.100   3.847 -1.3214  0.3352 -0.5944
  877MOL0     C18317   3.367   1.105   3.869  0.0190 -0.1797  0.7249
  877MOL0     C18318   3.432   1.227   3.899 -0.5009 -0.5237 -0.6426
  877MOL0     O18319   3.561   1.249   3.933  0.0993  0.5390  0.6599
  877MOL0     C18320   3.655   1.150   3.882  0.8869 -0.5589  0.5020
  877MOL0     C18321   3.703   1.172   3.737 -0.2694 -0.3609 -0.3937
  877MOL0     C18322   3.826   1.091   3.700 -0.5011 -0.5010 -0.0326
  877MOL0     C18323   3.966   1.172   3.718  0.2551 -0.1707  0.4828
  877MOL0     C18324   4.065   1.113   3.630 -0.7051 -0.0494  0.0591
  877MOL0     C18325   4.145   1.071   3.549 -0.5499 -0.3803  1.2551
  877MOL0     C18326   3.352   1.344   3.905 -0.3663 -1.2739  0.1645
  877MOL0     C18327   3.219   1.337   3.865 -0.4543 -0.6615  0.3517
  877MOL0     H18328   2.900   0.827   3.887 -0.5077 -0.8734  1.9926
  877MOL0     H18329   2.693   0.722   3.840  3.7952 -0.3595 -0.5955
  877MOL0     H18330   2.476   0.710   3.685  2.5184  1.1289  1.0846
  877MOL0     H18331   2.496   0.636   3.843 -0.1080 -0.9008  0.1059
  877MOL0     H18332   2.263   0.678   3.912 -0.8688 -0.8073  0.1561
  877MOL0     H18333   2.226   0.749   3.750 -1.4340 -0.3859  2.8529
  877MOL0     H18334   2.293   0.511   3.657 -0.3716  0.3031 -0.6331
  877MOL0     H18335   2.313   0.464   3.825  1.3642  0.4459 -1.1550
  877MOL0     H18336   2.055   0.541   3.839 -4.1232  0.1846 -1.8975
  877MOL0     H18337   2.065   0.550   3.660  0.1533 -0.5422 -1.0925
  877MOL0     H18338   2.032   0.330   3.629 -2.6744  0.9250  0.4615
  877MOL0     H18339   2.154   0.291   3.749 -1.6193 -0.9489  0.8690
  877MOL0     H18340   1.971   0.311   3.927 -1.3223  0.7402  0.2322
  877MOL0     H18341   1.847   0.365   3.797  0.0225  0.8139 -2.1101
  877MOL0     H18342   1.863   0.156   3.695 -2.8502 -0.7204  0.3434
  877MOL0     H18343   1.983   0.096   3.803  0.4280  1.7846 -1.1908
  877MOL0     H18344   1.824   0.142   4.006  1.3666  5.1270 -0.7386
  877MOL0     H18345   1.782   0.015   3.900  1.5535  1.4362 -2.0861
  877MOL0     H18346   1.558   0.020   3.737 -2.0155 -0.5124  0.6382
  877MOL0     H18347   1.253   0.251   3.741 -1.8221 -1.0582 -0.5626
  877MOL0     H18348   1.335   0.152   3.625  0.0474  1.8401 -0.1380
  877MOL0     H18349   1.305  -0.037   3.795  0.3288  0.4125  0.6332
  877MOL0     H18350   1.159  -0.008   3.714 -0.5262  1.8430 -1.0255
  877MOL0     H18351   1.226   0.072   4.013 -1.9435  1.7883  1.5950
  877MOL0     H18352   1.123  -0.056   3.966  0.2130  0.4055  0.9202
  877MOL0     H18353   0.969   0.126   3.867 -0.9871  2.1445  1.3339
  877MOL0     H18354   1.073   0.250   3.932 -0.6326  0.6317 -0.5143
  877MOL0     H18355   0.873   0.088   4.282 -1.7486 -0.6024  1.3181
  877MOL0     H18356   0.616   0.038   4.432  0.0216 -0.2519  1.2242
  877MOL0     H18357   0.745   0.156   4.466  0.5210 -0.1398 -0.6614
  877MOL0     H18358   0.577   0.205   4.462 -1.1857 -1.0626  0.5589
  877MOL0     H18359   0.281   0.377   4.437  0.3659 -1.0834 -0.6479
  877MOL0     H18360   0.052   0.473   4.436 -1.2902  1.3744 -1.1548
  877MOL0     H18361  -0.217   0.367   4.442  0.8271  0.2803  1.6290
  877MOL0     H18362  -0.154   0.532   4.450 -1.6145 -0.2931  0.4733
  877MOL0     H18363  -0.290   0.636   4.328  1.9327  1.1343  5.8442
  877MOL0     H18364  -0.394   0.495   4.279 -0.5162  1.4266 -0.6341
  877MOL0     H18365  -0.369   0.588   4.571 -0.5288  3.2137 -0.7104
  877MOL0     H18366  -0.465   0.451   4.526 -0.6587 -0.9039 -1.3234
  877MOL0     H18367  -0.494   0.726   4.408 -0.0059  0.5789  3.0007
  877MOL0     H18368  -0.596   0.602   4.359 -0.4930 -3.5761  1.1243
  877MOL0     H18369  -0.580   0.683   4.659  0.8196  2.0154 -0.8875
  877MOL0     H18370  -0.713   0.596   4.579 -1.8383  1.7755  0.8680
  877MOL0     H18371  -0.649   0.879   4.525  0.6041 -0.5358  2.8539
  877MOL0     H18372  -0.758   0.764   4.425 -0.8473 -1.8323  0.7259
  877MOL0     H18373  -0.794   0.842   4.707  1.4703 -1.5105  0.3912
  877MOL0     H18374  -0.904   0.727   4.608  0.7605  0.4837  1.1155
  877MOL0     H18375  -0.880   1.023   4.546  0.7257 -0.1158 -1.3158
  877MOL0     H18376  -1.019   0.937   4.619  2.0873 -0.6430  2.9615
  877MOL0     H18377  -0.051   0.301   4.054  0.3465 -1.9116 -0.7756
  877MOL0     H18378   0.193   0.210   4.040  1.7313  0.3887 -0.1218
  877MOL0     H18379   0.566   0.311   3.972  1.6643 -1.5235 -3.1378
  877MOL0     H18380   0.792   0.245   3.895 -0.6478 -4.4860 -0.1196
  877MOL0     H18381   2.500   1.098   3.861 -0.3043 -0.3967  4.4001
  877MOL0     H18382   2.716   1.223   3.851 -1.2452 -0.0542 -0.4810
  877MOL0     H18383   3.186   1.002   3.836  2.7576 -1.7672 -0.2942
  877MOL0     H18384   3.425   1.013   3.865  0.4389  0.1363 -1.0707
  877MOL0     H18385   3.744   1.156   3.947  0.1595  0.9531  1.4291
  877MOL0     H18386   3.621   1.047   3.897 -2.0430 -0.2117 -2.5944
  877MOL0     H18387   3.715   1.279   3.718 -0.1189  0.1000  2.0157
  877MOL0     H18388   3.618   1.142   3.674 -0.3833  0.9226 -0.8806
  877MOL0     H18389   3.825   1.058   3.596  1.5715  0.8531 -0.5429
  877MOL0     H18390   3.837   0.996   3.754 -2.4805 -1.4574 -1.2207
  877MOL0     H18391   4.004   1.197   3.818 -0.2603  0.6772  0.4777
  877MOL0     H18392   3.957   1.267   3.665  1.4549 -1.5882 -2.4817
  877MOL0     H18393   4.208   1.027   3.475 -0.1334  1.5059  0.4404
  877MOL0     H18394   3.401   1.440   3.914 -0.2955 -0.9584 -2.7542
  877MOL0     H18395   3.156   1.425   3.860  1.0290  0.3640 -1.5978
  878MOL0     O18396  10.000  10.846   4.247  0.2073  0.4472 -0.6365
  878MOL0     C18397  10.030  10.890   4.141 -0.7284 -0.1199 -1.0209
  878MOL0     O18398   9.960  10.972   4.062  0.1947 -0.0297 -0.3653
  878MOL0     C18399   9.830  11.017   4.096 -0.6396  0.2658  0.2118
  878MOL0     C18400   9.781  11.096   3.987  0.0492 -0.2922  0.5158
  878MOL0     C18401   9.656  11.164   3.998 -0.3182 -0.0594  0.3647
  878MOL0     C18402   9.581  11.147   4.113 -0.5700 -0.5817 -0.1963
  878MOL0     O18403   9.458  11.200   4.121  0.9910 -0.2677 -0.0342
  878MOL0     C18404   9.364  11.135   4.205  0.4016 -0.3773 -0.1481
  878MOL0     C18405   9.224  11.174   4.149 -0.4030  0.3002  0.0995
  878MOL0     C18406   9.118  11.089   4.196  1.0622 -1.2875  0.2282
  878MOL0     C18407   9.012  11.177   4.267  0.6306  0.2909  0.2508
  878MOL0     C18408   8.935  11.293   4.188  0.3449  1.2712  0.1448
  878MOL0     C18409   8.812  11.352   4.264 -1.0294  0.7910 -0.1930
  878MOL0     C18410   8.711  11.414   4.183 -0.3949 -0.3725  1.0358
  878MOL0     C18411   8.598  11.483   4.266 -0.5467  0.4324  0.2500
  878MOL0     N18412   8.498  11.543   4.172 -0.0881  0.4295 -0.3444
  878MOL0     C18413   8.472  11.671   4.130  0.1746 -0.2486 -0.1374
  878MOL0     C18414   8.349  11.668   4.089 -0.0531 -0.1368 -1.0856
  878MOL0     C18415   8.269  11.790   4.053 -0.0334 -0.1804 -1.0466
  878MOL0     C18416   8.277  11.802   3.903 -0.3569 -0.0791  1.1324
  878MOL0     C18417   8.199  11.918   3.841 -0.0059  0.2699  0.6236
  878MOL0     C18418   8.053  11.877   3.814 -0.4645 -0.0680  0.2254
  878MOL0     O18419   8.046  11.801   3.694  0.0456 -0.6039  0.1024
  878MOL0     C18420   7.920  11.741   3.676 -0.1062  0.2271  0.2587
  878MOL0     C18421   7.805  11.759   3.757  0.3855 -0.2619  0.0899
  878MOL0     C18422   7.680  11.692   3.739 -0.8068 -0.1989  0.3877
  878MOL0     C18423   7.571  11.731   3.832 -0.6197  0.2857 -0.0467
  878MOL0     C18424   7.668  11.621   3.623 -0.6377  0.1555  0.5092
  878MOL0     C18425   7.543  11.549   3.577  0.5982 -0.8455 -0.5754
  878MOL0     O18426   7.551  11.481   3.458 -0.0737  0.9123 -0.1143
  878MOL0     C18427   7.433  11.433   3.410  0.0093 -0.0903  0.1836
  878MOL0     C18428   7.385  11.312   3.460  0.8756 -0.0833  0.7769
  878MOL0     C18429   7.273  11.256   3.401  0.5222  0.7920 -0.4561
  878MOL0     C18430   7.202  11.316   3.296  0.5873 -0.0490  0.2250
  878MOL0     O18431   7.092  11.250   3.251  0.2960  0.5049  0.1675
  878MOL0     C18432   7.011  11.296   3.143  0.0107 -0.2250  0.0080
  878MOL0     C18433   6.921  11.172   3.119  0.3152  0.0339 -0.0610
  878MOL0     C18434   6.819  11.198   3.005  0.2563 -0.1321 -1.2196
  878MOL0     C18435   6.761  11.071   2.948 -0.9107 -0.1605  0.6651
  878MOL0     C18436   6.681  10.988   3.045 -1.0590 -0.3567 -0.4849
  878MOL0     C18437   6.555  11.060   3.088 -0.1291  0.0363  0.7519
  878MOL0     C18438   6.460  10.959   3.163 -0.2876 -0.7342  0.1272
  878MOL0     C18439   6.377  10.869   3.065 -0.3666  0.0648  0.5830
  878MOL0    Cl18440   6.239  10.962   3.007  0.0395 -0.2585  0.0138
  878MOL0     C18441   7.249  11.441   3.248  0.4790  0.1681 -1.6690
  878MOL0     C18442   7.365  11.500   3.303  0.6748  0.3494 -0.3060
  878MOL0     O18443   7.445  11.555   3.649 -0.3866 -0.1495 -0.3398
  878MOL0     C18444   7.775  11.614   3.535 -1.0447  0.8238 -0.3972
  878MOL0     C18445   7.902  11.656   3.563 -0.1425  0.0364 -0.1381
  878MOL0     N18446   8.294  11.544   4.101 -0.8461  0.3678  0.2130
  878MOL0     N18447   8.389  11.467   4.158 -0.0125  0.0015  0.6453
  878MOL0     C18448   9.648  11.086   4.230 -0.1023  0.0891  0.7377
  878MOL0     C18449   9.768  11.016   4.222 -0.1046 -0.3249 -0.0343
  878MOL0     C18450  10.140  10.815   4.078  1.0009  0.1132  0.4176
  878MOL0     C18451  10.192  10.855   3.955  0.0339 -0.0852  0.9004
  878MOL0     C18452  10.285  10.781   3.883  0.3462 -0.5884  0.4568
  878MOL0     C18453  10.328  10.665   3.935  1.2381  0.3194  0.4642
  878MOL0     O18454  10.422  10.611   3.852 -0.2589  0.5506  0.3235
  878MOL0     C18455  10.536  10.568   3.929  0.1638 -0.1899  0.4645
  878MOL0     C18456  10.626  10.483   3.836  0.4121  0.4986 -0.0070
  878MOL0     C18457  10.767  10.468   3.882  0.1977  0.4575 -0.4807
  878MOL0     C18458  10.836  10.341   3.822  0.6435  0.1792  0.4371
  878MOL0     C18459  10.772  10.225   3.884 -0.3073 -0.2991 -0.2791
  878MOL0     C18460  10.711  10.132   3.938 -0.7910  0.0713 -0.1876
  878MOL0     C18461  10.285  10.618   4.057 -0.7190 -0.2132 -0.4415
  878MOL0     C18462  10.190  10.687   4.128 -0.3581 -0.0931 -0.4756
  878MOL0     H18463   9.829  11.100   3.890  0.6860 -0.8115  0.8070
  878MOL0     H18464   9.606  11.223   3.922  2.1090 -0.0107 -1.2834
  878MOL0     H18465   9.385  11.028   4.199  1.0742 -0.1942 -1.2829
  878MOL0     H18466   9.373  11.173   4.308 -3.9515  2.2475 -0.4864
  878MOL0     H18467   9.203  11.279   4.172 -0.8591  0.3191 -0.3821
  878MOL0     H18468   9.224  11.152   4.042 -0.1556 -0.7244  0.2964
  878MOL0     H18469   9.066  11.048   4.109  0.7680 -1.6298  0.5628
  878MOL0     H18470   9.151  11.011   4.265  1.1689  0.8152  2.7372
  878MOL0     H18471   8.936  11.115   4.316  1.0154  2.0999  3.4018
  878MOL0     H18472   9.060  11.218   4.357  1.0640 -2.9000  1.6160
  878MOL0     H18473   8.994  11.380   4.157  0.1108  0.3788 -3.1923
  878MOL0     H18474   8.895  11.244   4.099  2.8328  0.1061 -0.4051
  878MOL0     H18475   8.761  11.269   4.313 -2.2569  1.7819  0.2597
  878MOL0     H18476   8.858  11.419   4.338  1.5722 -0.1144 -0.8797
  878MOL0     H18477   8.757  11.497   4.130  0.2270 -1.8016 -0.7422
  878MOL0     H18478   8.669  11.345   4.110 -0.9475  0.8274  0.1842
  878MOL0     H18479   8.633  11.562   4.333  2.7093  0.5522 -1.4197
  878MOL0     H18480   8.550  11.411   4.333 -0.8021  0.1732 -0.2024
  878MOL0     H18481   8.543  11.753   4.132  1.4103 -0.8787 -5.2006
  878MOL0     H18482   8.168  11.784   4.093  0.2031  1.1495 -0.1640
  878MOL0     H18483   8.320  11.878   4.095 -1.5797 -0.4821  1.7529
  878MOL0     H18484   8.239  11.713   3.852 -0.5984  0.6840 -0.0572
  878MOL0     H18485   8.383  11.809   3.878 -0.7823 -1.4841 -1.4379
  878MOL0     H18486   8.242  11.939   3.742  1.5887  1.7719  1.5857
  878MOL0     H18487   8.202  12.006   3.905  0.1213  1.1959 -0.6030
  878MOL0     H18488   7.995  11.969   3.809  0.7203  0.8266  1.8606
  878MOL0     H18489   8.008  11.827   3.901  0.2769  0.9564  1.2286
  878MOL0     H18490   7.803  11.823   3.844 -0.1313 -1.3808  0.9331
  878MOL0     H18491   7.618  11.784   3.915  1.0721 -1.7837  0.4050
  878MOL0     H18492   7.499  11.786   3.771  1.5721  0.6116 -2.5335
  878MOL0     H18493   7.527  11.641   3.875  1.8902 -1.1341 -0.2470
  878MOL0     H18494   7.448  11.256   3.528 -0.1188 -1.8457  0.3265
  878MOL0     H18495   7.238  11.168   3.455  0.8575  1.8417  1.5781
  878MOL0     H18496   6.952  11.385   3.169 -1.7028 -1.2444 -0.3079
  878MOL0     H18497   7.078  11.326   3.062 -3.1766  4.9992 -1.1559
  878MOL0     H18498   6.970  11.077   3.095 -2.7311 -1.5678 -0.5315
  878MOL0     H18499   6.863  11.157   3.211  0.3240  0.7564  0.0661
  878MOL0     H18500   6.875  11.248   2.925  0.5801 -2.0583 -2.2421
  878MOL0     H18501   6.746  11.271   3.040  1.0000  0.3352 -0.6077
  878MOL0     H18502   6.694  11.102   2.867 -0.6733  0.5215  0.7232
  878MOL0     H18503   6.844  11.010   2.913 -0.3687  0.3514  1.0249
  878MOL0     H18504   6.732  10.976   3.141 -1.6928 -2.6198 -0.3839
  878MOL0     H18505   6.673  10.895   2.988 -2.3477 -0.9615  0.6499
  878MOL0     H18506   6.574  11.143   3.157 -1.0334  1.0762 -0.2038
  878MOL0     H18507   6.492  11.102   3.010 -0.0487  0.4764  0.9215
  878MOL0     H18508   6.385  11.015   3.220  0.6774  0.9531 -0.1900
  878MOL0     H18509   6.524  10.899   3.228 -0.3634 -2.3850 -1.2551
  878MOL0     H18510   6.350  10.778   3.118  0.7612 -0.4377  0.3348
  878MOL0     H18511   6.442  10.831   2.986  1.1599  3.5035 -0.0028
  878MOL0     H18512   7.179  11.506   3.198 -0.1078 -0.1114 -1.2289
  878MOL0     H18513   7.420  11.590   3.280  1.1345 -0.0906 -0.9825
  878MOL0     H18514   7.763  11.576   3.434  1.4809  0.5879 -0.6574
  878MOL0     H18515   7.991  11.635   3.505  2.1986  0.9259  2.8903
  878MOL0     H18516   9.601  11.109   4.325  2.8959  0.8817  2.1430
  878MOL0     H18517   9.799  10.963   4.312  0.1978  2.6825  1.7851
  878MOL0     H18518  10.167  10.954   3.917  1.0239 -0.0494  0.3130
  878MOL0     H18519  10.308  10.835   3.793  0.1177  2.3329  2.0381
  878MOL0     H18520  10.587  10.650   3.981  0.4039  0.9326 -1.4404
  878MOL0     H18521  10.507  10.494   4.004 -0.7253 -1.4007 -1.0260
  878MOL0     H18522  10.619  10.536   3.740 -3.1697  0.3126  0.0450
  878MOL0     H18523  10.584  10.383   3.821  1.9447  0.0591 -1.8573
  878MOL0     H18524  10.777  10.452   3.990  3.3637  0.4406 -0.6877
  878MOL0     H18525  10.828  10.556   3.862  2.1495 -0.6604  0.2598
  878MOL0     H18526  10.943  10.333   3.842  0.3242 -0.7127  1.9975
  878MOL0     H18527  10.828  10.339   3.713  4.1508 -4.6948 -0.1129
  878MOL0     H18528  10.668  10.043   3.978  1.3040 -0.5816  0.7212
  878MOL0     H18529  10.320  10.525   4.101 -1.2440 -1.0600 -1.7559
  878MOL0     H18530  10.144  10.641   4.215  1.3452  0.3482  0.6923
  879MOL0     O18531   8.375   9.361   8.884 -0.0282 -0.0705  0.6728
  879MOL0     C18532   8.461   9.350   8.969 -0.1357 -0.1769 -0.3477
  879MOL0     O18533   8.450   9.394   9.100  0.4827  0.3679 -0.3153
  879MOL0     C18534   8.334   9.442   9.152  0.2604 -0.4215 -0.2580
  879MOL0     C18535   8.259   9.544   9.098  0.2463 -0.1278  0.2841
  879MOL0     C18536   8.150   9.598   9.170  0.2822 -0.0850  0.1700
  879MOL0     C18537   8.103   9.528   9.284  0.1526 -0.9769  0.5873
  879MOL0     O18538   7.997   9.584   9.354  0.3261 -0.3191  1.0141
  879MOL0     C18539   7.893   9.496   9.396 -0.4421 -0.0667  0.1645
  879MOL0     C18540   7.761   9.574   9.439 -0.6684  0.5260  0.4259
  879MOL0     C18541   7.788   9.631   9.574 -0.1356  0.2940  0.0985
  879MOL0     C18542   7.668   9.721   9.605 -1.0562  0.4865 -0.0981
  879MOL0     C18543   7.545   9.644   9.644  0.0163 -0.8363  0.0588
  879MOL0     C18544   7.432   9.748   9.658  0.1757  0.6694 -0.1777
  879MOL0     C18545   7.292   9.685   9.684  0.0011  0.0070 -0.0872
  879MOL0     C18546   7.177   9.790   9.660 -0.2536  0.0539  0.1256
  879MOL0     N18547   7.053   9.712   9.631 -0.0675  0.1500 -0.0495
  879MOL0     C18548   6.977   9.725   9.519 -0.0931 -0.1067  0.5475
  879MOL0     C18549   6.864   9.659   9.547  0.3841 -1.2330 -0.5371
  879MOL0     C18550   6.751   9.642   9.448 -0.1458 -0.2624  0.1294
  879MOL0     C18551   6.661   9.526   9.493  0.0760 -1.1026 -0.3895
  879MOL0     C18552   6.570   9.475   9.384  0.0801 -0.7667 -0.8142
  879MOL0     C18553   6.470   9.576   9.338 -0.0123 -0.0650 -0.3237
  879MOL0     O18554   6.375   9.614   9.440 -0.4639 -0.0847 -0.6991
  879MOL0     C18555   6.254   9.652   9.390  0.7062  0.0480 -0.4564
  879MOL0     C18556   6.142   9.608   9.457  0.5706 -0.4342 -0.0856
  879MOL0     C18557   6.014   9.619   9.402 -1.3861 -0.8458 -1.1703
  879MOL0     C18558   5.906   9.554   9.479 -0.2534 -0.8510  0.1650
  879MOL0     C18559   5.994   9.697   9.285  0.2274  0.0789 -0.7978
  879MOL0     C18560   5.864   9.722   9.227  0.0479 -0.0125  0.6516
  879MOL0     O18561   5.850   9.836   9.147 -0.3612 -0.3424 -0.1125
  879MOL0     C18562   5.736   9.880   9.081 -0.1638 -0.8062  0.1379
  879MOL0     C18563   5.676   9.808   8.972 -0.6100 -0.1520 -0.1163
  879MOL0     C18564   5.579   9.875   8.905  0.0918 -0.0086 -0.8201
  879MOL0     C18565   5.536  10.004   8.935 -0.8333 -0.1321  0.8404
  879MOL0     O18566   5.444  10.049   8.847 -0.5382  0.0600 -0.4697
  879MOL0     C18567   5.382  10.175   8.864 -0.3934 -0.2623 -0.2844
  879MOL0     C18568   5.250  10.190   8.791 -0.8316 -0.3385  0.0464
  879MOL0     C18569   5.142  10.075   8.820 -0.4988  0.0679  0.3702
  879MOL0     C18570   5.009  10.128   8.758 -0.5327  0.2274  0.1147
  879MOL0     C18571   4.910  10.015   8.729 -0.5202  0.2677 -0.8971
  879MOL0     C18572   4.771  10.054   8.706 -0.0371  0.1653 -0.0841
  879MOL0     C18573   4.689   9.931   8.671  0.1357  0.3238  0.6361
  879MOL0     C18574   4.549   9.974   8.626 -0.4905  0.7129 -1.0498
  879MOL0    Cl18575   4.551  10.077   8.478  0.3566 -0.0016 -0.1555
  879MOL0     C18576   5.602  10.082   9.027 -0.4705  0.3874  0.5096
  879MOL0     C18577   5.706  10.023   9.101  0.3828  0.8488 -0.0323
  879MOL0     O18578   5.787   9.627   9.224 -0.5749  0.3032  0.2584
  879MOL0     C18579   6.109   9.753   9.227  0.9075  0.0293  0.9563
  879MOL0     C18580   6.245   9.734   9.277  1.3420  0.0117 -0.3612
  879MOL0     N18581   6.882   9.620   9.675  0.2915  0.8346  0.4210
  879MOL0     N18582   6.987   9.651   9.728 -0.1463 -0.1895 -0.4484
  879MOL0     C18583   8.181   9.428   9.335  0.4820 -0.5239  0.1271
  879MOL0     C18584   8.294   9.384   9.273  0.4537 -0.7527  0.0135
  879MOL0     C18585   8.550   9.234   8.947  0.9779  0.4212  0.5543
  879MOL0     C18586   8.601   9.208   8.820  0.4617 -0.2543 -0.3103
  879MOL0     C18587   8.701   9.119   8.796  0.8463  0.2315 -0.2853
  879MOL0     C18588   8.760   9.049   8.899  0.6419 -0.0920 -0.5388
  879MOL0     O18589   8.862   8.957   8.885  0.3589 -0.0803  0.5306
  879MOL0     C18590   8.914   8.907   8.758 -0.4511  0.0093  0.3585
  879MOL0     C18591   9.056   8.963   8.719  0.2467  0.7320  0.1988
  879MOL0     C18592   9.061   9.103   8.654 -0.9070 -0.4068 -0.0548
  879MOL0     C18593   9.077   9.109   8.499  0.4809 -0.0326  0.2077
  879MOL0     C18594   9.200   9.048   8.460 -0.6368 -0.3292 -0.2966
  879MOL0     C18595   9.309   9.006   8.423  0.0093  0.3269 -0.6250
  879MOL0     C18596   8.706   9.076   9.032  0.2120  0.9104 -0.2816
  879MOL0     C18597   8.610   9.173   9.053  0.2225  0.3712  0.9835
  879MOL0     H18598   8.297   9.597   9.011  2.1794  1.9538  2.2567
  879MOL0     H18599   8.094   9.686   9.138  1.1174 -0.1045 -1.4364
  879MOL0     H18600   7.871   9.435   9.308 -0.6764 -0.4343  0.4734
  879MOL0     H18601   7.928   9.432   9.478 -2.2353  0.3090  1.2545
  879MOL0     H18602   7.753   9.659   9.370  0.9885 -0.8993 -1.6432
  879MOL0     H18603   7.680   9.501   9.428 -0.5196  0.6145 -1.7866
  879MOL0     H18604   7.813   9.557   9.651 -1.7976 -0.4905 -0.0804
  879MOL0     H18605   7.878   9.692   9.562 -0.1666  0.5047  0.8678
  879MOL0     H18606   7.690   9.796   9.681 -2.0595  1.7514 -0.9957
  879MOL0     H18607   7.646   9.775   9.512  1.6693 -0.4140 -1.3649
  879MOL0     H18608   7.521   9.572   9.565 -2.0653  0.6286 -0.7364
  879MOL0     H18609   7.571   9.590   9.736  0.5577 -0.1792  0.2970
  879MOL0     H18610   7.460   9.817   9.738  0.7307 -0.9770  1.0968
  879MOL0     H18611   7.416   9.808   9.568  0.4213  0.3083 -0.4644
  879MOL0     H18612   7.283   9.608   9.606  2.3292 -0.4142 -0.0214
  879MOL0     H18613   7.283   9.638   9.782 -1.6600 -1.0267 -0.6891
  879MOL0     H18614   7.192   9.847   9.567 -5.0089  0.2150 -0.8346
  879MOL0     H18615   7.156   9.862   9.740  0.4506  0.6444 -0.2068
  879MOL0     H18616   6.998   9.769   9.422  1.0034 -1.6715  0.0277
  879MOL0     H18617   6.698   9.738   9.441  0.0176 -0.1405  0.5657
  879MOL0     H18618   6.803   9.622   9.354  2.7961  1.1796  1.3133
  879MOL0     H18619   6.602   9.554   9.581  0.1350  2.0777 -1.2248
  879MOL0     H18620   6.732   9.450   9.527  1.9855  1.2721  1.4485
  879MOL0     H18621   6.521   9.382   9.412 -1.2813  1.0807  3.9566
  879MOL0     H18622   6.633   9.467   9.295 -1.0238 -0.0749 -1.6809
  879MOL0     H18623   6.424   9.535   9.248 -1.4551  2.7669 -1.0101
  879MOL0     H18624   6.524   9.665   9.304 -1.1658  0.1411 -1.7471
  879MOL0     H18625   6.153   9.551   9.549 -0.3356 -0.2836  0.1304
  879MOL0     H18626   5.944   9.535   9.580  0.7886  0.0493 -0.0445
  879MOL0     H18627   5.815   9.615   9.477 -0.1815 -0.7052 -2.8526
  879MOL0     H18628   5.877   9.472   9.412 -2.0225  0.4517 -0.7589
  879MOL0     H18629   5.701   9.708   8.939 -1.7626 -0.1184 -1.1436
  879MOL0     H18630   5.528   9.828   8.822 -0.3529  0.5339 -0.8551
  879MOL0     H18631   5.368  10.192   8.972 -2.3756  2.2582 -0.8154
  879MOL0     H18632   5.445  10.260   8.838  0.7437 -0.1278  2.5299
  879MOL0     H18633   5.205  10.288   8.814  3.4591  1.7186  0.5670
  879MOL0     H18634   5.270  10.186   8.684 -0.0355 -2.3628  0.2393
  879MOL0     H18635   5.117  10.052   8.924 -0.0910 -3.8746 -0.2650
  879MOL0     H18636   5.180   9.981   8.781 -2.4467 -0.3218 -0.6721
  879MOL0     H18637   4.968  10.209   8.819 -2.7880  1.7646 -3.1242
  879MOL0     H18638   5.034  10.162   8.657  0.8652 -0.7054  0.1213
  879MOL0     H18639   4.919   9.946   8.813 -0.2373  0.2933 -0.9049
  879MOL0     H18640   4.945   9.956   8.644  0.2178 -0.0890 -0.3576
  879MOL0     H18641   4.724  10.088   8.799 -3.3710 -2.9537 -0.3683
  879MOL0     H18642   4.761  10.140   8.640  2.3895 -0.0531 -0.8039
  879MOL0     H18643   4.665   9.878   8.764 -1.8041  0.3243  0.1819
  879MOL0     H18644   4.736   9.859   8.604  0.4762 -2.0165  3.1964
  879MOL0     H18645   4.490  10.016   8.708  0.4724  1.1488 -0.5643
  879MOL0     H18646   4.488   9.886   8.602 -3.3893  1.8915  1.3292
  879MOL0     H18647   5.590  10.190   9.026 -1.2881  0.3694 -2.4259
  879MOL0     H18648   5.777  10.088   9.152 -1.8280  1.0436  3.0902
  879MOL0     H18649   6.109   9.818   9.140  0.1074 -1.1521  0.0404
  879MOL0     H18650   6.332   9.775   9.228  2.2040 -1.5470 -0.2027
  879MOL0     H18651   8.147   9.382   9.428 -0.5857 -1.5345 -0.7363
  879MOL0     H18652   8.358   9.303   9.307 -1.4198 -2.3437 -0.0974
  879MOL0     H18653   8.552   9.260   8.738 -1.3499  2.9207  2.5243
  879MOL0     H18654   8.733   9.105   8.693 -0.5799  2.2910 -1.0922
  879MOL0     H18655   8.922   8.799   8.773  0.7054  0.0787  0.2989
  879MOL0     H18656   8.844   8.930   8.677 -2.0820 -2.8006  0.8322
  879MOL0     H18657   9.098   8.892   8.647  1.5276 -1.4833  2.8930
  879MOL0     H18658   9.114   8.953   8.811  0.8024 -2.3711 -0.3813
  879MOL0     H18659   9.134   9.166   8.705  1.0954 -2.2928 -0.4412
  879MOL0     H18660   8.966   9.151   8.681 -0.3743  1.3809 -1.1457
  879MOL0     H18661   9.074   9.215   8.471  1.2259  0.3341  1.4499
  879MOL0     H18662   8.992   9.067   8.445  0.7227  1.9742 -1.8550
  879MOL0     H18663   9.406   8.965   8.402  0.1860 -0.6025  1.6846
  879MOL0     H18664   8.744   9.010   9.110  2.8152 -0.0515 -2.2048
  879MOL0     H18665   8.573   9.182   9.155 -2.5652  0.1383  0.0647
  880MOL0     O18666   1.189   0.623   1.147 -0.3153  0.6754  0.8494
  880MOL0     C18667   1.212   0.723   1.084  0.1272 -0.5402 -0.3027
  880MOL0     O18668   1.139   0.836   1.094  0.5138  0.0405  0.8630
  880MOL0     C18669   1.006   0.811   1.122 -0.1802 -0.3166  0.7392
  880MOL0     C18670   0.959   0.844   1.253  1.0230  0.7879  0.8082
  880MOL0     C18671   0.815   0.837   1.288 -0.2759  0.9459  0.6360
  880MOL0     C18672   0.730   0.808   1.178 -0.1476 -0.2850 -0.8860
  880MOL0     O18673   0.598   0.796   1.203 -0.1652 -1.0533  0.3262
  880MOL0     C18674   0.509   0.734   1.114  0.7155 -0.0121  0.5224
  880MOL0     C18675   0.426   0.838   1.048  0.5323 -0.4856 -0.2813
  880MOL0     C18676   0.384   0.806   0.901  0.6432 -0.0807  0.4687
  880MOL0     C18677   0.327   0.926   0.822 -0.5452 -1.0832 -0.0434
  880MOL0     C18678   0.185   0.942   0.854  0.5995  0.0393 -0.7615
  880MOL0     C18679   0.143   1.078   0.801  0.0282 -0.9586  0.6155
  880MOL0     C18680   0.015   1.127   0.861 -0.2526  0.5858  0.2110
  880MOL0     C18681  -0.038   1.264   0.817  0.6452 -0.0755 -0.2207
  880MOL0     N18682  -0.189   1.285   0.819 -0.5264 -1.2178 -0.0645
  880MOL0     C18683  -0.259   1.382   0.750  0.2453 -0.7282  0.8370
  880MOL0     C18684  -0.381   1.382   0.798  1.7185  0.4649 -0.3497
  880MOL0     C18685  -0.514   1.446   0.741  0.4441 -0.1572  0.2675
  880MOL0     C18686  -0.608   1.494   0.848  0.2953 -0.5185  0.0478
  880MOL0     C18687  -0.730   1.573   0.786 -0.3347 -0.1942  0.7838
  880MOL0     C18688  -0.841   1.585   0.894  0.6247  0.8209  0.3841
  880MOL0     O18689  -0.939   1.655   0.827 -0.5569 -0.6667  1.4136
  880MOL0     C18690  -1.034   1.715   0.912 -0.3438 -0.2965 -0.2131
  880MOL0     C18691  -1.083   1.645   1.025 -0.5078 -0.5745 -0.4489
  880MOL0     C18692  -1.176   1.697   1.115  0.4082 -0.1527 -0.0525
  880MOL0     C18693  -1.217   1.618   1.232 -0.7255 -0.1703 -0.3260
  880MOL0     C18694  -1.243   1.823   1.084  0.3788 -0.0670  0.0515
  880MOL0     C18695  -1.344   1.883   1.166  0.0629  0.5238  0.8529
  880MOL0     O18696  -1.376   2.020   1.143 -0.7658 -0.2674 -0.0085
  880MOL0     C18697  -1.470   2.075   1.232  0.3331 -0.3201 -0.0450
  880MOL0     C18698  -1.455   2.089   1.368 -0.2943 -0.2708  0.2537
  880MOL0     C18699  -1.539   2.175   1.448  0.1370  0.9207  1.0249
  880MOL0     C18700  -1.656   2.231   1.386 -0.5696 -0.5975 -0.3848
  880MOL0     O18701  -1.742   2.294   1.469 -0.2087  0.2195  0.5219
  880MOL0     C18702  -1.884   2.298   1.435 -0.0241 -0.6385 -0.3831
  880MOL0     C18703  -1.945   2.158   1.422 -0.8164  1.2852  0.3958
  880MOL0     C18704  -2.095   2.181   1.406 -0.1595 -0.9526 -0.2607
  880MOL0     C18705  -2.162   2.183   1.542  0.1075 -0.1867  0.7677
  880MOL0     C18706  -2.306   2.257   1.520  0.2153 -0.1573  0.1805
  880MOL0     C18707  -2.408   2.200   1.424  0.1367  0.4246  0.1816
  880MOL0     C18708  -2.529   2.289   1.441 -0.5217 -0.5452  1.5020
  880MOL0     C18709  -2.599   2.278   1.574  1.7379  0.7776 -0.2379
  880MOL0    Cl18710  -2.763   2.366   1.559  0.0117  0.1728 -0.1722
  880MOL0     C18711  -1.681   2.197   1.251  0.4051 -0.2198  0.0462
  880MOL0     C18712  -1.579   2.135   1.173  0.7701  0.0589  0.7345
  880MOL0     O18713  -1.388   1.818   1.256  0.4676  0.7614 -0.0328
  880MOL0     C18714  -1.207   1.888   0.962  0.1336  0.3586  0.5105
  880MOL0     C18715  -1.097   1.835   0.885  0.6952 -0.3284  0.2747
  880MOL0     N18716  -0.384   1.286   0.896  0.8073  0.2031  0.0845
  880MOL0     N18717  -0.270   1.232   0.912 -0.3339  0.4435 -0.0149
  880MOL0     C18718   0.771   0.798   1.044  1.1147  0.1014 -0.4606
  880MOL0     C18719   0.908   0.801   1.015 -0.1967  0.5778 -0.1025
  880MOL0     C18720   1.336   0.717   1.012 -0.2920 -0.1038  0.0134
  880MOL0     C18721   1.382   0.602   0.961  0.1117  0.2646  0.3398
  880MOL0     C18722   1.507   0.602   0.890 -0.2774  0.1358 -1.0718
  880MOL0     C18723   1.580   0.721   0.864  0.4749  0.6124  0.1161
  880MOL0     O18724   1.701   0.697   0.810 -0.0901 -0.7065  0.8562
  880MOL0     C18725   1.772   0.809   0.754 -0.3300 -0.9732  0.9113
  880MOL0     C18726   1.854   0.766   0.632 -0.8232  0.1670 -1.1046
  880MOL0     C18727   1.963   0.654   0.667  0.4695 -0.2199 -0.1348
  880MOL0     C18728   2.059   0.650   0.549 -0.1670  0.0717 -0.1544
  880MOL0     C18729   2.176   0.560   0.562 -0.7102 -0.9242 -0.0730
  880MOL0     C18730   2.276   0.492   0.566 -0.1432  0.0991  0.7327
  880MOL0     C18731   1.524   0.841   0.918  0.0829  0.5082 -0.0307
  880MOL0     C18732   1.408   0.839   0.991 -0.7178  0.3682 -0.0270
  880MOL0     H18733   1.023   0.876   1.335  0.9445 -0.0898  1.2348
  880MOL0     H18734   0.779   0.837   1.390 -1.2460 -0.4575  0.3266
  880MOL0     H18735   0.549   0.664   1.039  0.3649 -0.2424  0.5480
  880MOL0     H18736   0.447   0.664   1.171  0.7808  1.4302  2.4688
  880MOL0     H18737   0.334   0.852   1.105  0.2937  0.1485 -0.8064
  880MOL0     H18738   0.478   0.934   1.039 -0.6587  0.0909 -1.5805
  880MOL0     H18739   0.476   0.780   0.850  0.8661 -0.9683  1.2918
  880MOL0     H18740   0.324   0.716   0.887 -0.0178 -0.0140  2.4738
  880MOL0     H18741   0.387   1.013   0.851 -0.4088 -1.9030  2.3970
  880MOL0     H18742   0.335   0.902   0.716 -1.6365 -1.5164 -0.0450
  880MOL0     H18743   0.111   0.873   0.814  0.2575  0.2374 -0.4798
  880MOL0     H18744   0.171   0.936   0.962  5.3633 -1.0005  0.0185
  880MOL0     H18745   0.209   1.162   0.826 -0.6193 -0.9079  2.3392
  880MOL0     H18746   0.122   1.075   0.694  0.6362  0.7130  0.4169
  880MOL0     H18747  -0.061   1.050   0.842 -1.8113  1.2994  2.9955
  880MOL0     H18748   0.031   1.123   0.969 -3.7801 -0.2233  0.8128
  880MOL0     H18749  -0.007   1.278   0.713  3.0200  0.9233  0.5677
  880MOL0     H18750   0.007   1.346   0.874 -1.8599  0.4571  1.1533
  880MOL0     H18751  -0.230   1.447   0.668 -2.6925 -1.6426 -1.0752
  880MOL0     H18752  -0.497   1.512   0.656  1.1214  0.1516  0.6397
  880MOL0     H18753  -0.564   1.357   0.701 -0.9920  0.4894  0.5521
  880MOL0     H18754  -0.557   1.564   0.915  1.6227  0.1923 -1.6286
  880MOL0     H18755  -0.644   1.415   0.915  0.1828  0.1823  0.8337
  880MOL0     H18756  -0.775   1.520   0.701 -2.4895  1.5040  0.7871
  880MOL0     H18757  -0.699   1.671   0.750 -0.8883  0.0764  1.0365
  880MOL0     H18758  -0.805   1.642   0.980  1.2086  0.5519  0.3223
  880MOL0     H18759  -0.878   1.484   0.915  3.2431 -0.3070 -0.0491
  880MOL0     H18760  -1.043   1.547   1.051 -2.6920 -1.1569  1.0001
  880MOL0     H18761  -1.321   1.592   1.210 -0.1153 -1.2499 -2.2352
  880MOL0     H18762  -1.158   1.527   1.247 -0.3413  0.3057  1.1354
  880MOL0     H18763  -1.203   1.672   1.325 -2.1674 -1.0990  0.4654
  880MOL0     H18764  -1.386   2.027   1.425  0.5881  0.5592  0.1054
  880MOL0     H18765  -1.520   2.195   1.553 -0.4433 -1.9710  1.7527
  880MOL0     H18766  -1.936   2.354   1.512  0.9201 -0.5641  0.2148
  880MOL0     H18767  -1.896   2.367   1.351  2.3888  3.4321  2.2720
  880MOL0     H18768  -1.916   2.110   1.329 -0.5843  1.0361  0.5976
  880MOL0     H18769  -1.919   2.090   1.504  0.1470 -3.1006 -3.1561
  880MOL0     H18770  -2.125   2.088   1.357  0.4501 -2.5242  2.1906
  880MOL0     H18771  -2.121   2.267   1.343 -2.2474  0.0618  1.8522
  880MOL0     H18772  -2.168   2.083   1.585  0.8753  0.1429  1.6600
  880MOL0     H18773  -2.098   2.242   1.607  0.9196  0.5316 -0.6223
  880MOL0     H18774  -2.292   2.360   1.487 -1.8818  0.6288  1.5553
  880MOL0     H18775  -2.336   2.270   1.625 -0.5044  0.1717 -0.0624
  880MOL0     H18776  -2.376   2.194   1.320  0.4119 -3.2918  0.3584
  880MOL0     H18777  -2.437   2.098   1.448 -0.4095 -0.8846 -5.0308
  880MOL0     H18778  -2.592   2.264   1.355  3.5593  0.4516 -2.1575
  880MOL0     H18779  -2.503   2.394   1.426 -2.5985  0.0411  1.6696
  880MOL0     H18780  -2.544   2.315   1.661  0.2825  1.5799  0.3724
  880MOL0     H18781  -2.614   2.175   1.610  1.8380  0.3584 -1.3532
  880MOL0     H18782  -1.764   2.241   1.196 -0.9429 -2.2893  0.3152
  880MOL0     H18783  -1.584   2.118   1.066  0.5619 -0.4293  0.8188
  880MOL0     H18784  -1.252   1.974   0.913  1.9196  0.8042 -0.4231
  880MOL0     H18785  -1.053   1.887   0.800 -2.4220  0.8429 -0.7782
  880MOL0     H18786   0.704   0.792   0.960 -0.5423  1.0378  0.7385
  880MOL0     H18787   0.942   0.784   0.913 -0.7937 -2.4841  0.1134
  880MOL0     H18788   1.325   0.511   0.976  1.1249 -0.3753  0.4221
  880MOL0     H18789   1.556   0.514   0.849  0.3933 -0.4035  0.7727
  880MOL0     H18790   1.697   0.871   0.704  0.7561 -1.4437 -1.4192
  880MOL0     H18791   1.838   0.864   0.821 -1.5877 -0.2204  1.5783
  880MOL0     H18792   1.919   0.844   0.591 -1.7547  0.0942 -2.8319
  880MOL0     H18793   1.797   0.727   0.547 -1.2464 -2.5354  0.3314
  880MOL0     H18794   1.927   0.551   0.676 -0.5555  0.2411  1.4700
  880MOL0     H18795   2.021   0.684   0.754  1.2947 -1.2831 -0.2832
  880MOL0     H18796   2.093   0.754   0.539 -3.8745  1.4874  0.1986
  880MOL0     H18797   2.001   0.620   0.461 -1.7094 -0.2226  0.9309
  880MOL0     H18798   2.362   0.430   0.580  0.8358  1.7997  2.7588
  880MOL0     H18799   1.584   0.929   0.899  2.0829 -0.7578  0.1517
  880MOL0     H18800   1.372   0.935   1.026 -0.5391  0.3081  0.3285
  881MOL0     O18801   6.117   7.527   0.915 -0.0020  0.3484 -0.7174
  881MOL0     C18802   6.180   7.592   0.835 -0.1858  0.0676  0.3625
  881MOL0     O18803   6.122   7.685   0.750 -0.0990  0.2452  0.5874
  881MOL0     C18804   5.978   7.705   0.740  0.7684  0.1729 -0.8541
  881MOL0     C18805   5.886   7.596   0.765  0.1348 -0.0559 -0.9218
  881MOL0     C18806   5.744   7.615   0.752  0.4530  0.0932 -0.2395
  881MOL0     C18807   5.695   7.741   0.717 -0.9828 -0.4416 -0.2732
  881MOL0     O18808   5.564   7.767   0.734  0.6049 -0.0083  0.5305
  881MOL0     C18809   5.501   7.840   0.623  0.7147 -0.2471  1.0074
  881MOL0     C18810   5.349   7.814   0.621  0.2867  0.3820 -0.0713
  881MOL0     C18811   5.300   7.879   0.753  0.6388 -0.2754 -0.4155
  881MOL0     C18812   5.154   7.894   0.748 -0.6688  0.5060 -0.3628
  881MOL0     C18813   5.071   7.760   0.750 -0.3476 -0.4417  0.3206
  881MOL0     C18814   4.925   7.788   0.766 -0.1110  0.5215 -0.6721
  881MOL0     C18815   4.845   7.656   0.755 -0.0906 -0.6702 -0.0441
  881MOL0     C18816   4.690   7.675   0.784  0.6265 -0.0318  0.3669
  881MOL0     N18817   4.631   7.795   0.740  0.4118  0.0088 -0.5762
  881MOL0     C18818   4.592   7.826   0.611 -0.5657 -0.0500 -0.4197
  881MOL0     C18819   4.548   7.952   0.628 -0.0492  0.6567  0.0155
  881MOL0     C18820   4.475   8.035   0.528 -0.6114 -1.1152  0.4864
  881MOL0     C18821   4.329   8.035   0.572 -0.0776 -0.3007 -0.3459
  881MOL0     C18822   4.254   8.114   0.467  0.6606 -0.1489  0.4633
  881MOL0     C18823   4.112   8.089   0.496 -0.0214  0.6166  0.1157
  881MOL0     O18824   4.078   8.148   0.623  0.7283  0.3009 -0.6249
  881MOL0     C18825   3.954   8.209   0.616  0.4904 -0.6170 -0.2779
  881MOL0     C18826   3.939   8.347   0.605  0.7364 -0.2237  0.6273
  881MOL0     C18827   3.820   8.414   0.583  0.5043 -0.2193 -0.0408
  881MOL0     C18828   3.825   8.564   0.577  0.0992  0.1059 -0.3848
  881MOL0     C18829   3.704   8.335   0.565  0.2420  0.4984  0.6324
  881MOL0     C18830   3.572   8.396   0.552 -0.7132 -0.1469  0.3305
  881MOL0     O18831   3.561   8.510   0.608  0.4158  0.3571  0.2082
  881MOL0     C18832   3.463   8.580   0.558 -0.3611  0.3055  0.5241
  881MOL0     C18833   3.488   8.645   0.435  0.3744 -0.3320  0.4316
  881MOL0     C18834   3.384   8.721   0.386  0.3201  0.7919  0.1481
  881MOL0     C18835   3.266   8.741   0.452  0.9695 -1.1890  0.3496
  881MOL0     O18836   3.162   8.834   0.424 -0.0054 -0.1764  0.0423
  881MOL0     C18837   3.206   8.923   0.314  0.4088  0.9100  0.2952
  881MOL0     C18838   3.122   9.050   0.309  0.4923 -0.2926 -0.3354
  881MOL0     C18839   2.978   9.036   0.254 -0.0716  0.3050  0.3242
  881MOL0     C18840   2.909   9.172   0.254  0.1918 -0.0501  0.1537
  881MOL0     C18841   2.755   9.151   0.233  0.1631  0.2716 -0.5705
  881MOL0     C18842   2.692   9.094   0.363 -1.2734  0.1413 -0.2283
  881MOL0     C18843   2.543   9.100   0.354  0.4251  0.3575  0.0653
  881MOL0     C18844   2.479   9.057   0.481  0.8460 -0.1073 -0.6437
  881MOL0    Cl18845   2.307   9.037   0.471 -0.2751 -0.5712 -0.2511
  881MOL0     C18846   3.235   8.667   0.564 -0.9158 -0.1197  0.1338
  881MOL0     C18847   3.339   8.595   0.624 -0.2747 -0.3851  0.7628
  881MOL0     O18848   3.483   8.331   0.499  0.1794  0.0632  0.0147
  881MOL0     C18849   3.719   8.196   0.592 -0.3101  0.6625  0.1126
  881MOL0     C18850   3.838   8.132   0.620 -0.1573 -0.1013 -0.1995
  881MOL0     N18851   4.584   8.004   0.747  0.3526 -0.6909  0.2175
  881MOL0     N18852   4.624   7.907   0.821 -0.0216  0.2183 -1.0552
  881MOL0     C18853   5.786   7.839   0.689  0.5118  0.5772  0.8289
  881MOL0     C18854   5.921   7.825   0.694 -1.0452  0.3796 -0.1011
  881MOL0     C18855   6.335   7.562   0.834  0.6005 -0.7084  0.5817
  881MOL0     C18856   6.410   7.627   0.733 -0.9055 -0.0062  0.0556
  881MOL0     C18857   6.545   7.602   0.721  0.4115  0.7001  0.9978
  881MOL0     C18858   6.610   7.513   0.806  0.0987  0.3395 -0.2305
  881MOL0     O18859   6.739   7.484   0.771 -0.7547  0.8877 -0.5651
  881MOL0     C18860   6.827   7.449   0.874  0.1385  0.3598  0.4522
  881MOL0     C18861   6.969   7.469   0.824  1.1276 -0.9124 -0.3952
  881MOL0     C18862   7.071   7.458   0.940 -0.4317 -0.1433  0.1991
  881MOL0     C18863   7.161   7.333   0.932  1.3128  0.4659  0.0283
  881MOL0     C18864   7.277   7.345   1.017 -0.1740 -0.3432 -0.5539
  881MOL0     C18865   7.364   7.380   1.097 -0.4830  0.4921  1.3717
  881MOL0     C18866   6.532   7.439   0.898 -0.3541 -0.3638 -0.1329
  881MOL0     C18867   6.395   7.468   0.920  0.0672  0.4901 -0.3104
  881MOL0     H18868   5.907   7.494   0.794  0.4370  0.4777  0.8541
  881MOL0     H18869   5.678   7.529   0.761  0.8388 -0.2774 -0.8525
  881MOL0     H18870   5.507   7.949   0.628 -1.6129  0.1414 -1.8222
  881MOL0     H18871   5.539   7.807   0.526  1.9434  1.2648  0.9323
  881MOL0     H18872   5.303   7.874   0.541  1.0973  2.2008  0.7599
  881MOL0     H18873   5.337   7.706   0.608 -1.7264  0.4587  0.8640
  881MOL0     H18874   5.341   7.836   0.844  2.4520 -1.1072 -1.5772
  881MOL0     H18875   5.326   7.985   0.752  1.2911 -0.4351 -0.2467
  881MOL0     H18876   5.123   7.944   0.840 -1.7601  0.5299 -0.7309
  881MOL0     H18877   5.120   7.959   0.666  0.6903  4.9119  2.2163
  881MOL0     H18878   5.089   7.707   0.656  1.9281 -1.4810  1.2502
  881MOL0     H18879   5.104   7.680   0.817 -3.2352  0.6939  3.4314
  881MOL0     H18880   4.906   7.842   0.859 -2.2077 -1.6010  0.2253
  881MOL0     H18881   4.888   7.846   0.681 -1.3970 -0.9593 -1.1858
  881MOL0     H18882   4.874   7.617   0.658  2.3964  0.4237  0.1884
  881MOL0     H18883   4.879   7.581   0.826 -0.0232 -0.5476  0.0545
  881MOL0     H18884   4.676   7.666   0.892  1.9107 -3.4331  0.3649
  881MOL0     H18885   4.637   7.591   0.738 -0.1707  1.4249 -1.5026
  881MOL0     H18886   4.590   7.750   0.533 -0.8337 -0.2704 -0.2017
  881MOL0     H18887   4.506   8.139   0.510 -0.7699 -1.2424 -0.6430
  881MOL0     H18888   4.485   7.989   0.429 -0.6490  2.3850 -1.3054
  881MOL0     H18889   4.304   8.091   0.663 -3.7021 -1.4812 -0.4486
  881MOL0     H18890   4.300   7.930   0.580 -1.7463  0.1119 -0.6139
  881MOL0     H18891   4.276   8.077   0.366 -1.1456 -3.8113  1.2254
  881MOL0     H18892   4.274   8.220   0.485 -0.7733  0.1467  0.4236
  881MOL0     H18893   4.098   7.980   0.492 -0.3971  0.6788 -0.3364
  881MOL0     H18894   4.046   8.129   0.419 -0.8576  1.4747  1.2309
  881MOL0     H18895   4.033   8.399   0.621  0.2608  0.2955  1.9246
  881MOL0     H18896   3.778   8.591   0.672 -0.0399 -0.3331 -0.3229
  881MOL0     H18897   3.925   8.608   0.573 -0.0445  0.6142  0.9991
  881MOL0     H18898   3.767   8.605   0.494 -0.9153  0.0168  0.2565
  881MOL0     H18899   3.575   8.612   0.379  1.0486  0.1758  1.1562
  881MOL0     H18900   3.387   8.761   0.285 -0.3396  1.2613  0.3051
  881MOL0     H18901   3.307   8.960   0.331  0.6482  0.1107  0.6905
  881MOL0     H18902   3.202   8.873   0.217 -0.2746  2.3963 -0.4731
  881MOL0     H18903   3.121   9.091   0.410  3.4635  0.7439 -0.6214
  881MOL0     H18904   3.180   9.122   0.251  2.5295 -1.2033  0.4697
  881MOL0     H18905   2.925   8.958   0.309  1.7458 -1.9970 -1.0271
  881MOL0     H18906   2.985   8.987   0.156 -0.1957 -2.9857  1.8298
  881MOL0     H18907   2.924   9.231   0.345 -1.6538  0.8921 -0.1099
  881MOL0     H18908   2.963   9.216   0.169 -0.7957 -1.8969 -1.4987
  881MOL0     H18909   2.739   9.080   0.151  2.8111 -2.6731  1.2377
  881MOL0     H18910   2.718   9.250   0.206  2.1447  1.6402  1.4787
  881MOL0     H18911   2.720   8.990   0.379 -1.5043  0.3602  1.9742
  881MOL0     H18912   2.714   9.159   0.448  0.1249  1.4833 -1.5517
  881MOL0     H18913   2.499   9.033   0.280  0.6815 -2.2398  2.1057
  881MOL0     H18914   2.510   9.198   0.321  3.1188  1.2826 -0.1081
  881MOL0     H18915   2.483   9.134   0.558  2.1751 -2.1425  1.4721
  881MOL0     H18916   2.528   8.967   0.520 -3.2394 -2.7651 -1.0104
  881MOL0     H18917   3.146   8.682   0.623  0.9754  0.8589  2.9445
  881MOL0     H18918   3.324   8.557   0.725 -0.7367 -0.4195  0.6827
  881MOL0     H18919   3.630   8.135   0.587 -0.8732  1.4879 -0.2176
  881MOL0     H18920   3.845   8.026   0.640 -2.3694  0.0102  1.5822
  881MOL0     H18921   5.750   7.937   0.660  1.0053 -0.1190 -2.5868
  881MOL0     H18922   5.989   7.900   0.655 -1.7834 -0.0062 -2.2447
  881MOL0     H18923   6.375   7.702   0.663  0.7273 -1.0045 -1.9071
  881MOL0     H18924   6.612   7.661   0.659  0.7308  1.8526  2.3951
  881MOL0     H18925   6.813   7.516   0.960 -0.9332  1.4143 -0.5094
  881MOL0     H18926   6.813   7.346   0.907 -2.0500  0.5305  0.1851
  881MOL0     H18927   6.973   7.574   0.796  0.0217 -1.2998 -2.1577
  881MOL0     H18928   7.001   7.399   0.746  1.7233 -2.4331  1.1348
  881MOL0     H18929   7.018   7.473   1.035 -1.4494 -3.8934  0.3729
  881MOL0     H18930   7.137   7.544   0.923  0.2602 -1.2179 -3.4770
  881MOL0     H18931   7.187   7.304   0.830  0.3470 -1.6450  0.3382
  881MOL0     H18932   7.101   7.251   0.971  1.1241  0.0849 -1.0330
  881MOL0     H18933   7.444   7.413   1.159  0.9944 -1.2641  0.4935
  881MOL0     H18934   6.567   7.353   0.953 -3.0744 -0.9161  0.8987
  881MOL0     H18935   6.327   7.411   0.983  1.0616  1.1362  1.4265
  882MOL0     O18936   9.724   6.432   4.989  0.0751 -0.4253 -0.0155
  882MOL0     C18937   9.705   6.319   5.039 -0.3033 -1.1366  0.1101
  882MOL0     O18938   9.577   6.276   5.072  0.4698 -0.7508 -0.2784
  882MOL0     C18939   9.472   6.338   5.017  0.5218  0.7975 -0.1930
  882MOL0     C18940   9.382   6.390   5.108 -0.8772 -0.4478  0.0708
  882MOL0     C18941   9.258   6.434   5.057 -1.4279  0.1005  0.0338
  882MOL0     C18942   9.228   6.437   4.924  0.7595  0.0294 -0.0488
  882MOL0     O18943   9.104   6.484   4.880 -0.4657 -0.0214  0.0762
  882MOL0     C18944   9.105   6.553   4.752  0.7731  0.2446 -0.6550
  882MOL0     C18945   8.994   6.656   4.749  0.8854  0.4107  0.2076
  882MOL0     C18946   8.982   6.706   4.606  0.1022  0.5260  0.2533
  882MOL0     C18947   8.876   6.816   4.571 -0.2230 -0.7294 -0.2887
  882MOL0     C18948   8.731   6.760   4.587 -0.3056 -0.8607 -0.1880
  882MOL0     C18949   8.668   6.723   4.445 -0.0295 -0.3540  0.4147
  882MOL0     C18950   8.516   6.730   4.433 -0.5916  0.2158 -0.0589
  882MOL0     C18951   8.453   6.646   4.539  0.2168  0.4183 -0.9752
  882MOL0     N18952   8.304   6.652   4.521  0.5514 -0.0632  0.3945
  882MOL0     C18953   8.225   6.580   4.424 -0.1241 -0.0432  0.7098
  882MOL0     C18954   8.097   6.625   4.444 -0.9595 -0.3144  0.6453
  882MOL0     C18955   7.989   6.581   4.350  0.1544 -0.5044  0.5177
  882MOL0     C18956   7.870   6.683   4.335 -0.2235  1.2175 -0.3772
  882MOL0     C18957   7.766   6.674   4.443  0.1493 -0.4674  0.4649
  882MOL0     C18958   7.649   6.763   4.415 -0.8906 -0.2913  0.0333
  882MOL0     O18959   7.557   6.732   4.519  0.1501 -0.1714  0.1184
  882MOL0     C18960   7.429   6.775   4.502 -0.1239  1.3996  0.8595
  882MOL0     C18961   7.332   6.705   4.573  0.5287  0.1204 -0.8299
  882MOL0     C18962   7.200   6.721   4.558  0.3751 -0.1453  0.3304
  882MOL0     C18963   7.106   6.624   4.623  0.0380  0.2109 -0.3841
  882MOL0     C18964   7.160   6.824   4.474  0.6818 -0.0292 -0.3062
  882MOL0     C18965   7.020   6.862   4.450 -0.1946 -0.3191  0.6722
  882MOL0     O18966   6.927   6.805   4.523 -0.5515 -0.1483 -0.6109
  882MOL0     C18967   6.806   6.864   4.540 -0.0298  0.1989  0.8782
  882MOL0     C18968   6.761   6.896   4.666 -0.3463 -0.3676 -0.3742
  882MOL0     C18969   6.634   6.942   4.675 -0.2974 -1.0922 -0.0103
  882MOL0     C18970   6.543   6.913   4.568  0.5909 -0.2006 -0.5203
  882MOL0     O18971   6.405   6.958   4.565 -0.4843 -0.1352  0.8477
  882MOL0     C18972   6.362   7.044   4.670  0.8139  0.4155  0.3991
  882MOL0     C18973   6.226   7.100   4.636  0.7948  1.0544  0.3761
  882MOL0     C18974   6.240   7.196   4.517 -0.4794  0.6305 -0.3522
  882MOL0     C18975   6.113   7.270   4.466  0.4013 -0.5610 -0.9784
  882MOL0     C18976   6.000   7.163   4.454 -0.9657  0.1742 -0.8543
  882MOL0     C18977   5.900   7.203   4.346 -0.1245  0.2356 -0.3079
  882MOL0     C18978   5.800   7.309   4.404 -0.4260 -0.2537  0.1212
  882MOL0     C18979   5.691   7.363   4.311  0.3206 -0.3562  0.2982
  882MOL0    Cl18980   5.575   7.477   4.403 -0.3220  0.7070  0.5643
  882MOL0     C18981   6.583   6.863   4.447 -0.0331 -0.4558 -1.0521
  882MOL0     C18982   6.723   6.848   4.430  0.3307  0.6246  0.0622
  882MOL0     O18983   6.999   6.963   4.378 -0.7254 -0.0060  0.4005
  882MOL0     C18984   7.258   6.903   4.405  0.5251  0.7906  0.5991
  882MOL0     C18985   7.394   6.880   4.414  0.5289  0.6989 -0.6891
  882MOL0     N18986   8.102   6.717   4.544 -0.3099  0.4060 -0.0804
  882MOL0     N18987   8.221   6.727   4.592  0.9227  0.3422  0.1006
  882MOL0     C18988   9.325   6.390   4.834  0.2457  0.8208 -0.0010
  882MOL0     C18989   9.438   6.331   4.876 -0.0294 -0.4114 -0.4876
  882MOL0     C18990   9.828   6.239   5.073 -0.4254 -0.3629  0.4517
  882MOL0     C18991   9.963   6.282   5.052 -0.4870 -0.2220  0.6100
  882MOL0     C18992  10.073   6.219   5.092  0.5441  0.1170  1.7172
  882MOL0     C18993  10.065   6.099   5.161 -0.4241  0.2870  0.0579
  882MOL0     O18994  10.177   6.033   5.218  0.3338 -0.8399 -0.0608
  882MOL0     C18995  10.302   6.106   5.237  0.1275  0.9534  0.4814
  882MOL0     C18996  10.404   6.018   5.302  0.0555  0.2590  0.4359
  882MOL0     C18997  10.547   6.062   5.273 -0.1032  0.6293 -0.6523
  882MOL0     C18998  10.656   5.976   5.352 -0.1902  0.3913 -0.7982
  882MOL0     C18999  10.795   6.010   5.300  1.0504 -0.1607 -0.8471
  882MOL0     C19000  10.900   6.042   5.262 -0.5391 -0.4899 -0.1828
  882MOL0     C19001   9.933   6.046   5.184  0.4065  0.5242 -0.2883
  882MOL0     C19002   9.812   6.109   5.132 -0.1160 -0.2339  0.0465
  882MOL0     H19003   9.405   6.371   5.212 -2.1748 -2.0513  0.1250
  882MOL0     H19004   9.182   6.473   5.124 -0.6620  0.2509  0.8347
  882MOL0     H19005   9.196   6.613   4.742  1.8360 -0.8423  1.8348
  882MOL0     H19006   9.106   6.486   4.665  1.2702 -0.3758 -0.1749
  882MOL0     H19007   8.904   6.598   4.770 -1.2322  3.2780 -0.2768
  882MOL0     H19008   9.006   6.734   4.824 -0.1721  0.8382 -0.0434
  882MOL0     H19009   9.078   6.747   4.575  0.2134  0.9537  1.1213
  882MOL0     H19010   8.959   6.618   4.545  1.5696  0.7165 -0.6085
  882MOL0     H19011   8.901   6.895   4.643  3.1872 -2.3569  0.5369
  882MOL0     H19012   8.897   6.866   4.476  0.0224 -0.4907 -0.1096
  882MOL0     H19013   8.745   6.674   4.653  0.7208 -0.8854 -0.4110
  882MOL0     H19014   8.666   6.838   4.627  0.2848 -0.8209  0.7181
  882MOL0     H19015   8.714   6.790   4.371 -0.3882  1.1620  1.5279
  882MOL0     H19016   8.705   6.625   4.412  2.4859  1.3271 -2.2188
  882MOL0     H19017   8.481   6.833   4.445 -0.1213  1.0077 -4.0078
  882MOL0     H19018   8.477   6.704   4.334 -1.8747 -4.3092  1.3957
  882MOL0     H19019   8.492   6.694   4.629  2.3284  2.7355 -2.9760
  882MOL0     H19020   8.478   6.539   4.539 -4.1308 -0.7729 -0.4962
  882MOL0     H19021   8.257   6.500   4.359  4.9177  0.0538  2.6779
  882MOL0     H19022   8.021   6.548   4.251  0.3733 -0.2257  0.4956
  882MOL0     H19023   7.956   6.493   4.407  4.3861 -1.9052  1.1711
  882MOL0     H19024   7.826   6.669   4.236  1.3692  0.6929 -1.0502
  882MOL0     H19025   7.916   6.783   4.340  1.5275  0.5406 -1.8368
  882MOL0     H19026   7.810   6.706   4.538 -2.7390  0.2969  1.6539
  882MOL0     H19027   7.734   6.570   4.451  2.3706 -1.5101 -2.3621
  882MOL0     H19028   7.613   6.737   4.315 -0.6774  0.1581 -0.1625
  882MOL0     H19029   7.681   6.868   4.414  0.1744 -0.5228  2.3489
  882MOL0     H19030   7.360   6.633   4.649 -1.7692  1.6091  1.5782
  882MOL0     H19031   7.049   6.669   4.705  1.3674  1.6249 -0.1835
  882MOL0     H19032   7.038   6.574   4.553  0.9434 -1.3212 -0.2228
  882MOL0     H19033   7.159   6.535   4.659 -1.0571 -2.2798 -4.3073
  882MOL0     H19034   6.829   6.903   4.751  1.4304  0.3234 -1.7772
  882MOL0     H19035   6.597   6.982   4.769 -0.4036  0.2852 -0.6095
  882MOL0     H19036   6.357   6.994   4.767  1.8946 -1.4401 -0.4637
  882MOL0     H19037   6.429   7.130   4.684  1.5049  0.1854 -1.3238
  882MOL0     H19038   6.165   7.018   4.598  1.1409  1.3456 -0.8630
  882MOL0     H19039   6.177   7.142   4.724 -0.6782  1.6198 -0.6672
  882MOL0     H19040   6.274   7.139   4.430 -0.5084  0.1081 -0.0227
  882MOL0     H19041   6.314   7.274   4.536 -0.1165  1.3128 -3.9440
  882MOL0     H19042   6.081   7.344   4.539  0.1440 -2.0363  0.4722
  882MOL0     H19043   6.136   7.316   4.369  1.2944 -0.3670 -0.6791
  882MOL0     H19044   5.956   7.152   4.553  2.8548 -4.2564  0.6703
  882MOL0     H19045   6.047   7.067   4.430 -0.1200  0.9190 -2.3342
  882MOL0     H19046   5.939   7.248   4.255 -3.1790  0.6576 -1.5312
  882MOL0     H19047   5.851   7.110   4.317 -0.6674  0.1580  0.7618
  882MOL0     H19048   5.859   7.395   4.435  2.3354 -2.8246  2.7670
  882MOL0     H19049   5.743   7.275   4.492 -3.8068  4.7745  0.2989
  882MOL0     H19050   5.639   7.275   4.271  0.8274 -0.0876 -1.0090
  882MOL0     H19051   5.732   7.431   4.235  2.1662 -1.4310  0.2770
  882MOL0     H19052   6.509   6.854   4.368 -2.7426 -2.4911  1.4809
  882MOL0     H19053   6.766   6.801   4.342 -0.4227 -3.0812  1.4752
  882MOL0     H19054   7.236   6.983   4.334  1.1512 -1.1780 -1.9810
  882MOL0     H19055   7.470   6.935   4.359  0.8215 -1.1674 -2.2604
  882MOL0     H19056   9.313   6.411   4.728  0.9344 -2.0163 -0.7242
  882MOL0     H19057   9.512   6.284   4.812 -1.5730 -2.1872 -1.0507
  882MOL0     H19058   9.974   6.378   5.003 -2.5718 -0.6989 -0.9349
  882MOL0     H19059  10.167   6.266   5.064 -0.6838  0.6471 -2.0494
  882MOL0     H19060  10.336   6.135   5.138 -0.7838  1.0105  0.1777
  882MOL0     H19061  10.292   6.196   5.297 -2.9661  2.1708 -1.5925
  882MOL0     H19062  10.395   5.917   5.261  0.8761 -0.0799  1.0562
  882MOL0     H19063  10.363   6.020   5.403 -4.9421 -0.6756 -1.3334
  882MOL0     H19064  10.553   6.161   5.318 -3.6169  0.7418 -0.2044
  882MOL0     H19065  10.563   6.071   5.165  2.2146  0.2709 -0.4085
  882MOL0     H19066  10.629   5.870   5.339 -1.5873  0.6349 -0.0592
  882MOL0     H19067  10.643   5.998   5.458 -0.6019 -1.9829 -0.2951
  882MOL0     H19068  10.993   6.085   5.228 -0.7239  0.5524  0.5850
  882MOL0     H19069   9.915   5.959   5.246 -0.6524  1.6185  1.0011
  882MOL0     H19070   9.714   6.061   5.135 -1.2160  1.9089  0.9702
  883MOL0     O19071   5.884   9.709   0.953  0.2586 -0.2069  0.5310
  883MOL0     C19072   5.806   9.784   1.013 -0.2889 -0.1499  0.4803
  883MOL0     O19073   5.735   9.885   0.960 -0.1230 -0.1139  0.8725
  883MOL0     C19074   5.719   9.896   0.823  0.1461  0.8072  0.1925
  883MOL0     C19075   5.594   9.922   0.769 -0.5600  0.9778  0.4457
  883MOL0     C19076   5.561   9.930   0.630  0.3463  0.2748 -0.2377
  883MOL0     C19077   5.665   9.901   0.536  0.1723 -0.7408 -0.8122
  883MOL0     O19078   5.652   9.917   0.399  0.5309 -0.3785 -0.0153
  883MOL0     C19079   5.526   9.864   0.358 -0.7797 -0.4950  0.2449
  883MOL0     C19080   5.526   9.870   0.199  0.9869  0.4111 -0.1760
  883MOL0     C19081   5.375   9.852   0.142  0.2305  0.5233 -0.1025
  883MOL0     C19082   5.303   9.986   0.141  0.1654 -0.1006 -0.3244
  883MOL0     C19083   5.150   9.977   0.120  0.3216 -0.5962  0.5634
  883MOL0     C19084   5.067   9.932   0.246 -0.7904  0.4564  0.0254
  883MOL0     C19085   4.929   9.859   0.218 -0.5475 -0.1829  0.2351
  883MOL0     C19086   4.825   9.965   0.196 -0.1889 -0.0773  0.7723
  883MOL0     N19087   4.691   9.900   0.176 -0.1155  0.4538  1.0961
  883MOL0     C19088   4.661   9.822   0.066 -0.3770 -0.4906 -0.4034
  883MOL0     C19089   4.549   9.755   0.101  0.2153 -0.6932  0.4038
  883MOL0     C19090   4.463   9.668   0.014  0.6711 -0.4095  0.1666
  883MOL0     C19091   4.338   9.746  -0.018  0.4682 -0.2831  0.3697
  883MOL0     C19092   4.248   9.673  -0.116 -0.1523 -0.1204  0.1126
  883MOL0     C19093   4.121   9.741  -0.157  0.4488  0.4345  0.2799
  883MOL0     O19094   4.036   9.776  -0.051 -0.2300  0.8189  0.1360
  883MOL0     C19095   3.913   9.832  -0.091  0.3688 -0.0422  0.3217
  883MOL0     C19096   3.844   9.809  -0.213 -1.8920  0.2099 -0.5381
  883MOL0     C19097   3.715   9.856  -0.238  0.6538 -0.9606  0.1678
  883MOL0     C19098   3.653   9.836  -0.375 -0.0441  0.9370  0.6436
  883MOL0     C19099   3.652   9.933  -0.139 -0.9787 -0.0436  0.1577
  883MOL0     C19100   3.514   9.997  -0.158  0.0405  0.3772  0.5074
  883MOL0     O19101   3.485  10.091  -0.061 -0.2269  0.0434  0.7506
  883MOL0     C19102   3.352  10.125  -0.052  0.5135 -0.2441 -0.0868
  883MOL0     C19103   3.278  10.065   0.046 -0.0923  0.1621  1.2886
  883MOL0     C19104   3.143  10.095   0.064  0.1820  0.0593 -0.8643
  883MOL0     C19105   3.077  10.194  -0.004  0.3376 -0.3866 -0.2007
  883MOL0     O19106   2.940  10.223   0.035  0.0387  0.7758 -0.4033
  883MOL0     C19107   2.872  10.309  -0.055 -0.3687 -0.0660  1.1019
  883MOL0     C19108   2.728  10.269  -0.057  0.3359 -0.1963  0.3308
  883MOL0     C19109   2.637  10.313   0.049  0.2179 -0.1280  0.1755
  883MOL0     C19110   2.516  10.234   0.078  0.4597 -0.2078 -0.3771
  883MOL0     C19111   2.395  10.286   0.010 -0.3044 -0.8855  1.0021
  883MOL0     C19112   2.336  10.414   0.068 -1.0895  0.1467  0.1997
  883MOL0     C19113   2.192  10.427   0.018  0.1329  0.4448  1.2736
  883MOL0     C19114   2.134  10.566   0.046 -0.2040  0.2702 -0.1177
  883MOL0    Cl19115   1.960  10.571   0.020 -0.2380  0.1769  0.3821
  883MOL0     C19116   3.155  10.254  -0.107 -0.1234 -1.1983 -0.4138
  883MOL0     C19117   3.290  10.226  -0.138  0.0081 -0.5901  0.5425
  883MOL0     O19118   3.432   9.941  -0.228  0.0115 -1.2004  0.5385
  883MOL0     C19119   3.722   9.960  -0.021 -0.1887 -0.3372 -0.4738
  883MOL0     C19120   3.847   9.912   0.003 -0.1434 -0.9750  0.3517
  883MOL0     N19121   4.512   9.789   0.230  0.0479  0.6329  0.0037
  883MOL0     N19122   4.597   9.882   0.277  0.2966 -0.6097 -0.4156
  883MOL0     C19123   5.796   9.892   0.593 -0.4633  0.8365  1.0550
  883MOL0     C19124   5.821   9.881   0.729 -0.2382 -0.9011  1.1529
  883MOL0     C19125   5.776   9.740   1.151  0.5244 -0.6341 -0.4062
  883MOL0     C19126   5.703   9.833   1.237  0.0244 -0.4973  1.2216
  883MOL0     C19127   5.663   9.785   1.366 -0.3446 -0.5019 -0.1367
  883MOL0     C19128   5.694   9.654   1.410  0.3137 -0.8286 -0.5121
  883MOL0     O19129   5.635   9.597   1.526 -0.2713  0.0025  0.3642
  883MOL0     C19130   5.527   9.664   1.591  0.5321  0.4687 -0.6333
  883MOL0     C19131   5.489   9.596   1.724 -0.1927 -0.5736  0.2212
  883MOL0     C19132   5.606   9.610   1.816 -0.3351 -0.0932  1.0794
  883MOL0     C19133   5.564   9.553   1.958  0.0369 -0.5860  0.2705
  883MOL0     C19134   5.685   9.539   2.027 -0.4437  0.0704 -0.1175
  883MOL0     C19135   5.791   9.545   2.090  0.0295 -0.2391 -0.0270
  883MOL0     C19136   5.772   9.579   1.330 -0.7993 -0.4719 -0.1848
  883MOL0     C19137   5.814   9.614   1.208  1.2726 -0.0246  0.0231
  883MOL0     H19138   5.512   9.942   0.837  0.0176 -0.5735  1.6427
  883MOL0     H19139   5.456   9.951   0.615  0.7613  2.5642 -0.3629
  883MOL0     H19140   5.502   9.764   0.395 -1.5965 -0.3844  0.0451
  883MOL0     H19141   5.440   9.923   0.392  1.0643  2.3946  0.1985
  883MOL0     H19142   5.566   9.964   0.159 -1.1421  1.6294  0.4032
  883MOL0     H19143   5.591   9.789   0.163  0.7540  1.3106 -2.8762
  883MOL0     H19144   5.382   9.829   0.035 -3.9354 -0.6690 -0.3184
  883MOL0     H19145   5.321   9.769   0.189 -1.5877  2.2297  0.9187
  883MOL0     H19146   5.324  10.043   0.232 -0.6989  1.9582 -1.3434
  883MOL0     H19147   5.361  10.041   0.067 -1.3110 -0.1797 -1.5850
  883MOL0     H19148   5.107  10.076   0.099  2.6868  0.1504 -1.1117
  883MOL0     H19149   5.124   9.918   0.032  2.4230  0.2458 -0.7005
  883MOL0     H19150   5.138   9.866   0.297  1.2486  1.7543 -0.9726
  883MOL0     H19151   5.066  10.017   0.314  2.3631  0.7030 -0.0581
  883MOL0     H19152   4.932   9.781   0.141  0.2377 -0.2187  0.2934
  883MOL0     H19153   4.886   9.816   0.309 -3.6232 -0.7865 -1.3558
  883MOL0     H19154   4.840  10.034   0.113  2.8967 -3.6618 -1.9485
  883MOL0     H19155   4.831  10.020   0.291  0.8431  0.6479  0.3066
  883MOL0     H19156   4.710   9.809  -0.030  1.3091  1.9837  0.0289
  883MOL0     H19157   4.511   9.651  -0.083  1.5676 -0.9380  0.6946
  883MOL0     H19158   4.454   9.572   0.065  2.5816 -1.5488 -1.5071
  883MOL0     H19159   4.377   9.831  -0.075  0.7457  0.0704  1.0748
  883MOL0     H19160   4.272   9.773   0.065 -0.3898 -3.8903  1.0175
  883MOL0     H19161   4.210   9.579  -0.075 -0.8708 -1.5745 -3.4703
  883MOL0     H19162   4.304   9.644  -0.206  0.3228 -0.7389  0.5981
  883MOL0     H19163   4.065   9.669  -0.216  3.3367 -0.3258 -1.7597
  883MOL0     H19164   4.150   9.832  -0.211 -0.5001  1.1966  1.0184
  883MOL0     H19165   3.889   9.741  -0.285 -1.1225 -0.9747  0.9998
  883MOL0     H19166   3.561   9.778  -0.361  0.8115  0.0686  3.1958
  883MOL0     H19167   3.621   9.933  -0.416 -1.8592  0.7284  1.4690
  883MOL0     H19168   3.709   9.787  -0.455 -1.9693 -0.1885 -0.0942
  883MOL0     H19169   3.336   9.991   0.101 -0.7176 -2.8421 -1.7499
  883MOL0     H19170   3.078  10.035   0.128  0.6701 -0.2488 -0.6512
  883MOL0     H19171   2.876  10.415  -0.029  1.5361  0.6901 -1.7756
  883MOL0     H19172   2.908  10.299  -0.158  0.7465  2.7401  1.1294
  883MOL0     H19173   2.686  10.304  -0.151  1.1835 -0.3193 -0.1030
  883MOL0     H19174   2.721  10.160  -0.069  0.2316  0.0609 -2.5599
  883MOL0     H19175   2.602  10.413   0.023 -2.4739 -0.8120  0.8487
  883MOL0     H19176   2.692  10.312   0.143  1.5604 -0.0404 -0.5852
  883MOL0     H19177   2.535  10.129   0.056  2.0179 -0.7620  2.9564
  883MOL0     H19178   2.484  10.244   0.182 -0.0898 -1.7274 -0.3765
  883MOL0     H19179   2.320  10.206   0.016  0.6155 -1.9157 -0.6442
  883MOL0     H19180   2.430  10.304  -0.092  1.3148  0.6631  1.7662
  883MOL0     H19181   2.335  10.413   0.177  1.3816 -1.4862  0.2941
  883MOL0     H19182   2.398  10.496   0.030  2.5994 -1.4011  2.2523
  883MOL0     H19183   2.130  10.347   0.060  2.0618 -1.9481 -0.1697
  883MOL0     H19184   2.193  10.413  -0.090 -3.2977  2.4100  0.8389
  883MOL0     H19185   2.191  10.639  -0.013  0.8803  1.9748  2.7647
  883MOL0     H19186   2.166  10.590   0.148 -1.5464  2.6565 -0.1907
  883MOL0     H19187   3.112  10.320  -0.182  0.0888 -0.8772 -0.2561
  883MOL0     H19188   3.347  10.291  -0.203 -1.3460  0.4229  0.3293
  883MOL0     H19189   3.672  10.013   0.060  1.6887 -3.7578  3.2929
  883MOL0     H19190   3.889   9.934   0.101  1.6577  2.1526 -0.9641
  883MOL0     H19191   5.884   9.895   0.529 -0.2787  2.4421  1.3373
  883MOL0     H19192   5.924   9.868   0.763  0.8823  1.1891 -1.1681
  883MOL0     H19193   5.681   9.928   1.189  3.4777  1.4920  3.1594
  883MOL0     H19194   5.607   9.853   1.429  2.1045  1.1442  0.4284
  883MOL0     H19195   5.569   9.764   1.604  0.9748  0.4635 -1.8667
  883MOL0     H19196   5.442   9.663   1.523 -0.5311 -0.8417  0.6501
  883MOL0     H19197   5.470   9.489   1.710  0.5239 -0.6301 -0.3298
  883MOL0     H19198   5.397   9.639   1.766  1.1945  2.9497 -0.0233
  883MOL0     H19199   5.624   9.717   1.826 -2.4564  0.6000 -1.4802
  883MOL0     H19200   5.700   9.562   1.786 -0.3642  0.7559 -0.4437
  883MOL0     H19201   5.508   9.461   1.943 -0.0187 -0.4595 -0.3420
  883MOL0     H19202   5.492   9.619   2.007 -0.5535  0.7136 -2.1558
  883MOL0     H19203   5.876   9.567   2.151 -0.9608 -0.6024  1.5330
  883MOL0     H19204   5.805   9.480   1.359 -0.0356 -0.3599 -0.6624
  883MOL0     H19205   5.887   9.558   1.150  0.7950 -0.2377 -0.3741
  884MOL0     O19206   3.910   8.000   7.485  0.5499  0.1786  0.8407
  884MOL0     C19207   3.894   8.020   7.606  0.0021 -0.0906 -0.2516
  884MOL0     O19208   3.777   7.988   7.681 -0.0574 -0.1959 -0.1721
  884MOL0     C19209   3.666   7.924   7.625  0.1240  0.8821 -0.2695
  884MOL0     C19210   3.683   7.814   7.543  0.9226  0.0549 -1.2698
  884MOL0     C19211   3.572   7.751   7.481  0.3280 -1.1160 -0.2248
  884MOL0     C19212   3.440   7.802   7.504 -0.4507  0.4657  0.5995
  884MOL0     O19213   3.345   7.743   7.424 -0.2493 -0.0000  0.7209
  884MOL0     C19214   3.208   7.764   7.438 -0.6215 -0.3643 -0.0047
  884MOL0     C19215   3.155   7.693   7.310 -0.2247  0.4782 -0.3467
  884MOL0     C19216   3.002   7.681   7.299 -0.0569  0.0189  0.7746
  884MOL0     C19217   2.938   7.816   7.319 -0.0839 -0.5190 -0.3454
  884MOL0     C19218   2.786   7.802   7.313  0.4860  0.3633 -0.3192
  884MOL0     C19219   2.719   7.937   7.317  0.2432 -0.0204 -0.0188
  884MOL0     C19220   2.566   7.915   7.290  0.1991  0.6038 -0.9152
  884MOL0     C19221   2.495   8.048   7.266  0.2980 -0.0425  0.2673
  884MOL0     N19222   2.509   8.146   7.376  0.3909  0.7461  0.2611
  884MOL0     C19223   2.493   8.111   7.504  0.2868  0.4460 -0.5474
  884MOL0     C19224   2.532   8.223   7.573 -0.5199  0.0279  0.8540
  884MOL0     C19225   2.569   8.223   7.716 -0.5014  0.9184  0.5129
  884MOL0     C19226   2.473   8.166   7.809 -0.2539 -0.7307 -0.2113
  884MOL0     C19227   2.497   8.016   7.841 -0.7099  0.0492  0.2095
  884MOL0     C19228   2.384   7.956   7.914 -0.2162 -0.5086 -0.1875
  884MOL0     O19229   2.267   7.985   7.832 -0.7142  0.1963  0.4277
  884MOL0     C19230   2.150   7.932   7.882 -0.4256 -0.6026 -0.1763
  884MOL0     C19231   2.123   7.871   8.001 -0.1351 -0.7098 -0.2455
  884MOL0     C19232   1.990   7.835   8.034 -0.3527  0.0686  0.3206
  884MOL0     C19233   1.964   7.781   8.175 -0.2966 -0.1006 -0.0897
  884MOL0     C19234   1.874   7.850   7.946  0.1293  1.0467  0.3910
  884MOL0     C19235   1.727   7.797   7.966  0.6900  0.1032 -0.1547
  884MOL0     O19236   1.710   7.686   8.045 -0.0570  0.1382  0.4043
  884MOL0     C19237   1.583   7.643   8.085 -0.3499 -0.0236  0.4460
  884MOL0     C19238   1.545   7.507   8.066 -0.5219  0.0139  0.0847
  884MOL0     C19239   1.434   7.467   8.139  1.3599 -0.6433  0.5285
  884MOL0     C19240   1.355   7.557   8.221 -0.4756  0.5237 -0.5604
  884MOL0     O19241   1.241   7.534   8.292  0.0642 -0.1921 -0.3495
  884MOL0     C19242   1.210   7.398   8.326  0.5318  0.3401  0.1709
  884MOL0     C19243   1.082   7.380   8.412  0.3354  0.2314 -0.4309
  884MOL0     C19244   1.063   7.251   8.500 -0.4657  0.2900 -0.4977
  884MOL0     C19245   0.944   7.270   8.599 -0.2948  0.4114 -0.8351
  884MOL0     C19246   0.814   7.283   8.523  0.2190 -0.2189  0.2224
  884MOL0     C19247   0.702   7.257   8.617  0.1061  0.2178  0.1443
  884MOL0     C19248   0.565   7.273   8.548 -0.9044 -0.0743  0.3550
  884MOL0     C19249   0.444   7.286   8.638  0.0086 -0.4466 -0.1671
  884MOL0    Cl19250   0.300   7.321   8.541  0.4028 -0.0714 -0.1112
  884MOL0     C19251   1.402   7.691   8.238 -0.1433  0.4993  0.1895
  884MOL0     C19252   1.519   7.734   8.175  0.3071  0.4279 -0.1519
  884MOL0     O19253   1.631   7.854   7.915  0.4773 -0.0427 -0.3575
  884MOL0     C19254   1.906   7.925   7.834  0.6523  0.5058 -0.0781
  884MOL0     C19255   2.033   7.953   7.797  0.5475 -0.2506 -0.2756
  884MOL0     N19256   2.560   8.327   7.485 -0.0612 -0.0815 -0.0805
  884MOL0     N19257   2.549   8.272   7.369  0.0158 -0.5710  0.2567
  884MOL0     C19258   3.424   7.906   7.590 -0.0410 -0.1582  0.2040
  884MOL0     C19259   3.539   7.970   7.651 -0.5389  0.0885  0.8504
  884MOL0     C19260   4.006   8.089   7.674 -0.4580 -0.5903  0.6457
  884MOL0     C19261   3.983   8.152   7.796 -0.4082 -0.2444 -0.2385
  884MOL0     C19262   4.091   8.199   7.865 -0.1318  0.3481  0.0132
  884MOL0     C19263   4.216   8.199   7.817 -0.4281  0.8182  0.3383
  884MOL0     O19264   4.321   8.251   7.894 -0.0218 -0.4206  0.3467
  884MOL0     C19265   4.463   8.225   7.868  0.4229 -0.3291 -0.0091
  884MOL0     C19266   4.499   8.080   7.897 -0.6235  0.2633  0.7756
  884MOL0     C19267   4.414   8.020   8.012 -1.2084  0.3956  0.3426
  884MOL0     C19268   4.462   8.074   8.157 -0.2647  0.5424  0.5952
  884MOL0     C19269   4.403   8.210   8.184 -0.5796  0.1775 -1.3504
  884MOL0     C19270   4.371   8.322   8.203 -0.5239  0.5462  0.1544
  884MOL0     C19271   4.244   8.126   7.695 -0.2813 -0.9128 -0.8746
  884MOL0     C19272   4.137   8.072   7.624  0.3164  0.4263  0.1265
  884MOL0     H19273   3.784   7.775   7.537  0.5510 -1.3154  0.4043
  884MOL0     H19274   3.596   7.668   7.416  1.9332 -0.1559 -0.9338
  884MOL0     H19275   3.171   7.718   7.530  0.1609 -0.9226  0.0440
  884MOL0     H19276   3.180   7.869   7.436  1.8260  0.4244  2.0222
  884MOL0     H19277   3.191   7.750   7.224 -0.0570  0.5464 -0.2319
  884MOL0     H19278   3.200   7.594   7.321 -1.8071 -0.1710  0.4579
  884MOL0     H19279   2.974   7.630   7.207 -1.6112  0.6861  0.8490
  884MOL0     H19280   2.985   7.601   7.372  0.0736 -1.6238 -0.9043
  884MOL0     H19281   2.972   7.856   7.416 -0.9557  0.0784 -0.2768
  884MOL0     H19282   2.970   7.879   7.235  0.6706 -0.0162  0.2982
  884MOL0     H19283   2.748   7.739   7.233 -1.3655  0.0477  0.7398
  884MOL0     H19284   2.755   7.740   7.398  1.3578 -0.3079 -0.4800
  884MOL0     H19285   2.747   7.990   7.408 -1.0104 -0.2869  0.5354
  884MOL0     H19286   2.761   7.998   7.236 -0.2522 -1.3111 -1.3015
  884MOL0     H19287   2.557   7.845   7.206  1.2332  0.6435 -1.0690
  884MOL0     H19288   2.527   7.858   7.375  0.5186 -0.9185 -1.7599
  884MOL0     H19289   2.393   8.011   7.250 -0.0879  0.5285  1.3031
  884MOL0     H19290   2.518   8.096   7.170 -3.2749  3.2742  0.7675
  884MOL0     H19291   2.486   8.016   7.555  1.9366  1.0270  0.8413
  884MOL0     H19292   2.658   8.161   7.731 -0.0147  1.2515 -0.8539
  884MOL0     H19293   2.602   8.320   7.756  1.8559 -0.3736  1.9628
  884MOL0     H19294   2.376   8.193   7.766  0.3548  2.0460 -0.0356
  884MOL0     H19295   2.475   8.222   7.903  1.4353 -0.9526 -0.0880
  884MOL0     H19296   2.590   8.016   7.900 -0.1814  2.2847 -0.5227
  884MOL0     H19297   2.510   7.957   7.750 -2.1756  1.2406 -0.8337
  884MOL0     H19298   2.361   8.011   8.006 -0.7504  2.1125 -1.7558
  884MOL0     H19299   2.396   7.849   7.929  1.4837 -0.3159  0.0403
  884MOL0     H19300   2.207   7.857   8.069  0.2450 -4.3582 -1.2414
  884MOL0     H19301   2.056   7.792   8.233 -0.5035 -2.1912  0.7032
  884MOL0     H19302   1.882   7.842   8.214 -0.0669 -0.0152  0.2628
  884MOL0     H19303   1.934   7.676   8.173 -1.1239  0.1370 -0.4132
  884MOL0     H19304   1.592   7.432   8.003  1.2109  0.3285  0.9376
  884MOL0     H19305   1.396   7.370   8.109  1.9334 -0.2854 -1.4799
  884MOL0     H19306   1.215   7.331   8.240  0.0170 -1.6213  1.5875
  884MOL0     H19307   1.289   7.371   8.397 -0.8656 -1.8374  1.0026
  884MOL0     H19308   1.069   7.466   8.479  0.7066  0.3641 -0.5303
  884MOL0     H19309   0.996   7.387   8.344  1.1625  0.1519 -1.4945
  884MOL0     H19310   1.148   7.229   8.565 -1.1739 -1.1708 -0.0326
  884MOL0     H19311   1.039   7.165   8.438 -2.9925 -0.6520  1.6281
  884MOL0     H19312   0.947   7.178   8.658  0.1800  1.4224  0.7415
  884MOL0     H19313   0.955   7.351   8.671 -1.2113  0.7099 -1.0105
  884MOL0     H19314   0.810   7.222   8.432  1.5671  1.2529 -0.8907
  884MOL0     H19315   0.818   7.386   8.484  1.0217  0.1829  1.3290
  884MOL0     H19316   0.713   7.148   8.622 -2.3838 -0.0676  0.2008
  884MOL0     H19317   0.719   7.300   8.716 -1.2791 -2.8283  1.8661
  884MOL0     H19318   0.552   7.195   8.472  1.9907 -1.3376  1.0275
  884MOL0     H19319   0.569   7.363   8.486 -2.7436 -1.4999 -2.0150
  884MOL0     H19320   0.462   7.361   8.715 -0.2805 -0.4270 -0.1166
  884MOL0     H19321   0.442   7.188   8.687  1.4835 -0.2782  0.2788
  884MOL0     H19322   1.341   7.757   8.299 -1.5413 -0.8331  0.2841
  884MOL0     H19323   1.568   7.830   8.188  3.5894 -0.7704 -2.1239
  884MOL0     H19324   1.830   7.949   7.760  0.6605 -1.8857 -0.9376
  884MOL0     H19325   2.049   8.007   7.704  4.1024 -1.0133 -0.2527
  884MOL0     H19326   3.325   7.945   7.611 -0.0870  0.7560 -1.5465
  884MOL0     H19327   3.530   8.053   7.721 -0.0213  2.6697 -1.9766
  884MOL0     H19328   3.883   8.152   7.836 -0.1846 -2.1641  0.3961
  884MOL0     H19329   4.074   8.241   7.964  0.7128  0.1642  0.2484
  884MOL0     H19330   4.490   8.246   7.764 -2.4343  0.8669 -0.6008
  884MOL0     H19331   4.518   8.294   7.932 -1.8203  1.8463 -0.2894
  884MOL0     H19332   4.607   8.082   7.913 -0.4402  1.0851 -0.3915
  884MOL0     H19333   4.478   8.015   7.812 -0.1950 -2.0120  2.3234
  884MOL0     H19334   4.455   7.919   8.024  1.3048  1.5068  1.8615
  884MOL0     H19335   4.307   8.012   7.990 -1.5433 -3.5827  2.4743
  884MOL0     H19336   4.572   8.076   8.151 -0.1974  3.6573  1.1197
  884MOL0     H19337   4.412   8.005   8.225  2.1872 -3.1742 -1.0082
  884MOL0     H19338   4.337   8.423   8.211 -2.2810 -0.0511  0.6860
  884MOL0     H19339   4.346   8.124   7.658  0.9453  2.5638  1.6721
  884MOL0     H19340   4.147   8.012   7.534  1.6274 -0.7854  1.0535
  885MOL0     O19341   9.900   0.117   9.940 -0.3038  0.3183 -0.3553
  885MOL0     C19342   9.954   0.233   9.940 -0.6045  0.4618  0.5448
  885MOL0     O19343   9.916   0.350  10.008 -0.2378 -0.4134 -0.0739
  885MOL0     C19344   9.785   0.367  10.052 -0.2679  0.8191  1.3786
  885MOL0     C19345   9.679   0.282  10.018 -0.1841 -1.1266  0.4718
  885MOL0     C19346   9.557   0.299  10.068 -0.9476 -0.1144 -0.6988
  885MOL0     C19347   9.530   0.405  10.165  1.0232 -0.0127 -0.3057
  885MOL0     O19348   9.416   0.437  10.232 -0.2981  0.3721  0.4836
  885MOL0     C19349   9.299   0.367  10.195  0.7874  0.7488  0.1039
  885MOL0     C19350   9.182   0.428  10.271  0.9408 -0.5085 -0.4307
  885MOL0     C19351   9.040   0.363  10.252  0.9176 -0.6213  0.0281
  885MOL0     C19352   8.954   0.418  10.367 -0.2644 -0.0833  1.0140
  885MOL0     C19353   8.807   0.407  10.357  0.1195 -0.0655 -0.4562
  885MOL0     C19354   8.736   0.425  10.491 -0.4204 -0.7763 -0.4342
  885MOL0     C19355   8.767   0.552  10.566  0.1385 -0.1180 -0.4649
  885MOL0     C19356   8.713   0.675  10.500  0.5907 -0.1051 -0.2548
  885MOL0     N19357   8.564   0.678  10.509 -0.7507  0.1001 -0.4896
  885MOL0     C19358   8.480   0.631  10.607  0.1590 -0.3835 -0.9403
  885MOL0     C19359   8.359   0.659  10.559  0.2018  0.2504 -0.0894
  885MOL0     C19360   8.227   0.606  10.620 -0.0138 -0.0034 -0.0743
  885MOL0     C19361   8.195   0.681  10.749 -0.5296  0.6201 -0.0524
  885MOL0     C19362   8.046   0.682  10.777  0.0891 -0.0753  0.1424
  885MOL0     C19363   7.958   0.772  10.685  0.6189 -0.1837  0.6302
  885MOL0     O19364   7.816   0.739  10.695  0.0215 -0.2469  0.6618
  885MOL0     C19365   7.740   0.806  10.609 -0.1949 -0.2023 -0.2595
  885MOL0     C19366   7.775   0.902  10.513  0.1615  0.4881  0.0172
  885MOL0     C19367   7.668   0.970  10.446  0.1662 -0.4107  0.5390
  885MOL0     C19368   7.719   1.083  10.355 -0.0693  0.7666 -0.1769
  885MOL0     C19369   7.531   0.938  10.461 -0.3569  0.3755 -0.4427
  885MOL0     C19370   7.414   0.990  10.382  0.8547  0.7296 -0.7022
  885MOL0     O19371   7.291   0.953  10.428  0.6148 -0.2182 -0.0230
  885MOL0     C19372   7.174   1.010  10.372 -0.1787  0.8098  0.5174
  885MOL0     C19373   7.142   1.136  10.391  0.0152 -0.4242  0.3269
  885MOL0     C19374   7.024   1.188  10.337 -0.1917 -0.2249 -0.0547
  885MOL0     C19375   6.940   1.112  10.252 -0.6459  1.0306  0.1768
  885MOL0     O19376   6.826   1.163  10.192 -0.2602  0.2227 -0.4412
  885MOL0     C19377   6.848   1.263  10.095 -0.3926  0.3825 -0.0087
  885MOL0     C19378   6.746   1.373  10.100  0.9376 -0.1826 -0.3322
  885MOL0     C19379   6.604   1.322  10.098 -0.0882 -0.0788 -0.2883
  885MOL0     C19380   6.509   1.426  10.168  0.0794  0.1890  0.4197
  885MOL0     C19381   6.525   1.438  10.322 -0.8843  0.2663  0.5178
  885MOL0     C19382   6.441   1.555  10.380 -0.6398 -0.0940 -0.2154
  885MOL0     C19383   6.295   1.522  10.372  0.5978 -0.1366 -0.1780
  885MOL0     C19384   6.203   1.637  10.415 -0.0771  1.0562  0.1033
  885MOL0    Cl19385   6.266   1.734  10.553  0.1512  0.3190  0.0347
  885MOL0     C19386   6.992   0.981  10.217  0.1639 -0.9045 -0.1380
  885MOL0     C19387   7.107   0.934  10.275 -0.1486 -0.1091  0.0011
  885MOL0     O19388   7.431   1.087  10.311 -0.4624  0.6197 -0.1365
  885MOL0     C19389   7.504   0.851  10.564 -0.4719 -0.0096  0.0891
  885MOL0     C19390   7.606   0.775  10.622  0.2932  1.0246  0.5449
  885MOL0     N19391   8.360   0.724  10.438 -0.4636  0.1905 -0.1879
  885MOL0     N19392   8.486   0.738  10.417  0.9000 -0.4270 -0.1743
  885MOL0     C19393   9.629   0.494  10.190  0.5850 -0.3739 -0.1056
  885MOL0     C19394   9.756   0.481  10.133  1.3381  0.7964 -0.1828
  885MOL0     C19395  10.093   0.243   9.884  0.2646 -1.2043  1.6296
  885MOL0     C19396  10.156   0.141   9.825 -0.6888  0.8055 -0.1580
  885MOL0     C19397  10.282   0.153   9.770 -0.5935  0.2655 -0.0184
  885MOL0     C19398  10.364   0.260   9.790  0.0825 -0.8976 -0.6416
  885MOL0     O19399  10.494   0.269   9.776 -0.4819  0.8505  0.6462
  885MOL0     C19400  10.558   0.145   9.754 -0.1673 -0.6833 -0.0550
  885MOL0     C19401  10.716   0.159   9.753  0.3591 -0.0584 -0.5620
  885MOL0     C19402  10.766   0.223   9.887  0.1595 -0.8897 -1.0024
  885MOL0     C19403  10.898   0.162   9.932 -0.8028  0.0786 -0.7925
  885MOL0     C19404  10.996   0.185   9.822  0.0937  0.1724 -0.1901
  885MOL0     C19405  11.095   0.199   9.746  0.8530 -0.1919 -0.6834
  885MOL0     C19406  10.304   0.373   9.850 -0.4776  0.1308 -0.2499
  885MOL0     C19407  10.172   0.359   9.896 -0.4495 -0.3953 -0.8190
  885MOL0     H19408   9.685   0.196   9.952 -3.6562 -0.9769 -0.2501
  885MOL0     H19409   9.478   0.225  10.058 -0.5485 -1.5003  3.9466
  885MOL0     H19410   9.277   0.369  10.088 -2.6270 -3.1951  0.4653
  885MOL0     H19411   9.291   0.260  10.214 -0.2271  1.0494  1.4537
  885MOL0     H19412   9.208   0.434  10.377 -1.2967  3.0554  0.0718
  885MOL0     H19413   9.168   0.534  10.246 -0.8184 -0.1577  1.7145
  885MOL0     H19414   8.999   0.398  10.157  2.9913 -1.2207 -1.1566
  885MOL0     H19415   9.039   0.254  10.263 -0.0715 -0.5047  1.4364
  885MOL0     H19416   8.989   0.370  10.459 -0.7156 -0.9797  0.7296
  885MOL0     H19417   8.984   0.521  10.388  0.8938 -0.2691  0.3762
  885MOL0     H19418   8.781   0.483  10.282 -1.8087  0.9462  1.1350
  885MOL0     H19419   8.783   0.310  10.313 -1.8207 -0.0918  0.5371
  885MOL0     H19420   8.630   0.405  10.471 -0.1773 -0.7223 -1.8751
  885MOL0     H19421   8.773   0.344  10.554  0.8917  1.0375  1.2209
  885MOL0     H19422   8.742   0.549  10.672 -0.5108 -1.5250 -0.6422
  885MOL0     H19423   8.876   0.558  10.568  0.1414 -0.2899  0.4341
  885MOL0     H19424   8.747   0.668  10.396 -0.0367  1.1237 -0.5539
  885MOL0     H19425   8.764   0.754  10.556 -0.4154 -0.8073  1.7450
  885MOL0     H19426   8.505   0.575  10.697 -0.8089 -1.3807 -1.2660
  885MOL0     H19427   8.150   0.629  10.546 -1.0384  1.2299  1.3171
  885MOL0     H19428   8.244   0.498  10.631  2.8936  0.2946 -0.8156
  885MOL0     H19429   8.236   0.782  10.749  1.0636  0.0028 -0.5136
  885MOL0     H19430   8.243   0.620  10.826 -0.3301  2.3741  1.2805
  885MOL0     H19431   8.040   0.721  10.879 -1.0738 -4.3351  1.9286
  885MOL0     H19432   8.013   0.578  10.776  1.1543 -0.4210 -1.1999
  885MOL0     H19433   7.997   0.751  10.585 -0.7634 -0.3845  0.1165
  885MOL0     H19434   7.967   0.881  10.695  3.2599 -0.2578 -0.1298
  885MOL0     H19435   7.875   0.938  10.491  0.2142 -0.2666 -1.0762
  885MOL0     H19436   7.825   1.101  10.374 -0.2509  0.7098  0.9535
  885MOL0     H19437   7.705   1.044  10.254 -1.0404 -2.5125  1.1197
  885MOL0     H19438   7.664   1.177  10.368 -1.8359  0.1500 -2.4939
  885MOL0     H19439   7.202   1.199  10.455  0.0722 -1.4603  1.3099
  885MOL0     H19440   6.984   1.286  10.360 -1.0356 -0.9798  1.9805
  885MOL0     H19441   6.948   1.309  10.092 -0.2783  0.1221 -0.2071
  885MOL0     H19442   6.854   1.210  10.000  6.1114  0.4073 -0.0813
  885MOL0     H19443   6.774   1.447  10.176 -2.0885  1.1960 -0.4102
  885MOL0     H19444   6.771   1.434  10.013  1.0382  2.4801  1.4383
  885MOL0     H19445   6.596   1.231  10.159  0.8778  0.3429  0.5046
  885MOL0     H19446   6.574   1.284  10.000 -1.2658  1.2049 -0.4437
  885MOL0     H19447   6.522   1.528  10.130 -2.0122  1.3061  2.4413
  885MOL0     H19448   6.409   1.387  10.147  0.5149 -0.5489 -0.3818
  885MOL0     H19449   6.631   1.461  10.337 -0.9325  1.5766 -0.9020
  885MOL0     H19450   6.510   1.347  10.381 -0.7048 -1.0699 -1.3948
  885MOL0     H19451   6.471   1.559  10.485 -1.9890  1.0481  0.1556
  885MOL0     H19452   6.462   1.650  10.330 -0.6225  1.2224  2.1634
  885MOL0     H19453   6.275   1.436  10.436 -0.8705  1.2610  1.3441
  885MOL0     H19454   6.261   1.498  10.271  0.0284 -1.6560  0.3524
  885MOL0     H19455   6.100   1.605  10.431  0.7072 -3.0522 -1.6567
  885MOL0     H19456   6.196   1.712  10.335 -1.4551 -0.2317 -1.0467
  885MOL0     H19457   6.932   0.929  10.142 -1.0913 -2.3349  1.7686
  885MOL0     H19458   7.129   0.829  10.259 -3.3923 -1.2870  2.1062
  885MOL0     H19459   7.402   0.829  10.593 -1.0257  4.4326  2.2655
  885MOL0     H19460   7.585   0.707  10.704  2.8773  1.7301  1.9049
  885MOL0     H19461   9.611   0.581  10.253  3.4157  1.7476 -1.9765
  885MOL0     H19462   9.839   0.547  10.157  1.4889  1.0035 -1.2372
  885MOL0     H19463  10.096   0.050   9.825 -0.3302  0.5425  1.3469
  885MOL0     H19464  10.323   0.060   9.732  1.5087 -0.1757  2.9101
  885MOL0     H19465  10.533   0.082   9.840 -1.3987  1.8560  1.5817
  885MOL0     H19466  10.528   0.089   9.665  0.9692 -2.9887  0.9277
  885MOL0     H19467  10.753   0.224   9.673  0.9013  1.1653  0.6479
  885MOL0     H19468  10.766   0.063   9.737 -0.7573 -0.6105 -0.9087
  885MOL0     H19469  10.695   0.200   9.967 -0.5582 -1.3829 -1.7667
  885MOL0     H19470  10.777   0.330   9.870 -2.4243 -0.3894 -0.0121
  885MOL0     H19471  10.886   0.053   9.940 -0.3218 -0.0378 -1.5306
  885MOL0     H19472  10.927   0.205  10.028  0.6535 -0.5366 -0.9264
  885MOL0     H19473  11.178   0.210   9.680 -0.1313 -0.0833 -1.9494
  885MOL0     H19474  10.359   0.462   9.880 -1.0961  0.8695 -1.2465
  885MOL0     H19475  10.142   0.434   9.968  1.2051 -1.2413  0.8272
  886MOL0     O19476  10.702   5.921   7.757  0.4945 -0.6105  0.4740
  886MOL0     C19477  10.701   5.855   7.859 -0.3743  0.3621 -0.4400
  886MOL0     O19478  10.664   5.726   7.865 -0.9006 -0.2364 -0.4500
  886MOL0     C19479  10.635   5.658   7.744  0.0448 -0.3229  0.6161
  886MOL0     C19480  10.534   5.707   7.660  0.1883 -0.3390 -0.5814
  886MOL0     C19481  10.508   5.642   7.540 -0.6449  0.1912  0.7742
  886MOL0     C19482  10.565   5.516   7.509 -0.3915 -0.3481  0.2380
  886MOL0     O19483  10.526   5.445   7.396 -0.3900 -0.4166  0.4693
  886MOL0     C19484  10.424   5.492   7.314  0.1436  0.5807 -0.4069
  886MOL0     C19485  10.419   5.399   7.187 -0.2340 -0.4246  0.3272
  886MOL0     C19486  10.291   5.416   7.096 -0.2738 -1.0930 -0.3451
  886MOL0     C19487  10.301   5.346   6.959 -0.2899  0.3084 -0.0237
  886MOL0     C19488  10.159   5.365   6.881 -1.0401 -0.7700  0.4083
  886MOL0     C19489  10.167   5.304   6.737  0.3862  0.1754  0.3003
  886MOL0     C19490  10.143   5.152   6.748 -0.5482 -0.0640  0.0224
  886MOL0     C19491  10.118   5.076   6.608 -0.8584 -1.0723 -0.5872
  886MOL0     N19492   9.994   5.076   6.531 -0.4136 -0.4838 -0.0084
  886MOL0     C19493   9.934   5.188   6.483 -0.0776  0.2517 -0.0829
  886MOL0     C19494   9.798   5.154   6.472 -0.5245 -0.1994 -0.1996
  886MOL0     C19495   9.677   5.234   6.432  0.0444 -1.0985  0.6448
  886MOL0     C19496   9.616   5.303   6.555 -0.6279 -0.7617 -0.1648
  886MOL0     C19497   9.702   5.418   6.604 -0.1107 -0.0179  0.7103
  886MOL0     C19498   9.760   5.385   6.750 -0.0404 -0.6769  0.4670
  886MOL0     O19499   9.871   5.470   6.779  0.1797  0.3963 -0.0990
  886MOL0     C19500   9.840   5.582   6.859 -0.8165 -0.0841  0.3723
  886MOL0     C19501   9.772   5.689   6.795 -0.8594  0.1331  0.2121
  886MOL0     C19502   9.752   5.810   6.865 -0.9895  0.4359 -0.2003
  886MOL0     C19503   9.676   5.914   6.788  0.2448 -0.3869  0.3003
  886MOL0     C19504   9.788   5.820   7.002  0.3014  0.2309  0.1264
  886MOL0     C19505   9.744   5.932   7.099  0.2873  0.2123 -0.5230
  886MOL0     O19506   9.792   5.918   7.229 -0.1465  0.2906 -0.7255
  886MOL0     C19507   9.778   6.016   7.323  0.8367  0.5362 -0.5499
  886MOL0     C19508   9.741   5.976   7.459 -0.0086 -0.0177 -0.9100
  886MOL0     C19509   9.727   6.074   7.555 -0.2344  0.1786  0.3274
  886MOL0     C19510   9.728   6.212   7.522 -0.1290  0.2730  0.1516
  886MOL0     O19511   9.713   6.322   7.603  0.1943  0.8173  0.1984
  886MOL0     C19512   9.772   6.286   7.728  0.6170 -0.9803 -0.6512
  886MOL0     C19513   9.798   6.417   7.804  0.3333  0.6411 -0.0094
  886MOL0     C19514   9.936   6.468   7.757  0.6378  0.6620  0.3904
  886MOL0     C19515   9.946   6.618   7.791 -1.1539  0.5892 -0.7271
  886MOL0     C19516  10.081   6.666   7.856 -0.2531 -0.6755 -0.2079
  886MOL0     C19517  10.188   6.655   7.750 -0.2164  0.3543  0.5112
  886MOL0     C19518  10.321   6.723   7.791  0.9497  0.1292 -0.2850
  886MOL0     C19519  10.438   6.734   7.690 -0.3493  0.5043 -0.1469
  886MOL0    Cl19520  10.544   6.866   7.750  0.1442  0.1695  0.1571
  886MOL0     C19521   9.763   6.245   7.393 -0.6627  0.2712 -0.6597
  886MOL0     C19522   9.793   6.151   7.297 -0.3981 -0.8387  0.0050
  886MOL0     O19523   9.672   6.023   7.063 -0.5274  0.0656  0.1615
  886MOL0     C19524   9.851   5.709   7.058 -0.7976 -0.2283 -0.2829
  886MOL0     C19525   9.877   5.593   6.995  0.2957  0.3180  0.7681
  886MOL0     N19526   9.788   5.026   6.502 -0.0686 -0.1123 -0.3226
  886MOL0     N19527   9.905   4.979   6.546  0.4308 -0.8182 -0.0161
  886MOL0     C19528  10.655   5.464   7.605  0.0478 -0.3617 -0.2416
  886MOL0     C19529  10.693   5.532   7.719  0.6575  0.3309 -0.1660
  886MOL0     C19530  10.761   5.928   7.972 -1.0017 -0.7923  0.0264
  886MOL0     C19531  10.839   6.041   7.956  0.3507 -0.5744 -0.5442
  886MOL0     C19532  10.902   6.091   8.069  0.6896 -0.6646 -0.7322
  886MOL0     C19533  10.890   6.039   8.198  1.1702 -0.2953  0.4170
  886MOL0     O19534  10.976   6.109   8.287  0.0094 -0.7640 -1.3616
  886MOL0     C19535  10.963   6.084   8.431  0.1564  0.6385  0.0426
  886MOL0     C19536  11.078   6.150   8.519 -0.5190  0.4996  0.8991
  886MOL0     C19537  11.202   6.056   8.521 -0.4397  0.2383  0.4082
  886MOL0     C19538  11.270   6.049   8.380  0.0070 -0.7011  0.4661
  886MOL0     C19539  11.413   6.013   8.387  1.0043 -0.6064 -0.6193
  886MOL0     C19540  11.533   5.979   8.383  0.4133  0.2244  0.2583
  886MOL0     C19541  10.796   5.936   8.212 -0.1072 -0.3171 -0.3861
  886MOL0     C19542  10.737   5.883   8.099  0.1646  0.1250 -0.9054
  886MOL0     H19543  10.483   5.801   7.676 -0.7334 -0.4673 -2.5466
  886MOL0     H19544  10.443   5.689   7.467  0.8051 -1.6802 -1.9052
  886MOL0     H19545  10.332   5.475   7.371  1.1819  0.6974  1.3605
  886MOL0     H19546  10.433   5.595   7.278 -1.9155  0.2987 -1.9141
  886MOL0     H19547  10.504   5.420   7.121  0.1251  1.0381  1.2223
  886MOL0     H19548  10.429   5.294   7.216 -3.3566 -0.3100  2.3094
  886MOL0     H19549  10.209   5.364   7.146  0.0556  0.9530  2.5432
  886MOL0     H19550  10.268   5.522   7.084  0.2863 -0.7821  1.0957
  886MOL0     H19551  10.375   5.391   6.892  0.8361 -3.1806 -1.3398
  886MOL0     H19552  10.320   5.239   6.971  1.3925  0.7455  1.4957
  886MOL0     H19553  10.078   5.317   6.936 -0.5071 -0.2331  1.7189
  886MOL0     H19554  10.138   5.473   6.882 -2.7205 -1.0516 -0.8464
  886MOL0     H19555  10.074   5.333   6.688 -0.1612 -0.5599  0.8667
  886MOL0     H19556  10.250   5.338   6.675 -1.2269  2.9872 -0.4884
  886MOL0     H19557  10.235   5.108   6.787  1.5416  4.3192  0.7182
  886MOL0     H19558  10.066   5.122   6.820 -2.0243  3.6644  0.2148
  886MOL0     H19559  10.149   4.972   6.622 -0.5400 -0.9123 -0.0711
  886MOL0     H19560  10.188   5.126   6.539  0.6825 -5.5331 -2.6898
  886MOL0     H19561   9.977   5.285   6.461 -1.2909  0.9769  0.6382
  886MOL0     H19562   9.732   5.302   6.366  1.4587 -4.3841 -1.8678
  886MOL0     H19563   9.599   5.185   6.371  0.8171  0.9845 -2.2278
  886MOL0     H19564   9.603   5.228   6.634  1.0765 -1.3711 -0.4186
  886MOL0     H19565   9.519   5.346   6.531 -1.1010 -1.4644  0.4503
  886MOL0     H19566   9.642   5.508   6.622  0.5253  0.7789 -0.9659
  886MOL0     H19567   9.773   5.452   6.528 -1.9121  0.7882 -0.7177
  886MOL0     H19568   9.807   5.287   6.740  1.2096 -0.1231  0.5801
  886MOL0     H19569   9.680   5.384   6.824 -1.0065  1.1504 -0.4679
  886MOL0     H19570   9.741   5.671   6.693  1.2853  1.8329 -0.8272
  886MOL0     H19571   9.716   5.919   6.686  2.6551  1.8413  1.2684
  886MOL0     H19572   9.569   5.896   6.803  0.2948 -0.8538  0.1111
  886MOL0     H19573   9.709   6.015   6.813  0.1196 -0.0488 -0.8312
  886MOL0     H19574   9.735   5.873   7.492 -2.1354  0.3410  0.0114
  886MOL0     H19575   9.708   6.043   7.657  1.2792 -2.5481 -0.1294
  886MOL0     H19576   9.704   6.224   7.788  3.6007 -3.4116  0.4858
  886MOL0     H19577   9.864   6.230   7.710 -0.1174 -1.7169 -2.3415
  886MOL0     H19578   9.713   6.485   7.796  1.9528  2.9035  1.1632
  886MOL0     H19579   9.813   6.391   7.909  1.3300 -0.1212 -0.3286
  886MOL0     H19580   9.952   6.447   7.651  1.6253 -0.8747  0.8007
  886MOL0     H19581  10.012   6.407   7.807  2.3557  2.6293  0.3164
  886MOL0     H19582   9.937   6.672   7.697 -0.2299  0.6752 -0.7722
  886MOL0     H19583   9.871   6.648   7.865 -1.2113  0.8170 -0.8792
  886MOL0     H19584  10.109   6.615   7.948  1.4301 -0.8037 -0.7530
  886MOL0     H19585  10.085   6.773   7.877 -0.7118 -0.1331 -2.5341
  886MOL0     H19586  10.216   6.549   7.745  1.8461  0.7878  1.8452
  886MOL0     H19587  10.158   6.693   7.652 -0.9834  3.2145  1.7640
  886MOL0     H19588  10.348   6.653   7.871 -0.3605 -2.4517 -1.9404
  886MOL0     H19589  10.308   6.824   7.831  1.3209 -0.3422  1.0971
  886MOL0     H19590  10.409   6.767   7.590  0.1095  0.6717 -0.2304
  886MOL0     H19591  10.487   6.637   7.674  0.1732  0.7933 -0.3208
  886MOL0     H19592   9.778   6.348   7.362 -0.7165 -0.0471 -1.7651
  886MOL0     H19593   9.826   6.180   7.198  1.1716 -0.4437  0.6241
  886MOL0     H19594   9.882   5.716   7.162  1.9021 -0.8317 -0.9759
  886MOL0     H19595   9.923   5.502   7.033  0.4383 -1.2904 -2.8235
  886MOL0     H19596  10.699   5.369   7.575  2.8073  0.4881  0.8349
  886MOL0     H19597  10.764   5.495   7.793  0.4529  0.5676  0.1504
  886MOL0     H19598  10.848   6.077   7.854 -1.8186 -2.7132 -1.5684
  886MOL0     H19599  10.979   6.165   8.049 -0.5178  0.9808  0.3763
  886MOL0     H19600  10.877   6.144   8.465  2.1188  3.0168  1.1494
  886MOL0     H19601  10.950   5.978   8.452  2.8121  0.4992  1.3165
  886MOL0     H19602  11.053   6.169   8.624 -1.2589 -1.0684  1.0397
  886MOL0     H19603  11.106   6.246   8.477 -0.4175  0.2352  0.3550
  886MOL0     H19604  11.169   5.958   8.557 -2.7136  0.7273 -0.2053
  886MOL0     H19605  11.277   6.087   8.594  0.9950 -0.6448 -0.6310
  886MOL0     H19606  11.274   6.149   8.336 -2.2387 -0.6477  0.2903
  886MOL0     H19607  11.205   5.993   8.313 -1.7920  0.7611  0.8994
  886MOL0     H19608  11.639   5.968   8.394  0.7134  3.5587  1.8616
  886MOL0     H19609  10.787   5.886   8.308  0.6858  2.1332  1.0716
  886MOL0     H19610  10.684   5.789   8.108  2.3512 -1.4472 -3.0705
  887MOL0     O19611   6.730   9.672   8.732 -0.0370 -0.2765  0.1474
  887MOL0     C19612   6.744   9.549   8.734  0.7372 -0.6812 -0.3651
  887MOL0     O19613   6.712   9.454   8.636  0.1558 -0.6238 -0.5172
  887MOL0     C19614   6.613   9.484   8.544 -0.3453  0.0538 -0.8168
  887MOL0     C19615   6.639   9.446   8.415 -0.3983 -0.2434 -0.3605
  887MOL0     C19616   6.543   9.473   8.314 -0.9788  0.1667  0.1842
  887MOL0     C19617   6.432   9.545   8.342  0.2710  0.3158 -0.2671
  887MOL0     O19618   6.352   9.566   8.227  0.1917  0.0351  1.1567
  887MOL0     C19619   6.217   9.598   8.246  0.2043 -0.5007 -0.0949
  887MOL0     C19620   6.178   9.746   8.213  0.1808 -0.5025  0.4646
  887MOL0     C19621   6.029   9.765   8.176  0.3157  0.0195 -0.2360
  887MOL0     C19622   5.992   9.721   8.035  0.9724 -0.3350  0.5329
  887MOL0     C19623   5.853   9.767   7.990 -0.0002 -0.3034  0.8170
  887MOL0     C19624   5.849   9.886   7.898 -0.1533  0.0250  0.0174
  887MOL0     C19625   5.705   9.904   7.854  0.1562  0.0897 -0.9346
  887MOL0     C19626   5.692  10.032   7.781  1.2614  0.7244  0.1867
  887MOL0     N19627   5.551  10.064   7.747  0.1764 -0.2543  0.2399
  887MOL0     C19628   5.479  10.008   7.645 -0.2003 -0.9001 -0.3297
  887MOL0     C19629   5.362  10.074   7.662 -0.6657 -0.1522  0.5294
  887MOL0     C19630   5.244  10.049   7.574  0.1066 -0.0482 -0.1157
  887MOL0     C19631   5.126   9.995   7.650 -0.2313 -0.1358 -0.0560
  887MOL0     C19632   5.115   9.857   7.711 -0.2177  0.4695  0.3247
  887MOL0     C19633   5.112   9.751   7.607 -0.2084  0.0369 -0.1178
  887MOL0     O19634   5.024   9.770   7.501  0.1626 -0.8426 -0.1601
  887MOL0     C19635   4.890   9.758   7.534  0.4588  1.0366 -0.4563
  887MOL0     C19636   4.844   9.693   7.644  0.4755  0.3982 -0.9450
  887MOL0     C19637   4.703   9.665   7.674  0.5283 -0.4314 -0.9408
  887MOL0     C19638   4.681   9.581   7.796  0.2270  0.7156  0.9316
  887MOL0     C19639   4.607   9.716   7.585  0.3228  0.2609  1.2815
  887MOL0     C19640   4.454   9.707   7.601  0.0067 -0.8178 -0.2235
  887MOL0     O19641   4.385   9.714   7.485  0.1693 -0.3197  0.2490
  887MOL0     C19642   4.251   9.681   7.479  0.5736  0.4621  0.3532
  887MOL0     C19643   4.205   9.552   7.506  0.6845 -0.0155  0.4187
  887MOL0     C19644   4.073   9.531   7.495 -0.0579 -0.8797 -0.3282
  887MOL0     C19645   3.977   9.626   7.453 -0.2662 -0.2865 -0.2198
  887MOL0     O19646   3.840   9.613   7.458 -0.6529 -0.5724  0.6211
  887MOL0     C19647   3.780   9.489   7.444  0.3358 -0.0863 -0.8344
  887MOL0     C19648   3.624   9.491   7.428  0.2996  0.5400 -0.5550
  887MOL0     C19649   3.551   9.490   7.556  0.6690  0.6362 -0.7893
  887MOL0     C19650   3.405   9.528   7.541 -0.1512  0.1044  0.3720
  887MOL0     C19651   3.316   9.499   7.665 -0.0579  0.4557  0.0952
  887MOL0     C19652   3.368   9.592   7.779 -0.4556 -0.0552  0.6973
  887MOL0     C19653   3.272   9.593   7.903  0.0247  0.6906  0.2814
  887MOL0     C19654   3.293   9.714   8.002 -0.1859  0.2162 -0.9562
  887MOL0    Cl19655   3.465   9.704   8.052 -0.3102  0.3340  0.6126
  887MOL0     C19656   4.023   9.755   7.418  0.0014 -0.2669  0.0133
  887MOL0     C19657   4.165   9.784   7.433 -0.3617  0.8728  0.3799
  887MOL0     O19658   4.405   9.700   7.717  0.3545  0.6857  0.4759
  887MOL0     C19659   4.661   9.780   7.469  0.9176 -1.0052  0.0684
  887MOL0     C19660   4.795   9.796   7.439 -0.6260  0.4144  0.4974
  887MOL0     N19661   5.366  10.165   7.767  1.2566  0.1150  0.4527
  887MOL0     N19662   5.478  10.157   7.817 -0.6618  0.3561 -0.5840
  887MOL0     C19663   6.407   9.584   8.476 -0.0852 -0.0662  0.1182
  887MOL0     C19664   6.498   9.554   8.581  1.2938  0.6056  0.1157
  887MOL0     C19665   6.822   9.499   8.858 -1.3944  0.3241 -0.2447
  887MOL0     C19666   6.883   9.368   8.864  1.7146 -1.1048 -1.2432
  887MOL0     C19667   6.963   9.340   8.980 -0.0073 -0.8001 -0.4285
  887MOL0     C19668   6.987   9.433   9.082  0.6089 -0.3386 -0.6797
  887MOL0     O19669   7.057   9.374   9.189  0.3603 -0.2146 -0.1500
  887MOL0     C19670   7.065   9.447   9.313 -0.1518 -0.1411  0.6982
  887MOL0     C19671   7.134   9.365   9.415  0.6937  0.5138  0.3156
  887MOL0     C19672   7.275   9.350   9.386 -0.7751  0.0673 -0.0405
  887MOL0     C19673   7.340   9.266   9.496 -0.3746  0.9356  0.1096
  887MOL0     C19674   7.472   9.227   9.445 -0.3037 -0.3553 -0.0972
  887MOL0     C19675   7.576   9.200   9.390 -0.1248  0.8235 -0.7911
  887MOL0     C19676   6.933   9.559   9.070 -0.0890  0.8311  0.5597
  887MOL0     C19677   6.853   9.590   8.957 -0.2070 -0.0690 -0.5657
  887MOL0     H19678   6.734   9.396   8.398  0.4017  1.5763 -1.6130
  887MOL0     H19679   6.567   9.439   8.214 -0.2390  0.1758  0.3514
  887MOL0     H19680   6.175   9.522   8.180 -0.3961  0.3529 -0.7226
  887MOL0     H19681   6.167   9.574   8.341  2.1565  0.9607  1.3925
  887MOL0     H19682   6.193   9.810   8.301 -0.1548 -1.8090  1.5120
  887MOL0     H19683   6.244   9.786   8.136  1.5270  1.8840  2.6949
  887MOL0     H19684   5.966   9.707   8.245 -1.0020  1.9866  0.2919
  887MOL0     H19685   6.011   9.872   8.187 -1.8346 -0.2821 -0.3926
  887MOL0     H19686   6.061   9.774   7.968 -1.6325  1.6083 -0.7794
  887MOL0     H19687   6.012   9.613   8.032 -0.3171 -0.6033  1.0707
  887MOL0     H19688   5.818   9.692   7.919 -0.3336 -0.4380  1.1164
  887MOL0     H19689   5.789   9.774   8.079  0.6788 -0.2729  1.3178
  887MOL0     H19690   5.871   9.984   7.942  2.3629 -0.1540 -0.6824
  887MOL0     H19691   5.922   9.885   7.817  1.2105  2.4466  1.0726
  887MOL0     H19692   5.681   9.816   7.794 -0.5089  1.2251 -2.4075
  887MOL0     H19693   5.646   9.901   7.946 -0.4874 -0.8487 -1.3683
  887MOL0     H19694   5.751  10.013   7.690 -2.3841 -3.8176 -1.6302
  887MOL0     H19695   5.724  10.120   7.837 -0.6830 -1.4888  5.4261
  887MOL0     H19696   5.501   9.934   7.569  2.4269  1.5393 -2.1638
  887MOL0     H19697   5.224  10.144   7.524  1.0140  0.0696 -0.2592
  887MOL0     H19698   5.266   9.987   7.487  0.4420  2.5547 -2.0120
  887MOL0     H19699   5.050  10.006   7.573  1.2738  0.5142 -1.5265
  887MOL0     H19700   5.089  10.066   7.725  3.9290  0.6835  1.4963
  887MOL0     H19701   5.022   9.857   7.769 -0.0414 -1.8724  0.6992
  887MOL0     H19702   5.201   9.846   7.779  1.3014  0.2104 -1.5410
  887MOL0     H19703   5.098   9.649   7.644 -0.4815  0.3456  0.6449
  887MOL0     H19704   5.207   9.751   7.553  0.2702 -0.5211  0.7003
  887MOL0     H19705   4.911   9.654   7.720 -0.2313  0.3776 -0.3179
  887MOL0     H19706   4.762   9.508   7.812 -0.7341 -1.2613 -2.2000
  887MOL0     H19707   4.672   9.653   7.878 -1.5334 -0.9679  2.3073
  887MOL0     H19708   4.588   9.526   7.784 -0.4421  1.9920  0.0590
  887MOL0     H19709   4.265   9.469   7.540 -1.2979 -0.4436  3.2304
  887MOL0     H19710   4.036   9.435   7.529 -1.6653  0.5804  2.3940
  887MOL0     H19711   3.826   9.432   7.363 -0.0549 -0.2335 -0.9521
  887MOL0     H19712   3.811   9.433   7.533  1.4631  1.5633 -0.1185
  887MOL0     H19713   3.590   9.570   7.361  1.1136  1.4926  0.1159
  887MOL0     H19714   3.591   9.395   7.388 -4.1863  0.3115  2.9382
  887MOL0     H19715   3.596   9.558   7.629  2.6129 -0.0002 -1.3290
  887MOL0     H19716   3.576   9.389   7.587  0.8513  0.6052 -1.0313
  887MOL0     H19717   3.403   9.635   7.522  1.6960  0.0811 -0.1350
  887MOL0     H19718   3.357   9.469   7.462  1.1735  1.7566 -1.7628
  887MOL0     H19719   3.309   9.395   7.697 -4.8877  0.8632  1.0994
  887MOL0     H19720   3.217   9.534   7.633  1.0843  1.5147 -2.5516
  887MOL0     H19721   3.464   9.546   7.803 -1.6610 -3.3953 -0.3634
  887MOL0     H19722   3.376   9.696   7.745 -0.3201 -0.1097  0.5617
  887MOL0     H19723   3.279   9.494   7.947 -0.8683 -0.0678 -1.1992
  887MOL0     H19724   3.170   9.602   7.865  0.2389 -0.9023 -0.7686
  887MOL0     H19725   3.225   9.694   8.085  1.6161  1.2693  0.8578
  887MOL0     H19726   3.262   9.814   7.969  1.6986  1.0721 -0.2868
  887MOL0     H19727   3.956   9.834   7.387  0.3872  1.2634  2.6963
  887MOL0     H19728   4.214   9.877   7.405 -1.2109  0.9239 -1.0227
  887MOL0     H19729   4.590   9.815   7.394  3.1613  0.8909 -1.3165
  887MOL0     H19730   4.830   9.843   7.348 -0.0199 -0.9993 -0.0346
  887MOL0     H19731   6.310   9.626   8.500 -0.8044 -1.7330  0.3219
  887MOL0     H19732   6.487   9.583   8.685  1.7609 -0.1484  0.3821
  887MOL0     H19733   6.874   9.297   8.782 -0.0576 -0.7508 -1.3996
  887MOL0     H19734   7.007   9.244   9.001  0.8310 -0.0483  1.5584
  887MOL0     H19735   7.104   9.548   9.297 -0.4439 -0.2333 -0.7791
  887MOL0     H19736   6.958   9.456   9.337 -0.7363 -0.2309 -1.6139
  887MOL0     H19737   7.081   9.269   9.421  1.5896  0.0946  2.3216
  887MOL0     H19738   7.132   9.419   9.510  1.9265  2.5344 -0.7420
  887MOL0     H19739   7.320   9.450   9.395 -1.0283  0.4199 -2.2198
  887MOL0     H19740   7.295   9.313   9.285 -2.5058  1.0330 -0.7861
  887MOL0     H19741   7.278   9.179   9.517  0.7275  0.3849  1.2383
  887MOL0     H19742   7.357   9.324   9.587 -0.4973 -0.5583  1.1042
  887MOL0     H19743   7.665   9.179   9.334  0.1521 -0.7670  0.1588
  887MOL0     H19744   6.960   9.638   9.140 -0.4497  0.5449  1.0295
  887MOL0     H19745   6.812   9.691   8.948 -1.3079 -0.4615 -0.0433
  888MOL0     O19746   3.193   8.077   4.056 -0.5991 -0.0339  0.0528
  888MOL0     C19747   3.140   8.183   4.081  0.5867 -0.3241  0.0711
  888MOL0     O19748   3.173   8.307   4.032  0.4558 -0.7011 -0.0462
  888MOL0     C19749   3.296   8.331   3.968  0.0973 -0.0142  0.0553
  888MOL0     C19750   3.413   8.270   4.018 -0.2467  0.0834 -0.0671
  888MOL0     C19751   3.532   8.305   3.956 -0.5675 -0.2495 -0.4930
  888MOL0     C19752   3.536   8.391   3.843  0.5191 -0.1719 -0.4894
  888MOL0     O19753   3.644   8.428   3.766  0.8343  0.8485  0.0266
  888MOL0     C19754   3.768   8.351   3.786  0.4786 -0.7865 -0.4695
  888MOL0     C19755   3.868   8.396   3.678 -1.3582  0.9555  0.1825
  888MOL0     C19756   4.020   8.375   3.720 -0.5199  0.2837 -0.7476
  888MOL0     C19757   4.081   8.496   3.785  0.1862  0.7409 -0.4264
  888MOL0     C19758   4.223   8.464   3.849  0.1370  0.3349  0.2494
  888MOL0     C19759   4.327   8.424   3.742  0.2450 -0.4167 -1.3055
  888MOL0     C19760   4.475   8.415   3.787  0.0314 -0.3201 -0.3554
  888MOL0     C19761   4.528   8.557   3.837 -0.2303  0.8122  1.2910
  888MOL0     N19762   4.671   8.544   3.875  0.2518 -0.0091  0.3827
  888MOL0     C19763   4.773   8.512   3.792 -0.6102 -0.2613  0.3730
  888MOL0     C19764   4.886   8.480   3.857  0.2952  0.4777  0.0717
  888MOL0     C19765   5.018   8.444   3.789  0.2556 -0.1651  0.6789
  888MOL0     C19766   5.068   8.568   3.707 -0.5834 -0.3105 -0.0079
  888MOL0     C19767   5.202   8.534   3.643  0.0813 -0.1199  0.0515
  888MOL0     C19768   5.187   8.441   3.517 -0.5088 -0.2840  0.0949
  888MOL0     O19769   5.176   8.302   3.554 -0.4789 -0.6193  0.0852
  888MOL0     C19770   5.169   8.234   3.436 -0.4308  0.3630 -0.3539
  888MOL0     C19771   5.049   8.176   3.388  1.1582  0.3096 -0.8617
  888MOL0     C19772   5.041   8.078   3.276 -0.2865 -0.2475  0.2724
  888MOL0     C19773   4.901   8.031   3.230 -0.3011  0.3953 -0.1398
  888MOL0     C19774   5.165   8.054   3.207  0.9103 -0.2988  0.3513
  888MOL0     C19775   5.165   7.967   3.077 -0.2456 -0.3573  0.1072
  888MOL0     O19776   5.284   7.940   3.028  0.1855  0.1230  0.1496
  888MOL0     C19777   5.288   7.868   2.906 -0.5099 -0.9349  0.4479
  888MOL0     C19778   5.333   7.736   2.905 -0.1618 -0.4650 -0.1266
  888MOL0     C19779   5.327   7.659   2.792 -0.4261  0.0505  0.0085
  888MOL0     C19780   5.299   7.719   2.666 -0.0438 -0.9543  0.6594
  888MOL0     O19781   5.320   7.666   2.539  0.7334  0.2193  0.3101
  888MOL0     C19782   5.324   7.522   2.525 -0.5270  0.3117 -0.1368
  888MOL0     C19783   5.230   7.488   2.412  0.5229  0.2227 -1.0937
  888MOL0     C19784   5.259   7.566   2.276  0.1499 -0.1563  0.3892
  888MOL0     C19785   5.408   7.547   2.225  0.3898 -0.3680  0.2187
  888MOL0     C19786   5.455   7.396   2.203  0.0267  0.2109 -0.3687
  888MOL0     C19787   5.362   7.320   2.104 -0.1538 -0.4294 -0.5143
  888MOL0     C19788   5.428   7.185   2.080  0.0947  0.4623  0.0962
  888MOL0     C19789   5.361   7.112   1.961  0.4381  0.2110  0.1961
  888MOL0    Cl19790   5.218   7.030   2.016  0.2353  0.8036 -0.2914
  888MOL0     C19791   5.265   7.854   2.668  0.1532 -0.2711 -0.3658
  888MOL0     C19792   5.269   7.929   2.783  0.5526 -0.6963 -0.6260
  888MOL0     O19793   5.060   7.933   3.025  0.2275  0.4177 -0.1083
  888MOL0     C19794   5.275   8.115   3.252  0.5300  0.8570 -0.6290
  888MOL0     C19795   5.287   8.200   3.368  0.8134 -0.4952 -0.7729
  888MOL0     N19796   4.852   8.498   3.990 -0.7083 -1.1162  0.3163
  888MOL0     N19797   4.723   8.524   4.001 -0.6669  0.1476  0.8496
  888MOL0     C19798   3.417   8.460   3.811 -0.5695  0.3064  0.0449
  888MOL0     C19799   3.297   8.426   3.869  0.2918  0.9561  0.3367
  888MOL0     C19800   3.024   8.181   4.168  0.2006  0.3720  0.3991
  888MOL0     C19801   2.965   8.293   4.222  0.4564  0.0109  0.1443
  888MOL0     C19802   2.859   8.283   4.314  0.1242 -0.8347  0.2859
  888MOL0     C19803   2.818   8.157   4.358 -0.3693  0.2330 -0.1541
  888MOL0     O19804   2.729   8.131   4.454  0.3561 -0.0780 -0.6567
  888MOL0     C19805   2.690   8.237   4.544 -0.1545 -0.7927 -0.4135
  888MOL0     C19806   2.577   8.168   4.626 -1.1262  0.2889  0.1831
  888MOL0     C19807   2.516   8.254   4.738 -0.0212  1.0811 -0.2854
  888MOL0     C19808   2.368   8.235   4.770  0.4801  1.0077 -0.3733
  888MOL0     C19809   2.343   8.278   4.908 -0.1844 -0.3603  0.6080
  888MOL0     C19810   2.300   8.311   5.021 -0.1175  0.1388  0.5736
  888MOL0     C19811   2.866   8.047   4.294 -0.7044 -1.2523 -0.1776
  888MOL0     C19812   2.972   8.057   4.210 -0.9676  0.3541 -0.3407
  888MOL0     H19813   3.414   8.205   4.105 -0.3564  2.1304  1.5588
  888MOL0     H19814   3.617   8.254   3.998 -0.8035  0.1617  0.5039
  888MOL0     H19815   3.807   8.366   3.887  1.7872 -3.1756 -0.5401
  888MOL0     H19816   3.740   8.247   3.771 -2.8151 -0.1879  0.7588
  888MOL0     H19817   3.852   8.340   3.586 -2.4268 -1.0709  1.5272
  888MOL0     H19818   3.848   8.502   3.659  1.2439  1.0501 -2.7964
  888MOL0     H19819   4.029   8.288   3.785  0.5109  0.9657  0.0525
  888MOL0     H19820   4.075   8.344   3.631  2.3828 -2.0891  1.6486
  888MOL0     H19821   4.095   8.577   3.713  2.2004  1.6041  0.8607
  888MOL0     H19822   4.017   8.529   3.867  2.6916  0.3955  1.8115
  888MOL0     H19823   4.258   8.549   3.909 -1.9704  1.1687  0.3827
  888MOL0     H19824   4.218   8.381   3.921 -1.6799 -1.4076 -1.7325
  888MOL0     H19825   4.301   8.321   3.715  2.5006 -1.4292  0.0766
  888MOL0     H19826   4.317   8.487   3.653 -2.7162  0.7996 -0.2129
  888MOL0     H19827   4.488   8.344   3.870  0.5443 -0.5660 -0.6362
  888MOL0     H19828   4.541   8.386   3.704 -0.1698 -0.7897 -0.3540
  888MOL0     H19829   4.477   8.602   3.924  1.2453  2.5046  1.3385
  888MOL0     H19830   4.519   8.632   3.758 -2.4803 -0.2311  0.4653
  888MOL0     H19831   4.759   8.482   3.688 -1.3386 -2.6547  1.0884
  888MOL0     H19832   5.096   8.422   3.862 -0.5510 -0.9716  1.3245
  888MOL0     H19833   5.000   8.358   3.724 -2.1088  1.0889 -0.4669
  888MOL0     H19834   5.090   8.653   3.773 -0.8207 -0.8250  0.7541
  888MOL0     H19835   4.997   8.610   3.635  3.8647  0.5222 -4.4300
  888MOL0     H19836   5.271   8.492   3.716 -0.7061 -0.6336  0.5182
  888MOL0     H19837   5.242   8.629   3.607  0.8936 -0.4207  0.1515
  888MOL0     H19838   5.275   8.453   3.452 -0.5623 -1.5945 -0.2420
  888MOL0     H19839   5.104   8.460   3.449  0.9700  0.5646 -1.5687
  888MOL0     H19840   4.956   8.209   3.432  1.5515 -0.8975  0.9754
  888MOL0     H19841   4.826   8.045   3.309 -0.1304  0.8086 -0.0472
  888MOL0     H19842   4.864   8.091   3.146 -2.0874 -2.7116 -1.7750
  888MOL0     H19843   4.917   7.927   3.201  1.5446  0.8128 -0.7293
  888MOL0     H19844   5.372   7.688   2.995  0.0353  0.2149  0.1526
  888MOL0     H19845   5.355   7.555   2.781  2.4330  0.5499  1.4898
  888MOL0     H19846   5.420   7.481   2.491 -1.2813 -0.3358 -1.5940
  888MOL0     H19847   5.284   7.474   2.614 -1.1189 -1.2557 -1.2078
  888MOL0     H19848   5.218   7.382   2.386 -0.6470 -0.4053  1.7536
  888MOL0     H19849   5.130   7.519   2.441 -1.0251 -2.7891 -2.7131
  888MOL0     H19850   5.225   7.670   2.275  0.7964  0.0581  0.1155
  888MOL0     H19851   5.191   7.531   2.199  1.8255 -1.2715 -0.6452
  888MOL0     H19852   5.424   7.597   2.129  2.3199 -0.9351  0.1893
  888MOL0     H19853   5.471   7.598   2.298 -0.8289 -0.3059  1.2578
  888MOL0     H19854   5.457   7.345   2.300 -0.5368 -1.3076 -1.1324
  888MOL0     H19855   5.557   7.382   2.166  0.0138 -0.6034 -0.1118
  888MOL0     H19856   5.259   7.304   2.138 -0.3184  0.9222 -0.3377
  888MOL0     H19857   5.373   7.369   2.006  3.1855 -1.3521 -0.7377
  888MOL0     H19858   5.410   7.128   2.171  2.6860 -0.7821 -0.0814
  888MOL0     H19859   5.536   7.189   2.066  0.3620 -0.4789  1.6884
  888MOL0     H19860   5.435   7.042   1.921 -1.6385 -2.5443  0.8831
  888MOL0     H19861   5.340   7.187   1.885 -3.1287  1.6349  2.3189
  888MOL0     H19862   5.253   7.909   2.575  0.1809  1.8272  0.8296
  888MOL0     H19863   5.240   8.033   2.792  2.6562 -0.2007  1.3902
  888MOL0     H19864   5.370   8.085   3.208  2.1896  1.4441  2.3452
  888MOL0     H19865   5.379   8.241   3.409 -0.1208 -1.2450  2.3470
  888MOL0     H19866   3.420   8.522   3.722 -3.4615 -2.2788 -2.0799
  888MOL0     H19867   3.206   8.477   3.839 -0.8038 -0.9270  0.3138
  888MOL0     H19868   3.005   8.393   4.205  0.3328  0.2072  0.9665
  888MOL0     H19869   2.815   8.375   4.350 -1.3537 -0.6968 -1.7459
  888MOL0     H19870   2.765   8.270   4.616 -0.5104 -0.6297 -0.1128
  888MOL0     H19871   2.649   8.319   4.484  0.3678 -0.1741  0.0655
  888MOL0     H19872   2.620   8.078   4.671 -2.3097 -0.9704 -1.1015
  888MOL0     H19873   2.498   8.142   4.554 -0.3973 -0.3034 -0.4205
  888MOL0     H19874   2.525   8.357   4.700  0.4551  0.5503 -1.6617
  888MOL0     H19875   2.584   8.256   4.823  1.2442  2.4703 -1.2712
  888MOL0     H19876   2.336   8.132   4.750 -4.1654  1.5938  2.4508
  888MOL0     H19877   2.309   8.292   4.698  0.5572  0.3938 -0.9376
  888MOL0     H19878   2.252   8.338   5.113 -2.9703  1.3722 -1.1408
  888MOL0     H19879   2.845   7.948   4.335 -0.1763 -0.9425  0.8745
  888MOL0     H19880   3.025   7.969   4.175  2.1511  2.2421 -0.7642
  889MOL0     O19881   5.619   7.115   8.529 -0.0024 -0.3535 -0.9137
  889MOL0     C19882   5.688   7.045   8.595  0.1976  0.6417  0.0509
  889MOL0     O19883   5.641   6.961   8.687  0.0690  0.4511 -0.0295
  889MOL0     C19884   5.516   6.988   8.738 -0.1961  0.6541  0.0216
  889MOL0     C19885   5.399   6.936   8.689  0.3069 -0.6490  0.1620
  889MOL0     C19886   5.273   6.956   8.759  0.2097 -0.5201  0.2800
  889MOL0     C19887   5.270   7.031   8.880 -0.2690 -0.0977 -0.6407
  889MOL0     O19888   5.152   7.050   8.945  0.2223 -1.1300  0.2536
  889MOL0     C19889   5.055   6.947   8.944  0.4895  1.0004 -0.4100
  889MOL0     C19890   4.934   6.980   9.038  0.7409  0.3522 -0.3044
  889MOL0     C19891   4.849   7.088   8.981 -0.5116  0.3049 -0.2042
  889MOL0     C19892   4.710   7.095   9.049  0.5314  0.3303 -0.2658
  889MOL0     C19893   4.617   7.186   8.978  0.8170 -0.3697  0.5711
  889MOL0     C19894   4.481   7.201   9.050  0.5400  0.1735  0.6729
  889MOL0     C19895   4.378   7.259   8.950  0.1170  0.2857 -0.1151
  889MOL0     C19896   4.253   7.300   9.028  0.5139  0.3367  0.4835
  889MOL0     N19897   4.149   7.345   8.935  0.2180  0.8248  0.0175
  889MOL0     C19898   4.171   7.424   8.824 -0.1136  0.6118  0.3034
  889MOL0     C19899   4.048   7.476   8.794  0.9269 -0.8449  0.6291
  889MOL0     C19900   4.014   7.586   8.697 -0.6870 -0.1260  0.0997
  889MOL0     C19901   3.898   7.550   8.605 -0.3972  0.1827 -0.3869
  889MOL0     C19902   3.816   7.663   8.542  0.1231 -0.0714 -1.0880
  889MOL0     C19903   3.701   7.599   8.469 -0.7386 -0.3404  0.6859
  889MOL0     O19904   3.645   7.685   8.367 -0.3382  0.4467 -1.2436
  889MOL0     C19905   3.524   7.655   8.306 -0.1993  0.4766  0.5692
  889MOL0     C19906   3.436   7.758   8.275 -0.7423 -0.5272  0.3678
  889MOL0     C19907   3.321   7.739   8.191 -0.3470 -0.4521  0.4888
  889MOL0     C19908   3.235   7.854   8.168 -0.2651 -0.0606  0.2415
  889MOL0     C19909   3.297   7.608   8.145 -0.5041 -0.4940 -0.1498
  889MOL0     C19910   3.167   7.567   8.086  0.5943 -0.2975 -0.4241
  889MOL0     O19911   3.130   7.434   8.104 -0.0699  0.0577 -0.0532
  889MOL0     C19912   3.015   7.394   8.043  0.2435 -0.6391  0.6693
  889MOL0     C19913   2.889   7.440   8.080 -0.5120  1.1444  0.4342
  889MOL0     C19914   2.782   7.385   8.007 -0.0828 -0.1212 -0.1716
  889MOL0     C19915   2.797   7.289   7.913  0.0679 -0.2063 -0.1402
  889MOL0     O19916   2.681   7.253   7.846 -0.5465 -0.4474  0.2879
  889MOL0     C19917   2.688   7.136   7.751  0.2124  0.2911  0.3762
  889MOL0     C19918   2.550   7.135   7.678  0.5445 -0.3183  0.0230
  889MOL0     C19919   2.528   7.003   7.592 -0.3898  1.0495 -0.4377
  889MOL0     C19920   2.416   7.014   7.506 -0.3891  0.2221  0.5582
  889MOL0     C19921   2.390   6.888   7.422 -0.6832  0.4990 -0.3663
  889MOL0     C19922   2.350   6.765   7.496 -0.6236  0.3926  0.2504
  889MOL0     C19923   2.350   6.640   7.400  0.2353 -0.3442 -0.3802
  889MOL0     C19924   2.415   6.522   7.447  1.2567  0.5099 -0.0384
  889MOL0    Cl19925   2.587   6.542   7.429 -0.4937  0.3453 -0.3110
  889MOL0     C19926   2.928   7.247   7.882  0.2864  0.7256  0.6994
  889MOL0     C19927   3.036   7.297   7.953  0.1391 -1.1919 -0.9411
  889MOL0     O19928   3.095   7.650   8.031 -0.0185 -0.1723  0.0800
  889MOL0     C19929   3.390   7.508   8.172 -0.4545  0.5833 -0.6767
  889MOL0     C19930   3.499   7.533   8.255 -0.2412  0.0612  0.1853
  889MOL0     N19931   3.954   7.424   8.876 -0.7863 -0.9640  0.0157
  889MOL0     N19932   4.015   7.342   8.958 -0.0958 -0.0061  0.7510
  889MOL0     C19933   5.390   7.087   8.923 -0.2863  0.0630 -0.0691
  889MOL0     C19934   5.513   7.068   8.856 -0.2933  0.2493  0.0586
  889MOL0     C19935   5.828   7.019   8.548  0.1449  0.2027 -0.1070
  889MOL0     C19936   5.888   7.092   8.443  0.1996 -0.5050  0.4220
  889MOL0     C19937   6.028   7.082   8.417 -0.7924 -1.0192  0.1889
  889MOL0     C19938   6.101   6.974   8.485  0.4002 -0.2681 -1.1079
  889MOL0     O19939   6.233   6.968   8.455 -0.0728 -0.6257 -0.4775
  889MOL0     C19940   6.287   6.847   8.412  0.5400  1.1861  0.2519
  889MOL0     C19941   6.396   6.857   8.303 -0.1560 -0.1775  0.6308
  889MOL0     C19942   6.499   6.970   8.324 -0.9117  0.1957  0.1341
  889MOL0     C19943   6.635   6.941   8.265 -0.2021 -1.0310  0.4442
  889MOL0     C19944   6.745   7.030   8.308  1.0705 -0.3507 -1.1642
  889MOL0     C19945   6.837   7.098   8.342  0.9149  0.8785 -0.2444
  889MOL0     C19946   6.035   6.885   8.573  0.4382  0.3886  0.0956
  889MOL0     C19947   5.895   6.911   8.604 -0.8811 -0.1505 -0.1845
  889MOL0     H19948   5.401   6.880   8.596 -2.2527 -0.5624 -0.0369
  889MOL0     H19949   5.184   6.908   8.719  0.9267 -0.4367 -1.4885
  889MOL0     H19950   5.007   6.930   8.848  3.2275  0.9909 -1.8747
  889MOL0     H19951   5.094   6.851   8.977  1.1132  2.2135  2.7845
  889MOL0     H19952   4.872   6.890   9.033  1.2807  0.0386 -2.4348
  889MOL0     H19953   4.971   6.998   9.139  2.6859  0.9094 -1.0540
  889MOL0     H19954   4.890   7.188   8.994 -2.1259  0.9150  0.4357
  889MOL0     H19955   4.837   7.070   8.873 -1.6716  3.9692 -0.8090
  889MOL0     H19956   4.657   7.001   9.032 -2.8880  1.9835  0.3395
  889MOL0     H19957   4.727   7.115   9.155  1.5712  3.3555 -0.8949
  889MOL0     H19958   4.659   7.286   8.965  0.1707 -0.0451  0.9356
  889MOL0     H19959   4.591   7.147   8.879 -3.0050  4.6318 -0.7710
  889MOL0     H19960   4.451   7.108   9.098 -3.0209  0.3393 -0.9094
  889MOL0     H19961   4.505   7.283   9.118  0.4680  0.8200 -0.0647
  889MOL0     H19962   4.428   7.347   8.908  2.2314 -1.2569 -0.9997
  889MOL0     H19963   4.361   7.183   8.874 -0.2204  2.7058 -2.6250
  889MOL0     H19964   4.277   7.375   9.104  0.5582  0.9641 -0.1367
  889MOL0     H19965   4.214   7.214   9.081  0.0042  1.1676  1.4904
  889MOL0     H19966   4.267   7.460   8.788  0.6594  0.4363  2.0735
  889MOL0     H19967   3.979   7.675   8.749 -1.7923  0.8785 -2.2262
  889MOL0     H19968   4.101   7.612   8.636 -1.1434  1.4171  0.0650
  889MOL0     H19969   3.828   7.497   8.670 -1.8670  0.9393 -1.2969
  889MOL0     H19970   3.939   7.484   8.528  2.1311  1.0971  0.0922
  889MOL0     H19971   3.877   7.716   8.468  2.1716 -0.0413  0.5490
  889MOL0     H19972   3.781   7.735   8.617  1.9421 -0.4148  0.1348
  889MOL0     H19973   3.631   7.551   8.538 -0.3944 -1.6973  0.1278
  889MOL0     H19974   3.734   7.514   8.408  0.1629  1.3746 -1.3551
  889MOL0     H19975   3.452   7.850   8.330  0.7688 -0.1099 -0.7171
  889MOL0     H19976   3.131   7.838   8.197 -1.3732  3.0548 -1.4768
  889MOL0     H19977   3.279   7.939   8.223  0.7317 -0.5047  0.1648
  889MOL0     H19978   3.232   7.878   8.061  3.2798  1.0600  0.2489
  889MOL0     H19979   2.889   7.512   8.162  0.5839  1.8704 -0.1867
  889MOL0     H19980   2.681   7.420   8.027 -0.8338 -1.0627 -2.0403
  889MOL0     H19981   2.766   7.139   7.674 -1.2903  0.2421 -1.2131
  889MOL0     H19982   2.691   7.046   7.812 -0.3273  2.3060  3.6313
  889MOL0     H19983   2.459   7.150   7.736 -0.4961  1.8626 -2.0257
  889MOL0     H19984   2.543   7.224   7.616  0.0924  0.0509  0.5907
  889MOL0     H19985   2.499   6.930   7.668 -2.9664  2.3126 -0.0705
  889MOL0     H19986   2.617   6.973   7.536  0.0668  0.0152  0.7861
  889MOL0     H19987   2.323   7.037   7.559 -1.2220  1.2768 -1.2584
  889MOL0     H19988   2.442   7.095   7.438 -2.9559  1.3889  0.8302
  889MOL0     H19989   2.478   6.860   7.364 -2.2155 -2.0569 -1.6572
  889MOL0     H19990   2.316   6.909   7.344 -2.4699 -2.0565  0.5145
  889MOL0     H19991   2.423   6.756   7.578  0.9402  1.6717 -0.9335
  889MOL0     H19992   2.249   6.779   7.535 -0.3422 -0.0568  1.1867
  889MOL0     H19993   2.396   6.662   7.303  0.5589  1.4409  0.1475
  889MOL0     H19994   2.244   6.631   7.374  0.1218  0.9162 -0.4192
  889MOL0     H19995   2.386   6.436   7.385  1.1969 -2.1269  3.3573
  889MOL0     H19996   2.381   6.493   7.547  0.4835  1.7397  0.0682
  889MOL0     H19997   2.949   7.170   7.808 -0.1698  2.2001 -1.0402
  889MOL0     H19998   3.140   7.263   7.955  1.2103  1.7859  0.4121
  889MOL0     H19999   3.390   7.405   8.138 -0.0893  0.2169  0.4067
  889MOL0     H20000   3.570   7.451   8.258  1.4051  1.1929 -3.1150
  889MOL0     H20001   5.384   7.141   9.017  1.8313 -0.5227  0.4398
  889MOL0     H20002   5.608   7.108   8.890  1.4847 -3.3134 -0.2663
  889MOL0     H20003   5.842   7.170   8.384  0.7207 -1.6042 -1.5365
  889MOL0     H20004   6.079   7.150   8.349 -0.3013 -0.9275  0.6424
  889MOL0     H20005   6.337   6.794   8.494 -0.6494  0.1234  0.3075
  889MOL0     H20006   6.206   6.781   8.381 -0.3484  1.0739  2.5980
  889MOL0     H20007   6.341   6.878   8.211 -1.7679  2.6638  2.0851
  889MOL0     H20008   6.436   6.756   8.295 -3.5367 -1.5709 -0.1056
  889MOL0     H20009   6.517   6.977   8.432  1.7162 -2.1983 -0.0521
  889MOL0     H20010   6.454   7.063   8.286 -1.1853 -0.6854 -1.7931
  889MOL0     H20011   6.633   6.945   8.156  0.0018 -0.2955  0.4618
  889MOL0     H20012   6.658   6.839   8.297 -1.3484 -1.0448  1.3245
  889MOL0     H20013   6.899   7.181   8.371  1.0858  1.1403 -1.3191
  889MOL0     H20014   6.085   6.814   8.638 -1.7624 -0.5022  0.9256
  889MOL0     H20015   5.849   6.846   8.677 -1.9649 -0.2398 -0.9235
  890MOL0     O20016   4.914   0.829   9.387 -0.2094 -0.6063  0.4550
  890MOL0     C20017   4.879   0.927   9.318 -0.4375 -0.0312  0.3998
  890MOL0     O20018   4.744   0.967   9.297  0.8065 -0.5764 -0.4846
  890MOL0     C20019   4.639   0.917   9.373 -0.2475  0.1051 -0.5722
  890MOL0     C20020   4.538   1.013   9.383 -0.0594  0.3059 -0.4649
  890MOL0     C20021   4.426   0.983   9.460  0.2265  0.1988 -0.1468
  890MOL0     C20022   4.393   0.856   9.498  0.3921  0.0446 -1.2920
  890MOL0     O20023   4.277   0.821   9.562  0.8973  0.5108 -0.0540
  890MOL0     C20024   4.155   0.908   9.534  0.4205  0.1370 -0.6868
  890MOL0     C20025   4.112   0.939   9.389  0.5621  0.0864  0.4384
  890MOL0     C20026   4.027   1.067   9.376 -0.2896 -0.0438  0.9747
  890MOL0     C20027   3.910   1.043   9.472  0.7677 -0.0615  0.2945
  890MOL0     C20028   3.787   1.138   9.442 -0.1401  0.5649  0.3754
  890MOL0     C20029   3.688   1.085   9.337 -1.2692 -1.3263  0.4974
  890MOL0     C20030   3.602   0.955   9.386 -0.4873 -0.1846  0.0798
  890MOL0     C20031   3.494   0.943   9.287  0.5115  0.0537 -0.0497
  890MOL0     N20032   3.403   0.836   9.316 -0.1680  0.1559 -0.2086
  890MOL0     C20033   3.269   0.835   9.282 -0.2068  0.1322 -0.2687
  890MOL0     C20034   3.232   0.710   9.307 -0.7155 -0.0918  0.6342
  890MOL0     C20035   3.100   0.650   9.281  0.0526  1.1111  0.5950
  890MOL0     C20036   3.003   0.655   9.406  0.2808 -0.4911 -0.0827
  890MOL0     C20037   2.863   0.646   9.363  0.6887  0.1580 -0.0956
  890MOL0     C20038   2.763   0.642   9.486 -0.0029  0.1667  0.2283
  890MOL0     O20039   2.626   0.647   9.432  0.0123  0.4993 -0.1353
  890MOL0     C20040   2.519   0.586   9.500 -0.7410 -0.0798  0.4922
  890MOL0     C20041   2.395   0.615   9.455  1.0090 -0.5791  0.4878
  890MOL0     C20042   2.276   0.555   9.493 -0.5457 -0.4237  0.1022
  890MOL0     C20043   2.154   0.595   9.419  1.0762 -0.2834 -0.1487
  890MOL0     C20044   2.290   0.463   9.604  0.7325 -0.4942 -1.1243
  890MOL0     C20045   2.162   0.389   9.656  0.2001 -0.0378 -0.3167
  890MOL0     O20046   2.041   0.451   9.641  0.3341 -0.5759  0.3002
  890MOL0     C20047   1.923   0.406   9.706  0.5065 -0.3369 -0.0578
  890MOL0     C20048   1.892   0.273   9.721  0.4198  0.2862 -1.1641
  890MOL0     C20049   1.781   0.230   9.805  0.2655 -0.8096  0.3396
  890MOL0     C20050   1.697   0.321   9.863 -0.5278  0.0105 -0.0601
  890MOL0     O20051   1.583   0.296   9.929  1.2761 -0.1297 -1.7416
  890MOL0     C20052   1.493   0.210   9.858  0.3751 -0.0324  0.3179
  890MOL0     C20053   1.357   0.267   9.851 -0.8084 -0.5091 -0.1507
  890MOL0     C20054   1.291   0.303   9.977  0.1875 -0.2055 -0.0682
  890MOL0     C20055   1.147   0.349   9.964  0.9091  0.3741 -0.5394
  890MOL0     C20056   1.054   0.243   9.927  0.2289  0.6233  0.5346
  890MOL0     C20057   0.914   0.312   9.914 -0.1127  0.3853  1.0773
  890MOL0     C20058   0.806   0.200   9.879 -0.2850  0.6427 -0.2026
  890MOL0     C20059   0.728   0.145   9.990  1.0071 -0.0324  0.3045
  890MOL0    Cl20060   0.620   0.028   9.932  0.0889  0.3390 -0.1355
  890MOL0     C20061   1.730   0.463   9.845 -0.3380 -0.2150  1.3591
  890MOL0     C20062   1.839   0.497   9.763 -0.4475  0.1131 -0.2325
  890MOL0     O20063   2.185   0.275   9.691 -0.2378  0.6936 -1.1297
  890MOL0     C20064   2.409   0.439   9.669 -0.1149  0.4253 -0.6972
  890MOL0     C20065   2.526   0.496   9.611  0.1506  0.2344 -0.2320
  890MOL0     N20066   3.340   0.638   9.357 -0.0981  0.0648 -0.4147
  890MOL0     N20067   3.439   0.714   9.359  0.5880 -0.3497 -0.1437
  890MOL0     C20068   4.501   0.762   9.489  1.0516 -0.1428 -0.1943
  890MOL0     C20069   4.622   0.791   9.429  0.2636  0.2018 -1.2003
  890MOL0     C20070   4.984   1.013   9.275  0.2482 -0.3060 -0.1247
  890MOL0     C20071   5.121   0.974   9.263 -0.1804  0.2503  0.0664
  890MOL0     C20072   5.225   1.071   9.246 -1.2871  0.1016  0.0964
  890MOL0     C20073   5.193   1.207   9.244  0.5199  0.2539 -0.3886
  890MOL0     O20074   5.279   1.309   9.221  0.0921 -0.1409 -0.5678
  890MOL0     C20075   5.421   1.278   9.211  0.0208  0.7542  0.1326
  890MOL0     C20076   5.459   1.251   9.066  0.1048  0.0187 -1.3019
  890MOL0     C20077   5.435   1.378   8.978 -0.2139 -0.8472  1.3414
  890MOL0     C20078   5.561   1.447   8.924 -0.1195  0.0241  0.5488
  890MOL0     C20079   5.652   1.492   9.034  0.3656  1.2955 -1.3509
  890MOL0     C20080   5.718   1.528   9.132  0.0949 -1.1065  0.1564
  890MOL0     C20081   5.065   1.243   9.261  0.5994 -0.9736 -0.7629
  890MOL0     C20082   4.960   1.153   9.268  0.2598 -0.2188  0.4546
  890MOL0     H20083   4.540   1.112   9.337 -2.3297  0.2814 -0.7416
  890MOL0     H20084   4.355   1.064   9.473 -1.3493 -1.1701  0.0866
  890MOL0     H20085   4.072   0.854   9.580  1.5246 -1.7064 -0.7412
  890MOL0     H20086   4.171   1.004   9.584 -1.5109 -0.0634  0.4222
  890MOL0     H20087   4.192   0.957   9.317  0.1820 -1.2276 -0.3266
  890MOL0     H20088   4.052   0.854   9.356 -1.9000  1.1449  1.8816
  890MOL0     H20089   4.085   1.153   9.410  0.7629 -0.0071 -0.7965
  890MOL0     H20090   4.003   1.080   9.270 -0.3509 -2.7529  0.5949
  890MOL0     H20091   3.881   0.940   9.450  0.2843 -0.3455  2.1288
  890MOL0     H20092   3.943   1.054   9.575 -1.8246 -0.4729  1.2358
  890MOL0     H20093   3.732   1.142   9.536 -2.9706 -1.6651 -1.0254
  890MOL0     H20094   3.824   1.236   9.412 -0.2498  0.1782 -1.0846
  890MOL0     H20095   3.624   1.169   9.309  0.4634 -0.1075  0.0529
  890MOL0     H20096   3.744   1.059   9.246 -0.6228 -4.2938  1.6104
  890MOL0     H20097   3.653   0.859   9.398 -1.6990 -0.7926  0.5531
  890MOL0     H20098   3.554   0.984   9.480 -1.2612  2.3847 -1.0244
  890MOL0     H20099   3.528   0.929   9.184  0.9910 -1.5688  0.2972
  890MOL0     H20100   3.436   1.035   9.274 -1.1324 -0.9189  0.1084
  890MOL0     H20101   3.213   0.914   9.233 -2.2511 -0.8970  0.2933
  890MOL0     H20102   3.053   0.711   9.203 -3.2348 -0.4744  1.2020
  890MOL0     H20103   3.117   0.544   9.257 -0.3957  0.4026  3.0950
  890MOL0     H20104   3.026   0.747   9.461 -2.6098  0.4399 -0.2897
  890MOL0     H20105   3.030   0.575   9.476  0.0431 -0.2144  0.3257
  890MOL0     H20106   2.854   0.557   9.299 -1.9492  0.8743 -0.8371
  890MOL0     H20107   2.839   0.734   9.302  0.1807 -0.0941 -0.2702
  890MOL0     H20108   2.783   0.731   9.547  3.0081  0.4336 -0.9687
  890MOL0     H20109   2.791   0.561   9.554  1.1172  1.2604  1.1096
  890MOL0     H20110   2.393   0.675   9.364 -1.0008  2.6318  2.4454
  890MOL0     H20111   2.101   0.668   9.482 -0.3106 -0.9221 -0.5246
  890MOL0     H20112   2.174   0.656   9.331 -0.6349  1.0606  0.3248
  890MOL0     H20113   2.094   0.507   9.395 -0.2879  0.6467 -0.2759
  890MOL0     H20114   1.947   0.210   9.652 -2.6315 -0.7946 -2.7965
  890MOL0     H20115   1.764   0.124   9.816 -2.3429 -0.7767 -2.2663
  890MOL0     H20116   1.530   0.209   9.756  1.5395  2.5092  0.6486
  890MOL0     H20117   1.495   0.109   9.899 -0.9961  0.1083  0.7813
  890MOL0     H20118   1.352   0.356   9.788 -0.1374 -2.1289 -2.6232
  890MOL0     H20119   1.288   0.194   9.808  0.5567 -2.0630  0.1951
  890MOL0     H20120   1.349   0.383  10.022  0.2800 -1.6706  2.5974
  890MOL0     H20121   1.289   0.223  10.052 -2.2230  0.8663  1.1132
  890MOL0     H20122   1.109   0.377  10.063  0.0233  0.8072 -0.9940
  890MOL0     H20123   1.136   0.436   9.899 -0.5361  1.4116  1.0243
  890MOL0     H20124   1.058   0.173  10.011  0.3264  1.2047  1.0292
  890MOL0     H20125   1.082   0.187   9.838 -2.5973 -3.2266  1.8408
  890MOL0     H20126   0.881   0.366  10.003 -2.5319  0.9789 -0.1203
  890MOL0     H20127   0.925   0.386   9.835  1.3580 -0.0314  0.8602
  890MOL0     H20128   0.855   0.112   9.836 -0.0734  0.3566  0.5924
  890MOL0     H20129   0.743   0.248   9.804  1.9087 -0.0646 -2.6551
  890MOL0     H20130   0.672   0.230  10.030 -0.3339 -0.4104 -0.6987
  890MOL0     H20131   0.796   0.096  10.060  0.4684 -0.3308  0.6201
  890MOL0     H20132   1.667   0.544   9.878 -1.3937 -0.7334  0.6659
  890MOL0     H20133   1.880   0.598   9.753  1.9528 -0.5314  1.8988
  890MOL0     H20134   2.422   0.365   9.747  2.0012  0.1939 -1.2132
  890MOL0     H20135   2.618   0.458   9.654 -0.2922 -1.8486 -1.0306
  890MOL0     H20136   4.479   0.663   9.530 -0.3104 -0.1224 -0.8267
  890MOL0     H20137   4.703   0.720   9.436  0.9648  1.1048  4.2330
  890MOL0     H20138   5.152   0.871   9.245 -0.1718  0.6162 -2.3990
  890MOL0     H20139   5.324   1.044   9.210 -2.2043 -0.8140 -1.9306
  890MOL0     H20140   5.473   1.366   9.250 -0.1197  1.2726 -0.8277
  890MOL0     H20141   5.455   1.190   9.267 -3.0945 -0.4021  0.4194
  890MOL0     H20142   5.401   1.167   9.026 -1.5149  0.2608  0.4210
  890MOL0     H20143   5.566   1.228   9.060  0.3687  1.1657 -1.0587
  890MOL0     H20144   5.379   1.453   9.034  0.9038  2.8949 -2.0541
  890MOL0     H20145   5.375   1.346   8.892  0.7927 -0.8724  0.6335
  890MOL0     H20146   5.524   1.523   8.856 -0.3298  1.4670  2.1954
  890MOL0     H20147   5.610   1.368   8.866  0.5479 -0.8098  2.1725
  890MOL0     H20148   5.777   1.562   9.214 -0.3085  0.3513 -0.1196
  890MOL0     H20149   5.031   1.346   9.264  2.1600 -0.4456  1.2625
  890MOL0     H20150   4.859   1.192   9.263  0.4674  0.3992  0.9234
  891MOL0     O20151   8.906   2.081   7.725  0.5020 -0.0828  0.3685
  891MOL0     C20152   8.876   2.068   7.607 -1.2960 -0.3688  0.5306
  891MOL0     O20153   8.960   2.020   7.512 -0.6999 -0.4929 -0.5032
  891MOL0     C20154   9.076   1.967   7.567 -1.0805 -0.0444  0.3476
  891MOL0     C20155   9.186   2.046   7.611  0.1871 -0.1313 -0.5411
  891MOL0     C20156   9.296   1.983   7.670  0.1537  1.1186  0.5460
  891MOL0     C20157   9.292   1.841   7.689 -0.0766 -0.1662  0.1197
  891MOL0     O20158   9.381   1.774   7.764 -0.6800 -0.3141  0.0239
  891MOL0     C20159   9.506   1.833   7.812  0.1246  0.6799  0.1059
  891MOL0     C20160   9.609   1.854   7.716  0.6586 -0.4673  0.5088
  891MOL0     C20161   9.745   1.825   7.786 -0.5789 -0.6558 -0.3191
  891MOL0     C20162   9.798   1.685   7.743 -0.4316 -0.1938  0.2608
  891MOL0     C20163   9.946   1.666   7.791 -0.9681 -0.0317 -0.8770
  891MOL0     C20164  10.045   1.764   7.711 -0.3116 -0.1871  0.3704
  891MOL0     C20165  10.192   1.727   7.743 -0.0388  1.2229  0.6247
  891MOL0     C20166  10.231   1.761   7.881 -0.3873 -0.3441  0.5822
  891MOL0     N20167  10.215   1.672   7.994  0.1605  0.2228 -0.2720
  891MOL0     C20168  10.228   1.536   7.999  0.1071 -0.4059  0.4315
  891MOL0     C20169  10.178   1.498   8.118 -0.0568 -0.0306  0.9495
  891MOL0     C20170  10.170   1.354   8.169  1.2216 -0.1054  0.0447
  891MOL0     C20171  10.020   1.309   8.168 -0.4471  0.1436  0.6043
  891MOL0     C20172   9.961   1.302   8.023 -0.5596  0.0220  0.3716
  891MOL0     C20173   9.815   1.304   8.021 -0.6711  0.0650  0.1299
  891MOL0     O20174   9.763   1.304   7.891 -0.4572  0.2894  0.5758
  891MOL0     C20175   9.625   1.308   7.864  0.4535 -0.1307 -0.1020
  891MOL0     C20176   9.522   1.286   7.956 -0.4953 -0.9913 -0.0382
  891MOL0     C20177   9.385   1.271   7.920  0.2319  0.4950  0.0618
  891MOL0     C20178   9.296   1.240   8.037 -0.3552  0.1109  0.3634
  891MOL0     C20179   9.344   1.274   7.786 -0.3271  0.5453  0.7496
  891MOL0     C20180   9.199   1.258   7.739  0.6121 -0.2272 -0.8852
  891MOL0     O20181   9.103   1.224   7.833 -0.3985  0.0467 -0.6389
  891MOL0     C20182   8.996   1.152   7.801  0.6430 -0.9240  0.6841
  891MOL0     C20183   8.883   1.176   7.877  1.3438 -0.3119 -0.1055
  891MOL0     C20184   8.761   1.111   7.851 -0.1683 -0.2491  0.4659
  891MOL0     C20185   8.748   1.033   7.735 -0.3307 -0.3700  0.6417
  891MOL0     O20186   8.641   0.970   7.684 -0.0808 -0.5490  0.1764
  891MOL0     C20187   8.541   0.931   7.775 -1.7668 -0.4390  0.5908
  891MOL0     C20188   8.426   0.893   7.690  0.8442  0.3921  0.0995
  891MOL0     C20189   8.300   0.843   7.771  0.1761  0.0765 -0.0204
  891MOL0     C20190   8.209   0.956   7.832 -0.7001 -1.2783  0.1097
  891MOL0     C20191   8.080   0.883   7.900  0.5645  0.1415 -0.3531
  891MOL0     C20192   7.995   0.970   7.991 -0.2391  0.3662 -0.1306
  891MOL0     C20193   7.941   1.097   7.920 -0.0271 -0.1639  0.0019
  891MOL0     C20194   7.820   1.163   7.986  0.3859 -0.6833 -0.3179
  891MOL0    Cl20195   7.760   1.309   7.891 -0.1371  0.1735  0.1810
  891MOL0     C20196   8.855   1.013   7.650 -0.6101 -1.1722 -1.8377
  891MOL0     C20197   8.984   1.062   7.686  0.3474  0.6880 -0.1285
  891MOL0     O20198   9.180   1.273   7.619 -0.0275 -0.5302  0.5690
  891MOL0     C20199   9.448   1.285   7.686  0.1282  0.1293 -0.0270
  891MOL0     C20200   9.580   1.300   7.730 -0.7969 -0.4088  0.6934
  891MOL0     N20201  10.124   1.607   8.182  0.6834  0.0766 -0.7822
  891MOL0     N20202  10.156   1.720   8.115 -0.1874  1.3174  0.3607
  891MOL0     C20203   9.183   1.771   7.643  0.0522  0.5867  0.2081
  891MOL0     C20204   9.075   1.837   7.589 -0.6848  0.2280 -0.4868
  891MOL0     C20205   8.748   2.127   7.565  0.3733  0.2598 -0.9388
  891MOL0     C20206   8.683   2.208   7.659  0.2502 -0.6960  0.5026
  891MOL0     C20207   8.564   2.269   7.631 -1.0528  0.2589 -0.7914
  891MOL0     C20208   8.500   2.243   7.517 -0.2931 -0.3016  0.3331
  891MOL0     O20209   8.376   2.302   7.496 -0.7734  0.0684  0.4394
  891MOL0     C20210   8.289   2.240   7.397 -0.4750 -0.0798 -0.4750
  891MOL0     C20211   8.278   2.344   7.274 -0.0487  0.0489  0.8148
  891MOL0     C20212   8.212   2.260   7.166  0.7391 -0.4725  0.3308
  891MOL0     C20213   8.179   2.336   7.035  0.0238  0.1575 -0.3951
  891MOL0     C20214   8.071   2.437   7.062  0.2046  0.0430  0.5268
  891MOL0     C20215   7.979   2.519   7.076  0.0900  0.3315 -0.1615
  891MOL0     C20216   8.566   2.162   7.423 -0.2740 -0.7449 -0.4069
  891MOL0     C20217   8.692   2.107   7.441 -0.1710 -0.3111  0.2560
  891MOL0     H20218   9.194   2.154   7.608  4.5841 -0.2587 -3.1113
  891MOL0     H20219   9.377   2.038   7.716  1.7922  0.3224 -1.2209
  891MOL0     H20220   9.497   1.922   7.874 -1.4096  0.1618  0.6850
  891MOL0     H20221   9.541   1.754   7.878 -3.3544 -1.1382  0.0372
  891MOL0     H20222   9.605   1.785   7.632  1.5691  0.5138 -0.3687
  891MOL0     H20223   9.601   1.953   7.671  1.0020 -0.5562  0.2522
  891MOL0     H20224   9.822   1.892   7.747  0.2839 -0.7309  1.1910
  891MOL0     H20225   9.751   1.828   7.895 -2.1010  0.6450 -0.2180
  891MOL0     H20226   9.731   1.609   7.785 -0.8763 -1.2641 -2.2131
  891MOL0     H20227   9.793   1.669   7.635  1.9886  1.5060 -0.1845
  891MOL0     H20228   9.948   1.687   7.898  0.5270  0.6098 -1.0023
  891MOL0     H20229   9.983   1.565   7.775  0.7747  0.4841 -0.3614
  891MOL0     H20230  10.027   1.753   7.604  0.3794  0.2770  0.2024
  891MOL0     H20231  10.018   1.867   7.737  0.1059  0.0978 -0.3125
  891MOL0     H20232  10.212   1.622   7.719  0.5804  1.9455 -2.4912
  891MOL0     H20233  10.241   1.781   7.662 -1.2955  1.0627 -0.2698
  891MOL0     H20234  10.178   1.853   7.905  1.6548  0.6842  1.4046
  891MOL0     H20235  10.337   1.787   7.888 -0.6802  0.6593  1.5902
  891MOL0     H20236  10.258   1.465   7.923  1.2514 -0.5853  1.0263
  891MOL0     H20237  10.234   1.292   8.105 -2.4609 -0.2758 -3.8816
  891MOL0     H20238  10.216   1.366   8.267  0.5780 -0.7173  0.4272
  891MOL0     H20239   9.957   1.367   8.236 -0.2220  2.8043 -1.2860
  891MOL0     H20240  10.021   1.208   8.210  2.2929 -0.9363 -1.6612
  891MOL0     H20241   9.988   1.210   7.971  0.6071 -1.1074  2.8299
  891MOL0     H20242  10.000   1.387   7.965 -2.5679  0.5186 -0.3320
  891MOL0     H20243   9.780   1.389   8.080 -3.8788  0.4240 -2.0527
  891MOL0     H20244   9.787   1.212   8.073 -0.9665  0.9377  1.5780
  891MOL0     H20245   9.544   1.285   8.062 -2.9739 -0.9409  0.5479
  891MOL0     H20246   9.261   1.138   8.018 -0.2539  0.1627 -0.1078
  891MOL0     H20247   9.347   1.244   8.134  1.9027 -0.7101 -0.7167
  891MOL0     H20248   9.218   1.315   8.048  0.5109  1.1548 -0.4488
  891MOL0     H20249   8.891   1.235   7.968  0.9539  0.3266 -0.4839
  891MOL0     H20250   8.679   1.136   7.917  0.4908  1.9536  0.5402
  891MOL0     H20251   8.574   0.854   7.845 -0.0595  0.6813  1.0886
  891MOL0     H20252   8.517   1.026   7.824 -0.1695  2.4137 -3.5949
  891MOL0     H20253   8.396   0.976   7.624 -0.6002 -0.3359 -0.2085
  891MOL0     H20254   8.462   0.809   7.630  0.6209  0.9357 -0.8101
  891MOL0     H20255   8.326   0.775   7.853 -0.4987 -2.0066 -1.4405
  891MOL0     H20256   8.241   0.775   7.709  0.0155  0.6110 -0.4559
  891MOL0     H20257   8.258   1.018   7.907 -1.7828 -0.0073 -0.2029
  891MOL0     H20258   8.192   1.027   7.751  1.3136 -2.4979 -1.5068
  891MOL0     H20259   8.114   0.801   7.964 -0.9884  0.4279  0.8839
  891MOL0     H20260   8.018   0.842   7.819  1.4912 -1.0048 -0.5007
  891MOL0     H20261   7.901   0.922   8.018 -0.2905  0.3388 -0.3529
  891MOL0     H20262   8.061   0.981   8.077  1.5803 -1.6886 -1.1780
  891MOL0     H20263   7.906   1.068   7.820 -0.8094 -1.5878  0.6638
  891MOL0     H20264   8.024   1.168   7.913  1.1373 -1.4721 -0.1624
  891MOL0     H20265   7.850   1.192   8.088  0.3828  0.1230 -0.5373
  891MOL0     H20266   7.733   1.098   8.000  0.6215 -0.9431 -0.0450
  891MOL0     H20267   8.838   0.957   7.558 -1.5956 -2.9490 -0.6255
  891MOL0     H20268   9.064   1.034   7.618  0.8450 -2.9443  1.6707
  891MOL0     H20269   9.426   1.289   7.580 -1.3373 -0.7601  0.2186
  891MOL0     H20270   9.650   1.297   7.647  0.8300  1.0548  1.9626
  891MOL0     H20271   9.179   1.664   7.662  1.4180  0.2519 -1.1967
  891MOL0     H20272   9.001   1.768   7.550 -0.7806  0.4330 -0.6730
  891MOL0     H20273   8.740   2.241   7.746 -0.1938 -1.4310  1.0902
  891MOL0     H20274   8.526   2.339   7.705  1.3661  1.9017 -1.0042
  891MOL0     H20275   8.327   2.139   7.378  0.1945  0.1634 -0.4548
  891MOL0     H20276   8.191   2.228   7.444  0.8284 -1.5677  2.0761
  891MOL0     H20277   8.380   2.376   7.251  0.2250 -1.0800  0.4051
  891MOL0     H20278   8.216   2.431   7.299 -2.7888 -1.1797 -1.1655
  891MOL0     H20279   8.136   2.192   7.207  2.4562 -4.1345 -1.9987
  891MOL0     H20280   8.289   2.185   7.142  2.2554  1.5262 -1.3996
  891MOL0     H20281   8.150   2.259   6.963  3.6846  0.7565 -2.8017
  891MOL0     H20282   8.266   2.394   7.001  0.4334  1.0256  1.9183
  891MOL0     H20283   7.902   2.583   7.113 -0.3331  1.4151 -2.7531
  891MOL0     H20284   8.516   2.141   7.328 -0.6075  1.6773 -0.8389
  891MOL0     H20285   8.740   2.047   7.364 -0.5703  0.0160 -0.2498
  892MOL0     O20286   3.167   2.507   3.571 -0.3910 -0.0078 -0.3079
  892MOL0     C20287   3.199   2.580   3.667 -0.2723  0.5342 -0.6838
  892MOL0     O20288   3.109   2.615   3.767  0.8325  0.1625 -0.5403
  892MOL0     C20289   2.985   2.553   3.786  0.4774 -0.9385  0.3156
  892MOL0     C20290   2.964   2.418   3.773 -0.6297  0.4163  0.4745
  892MOL0     C20291   2.841   2.362   3.802 -0.6357 -0.4639 -0.0982
  892MOL0     C20292   2.727   2.446   3.849 -0.1066  0.0972 -0.5075
  892MOL0     O20293   2.598   2.393   3.873  0.4169  0.3415  0.0831
  892MOL0     C20294   2.574   2.246   3.887  0.6401 -0.1162  0.4808
  892MOL0     C20295   2.422   2.218   3.924  0.3204 -0.5513  0.6659
  892MOL0     C20296   2.389   2.312   4.048  0.0556 -0.2223 -0.0076
  892MOL0     C20297   2.272   2.254   4.136 -0.9697 -0.6589 -0.4118
  892MOL0     C20298   2.268   2.324   4.270  0.3602 -0.1757 -0.6308
  892MOL0     C20299   2.170   2.262   4.366  0.0885  0.3306 -0.3228
  892MOL0     C20300   2.169   2.342   4.503  0.6839  0.4033  0.7598
  892MOL0     C20301   2.098   2.262   4.606 -0.0853  0.4170  0.0171
  892MOL0     N20302   2.070   2.337   4.731 -0.8022 -0.1924  0.3547
  892MOL0     C20303   2.165   2.360   4.828 -1.1787 -0.3324  0.2473
  892MOL0     C20304   2.101   2.418   4.926 -0.6150 -0.2320 -0.1522
  892MOL0     C20305   2.163   2.448   5.062 -0.8883  0.1000  0.4427
  892MOL0     C20306   2.165   2.325   5.149  0.5843  0.1103 -0.2068
  892MOL0     C20307   2.025   2.282   5.202  0.3507 -0.0150  0.7813
  892MOL0     C20308   1.953   2.190   5.106 -0.0175  0.0990  0.0652
  892MOL0     O20309   1.844   2.137   5.184 -0.2089  0.0917  0.0605
  892MOL0     C20310   1.760   2.049   5.119 -0.5372 -0.1160  0.3442
  892MOL0     C20311   1.755   2.029   4.978 -0.4054  0.0378 -0.6017
  892MOL0     C20312   1.644   1.963   4.920 -1.3920 -0.4740  0.5984
  892MOL0     C20313   1.650   1.936   4.771  0.2718 -0.3887  0.0768
  892MOL0     C20314   1.538   1.912   5.005  0.1501 -0.9736  0.0746
  892MOL0     C20315   1.415   1.861   4.951 -0.5801  0.1317  0.5687
  892MOL0     O20316   1.361   1.917   4.831 -0.6821  0.4159  0.2428
  892MOL0     C20317   1.268   1.835   4.774  0.4047 -0.2499 -0.4771
  892MOL0     C20318   1.303   1.726   4.687  0.3675  0.0853  0.2539
  892MOL0     C20319   1.208   1.644   4.627 -0.2887  0.0100 -0.6933
  892MOL0     C20320   1.068   1.670   4.648 -0.6759 -0.3971 -0.7829
  892MOL0     O20321   0.968   1.605   4.587  0.8404  0.8289 -0.8733
  892MOL0     C20322   0.994   1.471   4.528 -0.5692  0.1251  0.1967
  892MOL0     C20323   0.866   1.411   4.455  1.0457  0.1681 -0.4399
  892MOL0     C20324   0.760   1.377   4.556  0.8668 -0.4149 -0.0990
  892MOL0     C20325   0.642   1.315   4.478  0.7430  0.9864  0.5222
  892MOL0     C20326   0.517   1.287   4.569  0.0466  0.1883  0.1508
  892MOL0     C20327   0.387   1.282   4.489  0.1275 -0.6952  1.1671
  892MOL0     C20328   0.274   1.219   4.573  0.0257  0.0054 -1.1947
  892MOL0     C20329   0.132   1.237   4.517  0.4054  0.5473 -0.5083
  892MOL0    Cl20330   0.006   1.209   4.646  0.1606  0.0421  0.1352
  892MOL0     C20331   1.038   1.763   4.752 -0.4269 -0.3115  0.4365
  892MOL0     C20332   1.135   1.852   4.806 -0.6428  0.6419 -0.6392
  892MOL0     O20333   1.359   1.776   5.025  0.6281 -0.1845 -0.2119
  892MOL0     C20334   1.560   1.912   5.142 -0.1974  0.2077  0.0101
  892MOL0     C20335   1.668   1.984   5.197 -0.3712  0.6058  0.1129
  892MOL0     N20336   1.978   2.445   4.891 -0.6007 -1.1360 -0.0611
  892MOL0     N20337   1.951   2.389   4.777 -0.1939 -0.1061 -0.0791
  892MOL0     C20338   2.744   2.588   3.855  0.3669 -0.1655  0.4029
  892MOL0     C20339   2.875   2.635   3.811 -0.6656  0.7864 -0.2664
  892MOL0     C20340   3.334   2.628   3.668  0.4672  0.4767  0.5699
  892MOL0     C20341   3.412   2.629   3.552 -0.1935  0.1819  0.6943
  892MOL0     C20342   3.545   2.679   3.554  0.0790 -0.1781 -0.4560
  892MOL0     C20343   3.600   2.727   3.681  0.5352  0.3497 -0.2866
  892MOL0     O20344   3.713   2.794   3.703 -0.3027 -0.0395 -0.2969
  892MOL0     C20345   3.770   2.869   3.594  0.6742 -0.5218 -0.1584
  892MOL0     C20346   3.848   3.000   3.636 -0.8443  0.4818 -1.0569
  892MOL0     C20347   3.967   3.052   3.549  0.8792 -1.2905 -0.5606
  892MOL0     C20348   3.995   3.196   3.592 -0.4966 -0.1761  0.2354
  892MOL0     C20349   4.041   3.205   3.729 -0.2728 -0.3247  0.3089
  892MOL0     C20350   4.079   3.204   3.846  1.0224  0.0211 -0.8560
  892MOL0     C20351   3.518   2.706   3.792 -0.0437  0.3790 -1.2009
  892MOL0     C20352   3.388   2.667   3.791 -0.7743  0.2807 -0.3866
  892MOL0     H20353   3.053   2.358   3.758 -0.1052  1.4875 -0.9539
  892MOL0     H20354   2.833   2.254   3.796 -1.1075 -0.5548  1.5447
  892MOL0     H20355   2.601   2.204   3.789  1.4332 -2.9845  1.7983
  892MOL0     H20356   2.629   2.191   3.964 -2.0984  0.7545  3.2369
  892MOL0     H20357   2.351   2.241   3.844  1.4992  3.0635  0.4942
  892MOL0     H20358   2.407   2.113   3.951  1.5999 -1.1775 -0.9081
  892MOL0     H20359   2.480   2.321   4.108  0.2331 -0.9747 -0.1529
  892MOL0     H20360   2.357   2.413   4.023  1.7327  0.4525  0.4460
  892MOL0     H20361   2.185   2.277   4.073 -0.9989  1.7879  0.4087
  892MOL0     H20362   2.288   2.147   4.147 -1.9028 -0.7987 -0.3233
  892MOL0     H20363   2.368   2.324   4.315 -0.2193 -0.3722  0.7069
  892MOL0     H20364   2.250   2.431   4.254 -0.0225 -0.4187 -1.8637
  892MOL0     H20365   2.070   2.249   4.325 -0.0219  1.6440 -0.5250
  892MOL0     H20366   2.219   2.165   4.376  0.4716  0.4183 -1.2623
  892MOL0     H20367   2.271   2.361   4.537  0.9290  0.5812 -0.0439
  892MOL0     H20368   2.119   2.440   4.502 -1.9658 -0.8437  0.6685
  892MOL0     H20369   2.160   2.175   4.631  2.3684  1.9681 -0.2752
  892MOL0     H20370   2.003   2.224   4.569  0.7525 -0.8778 -0.9079
  892MOL0     H20371   2.266   2.319   4.826 -1.0952 -0.1566  0.7059
  892MOL0     H20372   2.264   2.489   5.051 -1.1839  0.3211 -1.7838
  892MOL0     H20373   2.112   2.526   5.121  2.5611 -0.7801  5.1567
  892MOL0     H20374   2.237   2.337   5.231 -0.2724  0.7527  0.4687
  892MOL0     H20375   2.203   2.241   5.089  0.4291 -1.0673  1.2749
  892MOL0     H20376   1.955   2.363   5.224 -1.9209 -1.1831 -1.4819
  892MOL0     H20377   2.055   2.235   5.296  2.1430  1.0865  0.8070
  892MOL0     H20378   2.012   2.113   5.056 -0.6049 -1.4281  1.6406
  892MOL0     H20379   1.917   2.262   5.031 -0.8382  1.5920  1.8163
  892MOL0     H20380   1.834   2.058   4.909 -0.4674 -1.2672 -1.2675
  892MOL0     H20381   1.630   1.829   4.754 -1.0788  0.0124 -1.0427
  892MOL0     H20382   1.580   1.998   4.715  1.4184  0.5411 -0.3556
  892MOL0     H20383   1.750   1.962   4.737  1.2599 -0.2014  2.8464
  892MOL0     H20384   1.405   1.693   4.669  0.5740  0.5819  0.4914
  892MOL0     H20385   1.233   1.563   4.560 -2.6359 -1.1320 -0.2810
  892MOL0     H20386   1.073   1.493   4.455  1.4110 -0.6156  2.0443
  892MOL0     H20387   1.040   1.397   4.594  1.1733 -0.7442 -1.8445
  892MOL0     H20388   0.833   1.483   4.379  0.8539 -1.2740 -1.7787
  892MOL0     H20389   0.892   1.315   4.409 -0.8831 -0.4815 -0.2619
  892MOL0     H20390   0.728   1.459   4.621  1.6451 -0.5680  0.4947
  892MOL0     H20391   0.808   1.313   4.630  0.5685  1.2182  1.5827
  892MOL0     H20392   0.611   1.393   4.408 -3.1187  1.6107  2.6333
  892MOL0     H20393   0.678   1.226   4.426 -1.9802  0.3462 -0.4413
  892MOL0     H20394   0.514   1.370   4.641  0.5186  0.3543 -0.0177
  892MOL0     H20395   0.537   1.196   4.627 -0.9030  0.6746  1.2958
  892MOL0     H20396   0.360   1.384   4.459  0.6135 -0.7176  0.6445
  892MOL0     H20397   0.414   1.223   4.401  1.0743 -0.9859  1.6462
  892MOL0     H20398   0.270   1.270   4.670  0.9686  1.1983 -1.7643
  892MOL0     H20399   0.305   1.116   4.596  1.6047  0.4568 -1.1719
  892MOL0     H20400   0.122   1.158   4.442  1.3304 -2.7812  2.5469
  892MOL0     H20401   0.127   1.331   4.462 -0.2571  1.2335  0.6695
  892MOL0     H20402   0.933   1.773   4.779 -0.6733 -0.2525 -0.5089
  892MOL0     H20403   1.108   1.920   4.885  1.1457  2.6850 -1.6873
  892MOL0     H20404   1.488   1.866   5.209  0.2673 -0.9379 -0.2483
  892MOL0     H20405   1.686   1.989   5.304  0.0461  1.6869  0.0056
  892MOL0     H20406   2.659   2.653   3.876  0.8307  1.0579 -1.3070
  892MOL0     H20407   2.892   2.742   3.816 -1.3234  0.8410  1.5699
  892MOL0     H20408   3.381   2.597   3.453 -0.9724  2.8447  0.0090
  892MOL0     H20409   3.611   2.682   3.468 -0.2568  0.3749 -0.7000
  892MOL0     H20410   3.851   2.810   3.550  0.8033 -1.5244  1.3542
  892MOL0     H20411   3.696   2.900   3.520  1.9069  0.7985 -0.8822
  892MOL0     H20412   3.893   2.973   3.732 -1.9029 -0.0121 -0.6882
  892MOL0     H20413   3.770   3.076   3.653 -2.9730 -1.4933 -1.5277
  892MOL0     H20414   3.941   3.057   3.442  1.5777 -0.1339 -0.6834
  892MOL0     H20415   4.053   2.985   3.558 -0.3330 -2.5505  4.1206
  892MOL0     H20416   3.908   3.261   3.578 -0.9950 -0.2803  2.5363
  892MOL0     H20417   4.080   3.224   3.529 -0.4919 -2.2500 -0.7739
  892MOL0     H20418   4.096   3.223   3.950  1.3628 -1.2396 -0.6603
  892MOL0     H20419   3.557   2.729   3.891  0.0368 -0.4036 -1.0497
  892MOL0     H20420   3.323   2.666   3.877 -1.6295  2.1397 -0.9427
  893MOL0     O20421   5.265   5.093   9.689 -0.7158 -0.3380 -0.2632
  893MOL0     C20422   5.331   5.075   9.587  0.2688 -0.2837  0.4610
  893MOL0     O20423   5.304   4.974   9.490  0.2104  0.1370 -0.1206
  893MOL0     C20424   5.183   4.903   9.497  0.0825 -1.1645  0.4211
  893MOL0     C20425   5.177   4.764   9.522 -0.7416 -1.1415  0.1254
  893MOL0     C20426   5.065   4.684   9.513  0.0503  0.5766 -0.2128
  893MOL0     C20427   4.941   4.743   9.475  0.9892 -0.0306  0.7821
  893MOL0     O20428   4.824   4.681   9.445 -0.5150 -0.0515 -0.0613
  893MOL0     C20429   4.816   4.543   9.466  0.2554  0.1567 -0.1464
  893MOL0     C20430   4.666   4.524   9.452 -0.0586  0.3087 -0.6118
  893MOL0     C20431   4.634   4.378   9.464  1.7032  0.6108  0.2219
  893MOL0     C20432   4.493   4.352   9.429  0.1440  0.8663 -0.0663
  893MOL0     C20433   4.476   4.199   9.436 -0.1432  0.6210  0.1046
  893MOL0     C20434   4.322   4.166   9.409  0.2958 -0.6331  0.6785
  893MOL0     C20435   4.282   4.018   9.423 -0.5115  0.0616 -0.3277
  893MOL0     C20436   4.144   3.991   9.366 -0.8551 -0.6045  0.1183
  893MOL0     N20437   4.127   3.849   9.358  0.3974  0.5271  0.4284
  893MOL0     C20438   4.000   3.785   9.358 -0.7606  0.2432 -0.0689
  893MOL0     C20439   4.026   3.659   9.337  0.2937 -0.4707  0.2268
  893MOL0     C20440   3.919   3.551   9.337  0.2584 -0.3899 -0.4283
  893MOL0     C20441   3.929   3.451   9.223 -0.6888 -0.5257 -0.2957
  893MOL0     C20442   4.044   3.357   9.249 -0.3085  0.7544  0.1351
  893MOL0     C20443   4.039   3.220   9.167 -0.2513 -0.8398 -0.2106
  893MOL0     O20444   3.935   3.138   9.235  0.2080 -0.3981 -0.2777
  893MOL0     C20445   3.926   3.009   9.218  0.5833 -0.0459  0.5830
  893MOL0     C20446   4.019   2.931   9.138  0.6692  0.2976 -0.5652
  893MOL0     C20447   3.999   2.795   9.107  0.2843 -0.3723  0.1357
  893MOL0     C20448   4.098   2.719   9.016  0.1310  0.6814  0.2264
  893MOL0     C20449   3.893   2.729   9.171  1.1527 -0.6699 -1.0735
  893MOL0     C20450   3.860   2.583   9.152  0.9896  0.4042 -0.1040
  893MOL0     O20451   3.771   2.524   9.237  0.4548 -0.0950 -0.4846
  893MOL0     C20452   3.727   2.391   9.228 -1.1483 -0.5087 -0.3433
  893MOL0     C20453   3.749   2.317   9.347  0.4099  0.2627  0.2221
  893MOL0     C20454   3.702   2.191   9.351 -0.4804  0.3894 -0.6004
  893MOL0     C20455   3.656   2.122   9.238  0.3980 -0.1566  0.5170
  893MOL0     O20456   3.627   1.991   9.255 -0.8005  0.7295 -0.6898
  893MOL0     C20457   3.713   1.908   9.340  0.2758 -0.2341  0.2331
  893MOL0     C20458   3.688   1.758   9.298  0.2483 -0.6577 -0.7299
  893MOL0     C20459   3.766   1.641   9.355 -0.0531  0.4535 -0.7806
  893MOL0     C20460   3.763   1.644   9.514  0.4582  0.3305 -0.4913
  893MOL0     C20461   3.826   1.522   9.583 -0.6078 -0.4913  0.6230
  893MOL0     C20462   3.980   1.503   9.560  0.1884  0.3288 -0.5842
  893MOL0     C20463   4.036   1.392   9.660  0.3256  1.2946 -0.6510
  893MOL0     C20464   4.190   1.391   9.652 -0.1350 -0.1672 -0.1805
  893MOL0    Cl20465   4.266   1.235   9.691  0.0920  0.3360 -0.3673
  893MOL0     C20466   3.637   2.195   9.117  0.4664 -0.1171  0.1360
  893MOL0     C20467   3.663   2.332   9.112 -0.5429 -0.0331 -0.1721
  893MOL0     O20468   3.913   2.526   9.055  0.8224  0.5345 -0.7580
  893MOL0     C20469   3.806   2.806   9.262  0.0601  1.0745  0.5161
  893MOL0     C20470   3.822   2.941   9.276 -0.2048  0.6326  0.1388
  893MOL0     N20471   4.161   3.641   9.330 -0.7833 -0.1223  0.2250
  893MOL0     N20472   4.226   3.754   9.338  0.1666 -0.6545 -0.7284
  893MOL0     C20473   4.934   4.885   9.457 -0.3075  0.4361 -0.2579
  893MOL0     C20474   5.060   4.957   9.466  0.3799 -0.3197  0.9520
  893MOL0     C20475   5.456   5.154   9.577 -0.1459 -0.6019 -0.2812
  893MOL0     C20476   5.489   5.267   9.652  0.0045 -0.6928  0.2665
  893MOL0     C20477   5.602   5.341   9.636 -0.1040  0.4420 -0.4903
  893MOL0     C20478   5.710   5.289   9.557 -0.4522 -0.2918 -0.8706
  893MOL0     O20479   5.841   5.331   9.561 -0.1636 -0.1637  0.8078
  893MOL0     C20480   5.898   5.418   9.657  0.1325  0.0744  0.0451
  893MOL0     C20481   5.895   5.561   9.620 -0.7060  1.3167  0.3772
  893MOL0     C20482   5.968   5.574   9.485 -0.0049  0.5393 -0.2961
  893MOL0     C20483   5.975   5.725   9.459 -0.0654 -0.3585  0.2402
  893MOL0     C20484   6.035   5.759   9.328  0.3419  0.2468 -0.7516
  893MOL0     C20485   6.088   5.778   9.220 -0.5829  0.0320  0.2561
  893MOL0     C20486   5.676   5.184   9.475  0.3616 -0.6734  0.0602
  893MOL0     C20487   5.556   5.114   9.482 -0.0439 -0.1467  0.6682
  893MOL0     H20488   5.271   4.711   9.530 -0.1550 -0.6098 -2.3706
  893MOL0     H20489   5.067   4.580   9.545 -4.3936 -1.4073 -4.9520
  893MOL0     H20490   4.871   4.494   9.384 -0.1974 -1.2622  0.3704
  893MOL0     H20491   4.857   4.507   9.560  0.4853 -1.4173 -0.8103
  893MOL0     H20492   4.637   4.570   9.547  1.0983  0.0098 -0.0853
  893MOL0     H20493   4.620   4.576   9.368 -0.6622 -1.9692 -1.7833
  893MOL0     H20494   4.690   4.322   9.389  0.8726  1.9313 -1.4382
  893MOL0     H20495   4.648   4.336   9.565  2.1659 -1.6751 -0.7210
  893MOL0     H20496   4.426   4.399   9.503 -0.4691 -2.1788  1.4712
  893MOL0     H20497   4.460   4.400   9.337  0.0352  0.9800  0.0310
  893MOL0     H20498   4.541   4.154   9.360  2.5951  3.2829  0.6859
  893MOL0     H20499   4.501   4.149   9.530 -1.6081  0.8781  0.6665
  893MOL0     H20500   4.273   4.219   9.491  0.4718 -1.5537  1.4023
  893MOL0     H20501   4.286   4.210   9.317  0.2204 -0.6991  0.6763
  893MOL0     H20502   4.364   3.967   9.373  1.4229  2.2437  0.4447
  893MOL0     H20503   4.293   3.983   9.526  2.0732 -2.2852 -1.2757
  893MOL0     H20504   4.143   4.038   9.267 -1.2385  0.9418  0.8306
  893MOL0     H20505   4.065   4.033   9.428 -0.4214 -0.6111  0.6864
  893MOL0     H20506   3.897   3.821   9.360 -1.3465 -1.3419 -0.0875
  893MOL0     H20507   3.923   3.515   9.440 -1.2193  1.4980  0.3338
  893MOL0     H20508   3.824   3.599   9.311  1.5749  1.3903 -2.2123
  893MOL0     H20509   3.947   3.509   9.132 -2.3899  1.7243  0.6980
  893MOL0     H20510   3.836   3.395   9.219 -2.6597  2.3319  1.4482
  893MOL0     H20511   4.058   3.330   9.354  4.7376  3.6445  0.5311
  893MOL0     H20512   4.139   3.409   9.237  1.8127 -2.2523  2.3613
  893MOL0     H20513   4.142   3.182   9.162  0.6038  1.3089  0.1127
  893MOL0     H20514   4.012   3.234   9.062  0.1743 -1.6637 -0.4381
  893MOL0     H20515   4.106   2.975   9.090  0.1974  0.5850 -1.1615
  893MOL0     H20516   4.133   2.632   9.072 -0.0122  0.2836 -0.3003
  893MOL0     H20517   4.049   2.682   8.926  3.9372  2.1042 -2.7008
  893MOL0     H20518   4.180   2.782   8.981  1.5421 -0.4963  1.2807
  893MOL0     H20519   3.770   2.368   9.440 -0.3314  0.9534  0.0168
  893MOL0     H20520   3.699   2.146   9.450  0.2111 -2.1374 -1.6520
  893MOL0     H20521   3.819   1.930   9.325  0.4533  2.3414  3.9769
  893MOL0     H20522   3.688   1.925   9.445 -0.7923 -0.3752  0.0158
  893MOL0     H20523   3.580   1.742   9.307  0.2249 -0.5829 -0.8703
  893MOL0     H20524   3.710   1.761   9.190  2.3207  1.0385 -0.3381
  893MOL0     H20525   3.867   1.636   9.314 -0.1463 -0.9570 -0.8743
  893MOL0     H20526   3.734   1.550   9.305 -1.4101  0.8635 -0.6915
  893MOL0     H20527   3.805   1.742   9.537  0.2782  1.3201 -3.8014
  893MOL0     H20528   3.661   1.653   9.551  0.6041  1.3868 -0.3104
  893MOL0     H20529   3.763   1.446   9.536  0.2570 -0.2644 -0.9854
  893MOL0     H20530   3.803   1.535   9.689  2.1847  0.1726  1.2407
  893MOL0     H20531   3.998   1.477   9.455 -2.3508 -0.9494 -0.7739
  893MOL0     H20532   4.032   1.596   9.585 -2.7990  1.9635 -0.0992
  893MOL0     H20533   3.997   1.292   9.635  2.0685 -0.4059  2.8005
  893MOL0     H20534   4.002   1.402   9.763  2.0902  3.8604 -0.2152
  893MOL0     H20535   4.235   1.473   9.707 -2.0728 -0.3486  1.8472
  893MOL0     H20536   4.203   1.413   9.546 -0.3852  0.3372 -0.1075
  893MOL0     H20537   3.578   2.146   9.041  1.6861  0.9307 -1.5500
  893MOL0     H20538   3.639   2.389   9.023  0.2514 -0.3349 -0.5889
  893MOL0     H20539   3.734   2.758   9.327  0.7680 -0.5478  0.1616
  893MOL0     H20540   3.763   3.002   9.343 -1.1019  3.1961 -2.7588
  893MOL0     H20541   4.837   4.932   9.441 -0.5535  0.4370  1.0699
  893MOL0     H20542   5.063   5.059   9.431  3.1518 -0.6926 -0.0947
  893MOL0     H20543   5.414   5.293   9.726  0.3605  1.1858  0.0175
  893MOL0     H20544   5.619   5.419   9.710  2.8272 -1.7482  1.4031
  893MOL0     H20545   5.846   5.413   9.754  0.5068 -2.0957  0.1835
  893MOL0     H20546   5.995   5.374   9.682 -0.4217 -1.2971 -0.1236
  893MOL0     H20547   5.937   5.620   9.703  1.4676 -0.8524  0.9383
  893MOL0     H20548   5.790   5.591   9.612 -1.1729  0.7280  3.0555
  893MOL0     H20549   5.914   5.513   9.412  0.0825 -1.5446  1.2796
  893MOL0     H20550   6.072   5.540   9.494  0.2779  0.9124 -1.8516
  893MOL0     H20551   6.042   5.767   9.535  0.5491 -2.2409  0.7983
  893MOL0     H20552   5.873   5.763   9.469 -0.9683 -2.7074  0.4082
  893MOL0     H20553   6.133   5.786   9.124  1.1129 -0.7910  0.9422
  893MOL0     H20554   5.746   5.133   9.410  0.9145 -0.2419  0.3098
  893MOL0     H20555   5.527   5.034   9.415  1.4424  1.0317 -1.4999
  894MOL0     O20556  10.143   1.572   2.562  0.5438 -0.2565 -0.0994
  894MOL0     C20557  10.092   1.510   2.475 -1.2812  0.1347  1.2196
  894MOL0     O20558  10.158   1.448   2.383 -0.1566  0.2727  0.2187
  894MOL0     C20559  10.287   1.411   2.413  0.2788 -0.0243  0.6010
  894MOL0     C20560  10.333   1.278   2.399 -0.1895  0.6890 -0.4249
  894MOL0     C20561  10.471   1.246   2.415 -0.4070 -0.2178  0.6078
  894MOL0     C20562  10.571   1.339   2.445  0.2698 -0.3233 -0.1215
  894MOL0     O20563  10.707   1.300   2.447  0.9772 -0.3612 -0.1058
  894MOL0     C20564  10.802   1.398   2.479 -1.1640  0.4260  0.3377
  894MOL0     C20565  10.940   1.326   2.469 -0.4919  0.2219 -0.0182
  894MOL0     C20566  11.051   1.427   2.470 -0.0173 -0.1980  0.2454
  894MOL0     C20567  11.078   1.493   2.606  0.4440  1.3613 -0.4514
  894MOL0     C20568  11.203   1.567   2.615  0.5550  0.3723 -0.3783
  894MOL0     C20569  11.321   1.480   2.674 -0.1785  0.7261 -0.1673
  894MOL0     C20570  11.305   1.462   2.827 -0.6410 -0.5259  1.2330
  894MOL0     C20571  11.429   1.396   2.889  0.1988  0.0062 -0.2436
  894MOL0     N20572  11.539   1.487   2.912  0.8710 -0.5366 -0.0914
  894MOL0     C20573  11.667   1.459   2.883 -0.6029  0.3505  0.6413
  894MOL0     C20574  11.723   1.582   2.908  0.5226  0.0923  0.0406
  894MOL0     C20575  11.866   1.624   2.885  0.2521 -0.0860  1.9889
  894MOL0     C20576  11.873   1.702   2.753 -0.5154 -0.0605 -0.5496
  894MOL0     C20577  11.769   1.807   2.726  0.6646  0.1920 -0.4744
  894MOL0     C20578  11.803   1.901   2.610 -0.2710  0.1831 -0.3472
  894MOL0     O20579  11.928   1.971   2.641 -0.0628  0.6271  0.4641
  894MOL0     C20580  12.012   2.030   2.549  0.3941 -0.6431  0.6438
  894MOL0     C20581  11.966   2.065   2.418 -0.6427 -1.0065 -0.6450
  894MOL0     C20582  12.044   2.146   2.335 -0.3094 -0.1023  0.4429
  894MOL0     C20583  11.987   2.166   2.190  0.0061  0.2390 -0.8403
  894MOL0     C20584  12.171   2.198   2.381 -0.2766 -0.3606  1.6634
  894MOL0     C20585  12.277   2.276   2.286  0.2110  0.1116  0.7357
  894MOL0     O20586  12.408   2.307   2.346  0.0498  0.2355  0.0398
  894MOL0     C20587  12.496   2.359   2.262 -0.2674 -1.0500 -0.4739
  894MOL0     C20588  12.608   2.284   2.240 -0.6561 -0.8508  0.1058
  894MOL0     C20589  12.719   2.339   2.175 -0.3224  0.3842 -0.0683
  894MOL0     C20590  12.714   2.479   2.139  0.4216 -0.8979 -0.0000
  894MOL0     O20591  12.831   2.531   2.083  0.3942  0.5488  0.2576
  894MOL0     C20592  12.825   2.635   1.983  0.2422  0.0996 -0.2035
  894MOL0     C20593  12.973   2.654   1.926 -0.3854  0.5758 -0.2279
  894MOL0     C20594  13.006   2.555   1.813 -0.0947 -0.7247  0.3981
  894MOL0     C20595  13.010   2.416   1.851 -0.8404 -0.0185 -0.3319
  894MOL0     C20596  13.090   2.317   1.767  0.1088 -0.0962  0.1960
  894MOL0     C20597  13.237   2.363   1.766 -0.3158  0.3467  0.6982
  894MOL0     C20598  13.264   2.411   1.622 -0.4686 -0.2550  0.0541
  894MOL0     C20599  13.408   2.460   1.618  0.0401 -0.2936 -0.4762
  894MOL0    Cl20600  13.448   2.559   1.474  0.1872 -0.4197 -0.0656
  894MOL0     C20601  12.588   2.548   2.139  0.5181 -0.9178 -0.3858
  894MOL0     C20602  12.491   2.488   2.217  0.4086 -0.3629 -1.4194
  894MOL0     O20603  12.239   2.313   2.176  0.1422  0.1463  0.0429
  894MOL0     C20604  12.214   2.168   2.510  0.2563  0.1989 -0.2833
  894MOL0     C20605  12.132   2.082   2.587  0.3627 -0.0194  0.1038
  894MOL0     N20606  11.633   1.663   2.977 -0.2730 -0.5633 -0.4071
  894MOL0     N20607  11.520   1.605   2.979  0.1156  0.2108  0.2653
  894MOL0     C20608  10.523   1.471   2.468 -0.0919  0.5673 -0.1991
  894MOL0     C20609  10.391   1.507   2.442 -0.0076 -0.6183 -0.5596
  894MOL0     C20610   9.940   1.510   2.458  0.0987 -0.1678  0.1336
  894MOL0     C20611   9.880   1.412   2.376  0.0275  0.4274  0.3917
  894MOL0     C20612   9.746   1.411   2.338 -0.7903 -1.1191 -1.2736
  894MOL0     C20613   9.660   1.505   2.393  0.8366 -0.4765  0.4735
  894MOL0     O20614   9.522   1.521   2.359 -0.2694 -0.0768 -0.0195
  894MOL0     C20615   9.487   1.469   2.224  0.1056  0.4030  0.2750
  894MOL0     C20616   9.350   1.507   2.182  0.1600 -0.4939  0.3370
  894MOL0     C20617   9.230   1.471   2.277 -0.5005  1.2400  0.0798
  894MOL0     C20618   9.093   1.483   2.221  0.2681  0.5193  0.6848
  894MOL0     C20619   8.995   1.405   2.303 -0.3144  0.3148  0.2715
  894MOL0     C20620   8.934   1.330   2.377 -0.1282 -0.4568 -0.2106
  894MOL0     C20621   9.710   1.589   2.489  0.4132 -0.0119 -0.2460
  894MOL0     C20622   9.852   1.597   2.521  0.3038  0.4360 -0.4355
  894MOL0     H20623  10.281   1.188   2.368  1.2141  0.7490 -3.2678
  894MOL0     H20624  10.504   1.143   2.401  0.3255  0.0812  0.1010
  894MOL0     H20625  10.796   1.476   2.402  1.4444  0.3387 -0.0651
  894MOL0     H20626  10.788   1.444   2.577 -0.8225 -0.2640  0.7130
  894MOL0     H20627  10.947   1.260   2.556  0.4041  0.7752  0.3377
  894MOL0     H20628  10.947   1.265   2.378  0.2118  0.3867 -0.0774
  894MOL0     H20629  11.136   1.369   2.433 -1.1504 -1.2154 -0.8629
  894MOL0     H20630  11.036   1.506   2.397  1.9030  0.4965  0.5472
  894MOL0     H20631  11.004   1.570   2.630  0.0635  1.6972 -2.5258
  894MOL0     H20632  11.074   1.427   2.694  2.2542 -0.8118 -1.8871
  894MOL0     H20633  11.237   1.594   2.514  1.0938 -1.2489 -0.6639
  894MOL0     H20634  11.190   1.659   2.672  0.6366 -0.2301  0.6388
  894MOL0     H20635  11.313   1.380   2.632  1.4535 -0.3353  1.8511
  894MOL0     H20636  11.411   1.528   2.636  0.0273 -0.8555 -1.7940
  894MOL0     H20637  11.276   1.558   2.870  1.9555 -0.4271  2.9791
  894MOL0     H20638  11.220   1.393   2.828 -1.1720 -0.3783 -4.0445
  894MOL0     H20639  11.457   1.322   2.814  0.4570  1.5545 -1.7341
  894MOL0     H20640  11.402   1.349   2.985  0.2622  3.3532  1.5928
  894MOL0     H20641  11.713   1.377   2.829 -0.7568  1.1465 -0.7371
  894MOL0     H20642  11.899   1.679   2.974  1.9596  1.4213  0.4925
  894MOL0     H20643  11.931   1.538   2.868 -0.6220 -0.1146 -2.1311
  894MOL0     H20644  11.882   1.632   2.669  1.9117 -2.0273  1.1605
  894MOL0     H20645  11.964   1.761   2.742 -0.0046 -0.7290  0.0157
  894MOL0     H20646  11.754   1.866   2.817  2.2636  2.9740 -1.8906
  894MOL0     H20647  11.671   1.769   2.697  1.5070 -1.0792 -1.7978
  894MOL0     H20648  11.729   1.980   2.594  0.4648  0.4867 -2.4670
  894MOL0     H20649  11.800   1.837   2.521  1.7698 -1.9514  0.9880
  894MOL0     H20650  11.864   2.037   2.393 -1.2420 -1.2634  1.8103
  894MOL0     H20651  11.984   2.269   2.155 -6.5393  1.0155  0.7938
  894MOL0     H20652  12.054   2.108   2.125  1.8163 -3.0926  3.4811
  894MOL0     H20653  11.887   2.124   2.176 -0.1535 -0.3500  1.6509
  894MOL0     H20654  12.623   2.189   2.290 -0.3255 -0.5572  0.5606
  894MOL0     H20655  12.808   2.278   2.161 -1.3297 -2.2099  3.4345
  894MOL0     H20656  12.760   2.616   1.897  2.2463 -2.5019 -1.2743
  894MOL0     H20657  12.800   2.729   2.033 -1.8038 -0.5013  0.0324
  894MOL0     H20658  12.988   2.755   1.887  1.8414 -0.2551 -1.7107
  894MOL0     H20659  13.041   2.625   2.006 -1.0917  1.7170  0.8296
  894MOL0     H20660  13.097   2.585   1.762  0.3055 -1.4175  0.6943
  894MOL0     H20661  12.925   2.563   1.740 -0.7618 -1.1536  1.0712
  894MOL0     H20662  13.031   2.400   1.957 -1.1221 -2.6940 -0.6174
  894MOL0     H20663  12.907   2.385   1.833 -0.3537 -1.8744 -0.1413
  894MOL0     H20664  13.041   2.313   1.670  2.3709  0.4858 -1.0449
  894MOL0     H20665  13.083   2.218   1.814 -1.3953 -0.0410  0.1191
  894MOL0     H20666  13.250   2.443   1.838 -0.7604  0.8088  0.2725
  894MOL0     H20667  13.301   2.281   1.800  1.3630  2.2062  2.1911
  894MOL0     H20668  13.213   2.500   1.586 -0.4645 -0.3518 -0.1912
  894MOL0     H20669  13.261   2.328   1.550  1.4339  0.3132 -0.7370
  894MOL0     H20670  13.480   2.381   1.644  3.0460  2.6025  0.6671
  894MOL0     H20671  13.435   2.529   1.698  1.3629  2.4820 -3.1157
  894MOL0     H20672  12.569   2.648   2.102 -1.0600  0.7209  4.0805
  894MOL0     H20673  12.399   2.542   2.237  0.1926 -1.1960  0.0108
  894MOL0     H20674  12.309   2.202   2.550 -0.0359 -0.4224  0.9859
  894MOL0     H20675  12.154   2.061   2.691 -0.2090  2.0900  0.7020
  894MOL0     H20676  10.587   1.553   2.497  0.8002 -0.3142  0.4204
  894MOL0     H20677  10.366   1.612   2.452 -3.0412 -1.4728  3.0008
  894MOL0     H20678   9.936   1.332   2.329 -1.3474  0.3818 -1.2748
  894MOL0     H20679   9.703   1.333   2.275 -2.7828 -0.0361 -1.3517
  894MOL0     H20680   9.563   1.496   2.151 -0.7092 -0.1560 -0.7990
  894MOL0     H20681   9.480   1.360   2.224 -1.6625  0.4738 -0.6260
  894MOL0     H20682   9.338   1.451   2.089  2.6415 -2.1599  0.9165
  894MOL0     H20683   9.358   1.615   2.164  0.6352 -0.4308  0.8886
  894MOL0     H20684   9.237   1.523   2.373 -0.1323 -1.8103  1.8159
  894MOL0     H20685   9.256   1.367   2.299 -1.8167  0.4617 -1.8147
  894MOL0     H20686   9.103   1.440   2.121 -0.7048  1.0367  0.3588
  894MOL0     H20687   9.056   1.585   2.230  1.5698  0.9408  1.5480
  894MOL0     H20688   8.866   1.283   2.446  0.3952  1.8820  2.0912
  894MOL0     H20689   9.633   1.653   2.532  2.7584  1.3575  2.2358
  894MOL0     H20690   9.889   1.667   2.595 -0.7424 -0.0722  0.6006
  895MOL0     O20691   0.089   4.316   0.076  0.4368 -1.6840  1.2522
  895MOL0     C20692   0.162   4.389   0.133  0.0110 -0.6241 -0.4612
  895MOL0     O20693   0.137   4.446   0.254 -0.1583 -0.3893  0.7682
  895MOL0     C20694   0.017   4.415   0.315 -0.1920 -0.1662  0.9552
  895MOL0     C20695  -0.108   4.460   0.262 -0.7386 -0.0093  0.5899
  895MOL0     C20696  -0.217   4.448   0.348 -0.9279 -1.0304 -0.1103
  895MOL0     C20697  -0.204   4.407   0.480 -0.1025 -0.2616 -0.8965
  895MOL0     O20698  -0.315   4.395   0.566 -0.2386  0.4133  0.0975
  895MOL0     C20699  -0.450   4.423   0.524 -0.1079 -1.3975  0.8454
  895MOL0     C20700  -0.527   4.380   0.655  0.4428  0.7895 -0.0734
  895MOL0     C20701  -0.672   4.408   0.640 -0.1619  0.7990  0.2974
  895MOL0     C20702  -0.741   4.279   0.592  0.5145  0.1729 -0.7437
  895MOL0     C20703  -0.903   4.286   0.570 -0.4912  0.3550 -1.2611
  895MOL0     C20704  -0.964   4.138   0.559  0.6848 -0.3299  0.1707
  895MOL0     C20705  -1.115   4.150   0.584 -0.3928  0.5669 -0.1414
  895MOL0     C20706  -1.198   4.154   0.459  0.3470 -0.8576  0.2297
  895MOL0     N20707  -1.336   4.199   0.475 -0.7892  0.0744 -0.1899
  895MOL0     C20708  -1.431   4.143   0.400  0.3223  0.1316 -0.4378
  895MOL0     C20709  -1.540   4.226   0.419  0.1524 -0.3663  0.1934
  895MOL0     C20710  -1.676   4.205   0.350 -0.2968 -0.3152  0.1894
  895MOL0     C20711  -1.770   4.105   0.419 -0.2290 -0.8767 -0.1868
  895MOL0     C20712  -1.760   3.964   0.363 -0.9991 -0.4176  0.3931
  895MOL0     C20713  -1.889   3.879   0.392 -0.1241 -0.0407 -0.0508
  895MOL0     O20714  -2.002   3.945   0.313 -0.5209  0.9943  0.1315
  895MOL0     C20715  -2.120   3.913   0.384 -0.1763 -0.2729  0.2409
  895MOL0     C20716  -2.216   3.816   0.333 -0.1934  0.3292 -0.7026
  895MOL0     C20717  -2.348   3.806   0.386  0.8777  0.7097  0.4895
  895MOL0     C20718  -2.452   3.721   0.309 -0.8450  0.2037  0.0142
  895MOL0     C20719  -2.381   3.882   0.496 -0.2022  0.2656 -0.2457
  895MOL0     C20720  -2.522   3.874   0.549 -0.3102  0.6184  0.1785
  895MOL0     O20721  -2.583   3.757   0.571 -0.4419  0.0075  0.1596
  895MOL0     C20722  -2.722   3.774   0.603  0.0597  1.1870 -0.4273
  895MOL0     C20723  -2.778   3.863   0.698  0.0201  0.6057 -0.6103
  895MOL0     C20724  -2.918   3.868   0.713 -0.0594  0.1700  0.9940
  895MOL0     C20725  -3.009   3.783   0.636 -0.8759 -0.0763  0.0722
  895MOL0     O20726  -3.137   3.775   0.668 -0.1793 -0.4066  0.0764
  895MOL0     C20727  -3.210   3.894   0.670  0.2756 -0.3403  0.6902
  895MOL0     C20728  -3.335   3.894   0.582  0.8159  0.7038 -0.0118
  895MOL0     C20729  -3.377   3.756   0.533  0.5552 -0.3254  0.8073
  895MOL0     C20730  -3.434   3.674   0.657 -1.1034  0.5777  0.1373
  895MOL0     C20731  -3.492   3.536   0.628  0.4252 -0.5966  0.3023
  895MOL0     C20732  -3.604   3.526   0.527  0.5784  1.1928 -0.3320
  895MOL0     C20733  -3.672   3.385   0.533 -0.4324  0.6610  0.0820
  895MOL0     C20734  -3.805   3.384   0.464  0.7054  0.2736 -0.2908
  895MOL0    Cl20735  -3.915   3.518   0.508 -0.0449 -0.5230 -0.4324
  895MOL0     C20736  -2.945   3.682   0.565  0.0005 -0.3235  0.2218
  895MOL0     C20737  -2.803   3.681   0.547 -1.1367 -0.3442  0.5485
  895MOL0     O20738  -2.573   3.986   0.564  0.0917  0.1281  0.5139
  895MOL0     C20739  -2.293   3.967   0.553  0.4398  0.2196 -0.7768
  895MOL0     C20740  -2.165   3.989   0.494 -1.2489 -0.6556 -0.0058
  895MOL0     N20741  -1.499   4.330   0.497 -0.1221 -0.1583  0.2294
  895MOL0     N20742  -1.366   4.318   0.528  0.4490 -0.5733  0.5093
  895MOL0     C20743  -0.079   4.379   0.533  0.0822 -1.0920 -0.8150
  895MOL0     C20744   0.035   4.390   0.450  0.2403  0.0412 -0.4862
  895MOL0     C20745   0.266   4.438   0.053 -0.0814  0.3222 -0.5789
  895MOL0     C20746   0.280   4.402  -0.081  0.2763 -0.1991 -0.2168
  895MOL0     C20747   0.379   4.463  -0.159 -0.3598  0.2744 -0.9361
  895MOL0     C20748   0.474   4.552  -0.104 -0.3728 -0.6402  0.1158
  895MOL0     O20749   0.584   4.596  -0.183  0.2001  0.0421  0.0141
  895MOL0     C20750   0.681   4.679  -0.111  0.0223 -0.2460  0.1577
  895MOL0     C20751   0.782   4.722  -0.211 -0.6089 -0.0890  0.4225
  895MOL0     C20752   0.869   4.845  -0.152  0.0604 -0.0442  0.5078
  895MOL0     C20753   0.994   4.890  -0.229 -0.3613  0.3531 -0.5587
  895MOL0     C20754   0.974   4.928  -0.367  0.3920  0.4293 -0.3076
  895MOL0     C20755   0.979   4.939  -0.491 -0.0553 -0.0542 -0.1171
  895MOL0     C20756   0.458   4.586   0.026  0.2918 -0.9261 -0.8887
  895MOL0     C20757   0.352   4.543   0.103  0.6485  0.0297 -0.2394
  895MOL0     H20758  -0.121   4.513   0.168  2.0418  0.2398  0.2874
  895MOL0     H20759  -0.310   4.484   0.306 -0.3781  0.3466 -0.1768
  895MOL0     H20760  -0.475   4.517   0.473 -2.3316 -3.1471 -1.5448
  895MOL0     H20761  -0.464   4.350   0.443  1.2203 -0.3213 -0.4157
  895MOL0     H20762  -0.510   4.275   0.682 -0.0992  0.7278  0.0365
  895MOL0     H20763  -0.484   4.440   0.736  1.7657  0.0680 -0.2087
  895MOL0     H20764  -0.720   4.445   0.731  0.7038  0.9432  0.7105
  895MOL0     H20765  -0.689   4.491   0.570 -1.6033  2.9538  3.0131
  895MOL0     H20766  -0.694   4.235   0.503 -0.9837 -1.2837 -0.8681
  895MOL0     H20767  -0.714   4.203   0.665  0.3474  2.1606  1.5015
  895MOL0     H20768  -0.943   4.334   0.659  2.9019 -1.3576  1.4445
  895MOL0     H20769  -0.925   4.342   0.479 -0.9652  0.3927 -1.1239
  895MOL0     H20770  -0.942   4.089   0.464  2.5534  0.0874  0.3479
  895MOL0     H20771  -0.920   4.074   0.637 -0.5032 -0.4709  0.7477
  895MOL0     H20772  -1.130   4.060   0.644  2.3826  0.9403  1.2628
  895MOL0     H20773  -1.140   4.239   0.643  0.9948 -0.2883  1.8252
  895MOL0     H20774  -1.194   4.052   0.420 -0.4575 -0.5281 -0.7596
  895MOL0     H20775  -1.160   4.222   0.381 -0.5362  0.4202  0.8723
  895MOL0     H20776  -1.406   4.054   0.342  1.9898  0.8174 -0.8427
  895MOL0     H20777  -1.728   4.301   0.361  0.8101  0.2019  1.1344
  895MOL0     H20778  -1.663   4.176   0.245  3.8872 -0.4083  0.5927
  895MOL0     H20779  -1.874   4.136   0.408 -0.7646 -0.2500  4.4513
  895MOL0     H20780  -1.761   4.098   0.528  0.3229 -0.3826 -0.1938
  895MOL0     H20781  -1.676   3.913   0.411 -0.3453 -0.8402 -1.1474
  895MOL0     H20782  -1.746   3.963   0.255 -0.7605 -2.2397  0.4123
  895MOL0     H20783  -1.907   3.866   0.499  0.2422 -0.0160  0.0158
  895MOL0     H20784  -1.875   3.773   0.369 -2.9649 -1.0915  2.4276
  895MOL0     H20785  -2.190   3.751   0.250  2.5281  0.1213  0.1951
  895MOL0     H20786  -2.398   3.678   0.224 -1.1253  3.2492 -1.8562
  895MOL0     H20787  -2.483   3.636   0.371  0.4087 -1.3219 -1.3540
  895MOL0     H20788  -2.541   3.774   0.273 -1.1248 -0.4856 -0.3307
  895MOL0     H20789  -2.719   3.933   0.757  0.5717 -0.2779 -0.1036
  895MOL0     H20790  -2.953   3.947   0.779  1.4858  1.7126  0.0555
  895MOL0     H20791  -3.224   3.931   0.772  0.9679  0.4304  0.5161
  895MOL0     H20792  -3.152   3.969   0.616 -2.2220  0.3534 -1.2296
  895MOL0     H20793  -3.415   3.922   0.651 -0.2101 -0.9771 -0.4459
  895MOL0     H20794  -3.323   3.961   0.497  2.1253 -0.9123 -1.1550
  895MOL0     H20795  -3.302   3.707   0.470  0.0434 -0.0415 -0.0426
  895MOL0     H20796  -3.468   3.770   0.473  1.4738  0.9143 -0.3662
  895MOL0     H20797  -3.359   3.664   0.736 -0.3768  1.6738 -0.3786
  895MOL0     H20798  -3.521   3.729   0.693 -1.5632  0.7023 -1.0876
  895MOL0     H20799  -3.527   3.489   0.721 -2.8464 -1.4008 -1.2131
  895MOL0     H20800  -3.409   3.473   0.596  0.3989 -2.2733  3.1222
  895MOL0     H20801  -3.689   3.588   0.555 -1.5359 -2.3509  1.7959
  895MOL0     H20802  -3.574   3.546   0.423  2.8361  3.0851  0.5792
  895MOL0     H20803  -3.705   3.355   0.633 -0.7750  0.9140  0.0468
  895MOL0     H20804  -3.603   3.310   0.493 -0.2769  0.9727 -0.2431
  895MOL0     H20805  -3.843   3.285   0.489 -0.5278  0.4986 -1.1621
  895MOL0     H20806  -3.790   3.377   0.356 -3.7568 -0.5483 -1.0423
  895MOL0     H20807  -2.995   3.590   0.539  2.5099 -0.9801 -3.1137
  895MOL0     H20808  -2.757   3.614   0.474  0.5990 -0.6028  1.8049
  895MOL0     H20809  -2.319   4.023   0.643  2.8099  2.1307 -1.1779
  895MOL0     H20810  -2.091   4.054   0.540 -0.9904 -2.9306  3.1251
  895MOL0     H20811  -0.061   4.340   0.632 -2.0610  1.0950  0.5343
  895MOL0     H20812   0.132   4.363   0.490 -0.4387  1.3175  2.2616
  895MOL0     H20813   0.216   4.320  -0.112 -2.0299  0.6480  1.9753
  895MOL0     H20814   0.401   4.427  -0.259  2.2536 -1.5769  0.1940
  895MOL0     H20815   0.629   4.773  -0.091  1.1997  1.1624 -2.7677
  895MOL0     H20816   0.742   4.640  -0.029  2.9144  0.7583 -1.3924
  895MOL0     H20817   0.728   4.748  -0.302  0.8507 -0.1701 -0.5079
  895MOL0     H20818   0.839   4.631  -0.231 -1.9614 -0.7855 -0.3637
  895MOL0     H20819   0.904   4.820  -0.051  2.7738  2.2763  0.2530
  895MOL0     H20820   0.802   4.928  -0.129  0.3258 -0.7369  4.5602
  895MOL0     H20821   1.070   4.812  -0.221 -1.4765 -0.6277  1.2278
  895MOL0     H20822   1.036   4.977  -0.178  3.0437 -0.8574 -1.0298
  895MOL0     H20823   0.988   4.929  -0.597  0.3604 -0.4618 -0.0458
  895MOL0     H20824   0.522   4.649   0.087 -2.7753  1.3434  0.2370
  895MOL0     H20825   0.333   4.581   0.203  1.2549  0.1803 -0.1777
  896MOL0     O20826   1.846   7.750   3.618 -0.4053 -0.2567  0.0245
  896MOL0     C20827   1.776   7.663   3.582 -0.4324  0.9390 -1.1642
  896MOL0     O20828   1.730   7.566   3.665 -0.3236 -0.2428 -0.2150
  896MOL0     C20829   1.754   7.555   3.797 -1.0165 -0.2614 -0.9901
  896MOL0     C20830   1.814   7.443   3.857  0.3151  0.0409  0.3819
  896MOL0     C20831   1.838   7.441   4.000 -0.0479 -0.0878  0.6421
  896MOL0     C20832   1.814   7.552   4.074  0.1668  0.1822 -0.1441
  896MOL0     O20833   1.833   7.549   4.218  0.5037 -0.6602  0.0446
  896MOL0     C20834   1.718   7.614   4.295  0.8505  1.0562 -0.5812
  896MOL0     C20835   1.574   7.551   4.269 -0.4958 -0.3888 -0.5114
  896MOL0     C20836   1.488   7.607   4.388 -0.0422  0.7819  1.3535
  896MOL0     C20837   1.343   7.583   4.367  0.0518  0.2871 -0.3418
  896MOL0     C20838   1.254   7.623   4.487 -0.1268  0.2216  0.4357
  896MOL0     C20839   1.114   7.558   4.484 -0.7701  0.1463 -0.5513
  896MOL0     C20840   1.015   7.614   4.589  0.0523  0.1581  0.1855
  896MOL0     C20841   0.872   7.565   4.560  0.4486 -0.6626 -0.2516
  896MOL0     N20842   0.781   7.566   4.680 -0.9038  0.0269  0.3336
  896MOL0     C20843   0.825   7.540   4.806 -0.0532 -0.4654  0.4135
  896MOL0     C20844   0.730   7.605   4.881 -0.4568  0.4062  0.1051
  896MOL0     C20845   0.741   7.613   5.033 -0.4694  0.6128  1.0265
  896MOL0     C20846   0.664   7.499   5.105  0.0479 -0.4932  1.1800
  896MOL0     C20847   0.685   7.506   5.262  0.7816 -0.4392  0.9490
  896MOL0     C20848   0.566   7.573   5.330 -0.8620  0.6179  1.2049
  896MOL0     O20849   0.448   7.501   5.315  0.6566  0.2466  0.2365
  896MOL0     C20850   0.333   7.567   5.364 -0.3337 -0.4302  0.0153
  896MOL0     C20851   0.214   7.515   5.339  0.5559  0.6774 -0.2485
  896MOL0     C20852   0.094   7.563   5.390 -0.5202 -0.7453 -1.2525
  896MOL0     C20853  -0.037   7.512   5.339  0.3704 -0.4927 -0.6390
  896MOL0     C20854   0.101   7.682   5.472 -0.2139  0.1800 -0.6749
  896MOL0     C20855  -0.028   7.744   5.510  0.7126 -0.8249 -0.4040
  896MOL0     O20856  -0.136   7.681   5.551  0.2391 -0.3843 -0.0027
  896MOL0     C20857  -0.252   7.747   5.574  0.1957  0.5951  0.4571
  896MOL0     C20858  -0.368   7.721   5.502 -0.9664  0.2638  0.5271
  896MOL0     C20859  -0.487   7.780   5.532  0.4640 -0.8217 -0.1265
  896MOL0     C20860  -0.496   7.869   5.641  0.0715  0.0369 -0.2309
  896MOL0     O20861  -0.618   7.925   5.673  0.0057  0.4593 -0.2120
  896MOL0     C20862  -0.679   7.994   5.564  0.2254  0.5395  0.0508
  896MOL0     C20863  -0.831   8.016   5.600 -0.1407  0.8380  0.3796
  896MOL0     C20864  -0.911   7.897   5.553  0.8679  0.9007  0.2237
  896MOL0     C20865  -0.924   7.900   5.404 -0.3581  0.2006  0.1104
  896MOL0     C20866  -1.015   7.791   5.354  0.0057 -0.8396 -0.0627
  896MOL0     C20867  -1.164   7.815   5.373 -0.0553 -0.4631  0.7405
  896MOL0     C20868  -1.247   7.687   5.384 -0.7270  0.8397  0.5957
  896MOL0     C20869  -1.393   7.709   5.354  0.8059 -0.0058 -0.2359
  896MOL0    Cl20870  -1.457   7.820   5.477  0.1606  0.3568  0.4566
  896MOL0     C20871  -0.391   7.884   5.723 -0.4209  0.0947  0.5072
  896MOL0     C20872  -0.265   7.833   5.690  0.0321  0.7223 -0.1737
  896MOL0     O20873  -0.021   7.863   5.483 -0.2969  0.0388 -0.6188
  896MOL0     C20874   0.221   7.737   5.509 -0.3880  0.3277  0.1520
  896MOL0     C20875   0.340   7.678   5.453  0.8203  0.0280 -0.9125
  896MOL0     N20876   0.639   7.680   4.807 -0.0317 -0.0653  0.0464
  896MOL0     N20877   0.675   7.648   4.685 -0.0765  0.0352  0.2072
  896MOL0     C20878   1.760   7.658   4.014 -0.0381  0.2590  0.0039
  896MOL0     C20879   1.732   7.665   3.878  0.1525 -0.9201 -0.0922
  896MOL0     C20880   1.751   7.637   3.446  0.0783 -0.1260 -1.1819
  896MOL0     C20881   1.673   7.524   3.414 -0.8312  0.2249 -0.9988
  896MOL0     C20882   1.638   7.501   3.279  0.2884  0.2673 -0.0199
  896MOL0     C20883   1.696   7.588   3.178 -0.0995  0.5188  0.1033
  896MOL0     O20884   1.668   7.579   3.046 -0.3081 -0.1193  0.1828
  896MOL0     C20885   1.543   7.536   3.003 -0.0841  0.7315 -1.0206
  896MOL0     C20886   1.494   7.608   2.884  0.1885  0.0175  0.2371
  896MOL0     C20887   1.560   7.570   2.755 -0.5045 -0.3239  0.0093
  896MOL0     C20888   1.522   7.662   2.630  0.4624 -0.5065  0.6306
  896MOL0     C20889   1.379   7.660   2.615  0.2083  0.5264 -0.5082
  896MOL0     C20890   1.259   7.649   2.606  0.7259  0.2634 -0.1241
  896MOL0     C20891   1.775   7.697   3.221  0.2580  0.0064  0.2035
  896MOL0     C20892   1.806   7.722   3.347 -0.2734 -0.5814 -0.1604
  896MOL0     H20893   1.843   7.361   3.792  1.2577  1.6003 -1.2543
  896MOL0     H20894   1.879   7.352   4.046  0.8434  1.0569  2.1875
  896MOL0     H20895   1.736   7.586   4.399  1.0553 -0.2544 -0.9551
  896MOL0     H20896   1.717   7.724   4.299  1.0814  1.0265  0.9403
  896MOL0     H20897   1.531   7.581   4.173  0.3038 -1.1304 -1.1178
  896MOL0     H20898   1.577   7.442   4.268 -1.9765 -0.5164  2.0522
  896MOL0     H20899   1.526   7.560   4.480 -0.8956 -1.1183  0.7716
  896MOL0     H20900   1.496   7.716   4.393 -1.8623  0.9207  1.7819
  896MOL0     H20901   1.310   7.628   4.273  1.9329  2.0185 -0.2465
  896MOL0     H20902   1.338   7.475   4.353  3.8986 -0.0713  0.0761
  896MOL0     H20903   1.292   7.585   4.583 -1.0999  0.4758  0.9419
  896MOL0     H20904   1.248   7.732   4.490  1.5783  0.3327  1.1652
  896MOL0     H20905   1.083   7.570   4.379 -0.4762  2.1986 -0.4414
  896MOL0     H20906   1.129   7.451   4.499 -0.3563  0.1129 -1.1465
  896MOL0     H20907   1.061   7.598   4.687  2.2281  1.2284 -0.5908
  896MOL0     H20908   1.007   7.722   4.574 -0.0768 -0.0064 -0.9593
  896MOL0     H20909   0.871   7.460   4.529 -1.3203 -0.9295  0.5917
  896MOL0     H20910   0.835   7.613   4.469  0.2047  0.8328  0.6021
  896MOL0     H20911   0.918   7.495   4.838  2.2726  3.4873 -0.1380
  896MOL0     H20912   0.848   7.609   5.053  0.1948 -0.9938 -2.2027
  896MOL0     H20913   0.696   7.709   5.059 -2.1713 -0.6019  2.8372
  896MOL0     H20914   0.699   7.401   5.070 -1.0700 -0.6023  0.2999
  896MOL0     H20915   0.557   7.506   5.081  0.9784  3.0920 -3.1957
  896MOL0     H20916   0.776   7.563   5.279 -0.3435  2.4696 -1.8147
  896MOL0     H20917   0.691   7.405   5.304  0.1820 -0.2561  1.5010
  896MOL0     H20918   0.558   7.669   5.278 -0.0825  0.4238  0.7099
  896MOL0     H20919   0.596   7.579   5.436 -0.8434 -0.6018  1.2805
  896MOL0     H20920   0.208   7.424   5.281  1.6870  1.4591 -1.6735
  896MOL0     H20921  -0.100   7.594   5.302  1.2909  0.2676 -0.5366
  896MOL0     H20922  -0.031   7.444   5.253 -1.8261  0.4281 -1.6176
  896MOL0     H20923  -0.085   7.449   5.414 -1.5745  2.3013  0.6493
  896MOL0     H20924  -0.363   7.650   5.420 -0.6846  0.6670  0.1863
  896MOL0     H20925  -0.567   7.755   5.464  1.3727  0.1145 -1.6006
  896MOL0     H20926  -0.639   8.096   5.570 -0.0029  0.6005  0.6249
  896MOL0     H20927  -0.658   7.960   5.463  1.9165  2.7613 -0.4384
  896MOL0     H20928  -0.848   8.034   5.707  0.4523  0.8649  0.4681
  896MOL0     H20929  -0.874   8.093   5.536 -1.8128 -1.8123 -1.9648
  896MOL0     H20930  -1.011   7.887   5.598  0.0181 -0.6232 -1.8122
  896MOL0     H20931  -0.854   7.809   5.585  1.2231  0.6403 -1.0696
  896MOL0     H20932  -0.972   7.996   5.383  0.6664  1.1158  1.6693
  896MOL0     H20933  -0.829   7.880   5.353 -1.0591 -1.6217 -0.5499
  896MOL0     H20934  -0.991   7.701   5.411  0.5278 -2.0350 -2.0576
  896MOL0     H20935  -1.000   7.764   5.249 -2.2677 -2.3615 -0.0526
  896MOL0     H20936  -1.179   7.878   5.461  0.3237  2.3278 -1.0809
  896MOL0     H20937  -1.201   7.873   5.289 -1.5876  0.7557  2.1756
  896MOL0     H20938  -1.240   7.641   5.483 -2.5984 -3.1877 -0.9465
  896MOL0     H20939  -1.203   7.619   5.311  1.6497  0.6529  2.0700
  896MOL0     H20940  -1.451   7.616   5.343 -1.9129  1.4435  0.9705
  896MOL0     H20941  -1.399   7.761   5.258  0.9033 -0.6625 -0.6056
  896MOL0     H20942  -0.402   7.945   5.812 -0.6274  0.9996 -0.1215
  896MOL0     H20943  -0.170   7.841   5.742 -0.2593 -0.7991  0.6218
  896MOL0     H20944   0.237   7.819   5.579 -0.0221  2.8031 -2.6397
  896MOL0     H20945   0.435   7.724   5.478  1.0113 -0.3852 -0.8525
  896MOL0     H20946   1.725   7.739   4.077 -0.9155  0.6295 -0.9369
  896MOL0     H20947   1.679   7.754   3.845  0.2442  0.2305  2.5689
  896MOL0     H20948   1.622   7.457   3.482  0.8261 -1.6529 -1.4916
  896MOL0     H20949   1.579   7.415   3.249  1.5571 -1.4219  1.9751
  896MOL0     H20950   1.538   7.428   2.989  3.8395  0.5192 -1.8984
  896MOL0     H20951   1.476   7.566   3.084  1.0179  1.2087 -0.2693
  896MOL0     H20952   1.494   7.716   2.905  3.6245  0.9068 -3.0723
  896MOL0     H20953   1.390   7.576   2.874  1.2962 -3.8440 -0.5038
  896MOL0     H20954   1.539   7.466   2.728 -3.6785 -0.4217  2.2942
  896MOL0     H20955   1.669   7.570   2.768 -0.7927  1.4920  3.9641
  896MOL0     H20956   1.570   7.619   2.541  1.0581 -0.3710  0.8771
  896MOL0     H20957   1.545   7.765   2.657  0.8983 -0.1261 -1.1042
  896MOL0     H20958   1.152   7.637   2.601  0.4585  2.7931 -2.9896
  896MOL0     H20959   1.792   7.766   3.139 -2.8420 -1.9783 -2.3559
  896MOL0     H20960   1.861   7.805   3.390  2.2645 -2.7535  1.0727
  897MOL0     O20961  10.997   7.618   3.112 -0.0874 -0.4013 -0.2116
  897MOL0     C20962  10.928   7.525   3.061 -0.4601 -1.1029 -0.4026
  897MOL0     O20963  10.791   7.526   3.071 -0.8145 -0.1136 -0.2267
  897MOL0     C20964  10.731   7.644   3.120  0.6927  0.2724 -0.1957
  897MOL0     C20965  10.688   7.745   3.025 -0.6913 -1.0057  0.1205
  897MOL0     C20966  10.626   7.858   3.073  0.2119 -0.5824 -0.0615
  897MOL0     C20967  10.610   7.884   3.212  0.3505 -0.5119  0.0021
  897MOL0     O20968  10.552   8.001   3.260  0.4558 -0.7472  0.5715
  897MOL0     C20969  10.513   8.099   3.158 -0.6537  0.3302  0.7155
  897MOL0     C20970  10.470   8.221   3.232  0.3972  0.9550  0.6436
  897MOL0     C20971  10.430   8.329   3.120  0.8500  0.2483  0.2799
  897MOL0     C20972  10.411   8.462   3.188  0.1224 -0.5779 -0.2694
  897MOL0     C20973  10.353   8.574   3.092 -0.7955  0.0205  0.4274
  897MOL0     C20974  10.446   8.621   2.981  0.3721  0.1020 -0.6498
  897MOL0     C20975  10.470   8.527   2.865  0.4722  0.3769  1.0275
  897MOL0     C20976  10.393   8.561   2.736  0.5542 -0.1437 -0.4124
  897MOL0     N20977  10.270   8.478   2.711  0.4895  0.6363 -0.3248
  897MOL0     C20978  10.141   8.518   2.743  1.2640 -0.5428  0.3637
  897MOL0     C20979  10.063   8.417   2.703 -0.4660  0.8091  0.2004
  897MOL0     C20980   9.912   8.405   2.706 -0.3135 -0.2004  1.1153
  897MOL0     C20981   9.856   8.503   2.599  0.3281 -0.2315  0.4863
  897MOL0     C20982   9.908   8.483   2.456  0.5529 -0.2991  0.7600
  897MOL0     C20983   9.843   8.590   2.362 -0.2377  0.2792  1.2141
  897MOL0     O20984   9.866   8.736   2.383  1.1175  0.4412  0.0681
  897MOL0     C20985   9.994   8.777   2.368  0.0370  0.9366  0.3118
  897MOL0     C20986  10.018   8.894   2.427 -0.9300 -0.1563  0.8847
  897MOL0     C20987  10.147   8.955   2.430 -0.4831  0.2605  0.4251
  897MOL0     C20988  10.140   9.084   2.501 -1.2055 -0.6571 -0.1231
  897MOL0     C20989  10.264   8.882   2.385 -0.6054  0.2800  0.8050
  897MOL0     C20990  10.401   8.934   2.408 -0.8407 -0.3046  0.9539
  897MOL0     O20991  10.415   9.062   2.461 -0.2018  0.2900  0.5394
  897MOL0     C20992  10.534   9.094   2.501  0.4115 -0.7551 -0.2006
  897MOL0     C20993  10.594   9.189   2.417 -0.6820  0.7200 -0.2653
  897MOL0     C20994  10.722   9.249   2.451 -0.3346  0.3494 -0.4590
  897MOL0     C20995  10.792   9.210   2.567 -0.3503 -0.5902  0.5596
  897MOL0     O20996  10.913   9.271   2.600  0.2706  0.2645 -0.1605
  897MOL0     C20997  10.999   9.204   2.701 -0.4234 -0.1241 -0.7195
  897MOL0     C20998  10.963   9.256   2.843  0.2945  0.0489  0.8027
  897MOL0     C20999  11.029   9.393   2.861 -0.1831 -0.2536 -0.1226
  897MOL0     C21000  11.175   9.390   2.895  0.4950  1.4082  0.8206
  897MOL0     C21001  11.231   9.532   2.922 -0.5083 -0.0711  0.0267
  897MOL0     C21002  11.381   9.545   2.939  0.2742  0.2038 -0.1305
  897MOL0     C21003  11.438   9.468   3.065 -0.5113 -0.3612  0.4405
  897MOL0     C21004  11.583   9.498   3.086  0.1743  0.2679  0.3521
  897MOL0    Cl21005  11.624   9.416   3.240  0.6152  0.3791 -0.3636
  897MOL0     C21006  10.730   9.116   2.651 -0.1934  1.1192 -0.0248
  897MOL0     C21007  10.608   9.055   2.620  0.6768 -1.2661  0.2756
  897MOL0     O21008  10.492   8.858   2.369  0.4080 -0.3640 -0.4736
  897MOL0     C21009  10.234   8.766   2.308 -0.1417  0.1183 -0.3532
  897MOL0     C21010  10.105   8.713   2.304  0.6708 -0.2174 -0.4319
  897MOL0     N21011  10.144   8.316   2.653 -0.8016 -0.0210 -0.3957
  897MOL0     N21012  10.268   8.352   2.668  0.8570  0.1052  0.7486
  897MOL0     C21013  10.649   7.781   3.302  0.0104 -0.5000 -0.1453
  897MOL0     C21014  10.706   7.658   3.253 -0.7174 -0.9303 -0.8309
  897MOL0     C21015  10.990   7.417   2.986 -0.3645  0.5071 -0.2689
  897MOL0     C21016  10.915   7.333   2.904 -0.6068  0.6976 -0.0255
  897MOL0     C21017  10.975   7.266   2.802  1.5556 -0.3030  0.1421
  897MOL0     C21018  11.112   7.262   2.788 -0.4661  0.1438  0.6042
  897MOL0     O21019  11.156   7.180   2.689  0.0643  0.0460 -0.2427
  897MOL0     C21020  11.288   7.128   2.675 -0.2328 -0.0997  0.2765
  897MOL0     C21021  11.292   7.064   2.540 -0.1225 -0.1811  0.0446
  897MOL0     C21022  11.263   7.164   2.425  0.2433  0.2314 -0.3960
  897MOL0     C21023  11.370   7.268   2.396 -0.3338 -0.0422 -0.6357
  897MOL0     C21024  11.512   7.228   2.428 -0.1186 -0.5840 -0.0593
  897MOL0     C21025  11.621   7.182   2.465  0.1988  0.4956 -0.6773
  897MOL0     C21026  11.195   7.334   2.878 -1.1817 -0.4721 -1.0769
  897MOL0     C21027  11.133   7.421   2.972  0.7079 -1.0444  0.5241
  897MOL0     H21028  10.703   7.743   2.917 -2.6602  2.1340 -0.3466
  897MOL0     H21029  10.582   7.933   3.007 -0.8094  1.7676  3.0635
  897MOL0     H21030  10.594   8.132   3.092 -0.9999 -0.0525  0.0982
  897MOL0     H21031  10.435   8.060   3.093  1.2891 -0.4546 -1.2289
  897MOL0     H21032  10.383   8.197   3.294  1.0377 -1.7705  0.6028
  897MOL0     H21033  10.546   8.253   3.304 -0.1397 -0.8284  2.0675
  897MOL0     H21034  10.513   8.349   3.051  2.2963 -1.1600  1.5053
  897MOL0     H21035  10.348   8.292   3.057  1.0705  0.7605 -0.3147
  897MOL0     H21036  10.334   8.449   3.264  0.7493 -0.2006  0.4348
  897MOL0     H21037  10.509   8.490   3.227  0.0604 -0.7601  0.0206
  897MOL0     H21038  10.257   8.540   3.050 -0.4790  0.4315 -0.6545
  897MOL0     H21039  10.331   8.667   3.144 -1.1318  1.5105 -2.1705
  897MOL0     H21040  10.420   8.718   2.939  1.4487  1.5343  1.7955
  897MOL0     H21041  10.535   8.631   3.044 -0.0300  0.0931 -0.0727
  897MOL0     H21042  10.577   8.516   2.843 -0.0839 -0.2841 -1.8375
  897MOL0     H21043  10.443   8.421   2.873  2.7619 -0.3922 -0.3159
  897MOL0     H21044  10.466   8.559   2.654  2.2290 -0.4235  1.0231
  897MOL0     H21045  10.364   8.666   2.741 -2.5685 -0.9448 -0.0075
  897MOL0     H21046  10.109   8.614   2.784 -1.3625 -1.0764 -0.2806
  897MOL0     H21047   9.865   8.307   2.695 -0.5896  0.0014  0.3726
  897MOL0     H21048   9.873   8.435   2.803  0.3796 -2.4607  2.1390
  897MOL0     H21049   9.882   8.605   2.629 -1.2475  0.6384 -0.9421
  897MOL0     H21050   9.747   8.493   2.601  0.4241 -1.4959  0.6570
  897MOL0     H21051   9.891   8.381   2.421  2.6134 -0.6238  0.6017
  897MOL0     H21052  10.017   8.489   2.451  0.5093  1.8439  1.3114
  897MOL0     H21053   9.736   8.572   2.375 -1.0062 -0.0071 -3.5548
  897MOL0     H21054   9.876   8.567   2.260 -0.3849  2.5179  0.5983
  897MOL0     H21055   9.941   8.958   2.468 -1.4569  0.0423 -0.4018
  897MOL0     H21056  10.041   9.129   2.515 -0.3170  1.3597 -0.0899
  897MOL0     H21057  10.170   9.065   2.605 -2.9617 -4.1372 -0.0958
  897MOL0     H21058  10.205   9.149   2.443 -1.1268 -2.1528 -1.8037
  897MOL0     H21059  10.531   9.229   2.338  0.8995  2.3335 -0.7847
  897MOL0     H21060  10.774   9.309   2.377  2.4745 -3.3930 -1.7837
  897MOL0     H21061  10.998   9.095   2.689 -1.1823 -0.0280 -1.7359
  897MOL0     H21062  11.101   9.237   2.681 -0.4364  0.9309  0.7794
  897MOL0     H21063  10.855   9.272   2.842  0.6178  2.8867 -1.1137
  897MOL0     H21064  10.984   9.177   2.915  2.4374  0.0559  0.2521
  897MOL0     H21065  10.977   9.431   2.949 -0.6952 -1.5463  0.1652
  897MOL0     H21066  11.019   9.453   2.771 -0.8699 -2.0612 -1.3068
  897MOL0     H21067  11.188   9.330   2.986 -1.3944  0.3217  0.4338
  897MOL0     H21068  11.235   9.340   2.819 -2.0312  0.8739 -0.9374
  897MOL0     H21069  11.179   9.587   3.001  0.0830 -1.6929  1.5793
  897MOL0     H21070  11.211   9.584   2.827 -0.6020 -0.5825 -0.2390
  897MOL0     H21071  11.438   9.519   2.849  0.9075  1.2948 -0.0689
  897MOL0     H21072  11.393   9.651   2.964 -2.4966  0.8298 -1.1331
  897MOL0     H21073  11.423   9.367   3.027 -1.0886  0.7824 -2.6849
  897MOL0     H21074  11.380   9.490   3.155  0.3074 -2.2061  1.4810
  897MOL0     H21075  11.602   9.603   3.111 -0.7003  0.2869  1.0126
  897MOL0     H21076  11.646   9.455   3.008  0.4093 -2.1527  1.7725
  897MOL0     H21077  10.778   9.104   2.747 -0.2276  2.2552  0.1563
  897MOL0     H21078  10.561   8.989   2.691 -0.7567 -1.9827 -1.2529
  897MOL0     H21079  10.312   8.706   2.263 -0.9306 -0.9046 -0.4020
  897MOL0     H21080  10.082   8.617   2.260  0.4899 -0.0995 -0.6014
  897MOL0     H21081  10.632   7.784   3.410  2.6331 -3.8225  0.5463
  897MOL0     H21082  10.719   7.569   3.313 -2.1176 -0.9708 -0.5453
  897MOL0     H21083  10.807   7.329   2.910 -0.6743 -0.0833 -1.2811
  897MOL0     H21084  10.906   7.208   2.742 -0.5945 -0.3036  2.4409
  897MOL0     H21085  11.350   7.218   2.680 -0.6659  0.1441  2.4415
  897MOL0     H21086  11.326   7.070   2.759  1.6962  0.1352 -0.3872
  897MOL0     H21087  11.212   6.990   2.532 -1.7405  1.4843  0.3607
  897MOL0     H21088  11.387   7.011   2.526  0.6968  1.3824 -0.5661
  897MOL0     H21089  11.165   7.213   2.428  0.4914  0.6866  0.9812
  897MOL0     H21090  11.246   7.099   2.338 -2.2482 -3.0859  2.2550
  897MOL0     H21091  11.351   7.363   2.446  2.1464  0.2658 -0.1614
  897MOL0     H21092  11.366   7.290   2.289 -4.5180 -0.2964 -0.6709
  897MOL0     H21093  11.705   7.143   2.518 -0.4408  0.7215  0.5472
  897MOL0     H21094  11.303   7.346   2.868 -1.2037 -0.4848 -1.3361
  897MOL0     H21095  11.198   7.494   3.019  2.8516 -3.2477  1.1922
  898MOL0     O21096   6.084   0.616   7.460 -0.0798  0.3635  0.3207
  898MOL0     C21097   6.178   0.530   7.458  0.2119  0.4411  0.4928
  898MOL0     O21098   6.166   0.402   7.400 -0.0470 -0.5010 -0.4964
  898MOL0     C21099   6.057   0.364   7.329 -0.1312  0.2148 -1.3460
  898MOL0     C21100   6.080   0.263   7.233  0.6029  0.1925  0.2652
  898MOL0     C21101   5.974   0.214   7.150 -0.1640  0.1722  0.0626
  898MOL0     C21102   5.844   0.259   7.165 -0.1675  0.4479 -0.3352
  898MOL0     O21103   5.744   0.215   7.076 -0.6084 -0.5358 -0.2477
  898MOL0     C21104   5.616   0.197   7.137 -0.6083 -0.0159  0.1544
  898MOL0     C21105   5.538   0.108   7.034 -0.0784  0.9201 -0.2922
  898MOL0     C21106   5.387   0.104   7.038  0.2433  0.5179 -0.0388
  898MOL0     C21107   5.357   0.027   7.171  0.4162  0.0110 -0.1830
  898MOL0     C21108   5.209  -0.001   7.197  0.9900  1.2835  0.2589
  898MOL0     C21109   5.138   0.135   7.234  0.1016 -0.2358 -0.4132
  898MOL0     C21110   4.998   0.120   7.287  0.4272  0.3580 -0.2581
  898MOL0     C21111   4.972   0.020   7.400 -0.2201 -0.4263  0.1842
  898MOL0     N21112   5.076   0.045   7.506  0.5175 -0.2754 -0.0530
  898MOL0     C21113   5.079   0.146   7.601  0.0602 -0.4540 -1.0644
  898MOL0     C21114   5.156   0.098   7.701  0.5980  0.3555  0.0263
  898MOL0     C21115   5.198   0.159   7.823  0.3209 -0.1126 -0.5056
  898MOL0     C21116   5.075   0.211   7.908  0.8228 -0.8638  0.3687
  898MOL0     C21117   5.127   0.276   8.036 -0.4061  0.1677  0.3641
  898MOL0     C21118   5.205   0.407   8.004 -0.1680  0.1367 -0.2477
  898MOL0     O21119   5.236   0.467   8.126  0.4098  0.0537 -0.4249
  898MOL0     C21120   5.331   0.560   8.121 -0.4169  0.5649  0.6116
  898MOL0     C21121   5.315   0.701   8.133 -0.5323  0.1006  1.2325
  898MOL0     C21122   5.420   0.795   8.108  0.1512 -1.0034 -0.2208
  898MOL0     C21123   5.388   0.940   8.132 -0.4043 -0.2351  0.4239
  898MOL0     C21124   5.551   0.750   8.097  0.0091 -0.4715 -0.4777
  898MOL0     C21125   5.678   0.837   8.100  0.7905 -1.3552  0.4307
  898MOL0     O21126   5.798   0.767   8.119 -0.3074 -0.0469 -0.1562
  898MOL0     C21127   5.906   0.837   8.172 -0.4644 -0.7550  0.3151
  898MOL0     C21128   5.888   0.954   8.246 -0.3893 -0.2917  0.2427
  898MOL0     C21129   6.001   1.019   8.307 -0.2933 -0.1325  0.3018
  898MOL0     C21130   6.134   0.973   8.274  0.0646 -0.1585  0.1359
  898MOL0     O21131   6.242   1.028   8.342  0.0943  0.8026 -0.1198
  898MOL0     C21132   6.314   1.115   8.260  0.0243  0.5679 -0.5487
  898MOL0     C21133   6.400   1.213   8.357  0.3494  0.3996 -0.3978
  898MOL0     C21134   6.489   1.300   8.273  0.0969 -0.0986 -1.6491
  898MOL0     C21135   6.407   1.421   8.213  0.8787  0.6756 -0.2669
  898MOL0     C21136   6.499   1.534   8.169  0.0390 -1.0451 -0.1188
  898MOL0     C21137   6.579   1.497   8.045  0.0211 -0.7099 -1.0953
  898MOL0     C21138   6.621   1.622   7.970  0.4905  0.4271 -0.4769
  898MOL0     C21139   6.687   1.583   7.838 -0.1661 -0.3780  0.4605
  898MOL0    Cl21140   6.588   1.523   7.699  0.3356  0.0699  0.0770
  898MOL0     C21141   6.147   0.863   8.187 -0.8756  0.0354  0.2517
  898MOL0     C21142   6.036   0.790   8.138 -0.5477 -1.1584  0.2456
  898MOL0     O21143   5.673   0.952   8.058 -0.3645 -0.4431 -0.5237
  898MOL0     C21144   5.572   0.607   8.104  0.2329  0.2243  0.3911
  898MOL0     C21145   5.462   0.521   8.110  0.0458  0.0779 -0.0993
  898MOL0     N21146   5.190  -0.037   7.673 -0.0730  0.3735 -0.2505
  898MOL0     N21147   5.134  -0.072   7.566 -0.0091  0.8947 -0.5016
  898MOL0     C21148   5.822   0.354   7.264  0.0230  1.0111  0.2403
  898MOL0     C21149   5.920   0.402   7.349 -0.6318 -0.4792 -0.3082
  898MOL0     C21150   6.312   0.564   7.508 -0.4964  0.3824  0.2201
  898MOL0     C21151   6.409   0.462   7.536  0.4826 -0.3396 -0.1091
  898MOL0     C21152   6.529   0.491   7.599 -0.6864 -0.1623 -0.0182
  898MOL0     C21153   6.561   0.625   7.632 -1.3392  0.1179  0.4847
  898MOL0     O21154   6.677   0.657   7.699 -0.2955 -0.0253 -0.3901
  898MOL0     C21155   6.761   0.545   7.730  0.5256  0.1426  0.1043
  898MOL0     C21156   6.902   0.610   7.744  0.8838  0.4585 -0.8858
  898MOL0     C21157   6.910   0.701   7.876 -0.3933  0.4522 -0.2155
  898MOL0     C21158   7.006   0.652   7.985  0.1697 -0.1160  0.1929
  898MOL0     C21159   6.949   0.544   8.063  1.2593 -0.2163  0.8841
  898MOL0     C21160   6.886   0.464   8.128 -0.6750 -0.0885 -0.5447
  898MOL0     C21161   6.466   0.725   7.608 -0.3694 -0.1571  0.0031
  898MOL0     C21162   6.343   0.695   7.554  0.4531 -0.2988 -0.8032
  898MOL0     H21163   6.180   0.231   7.208  1.9701  3.6688  0.7191
  898MOL0     H21164   5.982   0.152   7.062  2.5674 -3.6298  2.6944
  898MOL0     H21165   5.637   0.137   7.226 -1.6898 -2.6555 -1.2679
  898MOL0     H21166   5.569   0.291   7.167  0.1284 -0.4506  2.9817
  898MOL0     H21167   5.555   0.151   6.935  0.2105 -0.3118 -0.7923
  898MOL0     H21168   5.578   0.006   7.027 -2.3933 -0.3505  2.6594
  898MOL0     H21169   5.341   0.203   7.049 -2.2586 -0.4489 -1.1696
  898MOL0     H21170   5.346   0.044   6.956 -0.9559  1.2723 -0.0192
  898MOL0     H21171   5.406  -0.071   7.164  1.0591  0.4325 -1.9473
  898MOL0     H21172   5.388   0.084   7.260  3.5927 -0.4836 -0.8239
  898MOL0     H21173   5.164  -0.042   7.105  2.1759  0.7150 -0.0998
  898MOL0     H21174   5.189  -0.072   7.278 -3.1361 -0.5183 -2.0008
  898MOL0     H21175   5.203   0.176   7.311  1.9988 -1.9623 -1.0306
  898MOL0     H21176   5.146   0.206   7.151 -0.2096 -0.1582 -0.3786
  898MOL0     H21177   4.958   0.217   7.318 -2.6980 -0.9556  0.2145
  898MOL0     H21178   4.939   0.085   7.201  0.7008  0.6788 -0.5780
  898MOL0     H21179   4.969  -0.085   7.367 -2.6906 -0.2842 -0.2275
  898MOL0     H21180   4.876   0.052   7.441  1.9670  4.0864  2.4076
  898MOL0     H21181   5.035   0.245   7.599 -1.3410 -0.9994  0.6525
  898MOL0     H21182   5.256   0.090   7.885  3.5244  1.2021 -1.8275
  898MOL0     H21183   5.270   0.234   7.788  0.8909 -2.1479 -4.1430
  898MOL0     H21184   5.008   0.128   7.931 -1.5255 -0.3570 -3.6139
  898MOL0     H21185   5.010   0.288   7.864 -1.5841 -2.2097  1.4015
  898MOL0     H21186   5.189   0.210   8.098  1.0286 -0.4805 -1.6677
  898MOL0     H21187   5.039   0.301   8.096 -0.3894  4.0520 -0.9835
  898MOL0     H21188   5.151   0.474   7.937 -1.7355  2.6258  3.1488
  898MOL0     H21189   5.297   0.379   7.952  2.5667  0.4069  3.9391
  898MOL0     H21190   5.213   0.736   8.144 -0.8224 -0.9421  2.0142
  898MOL0     H21191   5.450   0.990   8.208  2.3963 -1.0372 -1.2087
  898MOL0     H21192   5.397   0.993   8.037 -1.6130 -0.5089  0.1331
  898MOL0     H21193   5.283   0.954   8.160 -0.8889 -1.3886 -0.7270
  898MOL0     H21194   5.795   1.004   8.267 -0.4487  0.0466 -0.7762
  898MOL0     H21195   5.989   1.100   8.379  1.5309 -0.5283  1.0811
  898MOL0     H21196   6.374   1.060   8.188 -1.5214  0.6509 -1.9652
  898MOL0     H21197   6.246   1.184   8.208  0.0448  1.9159  1.1183
  898MOL0     H21198   6.331   1.275   8.415 -1.7978 -0.0553 -2.3222
  898MOL0     H21199   6.464   1.167   8.433  3.7059  6.5133  1.1510
  898MOL0     H21200   6.522   1.252   8.181 -1.1939  0.9456 -2.7068
  898MOL0     H21201   6.579   1.327   8.329 -0.9808 -0.6787  0.5072
  898MOL0     H21202   6.346   1.379   8.132  0.2665  0.1576  0.4514
  898MOL0     H21203   6.350   1.465   8.295  1.4647 -1.5022  1.4094
  898MOL0     H21204   6.570   1.560   8.248 -0.3492 -1.5984  0.4182
  898MOL0     H21205   6.436   1.618   8.137 -1.1746 -2.4648 -1.6220
  898MOL0     H21206   6.660   1.428   8.070 -0.2599 -1.2342 -1.6043
  898MOL0     H21207   6.512   1.444   7.976 -3.0458 -0.2299  1.2947
  898MOL0     H21208   6.677   1.690   8.035  1.0901  0.4675 -1.0244
  898MOL0     H21209   6.526   1.671   7.946  0.2037  0.4850  0.7117
  898MOL0     H21210   6.762   1.506   7.859  0.3741  0.0148  0.0134
  898MOL0     H21211   6.739   1.671   7.798 -0.6601 -0.1703  0.2750
  898MOL0     H21212   6.244   0.820   8.166 -1.5632 -1.6298  0.3949
  898MOL0     H21213   6.048   0.699   8.081 -4.5970 -1.3587 -0.6219
  898MOL0     H21214   5.674   0.571   8.099  0.2667  0.4825 -2.3420
  898MOL0     H21215   5.483   0.416   8.125 -2.5473 -0.4327  0.5186
  898MOL0     H21216   5.720   0.393   7.270 -0.8045 -0.0179 -3.9533
  898MOL0     H21217   5.888   0.470   7.428 -1.2590  1.4584 -2.1229
  898MOL0     H21218   6.384   0.364   7.495 -0.5732  0.6151 -1.9045
  898MOL0     H21219   6.597   0.407   7.605 -0.2525  0.1959  0.1320
  898MOL0     H21220   6.738   0.491   7.823  1.5652 -0.9035 -0.2327
  898MOL0     H21221   6.779   0.474   7.649  2.2816 -0.0906  0.6681
  898MOL0     H21222   6.919   0.665   7.650  1.6036 -1.2578 -1.8079
  898MOL0     H21223   6.974   0.528   7.752 -0.2847 -0.5328 -0.1931
  898MOL0     H21224   6.809   0.716   7.916  0.0728  0.4084  1.0270
  898MOL0     H21225   6.959   0.797   7.858  1.4327 -0.1096  1.4293
  898MOL0     H21226   7.031   0.739   8.045 -0.1516 -0.1376  0.3556
  898MOL0     H21227   7.101   0.620   7.939 -1.1118 -2.6343 -0.8895
  898MOL0     H21228   6.842   0.400   8.201  0.0251  1.0205  0.9142
  898MOL0     H21229   6.497   0.827   7.626  0.1508 -0.1483 -0.8626
  898MOL0     H21230   6.267   0.770   7.537 -0.7224 -1.2215  0.1907
  899MOL0     O21231   1.921   2.400   3.495  0.3158 -0.6144  0.1865
  899MOL0     C21232   1.998   2.405   3.588 -1.0826 -0.0226  0.6245
  899MOL0     O21233   1.972   2.419   3.725  0.1373 -0.1092 -0.1488
  899MOL0     C21234   1.838   2.439   3.758  0.4344  0.1727  0.0333
  899MOL0     C21235   1.733   2.361   3.705 -0.1009  0.1387 -0.8625
  899MOL0     C21236   1.602   2.381   3.751 -0.3964 -0.2262  0.3405
  899MOL0     C21237   1.565   2.478   3.841 -0.4078 -0.3015 -0.2323
  899MOL0     O21238   1.435   2.488   3.878 -0.1549  0.4875 -0.3526
  899MOL0     C21239   1.395   2.604   3.950  0.3312 -0.2196  0.6174
  899MOL0     C21240   1.247   2.587   4.005 -0.9621 -0.1907  0.0607
  899MOL0     C21241   1.144   2.602   3.890  0.6952 -0.8088  0.4689
  899MOL0     C21242   1.089   2.463   3.856  0.7133  0.4120  0.1443
  899MOL0     C21243   0.972   2.426   3.944  0.4460 -0.3785 -0.3927
  899MOL0     C21244   0.944   2.281   3.945  0.5796 -0.3603  0.8444
  899MOL0     C21245   0.807   2.249   4.025  0.3336  0.3890  0.1609
  899MOL0     C21246   0.807   2.274   4.177  1.0749  0.1304  0.6860
  899MOL0     N21247   0.673   2.320   4.230  0.1326  1.0332  0.6909
  899MOL0     C21248   0.563   2.242   4.212  0.5979 -0.3651 -0.6993
  899MOL0     C21249   0.460   2.320   4.250 -0.5873  0.4490  1.3565
  899MOL0     C21250   0.306   2.301   4.232 -0.3483  0.7793  0.7420
  899MOL0     C21251   0.228   2.324   4.368 -0.7093  0.0569 -0.5909
  899MOL0     C21252   0.092   2.263   4.365 -0.2075  1.0595 -0.9763
  899MOL0     C21253   0.012   2.290   4.243  0.0210  0.4580  0.4722
  899MOL0     O21254  -0.114   2.237   4.276 -0.6990 -0.6224 -0.3428
  899MOL0     C21255  -0.217   2.336   4.270  0.0512 -0.8227  0.5584
  899MOL0     C21256  -0.305   2.361   4.379  0.0882 -0.2078  0.2728
  899MOL0     C21257  -0.423   2.441   4.364 -0.3830  0.5114  0.0743
  899MOL0     C21258  -0.502   2.454   4.489 -0.7996  0.1231 -0.9474
  899MOL0     C21259  -0.453   2.501   4.233  0.8422  0.5128 -1.0020
  899MOL0     C21260  -0.579   2.579   4.209 -0.2130  0.5320 -0.4109
  899MOL0     O21261  -0.651   2.628   4.316  0.3312 -0.0148  0.7061
  899MOL0     C21262  -0.790   2.632   4.312 -0.0176  0.1828  0.3404
  899MOL0     C21263  -0.873   2.525   4.265  0.5889  0.4105  0.2347
  899MOL0     C21264  -1.003   2.544   4.238  0.4995 -0.1840 -1.1773
  899MOL0     C21265  -1.059   2.668   4.267  0.8603  0.2378  0.9619
  899MOL0     O21266  -1.199   2.672   4.243  0.3463  0.5944 -0.6313
  899MOL0     C21267  -1.269   2.799   4.254  0.9969 -0.3568 -0.2532
  899MOL0     C21268  -1.289   2.833   4.402 -0.3482  0.9565  0.7300
  899MOL0     C21269  -1.371   2.959   4.425  0.2876 -0.1375 -0.3572
  899MOL0     C21270  -1.494   2.930   4.504  0.7060  0.3595 -0.4437
  899MOL0     C21271  -1.588   2.849   4.409  0.0023  0.1989  0.5993
  899MOL0     C21272  -1.691   2.772   4.486 -0.0566 -0.3191 -0.3273
  899MOL0     C21273  -1.768   2.678   4.389 -0.4314 -1.1394  0.2806
  899MOL0     C21274  -1.868   2.590   4.461  0.5075  0.5178 -0.4326
  899MOL0    Cl21275  -2.020   2.690   4.473  0.3362  0.1521  0.3208
  899MOL0     C21276  -0.983   2.775   4.309  0.4930 -0.1565 -0.3955
  899MOL0     C21277  -0.849   2.757   4.340  0.5257  0.4028  0.2313
  899MOL0     O21278  -0.613   2.576   4.092  0.3525  0.3050 -0.2623
  899MOL0     C21279  -0.367   2.469   4.128 -0.9151  0.6454  0.4628
  899MOL0     C21280  -0.248   2.401   4.147 -1.1718  0.5042 -0.2021
  899MOL0     N21281   0.511   2.439   4.304 -0.3938  0.9650  0.0355
  899MOL0     N21282   0.639   2.439   4.282  0.2577  0.2849  0.3703
  899MOL0     C21283   1.666   2.567   3.880 -0.4525 -0.3290 -0.3404
  899MOL0     C21284   1.802   2.534   3.846  0.1750 -0.2594 -0.1068
  899MOL0     C21285   2.142   2.419   3.561 -0.2984 -0.8363  0.8461
  899MOL0     C21286   2.188   2.434   3.426  0.3714 -0.2312 -0.0395
  899MOL0     C21287   2.325   2.449   3.398 -0.7076 -1.0509  0.2708
  899MOL0     C21288   2.421   2.469   3.496 -0.2134  0.8393 -0.6623
  899MOL0     O21289   2.542   2.507   3.444 -0.1190  0.0364 -0.7103
  899MOL0     C21290   2.659   2.472   3.531 -0.3756  0.2349 -0.3543
  899MOL0     C21291   2.793   2.470   3.446  1.0095 -0.1109  0.4370
  899MOL0     C21292   2.803   2.348   3.360 -0.0709  0.6648  0.6197
  899MOL0     C21293   2.911   2.372   3.253  1.0081  0.0898  0.2510
  899MOL0     C21294   2.887   2.291   3.132  1.6039 -0.3276 -0.1759
  899MOL0     C21295   2.876   2.233   3.027  0.4233  0.9691  0.6860
  899MOL0     C21296   2.376   2.451   3.630 -0.1626 -0.6806 -0.0596
  899MOL0     C21297   2.243   2.428   3.666  0.3199 -0.0956 -0.1876
  899MOL0     H21298   1.763   2.284   3.635  2.0315  0.4655 -0.3973
  899MOL0     H21299   1.538   2.307   3.705  1.3439 -1.0343 -0.8732
  899MOL0     H21300   1.463   2.623   4.033 -0.0554  0.6740  0.7420
  899MOL0     H21301   1.398   2.686   3.878  3.2185 -0.3585  0.4722
  899MOL0     H21302   1.252   2.489   4.055  3.2578 -2.2184 -3.5962
  899MOL0     H21303   1.229   2.670   4.074 -1.2958  1.5915 -2.0480
  899MOL0     H21304   1.061   2.663   3.927  1.3496  1.7868 -1.9879
  899MOL0     H21305   1.182   2.657   3.804 -1.1374  2.1573  1.4151
  899MOL0     H21306   1.057   2.470   3.752  0.5522  0.4494  0.1954
  899MOL0     H21307   1.171   2.391   3.852  4.2883  4.0118  1.6916
  899MOL0     H21308   0.998   2.452   4.047 -1.4914  4.4741 -0.8648
  899MOL0     H21309   0.886   2.487   3.913  1.1962  0.4429 -0.9414
  899MOL0     H21310   0.932   2.247   3.842 -1.1549  1.1005  0.5121
  899MOL0     H21311   1.027   2.228   3.992  0.9251 -2.3855 -1.7966
  899MOL0     H21312   0.728   2.310   3.981  1.8843  1.5713 -1.1026
  899MOL0     H21313   0.785   2.144   4.000  0.2913  0.5581 -0.5390
  899MOL0     H21314   0.885   2.348   4.198  0.5406  0.4187  1.6796
  899MOL0     H21315   0.827   2.181   4.230 -0.7104  0.2382  1.6151
  899MOL0     H21316   0.555   2.143   4.168 -0.3863 -0.8781  0.5969
  899MOL0     H21317   0.268   2.370   4.156 -1.4132  0.2169  0.7292
  899MOL0     H21318   0.283   2.200   4.196 -0.1431  0.8260  0.4791
  899MOL0     H21319   0.235   2.427   4.405 -2.7733  0.2769 -0.7166
  899MOL0     H21320   0.278   2.258   4.440 -1.0186  1.9908  1.5188
  899MOL0     H21321   0.037   2.290   4.455  0.9536 -1.6359  0.6568
  899MOL0     H21322   0.093   2.153   4.366 -3.7654  0.9224  0.6210
  899MOL0     H21323   0.054   2.257   4.148 -1.3033  1.2912 -0.4362
  899MOL0     H21324   0.003   2.399   4.235 -2.3350  0.2686 -0.4522
  899MOL0     H21325  -0.285   2.297   4.465 -0.2237  0.5670  0.9370
  899MOL0     H21326  -0.600   2.405   4.482 -1.2103  0.5088  1.1997
  899MOL0     H21327  -0.457   2.410   4.579 -0.7547 -0.9878 -1.5019
  899MOL0     H21328  -0.521   2.560   4.507 -1.9070 -0.3714  1.1231
  899MOL0     H21329  -0.837   2.426   4.240 -1.7891 -0.1383 -1.2829
  899MOL0     H21330  -1.071   2.466   4.205 -4.0404  1.9811  2.0257
  899MOL0     H21331  -1.224   2.881   4.196  1.8921 -1.2713 -0.8654
  899MOL0     H21332  -1.363   2.778   4.201  0.8396 -2.8552  0.9138
  899MOL0     H21333  -1.324   2.752   4.466  2.9098 -0.6854  0.6763
  899MOL0     H21334  -1.187   2.836   4.443  0.4936 -2.1665 -0.8352
  899MOL0     H21335  -1.405   3.019   4.340  1.6617  2.7707  1.0119
  899MOL0     H21336  -1.300   3.025   4.475  0.7327  0.2811 -1.5187
  899MOL0     H21337  -1.466   2.877   4.596  0.1465  0.3386 -0.2826
  899MOL0     H21338  -1.553   3.016   4.536 -1.1338 -0.9555 -0.1488
  899MOL0     H21339  -1.525   2.770   4.366  0.1474  0.8912 -0.5027
  899MOL0     H21340  -1.637   2.903   4.327 -1.3487 -1.8378 -0.0241
  899MOL0     H21341  -1.630   2.708   4.551 -0.4328  0.6184  0.9905
  899MOL0     H21342  -1.754   2.845   4.536  2.6566  4.1797 -2.8010
  899MOL0     H21343  -1.702   2.617   4.326  2.4176  0.5288  1.4799
  899MOL0     H21344  -1.826   2.751   4.332 -0.3425  0.4490  2.1244
  899MOL0     H21345  -1.822   2.578   4.559 -0.8586 -0.0586  0.1692
  899MOL0     H21346  -1.890   2.491   4.421 -0.5393  0.5473  0.0314
  899MOL0     H21347  -1.019   2.872   4.344  2.2883  1.2680 -2.2841
  899MOL0     H21348  -0.784   2.832   4.384  0.9703  0.4304 -0.4488
  899MOL0     H21349  -0.397   2.504   4.029  0.1253  0.8537  0.2143
  899MOL0     H21350  -0.186   2.377   4.061 -1.5232 -0.6146 -0.1541
  899MOL0     H21351   1.654   2.651   3.948 -0.8958 -1.6041  1.2165
  899MOL0     H21352   1.874   2.604   3.888  0.6459 -0.2062 -0.9798
  899MOL0     H21353   2.112   2.427   3.350  1.5424 -2.0072 -1.1151
  899MOL0     H21354   2.359   2.464   3.296  2.9649 -3.1204  1.0116
  899MOL0     H21355   2.664   2.544   3.614 -3.2276 -0.2690  0.3628
  899MOL0     H21356   2.649   2.371   3.572  1.1809 -0.1465 -0.8360
  899MOL0     H21357   2.874   2.461   3.520 -0.9484  0.0341  2.7352
  899MOL0     H21358   2.801   2.557   3.379 -0.6967 -1.8938 -2.2707
  899MOL0     H21359   2.708   2.328   3.309  1.0983  0.1885 -1.4752
  899MOL0     H21360   2.838   2.260   3.415  1.2392  2.4561  2.8427
  899MOL0     H21361   3.013   2.354   3.290  0.9053 -0.8171  0.1064
  899MOL0     H21362   2.924   2.476   3.221 -0.6050  1.3317  3.2314
  899MOL0     H21363   2.843   2.176   2.943 -2.5512  0.5830  2.0092
  899MOL0     H21364   2.446   2.461   3.713 -2.2847  0.2390  1.7009
  899MOL0     H21365   2.216   2.421   3.771  2.8226  1.0971  0.6194
  900MOL0     O21366   4.373   9.361  11.256 -0.4720 -0.5596  0.2668
  900MOL0     C21367   4.334   9.261  11.317 -0.2928 -0.3578 -0.0839
  900MOL0     O21368   4.211   9.197  11.307 -0.6592  0.6294  0.1619
  900MOL0     C21369   4.117   9.261  11.233  0.6820  0.4776  0.2195
  900MOL0     C21370   4.134   9.341  11.113  0.9628 -0.0307  0.8029
  900MOL0     C21371   4.024   9.388  11.042 -0.2010  0.7555 -0.5290
  900MOL0     C21372   3.892   9.377  11.087 -0.5663 -0.5934  0.4032
  900MOL0     O21373   3.795   9.417  10.993  0.1214  0.2152 -0.1558
  900MOL0     C21374   3.657   9.381  11.030 -0.3898 -1.0005 -0.7380
  900MOL0     C21375   3.571   9.425  10.910 -0.5160 -0.2484  0.3165
  900MOL0     C21376   3.591   9.333  10.790  0.2621  0.0887  0.2282
  900MOL0     C21377   3.526   9.383  10.661  0.6742  0.1737 -0.0774
  900MOL0     C21378   3.367   9.373  10.667  0.1430 -0.5982 -0.1358
  900MOL0     C21379   3.289   9.241  10.705 -0.0024 -0.5412  0.2314
  900MOL0     C21380   3.343   9.111  10.644  0.7779 -0.2536  0.2038
  900MOL0     C21381   3.265   8.983  10.692 -0.1326 -0.1402  0.0022
  900MOL0     N21382   3.128   8.967  10.638  0.5153 -0.3067  0.1588
  900MOL0     C21383   3.097   8.970  10.505 -0.4861 -0.9431  0.1213
  900MOL0     C21384   2.971   8.918  10.497  0.0650  0.3765 -1.2846
  900MOL0     C21385   2.868   8.899  10.388 -0.6032  0.4771 -0.4909
  900MOL0     C21386   2.936   8.834  10.261  0.4031 -0.0706 -0.7118
  900MOL0     C21387   3.001   8.697  10.312 -0.5717 -0.2801  0.0304
  900MOL0     C21388   3.071   8.632  10.202  0.0451  0.0864 -0.0036
  900MOL0     O21389   3.186   8.710  10.155  0.3232 -0.0090  0.7939
  900MOL0     C21390   3.290   8.740  10.245 -0.0368  0.4564 -0.4843
  900MOL0     C21391   3.372   8.852  10.217  0.4838 -0.1550  0.3650
  900MOL0     C21392   3.476   8.905  10.297 -0.3526 -0.1074  0.3863
  900MOL0     C21393   3.557   9.022  10.243 -0.3544 -0.0184 -0.6403
  900MOL0     C21394   3.507   8.820  10.414 -0.2970 -0.2191 -0.0861
  900MOL0     C21395   3.617   8.854  10.524  0.2189  0.7980  0.6229
  900MOL0     O21396   3.645   8.767  10.624 -0.0266  0.0296 -0.7818
  900MOL0     C21397   3.684   8.835  10.737 -0.5377 -0.0772  0.0030
  900MOL0     C21398   3.608   8.914  10.822  0.3491 -0.2301  0.1253
  900MOL0     C21399   3.670   8.966  10.941  0.8090 -0.0838  0.3225
  900MOL0     C21400   3.806   8.938  10.966  0.7600 -0.4937  0.4478
  900MOL0     O21401   3.870   8.988  11.078  0.4298  0.1165  0.6699
  900MOL0     C21402   3.818   8.929  11.200 -0.1183  0.6133 -0.4082
  900MOL0     C21403   3.907   8.808  11.237 -0.3130  0.6178 -0.1164
  900MOL0     C21404   3.952   8.806  11.388 -0.1011 -0.6931  0.1176
  900MOL0     C21405   4.064   8.708  11.412  0.0541 -0.0663 -0.1377
  900MOL0     C21406   4.119   8.715  11.553 -0.5654  0.1725 -0.7134
  900MOL0     C21407   4.235   8.621  11.563 -0.1006  0.4989 -0.4307
  900MOL0     C21408   4.350   8.667  11.655 -0.0666  0.1486 -0.1269
  900MOL0     C21409   4.328   8.619  11.802  0.1804  0.1021  0.5571
  900MOL0    Cl21410   4.177   8.694  11.870 -0.0204  0.0588 -0.6637
  900MOL0     C21411   3.877   8.852  10.886  0.2813 -0.0460  0.6909
  900MOL0     C21412   3.817   8.805  10.766  0.8943  0.2377 -0.5714
  900MOL0     O21413   3.672   8.957  10.504  0.0691 -0.1106 -0.1449
  900MOL0     C21414   3.427   8.703  10.450  0.3162  0.0513 -0.8109
  900MOL0     C21415   3.323   8.670  10.361  0.3137 -0.5667  0.9213
  900MOL0     N21416   2.932   8.880  10.622 -0.2971 -0.5523 -0.3410
  900MOL0     N21417   3.027   8.901  10.705 -1.0021 -0.1523  0.1464
  900MOL0     C21418   3.869   9.307  11.204 -0.2613  0.3730 -1.0242
  900MOL0     C21419   3.980   9.249  11.270  0.4012 -0.2690 -0.0997
  900MOL0     C21420   4.436   9.202  11.410  0.6092  0.2186  1.0000
  900MOL0     C21421   4.531   9.278  11.478  0.0055 -0.0536  0.0996
  900MOL0     C21422   4.618   9.207  11.559 -1.0438 -0.4270 -0.6131
  900MOL0     C21423   4.616   9.066  11.567 -0.5456  0.0575 -0.1761
  900MOL0     O21424   4.692   8.982  11.640  0.9008  0.2159 -0.1745
  900MOL0     C21425   4.760   9.041  11.758  0.4077  0.2666 -0.2339
  900MOL0     C21426   4.657   9.030  11.869  0.0461 -0.5961 -0.4910
  900MOL0     C21427   4.609   8.885  11.880 -1.1345  0.5970 -0.4087
  900MOL0     C21428   4.685   8.812  11.989  0.5447 -0.3462 -0.0955
  900MOL0     C21429   4.812   8.772  11.938 -0.0571  0.7911 -0.6349
  900MOL0     C21430   4.926   8.734  11.907 -0.5478  0.2415 -0.5241
  900MOL0     C21431   4.518   8.993  11.497 -0.3940  0.2758 -0.1647
  900MOL0     C21432   4.429   9.064  11.425  0.0928  0.1650 -0.1250
  900MOL0     H21433   4.234   9.344  11.072  1.1889 -1.8184  1.1463
  900MOL0     H21434   4.041   9.442  10.950  0.3284  1.4873 -0.0190
  900MOL0     H21435   3.641   9.274  11.038 -0.9573 -0.7605  3.1756
  900MOL0     H21436   3.628   9.422  11.128  0.3022 -2.6574  0.2017
  900MOL0     H21437   3.466   9.444  10.933 -0.9919 -1.1202 -1.0479
  900MOL0     H21438   3.610   9.523  10.881 -2.3242 -0.4197 -3.1407
  900MOL0     H21439   3.697   9.325  10.768  0.6291  0.5166  1.7120
  900MOL0     H21440   3.552   9.232  10.808 -0.9702 -0.3856 -4.0653
  900MOL0     H21441   3.557   9.488  10.663  0.7652  0.1501  2.4732
  900MOL0     H21442   3.573   9.333  10.576  2.5427  0.2434  0.8735
  900MOL0     H21443   3.330   9.451  10.736 -0.6613 -1.3340  0.2891
  900MOL0     H21444   3.333   9.405  10.568  0.4540 -1.8785 -0.6779
  900MOL0     H21445   3.276   9.223  10.812 -5.2780  0.1974 -0.0075
  900MOL0     H21446   3.189   9.270  10.670  0.4459  1.6303  0.6108
  900MOL0     H21447   3.343   9.117  10.535  2.2985 -0.0034  0.1890
  900MOL0     H21448   3.449   9.105  10.671  0.7756 -0.4690  0.1609
  900MOL0     H21449   3.257   8.995  10.801  1.8797 -1.0842  0.3125
  900MOL0     H21450   3.314   8.891  10.659 -1.9682 -1.0664 -0.2402
  900MOL0     H21451   3.156   8.994  10.417  0.4471  1.5471  1.3224
  900MOL0     H21452   2.790   8.830  10.421  0.1701 -0.8284 -1.3339
  900MOL0     H21453   2.823   8.997  10.367 -1.4750 -0.0679 -1.2177
  900MOL0     H21454   3.016   8.899  10.225  0.7645 -1.2560 -2.1427
  900MOL0     H21455   2.870   8.831  10.174 -1.2734  0.4380  0.4889
  900MOL0     H21456   2.929   8.629  10.359  1.2482 -0.8302  2.1888
  900MOL0     H21457   3.076   8.720  10.388 -0.2973  0.4357 -0.4522
  900MOL0     H21458   3.009   8.606  10.116 -1.7723  2.1508  0.6046
  900MOL0     H21459   3.111   8.536  10.236  2.9974  1.7012  1.4648
  900MOL0     H21460   3.340   8.913  10.132  0.4056  2.4609  2.1689
  900MOL0     H21461   3.660   8.996  10.219  0.3513  0.8084  1.2846
  900MOL0     H21462   3.506   9.082  10.168  0.0044  1.2078  0.0794
  900MOL0     H21463   3.566   9.090  10.328  0.9418 -0.3261 -0.5095
  900MOL0     H21464   3.503   8.922  10.797  0.6609  1.2719 -0.8514
  900MOL0     H21465   3.621   9.036  11.008  3.8895  0.0814  2.6005
  900MOL0     H21466   3.835   9.005  11.277 -2.4782 -0.5169  1.3590
  900MOL0     H21467   3.710   8.918  11.195  0.0143 -1.7930  0.5149
  900MOL0     H21468   3.844   8.723  11.209 -0.3436  0.9941 -1.2593
  900MOL0     H21469   3.997   8.809  11.175  0.0994  0.5654  0.4733
  900MOL0     H21470   3.861   8.771  11.437 -2.2942  0.7928 -2.6159
  900MOL0     H21471   3.990   8.903  11.422 -2.6776  0.8845 -1.1772
  900MOL0     H21472   4.029   8.605  11.400 -0.3066  0.0799 -0.3324
  900MOL0     H21473   4.144   8.731  11.340  1.9113  2.4435  2.4868
  900MOL0     H21474   4.037   8.683  11.619 -2.2720  1.0691 -2.3000
  900MOL0     H21475   4.154   8.818  11.569  0.6110 -0.4981  1.4350
  900MOL0     H21476   4.205   8.523  11.602  1.1843  0.4673  0.5450
  900MOL0     H21477   4.282   8.620  11.465  0.2269 -1.1044 -0.2876
  900MOL0     H21478   4.367   8.775  11.650  0.5777  0.1323  1.3127
  900MOL0     H21479   4.441   8.628  11.610 -0.9691  0.0062 -1.9440
  900MOL0     H21480   4.407   8.631  11.877  0.6783 -1.4296  0.3215
  900MOL0     H21481   4.316   8.510  11.798  0.2273  0.1241 -0.4450
  900MOL0     H21482   3.981   8.823  10.898  0.6833 -0.2386 -2.4253
  900MOL0     H21483   3.877   8.736  10.707 -0.8527 -1.4108 -0.5007
  900MOL0     H21484   3.466   8.635  10.524  0.1904 -0.1653 -0.9451
  900MOL0     H21485   3.267   8.580  10.384  1.0036 -2.3876 -3.4411
  900MOL0     H21486   3.767   9.288  11.235  0.0638  0.3685  0.0965
  900MOL0     H21487   3.960   9.215  11.371  1.3951  1.5139  0.7461
  900MOL0     H21488   4.529   9.386  11.472 -1.8684  0.0520  1.5910
  900MOL0     H21489   4.686   9.274  11.611 -2.7144  0.5853  0.3664
  900MOL0     H21490   4.858   8.998  11.778  0.4243  1.5358  2.9937
  900MOL0     H21491   4.774   9.150  11.754 -1.6003  0.6869  1.8330
  900MOL0     H21492   4.572   9.094  11.842  0.5277 -0.3365 -1.4526
  900MOL0     H21493   4.698   9.070  11.962  0.7590 -0.8967 -0.6735
  900MOL0     H21494   4.622   8.816  11.796  1.6074 -0.9025  1.1095
  900MOL0     H21495   4.505   8.898  11.912 -0.6822 -1.3307  2.1493
  900MOL0     H21496   4.638   8.720  12.026  3.6885 -2.4214 -0.8969
  900MOL0     H21497   4.708   8.877  12.074  1.8397 -0.9764  0.0572
  900MOL0     H21498   5.030   8.713  11.892 -0.4069  0.2738  0.3340
  900MOL0     H21499   4.501   8.886  11.498 -0.6944  0.2768 -2.1850
  900MOL0     H21500   4.351   9.003  11.381  1.0996 -0.7453 -0.6911
  901MOL0     O21501   3.468   9.176  11.220  0.0572 -0.1100  0.0255
  901MOL0     C21502   3.380   9.200  11.300 -0.7546  0.1879 -0.0269
  901MOL0     O21503   3.376   9.148  11.426 -0.1319  0.4708 -0.0535
  901MOL0     C21504   3.480   9.089  11.486 -0.2425 -0.5643  0.6334
  901MOL0     C21505   3.564   9.152  11.576 -0.8178 -0.0467 -0.4515
  901MOL0     C21506   3.678   9.092  11.640 -0.2503 -0.4925  1.0696
  901MOL0     C21507   3.700   8.958  11.613  0.6526  0.7034  0.1615
  901MOL0     O21508   3.798   8.887  11.676 -0.3195 -0.0634  0.2296
  901MOL0     C21509   3.864   8.924  11.788 -0.1955  0.0022 -0.2486
  901MOL0     C21510   3.982   9.013  11.765 -0.3160 -1.1549  0.7229
  901MOL0     C21511   4.049   9.079  11.882 -0.1242 -0.9761 -0.8931
  901MOL0     C21512   4.195   9.117  11.860 -0.2386  0.1839 -0.4564
  901MOL0     C21513   4.227   9.188  11.725  0.6808  0.4835  0.6109
  901MOL0     C21514   4.152   9.324  11.731 -0.6605 -0.2109 -0.0198
  901MOL0     C21515   4.201   9.431  11.636 -0.7612  0.9447 -0.0768
  901MOL0     C21516   4.134   9.563  11.672 -0.5926  0.5448 -1.2043
  901MOL0     N21517   3.995   9.549  11.641 -0.2537  0.2036 -0.4207
  901MOL0     C21518   3.928   9.555  11.518 -0.6694 -0.4567 -0.4571
  901MOL0     C21519   3.796   9.548  11.552  0.6651 -0.2126  0.0011
  901MOL0     C21520   3.683   9.535  11.452  0.1660 -0.1828  0.5046
  901MOL0     C21521   3.572   9.640  11.472 -0.1298  0.0414 -0.4793
  901MOL0     C21522   3.451   9.592  11.372  0.1080 -0.2578 -0.6739
  901MOL0     C21523   3.329   9.679  11.379 -0.3294 -0.4171 -0.3689
  901MOL0     O21524   3.250   9.644  11.493  0.2935  0.2081  0.2282
  901MOL0     C21525   3.121   9.692  11.502  0.3589 -0.5199  0.4110
  901MOL0     C21526   3.036   9.624  11.587  0.0696  0.2443 -0.2415
  901MOL0     C21527   2.901   9.667  11.600 -0.3684 -0.3900  0.1994
  901MOL0     C21528   2.817   9.597  11.713 -0.4249 -0.5961  0.1132
  901MOL0     C21529   2.845   9.753  11.505  0.1932  0.5736  0.5787
  901MOL0     C21530   2.689   9.789  11.496 -0.2117 -0.6366  0.0354
  901MOL0     O21531   2.588   9.737  11.585  0.4982  0.0495 -0.0859
  901MOL0     C21532   2.467   9.800  11.575 -0.5195 -0.9037  0.3070
  901MOL0     C21533   2.450   9.925  11.634 -0.4845  1.0452  0.7787
  901MOL0     C21534   2.331   9.990  11.638 -0.0567  0.1259 -0.6020
  901MOL0     C21535   2.205   9.933  11.601 -0.3728 -0.5833 -0.8236
  901MOL0     O21536   2.079   9.994  11.601 -0.0360  0.0554  0.0452
  901MOL0     C21537   2.068  10.136  11.627 -0.8661  0.6596  0.0131
  901MOL0     C21538   1.939  10.176  11.550 -0.3815 -0.0535 -0.0755
  901MOL0     C21539   1.818  10.176  11.638 -0.0525  0.5699 -0.0124
  901MOL0     C21540   1.731  10.053  11.614 -0.7030 -0.0996 -0.1902
  901MOL0     C21541   1.624  10.026  11.717 -0.2933 -0.1916  0.9281
  901MOL0     C21542   1.542   9.906  11.666 -0.3533 -0.3994  0.1269
  901MOL0     C21543   1.472   9.839  11.788 -0.7740 -0.8972  0.7414
  901MOL0     C21544   1.423   9.701  11.750  0.4522 -0.2339  0.4105
  901MOL0    Cl21545   1.299   9.711  11.623  0.1268 -0.4781 -0.2512
  901MOL0     C21546   2.222   9.809  11.540 -0.4780  0.7930 -0.1712
  901MOL0     C21547   2.344   9.743  11.528  0.6709  0.1976  0.6753
  901MOL0     O21548   2.675   9.871  11.405 -0.0717  0.0665  0.0108
  901MOL0     C21549   2.937   9.816  11.419  0.0540  0.7579 -0.3529
  901MOL0     C21550   3.072   9.798  11.419  0.5407  0.0895 -0.3650
  901MOL0     N21551   3.784   9.531  11.693 -0.4259 -0.2578  0.4038
  901MOL0     N21552   3.902   9.543  11.738 -0.3632 -0.5976  0.3047
  901MOL0     C21553   3.618   8.894  11.522  0.8271  0.4152  1.0598
  901MOL0     C21554   3.514   8.958  11.459  0.3970  0.7297  0.7863
  901MOL0     C21555   3.278   9.293  11.252  0.4623 -0.4639 -0.2245
  901MOL0     C21556   3.184   9.323  11.344 -0.2226 -0.8523  0.4044
  901MOL0     C21557   3.072   9.397  11.302 -0.5703  0.4075  0.2949
  901MOL0     C21558   3.051   9.438  11.172 -0.9915  0.3528 -0.0918
  901MOL0     O21559   2.945   9.516  11.131  0.6426 -0.7522 -0.1571
  901MOL0     C21560   2.826   9.531  11.210  0.3340  0.3320 -0.8062
  901MOL0     C21561   2.735   9.410  11.213  0.0217 -0.5782  0.0394
  901MOL0     C21562   2.618   9.439  11.305  0.4442 -0.0794 -0.1857
  901MOL0     C21563   2.530   9.317  11.316  0.5397 -0.7101 -0.0228
  901MOL0     C21564   2.421   9.341  11.416 -0.8415 -0.5197 -0.4904
  901MOL0     C21565   2.355   9.363  11.510 -0.6172 -0.1707  0.3360
  901MOL0     C21566   3.148   9.397  11.079 -0.9459  0.4521 -0.2600
  901MOL0     C21567   3.263   9.331  11.118 -1.3795  0.0852  0.1901
  901MOL0     H21568   3.542   9.254  11.604  2.3192  0.0824  2.1343
  901MOL0     H21569   3.733   9.152  11.711  3.2143 -0.8569 -1.0537
  901MOL0     H21570   3.795   8.975  11.856 -0.4080 -2.9954  2.0184
  901MOL0     H21571   3.913   8.830  11.817 -0.0169 -0.0663 -0.7617
  901MOL0     H21572   4.045   8.950  11.701 -1.7517 -0.9060 -1.0221
  901MOL0     H21573   3.946   9.097  11.705 -1.5850 -0.7538  2.0106
  901MOL0     H21574   3.993   9.170  11.908 -0.7339 -1.6574  0.2709
  901MOL0     H21575   4.041   9.007  11.964  2.8071 -2.5222 -1.8614
  901MOL0     H21576   4.218   9.177  11.948  0.0907 -1.4955  0.6587
  901MOL0     H21577   4.250   9.023  11.872  0.2491  0.6554  1.2616
  901MOL0     H21578   4.334   9.200  11.705  0.5881 -1.8292 -1.7725
  901MOL0     H21579   4.189   9.120  11.648  0.1692  2.1328 -0.6319
  901MOL0     H21580   4.045   9.320  11.707  0.1352  0.5945 -4.5562
  901MOL0     H21581   4.157   9.360  11.835  5.4358  0.8082 -0.2968
  901MOL0     H21582   4.310   9.431  11.641 -0.6122 -1.4307 -1.6303
  901MOL0     H21583   4.169   9.405  11.534 -1.6543 -1.1327  0.6765
  901MOL0     H21584   4.189   9.641  11.619 -2.5307  1.4369 -1.9911
  901MOL0     H21585   4.148   9.575  11.780  1.0499 -1.6633 -1.0871
  901MOL0     H21586   3.961   9.543  11.415 -1.1514 -1.4998 -0.5043
  901MOL0     H21587   3.732   9.551  11.355 -1.4425  0.4170 -0.2426
  901MOL0     H21588   3.641   9.434  11.448  0.4336 -0.2607 -1.0683
  901MOL0     H21589   3.604   9.743  11.451  2.2791 -0.8997 -1.7892
  901MOL0     H21590   3.542   9.629  11.577 -1.1633 -1.6973 -0.9254
  901MOL0     H21591   3.412   9.491  11.383 -5.0061  1.4396 -0.7542
  901MOL0     H21592   3.495   9.607  11.273 -0.6516  1.6217 -0.7776
  901MOL0     H21593   3.279   9.654  11.285  0.0018  0.0481 -0.6708
  901MOL0     H21594   3.359   9.784  11.387 -2.8687  0.2365  1.4910
  901MOL0     H21595   3.078   9.553  11.658 -3.0501 -0.6085  0.9328
  901MOL0     H21596   2.759   9.511  11.679 -0.9218 -0.9588  1.7870
  901MOL0     H21597   2.879   9.574  11.801  1.2086 -0.0514 -0.8482
  901MOL0     H21598   2.738   9.666  11.744 -0.5787  0.6297 -2.7407
  901MOL0     H21599   2.533   9.975  11.682  0.6357  1.0617 -1.1052
  901MOL0     H21600   2.321  10.086  11.688  0.8451  0.6060 -1.3188
  901MOL0     H21601   2.076  10.139  11.736  2.0388  0.1945 -0.1175
  901MOL0     H21602   2.156  10.188  11.589 -0.7975  1.7115  1.5004
  901MOL0     H21603   1.957  10.278  11.515  0.5111 -0.2451 -0.2275
  901MOL0     H21604   1.928  10.126  11.454  0.9894  0.8734 -0.7489
  901MOL0     H21605   1.753  10.261  11.616 -1.2466 -0.0269  1.0725
  901MOL0     H21606   1.839  10.176  11.746  1.8169  0.0452 -0.3376
  901MOL0     H21607   1.689  10.076  11.515 -0.5411  1.2347  0.0310
  901MOL0     H21608   1.799   9.968  11.620 -0.4348  0.1632  0.5664
  901MOL0     H21609   1.555  10.109  11.735  1.0833  1.1211  0.4282
  901MOL0     H21610   1.674  10.005  11.812 -0.3198 -0.9711  0.7735
  901MOL0     H21611   1.470   9.939  11.590  0.2576 -1.5944 -1.0071
  901MOL0     H21612   1.607   9.826  11.631 -0.8406 -1.8789  2.4218
  901MOL0     H21613   1.398   9.911  11.825  0.2159  0.1348  0.7475
  901MOL0     H21614   1.545   9.820  11.868 -0.7500  0.1027  0.9612
  901MOL0     H21615   1.382   9.659  11.842  0.1366 -2.1251 -0.5392
  901MOL0     H21616   1.501   9.634  11.712  0.7471 -0.1162  0.7999
  901MOL0     H21617   2.137   9.752  11.504 -0.7830 -1.1003  3.1265
  901MOL0     H21618   2.347   9.651  11.470  0.6220 -0.1491  1.2089
  901MOL0     H21619   2.907   9.886  11.341 -0.8921  1.1484  0.3366
  901MOL0     H21620   3.134   9.858  11.354  0.7205  1.1575  0.7594
  901MOL0     H21621   3.610   8.786  11.529 -2.4624  0.4940  0.1076
  901MOL0     H21622   3.442   8.900  11.402  1.6953 -0.6537  0.4720
  901MOL0     H21623   3.186   9.293  11.448 -1.3962 -2.8688 -0.1093
  901MOL0     H21624   3.005   9.432  11.379  0.1373  2.9026 -0.1457
  901MOL0     H21625   2.849   9.573  11.309 -2.2665  0.8703 -0.3539
  901MOL0     H21626   2.775   9.606  11.149 -2.5704 -1.4189 -0.6912
  901MOL0     H21627   2.797   9.325  11.245 -0.5030 -1.4157 -1.0913
  901MOL0     H21628   2.700   9.389  11.111  1.1175 -1.3384 -0.2003
  901MOL0     H21629   2.559   9.523  11.268  1.4681  0.3509 -0.8825
  901MOL0     H21630   2.649   9.466  11.406 -0.6040  0.2064  0.0641
  901MOL0     H21631   2.597   9.238  11.350 -1.5839 -3.0889 -0.9949
  901MOL0     H21632   2.483   9.288  11.222  0.3615  1.4536 -0.6575
  901MOL0     H21633   2.280   9.368  11.587 -0.4001  1.4341  0.4900
  901MOL0     H21634   3.132   9.416  10.973  1.9775  2.7732 -0.3992
  901MOL0     H21635   3.336   9.298  11.044 -0.4899  1.1883  0.5319
  902MOL0     O21636   3.072   8.297   9.407  0.5820 -0.9040  0.2429
  902MOL0     C21637   3.136   8.216   9.466  0.7056 -0.4102 -0.3063
  902MOL0     O21638   3.089   8.111   9.551  0.3351 -0.1957  0.0316
  902MOL0     C21639   2.947   8.106   9.566  0.4942 -0.3035  0.2524
  902MOL0     C21640   2.878   8.015   9.491  0.5687  0.3914 -0.5057
  902MOL0     C21641   2.739   8.016   9.510 -0.6811 -0.4126  0.3675
  902MOL0     C21642   2.667   8.107   9.593 -0.1323 -0.1299  0.2086
  902MOL0     O21643   2.528   8.112   9.603 -0.9031 -0.1875  0.3192
  902MOL0     C21644   2.449   7.997   9.575 -0.1687  0.0858  0.3904
  902MOL0     C21645   2.310   8.017   9.623 -0.1594 -0.8201  0.6379
  902MOL0     C21646   2.209   7.900   9.602 -1.1328  0.4251 -0.0528
  902MOL0     C21647   2.067   7.925   9.664 -0.9986  0.2726 -0.6584
  902MOL0     C21648   2.069   7.870   9.807 -0.3463  0.1742  0.1413
  902MOL0     C21649   1.945   7.931   9.868 -0.5328  0.0563  0.0274
  902MOL0     C21650   1.953   7.888  10.018 -0.7277  0.2818  0.0299
  902MOL0     C21651   1.840   7.948  10.100  0.1808  0.9604 -0.9896
  902MOL0     N21652   1.847   7.891  10.236  0.4722 -1.0565  0.4419
  902MOL0     C21653   1.867   7.958  10.356  0.1766 -0.2655 -0.2366
  902MOL0     C21654   1.892   7.862  10.454 -0.8614  0.3373 -0.5874
  902MOL0     C21655   1.934   7.905  10.592 -0.1127  1.0194 -0.2720
  902MOL0     C21656   1.814   7.887  10.681  0.1619 -0.2167  0.0427
  902MOL0     C21657   1.789   7.737  10.711 -0.9138  0.0786  0.6051
  902MOL0     C21658   1.654   7.719  10.789  0.3146  0.8885  0.5977
  902MOL0     O21659   1.660   7.786  10.917 -0.1814 -0.0744  0.1013
  902MOL0     C21660   1.560   7.774  11.005  0.4980  0.5839  0.0173
  902MOL0     C21661   1.558   7.858  11.106  0.1460  0.1756 -0.1358
  902MOL0     C21662   1.463   7.861  11.207 -0.7322  0.6833 -0.1566
  902MOL0     C21663   1.476   7.962  11.314 -0.1313  1.1566 -0.4030
  902MOL0     C21664   1.350   7.774  11.192 -0.2347  0.2564 -0.6208
  902MOL0     C21665   1.250   7.756  11.298  0.3453 -0.0892 -1.3796
  902MOL0     O21666   1.259   7.817  11.416 -0.6188 -0.6361  0.6469
  902MOL0     C21667   1.160   7.826  11.511 -0.5255  0.1892  0.2350
  902MOL0     C21668   1.170   7.946  11.574 -1.0019  0.5393 -0.5519
  902MOL0     C21669   1.076   7.985  11.673 -0.2657  1.0642 -0.2020
  902MOL0     C21670   0.980   7.891  11.715  0.8095  0.2091  0.1352
  902MOL0     O21671   0.882   7.909  11.808 -1.4281 -0.4630  0.2916
  902MOL0     C21672   0.835   8.044  11.823  0.5077  0.6752 -0.7956
  902MOL0     C21673   0.692   8.065  11.879  0.3302 -0.1165 -0.2056
  902MOL0     C21674   0.583   7.970  11.822  0.2305  0.2421 -0.2336
  902MOL0     C21675   0.443   7.981  11.889  0.0244  0.3987  0.5917
  902MOL0     C21676   0.363   7.850  11.852  0.2626 -0.5754 -0.8415
  902MOL0     C21677   0.228   7.857  11.913 -0.5711  0.7635 -0.2995
  902MOL0     C21678   0.144   7.743  11.866 -0.9798  0.6736  0.8629
  902MOL0     C21679   0.053   7.799  11.743 -0.5424 -0.2050 -0.2808
  902MOL0    Cl21680  -0.067   7.900  11.802 -0.0079 -0.4839 -0.1573
  902MOL0     C21681   0.991   7.762  11.669 -0.1706 -0.1132 -0.0692
  902MOL0     C21682   1.075   7.733  11.560  1.0139 -0.3440 -0.0429
  902MOL0     O21683   1.163   7.673  11.274 -0.1780  0.8353 -0.1836
  902MOL0     C21684   1.339   7.690  11.078  1.1270 -0.2508  0.2399
  902MOL0     C21685   1.445   7.693  10.992 -0.1991 -0.1759  0.8865
  902MOL0     N21686   1.866   7.743  10.395  0.5074  0.0339  0.6602
  902MOL0     N21687   1.839   7.760  10.273  0.4008  0.8607 -0.2458
  902MOL0     C21688   2.744   8.196   9.663 -0.3360  0.7942  0.2517
  902MOL0     C21689   2.885   8.194   9.654 -0.2021  0.9386  1.1399
  902MOL0     C21690   3.282   8.236   9.444 -1.1663  0.1535  1.3841
  902MOL0     C21691   3.372   8.128   9.490  0.8228 -0.6482  0.1147
  902MOL0     C21692   3.508   8.162   9.487 -0.1285  0.0983  0.5509
  902MOL0     C21693   3.552   8.272   9.422 -1.2778  1.9021  0.3692
  902MOL0     O21694   3.686   8.297   9.420  0.2173 -0.7726  0.3052
  902MOL0     C21695   3.729   8.382   9.528  0.8883 -0.1170  0.8917
  902MOL0     C21696   3.869   8.404   9.522 -0.1019 -0.1141  0.4698
  902MOL0     C21697   3.958   8.274   9.543  0.4721 -0.6927 -0.4549
  902MOL0     C21698   4.096   8.329   9.579  0.0003  0.3612 -0.3518
  902MOL0     C21699   4.181   8.232   9.649 -0.8608 -0.3141 -0.1451
  902MOL0     C21700   4.263   8.157   9.696  0.4011  0.1795 -0.2888
  902MOL0     C21701   3.465   8.366   9.363  0.0221 -0.1386  0.3460
  902MOL0     C21702   3.333   8.347   9.382  0.6710 -0.1019  0.1898
  902MOL0     H21703   2.917   7.952   9.412 -2.1075 -2.9666  0.6148
  902MOL0     H21704   2.669   7.944   9.469 -1.4389  0.5112  0.0155
  902MOL0     H21705   2.448   7.968   9.470 -0.1972  0.8473  0.1788
  902MOL0     H21706   2.500   7.921   9.635 -0.4508  0.2754  0.8756
  902MOL0     H21707   2.316   8.043   9.729  1.0495  1.6834  0.0265
  902MOL0     H21708   2.257   8.101   9.576 -0.9664 -1.0271  1.1706
  902MOL0     H21709   2.186   7.894   9.495  0.7104 -0.2292 -0.4545
  902MOL0     H21710   2.253   7.804   9.629 -0.9547  0.6104  0.3272
  902MOL0     H21711   2.043   8.031   9.666 -1.9764  0.0445  0.8594
  902MOL0     H21712   1.997   7.861   9.610  1.9185 -4.4099  0.4999
  902MOL0     H21713   2.087   7.763   9.822  1.8622  0.2624 -1.4762
  902MOL0     H21714   2.153   7.908   9.864 -1.2979 -0.1731  1.8393
  902MOL0     H21715   1.943   8.040   9.860  0.3837  0.3522  2.7298
  902MOL0     H21716   1.853   7.887   9.830 -0.1473 -0.2343 -0.5823
  902MOL0     H21717   1.953   7.779  10.022 -0.8160  0.3070  0.9184
  902MOL0     H21718   2.043   7.925  10.069  1.0457 -3.2765 -0.2144
  902MOL0     H21719   1.748   7.910  10.053  0.4088 -1.3682  0.2909
  902MOL0     H21720   1.831   8.056  10.116 -1.3414  0.7338 -0.0893
  902MOL0     H21721   1.887   8.065  10.364 -0.3480 -0.1879  0.0416
  902MOL0     H21722   2.011   7.833  10.620 -1.2074 -0.2204 -0.3356
  902MOL0     H21723   1.976   8.006  10.585 -0.6359  1.2042 -0.8990
  902MOL0     H21724   1.726   7.934  10.637  0.6930 -0.4038 -1.2478
  902MOL0     H21725   1.842   7.931  10.777  1.3647 -2.0048  0.5578
  902MOL0     H21726   1.865   7.703  10.782  1.5154  1.2041 -1.2729
  902MOL0     H21727   1.779   7.669  10.627  0.4162  0.6800 -0.0823
  902MOL0     H21728   1.635   7.614  10.812 -0.0120  1.2510  2.0350
  902MOL0     H21729   1.578   7.777  10.736 -1.9105  0.4418  3.1382
  902MOL0     H21730   1.640   7.926  11.130  0.0566  0.1623  0.2153
  902MOL0     H21731   1.506   7.904  11.401  0.5406  3.2529  0.8555
  902MOL0     H21732   1.560   8.027  11.287 -0.9529  1.1421 -3.2565
  902MOL0     H21733   1.387   8.018  11.344  0.4937  1.5531  0.7718
  902MOL0     H21734   1.246   8.021  11.550 -0.2149  0.6773  2.1201
  902MOL0     H21735   1.085   8.078  11.729  0.8817  0.7673  0.1465
  902MOL0     H21736   0.891   8.095  11.901  0.8207  0.3366 -0.7997
  902MOL0     H21737   0.836   8.104  11.731  1.8381  2.5841  0.4031
  902MOL0     H21738   0.682   8.066  11.988 -2.5909  1.7276 -0.3706
  902MOL0     H21739   0.661   8.166  11.851 -3.0683 -0.5458  1.4897
  902MOL0     H21740   0.621   7.868  11.834  0.2733  0.1034 -1.3781
  902MOL0     H21741   0.578   7.973  11.712  1.0530 -2.1953 -0.4042
  902MOL0     H21742   0.445   7.992  11.998  3.9198  2.4903  0.4856
  902MOL0     H21743   0.392   8.071  11.854  1.7706  1.1723 -0.0691
  902MOL0     H21744   0.415   7.760  11.886  0.5771 -0.0039  0.2412
  902MOL0     H21745   0.352   7.856  11.743 -1.7344  2.5326 -0.6018
  902MOL0     H21746   0.233   7.865  12.022  2.6015  1.6649 -0.4133
  902MOL0     H21747   0.197   7.954  11.873  0.5554  2.4967  2.7613
  902MOL0     H21748   0.086   7.694  11.945  2.1096 -1.9661  1.7007
  902MOL0     H21749   0.213   7.673  11.818  1.6085  2.2314  2.0636
  902MOL0     H21750   0.014   7.712  11.689  0.7008 -0.0913 -1.4113
  902MOL0     H21751   0.124   7.850  11.677  3.0463 -2.0471  1.8739
  902MOL0     H21752   0.934   7.684  11.718 -0.9904  1.3847  1.4402
  902MOL0     H21753   1.092   7.628  11.539  0.8640 -0.1815 -1.0136
  902MOL0     H21754   1.250   7.630  11.066  1.3478 -0.9565  1.9563
  902MOL0     H21755   1.429   7.635  10.901 -2.9039  0.8860  0.5927
  902MOL0     H21756   2.704   8.273   9.729 -1.1726  0.2684  0.3670
  902MOL0     H21757   2.938   8.268   9.714 -1.5267  0.9961  2.2823
  902MOL0     H21758   3.341   8.037   9.539  0.0412 -0.4371  0.0271
  902MOL0     H21759   3.582   8.094   9.528 -0.9207 -0.4400  1.1083
  902MOL0     H21760   3.684   8.481   9.513 -0.4764 -0.8903 -0.4514
  902MOL0     H21761   3.686   8.340   9.619 -1.8689 -1.3503 -0.8505
  902MOL0     H21762   3.884   8.487   9.591 -0.5971  1.7811 -1.5992
  902MOL0     H21763   3.893   8.443   9.423  2.7012  0.6258  1.3722
  902MOL0     H21764   3.966   8.211   9.454  3.9477 -2.8809  1.1601
  902MOL0     H21765   3.926   8.211   9.626  3.6016 -0.9518  0.7065
  902MOL0     H21766   4.076   8.411   9.648 -0.6763  2.0391 -2.4442
  902MOL0     H21767   4.141   8.376   9.491  3.8437 -1.3805  0.4887
  902MOL0     H21768   4.346   8.105   9.737  1.1762  0.0114 -2.0035
  902MOL0     H21769   3.501   8.458   9.318  0.3337 -1.0698 -1.3901
  902MOL0     H21770   3.271   8.431   9.353  1.0833  1.5393  3.5463
  903MOL0     O21771   3.740   9.142   7.108 -0.2133  0.7107  0.2467
  903MOL0     C21772   3.757   9.137   7.226  0.0660  1.0593 -0.1414
  903MOL0     O21773   3.664   9.105   7.320 -0.3932  0.0095 -0.8174
  903MOL0     C21774   3.532   9.083   7.283 -0.1122 -0.6351  0.8214
  903MOL0     C21775   3.427   9.153   7.333  0.3844 -1.0735  0.4903
  903MOL0     C21776   3.289   9.128   7.287 -0.7053  0.4083 -0.6638
  903MOL0     C21777   3.254   9.028   7.192 -0.6951  0.0562 -0.1775
  903MOL0     O21778   3.132   9.015   7.146  0.6756 -0.2906  0.5721
  903MOL0     C21779   3.084   8.888   7.114  0.4756  0.2051  0.3426
  903MOL0     C21780   2.937   8.888   7.102 -0.3961 -0.7770 -0.5714
  903MOL0     C21781   2.880   8.824   7.228 -0.0561 -0.1159 -0.0216
  903MOL0     C21782   2.725   8.833   7.227 -0.4833  0.4947 -0.0788
  903MOL0     C21783   2.654   8.725   7.315 -0.4502 -0.9654 -0.0769
  903MOL0     C21784   2.501   8.756   7.311 -0.3805 -0.5726  0.3258
  903MOL0     C21785   2.428   8.669   7.416 -0.3657 -0.3031 -0.2854
  903MOL0     C21786   2.292   8.627   7.353 -0.3135  0.1753  0.9194
  903MOL0     N21787   2.190   8.566   7.444 -0.5575 -0.2029 -0.0307
  903MOL0     C21788   2.222   8.450   7.508 -0.4043 -0.4532  0.8047
  903MOL0     C21789   2.120   8.427   7.582 -0.0090  0.5017  0.4438
  903MOL0     C21790   2.107   8.317   7.692  0.0681 -0.3234  0.6880
  903MOL0     C21791   2.149   8.362   7.831 -0.9672 -0.2065  0.5676
  903MOL0     C21792   2.061   8.473   7.888  0.3358  0.4158 -0.1884
  903MOL0     C21793   1.907   8.432   7.906 -0.4758 -0.0658 -0.1922
  903MOL0     O21794   1.900   8.314   7.990  0.1077  0.3151 -0.4703
  903MOL0     C21795   1.784   8.279   8.056  0.6424 -0.6498  0.1152
  903MOL0     C21796   1.732   8.365   8.152 -0.5597 -0.4251 -0.3250
  903MOL0     C21797   1.620   8.334   8.233  0.0571  0.4839  0.6655
  903MOL0     C21798   1.576   8.425   8.344 -0.0812 -0.7260  0.2861
  903MOL0     C21799   1.547   8.216   8.197  0.4928 -0.0927  0.4668
  903MOL0     C21800   1.427   8.183   8.275 -0.7058 -0.6336 -0.7111
  903MOL0     O21801   1.374   8.263   8.374  0.4529 -0.4382  0.0322
  903MOL0     C21802   1.239   8.249   8.410 -0.4194  0.3355  0.2493
  903MOL0     C21803   1.145   8.237   8.303  0.3902 -0.2472  0.3715
  903MOL0     C21804   1.013   8.257   8.333 -0.3500 -0.0656 -0.0142
  903MOL0     C21805   0.961   8.280   8.460  1.1391 -0.0657 -0.1745
  903MOL0     O21806   0.829   8.315   8.488 -0.0920  0.3663 -0.2606
  903MOL0     C21807   0.731   8.235   8.417 -0.2470 -0.3810 -0.2038
  903MOL0     C21808   0.595   8.222   8.491  0.0636 -0.4688  0.3475
  903MOL0     C21809   0.523   8.358   8.469 -0.0280 -0.0189  0.3400
  903MOL0     C21810   0.380   8.346   8.497  0.6283  0.0844 -0.7733
  903MOL0     C21811   0.313   8.480   8.528  0.0002 -0.4119  0.1659
  903MOL0     C21812   0.169   8.469   8.589 -0.1762 -0.4624 -0.2651
  903MOL0     C21813   0.102   8.606   8.586 -0.0221 -0.6236  0.0676
  903MOL0     C21814  -0.049   8.611   8.608 -0.0017  0.6936  0.5389
  903MOL0    Cl21815  -0.109   8.581   8.776 -0.1106  0.4014  0.5925
  903MOL0     C21816   1.061   8.291   8.567  0.4605 -0.0796  0.1953
  903MOL0     C21817   1.203   8.268   8.542  0.6058 -0.0709 -0.4478
  903MOL0     O21818   1.378   8.077   8.238 -0.2549  0.3087  0.3475
  903MOL0     C21819   1.596   8.129   8.094  0.7849 -0.1293 -0.2947
  903MOL0     C21820   1.709   8.164   8.030  0.2004  1.0333 -0.6995
  903MOL0     N21821   2.014   8.519   7.557  0.5358 -0.0737  0.3224
  903MOL0     N21822   2.070   8.609   7.476 -0.6711 -0.4116 -0.4981
  903MOL0     C21823   3.364   8.956   7.138 -0.2001 -0.0782  0.9246
  903MOL0     C21824   3.492   8.983   7.182 -0.0649 -0.7205 -1.0088
  903MOL0     C21825   3.888   9.160   7.286 -0.3361 -1.4673 -0.5113
  903MOL0     C21826   3.924   9.132   7.419 -0.0057  0.0804  0.0106
  903MOL0     C21827   4.060   9.127   7.455  0.1346 -0.0800  0.7143
  903MOL0     C21828   4.156   9.171   7.364  0.6522 -0.1697  0.0277
  903MOL0     O21829   4.291   9.187   7.384  0.0667  0.1174 -0.8598
  903MOL0     C21830   4.363   9.179   7.514  0.2724 -0.5527  0.1350
  903MOL0     C21831   4.515   9.203   7.511 -1.0489 -0.6368 -0.3528
  903MOL0     C21832   4.550   9.357   7.474  0.2357  0.5338  0.1643
  903MOL0     C21833   4.689   9.388   7.443  0.1305  1.0633  1.2551
  903MOL0     C21834   4.798   9.351   7.536  0.2227 -0.0428  0.3062
  903MOL0     C21835   4.893   9.325   7.600 -0.2029  0.7390  1.2127
  903MOL0     C21836   4.122   9.231   7.242  0.3417 -0.3078 -0.5360
  903MOL0     C21837   3.987   9.223   7.206 -0.1429  0.6330  0.1519
  903MOL0     H21838   3.442   9.225   7.413  1.2731  1.9629 -2.2074
  903MOL0     H21839   3.229   9.189   7.354  0.2898  0.3372  0.3186
  903MOL0     H21840   3.129   8.847   7.023 -1.3881  2.5852 -1.8016
  903MOL0     H21841   3.110   8.827   7.201 -2.3942  0.5756  1.5574
  903MOL0     H21842   2.895   8.987   7.085 -3.0357 -1.6511  0.3088
  903MOL0     H21843   2.903   8.830   7.016 -1.7023 -0.4304 -0.3092
  903MOL0     H21844   2.899   8.716   7.232  0.1408 -0.2032 -2.1329
  903MOL0     H21845   2.920   8.875   7.315 -0.8122 -1.6078  1.2443
  903MOL0     H21846   2.716   8.935   7.265 -1.5255  0.8214 -1.1744
  903MOL0     H21847   2.679   8.816   7.130 -1.8004  0.0735  0.5946
  903MOL0     H21848   2.672   8.627   7.270 -2.7092 -0.5724 -2.0137
  903MOL0     H21849   2.702   8.737   7.413  1.2583 -0.7050 -0.9162
  903MOL0     H21850   2.497   8.863   7.334 -0.5083  0.2294 -2.9243
  903MOL0     H21851   2.456   8.739   7.213  0.6748 -2.4028  0.1114
  903MOL0     H21852   2.486   8.578   7.434 -0.6770 -0.8852 -2.0219
  903MOL0     H21853   2.405   8.724   7.508  1.7876  0.9416 -0.4252
  903MOL0     H21854   2.305   8.569   7.261 -0.8330 -0.0749  1.0025
  903MOL0     H21855   2.250   8.724   7.324 -0.1620  0.1881  0.7418
  903MOL0     H21856   2.323   8.409   7.511  1.1105  3.0252  2.9915
  903MOL0     H21857   2.004   8.281   7.700  0.7145 -2.1066  1.5038
  903MOL0     H21858   2.162   8.227   7.662 -2.0117 -1.2362 -0.6410
  903MOL0     H21859   2.255   8.388   7.834 -0.9546 -0.3389  2.2861
  903MOL0     H21860   2.145   8.277   7.900 -0.8346  0.5200  1.4862
  903MOL0     H21861   2.078   8.570   7.841  0.5118  1.3630  1.7396
  903MOL0     H21862   2.098   8.487   7.990  1.5851  0.6527 -0.6595
  903MOL0     H21863   1.856   8.404   7.814 -0.5623 -2.1304  0.4182
  903MOL0     H21864   1.851   8.513   7.952 -0.0398 -1.5566  3.2937
  903MOL0     H21865   1.785   8.457   8.171  0.9113 -1.1920 -0.5480
  903MOL0     H21866   1.489   8.479   8.307  1.7856  1.7602 -0.8165
  903MOL0     H21867   1.568   8.378   8.442  1.0250 -0.5233  0.4907
  903MOL0     H21868   1.647   8.504   8.371 -1.4888  0.3733  0.8585
  903MOL0     H21869   1.172   8.232   8.198 -2.3693  0.1781 -0.4414
  903MOL0     H21870   0.945   8.253   8.248 -1.9986  2.2610  1.0953
  903MOL0     H21871   0.714   8.274   8.316  0.5011  2.1658  0.5827
  903MOL0     H21872   0.762   8.132   8.398 -1.1197 -0.6609 -0.1493
  903MOL0     H21873   0.529   8.145   8.451 -1.9888 -1.1932  4.5052
  903MOL0     H21874   0.621   8.215   8.597 -0.7279  2.6010  0.8520
  903MOL0     H21875   0.528   8.384   8.362  0.9473 -3.2421 -0.5132
  903MOL0     H21876   0.567   8.443   8.522  1.4518 -1.2931  1.2370
  903MOL0     H21877   0.330   8.291   8.417  1.9656  0.1924 -1.7068
  903MOL0     H21878   0.368   8.280   8.584  0.7756  0.1667 -0.6901
  903MOL0     H21879   0.295   8.539   8.438 -1.2942  3.2164  2.5777
  903MOL0     H21880   0.376   8.539   8.595  1.0083  0.6273 -1.6047
  903MOL0     H21881   0.104   8.411   8.523 -1.9391  2.2455 -1.0346
  903MOL0     H21882   0.165   8.422   8.688  1.6153  2.7273  1.4946
  903MOL0     H21883   0.125   8.657   8.492 -2.0247  1.2867  0.5329
  903MOL0     H21884   0.147   8.674   8.659 -3.5206  1.2619  0.7006
  903MOL0     H21885  -0.097   8.544   8.535  0.7673  1.1320 -0.3964
  903MOL0     H21886  -0.085   8.710   8.581  0.6378  0.8239  0.1384
  903MOL0     H21887   1.019   8.302   8.666  0.3552 -1.4189  0.3215
  903MOL0     H21888   1.274   8.250   8.622  0.6636 -6.0332 -1.3983
  903MOL0     H21889   1.537   8.044   8.061 -0.1335 -1.3309  3.7625
  903MOL0     H21890   1.741   8.097   7.951 -1.5209 -0.1875 -0.4173
  903MOL0     H21891   3.348   8.891   7.052 -1.8837  2.0668 -0.4910
  903MOL0     H21892   3.575   8.924   7.145  3.2087  2.4741  0.6892
  903MOL0     H21893   3.855   9.081   7.484  1.1978  0.0107  1.2703
  903MOL0     H21894   4.093   9.098   7.554  1.9017  0.3595  0.3018
  903MOL0     H21895   4.306   9.245   7.580 -0.2821 -0.2573 -0.6187
  903MOL0     H21896   4.353   9.082   7.563 -0.9531  0.9822  3.1952
  903MOL0     H21897   4.568   9.137   7.442  2.1672  1.6315 -0.2875
  903MOL0     H21898   4.550   9.183   7.612  0.8406  0.2453 -0.7975
  903MOL0     H21899   4.516   9.411   7.563 -2.6461 -0.6796 -0.1090
  903MOL0     H21900   4.491   9.383   7.386 -0.8508 -3.5243 -0.5228
  903MOL0     H21901   4.704   9.494   7.423 -0.6630  1.6574  3.5344
  903MOL0     H21902   4.719   9.329   7.356  1.2413 -0.6047  2.6963
  903MOL0     H21903   4.981   9.299   7.655 -0.2864  0.2766  1.1292
  903MOL0     H21904   4.184   9.294   7.180 -1.8666  1.2751 -1.2875
  903MOL0     H21905   3.968   9.274   7.112  1.0649  3.8826  1.5513
  904MOL0     O21906   3.724   0.894   7.227  0.3126  0.7331 -0.6979
  904MOL0     C21907   3.684   0.780   7.197 -0.4499  0.2077 -0.1871
  904MOL0     O21908   3.551   0.729   7.231  0.4525 -0.0473  0.2383
  904MOL0     C21909   3.473   0.810   7.304  0.3164 -0.3478  0.2881
  904MOL0     C21910   3.473   0.815   7.445  0.0517 -0.7343 -0.4442
  904MOL0     C21911   3.393   0.902   7.513  0.6657  0.7462  0.0928
  904MOL0     C21912   3.305   0.987   7.444 -0.6301 -0.5648 -0.4543
  904MOL0     O21913   3.216   1.059   7.525 -0.0006 -0.4073 -0.5749
  904MOL0     C21914   3.080   1.074   7.475 -0.0210 -0.8326 -0.2238
  904MOL0     C21915   2.985   1.137   7.581 -0.0739 -0.0083  0.1281
  904MOL0     C21916   2.846   1.169   7.523  1.0668 -0.9332  0.1846
  904MOL0     C21917   2.739   1.194   7.632  1.7917  0.5045  0.0183
  904MOL0     C21918   2.594   1.213   7.575 -0.2375 -0.9001 -0.1644
  904MOL0     C21919   2.518   1.321   7.663 -0.0764 -0.2156  0.8755
  904MOL0     C21920   2.386   1.372   7.625 -0.5452 -1.3201 -0.2560
  904MOL0     C21921   2.382   1.444   7.482 -0.6611 -0.2054 -0.3425
  904MOL0     N21922   2.274   1.548   7.473  0.1845  0.1918 -0.5394
  904MOL0     C21923   2.135   1.520   7.492  0.4544 -0.0653  0.1427
  904MOL0     C21924   2.079   1.642   7.512 -0.0175 -0.1573 -0.4087
  904MOL0     C21925   1.944   1.660   7.557  0.1730 -0.0161  0.1203
  904MOL0     C21926   1.836   1.622   7.449 -1.4678 -0.5426 -0.2358
  904MOL0     C21927   1.805   1.742   7.359  0.1080 -0.5511  0.2016
  904MOL0     C21928   1.704   1.698   7.258 -0.0930 -1.3615  0.1516
  904MOL0     O21929   1.585   1.648   7.330  0.2922 -0.1800 -0.0494
  904MOL0     C21930   1.475   1.606   7.267 -0.2027  1.1867  0.1037
  904MOL0     C21931   1.483   1.559   7.137 -0.1849  0.7461  0.5827
  904MOL0     C21932   1.362   1.533   7.065 -0.7269 -0.2890 -0.0797
  904MOL0     C21933   1.368   1.503   6.917  0.7967 -0.1810  1.3326
  904MOL0     C21934   1.230   1.561   7.127 -0.7130  0.6912 -0.0884
  904MOL0     C21935   1.099   1.544   7.059  0.2214  0.6869  0.9110
  904MOL0     O21936   1.096   1.478   6.937 -0.2554 -0.2392  0.7071
  904MOL0     C21937   0.988   1.504   6.862 -0.0293 -0.2678  0.6597
  904MOL0     C21938   0.876   1.419   6.882 -0.1349 -0.0216  0.5222
  904MOL0     C21939   0.755   1.467   6.821  0.1907  0.7059 -0.0939
  904MOL0     C21940   0.750   1.579   6.736  0.2251  0.0299  0.4246
  904MOL0     O21941   0.628   1.622   6.692  0.3399  0.5100  0.6110
  904MOL0     C21942   0.622   1.687   6.563  0.0340  0.3884 -1.6028
  904MOL0     C21943   0.480   1.707   6.511  0.3927 -0.1284 -0.5422
  904MOL0     C21944   0.415   1.577   6.454  1.0721  0.6030  0.2713
  904MOL0     C21945   0.297   1.610   6.360  0.0864 -0.1213 -0.1138
  904MOL0     C21946   0.232   1.489   6.289  1.1216  0.2183  0.3772
  904MOL0     C21947   0.107   1.531   6.208 -0.0376  0.7224 -0.1542
  904MOL0     C21948  -0.020   1.518   6.288 -0.2637  0.9943 -0.2994
  904MOL0     C21949  -0.149   1.540   6.202 -0.2507  0.4528 -0.8887
  904MOL0    Cl21950  -0.165   1.713   6.170  0.7100 -0.2998 -0.2818
  904MOL0     C21951   0.871   1.644   6.701 -0.2311  0.5323  0.7096
  904MOL0     C21952   0.988   1.606   6.759 -0.0279 -0.1668  0.2236
  904MOL0     O21953   0.992   1.589   7.105 -0.6040  0.2315  0.2680
  904MOL0     C21954   1.234   1.605   7.258  0.0183  0.0255 -1.2370
  904MOL0     C21955   1.351   1.634   7.334 -0.1148  0.0902 -0.1371
  904MOL0     N21956   2.178   1.742   7.503 -0.8544  0.4310 -1.1021
  904MOL0     N21957   2.297   1.688   7.488 -0.2361 -0.4611  0.6364
  904MOL0     C21958   3.314   0.990   7.301 -0.1381  0.0783 -0.8088
  904MOL0     C21959   3.392   0.901   7.237 -0.0918  0.6235 -0.8625
  904MOL0     C21960   3.773   0.691   7.120  0.0298  0.0167 -0.6980
  904MOL0     C21961   3.731   0.560   7.082 -0.0986 -0.6651  0.1566
  904MOL0     C21962   3.818   0.476   7.023 -0.4295 -0.0074  0.6320
  904MOL0     C21963   3.941   0.525   6.970 -0.2246  0.8501 -0.4474
  904MOL0     O21964   4.034   0.450   6.900 -0.7678 -0.2827  0.3168
  904MOL0     C21965   3.998   0.322   6.860  0.0454  0.3750 -0.1898
  904MOL0     C21966   4.104   0.250   6.772  0.3160 -0.2388 -0.4210
  904MOL0     C21967   4.166   0.354   6.676  0.0811  0.6632  0.1543
  904MOL0     C21968   4.242   0.307   6.554  0.4323  1.0751 -0.3296
  904MOL0     C21969   4.151   0.221   6.483 -0.2218 -1.0253 -0.4690
  904MOL0     C21970   4.077   0.150   6.422  0.0405 -0.2796 -0.5186
  904MOL0     C21971   3.975   0.656   7.004 -0.1028 -0.2435  0.1357
  904MOL0     C21972   3.897   0.740   7.078 -0.0697 -0.5357 -0.0029
  904MOL0     H21973   3.535   0.742   7.495  2.0647  0.7593 -0.5852
  904MOL0     H21974   3.410   0.896   7.620  0.9922  2.3417  0.1607
  904MOL0     H21975   3.086   1.141   7.389  0.8501 -0.2172  0.3100
  904MOL0     H21976   3.043   0.974   7.448  0.8447 -0.8570 -1.3825
  904MOL0     H21977   2.981   1.067   7.664  1.0446  1.3392  1.3643
  904MOL0     H21978   3.039   1.222   7.623  2.6243 -2.3541  1.7772
  904MOL0     H21979   2.856   1.266   7.473  0.6832  1.7157  4.7698
  904MOL0     H21980   2.805   1.087   7.464  0.7325  0.0269 -0.9637
  904MOL0     H21981   2.737   1.106   7.697 -1.7657  0.7233  0.3967
  904MOL0     H21982   2.764   1.282   7.691 -0.4471  0.8250  0.5555
  904MOL0     H21983   2.593   1.244   7.471 -2.8941 -0.2642 -0.0242
  904MOL0     H21984   2.547   1.113   7.577 -0.5652 -0.7443  0.5020
  904MOL0     H21985   2.498   1.266   7.756 -0.4863  3.2009  2.9559
  904MOL0     H21986   2.587   1.404   7.684 -0.7045  0.4605  0.2912
  904MOL0     H21987   2.319   1.287   7.631  0.8574 -2.4986 -0.6735
  904MOL0     H21988   2.356   1.442   7.703  0.5227 -1.7022  0.5218
  904MOL0     H21989   2.372   1.365   7.406 -2.3555 -0.9314  0.5641
  904MOL0     H21990   2.473   1.503   7.467 -1.6600  2.4897  3.0287
  904MOL0     H21991   2.081   1.428   7.509 -0.6777  0.1927 -1.7955
  904MOL0     H21992   1.943   1.582   7.633  0.4954 -0.8661 -0.7233
  904MOL0     H21993   1.929   1.760   7.599 -5.5940  0.3407 -1.8630
  904MOL0     H21994   1.746   1.589   7.500 -0.0215 -1.3992  1.9320
  904MOL0     H21995   1.881   1.540   7.393  1.5498  0.0174  1.1314
  904MOL0     H21996   1.896   1.768   7.304 -0.6115 -1.9062 -1.7502
  904MOL0     H21997   1.765   1.828   7.412 -2.4620 -1.0715 -0.7696
  904MOL0     H21998   1.754   1.623   7.197 -0.0920 -0.6388 -0.7412
  904MOL0     H21999   1.683   1.789   7.202  0.8897 -0.1507  1.6538
  904MOL0     H22000   1.574   1.549   7.078 -1.7260  2.6027 -2.3664
  904MOL0     H22001   1.334   1.399   6.919  0.2238 -0.1963 -2.1733
  904MOL0     H22002   1.302   1.578   6.872 -1.1859 -0.1216  4.0979
  904MOL0     H22003   1.466   1.505   6.869  0.4320  0.1926  0.5874
  904MOL0     H22004   0.881   1.331   6.944 -1.2892 -0.3702  0.1573
  904MOL0     H22005   0.658   1.423   6.843  1.1165 -0.6555  1.5468
  904MOL0     H22006   0.663   1.787   6.581  2.5494 -0.7555 -0.5006
  904MOL0     H22007   0.689   1.631   6.498  0.9536  0.5382 -0.8086
  904MOL0     H22008   0.414   1.737   6.593  1.1909 -1.5192  0.6611
  904MOL0     H22009   0.475   1.790   6.441 -0.7650  1.1080  0.9406
  904MOL0     H22010   0.369   1.507   6.525  0.9026 -2.2241 -2.4041
  904MOL0     H22011   0.492   1.518   6.404  0.2944 -0.1105 -0.1199
  904MOL0     H22012   0.223   1.661   6.422  0.1064 -2.0711  1.6359
  904MOL0     H22013   0.331   1.681   6.284  1.6090  0.5495  1.1353
  904MOL0     H22014   0.197   1.415   6.362 -1.8995 -0.2851 -1.4332
  904MOL0     H22015   0.305   1.440   6.224  1.2086 -0.7983  1.2027
  904MOL0     H22016   0.117   1.621   6.147  0.8691 -0.9240 -2.5670
  904MOL0     H22017   0.096   1.448   6.138 -1.4870  1.8429 -1.3384
  904MOL0     H22018  -0.010   1.588   6.371  0.2051  0.6849 -0.0856
  904MOL0     H22019  -0.022   1.426   6.347 -4.2117  2.3662  2.0604
  904MOL0     H22020  -0.233   1.503   6.261  0.4426  0.5442  0.1968
  904MOL0     H22021  -0.141   1.488   6.107 -0.5760 -1.1544 -0.0658
  904MOL0     H22022   0.883   1.731   6.636 -0.3602  1.0146  1.3277
  904MOL0     H22023   1.075   1.671   6.755  0.1188  0.0063  3.6902
  904MOL0     H22024   1.141   1.616   7.313  0.1880  0.1058 -0.9614
  904MOL0     H22025   1.344   1.666   7.437  0.6835  0.5953 -0.2290
  904MOL0     H22026   3.253   1.067   7.255 -2.0250  0.8939  2.6922
  904MOL0     H22027   3.389   0.898   7.128 -1.2214 -1.2871 -0.8198
  904MOL0     H22028   3.642   0.509   7.118 -0.4270  0.4529  1.0189
  904MOL0     H22029   3.790   0.371   7.022 -2.8792  0.4786 -3.2860
  904MOL0     H22030   3.977   0.261   6.948 -2.2191  2.1139  0.5784
  904MOL0     H22031   3.904   0.322   6.804  0.1078  0.5623 -0.2951
  904MOL0     H22032   4.060   0.164   6.720 -0.4131 -1.7966  2.5359
  904MOL0     H22033   4.190   0.215   6.830  1.3976 -0.1437 -1.9034
  904MOL0     H22034   4.233   0.418   6.735  0.6371  1.4784 -1.3121
  904MOL0     H22035   4.091   0.425   6.640  2.5029  2.7507 -1.1489
  904MOL0     H22036   4.332   0.253   6.586 -0.8380 -1.7264 -1.1478
  904MOL0     H22037   4.260   0.397   6.494 -1.7491  3.3627  2.1937
  904MOL0     H22038   4.040   0.086   6.344 -0.3837 -1.3229  0.5133
  904MOL0     H22039   4.068   0.696   6.966  1.3562 -2.0426  1.6416
  904MOL0     H22040   3.941   0.839   7.090  1.7264 -1.4476  1.3528
  905MOL0     O22041   5.987   6.257  10.881  0.0833 -0.3350 -0.0548
  905MOL0     C22042   6.050   6.295  10.983  0.3993 -0.5844 -0.6455
  905MOL0     O22043   6.031   6.253  11.109 -0.8138  0.1507 -1.1051
  905MOL0     C22044   5.921   6.178  11.152 -0.4075 -1.0293 -0.3816
  905MOL0     C22045   5.927   6.132  11.287 -0.5852 -0.4036 -0.5808
  905MOL0     C22046   5.819   6.072  11.347 -0.2829 -0.0287  0.0273
  905MOL0     C22047   5.696   6.061  11.282 -0.4175  0.3558 -0.8510
  905MOL0     O22048   5.580   6.009  11.342 -0.0092 -0.0269  0.9856
  905MOL0     C22049   5.559   6.072  11.473  0.6291 -0.1604  0.3020
  905MOL0     C22050   5.418   6.045  11.519 -0.2519  0.0904 -0.6794
  905MOL0     C22051   5.317   6.118  11.439  0.7058  0.3999  0.0668
  905MOL0     C22052   5.179   6.073  11.472 -0.6258  0.1139  0.4410
  905MOL0     C22053   5.079   6.186  11.426  0.0712  1.3477 -0.0999
  905MOL0     C22054   4.940   6.142  11.441  0.1799 -0.1366 -0.4420
  905MOL0     C22055   4.842   6.269  11.428  0.2687 -0.2219 -0.7846
  905MOL0     C22056   4.692   6.225  11.444 -0.1023  0.4939 -0.2075
  905MOL0     N22057   4.595   6.333  11.418  0.0673 -0.6986 -0.5136
  905MOL0     C22058   4.576   6.374  11.292 -0.3683 -0.3377  0.5267
  905MOL0     C22059   4.479   6.467  11.299 -1.2497 -0.4570  0.5510
  905MOL0     C22060   4.419   6.538  11.177  0.6837  0.0914  0.8802
  905MOL0     C22061   4.307   6.623  11.219  0.1926  0.2529  0.7089
  905MOL0     C22062   4.223   6.648  11.093 -0.2866  0.4227  1.2175
  905MOL0     C22063   4.112   6.743  11.132 -0.0452  0.0408 -0.4160
  905MOL0     O22064   4.020   6.740  11.021  0.4541 -0.4856 -0.4463
  905MOL0     C22065   3.900   6.811  11.036  0.3163  0.1859 -0.2995
  905MOL0     C22066   3.804   6.779  10.946 -0.1299 -0.2897 -0.8550
  905MOL0     C22067   3.676   6.832  10.962  0.2241  0.1110  0.7548
  905MOL0     C22068   3.576   6.784  10.859  0.6983  0.0180 -0.0514
  905MOL0     C22069   3.642   6.938  11.053  0.1644 -0.0110  0.1010
  905MOL0     C22070   3.512   6.997  11.068 -0.2210 -0.4752  0.3395
  905MOL0     O22071   3.501   7.077  11.181  0.9142  0.2035  0.5189
  905MOL0     C22072   3.380   7.126  11.222 -0.1998 -0.2799 -0.4263
  905MOL0     C22073   3.348   7.263  11.204  0.1600  0.2312 -0.0989
  905MOL0     C22074   3.226   7.319  11.248  0.1510  0.4785  0.1818
  905MOL0     C22075   3.136   7.233  11.315  0.0567 -0.5295  1.2212
  905MOL0     O22076   3.004   7.274  11.351  0.0920 -0.4127 -0.9478
  905MOL0     C22077   2.956   7.409  11.347  0.3501 -0.9126  0.4870
  905MOL0     C22078   2.952   7.465  11.493 -0.1530 -0.1866 -0.4379
  905MOL0     C22079   2.873   7.598  11.507 -0.3051 -0.3566  0.0236
  905MOL0     C22080   2.795   7.621  11.629  0.1911  0.1472  0.0517
  905MOL0     C22081   2.768   7.773  11.651  0.0001  0.0773  0.5854
  905MOL0     C22082   2.679   7.788  11.765 -0.3914 -0.8942  0.0549
  905MOL0     C22083   2.621   7.936  11.770 -0.0423  0.5621  0.3422
  905MOL0     C22084   2.636   7.993  11.911  0.3717  0.4808 -0.5133
  905MOL0    Cl22085   2.597   8.171  11.922 -0.1690 -0.0886  0.3688
  905MOL0     C22086   3.170   7.096  11.314  0.5875  0.0020 -0.6144
  905MOL0     C22087   3.277   7.036  11.263 -0.4716 -0.5803  0.1753
  905MOL0     O22088   3.421   6.981  10.988 -0.0786 -0.0796 -0.0955
  905MOL0     C22089   3.753   6.969  11.141  0.5707  0.0916  0.2955
  905MOL0     C22090   3.873   6.902  11.136  0.5031 -0.1436  0.5132
  905MOL0     N22091   4.441   6.471  11.430  0.4890 -0.0767  0.5141
  905MOL0     N22092   4.518   6.404  11.502 -0.3604  0.2609 -0.1417
  905MOL0     C22093   5.689   6.104  11.150  0.1445 -0.0850  0.2728
  905MOL0     C22094   5.803   6.154  11.085 -0.4874  0.5140  0.7284
  905MOL0     C22095   6.136   6.411  10.976  0.3097  0.8241 -0.0477
  905MOL0     C22096   6.134   6.497  10.869 -1.0196 -0.0551  0.0958
  905MOL0     C22097   6.228   6.595  10.866  0.6218  0.7395 -0.3506
  905MOL0     C22098   6.316   6.621  10.979 -0.5687  0.1324  0.7597
  905MOL0     O22099   6.393   6.738  11.007  0.3230  0.4060  0.2650
  905MOL0     C22100   6.400   6.854  10.920  1.1443  0.5237  1.1188
  905MOL0     C22101   6.521   6.928  10.952  0.3997 -0.7320  1.0369
  905MOL0     C22102   6.554   7.045  10.859 -0.2096  0.3739  0.0326
  905MOL0     C22103   6.675   7.116  10.906 -0.7126 -0.6199 -0.3062
  905MOL0     C22104   6.697   7.220  10.804 -1.3319 -0.3957 -0.1312
  905MOL0     C22105   6.711   7.308  10.720 -0.2517  0.0071 -0.3759
  905MOL0     C22106   6.322   6.530  11.082  0.3402 -0.1925  0.0362
  905MOL0     C22107   6.231   6.424  11.076 -0.3834  0.6474  0.0594
  905MOL0     H22108   6.020   6.146  11.342 -1.0345 -0.4115  0.1924
  905MOL0     H22109   5.826   6.034  11.449 -0.2115 -2.0833 -0.6840
  905MOL0     H22110   5.629   6.027  11.544  2.2052 -0.0017 -1.0975
  905MOL0     H22111   5.590   6.177  11.472 -0.8086  0.2774  0.3071
  905MOL0     H22112   5.407   5.936  11.519  3.0245 -0.4035 -3.1227
  905MOL0     H22113   5.400   6.070  11.624  0.1693 -1.8967 -0.0917
  905MOL0     H22114   5.333   6.225  11.456 -0.7497  1.1296 -2.5620
  905MOL0     H22115   5.335   6.095  11.333  2.5355  0.8825  0.2498
  905MOL0     H22116   5.157   5.977  11.424 -3.3709  0.4318  0.8672
  905MOL0     H22117   5.159   6.056  11.578 -0.5050  4.7562  1.4066
  905MOL0     H22118   5.096   6.275  11.488 -0.6494  0.1699  1.8792
  905MOL0     H22119   5.100   6.208  11.321  2.1788 -0.2285 -0.0677
  905MOL0     H22120   4.935   6.062  11.367  1.8193 -0.4661 -0.2395
  905MOL0     H22121   4.916   6.094  11.537 -2.0738  1.6889 -0.0117
  905MOL0     H22122   4.849   6.342  11.509 -1.1323  1.5312 -2.1756
  905MOL0     H22123   4.856   6.329  11.338 -2.9040  2.5536  0.3688
  905MOL0     H22124   4.680   6.163  11.534  4.5756 -3.2242 -1.6939
  905MOL0     H22125   4.679   6.149  11.366 -0.3896  0.1395  0.1757
  905MOL0     H22126   4.630   6.345  11.202  0.3114 -2.7766  1.6447
  905MOL0     H22127   4.491   6.602  11.125 -4.3430  4.0494 -2.1366
  905MOL0     H22128   4.369   6.459  11.121  0.6888 -0.8719  2.1976
  905MOL0     H22129   4.347   6.719  11.253 -2.4971  1.7268 -0.0062
  905MOL0     H22130   4.235   6.580  11.289 -2.4663  1.6394 -0.9866
  905MOL0     H22131   4.181   6.553  11.059  1.2200  0.1754 -0.0377
  905MOL0     H22132   4.276   6.695  11.010 -1.9252  2.2423  1.1175
  905MOL0     H22133   4.154   6.841  11.156 -1.0490  1.2091 -3.0563
  905MOL0     H22134   4.055   6.710  11.219 -2.1069 -0.4960 -1.8971
  905MOL0     H22135   3.821   6.707  10.866 -4.6050 -0.6829 -1.6803
  905MOL0     H22136   3.542   6.867  10.797  0.3556 -1.0928 -1.4125
  905MOL0     H22137   3.616   6.699  10.803  0.5441 -2.0373  2.7320
  905MOL0     H22138   3.488   6.740  10.908 -1.4325  1.7441 -2.1130
  905MOL0     H22139   3.422   7.334  11.170  0.3963  0.2784  0.5097
  905MOL0     H22140   3.206   7.422  11.223  0.9990  0.5268 -0.3452
  905MOL0     H22141   3.005   7.471  11.272 -2.2007 -0.2886 -0.7830
  905MOL0     H22142   2.851   7.398  11.318 -0.5748  1.6547  2.4626
  905MOL0     H22143   2.888   7.391  11.541 -0.5778 -0.8303 -1.9256
  905MOL0     H22144   3.052   7.472  11.536  1.0447 -1.1090 -2.9001
  905MOL0     H22145   2.803   7.584  11.424  1.7657 -0.4793 -1.7883
  905MOL0     H22146   2.941   7.681  11.488 -1.2130  0.2315 -0.7426
  905MOL0     H22147   2.702   7.564  11.620  0.8353 -1.2740  1.9244
  905MOL0     H22148   2.845   7.585  11.719 -1.9701 -1.5769  0.6637
  905MOL0     H22149   2.716   7.816  11.564  4.4663  4.8525 -0.1805
  905MOL0     H22150   2.861   7.830  11.650  0.8568 -1.2531  1.5157
  905MOL0     H22151   2.589   7.729  11.746 -2.2196  1.5399  0.5514
  905MOL0     H22152   2.727   7.761  11.859 -0.3423  0.2196  0.3631
  905MOL0     H22153   2.521   7.932  11.724 -0.1154 -0.2546  0.5705
  905MOL0     H22154   2.676   8.005  11.705 -1.5002  0.5703 -0.9459
  905MOL0     H22155   2.740   7.994  11.943  0.1957 -1.1588  0.1876
  905MOL0     H22156   2.571   7.931  11.973  1.2471 -1.9273 -1.8608
  905MOL0     H22157   3.101   7.026  11.359  1.9002  0.9017  3.1224
  905MOL0     H22158   3.272   6.927  11.256 -1.3249 -0.5575  0.3273
  905MOL0     H22159   3.745   7.048  11.215  0.6761 -1.0954  1.6097
  905MOL0     H22160   3.953   6.934  11.202 -0.3674  0.8375  1.1318
  905MOL0     H22161   5.607   6.089  11.081  1.3037  0.6412 -1.3161
  905MOL0     H22162   5.803   6.180  10.980  0.8061 -0.2228  0.5385
  905MOL0     H22163   6.066   6.491  10.785 -1.9367 -1.0139  0.8858
  905MOL0     H22164   6.231   6.672  10.789  0.2576  2.1410  0.9884
  905MOL0     H22165   6.403   6.820  10.816  0.4941  1.8092  0.6525
  905MOL0     H22166   6.309   6.914  10.925  2.3639  3.0302 -2.5949
  905MOL0     H22167   6.601   6.853  10.945  1.1787 -0.0646  2.2524
  905MOL0     H22168   6.510   6.963  11.056  1.6074  1.2684  0.5513
  905MOL0     H22169   6.474   7.119  10.848 -1.3153 -0.8425 -0.2541
  905MOL0     H22170   6.573   6.997  10.762 -3.4564 -2.3626  0.6003
  905MOL0     H22171   6.766   7.056  10.918 -0.0996 -0.3139 -2.8988
  905MOL0     H22172   6.654   7.176  10.995  0.4578  4.6271 -3.1315
  905MOL0     H22173   6.725   7.386  10.647  1.1166 -3.1655 -3.8509
  905MOL0     H22174   6.388   6.559  11.163 -1.0283  2.5290  0.3137
  905MOL0     H22175   6.231   6.355  11.161 -0.5564 -3.3345 -2.8681
  906MOL0     O22176   3.873  10.625  10.908  0.0289 -0.0447 -0.3459
  906MOL0     C22177   3.865  10.680  11.016 -0.0446 -0.2597  0.1362
  906MOL0     O22178   3.747  10.726  11.084 -0.1405  0.0668  0.6240
  906MOL0     C22179   3.619  10.713  11.033  0.5639  1.0908 -0.8352
  906MOL0     C22180   3.522  10.774  11.110  0.2465  0.3455 -0.4106
  906MOL0     C22181   3.381  10.760  11.083 -0.2798 -0.2546 -0.0739
  906MOL0     C22182   3.335  10.694  10.970 -0.9008  0.1037 -0.9124
  906MOL0     O22183   3.209  10.668  10.933 -0.3050  0.9182  0.2556
  906MOL0     C22184   3.104  10.694  11.034 -0.3439  0.2771  0.9013
  906MOL0     C22185   2.973  10.652  10.969  0.5803  0.1270  0.8836
  906MOL0     C22186   2.868  10.658  11.075 -0.4599 -0.2051  0.2600
  906MOL0     C22187   2.747  10.578  11.027 -0.2349 -0.5366 -0.3391
  906MOL0     C22188   2.625  10.633  11.101  0.9153 -0.2649  0.6087
  906MOL0     C22189   2.483  10.572  11.063 -0.3315  0.1100  0.4062
  906MOL0     C22190   2.370  10.675  11.100 -0.8419 -0.1652 -0.1870
  906MOL0     C22191   2.225  10.634  11.069 -0.3079  0.0051 -0.3650
  906MOL0     N22192   2.130  10.745  11.083 -0.2049 -0.4283  0.2920
  906MOL0     C22193   2.053  10.804  10.979 -0.3694  0.3071 -0.2286
  906MOL0     C22194   1.977  10.897  11.046  0.0694  0.2464 -0.0992
  906MOL0     C22195   1.876  10.994  10.984 -0.7448  0.0846 -0.2458
  906MOL0     C22196   1.953  11.118  10.937 -0.9740  0.5757  0.6035
  906MOL0     C22197   1.996  11.215  11.048  0.1299  0.7394 -0.0263
  906MOL0     C22198   2.131  11.271  11.030 -0.2927  0.2969  0.3681
  906MOL0     O22199   2.139  11.346  10.914 -0.3240  0.0593  0.1424
  906MOL0     C22200   2.258  11.396  10.870  0.5547  0.3760  1.0927
  906MOL0     C22201   2.248  11.473  10.748  0.5935 -0.4032 -0.5251
  906MOL0     C22202   2.361  11.524  10.688 -0.3007  0.4803 -0.7059
  906MOL0     C22203   2.334  11.560  10.543  0.1262  1.0297 -0.1715
  906MOL0     C22204   2.487  11.512  10.751 -0.7752 -0.8990  0.1907
  906MOL0     C22205   2.612  11.576  10.698  0.1635  0.6242 -0.0735
  906MOL0     O22206   2.727  11.500  10.727  0.4461 -0.5057 -0.1460
  906MOL0     C22207   2.844  11.561  10.697 -0.4525  0.1986 -0.3916
  906MOL0     C22208   2.927  11.505  10.594  0.8168 -0.5511  0.2432
  906MOL0     C22209   3.060  11.540  10.584  0.6439 -0.9375 -0.0362
  906MOL0     C22210   3.099  11.658  10.648 -0.8761 -0.3257 -0.0018
  906MOL0     O22211   3.231  11.708  10.644  0.4042 -0.1551  0.5860
  906MOL0     C22212   3.342  11.627  10.610  1.0757  0.3362 -0.3265
  906MOL0     C22213   3.467  11.715  10.606  0.8048  0.0393  0.2576
  906MOL0     C22214   3.590  11.625  10.590  0.7017  0.0905 -1.1133
  906MOL0     C22215   3.709  11.706  10.557 -0.2260  0.2001 -0.6022
  906MOL0     C22216   3.839  11.630  10.544  0.9723 -0.0353  0.5145
  906MOL0     C22217   3.888  11.583  10.684 -0.8798  0.4950 -0.1063
  906MOL0     C22218   4.021  11.508  10.690  0.4355 -0.4516  0.3125
  906MOL0     C22219   4.150  11.593  10.689  0.1452  0.0625  0.0760
  906MOL0    Cl22220   4.221  11.601  10.531 -0.3304  0.2923  0.0448
  906MOL0     C22221   3.010  11.731  10.734  0.5917 -0.1798  0.4462
  906MOL0     C22222   2.884  11.681  10.770 -0.2869  1.0582 -0.2733
  906MOL0     O22223   2.609  11.679  10.632  0.4251  0.9566 -0.4357
  906MOL0     C22224   2.493  11.434  10.868 -0.0723 -0.2317 -0.1295
  906MOL0     C22225   2.385  11.377  10.922  1.2333 -0.8628 -0.1081
  906MOL0     N22226   2.007  10.891  11.182  1.0265 -0.3133 -0.6267
  906MOL0     N22227   2.107  10.814  11.205 -0.0225  0.5140 -0.2258
  906MOL0     C22228   3.436  10.651  10.882  0.6653 -0.0663  0.2023
  906MOL0     C22229   3.572  10.652  10.910 -0.1509  0.2812  0.0341
  906MOL0     C22230   3.989  10.687  11.089  0.0262 -0.4106 -0.6250
  906MOL0     C22231   4.096  10.590  11.074  0.5333 -0.9613  0.6331
  906MOL0     C22232   4.209  10.599  11.152 -0.6320 -0.4450  0.2601
  906MOL0     C22233   4.220  10.702  11.245 -0.3637 -1.4193  1.0522
  906MOL0     O22234   4.327  10.705  11.332 -0.0420  0.2204  0.4887
  906MOL0     C22235   4.435  10.799  11.297  0.9773  0.1079  0.4195
  906MOL0     C22236   4.553  10.755  11.388  0.3078 -0.1802 -0.7013
  906MOL0     C22237   4.638  10.655  11.308 -0.5496  0.0129  1.1060
  906MOL0     C22238   4.744  10.710  11.202 -0.3120 -0.4289  0.0367
  906MOL0     C22239   4.836  10.801  11.267  0.1968  1.0322  0.8990
  906MOL0     C22240   4.895  10.852  11.357 -0.9088 -0.3980  0.3646
  906MOL0     C22241   4.126  10.797  11.248 -0.4266 -0.2487 -0.2138
  906MOL0     C22242   4.017  10.797  11.170 -0.3172 -0.4078 -0.2270
  906MOL0     H22243   3.555  10.828  11.199 -0.8201  2.8262 -1.4240
  906MOL0     H22244   3.307  10.802  11.151 -0.1548 -1.1945  0.6552
  906MOL0     H22245   3.121  10.635  11.124  2.4105 -2.3657 -1.1515
  906MOL0     H22246   3.090  10.794  11.075 -4.3000  1.3991 -2.4651
  906MOL0     H22247   2.947  10.706  10.878  0.2859 -2.4256 -0.6496
  906MOL0     H22248   2.990  10.553  10.926 -2.3738  1.7293 -5.0916
  906MOL0     H22249   2.904  10.614  11.168 -1.3103  1.8082  1.6226
  906MOL0     H22250   2.846  10.765  11.087  0.2121  0.1570 -1.4030
  906MOL0     H22251   2.743  10.577  10.918 -1.5232  2.3343 -0.4044
  906MOL0     H22252   2.763  10.474  11.054 -1.1458 -0.2980  1.2308
  906MOL0     H22253   2.645  10.616  11.207 -1.0343 -0.1200  1.0388
  906MOL0     H22254   2.617  10.742  11.088 -1.2640 -0.3684  0.8309
  906MOL0     H22255   2.474  10.550  10.956  2.4991 -1.6765  0.4208
  906MOL0     H22256   2.477  10.477  11.117  1.7785  0.6635  1.7228
  906MOL0     H22257   2.373  10.698  11.207 -0.9537  3.3525 -0.7980
  906MOL0     H22258   2.388  10.760  11.033  0.2944  0.3713  0.7583
  906MOL0     H22259   2.203  10.558  11.146  3.5569 -1.7279 -0.7342
  906MOL0     H22260   2.207  10.589  10.971 -1.4750  1.8756 -1.0620
  906MOL0     H22261   2.053  10.794  10.871  2.0379  1.3442 -0.3953
  906MOL0     H22262   1.844  10.934  10.898  0.7165  0.4769 -1.1051
  906MOL0     H22263   1.797  11.025  11.053 -1.4661  0.8111 -1.3561
  906MOL0     H22264   1.892  11.175  10.866 -1.2429 -1.2472 -0.7113
  906MOL0     H22265   2.035  11.076  10.878 -0.5484 -3.1359  3.4713
  906MOL0     H22266   1.984  11.160  11.142 -2.7346  0.1728 -0.6498
  906MOL0     H22267   1.923  11.296  11.047 -1.8513 -0.8584  2.7003
  906MOL0     H22268   2.210  11.195  11.022  1.7854  2.1069  2.3509
  906MOL0     H22269   2.149  11.339  11.114 -2.2221  0.7148  0.4890
  906MOL0     H22270   2.147  11.469  10.708  1.4792 -0.4362 -2.9253
  906MOL0     H22271   2.305  11.474  10.482  0.1995  0.0719  1.1021
  906MOL0     H22272   2.271  11.649  10.543 -0.2841  0.7675 -1.8557
  906MOL0     H22273   2.424  11.589  10.488  0.4464  1.3074  0.4854
  906MOL0     H22274   2.883  11.413  10.557 -0.7674  0.5946 -0.8274
  906MOL0     H22275   3.133  11.485  10.527 -0.6707 -1.2062 -1.5520
  906MOL0     H22276   3.359  11.550  10.685  1.1688  1.3352  0.7021
  906MOL0     H22277   3.337  11.574  10.514  0.6128 -0.4791  0.1308
  906MOL0     H22278   3.470  11.785  10.522  1.2157  1.9816  1.8278
  906MOL0     H22279   3.481  11.775  10.696  2.1323 -0.6444  0.5239
  906MOL0     H22280   3.565  11.548  10.516 -2.3169  0.2652 -0.3888
  906MOL0     H22281   3.605  11.573  10.685 -1.1113 -1.0575 -1.3991
  906MOL0     H22282   3.700  11.756  10.460 -1.3101  1.0804 -0.0691
  906MOL0     H22283   3.717  11.788  10.630 -0.4255 -0.7037  0.4553
  906MOL0     H22284   3.902  11.693  10.482 -1.4696  0.4474 -1.6545
  906MOL0     H22285   3.818  11.537  10.489  4.4965 -0.9144  0.4610
  906MOL0     H22286   3.908  11.671  10.746 -1.2305 -0.3922  1.3083
  906MOL0     H22287   3.814  11.523  10.736 -3.8096  0.2315 -4.0936
  906MOL0     H22288   4.009  11.436  10.608  0.5749  1.6761 -1.6618
  906MOL0     H22289   4.025  11.454  10.785 -0.0181  0.2259  0.7241
  906MOL0     H22290   4.226  11.554  10.758  1.1962 -1.4346 -1.8120
  906MOL0     H22291   4.120  11.692  10.725  0.3791 -0.9041  3.3152
  906MOL0     H22292   3.074  11.803  10.783  3.3428 -2.5167  0.5559
  906MOL0     H22293   2.823  11.718  10.853  0.2217  1.6304 -0.1431
  906MOL0     H22294   2.583  11.412  10.925 -0.2764 -2.5784 -0.6048
  906MOL0     H22295   2.396  11.330  11.020 -3.0201  0.1864  1.0599
  906MOL0     H22296   3.402  10.617  10.785 -1.7451  2.9628 -0.1921
  906MOL0     H22297   3.648  10.607  10.848  2.2817  1.6311  1.8571
  906MOL0     H22298   4.087  10.511  11.000  0.2611 -0.6286  0.3062
  906MOL0     H22299   4.282  10.519  11.152  0.3757  0.4084 -1.6047
  906MOL0     H22300   4.460  10.798  11.191 -1.3676  0.0520 -0.1885
  906MOL0     H22301   4.408  10.901  11.328 -1.0561 -0.2076 -0.1622
  906MOL0     H22302   4.520  10.695  11.473  3.0161 -2.6771 -1.2535
  906MOL0     H22303   4.615  10.837  11.424 -0.9204  0.8216 -0.7656
  906MOL0     H22304   4.576  10.589  11.245  1.6287  0.2964 -1.5250
  906MOL0     H22305   4.697  10.592  11.375  0.0058 -0.8903 -0.1860
  906MOL0     H22306   4.709  10.753  11.108  2.7765 -0.3613 -1.1790
  906MOL0     H22307   4.817  10.634  11.174 -0.2309  0.1305 -1.3300
  906MOL0     H22308   4.948  10.883  11.445 -3.2391 -0.9651  2.0586
  906MOL0     H22309   4.143  10.891  11.300 -0.6534  1.2707 -2.7110
  906MOL0     H22310   3.952  10.883  11.168 -0.0615 -0.2160 -2.4221
  907MOL0     O22311   1.204   8.824   4.977  0.1127 -0.7984  0.2178
  907MOL0     C22312   1.189   8.729   4.896 -0.4092  0.3287 -0.0591
  907MOL0     O22313   1.068   8.676   4.854 -0.3858 -0.0200  0.1160
  907MOL0     C22314   0.951   8.735   4.885 -0.0905  0.2436  0.2391
  907MOL0     C22315   0.849   8.732   4.782  0.0526 -1.0180  0.4101
  907MOL0     C22316   0.722   8.785   4.809  0.1326  0.4458  0.3256
  907MOL0     C22317   0.682   8.834   4.935  0.4657  0.5745  1.2743
  907MOL0     O22318   0.560   8.895   4.957  0.4445 -0.3685  0.5407
  907MOL0     C22319   0.478   8.826   5.049  0.0227 -0.9354 -0.2182
  907MOL0     C22320   0.351   8.903   5.071 -0.0333  0.0596 -0.8284
  907MOL0     C22321   0.386   9.024   5.147 -0.3131 -0.2055  0.1806
  907MOL0     C22322   0.274   9.083   5.225  0.2828 -0.0929  0.5656
  907MOL0     C22323   0.159   9.132   5.142 -0.4217  0.0225  0.1060
  907MOL0     C22324   0.205   9.255   5.040 -1.0587  0.3821 -0.8979
  907MOL0     C22325   0.079   9.324   4.984 -0.1510  0.2515 -0.3680
  907MOL0     C22326   0.104   9.440   4.897  0.7921 -0.5641 -0.0011
  907MOL0     N22327   0.003   9.549   4.921 -0.4109  1.0861  0.6113
  907MOL0     C22328  -0.093   9.569   4.820 -0.5521 -0.4865 -0.4174
  907MOL0     C22329  -0.159   9.689   4.847  0.3017  0.0633 -0.4137
  907MOL0     C22330  -0.271   9.763   4.773  0.1471  0.5090 -0.6898
  907MOL0     C22331  -0.408   9.697   4.788 -0.1439 -0.4350 -0.1221
  907MOL0     C22332  -0.453   9.708   4.933  0.1941  0.1595  0.0966
  907MOL0     C22333  -0.580   9.622   4.949  0.5883 -0.1704 -0.3383
  907MOL0     O22334  -0.689   9.692   4.869 -0.0147  0.7147  0.2429
  907MOL0     C22335  -0.810   9.710   4.927 -0.4809  0.1043 -0.0605
  907MOL0     C22336  -0.870   9.606   5.001  0.0046  0.1538  0.0778
  907MOL0     C22337  -1.013   9.621   5.027 -0.2218  0.1238 -0.1389
  907MOL0     C22338  -1.071   9.515   5.112  0.5675 -0.2554 -0.2172
  907MOL0     C22339  -1.089   9.731   4.976 -0.5011  0.3670 -0.3141
  907MOL0     C22340  -1.232   9.739   4.967  0.8168 -0.7044 -0.9280
  907MOL0     O22341  -1.297   9.861   4.918 -0.3678 -0.0156 -0.2675
  907MOL0     C22342  -1.440   9.858   4.905  0.7836 -0.4967  0.6903
  907MOL0     C22343  -1.519   9.816   5.008 -0.3529  0.0238 -0.5119
  907MOL0     C22344  -1.657   9.794   4.986  0.4225  0.1234 -0.1848
  907MOL0     C22345  -1.717   9.803   4.857 -0.2090 -0.6512 -1.1200
  907MOL0     O22346  -1.850   9.782   4.821 -0.5193  0.3081 -0.2545
  907MOL0     C22347  -1.954   9.797   4.918  0.1102 -0.7772 -0.4923
  907MOL0     C22348  -2.010   9.657   4.959 -0.3268  0.0753  0.1231
  907MOL0     C22349  -2.142   9.659   5.030  1.1117  0.5982  0.0702
  907MOL0     C22350  -2.258   9.709   4.937 -0.8230  0.3484 -0.2271
  907MOL0     C22351  -2.401   9.701   4.990  0.9760  0.2724  0.6596
  907MOL0     C22352  -2.508   9.737   4.875 -0.6896  0.7969 -0.0269
  907MOL0     C22353  -2.655   9.704   4.931 -0.5762  0.1648  0.9153
  907MOL0     C22354  -2.714   9.819   4.995  0.8701  0.0332 -0.3631
  907MOL0    Cl22355  -2.875   9.754   5.051  0.5149  0.0538 -0.1334
  907MOL0     C22356  -1.632   9.849   4.757 -0.6745 -0.4987 -0.3736
  907MOL0     C22357  -1.494   9.874   4.781  0.8388 -0.4250 -0.6096
  907MOL0     O22358  -1.294   9.640   5.002  0.5626 -0.1963 -0.6227
  907MOL0     C22359  -1.013   9.826   4.906  1.1423 -0.3845  0.2734
  907MOL0     C22360  -0.875   9.822   4.879  0.1498  0.6570 -0.0425
  907MOL0     N22361  -0.085   9.740   4.960  0.6497  0.4925 -0.1031
  907MOL0     N22362  -0.004   9.655   5.008  0.5947 -0.2322 -0.1682
  907MOL0     C22363   0.784   8.840   5.030  0.0914  0.5115  1.3304
  907MOL0     C22364   0.919   8.798   5.001 -0.0189  0.1848  0.1796
  907MOL0     C22365   1.299   8.653   4.855  0.3732 -0.5190  0.9988
  907MOL0     C22366   1.426   8.691   4.897  0.0439  0.8372 -0.6212
  907MOL0     C22367   1.541   8.627   4.843 -0.7191  0.0802  0.0700
  907MOL0     C22368   1.528   8.515   4.765  0.4089  0.2339 -0.2962
  907MOL0     O22369   1.643   8.440   4.738 -0.0743 -0.7663  0.4178
  907MOL0     C22370   1.623   8.302   4.701  1.0855  0.5838  0.0804
  907MOL0     C22371   1.743   8.213   4.696 -0.6952  0.4872  0.7720
  907MOL0     C22372   1.858   8.262   4.597 -0.1663 -0.8933 -0.4180
  907MOL0     C22373   1.976   8.170   4.630  0.3236  0.0497 -0.3995
  907MOL0     C22374   2.087   8.197   4.540 -1.1091  0.4595 -0.0676
  907MOL0     C22375   2.182   8.235   4.472  0.3809  0.2660  0.4771
  907MOL0     C22376   1.399   8.472   4.727 -0.3034 -0.4703  0.1333
  907MOL0     C22377   1.292   8.547   4.764  0.1344 -0.8834  0.2193
  907MOL0     H22378   0.877   8.697   4.683  2.4209  3.2259 -0.6669
  907MOL0     H22379   0.654   8.800   4.726 -3.1529 -2.0391  2.3060
  907MOL0     H22380   0.450   8.731   5.003  1.9299 -3.0285  2.6107
  907MOL0     H22381   0.530   8.796   5.140 -0.3580 -1.3322 -0.1283
  907MOL0     H22382   0.307   8.936   4.977 -0.5836  0.7286 -0.3472
  907MOL0     H22383   0.287   8.841   5.134  2.8143 -1.2469  0.9850
  907MOL0     H22384   0.474   9.015   5.211 -0.7930 -0.3156  0.8379
  907MOL0     H22385   0.418   9.092   5.067 -0.2107 -2.7426 -2.0850
  907MOL0     H22386   0.240   8.999   5.285 -0.3405  1.0144  1.8078
  907MOL0     H22387   0.313   9.163   5.290 -1.5427  0.0824  1.5052
  907MOL0     H22388   0.136   9.048   5.076  0.7050  0.0641 -0.3700
  907MOL0     H22389   0.075   9.157   5.207  1.1479 -1.3234  2.8161
  907MOL0     H22390   0.270   9.322   5.097  0.0949 -0.2654 -1.4095
  907MOL0     H22391   0.264   9.206   4.961 -0.3611 -1.8429  0.8860
  907MOL0     H22392   0.031   9.251   4.918  2.3710 -0.4965 -1.5237
  907MOL0     H22393   0.017   9.350   5.070  0.0934 -0.7748  0.1328
  907MOL0     H22394   0.108   9.399   4.795  3.7704  3.2508 -1.6447
  907MOL0     H22395   0.202   9.477   4.928  0.2612  0.1925  0.8131
  907MOL0     H22396  -0.109   9.518   4.726 -2.6920  0.9981 -0.9376
  907MOL0     H22397  -0.277   9.869   4.800  0.9897  0.0740  1.4353
  907MOL0     H22398  -0.239   9.771   4.669 -1.0097  1.2975 -1.0041
  907MOL0     H22399  -0.403   9.590   4.765  3.3419 -0.0025 -2.1429
  907MOL0     H22400  -0.482   9.745   4.725  2.2117  1.6608 -1.4795
  907MOL0     H22401  -0.467   9.813   4.959  0.0676 -0.1896  1.4734
  907MOL0     H22402  -0.381   9.673   5.007  1.1901 -2.5684 -1.9557
  907MOL0     H22403  -0.605   9.621   5.055 -1.3745  0.0597 -0.7677
  907MOL0     H22404  -0.561   9.517   4.928 -0.6754 -0.0063 -2.6607
  907MOL0     H22405  -0.818   9.515   5.030  0.2600 -0.2730 -1.6060
  907MOL0     H22406  -1.131   9.563   5.190  0.2876 -0.3333 -0.3807
  907MOL0     H22407  -1.136   9.443   5.061  1.7729 -0.5092 -1.4436
  907MOL0     H22408  -0.989   9.462   5.161 -0.5697 -0.2942  1.7748
  907MOL0     H22409  -1.472   9.799   5.105  2.2037 -0.8167 -1.8140
  907MOL0     H22410  -1.711   9.756   5.072  1.0657  2.6272  1.4341
  907MOL0     H22411  -1.920   9.862   5.000  0.8992 -0.2635 -1.2040
  907MOL0     H22412  -2.034   9.860   4.879  0.6085 -0.2497 -0.6781
  907MOL0     H22413  -2.013   9.591   4.872 -1.1750 -0.4335  0.5223
  907MOL0     H22414  -1.941   9.611   5.030 -3.7930 -0.5304  3.4366
  907MOL0     H22415  -2.119   9.713   5.123  3.8040  0.5286 -0.4863
  907MOL0     H22416  -2.169   9.557   5.058 -1.1887  1.0235 -0.3346
  907MOL0     H22417  -2.233   9.808   4.898  3.3625 -0.1125  0.8564
  907MOL0     H22418  -2.243   9.639   4.855  0.8582  0.9972 -0.5180
  907MOL0     H22419  -2.422   9.770   5.072 -1.2372  1.0884 -0.5067
  907MOL0     H22420  -2.406   9.598   5.025  1.2424 -0.2828 -0.8535
  907MOL0     H22421  -2.495   9.842   4.851 -1.3988  1.0078  0.4770
  907MOL0     H22422  -2.479   9.669   4.795 -0.7065  0.8867 -0.1087
  907MOL0     H22423  -2.659   9.613   4.991 -2.3624 -1.8691 -2.0686
  907MOL0     H22424  -2.723   9.684   4.848 -0.1155 -0.4404  0.6739
  907MOL0     H22425  -2.719   9.908   4.931 -2.4283  1.3273  1.4205
  907MOL0     H22426  -2.650   9.849   5.079 -0.7935 -0.2489  1.0698
  907MOL0     H22427  -1.670   9.869   4.657 -1.1734  3.3078  0.4122
  907MOL0     H22428  -1.431   9.894   4.695  1.4041 -0.6017 -0.2395
  907MOL0     H22429  -1.068   9.907   4.861 -0.3290 -1.5975 -0.1828
  907MOL0     H22430  -0.832   9.895   4.811  0.3096  2.6571  2.1038
  907MOL0     H22431   0.772   8.887   5.127  0.1390  0.6188  1.2849
  907MOL0     H22432   0.987   8.822   5.083  0.1683  3.6772 -0.8638
  907MOL0     H22433   1.440   8.769   4.972  0.8685 -0.8183  1.0189
  907MOL0     H22434   1.635   8.653   4.891 -1.4558 -0.3254  1.8131
  907MOL0     H22435   1.553   8.257   4.773  0.1804  3.3236  1.0309
  907MOL0     H22436   1.584   8.297   4.599  3.8878 -0.2712 -1.0373
  907MOL0     H22437   1.716   8.110   4.670 -1.8908  0.3202  2.4969
  907MOL0     H22438   1.780   8.211   4.799  3.3485  1.9281 -0.4618
  907MOL0     H22439   1.882   8.363   4.629  1.7325 -1.6373  0.6798
  907MOL0     H22440   1.824   8.263   4.493  0.4852 -0.2190 -0.6247
  907MOL0     H22441   1.951   8.065   4.617 -1.4910  0.5504 -1.3874
  907MOL0     H22442   2.009   8.195   4.731 -0.0507  0.0890 -0.2875
  907MOL0     H22443   2.267   8.246   4.408  1.8823 -1.8568  1.9535
  907MOL0     H22444   1.384   8.385   4.665  0.9356 -0.5463 -0.0849
  907MOL0     H22445   1.199   8.517   4.717  0.0212  0.1952 -0.2724
  908MOL0     O22446   6.701   2.596   1.914 -0.0862 -0.4929 -0.1680
  908MOL0     C22447   6.722   2.667   1.814 -0.3729 -0.2447 -0.2264
  908MOL0     O22448   6.658   2.650   1.697  0.4126  0.2472 -0.5869
  908MOL0     C22449   6.542   2.577   1.700  0.1149 -0.4909  0.2335
  908MOL0     C22450   6.426   2.630   1.637  0.3260 -0.3788  0.0183
  908MOL0     C22451   6.308   2.572   1.649  0.4558  1.1970 -0.2161
  908MOL0     C22452   6.297   2.445   1.701 -0.1695 -0.2300 -0.3848
  908MOL0     O22453   6.178   2.384   1.723 -0.5544  0.1669 -0.4465
  908MOL0     C22454   6.100   2.420   1.837 -0.3761 -0.9669 -0.3595
  908MOL0     C22455   5.949   2.385   1.826  0.0042  0.2848 -0.4533
  908MOL0     C22456   5.937   2.237   1.838 -0.3335 -0.1488 -0.3630
  908MOL0     C22457   5.789   2.197   1.864  0.7439 -0.5683 -0.1812
  908MOL0     C22458   5.800   2.052   1.900 -0.1649  1.1649 -0.4433
  908MOL0     C22459   5.662   1.984   1.912 -1.0104 -0.3835  0.7261
  908MOL0     C22460   5.682   1.826   1.896  0.5039 -0.4127 -0.1570
  908MOL0     C22461   5.546   1.766   1.892  0.0254 -0.4041  0.7213
  908MOL0     N22462   5.470   1.754   2.018  0.3664 -1.1032 -0.8861
  908MOL0     C22463   5.498   1.658   2.111  0.3812  0.4173 -0.1681
  908MOL0     C22464   5.384   1.641   2.188  1.2951  0.4831 -1.5555
  908MOL0     C22465   5.344   1.561   2.304 -1.4828 -1.0825  0.2830
  908MOL0     C22466   5.260   1.454   2.257  0.1251  0.4012  0.1322
  908MOL0     C22467   5.200   1.371   2.371 -0.0875 -0.2416  0.6304
  908MOL0     C22468   5.063   1.422   2.425 -0.2448 -0.6862  1.0299
  908MOL0     O22469   5.040   1.406   2.567 -0.1111 -0.6715 -0.2912
  908MOL0     C22470   4.926   1.348   2.615  0.2569  0.5138 -0.0160
  908MOL0     C22471   4.807   1.344   2.547 -0.4610 -0.0952  0.3804
  908MOL0     C22472   4.685   1.312   2.609 -0.1173 -0.5007 -0.6525
  908MOL0     C22473   4.548   1.353   2.539 -0.6813 -0.2035  0.2534
  908MOL0     C22474   4.693   1.239   2.736  0.6811 -0.2218  0.3736
  908MOL0     C22475   4.573   1.186   2.805  0.0535  0.3165 -0.3563
  908MOL0     O22476   4.593   1.146   2.935 -0.4215 -0.5279  0.1445
  908MOL0     C22477   4.485   1.097   3.005 -0.3624  0.1719 -0.3476
  908MOL0     C22478   4.392   1.182   3.070  0.0098  0.4926  1.0472
  908MOL0     C22479   4.281   1.132   3.141 -0.1440  0.7201  0.7364
  908MOL0     C22480   4.270   0.990   3.142 -0.1236 -0.2312 -0.3426
  908MOL0     O22481   4.158   0.958   3.215 -0.1776 -0.1840  0.5365
  908MOL0     C22482   4.117   0.824   3.241 -0.4665 -0.2105 -0.5057
  908MOL0     C22483   3.996   0.818   3.331 -1.5512 -0.6230 -0.8755
  908MOL0     C22484   3.924   0.686   3.336  0.8679  0.2467 -0.3893
  908MOL0     C22485   3.763   0.702   3.336 -0.2166  0.2331 -0.1426
  908MOL0     C22486   3.703   0.666   3.477 -0.0393  0.0243 -0.4170
  908MOL0     C22487   3.561   0.610   3.470 -1.4278 -0.0127 -0.5625
  908MOL0     C22488   3.459   0.717   3.428  0.3250  0.5168  0.3676
  908MOL0     C22489   3.341   0.660   3.365  0.1693 -0.6096  0.7308
  908MOL0    Cl22490   3.394   0.611   3.199 -0.0398  0.1079 -0.3326
  908MOL0     C22491   4.369   0.904   3.090 -0.6656 -0.2119 -0.0767
  908MOL0     C22492   4.475   0.957   3.022 -0.3468  0.0456  0.3291
  908MOL0     O22493   4.466   1.179   2.741  0.0793  0.4786 -0.5361
  908MOL0     C22494   4.819   1.229   2.800 -0.8587 -0.5793  0.6382
  908MOL0     C22495   4.935   1.282   2.733 -0.1927 -0.0726 -0.5413
  908MOL0     N22496   5.287   1.715   2.129  0.7549 -1.2624  0.1217
  908MOL0     N22497   5.338   1.780   2.030  0.2499  0.5976  0.6358
  908MOL0     C22498   6.412   2.380   1.756  1.0220  0.6446 -0.0568
  908MOL0     C22499   6.538   2.439   1.746 -0.6345  0.5594  1.1357
  908MOL0     C22500   6.815   2.780   1.831 -0.1771  0.2331  0.4321
  908MOL0     C22501   6.821   2.874   1.730 -0.4623  0.4810  0.0123
  908MOL0     C22502   6.918   2.978   1.736 -0.1652  1.2949 -0.0209
  908MOL0     C22503   6.998   2.989   1.849 -0.3053  0.4406  0.3183
  908MOL0     O22504   7.071   3.102   1.861  0.1611  0.1611  0.2533
  908MOL0     C22505   7.150   3.121   1.977  0.4899 -0.3763 -0.6834
  908MOL0     C22506   7.226   3.256   1.970 -0.6758  0.0265 -0.3719
  908MOL0     C22507   7.307   3.285   2.103 -0.0930  0.2628 -0.1712
  908MOL0     C22508   7.409   3.403   2.082  0.2142  0.3533 -0.3821
  908MOL0     C22509   7.328   3.521   2.054  0.9998 -0.2147  0.1526
  908MOL0     C22510   7.262   3.616   2.027  1.1159 -0.7189 -0.1053
  908MOL0     C22511   6.991   2.890   1.949  0.3466 -0.1248  0.6808
  908MOL0     C22512   6.900   2.790   1.937 -0.1692  0.5820 -0.5651
  908MOL0     H22513   6.433   2.726   1.587 -0.2516 -0.0445  0.5613
  908MOL0     H22514   6.210   2.599   1.609 -1.7368 -2.2496  2.2676
  908MOL0     H22515   6.142   2.360   1.918 -0.3461  0.7444  0.9473
  908MOL0     H22516   6.113   2.522   1.874 -1.0888 -2.0311  3.1290
  908MOL0     H22517   5.887   2.428   1.906  0.3141 -0.2781  0.0967
  908MOL0     H22518   5.902   2.416   1.732 -0.7777 -1.5776 -0.7252
  908MOL0     H22519   5.971   2.202   1.740 -1.2347  2.3641 -1.6635
  908MOL0     H22520   5.997   2.191   1.916 -1.4700  1.7694  1.7440
  908MOL0     H22521   5.739   2.257   1.941 -0.0538  1.9190 -2.4884
  908MOL0     H22522   5.732   2.211   1.772  0.5347 -1.8324 -0.2588
  908MOL0     H22523   5.863   1.987   1.839 -1.7019 -1.0884  0.2355
  908MOL0     H22524   5.844   2.041   2.000 -1.3951 -1.7227 -0.1223
  908MOL0     H22525   5.604   1.996   2.004  0.3557  0.7457  1.4753
  908MOL0     H22526   5.606   2.018   1.824  0.2540  0.4029  0.1995
  908MOL0     H22527   5.724   1.798   1.799 -2.8281 -0.3984 -1.7328
  908MOL0     H22528   5.736   1.792   1.985 -1.2154 -0.5992  0.8524
  908MOL0     H22529   5.552   1.665   1.850 -2.2571 -1.0862  1.8290
  908MOL0     H22530   5.486   1.822   1.821 -2.6846 -3.6480  0.1805
  908MOL0     H22531   5.595   1.616   2.135  0.4643  0.9058  0.3806
  908MOL0     H22532   5.434   1.527   2.358 -0.4996  0.3320 -0.4005
  908MOL0     H22533   5.310   1.633   2.380  3.2734  2.2743 -0.3112
  908MOL0     H22534   5.317   1.387   2.193 -0.1711 -0.7356  1.0224
  908MOL0     H22535   5.174   1.504   2.211 -0.0176  1.2926  1.2983
  908MOL0     H22536   5.274   1.354   2.450 -0.7112  0.5445  1.4066
  908MOL0     H22537   5.187   1.268   2.338  0.6538  0.3205 -1.5346
  908MOL0     H22538   4.985   1.375   2.364  0.3518 -0.0704 -0.2359
  908MOL0     H22539   5.050   1.526   2.396  0.1617 -0.3996  1.8444
  908MOL0     H22540   4.800   1.389   2.449 -3.1996 -2.9716 -0.9197
  908MOL0     H22541   4.510   1.260   2.497  0.4158  0.4619 -2.3959
  908MOL0     H22542   4.470   1.397   2.602 -1.0070  1.3087 -1.1461
  908MOL0     H22543   4.574   1.427   2.463 -0.0104  0.6110  1.2542
  908MOL0     H22544   4.392   1.290   3.066 -0.8015  0.4860  0.7312
  908MOL0     H22545   4.200   1.196   3.174  0.3373  0.9518  1.5093
  908MOL0     H22546   4.098   0.783   3.142  0.8440  0.2491 -0.9794
  908MOL0     H22547   4.189   0.753   3.283 -0.1904  0.0020 -0.6158
  908MOL0     H22548   4.029   0.842   3.432  1.2259 -1.3842 -1.4970
  908MOL0     H22549   3.935   0.902   3.296 -1.5885 -0.4674 -0.4460
  908MOL0     H22550   3.958   0.624   3.420  0.4012  1.7426  0.9511
  908MOL0     H22551   3.950   0.627   3.248  3.4225  0.6984 -0.0026
  908MOL0     H22552   3.745   0.806   3.305  2.1575  0.5618 -0.5555
  908MOL0     H22553   3.718   0.635   3.263  0.7426 -1.9394  1.1695
  908MOL0     H22554   3.719   0.756   3.537  0.3778  0.2548 -0.8634
  908MOL0     H22555   3.772   0.601   3.532  0.0389  1.4187  1.2018
  908MOL0     H22556   3.559   0.522   3.405  2.4001 -0.3436 -0.4308
  908MOL0     H22557   3.546   0.566   3.569  1.2843 -0.0668 -0.1108
  908MOL0     H22558   3.507   0.778   3.351 -0.4418 -0.2351 -0.7201
  908MOL0     H22559   3.439   0.779   3.516 -3.0533 -0.5035  0.4542
  908MOL0     H22560   3.269   0.742   3.357  2.3236  1.2838 -0.9096
  908MOL0     H22561   3.298   0.572   3.413 -0.0243 -2.4706 -2.5448
  908MOL0     H22562   4.377   0.798   3.112 -3.8811 -0.4393  0.3987
  908MOL0     H22563   4.553   0.892   2.984  0.2874  0.9327  0.0910
  908MOL0     H22564   4.826   1.171   2.891 -3.7229 -0.2152  1.1648
  908MOL0     H22565   5.029   1.272   2.786 -0.3974 -1.4803 -0.4079
  908MOL0     H22566   6.390   2.281   1.795  0.3969  0.7897 -0.0432
  908MOL0     H22567   6.629   2.384   1.767  0.6011  0.8098 -2.7171
  908MOL0     H22568   6.758   2.871   1.642 -2.3573  3.1882  1.1410
  908MOL0     H22569   6.920   3.056   1.660 -1.9076  1.3208 -0.0719
  908MOL0     H22570   7.085   3.106   2.064  1.3195 -3.2268 -0.4624
  908MOL0     H22571   7.222   3.041   1.995  0.1873 -1.2893 -3.0400
  908MOL0     H22572   7.150   3.334   1.960 -0.9405 -0.2407 -0.4791
  908MOL0     H22573   7.288   3.265   1.880  2.7936  0.6860  1.9108
  908MOL0     H22574   7.364   3.196   2.131  0.0007  0.3866  0.0348
  908MOL0     H22575   7.242   3.303   2.189 -0.7528  2.1611 -1.0067
  908MOL0     H22576   7.473   3.385   1.996 -1.6277 -0.9737 -1.5447
  908MOL0     H22577   7.467   3.421   2.173  1.4268  0.2757 -1.1329
  908MOL0     H22578   7.206   3.697   1.986  0.5295 -0.1990  1.6177
  908MOL0     H22579   7.041   2.902   2.045 -0.6817 -1.1442  1.3755
  908MOL0     H22580   6.888   2.733   2.028 -2.6993  1.7189 -0.1044
  909MOL0     O22581   1.919   6.562   6.428 -0.3029 -0.0245 -0.2182
  909MOL0     C22582   1.969   6.649   6.488  0.2058  0.1005  0.6685
  909MOL0     O22583   1.911   6.707   6.596 -0.6378  0.0309  0.1552
  909MOL0     C22584   1.782   6.678   6.643 -0.4058  0.4966 -0.1107
  909MOL0     C22585   1.684   6.589   6.601 -0.7039  0.1715  0.7115
  909MOL0     C22586   1.552   6.582   6.657 -0.0331 -0.1683 -0.4271
  909MOL0     C22587   1.518   6.673   6.760 -0.3136 -0.3233  0.0901
  909MOL0     O22588   1.389   6.650   6.821 -0.0500 -0.3734  0.2071
  909MOL0     C22589   1.398   6.640   6.961  0.0762 -0.7130 -0.4566
  909MOL0     C22590   1.263   6.624   7.013 -0.2397 -0.1295  0.5544
  909MOL0     C22591   1.252   6.649   7.163  0.3120 -0.0661 -0.8068
  909MOL0     C22592   1.106   6.648   7.204 -0.1502  0.5680 -0.3008
  909MOL0     C22593   1.083   6.663   7.349 -0.2517  0.7883 -0.0327
  909MOL0     C22594   0.950   6.713   7.378  0.6213  0.1165 -0.7434
  909MOL0     C22595   0.813   6.633   7.353 -0.2809  1.3270 -0.1750
  909MOL0     C22596   0.776   6.534   7.466 -0.1959 -0.4886 -0.3756
  909MOL0     N22597   0.690   6.436   7.408 -0.1126  0.2834  0.3572
  909MOL0     C22598   0.553   6.443   7.402  1.1979 -0.8080 -0.0157
  909MOL0     C22599   0.520   6.328   7.326 -0.6379 -0.7773 -0.2927
  909MOL0     C22600   0.376   6.275   7.312 -0.3030  0.4359 -0.6917
  909MOL0     C22601   0.325   6.271   7.172  0.5671 -0.9695 -0.1493
  909MOL0     C22602   0.209   6.180   7.160 -0.3219  0.6333 -0.6385
  909MOL0     C22603   0.192   6.128   7.015 -0.2293 -0.0840  0.2983
  909MOL0     O22604   0.228   6.220   6.907 -0.0889  0.3305  0.7907
  909MOL0     C22605   0.163   6.339   6.909 -0.4840  0.6886  0.2671
  909MOL0     C22606   0.221   6.455   6.851  0.2273  0.0608 -0.9442
  909MOL0     C22607   0.172   6.584   6.873  0.1381 -0.4427 -0.1468
  909MOL0     C22608   0.253   6.709   6.824  0.7770  0.5580 -0.4547
  909MOL0     C22609   0.045   6.591   6.939  0.2046 -0.6710 -0.4944
  909MOL0     C22610  -0.026   6.722   6.962 -0.2150  0.6210  0.2729
  909MOL0     O22611  -0.012   6.821   6.864 -0.0423 -0.0737 -0.0156
  909MOL0     C22612  -0.104   6.925   6.864 -0.5512  0.1213 -0.0582
  909MOL0     C22613  -0.234   6.911   6.862 -0.1281  0.1975  0.7494
  909MOL0     C22614  -0.316   7.026   6.855  0.3245  0.0782  0.5580
  909MOL0     C22615  -0.271   7.163   6.845 -0.9346  0.0798  0.3820
  909MOL0     O22616  -0.338   7.282   6.831  0.5757  0.3454  0.5132
  909MOL0     C22617  -0.478   7.280   6.804  0.5418 -0.3276 -0.3745
  909MOL0     C22618  -0.499   7.265   6.654 -0.5956 -0.2001  0.0402
  909MOL0     C22619  -0.630   7.306   6.594  0.6472 -0.3774  0.3779
  909MOL0     C22620  -0.647   7.461   6.612 -0.2742  0.8083  0.0970
  909MOL0     C22621  -0.762   7.505   6.694 -1.0687  0.3827  0.2796
  909MOL0     C22622  -0.769   7.655   6.699 -0.0436  0.4312 -1.0766
  909MOL0     C22623  -0.886   7.701   6.784  0.7613  0.3701  0.0718
  909MOL0     C22624  -0.965   7.820   6.721 -0.9616 -0.5610 -0.6827
  909MOL0    Cl22625  -0.865   7.962   6.667 -0.2335 -0.0481 -0.1580
  909MOL0     C22626  -0.132   7.172   6.833  0.1833  0.5791  0.4125
  909MOL0     C22627  -0.050   7.055   6.836  0.5332 -0.3880 -0.8055
  909MOL0     O22628  -0.080   6.734   7.075  1.1354 -0.5311 -0.0707
  909MOL0     C22629  -0.016   6.480   6.989 -0.1992  0.7280 -0.1273
  909MOL0     C22630   0.044   6.354   6.968 -0.1737  0.4746 -0.3552
  909MOL0     N22631   0.637   6.254   7.287 -0.1663  0.4162 -0.2188
  909MOL0     N22632   0.740   6.326   7.329  0.5600  0.3233 -0.5638
  909MOL0     C22633   1.611   6.763   6.805 -0.1758 -0.2736 -0.0079
  909MOL0     C22634   1.738   6.762   6.748 -0.5229 -0.3490 -0.9488
  909MOL0     C22635   2.106   6.702   6.447  0.2412 -0.2080 -0.5095
  909MOL0     C22636   2.172   6.649   6.331 -0.0241 -1.1829  0.0014
  909MOL0     C22637   2.296   6.696   6.300  0.2203 -0.2194 -0.3349
  909MOL0     C22638   2.367   6.785   6.385 -0.7555  0.4872  0.8388
  909MOL0     O22639   2.491   6.823   6.356 -0.2527  0.0623  0.5111
  909MOL0     C22640   2.570   6.873   6.471  1.1057  0.2006  0.0239
  909MOL0     C22641   2.594   6.783   6.589 -0.1565  0.7682  0.4645
  909MOL0     C22642   2.662   6.854   6.700 -0.5031  0.1773  0.3532
  909MOL0     C22643   2.777   6.955   6.674 -0.5683 -0.0009 -0.2888
  909MOL0     C22644   2.882   6.903   6.582  0.2817  1.3958  0.3141
  909MOL0     C22645   2.954   6.821   6.528 -0.5943  0.5564  0.6133
  909MOL0     C22646   2.294   6.854   6.479  0.7066 -0.2005  0.1475
  909MOL0     C22647   2.162   6.802   6.519 -1.4112  0.7565  0.8364
  909MOL0     H22648   1.705   6.516   6.525  0.1856  0.1784  0.9373
  909MOL0     H22649   1.484   6.502   6.630  0.3181 -0.5991 -0.0473
  909MOL0     H22650   1.459   6.554   6.990 -1.8205 -3.0022 -2.7062
  909MOL0     H22651   1.434   6.734   7.002 -1.6309 -0.7224  1.2039
  909MOL0     H22652   1.197   6.691   6.959  0.0107  1.1950  1.8105
  909MOL0     H22653   1.226   6.522   6.998 -1.5050  0.5298 -1.0779
  909MOL0     H22654   1.294   6.556   7.202  0.2666 -0.4078 -1.5536
  909MOL0     H22655   1.309   6.731   7.207  1.1378 -1.9022  1.7905
  909MOL0     H22656   1.065   6.727   7.140  0.3357  0.0219 -1.3113
  909MOL0     H22657   1.053   6.560   7.166 -0.6244  0.5179  0.4616
  909MOL0     H22658   1.112   6.572   7.402 -1.0089 -0.0984 -1.1044
  909MOL0     H22659   1.160   6.736   7.377  0.5449 -0.1079  0.1800
  909MOL0     H22660   0.950   6.751   7.481  1.5798  0.0997 -0.7257
  909MOL0     H22661   0.941   6.802   7.314 -0.9053  0.4199 -0.1624
  909MOL0     H22662   0.726   6.698   7.339  0.4817  1.8268 -3.7370
  909MOL0     H22663   0.834   6.585   7.257 -0.3334  1.6252 -0.3382
  909MOL0     H22664   0.720   6.588   7.543 -1.2853 -3.7383  1.3213
  909MOL0     H22665   0.860   6.487   7.518 -0.1601 -0.8469 -0.7590
  909MOL0     H22666   0.480   6.510   7.446  1.3331 -0.5250 -0.2265
  909MOL0     H22667   0.378   6.177   7.360  1.9007 -0.9594 -3.3431
  909MOL0     H22668   0.303   6.334   7.366 -0.7216  1.1127 -1.9468
  909MOL0     H22669   0.402   6.230   7.106 -0.3215 -0.4269 -1.5756
  909MOL0     H22670   0.303   6.372   7.138  0.8156 -0.3045  1.5956
  909MOL0     H22671   0.124   6.234   7.202 -2.2426 -2.0322 -0.7872
  909MOL0     H22672   0.218   6.088   7.219  1.4319 -0.4767 -2.5099
  909MOL0     H22673   0.098   6.075   7.000  0.8987 -1.7417 -1.4068
  909MOL0     H22674   0.272   6.053   7.010  1.4835  1.7404 -2.1598
  909MOL0     H22675   0.312   6.447   6.792  1.0658 -1.8643  0.4710
  909MOL0     H22676   0.268   6.781   6.904  2.2539 -1.4897  1.2371
  909MOL0     H22677   0.352   6.673   6.792  1.0040  0.4843  0.3176
  909MOL0     H22678   0.205   6.744   6.732 -0.9132 -2.1154 -0.6971
  909MOL0     H22679  -0.262   6.807   6.872  5.3056 -1.7122 -0.5437
  909MOL0     H22680  -0.421   6.999   6.863 -0.0046  1.0338 -0.3056
  909MOL0     H22681  -0.531   7.201   6.858  2.2028 -0.7485  0.7407
  909MOL0     H22682  -0.520   7.371   6.848 -0.4344 -0.9378 -0.0135
  909MOL0     H22683  -0.405   7.304   6.614  0.8960  0.9803  4.1318
  909MOL0     H22684  -0.483   7.158   6.638  2.1989  0.2649 -0.8849
  909MOL0     H22685  -0.693   7.246   6.661  0.0229  1.2755  1.3311
  909MOL0     H22686  -0.640   7.270   6.492  0.3470 -6.4827  2.1628
  909MOL0     H22687  -0.554   7.513   6.635 -0.6918  0.6543  2.3363
  909MOL0     H22688  -0.669   7.500   6.512  0.3587  2.4610  0.5774
  909MOL0     H22689  -0.736   7.480   6.797  1.2872  2.8065  0.3899
  909MOL0     H22690  -0.856   7.471   6.650  0.8552 -2.3839 -2.0949
  909MOL0     H22691  -0.674   7.694   6.738  2.4633 -0.7971 -5.2676
  909MOL0     H22692  -0.781   7.692   6.596 -0.0077  0.4427 -1.0764
  909MOL0     H22693  -0.842   7.723   6.882  1.4115 -2.5347  0.5241
  909MOL0     H22694  -0.957   7.618   6.796 -0.8503  1.5543 -0.9074
  909MOL0     H22695  -1.035   7.854   6.798  0.3672  0.1311  0.2568
  909MOL0     H22696  -1.024   7.778   6.639 -1.4508  0.9869 -1.1557
  909MOL0     H22697  -0.089   7.270   6.816  0.5810 -0.0623 -3.0127
  909MOL0     H22698   0.058   7.067   6.832  0.7067 -0.9975  1.1730
  909MOL0     H22699  -0.110   6.478   7.043  0.1877  1.2331  0.6002
  909MOL0     H22700  -0.006   6.269   7.014 -0.1087  0.9801  0.6822
  909MOL0     H22701   1.593   6.840   6.879  0.7292  1.5417 -1.5786
  909MOL0     H22702   1.806   6.843   6.773 -0.8160 -0.0291 -1.1752
  909MOL0     H22703   2.144   6.568   6.264  2.0849 -1.6845 -0.3487
  909MOL0     H22704   2.353   6.660   6.215  3.9793  2.2733  0.8341
  909MOL0     H22705   2.659   6.921   6.429 -0.5613  1.3192 -2.5639
  909MOL0     H22706   2.516   6.963   6.503 -0.7264 -0.5382 -0.8318
  909MOL0     H22707   2.658   6.703   6.551 -0.5669  0.9283 -0.6076
  909MOL0     H22708   2.501   6.738   6.624 -0.5547  0.4132 -0.9512
  909MOL0     H22709   2.698   6.774   6.765 -2.6741  1.4484  3.3520
  909MOL0     H22710   2.589   6.907   6.762  3.4880  3.6253  2.5853
  909MOL0     H22711   2.820   6.981   6.771 -1.0760  2.4048 -0.6382
  909MOL0     H22712   2.729   7.044   6.631 -2.7252 -0.9468  0.0427
  909MOL0     H22713   3.026   6.747   6.499  3.1033  3.5866  1.3488
  909MOL0     H22714   2.330   6.933   6.545 -1.1110  1.3905 -0.6722
  909MOL0     H22715   2.112   6.839   6.608 -3.7735 -0.3191  0.0508
  910MOL0     O22716   9.228   1.808   3.272  0.2745  0.5049 -0.5085
  910MOL0     C22717   9.301   1.753   3.360  0.1198  0.1338 -0.5809
  910MOL0     O22718   9.268   1.729   3.489 -0.4486 -0.0566 -0.8525
  910MOL0     C22719   9.158   1.800   3.544 -0.6185  0.8485  0.8723
  910MOL0     C22720   9.162   1.936   3.545  0.1862 -1.2029  0.3250
  910MOL0     C22721   9.052   2.002   3.596  0.0111 -1.0486 -0.0121
  910MOL0     C22722   8.943   1.938   3.649  0.4942 -0.0499  0.0382
  910MOL0     O22723   8.840   2.025   3.685  0.1284  0.4838 -0.6452
  910MOL0     C22724   8.742   1.973   3.776  0.4881 -0.1879  0.2896
  910MOL0     C22725   8.637   2.089   3.787  0.6163  0.2539 -0.5868
  910MOL0     C22726   8.532   2.053   3.900  0.5123  0.8297 -0.5052
  910MOL0     C22727   8.403   2.141   3.886 -0.3233  0.6977  0.5387
  910MOL0     C22728   8.306   2.139   4.007 -0.2816  0.3150  0.4292
  910MOL0     C22729   8.228   2.014   4.029  1.2196 -0.0926 -0.1784
  910MOL0     C22730   8.135   2.042   4.149 -0.3245  0.4074  0.5579
  910MOL0     C22731   8.040   1.925   4.193 -1.2769  0.6538 -0.6521
  910MOL0     N22732   7.943   1.964   4.297  0.4104  0.6085 -0.0395
  910MOL0     C22733   7.841   2.052   4.266  0.0131 -0.7654  0.5179
  910MOL0     C22734   7.769   2.069   4.384 -0.0189  0.7798  0.0402
  910MOL0     C22735   7.643   2.144   4.399 -0.0852 -0.0465  0.0478
  910MOL0     C22736   7.610   2.153   4.555 -1.3668 -0.4845  0.3249
  910MOL0     C22737   7.460   2.184   4.578  0.3097  1.2698  0.3570
  910MOL0     C22738   7.423   2.162   4.728 -0.6205  0.6085  0.8855
  910MOL0     O22739   7.277   2.157   4.742  0.2751  0.1036 -0.9363
  910MOL0     C22740   7.205   2.043   4.705  0.5478 -0.0374 -0.5248
  910MOL0     C22741   7.068   2.055   4.691  0.3625  0.6087 -0.3299
  910MOL0     C22742   6.983   1.952   4.646  0.0351  0.1858  0.3734
  910MOL0     C22743   6.831   1.981   4.649  0.0666 -0.1041  0.7455
  910MOL0     C22744   7.046   1.829   4.621  0.2051 -0.7151  0.0642
  910MOL0     C22745   6.977   1.712   4.559 -0.5961 -0.2416 -0.1573
  910MOL0     O22746   6.848   1.726   4.537  0.2000 -0.2145  0.2973
  910MOL0     C22747   6.767   1.625   4.488  0.2477  0.6106 -0.3131
  910MOL0     C22748   6.655   1.669   4.415 -0.3465  1.0524  0.0387
  910MOL0     C22749   6.564   1.570   4.359 -0.1915 -0.6125 -0.6595
  910MOL0     C22750   6.576   1.431   4.379 -0.2091  0.6624 -0.2756
  910MOL0     O22751   6.498   1.338   4.314  0.3768  0.5352 -0.1271
  910MOL0     C22752   6.566   1.235   4.256  0.3198  0.2385 -0.3664
  910MOL0     C22753   6.480   1.172   4.145  0.0797  0.7239 -0.1637
  910MOL0     C22754   6.569   1.083   4.058  0.1673 -0.1438  0.1047
  910MOL0     C22755   6.472   1.003   3.970 -0.6153  0.4895  0.3560
  910MOL0     C22756   6.544   0.907   3.877 -0.0783  0.1588 -0.1916
  910MOL0     C22757   6.448   0.837   3.785  0.4466 -0.4434 -0.8982
  910MOL0     C22758   6.402   0.924   3.667  0.1044 -0.4137  0.7362
  910MOL0     C22759   6.338   0.837   3.562 -0.6259  0.1777 -0.5306
  910MOL0    Cl22760   6.161   0.826   3.623  0.4351 -0.0588  0.0423
  910MOL0     C22761   6.694   1.386   4.453  0.3164  0.5681 -0.0540
  910MOL0     C22762   6.784   1.481   4.505  1.2094  0.0329  0.1669
  910MOL0     O22763   7.050   1.617   4.527 -0.4540  0.3477 -0.1095
  910MOL0     C22764   7.182   1.818   4.642  0.6650  0.4030  0.1693
  910MOL0     C22765   7.259   1.922   4.686  0.2944 -0.6360  0.1914
  910MOL0     N22766   7.834   1.979   4.477 -0.2819 -0.3217 -0.1277
  910MOL0     N22767   7.931   1.917   4.420 -0.6130 -0.2627 -0.8779
  910MOL0     C22768   8.945   1.799   3.664 -0.4960  1.0103  0.9909
  910MOL0     C22769   9.051   1.734   3.603 -0.3162  0.9962  0.2110
  910MOL0     C22770   9.437   1.721   3.320  0.6495  0.4578 -0.4426
  910MOL0     C22771   9.523   1.663   3.405 -0.2207  0.8245 -0.8149
  910MOL0     C22772   9.655   1.620   3.374 -0.0103 -0.6990 -0.3247
  910MOL0     C22773   9.688   1.620   3.233 -0.3571 -0.6044  0.4809
  910MOL0     O22774   9.800   1.588   3.176 -1.1985  0.2654  0.2403
  910MOL0     C22775   9.914   1.584   3.263  0.2585 -0.0095  0.6991
  910MOL0     C22776   9.959   1.441   3.293  0.3732  0.2493  0.2267
  910MOL0     C22777  10.008   1.359   3.179 -0.3706 -0.4005  0.1096
  910MOL0     C22778  10.009   1.210   3.209 -0.8916  0.1051 -0.4706
  910MOL0     C22779  10.070   1.173   3.339 -0.5352 -0.1674 -0.2482
  910MOL0     C22780  10.119   1.142   3.446  0.5801 -0.3118  0.8924
  910MOL0     C22781   9.600   1.690   3.146 -0.5089 -0.4264 -0.4227
  910MOL0     C22782   9.476   1.736   3.191 -0.3484  1.0216  0.9652
  910MOL0     H22783   9.242   2.000   3.509  0.9558 -2.7326 -0.7856
  910MOL0     H22784   9.048   2.110   3.585 -2.0955 -1.2460 -1.7541
  910MOL0     H22785   8.690   1.888   3.730  0.1391  0.0372  0.2603
  910MOL0     H22786   8.788   1.958   3.874  0.9653 -1.1234 -0.0666
  910MOL0     H22787   8.687   2.184   3.810  0.3150  0.3962 -0.5225
  910MOL0     H22788   8.582   2.096   3.692 -0.2696  1.2606 -0.0201
  910MOL0     H22789   8.498   1.950   3.901 -3.7579  2.0355  2.2696
  910MOL0     H22790   8.577   2.083   3.995 -1.7568  0.7192  0.6674
  910MOL0     H22791   8.429   2.243   3.856 -0.3212 -0.1779 -2.8777
  910MOL0     H22792   8.359   2.108   3.791  1.2828  2.2803 -0.8347
  910MOL0     H22793   8.364   2.161   4.097 -0.2026  2.1212 -0.0229
  910MOL0     H22794   8.240   2.225   3.992 -1.5266 -0.1838  2.6280
  910MOL0     H22795   8.176   1.977   3.940  2.2478 -0.7238 -0.5260
  910MOL0     H22796   8.289   1.927   4.055  0.4118 -1.1664 -1.7027
  910MOL0     H22797   8.191   2.069   4.239  0.7931 -1.6440  0.5449
  910MOL0     H22798   8.068   2.122   4.116  0.0629  0.0619 -1.1689
  910MOL0     H22799   8.104   1.845   4.230  1.2468  2.3439 -1.0809
  910MOL0     H22800   7.994   1.885   4.102  1.6599  1.1562 -2.5003
  910MOL0     H22801   7.822   2.098   4.170  1.9687  0.7005  0.7641
  910MOL0     H22802   7.643   2.244   4.356  0.4614  0.2480  0.7149
  910MOL0     H22803   7.566   2.082   4.351 -1.4814  1.4407  0.3027
  910MOL0     H22804   7.657   2.240   4.602 -3.1961  1.2148 -0.7705
  910MOL0     H22805   7.645   2.061   4.602  4.7414 -1.1080 -4.1677
  910MOL0     H22806   7.390   2.131   4.512  0.5470 -0.2067  1.2429
  910MOL0     H22807   7.438   2.287   4.548  1.2453  0.7413 -2.5165
  910MOL0     H22808   7.466   2.249   4.780 -0.2583  1.2483 -0.4218
  910MOL0     H22809   7.480   2.076   4.765 -0.4066 -1.1933 -3.0678
  910MOL0     H22810   7.015   2.145   4.721 -0.3650  0.5410 -1.3192
  910MOL0     H22811   6.797   2.074   4.695  2.2047  0.8562  0.5194
  910MOL0     H22812   6.807   1.987   4.542 -0.0285  2.1439  0.8610
  910MOL0     H22813   6.770   1.903   4.696 -0.1119 -0.2906  0.2146
  910MOL0     H22814   6.636   1.774   4.395  0.0069  1.7646  3.0494
  910MOL0     H22815   6.483   1.613   4.301 -2.8946 -1.8900  1.8859
  910MOL0     H22816   6.668   1.256   4.223 -0.2834  2.5296 -0.9796
  910MOL0     H22817   6.572   1.151   4.326 -0.1223 -1.4957 -2.3013
  910MOL0     H22818   6.402   1.104   4.180  0.9464  0.0858  0.5806
  910MOL0     H22819   6.422   1.247   4.091  0.9423  2.2042  0.9160
  910MOL0     H22820   6.638   1.023   4.117  0.3538  1.1370  1.2528
  910MOL0     H22821   6.630   1.144   3.990  1.4604 -1.1722  0.3061
  910MOL0     H22822   6.410   0.947   4.041 -0.8854  2.3348  1.6663
  910MOL0     H22823   6.409   1.073   3.915 -0.2135  1.3444  0.9680
  910MOL0     H22824   6.604   0.841   3.939 -1.9256  0.1903  1.7527
  910MOL0     H22825   6.611   0.958   3.807 -1.7054  1.6741 -0.7199
  910MOL0     H22826   6.494   0.744   3.751 -0.3356 -0.9210 -0.6596
  910MOL0     H22827   6.361   0.818   3.849  0.6917 -3.4250 -1.3127
  910MOL0     H22828   6.485   0.979   3.622  1.2181 -0.7747  2.2587
  910MOL0     H22829   6.328   1.000   3.692 -0.3730 -0.7699  0.4284
  910MOL0     H22830   6.378   0.735   3.564 -3.2167 -0.8949  0.3217
  910MOL0     H22831   6.350   0.885   3.464 -2.9006  2.0883  0.0444
  910MOL0     H22832   6.725   1.282   4.455  0.9748  0.7333 -1.0883
  910MOL0     H22833   6.862   1.446   4.572  1.6038  0.6445  0.0382
  910MOL0     H22834   7.252   1.743   4.605 -1.2212 -0.8998 -0.9094
  910MOL0     H22835   7.364   1.907   4.709  1.0999  0.9145 -2.1280
  910MOL0     H22836   8.858   1.750   3.705 -0.4635  1.2789  1.3811
  910MOL0     H22837   9.044   1.626   3.589 -1.2383  0.9452  0.9889
  910MOL0     H22838   9.488   1.656   3.507 -1.3770  1.8110 -1.1294
  910MOL0     H22839   9.713   1.568   3.449  2.8305  0.7283 -1.3755
  910MOL0     H22840  10.002   1.628   3.214  1.6560 -1.5856  1.6619
  910MOL0     H22841   9.910   1.643   3.355  1.2243  1.3216 -0.0712
  910MOL0     H22842   9.885   1.389   3.355 -3.1035  2.7111 -1.5075
  910MOL0     H22843  10.043   1.461   3.361  0.8616  2.5407 -0.9379
  910MOL0     H22844  10.111   1.395   3.164 -0.5973  0.7593  1.2223
  910MOL0     H22845   9.953   1.378   3.086  1.0669 -0.5129 -0.7998
  910MOL0     H22846  10.075   1.156   3.140  0.0610 -2.5550  2.2706
  910MOL0     H22847   9.910   1.164   3.202 -0.3756 -1.1968  0.2490
  910MOL0     H22848  10.151   1.109   3.543 -0.8452 -0.2838  1.3997
  910MOL0     H22849   9.623   1.697   3.040  3.1159  3.1542  0.3610
  910MOL0     H22850   9.418   1.765   3.104  2.3662  0.4820 -1.1608
  911MOL0     O22851   8.581   5.908   0.616  0.2037 -0.1500  0.8058
  911MOL0     C22852   8.555   5.824   0.702  0.2141 -0.2204  0.2608
  911MOL0     O22853   8.437   5.767   0.718 -0.0662  0.1446 -0.5824
  911MOL0     C22854   8.335   5.774   0.627 -0.8540 -0.2336 -0.1029
  911MOL0     C22855   8.341   5.820   0.495  0.0230 -1.5731 -0.1072
  911MOL0     C22856   8.235   5.823   0.408  0.0291  0.6826  0.0353
  911MOL0     C22857   8.116   5.767   0.440 -0.8716  0.4208 -0.8806
  911MOL0     O22858   8.000   5.766   0.356 -0.1475  0.3337 -0.2413
  911MOL0     C22859   7.995   5.841   0.235 -0.3901  0.1563 -0.0991
  911MOL0     C22860   7.864   5.802   0.163  0.0716 -0.3374 -0.5147
  911MOL0     C22861   7.887   5.646   0.132  0.4140 -0.4621 -0.2517
  911MOL0     C22862   7.763   5.589   0.064  0.1051  0.4114  0.6621
  911MOL0     C22863   7.762   5.606  -0.088  0.4879  0.2966 -0.8987
  911MOL0     C22864   7.613   5.608  -0.143  0.6558  1.1408  0.8038
  911MOL0     C22865   7.517   5.498  -0.086 -1.0890 -0.5283  0.0877
  911MOL0     C22866   7.580   5.356  -0.096  1.3136 -0.0055 -0.4770
  911MOL0     N22867   7.501   5.255  -0.018  0.5453  0.5129 -0.2779
  911MOL0     C22868   7.503   5.126  -0.055  0.6503 -0.8860 -0.4964
  911MOL0     C22869   7.450   5.061   0.052 -0.5369 -0.0771  0.2698
  911MOL0     C22870   7.429   4.909   0.076  0.2284  0.1987  0.3248
  911MOL0     C22871   7.541   4.860   0.171  0.3415  0.5089 -0.6429
  911MOL0     C22872   7.546   4.705   0.196  0.1615  0.2013  0.2786
  911MOL0     C22873   7.413   4.643   0.243 -0.4147  1.1042 -0.1933
  911MOL0     O22874   7.308   4.642   0.134 -0.0128 -0.7052  0.4998
  911MOL0     C22875   7.188   4.574   0.153  0.1034 -0.4988  0.9257
  911MOL0     C22876   7.100   4.585   0.046 -0.6377  0.0598  0.0709
  911MOL0     C22877   6.978   4.523   0.046  0.9337 -0.3980  0.1043
  911MOL0     C22878   6.881   4.543  -0.070 -0.9943  0.4205  0.4886
  911MOL0     C22879   6.935   4.454   0.160 -0.5230 -0.2437 -0.0132
  911MOL0     C22880   6.797   4.424   0.187 -0.3151 -0.0534  0.1560
  911MOL0     O22881   6.733   4.315   0.120 -0.1265 -0.0729 -0.3079
  911MOL0     C22882   6.605   4.305   0.138 -1.1205  0.5408 -0.5195
  911MOL0     C22883   6.533   4.302   0.025 -0.1452  0.1804  0.0010
  911MOL0     C22884   6.389   4.291   0.037 -0.5964  0.1666 -0.0601
  911MOL0     C22885   6.325   4.269   0.156  0.5437  0.0387 -0.9347
  911MOL0     O22886   6.189   4.257   0.170  0.2325  0.0208  0.6559
  911MOL0     C22887   6.110   4.237   0.049  0.6383  0.2411  0.0086
  911MOL0     C22888   5.969   4.177   0.074  0.0755  0.0909 -0.0011
  911MOL0     C22889   5.874   4.264   0.159 -1.0500 -1.1474 -0.6360
  911MOL0     C22890   5.733   4.212   0.136  0.1148 -0.0493  0.3015
  911MOL0     C22891   5.621   4.281   0.213 -0.6140 -0.5289 -0.7606
  911MOL0     C22892   5.648   4.428   0.235 -0.2367  0.5025 -0.2584
  911MOL0     C22893   5.522   4.496   0.297 -0.4625 -0.0086 -0.0696
  911MOL0     C22894   5.549   4.646   0.323 -0.2847  0.6178  0.5151
  911MOL0    Cl22895   5.401   4.725   0.396 -0.1427  0.0513  0.0583
  911MOL0     C22896   6.404   4.280   0.275 -0.3308 -0.4854  0.4648
  911MOL0     C22897   6.544   4.299   0.260 -0.0967  0.2981 -0.5662
  911MOL0     O22898   6.755   4.504   0.274  0.3381  0.8527 -0.5988
  911MOL0     C22899   7.033   4.428   0.256 -0.0743 -0.7259  0.0697
  911MOL0     C22900   7.161   4.484   0.255 -0.5971  0.0552  0.4398
  911MOL0     N22901   7.420   5.157   0.150  0.7420 -0.2101  0.5451
  911MOL0     N22902   7.461   5.273   0.111  0.2259 -0.1132 -0.3531
  911MOL0     C22903   8.111   5.695   0.564 -0.1754 -0.0082  0.0562
  911MOL0     C22904   8.218   5.715   0.657 -0.4094  0.7861 -0.1067
  911MOL0     C22905   8.677   5.789   0.781  0.2649  0.0736  0.2651
  911MOL0     C22906   8.802   5.862   0.754  0.7996  0.2773  0.0861
  911MOL0     C22907   8.912   5.819   0.819 -0.1206 -0.2552 -0.6193
  911MOL0     C22908   8.913   5.720   0.922 -0.0702 -0.0972  0.7062
  911MOL0     O22909   9.026   5.683   0.989 -0.3534 -0.2174 -0.5459
  911MOL0     C22910   9.113   5.782   1.043  0.3096 -0.1892  0.1112
  911MOL0     C22911   9.047   5.895   1.118 -0.2498  0.2909  0.1058
  911MOL0     C22912   8.976   5.832   1.244 -0.7857  0.2486 -0.3193
  911MOL0     C22913   8.944   5.942   1.338  0.7779 -0.1419 -0.1801
  911MOL0     C22914   9.054   6.019   1.388 -0.3506  0.6741  0.5904
  911MOL0     C22915   9.156   6.091   1.407 -0.1585  0.1550  0.8811
  911MOL0     C22916   8.793   5.658   0.941 -0.2414 -0.7213 -0.3928
  911MOL0     C22917   8.669   5.698   0.883  0.0666  0.0649  0.0270
  911MOL0     H22918   8.436   5.860   0.459  0.1129 -3.0887 -1.7210
  911MOL0     H22919   8.253   5.879   0.317 -0.6117  0.8820  0.0273
  911MOL0     H22920   7.983   5.947   0.257 -2.1407  0.0879 -0.6016
  911MOL0     H22921   8.085   5.825   0.175 -0.2698  0.3417  0.0299
  911MOL0     H22922   7.778   5.833   0.222 -0.0671 -0.4195 -0.6707
  911MOL0     H22923   7.849   5.857   0.069 -2.6334 -0.9265 -0.5286
  911MOL0     H22924   7.970   5.641   0.061  0.9220  2.7264 -0.0505
  911MOL0     H22925   7.909   5.588   0.222 -0.8841 -3.2487 -1.6026
  911MOL0     H22926   7.750   5.482   0.082  0.4848  0.5112  1.5960
  911MOL0     H22927   7.677   5.638   0.110 -0.1170 -1.4799  2.4462
  911MOL0     H22928   7.809   5.699  -0.122 -1.0328  1.0850 -0.9231
  911MOL0     H22929   7.809   5.520  -0.138  0.4729  0.4224 -1.1309
  911MOL0     H22930   7.562   5.704  -0.128 -0.6454  0.6397 -0.2604
  911MOL0     H22931   7.628   5.597  -0.250  1.3226  0.4275  0.9610
  911MOL0     H22932   7.505   5.515   0.021 -0.6343  0.6711 -0.0347
  911MOL0     H22933   7.421   5.511  -0.137 -0.8870 -1.5232 -0.5788
  911MOL0     H22934   7.683   5.353  -0.059  1.3927 -1.2459 -0.7466
  911MOL0     H22935   7.570   5.331  -0.202 -1.1893  0.4729 -0.4037
  911MOL0     H22936   7.553   5.080  -0.140  2.0936 -0.0734 -0.1236
  911MOL0     H22937   7.330   4.904   0.121 -0.6296  1.6914 -1.3036
  911MOL0     H22938   7.426   4.856  -0.019 -2.4373 -2.1285  1.5578
  911MOL0     H22939   7.532   4.909   0.268 -1.4182  0.6360 -0.8427
  911MOL0     H22940   7.639   4.888   0.132  0.3181  0.2968 -0.8587
  911MOL0     H22941   7.635   4.688   0.258  2.3043  4.0346 -1.3560
  911MOL0     H22942   7.562   4.661   0.097  0.1926  1.9840 -0.5523
  911MOL0     H22943   7.372   4.688   0.334  0.7179 -1.2526  1.6225
  911MOL0     H22944   7.438   4.538   0.263 -1.6087  0.4467 -1.9466
  911MOL0     H22945   7.129   4.641  -0.042 -1.0477  0.4128  0.1559
  911MOL0     H22946   6.851   4.448  -0.114 -2.0941  1.0311 -0.1327
  911MOL0     H22947   6.797   4.606  -0.040 -0.2673  0.0480  3.6377
  911MOL0     H22948   6.932   4.606  -0.144  2.3241 -1.5732  0.8828
  911MOL0     H22949   6.575   4.298  -0.075 -2.6827  1.3656 -1.2191
  911MOL0     H22950   6.340   4.292  -0.059 -3.8277  1.8202  1.4312
  911MOL0     H22951   6.094   4.331  -0.006 -2.3789 -0.5883 -0.6976
  911MOL0     H22952   6.167   4.163  -0.008  2.6893  2.2962 -0.8105
  911MOL0     H22953   5.932   4.144  -0.023 -0.0285  2.2576 -0.7442
  911MOL0     H22954   5.978   4.092   0.142  0.3958  0.1073 -0.0183
  911MOL0     H22955   5.875   4.371   0.135  0.5853 -0.3202  2.5748
  911MOL0     H22956   5.899   4.253   0.265  0.7628  1.0467 -0.7424
  911MOL0     H22957   5.705   4.229   0.032 -0.0522  1.1555  0.5270
  911MOL0     H22958   5.724   4.103   0.146 -2.2996 -0.0796 -1.2404
  911MOL0     H22959   5.607   4.236   0.312 -0.1794  1.5321  0.2822
  911MOL0     H22960   5.524   4.266   0.165 -0.0993 -2.6308 -1.2770
  911MOL0     H22961   5.727   4.446   0.308 -1.0642 -1.4473  1.1950
  911MOL0     H22962   5.681   4.470   0.140 -0.9246  1.8519  0.0822
  911MOL0     H22963   5.479   4.451   0.387 -2.7760 -0.2135 -1.1819
  911MOL0     H22964   5.442   4.486   0.222 -0.6958  2.9912 -0.3341
  911MOL0     H22965   5.571   4.696   0.228 -2.2581  0.5474 -0.0257
  911MOL0     H22966   5.642   4.659   0.380 -0.2520  2.5527  0.1017
  911MOL0     H22967   6.356   4.267   0.371  0.9148  1.2260  1.3792
  911MOL0     H22968   6.602   4.297   0.351 -0.7816 -0.3966 -0.1319
  911MOL0     H22969   7.003   4.366   0.340 -1.7438 -0.0128  0.0240
  911MOL0     H22970   7.236   4.467   0.332  2.1111  0.0119 -2.0406
  911MOL0     H22971   8.033   5.619   0.573 -0.3885  0.0518 -1.1991
  911MOL0     H22972   8.225   5.668   0.755  2.8129  0.9486 -0.1394
  911MOL0     H22973   8.808   5.943   0.682 -0.0610  0.3334  0.0638
  911MOL0     H22974   8.994   5.887   0.796 -2.3806  3.6821  1.8434
  911MOL0     H22975   9.187   5.743   1.113  1.7741  0.1229 -1.1981
  911MOL0     H22976   9.165   5.820   0.955  1.3082  2.3759  1.7104
  911MOL0     H22977   8.969   5.945   1.061  0.0416  1.3742  0.6326
  911MOL0     H22978   9.111   5.980   1.143  0.9033 -0.6159  0.3330
  911MOL0     H22979   9.039   5.761   1.298  0.0070 -1.1630 -2.8905
  911MOL0     H22980   8.885   5.776   1.221 -0.4472 -0.9079  1.0310
  911MOL0     H22981   8.895   5.893   1.423  0.9767  0.0423  0.0454
  911MOL0     H22982   8.869   6.004   1.289 -1.4100 -0.7153  2.2219
  911MOL0     H22983   9.234   6.163   1.424 -1.2109  0.8332  3.2150
  911MOL0     H22984   8.780   5.584   1.019 -0.2491  0.7799  1.0758
  911MOL0     H22985   8.580   5.638   0.898 -2.3341  2.2152 -3.8650
  912MOL0     O22986   0.892   3.118   5.836 -0.4957  0.0865 -0.8623
  912MOL0     C22987   1.011   3.095   5.817  1.3644  0.2751  0.1288
  912MOL0     O22988   1.063   3.057   5.701  0.5964 -0.1069  0.3772
  912MOL0     C22989   1.009   3.048   5.574  0.4024  0.0959 -0.6020
  912MOL0     C22990   1.100   3.004   5.482 -0.1075  0.0540  0.7731
  912MOL0     C22991   1.064   2.989   5.342 -0.0818 -1.2091 -1.1117
  912MOL0     C22992   0.928   3.023   5.309 -0.2167  0.1881  0.2526
  912MOL0     O22993   0.872   3.006   5.185  0.0494  0.3210 -0.7297
  912MOL0     C22994   0.953   2.964   5.076 -0.6422 -0.3608 -0.2600
  912MOL0     C22995   0.859   2.961   4.946 -1.0389 -0.3367 -0.3150
  912MOL0     C22996   0.941   2.963   4.813 -0.7073 -0.1205  1.0195
  912MOL0     C22997   1.037   2.854   4.775  0.1710 -0.0576  0.1677
  912MOL0     C22998   1.166   2.850   4.846 -0.5197  0.1132 -0.2631
  912MOL0     C22999   1.273   2.771   4.781 -0.4423  0.6022  0.5069
  912MOL0     C23000   1.416   2.816   4.828  0.3507  0.5358 -0.4946
  912MOL0     C23001   1.533   2.737   4.770  0.7853 -0.9496 -0.7188
  912MOL0     N23002   1.659   2.814   4.793 -0.5398  0.1010  0.1991
  912MOL0     C23003   1.780   2.761   4.843 -0.5865 -0.6454  0.3656
  912MOL0     C23004   1.866   2.864   4.838  1.2785  0.2067 -0.0934
  912MOL0     C23005   2.005   2.868   4.881  0.4680  0.2564 -0.6751
  912MOL0     C23006   2.115   2.853   4.768  1.1136 -0.3563  0.3702
  912MOL0     C23007   2.132   2.979   4.681  0.1962  0.3270  0.4690
  912MOL0     C23008   2.268   2.986   4.606  0.5512 -0.4980 -0.6534
  912MOL0     O23009   2.282   2.892   4.507 -0.1622 -0.5142 -0.7324
  912MOL0     C23010   2.409   2.880   4.453  0.6657 -0.1139  0.4840
  912MOL0     C23011   2.429   2.762   4.387  0.4177  0.7691 -0.5414
  912MOL0     C23012   2.545   2.731   4.317  0.4101 -0.0598 -0.7112
  912MOL0     C23013   2.548   2.604   4.236 -0.5961 -0.0652 -0.8682
  912MOL0     C23014   2.649   2.827   4.337 -1.3205  0.4937 -0.1420
  912MOL0     C23015   2.790   2.806   4.285  0.4626  0.3038  0.5930
  912MOL0     O23016   2.851   2.914   4.244 -0.1143  0.4079 -0.1607
  912MOL0     C23017   2.986   2.898   4.218 -0.5054  0.1545 -0.7863
  912MOL0     C23018   3.026   2.865   4.088 -0.4561  0.3129  0.2886
  912MOL0     C23019   3.156   2.826   4.067  0.1639  0.5262 -0.4183
  912MOL0     C23020   3.252   2.845   4.163  0.4568 -1.3863  0.5077
  912MOL0     O23021   3.384   2.810   4.139 -0.2811 -0.7311  0.3765
  912MOL0     C23022   3.486   2.799   4.240 -0.5244  0.1804 -0.1287
  912MOL0     C23023   3.607   2.739   4.167 -0.5936 -0.7878 -0.9465
  912MOL0     C23024   3.603   2.591   4.143 -0.9642  0.7977 -0.1777
  912MOL0     C23025   3.736   2.542   4.095 -0.4201 -0.1816  0.0028
  912MOL0     C23026   3.733   2.391   4.068  0.0513  0.4566 -0.3950
  912MOL0     C23027   3.758   2.310   4.196  0.4503 -0.6203 -0.0670
  912MOL0     C23028   3.741   2.162   4.159 -0.5813 -0.5623 -0.9310
  912MOL0     C23029   3.781   2.060   4.264  0.1383 -0.1113 -0.1868
  912MOL0    Cl23030   3.760   1.890   4.211 -0.2444  0.2228 -0.3689
  912MOL0     C23031   3.214   2.896   4.291 -0.4451  0.6721 -0.3220
  912MOL0     C23032   3.082   2.911   4.319  0.1543 -1.6897 -0.1914
  912MOL0     O23033   2.825   2.688   4.271  0.1976 -0.3316  0.1865
  912MOL0     C23034   2.630   2.945   4.417 -0.5304 -0.3189 -0.6269
  912MOL0     C23035   2.506   2.977   4.462  0.4606 -1.1037 -0.5645
  912MOL0     N23036   1.798   2.969   4.780 -0.3582  0.1193 -1.0257
  912MOL0     N23037   1.684   2.930   4.731  0.0681  0.1441 -0.1020
  912MOL0     C23038   0.832   3.064   5.402 -0.6245  0.5589  0.3302
  912MOL0     C23039   0.874   3.078   5.537  0.6089 -1.2115  0.2128
  912MOL0     C23040   1.114   3.081   5.929  0.3605  0.1065 -0.1259
  912MOL0     C23041   1.077   3.096   6.066  0.9534 -0.0763  0.3103
  912MOL0     C23042   1.166   3.091   6.167  0.3101 -0.4864 -0.4631
  912MOL0     C23043   1.296   3.066   6.147  0.0270 -0.2145  0.4632
  912MOL0     O23044   1.389   3.051   6.242  0.9167 -0.6426 -0.1427
  912MOL0     C23045   1.352   3.082   6.378  0.4760 -0.4520 -0.1663
  912MOL0     C23046   1.490   3.109   6.439 -0.4645  0.5808 -0.0357
  912MOL0     C23047   1.463   3.161   6.581 -0.1126  1.2534 -0.4601
  912MOL0     C23048   1.584   3.176   6.660  0.5018  0.0974  0.2581
  912MOL0     C23049   1.599   3.042   6.735  0.5100 -0.1551  0.5476
  912MOL0     C23050   1.582   2.943   6.795  0.4501  0.2072  0.7058
  912MOL0     C23051   1.337   3.037   6.019  0.0903  0.2013  0.6092
  912MOL0     C23052   1.249   3.042   5.911 -0.0228 -0.4877 -0.7357
  912MOL0     H23053   1.207   2.989   5.489  0.5616  2.6374 -1.7715
  912MOL0     H23054   1.134   2.959   5.264 -0.2757  1.6442 -2.5109
  912MOL0     H23055   1.039   3.029   5.057 -0.9528 -0.1265 -0.9026
  912MOL0     H23056   0.980   2.861   5.101  1.6110  0.0899 -0.5993
  912MOL0     H23057   0.799   2.871   4.963 -1.9206 -0.1794 -2.3386
  912MOL0     H23058   0.780   3.036   4.944  0.6632  1.7301  2.7638
  912MOL0     H23059   0.863   2.961   4.736  2.4630 -2.6409 -2.5079
  912MOL0     H23060   0.993   3.060   4.811 -0.1326 -0.3994  1.8926
  912MOL0     H23061   0.992   2.754   4.774  0.6695 -0.2972 -2.2240
  912MOL0     H23062   1.068   2.884   4.675 -0.8327  2.2626  0.5021
  912MOL0     H23063   1.193   2.956   4.845 -0.0437 -0.0061 -1.2719
  912MOL0     H23064   1.160   2.821   4.951  1.3820  1.2103  0.2024
  912MOL0     H23065   1.258   2.664   4.799  0.8771 -0.0564 -1.8087
  912MOL0     H23066   1.276   2.769   4.672 -0.8254  1.8443  0.4666
  912MOL0     H23067   1.432   2.923   4.807  1.8816  0.6160  0.8550
  912MOL0     H23068   1.420   2.814   4.937  1.2817 -0.5888 -0.5349
  912MOL0     H23069   1.510   2.726   4.663 -0.7740 -2.8313 -0.2501
  912MOL0     H23070   1.540   2.640   4.820 -0.3743  1.3434  4.6073
  912MOL0     H23071   1.792   2.661   4.883  2.2979  0.0424  1.4923
  912MOL0     H23072   2.023   2.964   4.930 -3.0241  1.4799 -1.4496
  912MOL0     H23073   2.029   2.793   4.956  2.3025  1.1464 -0.3086
  912MOL0     H23074   2.086   2.766   4.708 -1.0898  1.0908 -0.7780
  912MOL0     H23075   2.214   2.829   4.809  2.2696 -1.4367 -2.6986
  912MOL0     H23076   2.121   3.080   4.722  0.8606  2.2954 -3.6648
  912MOL0     H23077   2.045   2.977   4.615  0.3976 -2.9130  0.1571
  912MOL0     H23078   2.352   2.996   4.676  0.3531  1.5252 -0.6377
  912MOL0     H23079   2.264   3.081   4.552 -1.4128 -0.3390 -0.2756
  912MOL0     H23080   2.339   2.703   4.376  1.2750 -0.0708 -5.0407
  912MOL0     H23081   2.565   2.626   4.131  0.8744 -0.7327 -0.7847
  912MOL0     H23082   2.635   2.546   4.267 -2.1479 -1.2060  1.7565
  912MOL0     H23083   2.450   2.556   4.230 -0.6081 -0.0757 -0.6014
  912MOL0     H23084   2.946   2.866   4.015 -1.1292 -0.6614  0.9946
  912MOL0     H23085   3.184   2.778   3.974 -1.5273 -0.4120 -0.4851
  912MOL0     H23086   3.500   2.896   4.288 -2.0244  1.2206 -1.6955
  912MOL0     H23087   3.462   2.730   4.321  1.7675  0.9291  1.2723
  912MOL0     H23088   3.629   2.785   4.071  0.3593 -3.2202 -1.9721
  912MOL0     H23089   3.689   2.759   4.238 -1.2105 -1.8719  0.1142
  912MOL0     H23090   3.535   2.565   4.062  0.3779 -1.4074 -0.6727
  912MOL0     H23091   3.567   2.537   4.231  1.3724 -0.1098  0.2921
  912MOL0     H23092   3.756   2.591   3.999  0.1524 -0.6483 -0.1224
  912MOL0     H23093   3.823   2.566   4.156 -0.9788  0.5196  0.5371
  912MOL0     H23094   3.815   2.365   4.000  1.6847 -0.9230  1.9310
  912MOL0     H23095   3.637   2.358   4.027 -0.2065 -1.0919  1.2862
  912MOL0     H23096   3.854   2.348   4.231  0.3524  0.3694 -0.8226
  912MOL0     H23097   3.692   2.337   4.279  2.0865 -1.7962  1.7198
  912MOL0     H23098   3.806   2.144   4.073  0.2064 -0.2569 -0.4028
  912MOL0     H23099   3.636   2.149   4.129 -1.0760  0.0782  0.4455
  912MOL0     H23100   3.724   2.066   4.357 -0.4958 -1.9472 -0.4105
  912MOL0     H23101   3.884   2.076   4.295 -0.2861  1.7530  0.3551
  912MOL0     H23102   3.294   2.921   4.360 -1.7839  1.2830  1.0675
  912MOL0     H23103   3.050   2.949   4.416  2.5113 -1.9418  0.7484
  912MOL0     H23104   2.711   3.016   4.432 -0.8543 -0.2857  1.1164
  912MOL0     H23105   2.488   3.065   4.522 -1.2197 -2.3888  0.9373
  912MOL0     H23106   0.729   3.093   5.383 -0.7622  0.0965  0.3356
  912MOL0     H23107   0.799   3.115   5.605  1.0515 -0.1053  0.1135
  912MOL0     H23108   0.971   3.113   6.083  1.2919 -0.0015  2.5430
  912MOL0     H23109   1.127   3.110   6.267 -1.4781 -0.3191 -1.1666
  912MOL0     H23110   1.283   3.160   6.413  0.7941 -1.6053  3.4451
  912MOL0     H23111   1.317   2.990   6.425 -0.2764 -1.1739 -2.0183
  912MOL0     H23112   1.556   3.174   6.382  2.7990 -0.4856  2.2460
  912MOL0     H23113   1.550   3.018   6.434  2.3946  2.3251  0.2871
  912MOL0     H23114   1.387   3.104   6.634 -0.5363 -1.1202 -3.3410
  912MOL0     H23115   1.410   3.256   6.567 -0.7583  0.9268 -0.2394
  912MOL0     H23116   1.564   3.263   6.723 -0.2366 -0.2939  0.5845
  912MOL0     H23117   1.666   3.195   6.592  0.1232  0.6816 -0.0392
  912MOL0     H23118   1.548   2.853   6.843 -1.1428  0.7230  0.6279
  912MOL0     H23119   1.440   3.010   5.998 -0.4649 -1.0130 -0.7242
  912MOL0     H23120   1.285   3.030   5.810 -1.0634  0.3342 -1.2220
  913MOL0     O23121   7.973   9.966  10.754 -0.0845 -0.0002  0.0717
  913MOL0     C23122   7.938   9.991  10.642 -0.2505 -0.2866  0.6544
  913MOL0     O23123   7.817  10.016  10.600 -0.6423  0.0685  0.4355
  913MOL0     C23124   7.717   9.987  10.683 -0.0332  0.8061  0.2144
  913MOL0     C23125   7.644  10.084  10.759 -0.4402 -0.6537  0.2699
  913MOL0     C23126   7.547  10.043  10.859 -0.4713 -0.2876  0.4350
  913MOL0     C23127   7.525   9.911  10.879  0.0275 -0.2937 -0.2091
  913MOL0     O23128   7.424   9.883  10.972 -0.4525 -0.6784  0.6963
  913MOL0     C23129   7.372   9.751  10.955 -0.0560 -0.4500 -0.2999
  913MOL0     C23130   7.256   9.735  11.048 -0.0023  0.5670  0.4183
  913MOL0     C23131   7.173   9.616  11.019  1.5136 -0.0863 -0.5831
  913MOL0     C23132   7.088   9.600  11.151  0.9028 -0.3598 -0.4824
  913MOL0     C23133   7.016   9.464  11.139 -0.9332 -0.0068  0.4566
  913MOL0     C23134   6.878   9.460  11.199 -0.7121  0.3302  0.2806
  913MOL0     C23135   6.787   9.479  11.083  0.5245 -0.1498  0.3884
  913MOL0     C23136   6.644   9.511  11.132 -0.8534 -0.2363  0.4387
  913MOL0     N23137   6.546   9.483  11.020 -0.4257 -0.3698  0.2240
  913MOL0     C23138   6.522   9.364  10.970 -0.4004  0.3724 -0.0605
  913MOL0     C23139   6.437   9.390  10.866  0.2475  0.7585  0.4189
  913MOL0     C23140   6.400   9.274  10.774 -0.6468  0.0040  0.2810
  913MOL0     C23141   6.322   9.314  10.647  0.9420  0.6172  0.1883
  913MOL0     C23142   6.344   9.208  10.538 -0.6993 -0.2350 -0.5508
  913MOL0     C23143   6.285   9.256  10.399 -0.2055 -0.3245 -0.1372
  913MOL0     O23144   6.144   9.283  10.404 -0.4269  0.8839  0.1279
  913MOL0     C23145   6.079   9.321  10.294  0.6516 -0.1333  0.0952
  913MOL0     C23146   6.091   9.456  10.263  0.5608 -0.1219  0.9171
  913MOL0     C23147   6.003   9.509  10.162 -0.1967 -0.6730  0.4834
  913MOL0     C23148   6.023   9.659  10.142 -0.0670 -0.8294 -0.0794
  913MOL0     C23149   5.904   9.434  10.095 -0.5161 -0.3712 -0.6889
  913MOL0     C23150   5.816   9.491   9.996  0.0460 -1.7141 -0.9669
  913MOL0     O23151   5.699   9.426   9.982 -0.0283 -0.5863  0.7160
  913MOL0     C23152   5.604   9.475   9.894  1.0102 -0.6159 -0.7151
  913MOL0     C23153   5.611   9.441   9.763 -0.3196 -0.6058 -0.6103
  913MOL0     C23154   5.526   9.500   9.673 -0.2596  0.1488 -0.1818
  913MOL0     C23155   5.426   9.589   9.710  0.0420  0.6240 -0.4892
  913MOL0     O23156   5.343   9.617   9.605  0.1523 -0.1719  0.7148
  913MOL0     C23157   5.227   9.690   9.635  0.9049  0.0486 -0.8896
  913MOL0     C23158   5.119   9.669   9.528  0.4951  0.1304  0.5304
  913MOL0     C23159   4.994   9.760   9.552 -0.7721  0.1748 -0.2269
  913MOL0     C23160   4.870   9.695   9.605  0.1412 -0.0533 -0.9496
  913MOL0     C23161   4.757   9.789   9.605 -0.1928 -0.6243  0.2513
  913MOL0     C23162   4.626   9.718   9.645 -0.3421  0.7049  0.2191
  913MOL0     C23163   4.502   9.787   9.593 -0.2005 -0.4092 -0.5932
  913MOL0     C23164   4.490   9.935   9.618 -0.0215  0.2103 -0.5753
  913MOL0    Cl23165   4.338   9.989   9.564 -0.1954 -0.1722 -0.1823
  913MOL0     C23166   5.418   9.636   9.844 -0.6650  0.1280  0.4845
  913MOL0     C23167   5.503   9.573   9.933  0.6937 -0.0817  0.6227
  913MOL0     O23168   5.840   9.599   9.947 -0.2253 -0.4460  0.3693
  913MOL0     C23169   5.884   9.303  10.140  0.4350  0.2650 -0.4245
  913MOL0     C23170   5.972   9.248  10.236 -0.4664 -0.2861  0.0727
  913MOL0     N23171   6.415   9.529  10.854 -0.0955 -0.6149 -1.2039
  913MOL0     N23172   6.479   9.584  10.956  0.0247 -0.4864  1.1207
  913MOL0     C23173   7.602   9.815  10.815 -0.9164 -0.2138  0.1914
  913MOL0     C23174   7.693   9.848  10.714 -0.0664 -0.1469  0.2853
  913MOL0     C23175   8.039  10.039  10.543 -0.8107 -0.8096 -0.1352
  913MOL0     C23176   8.174   9.995  10.566 -0.4186  0.4497  0.2120
  913MOL0     C23177   8.282  10.035  10.475 -0.3468 -0.7042 -0.7579
  913MOL0     C23178   8.244  10.126  10.378 -0.1930 -0.4911 -0.1728
  913MOL0     O23179   8.341  10.166  10.280 -0.0914  0.3900 -0.2355
  913MOL0     C23180   8.484  10.133  10.300 -0.0257  0.3269  0.4768
  913MOL0     C23181   8.571  10.204  10.197 -0.1847  0.6948  0.4609
  913MOL0     C23182   8.570  10.134  10.059  0.4312 -0.3813 -0.8350
  913MOL0     C23183   8.672  10.021  10.037 -0.0370 -0.1129 -0.2963
  913MOL0     C23184   8.658   9.959   9.898  0.0255 -0.6873  0.0247
  913MOL0     C23185   8.650   9.903   9.790  0.7804 -0.9877  0.2156
  913MOL0     C23186   8.110  10.171  10.360 -0.4373  1.1517  0.8928
  913MOL0     C23187   8.010  10.129  10.448  0.5316 -0.1229  0.5691
  913MOL0     H23188   7.674  10.188  10.747  0.1142 -1.0026 -1.7028
  913MOL0     H23189   7.501  10.120  10.921 -0.4486 -0.7358  1.0103
  913MOL0     H23190   7.335   9.731  10.854 -1.7810  0.1744  0.1702
  913MOL0     H23191   7.444   9.673  10.982  0.5420  0.0919 -0.3185
  913MOL0     H23192   7.292   9.723  11.151 -1.8891 -0.5949  0.9830
  913MOL0     H23193   7.197   9.825  11.028  0.3901  0.2151 -2.8428
  913MOL0     H23194   7.104   9.638  10.937 -0.0763 -0.3769  0.6290
  913MOL0     H23195   7.231   9.526  10.997  0.4239 -0.4665 -2.1097
  913MOL0     H23196   7.148   9.600  11.243  0.3340  2.8022 -0.0194
  913MOL0     H23197   7.022   9.687  11.155  0.8053 -0.3772 -1.5491
  913MOL0     H23198   7.012   9.423  11.038  5.6274 -2.6254  0.7594
  913MOL0     H23199   7.097   9.399  11.173  1.0414  2.0842  0.0358
  913MOL0     H23200   6.876   9.358  11.238 -1.9924  1.1897  2.7167
  913MOL0     H23201   6.848   9.520  11.286  1.8221 -0.9505  2.1466
  913MOL0     H23202   6.812   9.562  11.017  0.5245 -2.1864 -2.3290
  913MOL0     H23203   6.782   9.387  11.024 -1.4030  0.0894  0.1218
  913MOL0     H23204   6.643   9.617  11.157 -2.1648  0.4500 -2.1098
  913MOL0     H23205   6.622   9.450  11.220  2.5644 -1.6312  0.4649
  913MOL0     H23206   6.557   9.268  11.007  0.3319  0.1009 -1.3663
  913MOL0     H23207   6.492   9.217  10.755  0.8355  1.5349  2.3375
  913MOL0     H23208   6.338   9.200  10.826 -0.2498  0.4007  1.3410
  913MOL0     H23209   6.355   9.414  10.616 -0.3621  1.4274  1.2977
  913MOL0     H23210   6.216   9.319  10.672  1.0193  0.0024  0.6775
  913MOL0     H23211   6.296   9.111  10.554  0.9991 -1.4450 -2.2861
  913MOL0     H23212   6.453   9.202  10.524 -0.9115 -3.0196 -1.7429
  913MOL0     H23213   6.308   9.178  10.325 -2.0603 -1.3256  0.2754
  913MOL0     H23214   6.339   9.339  10.352  0.7220 -0.7672  0.1191
  913MOL0     H23215   6.163   9.519  10.313  0.4865 -0.2336  1.1686
  913MOL0     H23216   6.086   9.705  10.218 -0.8680 -0.2749  0.2672
  913MOL0     H23217   6.072   9.662  10.044  1.5995 -0.7699  0.7207
  913MOL0     H23218   5.928   9.714  10.150 -0.8222 -1.4199 -3.3977
  913MOL0     H23219   5.688   9.373   9.731  1.4881  0.7291  0.6921
  913MOL0     H23220   5.522   9.463   9.571  3.4520  0.6199 -0.6140
  913MOL0     H23221   5.186   9.658   9.731 -2.9783  0.6415 -2.2022
  913MOL0     H23222   5.251   9.796   9.645  1.9868 -0.1414 -1.3444
  913MOL0     H23223   5.157   9.695   9.429 -0.3109  1.9684  0.6697
  913MOL0     H23224   5.082   9.566   9.527  1.3603 -0.1921 -0.7026
  913MOL0     H23225   4.964   9.811   9.460 -0.6733  1.5875  0.4988
  913MOL0     H23226   5.039   9.834   9.618  1.9464  0.5282 -2.2855
  913MOL0     H23227   4.848   9.611   9.538 -0.4350  0.0636 -0.9041
  913MOL0     H23228   4.891   9.652   9.703  0.5659 -0.4912 -1.2263
  913MOL0     H23229   4.752   9.822   9.501  2.7195 -0.3705  0.1005
  913MOL0     H23230   4.782   9.872   9.672 -1.0426 -0.2256  0.0917
  913MOL0     H23231   4.632   9.618   9.600 -1.7942 -0.6509  2.7826
  913MOL0     H23232   4.624   9.704   9.754 -0.4913  1.5857  0.3395
  913MOL0     H23233   4.420   9.742   9.648 -0.4373  1.0656  0.3161
  913MOL0     H23234   4.489   9.769   9.486 -0.9630 -0.2238 -0.5360
  913MOL0     H23235   4.562   9.994   9.561 -0.1698 -0.0729 -1.0541
  913MOL0     H23236   4.503   9.958   9.725  1.6356  0.0572 -0.7157
  913MOL0     H23237   5.350   9.718   9.867  0.7213  0.8898  2.0957
  913MOL0     H23238   5.503   9.612  10.034 -3.0164 -1.1089  1.1536
  913MOL0     H23239   5.816   9.235  10.090 -0.8693  0.9966  0.2875
  913MOL0     H23240   5.956   9.145  10.267  0.3092 -0.0196  1.4459
  913MOL0     H23241   7.595   9.708  10.833  2.0285 -0.7305 -1.1934
  913MOL0     H23242   7.746   9.771  10.659 -2.1161 -1.4785  0.0344
  913MOL0     H23243   8.197   9.923  10.644  0.0903  0.1485 -0.2041
  913MOL0     H23244   8.383   9.995  10.488  1.0955  1.7865 -3.2230
  913MOL0     H23245   8.517  10.180  10.393 -0.6509  2.7220 -0.4522
  913MOL0     H23246   8.501  10.025  10.301 -2.0173 -0.0312  2.4650
  913MOL0     H23247   8.678  10.202  10.220  0.9443  0.1638 -3.9787
  913MOL0     H23248   8.536  10.307  10.187 -1.1797  0.1675 -2.3523
  913MOL0     H23249   8.589  10.211   9.984 -0.2066  1.3416  0.7134
  913MOL0     H23250   8.470  10.091  10.064  0.5107 -0.3748  1.7850
  913MOL0     H23251   8.656   9.940  10.108 -0.4000  0.9832  0.9266
  913MOL0     H23252   8.780  10.037  10.045  0.5401 -3.6756  0.5998
  913MOL0     H23253   8.640   9.843   9.701 -3.1286  1.3059 -1.1560
  913MOL0     H23254   8.077  10.251  10.293  0.4761  0.3522 -0.5616
  913MOL0     H23255   7.909  10.167  10.437  1.1012  1.4319  0.3084
  914MOL0     O23256   5.335   6.814   5.076 -0.2615  0.7534  0.0049
  914MOL0     C23257   5.280   6.826   5.189 -0.2777 -0.4332 -0.2725
  914MOL0     O23258   5.147   6.821   5.209  0.1182 -0.4167  0.7366
  914MOL0     C23259   5.065   6.797   5.105 -0.9786  0.6747 -0.3175
  914MOL0     C23260   4.961   6.882   5.082 -0.5648  0.5406  0.0613
  914MOL0     C23261   4.872   6.857   4.984 -0.2042  0.1595 -0.3897
  914MOL0     C23262   4.889   6.744   4.895  0.3152  0.6006  0.3014
  914MOL0     O23263   4.823   6.708   4.778 -0.2001  0.2747  0.4884
  914MOL0     C23264   4.716   6.788   4.738 -0.2951 -0.1071 -0.0233
  914MOL0     C23265   4.625   6.717   4.632 -0.5281 -0.5326 -1.1479
  914MOL0     C23266   4.510   6.642   4.699 -0.3805 -0.7716  0.1125
  914MOL0     C23267   4.405   6.605   4.602  0.0187  0.1021  0.8013
  914MOL0     C23268   4.298   6.510   4.667 -0.1464 -0.1064  0.5598
  914MOL0     C23269   4.191   6.461   4.566  0.1782 -0.3273 -0.5606
  914MOL0     C23270   4.105   6.348   4.620 -1.0853  0.2234  0.5433
  914MOL0     C23271   3.999   6.413   4.714 -0.1558 -0.6436  0.1001
  914MOL0     N23272   3.915   6.319   4.789 -0.0915  0.8061 -0.3363
  914MOL0     C23273   3.913   6.299   4.928  0.3851  0.1199 -0.8895
  914MOL0     C23274   3.827   6.192   4.952 -0.1928  0.9451  0.8148
  914MOL0     C23275   3.805   6.122   5.080 -0.1072 -0.4410  0.0644
  914MOL0     C23276   3.738   5.990   5.062  0.6844  1.1912 -0.0245
  914MOL0     C23277   3.730   5.896   5.185  0.9478 -0.1906 -0.5939
  914MOL0     C23278   3.613   5.923   5.279 -0.1807  0.0868 -0.4164
  914MOL0     O23279   3.491   5.887   5.208 -1.2413  0.2291  0.3887
  914MOL0     C23280   3.371   5.873   5.274 -0.3089 -0.8547  0.4231
  914MOL0     C23281   3.353   5.883   5.412  0.3750 -0.1305 -1.1745
  914MOL0     C23282   3.226   5.866   5.481 -0.3174  0.0445 -0.1441
  914MOL0     C23283   3.228   5.855   5.632 -0.2644 -0.5476 -0.5132
  914MOL0     C23284   3.113   5.852   5.405  0.0687 -0.3497  0.8962
  914MOL0     C23285   2.976   5.839   5.444 -0.6262  0.0464 -0.4305
  914MOL0     O23286   2.916   5.730   5.402  0.9101 -0.3461  0.4020
  914MOL0     C23287   2.792   5.704   5.464  0.0152  0.1128  0.3717
  914MOL0     C23288   2.672   5.737   5.399  0.5867 -0.6776 -0.4254
  914MOL0     C23289   2.555   5.699   5.451  0.6784  0.5730  0.3827
  914MOL0     C23290   2.547   5.639   5.577  0.1248  0.1212  0.0454
  914MOL0     O23291   2.422   5.588   5.603  0.8014 -0.1662 -0.9851
  914MOL0     C23292   2.399   5.540   5.741 -0.1950 -0.1563  0.0029
  914MOL0     C23293   2.244   5.538   5.752  0.5028 -0.7346 -0.0665
  914MOL0     C23294   2.180   5.503   5.888 -0.2804  0.3748  0.2991
  914MOL0     C23295   2.036   5.524   5.894 -0.4761 -0.0534  0.2573
  914MOL0     C23296   1.943   5.442   5.801 -0.3431  0.1860 -0.6902
  914MOL0     C23297   1.940   5.295   5.839  0.5074 -0.3126 -0.2339
  914MOL0     C23298   1.822   5.258   5.931 -0.2279  0.1576  0.8393
  914MOL0     C23299   1.684   5.268   5.864 -0.4548  0.2036  0.0144
  914MOL0    Cl23300   1.660   5.155   5.729  0.0924  0.4562 -0.3497
  914MOL0     C23301   2.661   5.606   5.646 -0.3451 -0.5912  0.3330
  914MOL0     C23302   2.785   5.633   5.583 -0.3922  0.0965  0.1494
  914MOL0     O23303   2.918   5.929   5.514 -0.6978 -1.2165  0.1327
  914MOL0     C23304   3.126   5.857   5.261  0.0962  1.1970  0.3511
  914MOL0     C23305   3.252   5.863   5.202 -0.1240  0.1225  0.0582
  914MOL0     N23306   3.779   6.166   4.824  1.1076 -0.2790 -0.6555
  914MOL0     N23307   3.827   6.234   4.737  0.3412  0.4176  0.4763
  914MOL0     C23308   5.006   6.668   4.923  0.2450  0.6389  0.3698
  914MOL0     C23309   5.090   6.683   5.029 -0.7372  0.1630 -0.6486
  914MOL0     C23310   5.380   6.828   5.305 -0.6797  0.3105 -0.3734
  914MOL0     C23311   5.333   6.841   5.436  0.2355  0.1368  0.1311
  914MOL0     C23312   5.420   6.858   5.545  0.3896 -0.5353  0.3388
  914MOL0     C23313   5.559   6.852   5.528  0.3396  0.7474 -0.9374
  914MOL0     O23314   5.647   6.872   5.632 -0.0870 -0.9746 -0.3394
  914MOL0     C23315   5.588   6.905   5.760 -0.0532  0.1198 -0.1272
  914MOL0     C23316   5.699   6.891   5.872 -0.5146  0.2806 -0.4994
  914MOL0     C23317   5.806   6.996   5.859  0.8391 -0.1103  0.2962
  914MOL0     C23318   5.919   6.999   5.964  0.9724 -0.4956 -0.9295
  914MOL0     C23319   5.973   6.865   5.982 -0.4409 -0.5031 -0.5407
  914MOL0     C23320   6.031   6.761   6.004  0.8942  0.9015  0.4929
  914MOL0     C23321   5.604   6.824   5.399  0.7326  0.0833 -0.5598
  914MOL0     C23322   5.520   6.818   5.285  1.2922 -0.2713 -0.2882
  914MOL0     H23323   4.955   6.967   5.150  1.1194 -0.7187  1.9109
  914MOL0     H23324   4.787   6.924   4.969  0.6048  0.8653 -2.0003
  914MOL0     H23325   4.655   6.816   4.824  0.1768  2.8166 -0.5339
  914MOL0     H23326   4.752   6.880   4.691 -0.7425  0.3837  0.5727
  914MOL0     H23327   4.582   6.796   4.569 -1.3419  0.4278  0.5544
  914MOL0     H23328   4.678   6.636   4.580  0.3999 -4.0298  4.3696
  914MOL0     H23329   4.546   6.556   4.755 -0.1457 -0.6258  0.1822
  914MOL0     H23330   4.459   6.705   4.772 -0.8753 -2.1144  0.9585
  914MOL0     H23331   4.351   6.691   4.561  0.1552  0.0318  0.4729
  914MOL0     H23332   4.452   6.552   4.520 -1.9560 -2.3234  1.1192
  914MOL0     H23333   4.353   6.425   4.709  0.6758  1.3302  2.5400
  914MOL0     H23334   4.240   6.552   4.750 -2.3108  3.1022 -2.2876
  914MOL0     H23335   4.132   6.547   4.534 -0.5214 -1.1687 -1.5971
  914MOL0     H23336   4.229   6.416   4.473  1.8367  2.4721 -1.3558
  914MOL0     H23337   4.047   6.287   4.550 -0.2830 -0.6707  0.6340
  914MOL0     H23338   4.176   6.278   4.665 -0.3056 -0.3043 -1.3991
  914MOL0     H23339   3.934   6.483   4.661  0.9353  0.3298  0.0148
  914MOL0     H23340   4.054   6.468   4.791 -1.2685  1.3770 -0.4919
  914MOL0     H23341   3.973   6.361   4.993 -0.6504  0.3602 -0.1373
  914MOL0     H23342   3.901   6.099   5.128 -0.0674 -4.1848 -1.5178
  914MOL0     H23343   3.738   6.188   5.135  1.4845  2.4320 -1.2188
  914MOL0     H23344   3.797   5.931   4.991  0.5224 -1.3168  1.7721
  914MOL0     H23345   3.635   6.007   5.031 -0.9880 -4.4456  1.2484
  914MOL0     H23346   3.815   5.890   5.253 -0.3362  1.3499  1.2489
  914MOL0     H23347   3.714   5.793   5.150 -2.0719  0.4225 -1.3257
  914MOL0     H23348   3.617   6.030   5.303  2.3676  0.4518 -2.0323
  914MOL0     H23349   3.612   5.859   5.367  0.1083 -0.1178 -0.5616
  914MOL0     H23350   3.436   5.887   5.481 -1.4337 -0.0002  1.1020
  914MOL0     H23351   3.184   5.761   5.665  0.5425 -1.3050 -1.5567
  914MOL0     H23352   3.324   5.864   5.685 -0.3263  2.6740 -0.7470
  914MOL0     H23353   3.162   5.934   5.670 -1.8683 -1.6436 -0.9105
  914MOL0     H23354   2.658   5.785   5.303 -1.0604  1.2895  0.7010
  914MOL0     H23355   2.459   5.713   5.402  1.3178  1.0662 -0.7783
  914MOL0     H23356   2.431   5.436   5.744  0.8559  0.1830  1.5678
  914MOL0     H23357   2.451   5.607   5.810 -1.3474  2.1642 -1.2478
  914MOL0     H23358   2.220   5.644   5.741 -2.5470 -1.3175  0.1333
  914MOL0     H23359   2.193   5.490   5.668 -1.3429  2.2513 -0.8030
  914MOL0     H23360   2.230   5.559   5.968 -0.6150 -1.4550  1.8605
  914MOL0     H23361   2.191   5.396   5.908  1.6972 -0.0059 -2.3044
  914MOL0     H23362   2.011   5.510   5.999  0.6865  4.8695  1.4302
  914MOL0     H23363   2.027   5.629   5.866  0.5763 -0.4345 -1.7302
  914MOL0     H23364   1.976   5.448   5.697 -0.8658  0.5465 -0.8438
  914MOL0     H23365   1.844   5.491   5.802  0.4198  1.8345 -1.4362
  914MOL0     H23366   1.938   5.240   5.745  5.4243  1.8936 -1.9967
  914MOL0     H23367   2.034   5.270   5.889  0.1572  1.9954  1.8102
  914MOL0     H23368   1.829   5.319   6.022  2.2671  3.4390 -1.3092
  914MOL0     H23369   1.834   5.153   5.957 -1.6073  0.1613  1.5863
  914MOL0     H23370   1.666   5.370   5.830 -0.8321  0.1046 -0.0861
  914MOL0     H23371   1.604   5.246   5.935  1.6744  3.1507  3.7019
  914MOL0     H23372   2.652   5.557   5.742 -2.9689  2.0130  1.5779
  914MOL0     H23373   2.880   5.612   5.630  0.4409  2.3237 -0.4185
  914MOL0     H23374   3.045   5.862   5.189 -1.4899  1.2266  2.0546
  914MOL0     H23375   3.254   5.861   5.093 -1.5847  1.2456 -0.0156
  914MOL0     H23376   5.023   6.593   4.846 -2.1116 -0.4013  0.7808
  914MOL0     H23377   5.179   6.623   5.047  0.4346  1.9269 -0.2934
  914MOL0     H23378   5.227   6.831   5.455  0.7025 -1.8510  2.1130
  914MOL0     H23379   5.379   6.863   5.645  0.4550 -0.0164  0.3402
  914MOL0     H23380   5.536   7.001   5.764 -0.6638 -0.2450  1.9630
  914MOL0     H23381   5.518   6.825   5.784 -0.0270 -0.3956 -1.7054
  914MOL0     H23382   5.741   6.794   5.843 -1.4809 -0.2678 -0.0788
  914MOL0     H23383   5.655   6.882   5.971  0.4241  2.2364  0.1517
  914MOL0     H23384   5.753   7.090   5.841 -0.3481 -0.5861  1.1939
  914MOL0     H23385   5.860   6.973   5.766  1.6105 -0.1258  0.7423
  914MOL0     H23386   5.884   7.033   6.062  0.9169 -4.3937  0.5831
  914MOL0     H23387   5.991   7.069   5.921 -0.1394  1.2623 -0.0382
  914MOL0     H23388   6.063   6.658   6.003 -0.1022  0.5697 -0.6593
  914MOL0     H23389   5.710   6.836   5.384  0.8269  0.0037  0.0137
  914MOL0     H23390   5.560   6.809   5.185  0.0021  2.4624 -1.1680
  915MOL0     O23391   8.840   6.025   4.498  0.2060 -0.4509  0.0104
  915MOL0     C23392   8.927   6.039   4.585  0.3935 -0.1107 -0.5384
  915MOL0     O23393   8.909   6.101   4.703 -0.0227 -0.3701  0.1867
  915MOL0     C23394   8.790   6.178   4.725  0.0003  0.9118  1.0226
  915MOL0     C23395   8.675   6.111   4.769  1.2931  0.3667 -0.2246
  915MOL0     C23396   8.557   6.179   4.798  0.4061  0.2630 -0.3043
  915MOL0     C23397   8.550   6.319   4.782 -0.8538 -0.9344 -0.1083
  915MOL0     O23398   8.441   6.410   4.790 -0.4280 -0.1942 -0.0679
  915MOL0     C23399   8.310   6.373   4.757 -0.3865 -0.4283  0.6391
  915MOL0     C23400   8.194   6.453   4.822 -0.2268 -0.0236 -0.1534
  915MOL0     C23401   8.208   6.489   4.972 -0.1864 -0.2515 -0.0778
  915MOL0     C23402   8.225   6.369   5.067  1.0933 -0.7293  0.6359
  915MOL0     C23403   8.256   6.422   5.206  0.0847 -0.0156 -0.3073
  915MOL0     C23404   8.142   6.487   5.288  0.2191 -0.7752  0.1850
  915MOL0     C23405   8.201   6.525   5.427 -0.2098  0.2413  0.0701
  915MOL0     C23406   8.189   6.409   5.527 -0.5232 -0.2609 -0.9112
  915MOL0     N23407   8.067   6.437   5.608  0.3911 -0.3639  0.0291
  915MOL0     C23408   8.055   6.463   5.738 -1.1678  0.0963  0.7212
  915MOL0     C23409   7.924   6.467   5.759 -0.1594  0.2998  0.0764
  915MOL0     C23410   7.870   6.518   5.888 -0.5592  0.8288 -0.3898
  915MOL0     C23411   7.724   6.562   5.886  0.7903  0.2898  0.4421
  915MOL0     C23412   7.684   6.601   6.030 -0.1818 -0.6479 -0.7040
  915MOL0     C23413   7.544   6.658   6.041  0.4707 -0.2113  0.3533
  915MOL0     O23414   7.440   6.571   5.985  0.0866 -0.2925 -0.4146
  915MOL0     C23415   7.409   6.451   6.048  0.0936 -0.2903  0.3863
  915MOL0     C23416   7.452   6.424   6.174  0.2541 -1.2442 -0.4249
  915MOL0     C23417   7.389   6.311   6.240 -0.9925  0.0519 -0.7548
  915MOL0     C23418   7.441   6.292   6.379  0.0064 -0.7140  0.2295
  915MOL0     C23419   7.286   6.240   6.179  0.1722 -0.9441 -0.3149
  915MOL0     C23420   7.204   6.135   6.244  0.7042 -0.2532  0.7489
  915MOL0     O23421   7.093   6.079   6.174  0.7045  0.5138  0.1926
  915MOL0     C23422   7.052   5.961   6.238  0.0416 -0.1745 -0.2799
  915MOL0     C23423   7.075   5.842   6.174  0.4368 -0.8577 -0.4682
  915MOL0     C23424   7.014   5.725   6.224 -1.2785  0.4012  0.3042
  915MOL0     C23425   6.941   5.729   6.346 -0.5113  0.1491  0.2636
  915MOL0     O23426   6.882   5.625   6.417  0.2126  0.0050  0.2572
  915MOL0     C23427   6.945   5.494   6.427 -0.2078 -0.6042  0.2298
  915MOL0     C23428   6.895   5.391   6.537 -0.2027  0.2604 -0.0469
  915MOL0     C23429   6.749   5.375   6.539  0.7332 -0.0030 -0.8829
  915MOL0     C23430   6.710   5.285   6.421  0.3973  0.7610  0.4370
  915MOL0     C23431   6.549   5.289   6.417  0.1801 -0.1872 -0.4886
  915MOL0     C23432   6.486   5.191   6.518 -0.3317 -0.4595 -0.5924
  915MOL0     C23433   6.342   5.163   6.474  0.0826  0.3726  0.0480
  915MOL0     C23434   6.272   5.089   6.589 -0.0550  0.6649  0.3965
  915MOL0    Cl23435   6.089   5.114   6.575  0.0787 -0.4198  0.6011
  915MOL0     C23436   6.920   5.854   6.408 -0.6557  0.7630  0.0504
  915MOL0     C23437   6.976   5.970   6.352  0.1637  0.1544  0.0988
  915MOL0     O23438   7.230   6.113   6.365  0.9098  0.5510 -1.0106
  915MOL0     C23439   7.259   6.277   6.048  0.8602  0.0798  0.7361
  915MOL0     C23440   7.315   6.381   5.984  0.2974  0.5337 -0.3379
  915MOL0     N23441   7.855   6.431   5.645 -0.1496 -0.0768  0.9610
  915MOL0     N23442   7.945   6.410   5.557 -0.9736 -0.1717 -0.0012
  915MOL0     C23443   8.668   6.385   4.722  0.1722  0.3505  0.4700
  915MOL0     C23444   8.784   6.313   4.697 -0.9477 -0.5346  0.5350
  915MOL0     C23445   9.048   5.963   4.560 -0.4084  0.2706  0.9098
  915MOL0     C23446   9.157   5.984   4.646 -0.5642  0.5844  0.4197
  915MOL0     C23447   9.274   5.914   4.627 -0.6213 -0.5827 -0.2095
  915MOL0     C23448   9.287   5.810   4.527  0.3632 -0.3516  1.1027
  915MOL0     O23449   9.383   5.719   4.515  0.0277 -0.5108  1.3479
  915MOL0     C23450   9.508   5.777   4.479 -0.1298 -0.4661  0.0794
  915MOL0     C23451   9.621   5.663   4.482 -0.0828 -0.3372  1.1437
  915MOL0     C23452   9.688   5.616   4.616 -0.0177 -0.5228 -0.1477
  915MOL0     C23453   9.602   5.524   4.706  0.9495  0.3288  0.1133
  915MOL0     C23454   9.561   5.386   4.660 -0.6802  0.1327  0.2007
  915MOL0     C23455   9.530   5.273   4.623 -0.5851  0.5330  0.4431
  915MOL0     C23456   9.175   5.795   4.437 -0.2667 -0.1930  0.3928
  915MOL0     C23457   9.062   5.872   4.455  0.3441  0.1759 -0.8630
  915MOL0     H23458   8.679   6.007   4.799 -0.8082  0.2057 -0.3173
  915MOL0     H23459   8.473   6.140   4.856  0.9612 -0.2361  0.1730
  915MOL0     H23460   8.289   6.382   4.650 -1.9445  1.4928  1.0564
  915MOL0     H23461   8.300   6.271   4.795  1.2211 -0.3952  1.1883
  915MOL0     H23462   8.175   6.553   4.782  1.3970  1.0499  1.6054
  915MOL0     H23463   8.100   6.398   4.807 -0.2028 -0.2423  0.4692
  915MOL0     H23464   8.296   6.552   4.989 -2.7543  3.0241  2.3996
  915MOL0     H23465   8.123   6.553   4.998  0.3833  1.1445 -1.4806
  915MOL0     H23466   8.140   6.302   5.051 -1.0185  2.0502 -0.5584
  915MOL0     H23467   8.316   6.311   5.049  0.8967 -0.2421 -2.4820
  915MOL0     H23468   8.292   6.336   5.264 -0.1075 -2.0807 -3.0577
  915MOL0     H23469   8.346   6.484   5.200 -0.7162  2.1848  4.8601
  915MOL0     H23470   8.111   6.576   5.232  0.4501 -0.7409  0.1079
  915MOL0     H23471   8.063   6.412   5.298 -1.8860  1.3843  0.6642
  915MOL0     H23472   8.301   6.562   5.407  0.1790  1.3530  3.4123
  915MOL0     H23473   8.143   6.607   5.471 -3.0205 -1.5507 -0.0171
  915MOL0     H23474   8.284   6.400   5.581  0.7815 -0.9545 -3.2081
  915MOL0     H23475   8.181   6.323   5.460  1.8628 -0.3607 -1.1530
  915MOL0     H23476   8.137   6.486   5.805  0.2326 -0.0646 -0.8703
  915MOL0     H23477   7.894   6.449   5.969 -2.1363 -0.6054 -1.0810
  915MOL0     H23478   7.930   6.604   5.920  1.1999 -0.4083 -0.1956
  915MOL0     H23479   7.662   6.481   5.846 -2.6471  2.1537  1.6152
  915MOL0     H23480   7.703   6.644   5.816  1.0380  2.0804  2.3896
  915MOL0     H23481   7.739   6.689   6.065 -3.3422  0.6971  1.3088
  915MOL0     H23482   7.697   6.514   6.094 -1.2320 -2.4853 -2.8449
  915MOL0     H23483   7.532   6.748   5.979  1.1746  0.5266  1.2580
  915MOL0     H23484   7.527   6.692   6.143  2.1677 -1.7968  1.2201
  915MOL0     H23485   7.529   6.482   6.225 -1.6694 -0.0714  1.2664
  915MOL0     H23486   7.475   6.190   6.394  0.8784 -0.2940  1.1975
  915MOL0     H23487   7.522   6.358   6.412  0.3256 -1.8081  1.7244
  915MOL0     H23488   7.358   6.315   6.446  2.2865  0.0903  2.9659
  915MOL0     H23489   7.132   5.843   6.081  0.3642  5.1608 -0.9022
  915MOL0     H23490   7.033   5.630   6.176  0.9873  0.6150  0.6658
  915MOL0     H23491   6.928   5.448   6.329 -1.5550 -0.4644  0.3809
  915MOL0     H23492   7.052   5.503   6.444 -0.1816 -0.7991  0.1756
  915MOL0     H23493   6.938   5.292   6.520 -0.2921  0.6607 -3.0471
  915MOL0     H23494   6.933   5.425   6.633  3.5876 -3.5063  0.0935
  915MOL0     H23495   6.707   5.475   6.549  0.6743  0.3673 -3.8872
  915MOL0     H23496   6.719   5.319   6.628 -0.4015  0.2895 -1.0777
  915MOL0     H23497   6.754   5.314   6.326  3.9059 -2.8879  0.6848
  915MOL0     H23498   6.739   5.181   6.437 -2.7274  0.0734  2.7315
  915MOL0     H23499   6.509   5.258   6.320 -1.2880 -0.6331  0.2391
  915MOL0     H23500   6.513   5.389   6.443 -0.7678 -1.1185  2.0835
  915MOL0     H23501   6.550   5.102   6.518  0.1688 -0.1148 -1.6280
  915MOL0     H23502   6.486   5.239   6.616 -0.7196 -0.3255 -0.6572
  915MOL0     H23503   6.334   5.093   6.390 -1.4727  1.9365 -1.1659
  915MOL0     H23504   6.291   5.253   6.439 -1.8645 -2.6565 -6.5689
  915MOL0     H23505   6.300   5.130   6.687 -0.2612  1.4070  0.1478
  915MOL0     H23506   6.286   4.982   6.573 -1.1527  0.8914 -2.6356
  915MOL0     H23507   6.853   5.845   6.493 -2.1802 -2.5931 -1.3234
  915MOL0     H23508   6.970   6.075   6.382  1.5738  0.7712 -1.6319
  915MOL0     H23509   7.179   6.224   5.997  0.4481 -1.7884  3.1656
  915MOL0     H23510   7.281   6.402   5.883 -3.6863 -0.4897  0.6049
  915MOL0     H23511   8.660   6.492   4.702 -2.9839  0.5049  1.9716
  915MOL0     H23512   8.870   6.361   4.651 -0.6495 -0.7253  0.8867
  915MOL0     H23513   9.157   6.064   4.719  2.1137  1.1134 -0.0304
  915MOL0     H23514   9.359   5.929   4.693  1.8172 -1.1396 -3.0165
  915MOL0     H23515   9.509   5.830   4.383 -0.4434 -0.2515  0.1914
  915MOL0     H23516   9.535   5.855   4.551  0.4114  0.3856 -1.0197
  915MOL0     H23517   9.697   5.703   4.415 -2.5283  0.9787 -1.0247
  915MOL0     H23518   9.584   5.572   4.435 -0.6167  0.7378 -0.5950
  915MOL0     H23519   9.702   5.705   4.678  0.9630  1.9017 -3.5124
  915MOL0     H23520   9.786   5.575   4.588  0.7288  0.6097  0.7422
  915MOL0     H23521   9.506   5.571   4.727  0.1641 -1.0883 -0.1471
  915MOL0     H23522   9.659   5.519   4.799 -0.8853  1.1144  1.3393
  915MOL0     H23523   9.506   5.168   4.618  1.8886 -0.0462 -1.1929
  915MOL0     H23524   9.184   5.733   4.348 -0.2343  0.7140 -0.2460
  915MOL0     H23525   8.975   5.849   4.394 -1.4583 -0.8995  1.9711
  916MOL0     O23526   7.017   9.733   6.886  0.8133 -0.5796 -0.1940
  916MOL0     C23527   7.076   9.836   6.844 -0.2087  0.5540  0.2803
  916MOL0     O23528   7.082   9.957   6.911 -0.9311 -0.9069  1.2154
  916MOL0     C23529   6.989   9.967   7.016  0.6569  0.0497 -0.4919
  916MOL0     C23530   7.001   9.894   7.140 -0.6424  0.7971 -0.0160
  916MOL0     C23531   6.913   9.915   7.241 -0.2638  0.0086  1.2743
  916MOL0     C23532   6.800   9.992   7.211  0.3873  0.3376  0.4429
  916MOL0     O23533   6.716  10.002   7.319 -0.0620 -0.2964 -0.3816
  916MOL0     C23534   6.574  10.004   7.292 -1.2433 -0.2183  0.7510
  916MOL0     C23535   6.491   9.960   7.408 -0.9212 -0.0363 -0.2063
  916MOL0     C23536   6.453  10.083   7.497  0.3305  0.9660 -0.5030
  916MOL0     C23537   6.384  10.038   7.631  0.2108 -0.2597  0.7799
  916MOL0     C23538   6.377  10.171   7.719 -0.1669 -0.7534 -0.4341
  916MOL0     C23539   6.329  10.133   7.855 -0.9584  0.1798  0.1557
  916MOL0     C23540   6.289  10.256   7.923 -0.3244  0.1138  0.3961
  916MOL0     C23541   6.213  10.210   8.050  0.7326  0.3134 -0.6466
  916MOL0     N23542   6.113  10.314   8.091  0.1318  1.0137  0.8799
  916MOL0     C23543   6.005  10.357   8.013 -0.1006  0.5700 -0.2604
  916MOL0     C23544   5.906  10.389   8.101 -0.0457 -0.4260 -0.1442
  916MOL0     C23545   5.756  10.423   8.070 -0.1355  0.1796 -0.5919
  916MOL0     C23546   5.672  10.474   8.195  0.5981  1.1704 -1.0762
  916MOL0     C23547   5.531  10.507   8.156  0.9053  0.2306  0.5602
  916MOL0     C23548   5.450  10.380   8.150  0.4078 -0.7620  0.8412
  916MOL0     O23549   5.457  10.306   8.271 -0.2717 -0.7562 -0.1430
  916MOL0     C23550   5.405  10.182   8.269 -0.9551  0.1636 -0.8056
  916MOL0     C23551   5.357  10.112   8.164 -0.2284 -0.2833  0.5292
  916MOL0     C23552   5.311   9.984   8.165 -0.0998 -0.0038  0.1530
  916MOL0     C23553   5.276   9.918   8.033  0.0287 -0.1524 -0.1283
  916MOL0     C23554   5.278   9.933   8.288 -0.0369  0.8423 -0.9595
  916MOL0     C23555   5.199   9.810   8.305  0.2948  0.0587 -0.0050
  916MOL0     O23556   5.087   9.819   8.389  0.7743  0.4529 -0.1327
  916MOL0     C23557   5.031   9.698   8.431 -0.3464 -0.2605  0.7753
  916MOL0     C23558   4.898   9.684   8.400 -1.1536 -0.4001 -0.6506
  916MOL0     C23559   4.834   9.572   8.440 -0.4497  0.3056 -0.4017
  916MOL0     C23560   4.894   9.467   8.512  0.5410 -0.0412 -0.4324
  916MOL0     O23561   4.836   9.346   8.557 -0.4712  0.4607  0.8036
  916MOL0     C23562   4.701   9.320   8.524  0.1785 -0.7132  0.6035
  916MOL0     C23563   4.633   9.196   8.583 -0.6415 -0.6325 -0.0785
  916MOL0     C23564   4.722   9.074   8.565 -0.0341  0.3806  1.3442
  916MOL0     C23565   4.623   8.948   8.546 -0.6091  0.1141 -0.3434
  916MOL0     C23566   4.694   8.815   8.499 -0.0506  0.0618 -0.3755
  916MOL0     C23567   4.596   8.707   8.445  0.2442 -0.4910  0.1016
  916MOL0     C23568   4.666   8.571   8.435  0.7578  0.1643  0.2863
  916MOL0     C23569   4.654   8.519   8.291 -0.3559  0.4134 -0.1789
  916MOL0    Cl23570   4.737   8.368   8.256 -0.3430 -0.1276 -0.3624
  916MOL0     C23571   5.033   9.486   8.539  0.6297 -0.6332  0.1828
  916MOL0     C23572   5.104   9.601   8.494 -0.0241 -0.7024 -0.0879
  916MOL0     O23573   5.252   9.709   8.273  0.6052  0.7026  0.8088
  916MOL0     C23574   5.308  10.015   8.405 -0.3516 -0.1308 -0.5668
  916MOL0     C23575   5.377  10.135   8.396 -0.1961 -0.7711 -0.7767
  916MOL0     N23576   5.956  10.366   8.225  0.6274  0.5715 -0.0357
  916MOL0     N23577   6.081  10.318   8.217 -0.4940 -0.1031  0.0190
  916MOL0     C23578   6.779  10.058   7.085 -0.7985 -0.7884  0.3415
  916MOL0     C23579   6.878  10.047   6.994 -0.8779 -0.4332  0.3945
  916MOL0     C23580   7.165   9.822   6.729 -0.7267  0.7835  0.8437
  916MOL0     C23581   7.217   9.699   6.698  0.0146 -0.2341 -0.0364
  916MOL0     C23582   7.319   9.693   6.591  1.0298 -0.1010 -0.7817
  916MOL0     C23583   7.356   9.802   6.515  0.2577 -0.6737 -0.0748
  916MOL0     O23584   7.468   9.800   6.431 -0.1152 -0.2916  0.3006
  916MOL0     C23585   7.561   9.685   6.439 -0.0147 -0.0085 -0.2755
  916MOL0     C23586   7.519   9.561   6.357  0.0720  0.5052 -0.1599
  916MOL0     C23587   7.482   9.591   6.210  0.1920 -0.6866 -0.2007
  916MOL0     C23588   7.470   9.453   6.139 -0.4412 -0.8501  0.8633
  916MOL0     C23589   7.606   9.415   6.091 -1.2686  0.7713 -0.4017
  916MOL0     C23590   7.719   9.381   6.047  0.1062  0.1204  0.1182
  916MOL0     C23591   7.294   9.921   6.548  0.4334 -0.4669  0.5043
  916MOL0     C23592   7.197   9.932   6.651 -0.6906 -0.4145  0.5632
  916MOL0     H23593   7.094   9.838   7.146 -0.0656  1.1562 -3.3044
  916MOL0     H23594   6.918   9.871   7.340 -0.7621  1.9584  2.2111
  916MOL0     H23595   6.533  10.103   7.267 -0.6077  0.5346  2.5627
  916MOL0     H23596   6.566   9.935   7.207  2.5454 -1.0622  0.8966
  916MOL0     H23597   6.400   9.913   7.370  1.0955 -2.5507 -2.3349
  916MOL0     H23598   6.542   9.885   7.470  0.1178  0.4493 -0.4498
  916MOL0     H23599   6.544  10.141   7.518 -0.0539  0.2056  4.4154
  916MOL0     H23600   6.372  10.139   7.450 -1.1271 -0.2256  0.4887
  916MOL0     H23601   6.283  10.003   7.605  0.0095 -0.7919  2.1550
  916MOL0     H23602   6.428   9.953   7.684  0.9445 -0.9177 -0.8186
  916MOL0     H23603   6.479  10.210   7.721 -0.6375  0.5956 -1.3368
  916MOL0     H23604   6.315  10.244   7.666 -2.0193 -1.8377  0.1339
  916MOL0     H23605   6.239  10.071   7.843 -1.6966  1.4281 -1.1514
  916MOL0     H23606   6.409  10.080   7.907 -1.3980 -0.6975 -0.0310
  916MOL0     H23607   6.371  10.325   7.947 -1.6378  3.3366 -3.2475
  916MOL0     H23608   6.222  10.312   7.857 -0.8095 -0.2613  0.5666
  916MOL0     H23609   6.276  10.187   8.136 -1.1214 -4.0275 -0.2252
  916MOL0     H23610   6.149  10.122   8.044 -1.1904  1.7252 -2.4277
  916MOL0     H23611   5.997  10.349   7.905  0.8197  2.0791 -0.4756
  916MOL0     H23612   5.747  10.495   7.988  0.6899  2.2708  1.0621
  916MOL0     H23613   5.707  10.333   8.032 -1.8042  0.0957  1.5814
  916MOL0     H23614   5.725  10.558   8.240  1.7585  0.3071 -0.7983
  916MOL0     H23615   5.673  10.390   8.264 -0.3454  0.7678 -1.5381
  916MOL0     H23616   5.536  10.547   8.054  0.2762 -1.9174 -0.3818
  916MOL0     H23617   5.480  10.575   8.225  1.7246 -0.4404  1.8586
  916MOL0     H23618   5.481  10.316   8.067  0.1506 -3.5555  2.7782
  916MOL0     H23619   5.348  10.406   8.123  1.6978  2.8075 -1.2679
  916MOL0     H23620   5.360  10.152   8.063  2.8491 -1.0683  0.2107
  916MOL0     H23621   5.243   9.815   8.046  1.7936 -0.8666 -0.9894
  916MOL0     H23622   5.187   9.967   7.994 -1.2884  1.1727  4.0753
  916MOL0     H23623   5.353   9.911   7.955  0.3291  1.0452  0.0405
  916MOL0     H23624   4.838   9.764   8.358  0.2094  0.0952 -1.7264
  916MOL0     H23625   4.733   9.554   8.403 -0.3983  1.1775 -0.9972
  916MOL0     H23626   4.643   9.406   8.557  1.0765  0.5628 -0.9798
  916MOL0     H23627   4.696   9.323   8.415  0.3070  2.8236  0.5828
  916MOL0     H23628   4.615   9.210   8.690 -1.3705  3.0277 -0.5498
  916MOL0     H23629   4.537   9.184   8.532 -2.0642 -0.4446  2.4034
  916MOL0     H23630   4.791   9.057   8.648 -0.7134  1.5350  2.1683
  916MOL0     H23631   4.776   9.080   8.470  0.0181  0.4676  1.3793
  916MOL0     H23632   4.564   8.926   8.635  2.7761 -0.0987  2.0404
  916MOL0     H23633   4.552   8.976   8.467  0.2872  0.8943 -0.8937
  916MOL0     H23634   4.741   8.782   8.592 -0.4208  1.2247  0.2415
  916MOL0     H23635   4.771   8.849   8.429  1.1954  2.2272  1.8811
  916MOL0     H23636   4.499   8.715   8.494 -0.0660  1.7284 -0.7468
  916MOL0     H23637   4.574   8.746   8.345  0.3573 -1.8855 -0.4848
  916MOL0     H23638   4.611   8.506   8.504  0.6397 -0.7219 -0.6181
  916MOL0     H23639   4.772   8.572   8.460  0.8605 -2.5501  0.2901
  916MOL0     H23640   4.687   8.594   8.219  0.5928  0.6251  0.4635
  916MOL0     H23641   4.547   8.496   8.287  0.0520 -2.6126  2.5203
  916MOL0     H23642   5.091   9.418   8.600  0.8302 -1.8148 -1.2760
  916MOL0     H23643   5.209   9.623   8.503 -0.1862  1.0159 -1.7288
  916MOL0     H23644   5.276   9.980   8.502  0.0160  1.1678  0.0416
  916MOL0     H23645   5.386  10.188   8.490 -0.6289 -2.4494  0.2372
  916MOL0     H23646   6.694  10.123   7.073 -2.4097 -2.2667  2.7206
  916MOL0     H23647   6.857  10.104   6.904 -1.7523 -0.1161  0.7892
  916MOL0     H23648   7.193   9.617   6.765 -2.5745 -0.2322 -0.8389
  916MOL0     H23649   7.363   9.594   6.593  0.2573 -0.4473 -0.3857
  916MOL0     H23650   7.651   9.725   6.392 -0.1589  0.5105 -0.1238
  916MOL0     H23651   7.577   9.653   6.542 -2.8203 -0.5329  0.0929
  916MOL0     H23652   7.429   9.524   6.408  0.3334 -1.0098 -0.7284
  916MOL0     H23653   7.598   9.487   6.370 -0.1857  0.6758  3.6843
  916MOL0     H23654   7.550   9.656   6.155 -0.3473  0.4488  0.4340
  916MOL0     H23655   7.389   9.648   6.217  1.0494  0.6752  0.5937
  916MOL0     H23656   7.410   9.466   6.049  1.9479  2.4339 -0.4504
  916MOL0     H23657   7.441   9.374   6.208  0.1490 -0.7573  1.2310
  916MOL0     H23658   7.822   9.358   6.028  0.1537 -0.9341  1.5314
  916MOL0     H23659   7.325  10.004   6.486  3.2373 -1.2245  0.7470
  916MOL0     H23660   7.168  10.033   6.679  2.1029  1.8414 -3.6138
  917MOL0     O23661   3.615   8.470  10.640 -0.8342 -0.8614  0.2533
  917MOL0     C23662   3.652   8.363  10.588  0.0287  0.1495 -0.1879
  917MOL0     O23663   3.578   8.271  10.532  0.0014 -0.4947  0.4344
  917MOL0     C23664   3.444   8.297  10.513  0.6431 -0.7949 -0.0076
  917MOL0     C23665   3.356   8.321  10.617  1.5698  0.3051 -0.4290
  917MOL0     C23666   3.213   8.340  10.602  0.0621  0.5815  0.2572
  917MOL0     C23667   3.165   8.335  10.471  0.4008 -0.0395  0.3378
  917MOL0     O23668   3.036   8.361  10.444 -0.3271  0.1098  0.2208
  917MOL0     C23669   2.935   8.299  10.531  0.9878 -0.0550 -0.1164
  917MOL0     C23670   2.947   8.147  10.544  0.8751  0.0002 -0.4190
  917MOL0     C23671   2.830   8.078  10.470 -0.4144  0.8926 -0.2931
  917MOL0     C23672   2.832   7.927  10.510  0.2019 -0.7926  0.1812
  917MOL0     C23673   2.731   7.856  10.416 -0.0517 -0.0839  0.1726
  917MOL0     C23674   2.696   7.716  10.463 -0.2404  0.5912 -0.0631
  917MOL0     C23675   2.827   7.626  10.471  0.6014  0.0959  0.0529
  917MOL0     C23676   2.802   7.483  10.515  0.0338 -0.1688  0.2583
  917MOL0     N23677   2.718   7.471  10.633  0.4043  0.0484 -0.0005
  917MOL0     C23678   2.748   7.519  10.751  0.5309 -1.2681 -0.8037
  917MOL0     C23679   2.643   7.484  10.838  0.4889  1.1513 -0.3788
  917MOL0     C23680   2.644   7.501  10.988  0.4615 -1.1948  0.6002
  917MOL0     C23681   2.525   7.566  11.045 -0.3734 -0.6202 -0.6397
  917MOL0     C23682   2.537   7.611  11.195 -0.5051 -0.6125 -0.3357
  917MOL0     C23683   2.403   7.657  11.242  0.6103 -1.2232  0.3670
  917MOL0     O23684   2.314   7.553  11.277 -0.7466  0.0695  0.2260
  917MOL0     C23685   2.195   7.599  11.331 -0.1765  0.1557  0.1726
  917MOL0     C23686   2.095   7.642  11.238 -0.2093  0.8089 -0.4751
  917MOL0     C23687   1.972   7.681  11.285  0.4007 -0.5631  0.8923
  917MOL0     C23688   1.879   7.724  11.167  0.3844  0.1985  0.1838
  917MOL0     C23689   1.935   7.684  11.425 -0.6519  0.6598 -0.8030
  917MOL0     C23690   1.809   7.737  11.484 -0.1050 -0.4993  0.1813
  917MOL0     O23691   1.790   7.689  11.615 -0.7592  0.2506 -0.0155
  917MOL0     C23692   1.674   7.709  11.683  0.7924 -0.7759  0.0459
  917MOL0     C23693   1.684   7.691  11.822  0.6496 -0.0805  0.1401
  917MOL0     C23694   1.591   7.718  11.914  0.6580 -0.0096 -0.0363
  917MOL0     C23695   1.468   7.784  11.870 -0.6062  0.0507  0.3655
  917MOL0     O23696   1.376   7.821  11.959  0.1677  0.1039  0.0706
  917MOL0     C23697   1.300   7.710  12.016 -0.1984 -0.1119 -0.6166
  917MOL0     C23698   1.154   7.746  12.022  0.0099  0.9009  0.0070
  917MOL0     C23699   1.058   7.646  12.094 -0.8346  0.1585 -0.1477
  917MOL0     C23700   0.910   7.697  12.093  0.2821  0.8283  0.0263
  917MOL0     C23701   0.821   7.582  12.130 -0.7042 -0.1421 -0.2197
  917MOL0     C23702   0.675   7.629  12.124  0.6046 -0.5515  0.6907
  917MOL0     C23703   0.605   7.507  12.178  0.2255  0.0440 -0.3812
  917MOL0     C23704   0.456   7.494  12.149 -0.1190 -0.3356 -1.4015
  917MOL0    Cl23705   0.392   7.653  12.199  0.1998  0.2635 -0.3315
  917MOL0     C23706   1.440   7.775  11.735  0.4409  0.0916  1.1298
  917MOL0     C23707   1.545   7.733  11.644  0.2702 -0.5134  0.1680
  917MOL0     O23708   1.745   7.820  11.421  0.1530 -0.1805 -0.7808
  917MOL0     C23709   2.042   7.643  11.517 -0.6780 -0.3173  0.5235
  917MOL0     C23710   2.163   7.591  11.467 -0.2876 -0.4124 -1.0360
  917MOL0     N23711   2.553   7.422  10.761 -0.1337  0.5972  0.4880
  917MOL0     N23712   2.592   7.416  10.638  0.1414 -0.2053  0.1035
  917MOL0     C23713   3.252   8.315  10.365  0.5615  0.3922 -0.8038
  917MOL0     C23714   3.390   8.290  10.381  0.1579 -1.2098 -1.0659
  917MOL0     C23715   3.796   8.346  10.577 -0.6083  0.9238 -0.4622
  917MOL0     C23716   3.904   8.430  10.618  0.0074  0.4972  0.7371
  917MOL0     C23717   4.029   8.375  10.632  1.1410 -0.6853 -0.9070
  917MOL0     C23718   4.059   8.247  10.605 -0.3853 -0.4594 -0.0562
  917MOL0     O23719   4.193   8.219  10.621 -0.3111  0.2793  0.4610
  917MOL0     C23720   4.247   8.091  10.570 -0.4331 -0.0788 -1.1726
  917MOL0     C23721   4.394   8.086  10.567  0.0798 -0.5058  0.5787
  917MOL0     C23722   4.466   8.212  10.494  0.2427  0.5473 -0.4555
  917MOL0     C23723   4.610   8.229  10.537 -0.2961 -0.3862  0.1471
  917MOL0     C23724   4.693   8.253  10.427  0.8666  0.2914  1.2594
  917MOL0     C23725   4.760   8.260  10.326  0.4365 -0.3616  0.4888
  917MOL0     C23726   3.964   8.161  10.550 -0.7801 -0.1226 -0.1013
  917MOL0     C23727   3.834   8.215  10.533 -0.8254  0.1367 -0.3094
  917MOL0     H23728   3.390   8.317  10.720 -2.2583 -1.1230  0.9536
  917MOL0     H23729   3.146   8.360  10.685  2.5365  0.6741  2.3557
  917MOL0     H23730   2.933   8.351  10.627 -1.2039  2.9740 -1.6531
  917MOL0     H23731   2.835   8.316  10.490  1.9011  2.1885 -1.6225
  917MOL0     H23732   3.042   8.117  10.498  2.9290 -0.1630  3.4718
  917MOL0     H23733   2.938   8.134  10.652 -3.0497  5.3294  0.3028
  917MOL0     H23734   2.730   8.109  10.502 -1.2292 -3.0573  1.5434
  917MOL0     H23735   2.842   8.087  10.362  0.7640 -2.1947 -0.5059
  917MOL0     H23736   2.931   7.884  10.492 -0.5185 -1.9290 -1.3223
  917MOL0     H23737   2.822   7.917  10.618  2.9243 -0.2274  0.5445
  917MOL0     H23738   2.644   7.922  10.422  0.1384  0.4949 -2.4527
  917MOL0     H23739   2.754   7.862  10.310  1.9108  2.0986  0.6535
  917MOL0     H23740   2.649   7.722  10.561  2.0416  3.2593  1.0138
  917MOL0     H23741   2.633   7.665  10.390  0.5598 -0.6884  0.1031
  917MOL0     H23742   2.877   7.630  10.373 -0.0599 -4.3990 -0.6739
  917MOL0     H23743   2.904   7.669  10.536  2.4306 -0.8184 -1.3852
  917MOL0     H23744   2.901   7.447  10.542 -0.1187  0.9895  2.5746
  917MOL0     H23745   2.759   7.418  10.438 -0.1740 -1.1187  1.1617
  917MOL0     H23746   2.837   7.576  10.776  0.2207 -0.3036 -1.8062
  917MOL0     H23747   2.663   7.405  11.037 -1.1320 -3.0047 -2.0589
  917MOL0     H23748   2.719   7.573  11.022 -2.9427  2.2266  1.5294
  917MOL0     H23749   2.446   7.491  11.048  1.4959 -2.6929  0.8611
  917MOL0     H23750   2.489   7.641  10.974 -0.8321 -0.0957  0.1341
  917MOL0     H23751   2.605   7.695  11.208  1.4541 -2.3812  1.7142
  917MOL0     H23752   2.577   7.528  11.253  0.9472  2.0362  2.7256
  917MOL0     H23753   2.353   7.706  11.158  1.9526  0.2916  0.4074
  917MOL0     H23754   2.413   7.732  11.321  0.6790 -1.0901  0.2344
  917MOL0     H23755   2.133   7.655  11.137  2.7722  1.5278  0.6153
  917MOL0     H23756   1.910   7.715  11.062  0.2537  1.6629  0.0017
  917MOL0     H23757   1.783   7.671  11.174  0.0087  0.7034 -0.8707
  917MOL0     H23758   1.856   7.830  11.184 -2.0870 -0.2255 -0.1312
  917MOL0     H23759   1.778   7.653  11.861  3.1612  3.4515 -1.9188
  917MOL0     H23760   1.610   7.679  12.013  0.6164 -2.3661 -0.8908
  917MOL0     H23761   1.316   7.612  11.970  2.6482  0.8440 -1.8901
  917MOL0     H23762   1.324   7.691  12.121 -1.9248  0.2069 -0.1374
  917MOL0     H23763   1.148   7.839  12.080  2.3190  1.5981 -0.7901
  917MOL0     H23764   1.110   7.775  11.926  1.6015 -0.5964 -1.2244
  917MOL0     H23765   1.103   7.624  12.191  1.1728 -0.3632 -1.1585
  917MOL0     H23766   1.072   7.553  12.039  0.4381 -0.9027  1.8441
  917MOL0     H23767   0.899   7.785  12.157  2.5666  0.0981  1.5717
  917MOL0     H23768   0.883   7.737  11.995  0.2806  0.6170 -0.0600
  917MOL0     H23769   0.844   7.545  12.230 -1.2343  1.0826  0.3758
  917MOL0     H23770   0.839   7.503  12.056  0.0856  1.2689 -1.6058
  917MOL0     H23771   0.656   7.711  12.194 -1.1130 -0.2461 -0.1020
  917MOL0     H23772   0.652   7.653  12.020 -2.9100 -2.3456  0.9222
  917MOL0     H23773   0.607   7.511  12.287 -5.8194  0.0235  0.0658
  917MOL0     H23774   0.658   7.417  12.147  0.9398  0.4950 -0.4917
  917MOL0     H23775   0.403   7.419  12.207 -1.4352  0.4612 -1.5394
  917MOL0     H23776   0.432   7.474  12.045 -0.5278  0.2682 -1.4311
  917MOL0     H23777   1.342   7.807  11.703 -0.3553 -2.3038  1.0002
  917MOL0     H23778   1.541   7.748  11.536  1.2248  0.1344  0.2073
  917MOL0     H23779   2.023   7.656  11.623 -2.4970  2.6880 -0.0416
  917MOL0     H23780   2.238   7.567  11.540 -0.2462  1.0640 -0.5626
  917MOL0     H23781   3.212   8.310  10.264 -1.7730 -0.1402  0.0934
  917MOL0     H23782   3.448   8.260  10.293 -0.0964 -1.0914 -1.2755
  917MOL0     H23783   3.887   8.535  10.637  1.8035  0.4439  3.0897
  917MOL0     H23784   4.106   8.439  10.675 -0.7601  1.9810 -1.2322
  917MOL0     H23785   4.201   8.011  10.628  0.5952  1.1975  1.5728
  917MOL0     H23786   4.205   8.086  10.468 -1.7781 -1.4253 -0.5966
  917MOL0     H23787   4.441   7.997  10.525  1.8639  1.4785 -2.0046
  917MOL0     H23788   4.429   8.095  10.670  3.6923 -0.4215 -0.5126
  917MOL0     H23789   4.403   8.301  10.502 -2.0345 -0.7857 -2.1851
  917MOL0     H23790   4.469   8.182  10.389 -1.4472  2.0302 -0.9607
  917MOL0     H23791   4.648   8.131  10.567 -1.4546 -0.9483 -0.1631
  917MOL0     H23792   4.628   8.304  10.615  0.0684 -0.0313 -0.2707
  917MOL0     H23793   4.836   8.252  10.250  1.3863 -1.7585  1.5322
  917MOL0     H23794   3.991   8.059  10.524 -1.4743  0.2675 -2.6687
  917MOL0     H23795   3.761   8.148  10.488 -1.7790  1.9401 -1.5764
  918MOL0     O23796   0.066   6.798   7.422  0.0933 -0.0353  0.3032
  918MOL0     C23797   0.042   6.718   7.510  0.6029  0.0938 -0.4527
  918MOL0     O23798  -0.083   6.681   7.545 -0.7790  0.2803 -0.0074
  918MOL0     C23799  -0.202   6.725   7.483 -0.7652 -0.1258 -0.0196
  918MOL0     C23800  -0.219   6.775   7.351  1.2330  0.2921 -0.2821
  918MOL0     C23801  -0.346   6.823   7.304 -0.0868 -0.3832 -0.4294
  918MOL0     C23802  -0.456   6.826   7.391 -0.1049 -0.5908 -0.3843
  918MOL0     O23803  -0.586   6.855   7.358  0.5882  0.1484 -1.1004
  918MOL0     C23804  -0.604   6.952   7.261  0.1287 -0.3125  1.0657
  918MOL0     C23805  -0.751   6.995   7.266 -0.8084  0.3423  1.0560
  918MOL0     C23806  -0.809   7.022   7.408 -0.1446 -0.3722  0.1662
  918MOL0     C23807  -0.946   7.069   7.385  0.8378 -0.1117 -0.2125
  918MOL0     C23808  -1.036   7.076   7.506  0.5881 -0.4262  0.2064
  918MOL0     C23809  -1.165   7.150   7.463  0.4996  0.5581  0.7187
  918MOL0     C23810  -1.268   7.108   7.575 -0.0068 -0.0990  0.6238
  918MOL0     C23811  -1.386   7.193   7.561 -1.4525  0.2853 -0.4343
  918MOL0     N23812  -1.485   7.164   7.459  0.1659 -0.3245 -0.2187
  918MOL0     C23813  -1.622   7.154   7.472 -0.2803 -0.3565 -0.6562
  918MOL0     C23814  -1.670   7.116   7.350 -0.2108  0.0487 -0.2648
  918MOL0     C23815  -1.812   7.098   7.315 -0.3228  0.5215 -0.0533
  918MOL0     C23816  -1.868   7.228   7.259 -0.2257 -0.9651  0.6038
  918MOL0     C23817  -1.916   7.335   7.362  0.3284  0.4297  0.1495
  918MOL0     C23818  -2.056   7.298   7.421 -0.2930 -0.8413  0.4175
  918MOL0     O23819  -2.098   7.420   7.484 -0.0587  0.1898  0.1746
  918MOL0     C23820  -2.226   7.424   7.536  0.1723  0.0435 -0.1041
  918MOL0     C23821  -2.320   7.314   7.545 -0.1738  0.0778  0.3157
  918MOL0     C23822  -2.428   7.311   7.639  0.5961 -0.9407 -0.4213
  918MOL0     C23823  -2.507   7.188   7.651 -0.1165 -0.1729 -0.9583
  918MOL0     C23824  -2.450   7.435   7.713  0.1018 -1.0633 -0.8319
  918MOL0     C23825  -2.559   7.458   7.818 -1.1434  1.4804 -0.1306
  918MOL0     O23826  -2.554   7.572   7.891 -0.9602 -0.7895 -0.2519
  918MOL0     C23827  -2.666   7.630   7.935  0.5554  0.3486 -0.3285
  918MOL0     C23828  -2.646   7.736   8.021 -0.1100 -0.6247 -0.2190
  918MOL0     C23829  -2.754   7.812   8.058 -0.4942 -0.2163 -0.6890
  918MOL0     C23830  -2.892   7.766   8.035 -0.2654 -1.4276 -0.3511
  918MOL0     O23831  -3.015   7.832   8.070 -0.0242 -0.1226  0.0974
  918MOL0     C23832  -2.994   7.972   8.063 -0.3396 -0.8753  0.0228
  918MOL0     C23833  -3.132   8.043   8.073  0.5559  0.1755 -0.0467
  918MOL0     C23834  -3.194   7.996   8.208 -0.6185  0.5357  0.3887
  918MOL0     C23835  -3.352   8.044   8.210 -1.0803  0.4511 -0.3442
  918MOL0     C23836  -3.429   7.988   8.323 -0.8572 -0.2424 -0.2203
  918MOL0     C23837  -3.411   8.067   8.454 -1.1499  0.0643 -0.9106
  918MOL0     C23838  -3.434   8.217   8.455 -0.6559 -0.3541  0.2041
  918MOL0     C23839  -3.309   8.297   8.506 -0.0928 -0.4800  0.1594
  918MOL0    Cl23840  -3.246   8.246   8.672 -0.4482  0.0817  0.2133
  918MOL0     C23841  -2.903   7.657   7.957 -0.0535 -0.0371  0.8657
  918MOL0     C23842  -2.794   7.584   7.908 -0.0158 -0.1212 -0.5528
  918MOL0     O23843  -2.614   7.349   7.849  0.7419  0.0258  0.5818
  918MOL0     C23844  -2.368   7.551   7.692  0.3006  0.4377 -0.4085
  918MOL0     C23845  -2.253   7.540   7.606  0.0188 -0.6213  0.0796
  918MOL0     N23846  -1.557   7.081   7.279  0.4237  0.1927 -0.4859
  918MOL0     N23847  -1.449   7.100   7.348 -0.4802  0.7756  0.4227
  918MOL0     C23848  -0.435   6.785   7.521 -0.2174 -0.3110  0.4335
  918MOL0     C23849  -0.311   6.732   7.563 -0.8031  1.1339  0.0697
  918MOL0     C23850   0.159   6.659   7.569 -0.7088 -0.4377  0.0048
  918MOL0     C23851   0.276   6.730   7.579 -0.4990 -0.1543 -0.0384
  918MOL0     C23852   0.387   6.676   7.630 -0.4019 -0.2642 -0.2734
  918MOL0     C23853   0.393   6.548   7.679  0.0081  0.6540 -0.4266
  918MOL0     O23854   0.521   6.511   7.730 -0.7006 -0.4173 -0.1642
  918MOL0     C23855   0.525   6.378   7.777  0.6583  0.2056  0.7302
  918MOL0     C23856   0.666   6.347   7.819 -0.3213 -0.1982  0.1524
  918MOL0     C23857   0.722   6.431   7.931 -0.2139 -0.6573 -0.3003
  918MOL0     C23858   0.709   6.368   8.063  0.9815 -0.1105  0.1129
  918MOL0     C23859   0.575   6.345   8.111  0.3299 -0.1877 -0.0507
  918MOL0     C23860   0.471   6.312   8.168 -0.1942 -1.5553 -0.3738
  918MOL0     C23861   0.271   6.469   7.678  0.8508  0.4588  0.0367
  918MOL0     C23862   0.159   6.529   7.618  0.3360 -0.5423 -1.2650
  918MOL0     H23863  -0.132   6.790   7.287  0.2578 -0.5047 -1.8474
  918MOL0     H23864  -0.355   6.857   7.201  3.1168 -2.5519 -1.5594
  918MOL0     H23865  -0.538   7.039   7.274  2.7554 -1.6809 -1.8128
  918MOL0     H23866  -0.587   6.924   7.157  0.4720  1.4157  0.6234
  918MOL0     H23867  -0.765   7.082   7.202  0.3660 -0.9092 -1.0408
  918MOL0     H23868  -0.814   6.914   7.228  1.4427 -1.9034  1.7893
  918MOL0     H23869  -0.813   6.934   7.472 -0.4617  0.9452  2.0579
  918MOL0     H23870  -0.753   7.111   7.440 -1.6565  1.0980 -1.0941
  918MOL0     H23871  -0.940   7.168   7.339  0.5075 -0.0094 -0.0357
  918MOL0     H23872  -0.994   6.999   7.316 -0.7642  0.2012  0.5443
  918MOL0     H23873  -1.064   6.974   7.532  0.3660 -1.5242 -3.7370
  918MOL0     H23874  -0.991   7.132   7.589  2.8390 -2.0969  0.2105
  918MOL0     H23875  -1.157   7.256   7.437  1.3228  0.2928 -0.1710
  918MOL0     H23876  -1.193   7.112   7.364 -0.9958 -2.2193  2.0920
  918MOL0     H23877  -1.290   7.001   7.569 -2.6506  0.4611 -0.7529
  918MOL0     H23878  -1.210   7.125   7.667  2.2912  0.6278 -0.8849
  918MOL0     H23879  -1.352   7.296   7.546 -2.3706  0.7859  0.7060
  918MOL0     H23880  -1.440   7.195   7.656  0.4432 -0.3312  0.7292
  918MOL0     H23881  -1.676   7.183   7.562  1.0220  0.4427 -0.1031
  918MOL0     H23882  -1.826   7.006   7.258 -0.1893 -2.5300  4.3386
  918MOL0     H23883  -1.865   7.077   7.409  2.5037  0.6400  1.7114
  918MOL0     H23884  -1.956   7.194   7.203  1.1076 -3.6625 -0.0443
  918MOL0     H23885  -1.794   7.264   7.186 -1.1555 -0.1893  0.0278
  918MOL0     H23886  -1.940   7.432   7.317 -4.2134  0.4972  2.1845
  918MOL0     H23887  -1.841   7.352   7.441  0.7673  0.6727 -0.3092
  918MOL0     H23888  -2.059   7.218   7.496  0.9359 -0.4049  0.9505
  918MOL0     H23889  -2.117   7.268   7.335  0.3721 -0.4549 -0.1995
  918MOL0     H23890  -2.298   7.224   7.488 -1.3486  0.7883 -1.3562
  918MOL0     H23891  -2.469   7.117   7.578  0.4384 -0.0372 -0.8052
  918MOL0     H23892  -2.500   7.145   7.752  0.2461  0.0767 -0.8751
  918MOL0     H23893  -2.613   7.201   7.628  0.1926  2.5137 -1.1613
  918MOL0     H23894  -2.545   7.754   8.055 -0.6529  3.2614 -0.2046
  918MOL0     H23895  -2.734   7.901   8.117 -0.3937 -1.4375  1.1875
  918MOL0     H23896  -2.939   8.001   8.153  0.1188 -0.2124 -0.4640
  918MOL0     H23897  -2.936   7.994   7.973 -2.2146  0.1350 -0.9860
  918MOL0     H23898  -3.108   8.150   8.072 -1.1578  0.6090 -2.1271
  918MOL0     H23899  -3.194   8.025   7.984  0.6806 -0.2138 -0.0585
  918MOL0     H23900  -3.138   8.019   8.299  0.6557 -1.2041  0.0806
  918MOL0     H23901  -3.206   7.887   8.212 -0.4591  0.5149  0.2986
  918MOL0     H23902  -3.340   8.153   8.218  1.9873  0.0693  2.6727
  918MOL0     H23903  -3.402   8.013   8.118 -0.6668 -2.0346  0.1926
  918MOL0     H23904  -3.404   7.883   8.338  1.5871 -0.1456 -2.7695
  918MOL0     H23905  -3.533   7.998   8.289 -0.2837  2.7517 -1.4343
  918MOL0     H23906  -3.479   8.026   8.529  0.2923 -1.7964 -0.5235
  918MOL0     H23907  -3.309   8.047   8.490 -1.7994  0.6460  1.4200
  918MOL0     H23908  -3.517   8.242   8.521  0.1190 -0.9445  1.4273
  918MOL0     H23909  -3.458   8.250   8.354  1.0669 -0.1998 -0.1919
  918MOL0     H23910  -3.330   8.404   8.500  0.6135 -0.3607 -0.3781
  918MOL0     H23911  -3.230   8.265   8.436 -0.8448 -1.9062 -0.0769
  918MOL0     H23912  -2.989   7.601   7.924  0.6230 -0.8998  0.5477
  918MOL0     H23913  -2.813   7.491   7.856  3.3085 -0.5002 -1.3035
  918MOL0     H23914  -2.388   7.643   7.746  1.7950  1.4340 -1.4725
  918MOL0     H23915  -2.185   7.626   7.605 -3.0435  1.9741 -0.8578
  918MOL0     H23916  -0.517   6.790   7.592 -0.1550  0.8337  0.4401
  918MOL0     H23917  -0.318   6.701   7.667  0.0010  2.4748  0.5483
  918MOL0     H23918   0.296   6.834   7.552  2.5936 -0.4981  0.5074
  918MOL0     H23919   0.481   6.728   7.619 -0.1190 -1.3171 -3.8990
  918MOL0     H23920   0.469   6.376   7.870  0.3386  1.5365  0.5880
  918MOL0     H23921   0.490   6.320   7.691  4.1259  1.7132 -1.9686
  918MOL0     H23922   0.726   6.382   7.735 -1.8244  1.7855 -0.1874
  918MOL0     H23923   0.675   6.239   7.834 -2.2370 -0.7351 -1.9456
  918MOL0     H23924   0.672   6.528   7.933 -2.7495 -1.8981  2.1912
  918MOL0     H23925   0.830   6.445   7.918 -0.0849 -0.5783  0.8321
  918MOL0     H23926   0.763   6.432   8.134  0.7847  0.0586  0.1101
  918MOL0     H23927   0.757   6.270   8.053  0.2533 -0.3860 -0.8224
  918MOL0     H23928   0.389   6.279   8.230  0.4061  1.0418  2.0002
  918MOL0     H23929   0.269   6.369   7.721  2.1078 -0.4231 -1.8010
  918MOL0     H23930   0.065   6.476   7.632 -1.1720  1.8557 -1.9298
  919MOL0     O23931   3.409   8.618   1.931 -0.2123  0.3345  0.1116
  919MOL0     C23932   3.449   8.504   1.907 -0.4869  0.5290 -0.4579
  919MOL0     O23933   3.375   8.406   1.846 -0.8089  0.1822 -0.3342
  919MOL0     C23934   3.250   8.439   1.801  0.5641  0.3678  0.0374
  919MOL0     C23935   3.222   8.527   1.700  0.2756  0.3078  0.1133
  919MOL0     C23936   3.084   8.527   1.662  0.1165 -0.3823 -0.3160
  919MOL0     C23937   2.985   8.438   1.713 -0.6875 -0.1556 -0.6250
  919MOL0     O23938   2.859   8.468   1.667 -0.3918  0.2709 -0.0730
  919MOL0     C23939   2.741   8.411   1.729  0.1741  0.3582 -0.4950
  919MOL0     C23940   2.622   8.490   1.681 -0.8083  0.2450  0.1564
  919MOL0     C23941   2.504   8.428   1.733  0.0196  0.5528 -0.0821
  919MOL0     C23942   2.382   8.473   1.639 -1.2425  0.1599  0.1432
  919MOL0     C23943   2.271   8.376   1.663 -0.2757  0.7269  0.1041
  919MOL0     C23944   2.158   8.405   1.558  0.4213 -0.6048  0.9786
  919MOL0     C23945   2.028   8.340   1.613  0.7396 -0.7404 -0.0746
  919MOL0     C23946   1.910   8.428   1.575 -0.0308  0.3111 -0.0791
  919MOL0     N23947   1.794   8.367   1.641 -0.3693 -0.1243  0.1606
  919MOL0     C23948   1.690   8.304   1.576  1.2139  0.3522  0.8269
  919MOL0     C23949   1.592   8.285   1.673  0.1665 -0.2906  0.6395
  919MOL0     C23950   1.452   8.237   1.662  0.1489  0.6005 -0.5668
  919MOL0     C23951   1.331   8.332   1.682 -0.0859 -0.3929  0.2549
  919MOL0     C23952   1.346   8.459   1.593 -0.1869 -0.0716 -0.0470
  919MOL0     C23953   1.218   8.546   1.594  0.5504 -0.0362 -0.0704
  919MOL0     O23954   1.095   8.484   1.552  0.5732  0.3224  0.0641
  919MOL0     C23955   0.973   8.549   1.562  0.6321 -0.9456  0.1964
  919MOL0     C23956   0.860   8.469   1.551  1.2527  0.9870 -0.6789
  919MOL0     C23957   0.734   8.525   1.551 -0.2320 -0.1950  0.2359
  919MOL0     C23958   0.608   8.426   1.535 -0.1968 -0.5881  0.5056
  919MOL0     C23959   0.720   8.668   1.550 -0.0666  0.4110 -0.2147
  919MOL0     C23960   0.586   8.736   1.529 -0.2662  0.1542 -0.0457
  919MOL0     O23961   0.572   8.862   1.591 -0.2728  0.7465 -0.1559
  919MOL0     C23962   0.453   8.922   1.617  0.5442 -0.5063 -0.2964
  919MOL0     C23963   0.449   9.052   1.567 -0.1886  0.4825 -0.3044
  919MOL0     C23964   0.332   9.127   1.581 -1.4202  0.3535 -0.1662
  919MOL0     C23965   0.221   9.067   1.654 -0.7781  0.0247 -0.0516
  919MOL0     O23966   0.101   9.131   1.661  0.0563  0.4730 -0.4892
  919MOL0     C23967   0.006   9.105   1.567 -0.4241  0.4855 -1.0495
  919MOL0     C23968   0.026   9.207   1.453  0.4113  0.4527 -0.9709
  919MOL0     C23969  -0.076   9.176   1.339 -1.0561 -0.3184 -0.3982
  919MOL0     C23970  -0.075   9.291   1.242  0.3500  1.4423  0.2546
  919MOL0     C23971  -0.177   9.288   1.120  0.2423  0.3564  0.3897
  919MOL0     C23972  -0.123   9.214   0.998  0.7642 -0.2859 -0.1532
  919MOL0     C23973  -0.053   9.301   0.890 -0.6599  0.7266  1.3473
  919MOL0     C23974  -0.030   9.212   0.766 -1.1586 -0.0965 -0.1755
  919MOL0    Cl23975  -0.193   9.147   0.703  0.4192  0.1220 -0.2272
  919MOL0     C23976   0.222   8.938   1.700 -1.1325 -0.2948 -0.9649
  919MOL0     C23977   0.341   8.870   1.689 -0.0231 -0.4519 -1.2709
  919MOL0     O23978   0.491   8.678   1.476 -0.2856  0.0986 -0.5558
  919MOL0     C23979   0.833   8.747   1.563  0.0648 -0.5077  0.0677
  919MOL0     C23980   0.961   8.691   1.572 -0.2359 -0.0110 -0.3969
  919MOL0     N23981   1.642   8.340   1.793  0.3216 -0.0243 -0.7755
  919MOL0     N23982   1.758   8.389   1.770 -0.0287  0.3660 -0.0224
  919MOL0     C23983   3.027   8.351   1.814 -0.1521  0.1817 -0.0881
  919MOL0     C23984   3.165   8.345   1.850  0.5361  0.3511  0.4022
  919MOL0     C23985   3.579   8.461   1.953 -0.3303 -0.1228 -1.0412
  919MOL0     C23986   3.664   8.559   2.014  0.0001 -0.4657  0.6629
  919MOL0     C23987   3.795   8.516   2.048 -0.4180 -0.3184 -0.2968
  919MOL0     C23988   3.839   8.380   2.016  0.6246 -0.0400 -0.9724
  919MOL0     O23989   3.968   8.335   2.047  0.0288 -0.9410 -0.7610
  919MOL0     C23990   4.081   8.433   2.061  0.1688  0.3367 -0.9285
  919MOL0     C23991   4.147   8.469   1.927 -0.8294 -0.2650  0.4675
  919MOL0     C23992   4.278   8.531   1.958 -0.0284  1.3071 -0.3978
  919MOL0     C23993   4.358   8.566   1.833  0.7637 -0.3513 -0.9647
  919MOL0     C23994   4.480   8.643   1.871 -0.6741  0.0473  0.0037
  919MOL0     C23995   4.590   8.690   1.904  0.1513  0.2818  0.1832
  919MOL0     C23996   3.759   8.284   1.957 -0.0516  0.0902  0.0106
  919MOL0     C23997   3.629   8.329   1.926  0.1672  0.2082  0.5195
  919MOL0     H23998   3.303   8.585   1.656  0.4506  0.7682  1.0325
  919MOL0     H23999   3.055   8.604   1.592 -0.6219  0.6944  1.1280
  919MOL0     H24000   2.729   8.307   1.697 -2.7293 -0.6921  3.2813
  919MOL0     H24001   2.756   8.407   1.837  3.3839 -2.6472 -0.8784
  919MOL0     H24002   2.629   8.591   1.724  1.7935 -0.4023  1.4461
  919MOL0     H24003   2.621   8.484   1.571  1.3684 -0.6061  0.1311
  919MOL0     H24004   2.504   8.319   1.743  0.1734  0.4620 -1.0121
  919MOL0     H24005   2.485   8.460   1.836 -5.4402 -1.8450  0.0266
  919MOL0     H24006   2.355   8.574   1.671 -0.4895  0.4918 -0.2266
  919MOL0     H24007   2.397   8.462   1.531 -0.4706 -3.4030  0.5037
  919MOL0     H24008   2.302   8.272   1.652 -1.3522  0.4972 -0.8769
  919MOL0     H24009   2.244   8.405   1.765  2.8002 -1.6031  1.7316
  919MOL0     H24010   2.153   8.514   1.560  1.9889 -0.3654 -2.3405
  919MOL0     H24011   2.187   8.371   1.458  2.1904 -1.8102  1.8506
  919MOL0     H24012   2.015   8.237   1.578 -0.9320 -0.6902  0.3086
  919MOL0     H24013   2.030   8.337   1.723 -0.1085 -1.7256 -0.0666
  919MOL0     H24014   1.886   8.415   1.469 -5.7379  1.7391  0.7049
  919MOL0     H24015   1.933   8.529   1.610 -0.0252  0.7890 -1.4139
  919MOL0     H24016   1.685   8.271   1.473  2.9335 -1.9183  1.3708
  919MOL0     H24017   1.440   8.179   1.570  0.9082 -2.7338  1.2624
  919MOL0     H24018   1.443   8.160   1.740 -0.1460 -0.6963 -1.8232
  919MOL0     H24019   1.319   8.359   1.787 -3.9991  2.1560 -0.6472
  919MOL0     H24020   1.244   8.274   1.650  0.5190 -2.0381  1.4594
  919MOL0     H24021   1.364   8.424   1.491 -1.3841 -3.4544  0.7665
  919MOL0     H24022   1.433   8.520   1.620  0.6525 -0.3095 -2.0209
  919MOL0     H24023   1.228   8.642   1.543  1.3215 -0.3637 -0.5504
  919MOL0     H24024   1.199   8.568   1.700  1.2509  1.3602 -0.2149
  919MOL0     H24025   0.875   8.361   1.546 -2.2300  0.2481  1.6250
  919MOL0     H24026   0.604   8.389   1.432 -1.4371 -1.1775  0.7478
  919MOL0     H24027   0.606   8.340   1.602 -2.5500  0.2637  1.6710
  919MOL0     H24028   0.512   8.469   1.566 -3.0412 -3.5698 -3.1793
  919MOL0     H24029   0.541   9.087   1.521  0.7855  0.7511  1.7294
  919MOL0     H24030   0.329   9.226   1.535 -1.0044 -0.4425 -2.0311
  919MOL0     H24031   0.001   9.003   1.530  0.5278 -0.7482  1.9452
  919MOL0     H24032  -0.084   9.126   1.625  0.5742  0.6564  0.4882
  919MOL0     H24033   0.017   9.305   1.500  0.7990  0.7525 -1.5061
  919MOL0     H24034   0.117   9.197   1.393 -0.6677 -0.0521 -2.5818
  919MOL0     H24035  -0.177   9.159   1.377 -0.7154  0.1670  0.7744
  919MOL0     H24036  -0.046   9.087   1.283  3.3578 -0.8014  2.2122
  919MOL0     H24037  -0.095   9.382   1.299  0.5864  1.9826 -0.5066
  919MOL0     H24038   0.025   9.307   1.201  0.0108 -1.2999 -1.9012
  919MOL0     H24039  -0.197   9.385   1.074 -0.4559  1.2677  2.5167
  919MOL0     H24040  -0.273   9.243   1.145 -0.4115  1.6770  0.3337
  919MOL0     H24041  -0.047   9.144   1.034  0.3073  0.3504  2.2756
  919MOL0     H24042  -0.205   9.155   0.957  1.0207 -1.5973  1.1644
  919MOL0     H24043   0.036   9.355   0.926 -0.5406  0.0397  2.1097
  919MOL0     H24044  -0.110   9.388   0.856 -0.3242  0.7110  0.7402
  919MOL0     H24045   0.038   9.132   0.796  2.2089  1.4310 -2.9620
  919MOL0     H24046   0.022   9.269   0.688  0.1795  0.7564  1.2788
  919MOL0     H24047   0.137   8.899   1.754 -0.7054 -2.0414 -1.5042
  919MOL0     H24048   0.334   8.771   1.733  0.6944  0.2958  0.6395
  919MOL0     H24049   0.825   8.855   1.575  2.1149 -0.5178  2.6617
  919MOL0     H24050   1.052   8.748   1.585 -0.3261  0.8530 -2.9387
  919MOL0     H24051   2.954   8.277   1.844  2.1181 -2.7942 -1.3378
  919MOL0     H24052   3.196   8.278   1.929 -1.6223  0.5978  1.5591
  919MOL0     H24053   3.618   8.657   2.023 -1.0465 -0.3089 -3.9129
  919MOL0     H24054   3.856   8.589   2.100 -1.7799 -0.0549  0.9952
  919MOL0     H24055   4.066   8.528   2.112  4.8815  1.3666 -1.0395
  919MOL0     H24056   4.160   8.384   2.118  0.8625  1.2210 -1.1023
  919MOL0     H24057   4.075   8.535   1.879 -0.7521 -1.7810 -1.8641
  919MOL0     H24058   4.140   8.382   1.862 -0.6439 -0.9128  1.2968
  919MOL0     H24059   4.338   8.455   2.008 -1.6784 -0.6662 -1.2389
  919MOL0     H24060   4.256   8.621   2.016 -4.0318 -0.7549  1.7048
  919MOL0     H24061   4.291   8.620   1.765 -0.8535 -2.1324 -0.8641
  919MOL0     H24062   4.381   8.475   1.778 -1.7783 -1.1908 -0.7636
  919MOL0     H24063   4.690   8.724   1.921 -0.9413  3.9409  0.0749
  919MOL0     H24064   3.790   8.181   1.941 -0.1027 -0.1991  1.6729
  919MOL0     H24065   3.562   8.259   1.878 -1.7083  2.7623 -0.8143
  920MOL0     O24066   7.739   8.196   9.977 -0.2217 -0.2230 -0.0189
  920MOL0     C24067   7.844   8.211  10.035 -0.3539  0.2747 -0.3696
  920MOL0     O24068   7.920   8.323  10.029  0.2035  0.2791 -0.0436
  920MOL0     C24069   7.880   8.425   9.950  0.8522  0.4610 -0.1310
  920MOL0     C24070   7.759   8.489   9.986  0.6516 -1.0666  0.1947
  920MOL0     C24071   7.703   8.593   9.902 -1.5627 -0.5763  0.3211
  920MOL0     C24072   7.782   8.647   9.799  0.0806 -0.1494  0.5454
  920MOL0     O24073   7.736   8.763   9.732  0.1183 -0.1087  0.2241
  920MOL0     C24074   7.833   8.864   9.711  0.5357  0.0583 -0.4870
  920MOL0     C24075   7.771   8.972   9.631 -0.2577 -0.2859 -0.0032
  920MOL0     C24076   7.815   9.110   9.690 -0.3393 -0.1183 -0.3840
  920MOL0     C24077   7.721   9.146   9.810  0.0405  0.5368  1.3784
  920MOL0     C24078   7.755   9.277   9.874 -0.0824 -0.4564 -0.2508
  920MOL0     C24079   7.627   9.352   9.916 -0.4393  0.1345  0.2922
  920MOL0     C24080   7.627   9.494   9.986  0.6639  0.5329  0.7774
  920MOL0     C24081   7.490   9.544  10.028 -0.2045 -0.9486  0.2879
  920MOL0     N24082   7.447   9.480  10.153  0.6902 -0.1617  0.0767
  920MOL0     C24083   7.346   9.397  10.145  0.6158 -0.5313  0.3498
  920MOL0     C24084   7.302   9.366  10.272 -0.3688 -0.0489  0.5274
  920MOL0     C24085   7.204   9.261  10.319  0.2928 -0.7242  0.1774
  920MOL0     C24086   7.065   9.329  10.319 -0.1771  0.9713  0.0980
  920MOL0     C24087   7.011   9.360  10.188 -0.5546 -0.6979 -0.3384
  920MOL0     C24088   6.857   9.384  10.198  0.0865 -0.3012  0.0276
  920MOL0     O24089   6.782   9.285  10.274 -0.0047  0.0209  0.9424
  920MOL0     C24090   6.717   9.191  10.194  0.3318  0.7513 -0.4294
  920MOL0     C24091   6.792   9.078  10.151 -0.1088  0.3319 -0.2503
  920MOL0     C24092   6.732   8.982  10.076  0.6730  0.6975 -0.3977
  920MOL0     C24093   6.815   8.859  10.056 -0.0740  0.4728  0.4257
  920MOL0     C24094   6.597   9.000  10.033 -0.2451  0.1178 -0.7446
  920MOL0     C24095   6.529   8.894   9.962 -0.3737 -0.3591  0.7418
  920MOL0     O24096   6.404   8.872  10.008  0.0984  0.0344 -0.1226
  920MOL0     C24097   6.319   8.800   9.930  0.1366  0.1041 -0.7438
  920MOL0     C24098   6.331   8.658   9.917  0.6949 -0.2521 -1.0182
  920MOL0     C24099   6.240   8.587   9.831  0.8887 -1.3841  0.9695
  920MOL0     C24100   6.134   8.655   9.766 -0.2175 -0.1734  0.8477
  920MOL0     O24101   6.046   8.579   9.700  0.0020  0.4713 -0.4212
  920MOL0     C24102   5.930   8.647   9.660 -0.3883 -0.5311 -0.2948
  920MOL0     C24103   5.835   8.551   9.585 -0.1462  0.0334 -0.2918
  920MOL0     C24104   5.691   8.597   9.576  0.5682 -1.1778  0.0006
  920MOL0     C24105   5.612   8.512   9.474  0.1661  0.7023  0.8163
  920MOL0     C24106   5.494   8.598   9.406 -1.0343 -0.1498 -0.2579
  920MOL0     C24107   5.403   8.508   9.316 -0.1200 -0.2493  0.1464
  920MOL0     C24108   5.484   8.463   9.193  0.2295 -0.3405  0.7969
  920MOL0     C24109   5.379   8.428   9.082 -0.5745  0.3756  0.6868
  920MOL0    Cl24110   5.474   8.366   8.950  0.4102 -0.4073  0.0026
  920MOL0     C24111   6.128   8.797   9.776 -0.0774 -0.6568  0.3170
  920MOL0     C24112   6.221   8.868   9.852  0.9047  0.2746 -0.9753
  920MOL0     O24113   6.581   8.837   9.868  0.2024  0.7261 -0.3491
  920MOL0     C24114   6.524   9.111  10.067 -0.2582 -1.0762  0.6028
  920MOL0     C24115   6.587   9.205  10.154  0.2534 -1.3396 -0.3820
  920MOL0     N24116   7.374   9.453  10.354  0.2557  0.6344  0.5783
  920MOL0     N24117   7.459   9.517  10.283 -0.0012 -0.5528 -0.0293
  920MOL0     C24118   7.902   8.572   9.762 -0.0797  0.5850  0.3657
  920MOL0     C24119   7.951   8.463   9.837 -0.7071 -0.4748  0.1265
  920MOL0     C24120   7.866   8.114  10.138 -0.6097  0.4480 -0.3375
  920MOL0     C24121   7.772   8.021  10.169  0.3965  0.4818  0.3834
  920MOL0     C24122   7.790   7.915  10.267  0.4177 -1.0567  0.8526
  920MOL0     C24123   7.909   7.912  10.346 -0.6215  0.7118  0.6658
  920MOL0     O24124   7.928   7.813  10.436 -0.0515  0.0622  0.5416
  920MOL0     C24125   8.051   7.785  10.495 -0.5735  1.1742 -0.8131
  920MOL0     C24126   8.075   7.859  10.624  0.3403 -1.0172  0.3752
  920MOL0     C24127   7.967   7.870  10.733 -0.1779  0.7817 -0.2997
  920MOL0     C24128   7.960   7.754  10.834 -0.0667 -0.0260 -0.2612
  920MOL0     C24129   8.089   7.730  10.899 -0.5140  0.4454 -0.5848
  920MOL0     C24130   8.196   7.698  10.958  0.2501  0.3316  0.2372
  920MOL0     C24131   8.009   8.007  10.314 -0.1320 -0.2530 -0.1083
  920MOL0     C24132   7.990   8.113  10.211 -0.0046  0.3532 -0.3222
  920MOL0     H24133   7.714   8.442  10.073 -0.1373 -0.0421  0.3615
  920MOL0     H24134   7.607   8.641   9.920 -1.4231  0.5495 -1.7174
  920MOL0     H24135   7.857   8.893   9.814  2.9694  0.1981 -1.0375
  920MOL0     H24136   7.925   8.823   9.670  1.4212 -1.2916  2.5842
  920MOL0     H24137   7.789   8.968   9.523 -2.7564  0.6437 -0.5440
  920MOL0     H24138   7.662   8.968   9.639 -0.4031 -0.7334 -1.7008
  920MOL0     H24139   7.912   9.111   9.739 -0.2194  0.9653 -0.6292
  920MOL0     H24140   7.819   9.187   9.613  1.4276 -0.2556 -0.4509
  920MOL0     H24141   7.615   9.155   9.789  0.3351 -0.5020 -0.7131
  920MOL0     H24142   7.733   9.066   9.884 -1.4007 -0.3851  0.6325
  920MOL0     H24143   7.826   9.258   9.954 -2.1716 -0.6030  1.6799
  920MOL0     H24144   7.812   9.336   9.802  2.1522  0.9853  2.5519
  920MOL0     H24145   7.549   9.354   9.839 -2.0910 -0.8269  1.8462
  920MOL0     H24146   7.573   9.295   9.992 -0.8382 -0.9347 -0.7516
  920MOL0     H24147   7.692   9.471  10.072  1.5307  0.2669  0.0648
  920MOL0     H24148   7.668   9.575   9.925 -1.5514  1.9806  1.0797
  920MOL0     H24149   7.419   9.523   9.948  0.5026  0.5172 -0.7734
  920MOL0     H24150   7.492   9.652  10.044 -0.8345 -0.8865 -0.0376
  920MOL0     H24151   7.302   9.366  10.051  0.9909  0.3438 -0.1287
  920MOL0     H24152   7.209   9.167  10.263  0.7495 -0.8568  0.4404
  920MOL0     H24153   7.231   9.238  10.422  0.2192 -1.9380 -0.0571
  920MOL0     H24154   7.063   9.414  10.387 -0.3294 -0.3864  1.8721
  920MOL0     H24155   7.001   9.257  10.372 -1.0788  0.5868 -1.4301
  920MOL0     H24156   7.031   9.283  10.113  1.5259  0.1189 -0.6963
  920MOL0     H24157   7.060   9.452  10.156 -0.8133 -0.3676  0.1947
  920MOL0     H24158   6.820   9.380  10.095  2.1604 -1.1729 -0.7308
  920MOL0     H24159   6.832   9.483  10.238 -0.5743  0.2051 -1.5591
  920MOL0     H24160   6.889   9.057  10.196 -1.3788  0.1882  2.6993
  920MOL0     H24161   6.916   8.870  10.098  0.1500  1.2295 -0.2783
  920MOL0     H24162   6.768   8.771  10.100  1.6195  0.0229  1.4519
  920MOL0     H24163   6.819   8.839   9.948 -2.3007 -0.1366  0.4160
  920MOL0     H24164   6.401   8.593   9.967 -0.1877 -2.2056 -2.2200
  920MOL0     H24165   6.228   8.480   9.824  0.0983 -1.2292 -0.3705
  920MOL0     H24166   5.885   8.689   9.750  5.7374  2.1837  2.0089
  920MOL0     H24167   5.944   8.731   9.591 -1.3537  1.0528  1.3574
  920MOL0     H24168   5.883   8.545   9.487  0.1967 -0.6171 -0.0904
  920MOL0     H24169   5.837   8.455   9.637  3.5902  0.3109  0.3446
  920MOL0     H24170   5.681   8.694   9.527 -2.9099 -2.2217 -1.6088
  920MOL0     H24171   5.639   8.589   9.672  0.0448 -1.3216 -0.2886
  920MOL0     H24172   5.675   8.471   9.395 -1.1689 -2.2163  1.1410
  920MOL0     H24173   5.565   8.422   9.514 -0.2185  0.5946  0.1472
  920MOL0     H24174   5.530   8.677   9.339 -0.3992 -1.8182 -1.9565
  920MOL0     H24175   5.449   8.646   9.494  4.1185 -0.6844  3.1534
  920MOL0     H24176   5.373   8.419   9.373  0.2899  1.2919  2.9459
  920MOL0     H24177   5.313   8.561   9.285  0.6600  1.1949  0.2789
  920MOL0     H24178   5.543   8.377   9.228  0.5577 -0.3859  0.1443
  920MOL0     H24179   5.547   8.542   9.152 -0.1609  0.3014  1.4212
  920MOL0     H24180   5.326   8.518   9.050  0.3349  0.1508 -1.6241
  920MOL0     H24181   5.298   8.361   9.112 -0.0229  0.1075  1.6241
  920MOL0     H24182   6.045   8.851   9.732  1.0726  0.1967 -0.9221
  920MOL0     H24183   6.209   8.973   9.878  1.5405  0.3193 -0.8495
  920MOL0     H24184   6.418   9.109  10.044  0.0099 -2.9534 -0.7258
  920MOL0     H24185   6.541   9.293  10.198  1.2880  1.3209 -4.1463
  920MOL0     H24186   7.959   8.606   9.676  0.7436  0.2509  0.7712
  920MOL0     H24187   8.038   8.410   9.800  0.9167  0.8182  1.9128
  920MOL0     H24188   7.675   8.033  10.123 -0.7052  1.5586  2.8257
  920MOL0     H24189   7.717   7.834  10.271 -2.2862  1.0176 -1.7079
  920MOL0     H24190   8.074   7.679  10.514  0.7079  1.5723  0.0104
  920MOL0     H24191   8.133   7.808  10.427 -0.6694  2.9436 -0.3700
  920MOL0     H24192   8.090   7.963  10.595 -1.1359 -0.1491  2.4536
  920MOL0     H24193   8.165   7.825  10.676 -0.2413 -2.2374  0.6397
  920MOL0     H24194   7.870   7.873  10.683 -0.4612 -0.8828  0.0849
  920MOL0     H24195   7.984   7.963  10.789 -0.6675 -1.0796  3.1871
  920MOL0     H24196   7.919   7.665  10.785 -1.8657  1.5019 -1.6941
  920MOL0     H24197   7.894   7.769  10.920  0.2837  0.4800 -0.0809
  920MOL0     H24198   8.284   7.659  11.005 -0.7591  1.1805  3.0010
  920MOL0     H24199   8.108   8.007  10.358 -0.3801 -0.9224  0.4601
  920MOL0     H24200   8.068   8.182  10.182  0.7375 -0.2523  0.1718
  921MOL0     O24201  11.311   8.341   1.599  0.0763  0.3493  0.4407
  921MOL0     C24202  11.286   8.402   1.702  0.1687 -0.0122 -0.1394
  921MOL0     O24203  11.221   8.519   1.706 -0.2649 -0.2719  0.3820
  921MOL0     C24204  11.197   8.585   1.584 -0.2419  0.8582  0.2551
  921MOL0     C24205  11.091   8.566   1.488 -0.2364  0.9971  0.1504
  921MOL0     C24206  11.070   8.643   1.376  0.9900 -1.2703  0.4355
  921MOL0     C24207  11.174   8.733   1.338  0.9082 -0.3543  0.0222
  921MOL0     O24208  11.174   8.820   1.233  0.2900  0.5980 -0.1904
  921MOL0     C24209  11.045   8.845   1.168  0.2682  0.5881  0.2992
  921MOL0     C24210  10.927   8.901   1.248  0.2018 -0.6101 -0.0984
  921MOL0     C24211  10.791   8.875   1.181 -0.2415  0.1964  0.0578
  921MOL0     C24212  10.673   8.880   1.270 -0.6069 -0.2662  0.0612
  921MOL0     C24213  10.545   8.944   1.199 -0.2413 -0.4462  0.5328
  921MOL0     C24214  10.434   8.956   1.304 -0.7586 -0.9067  0.8842
  921MOL0     C24215  10.365   8.823   1.314  1.0851  0.5136 -0.4246
  921MOL0     C24216  10.284   8.813   1.440 -0.3481  0.2441 -0.9401
  921MOL0     N24217  10.172   8.914   1.443  0.1900  0.8472 -0.8886
  921MOL0     C24218  10.192   9.049   1.481 -0.1233  0.3781  0.1481
  921MOL0     C24219  10.085   9.114   1.428  0.1802  0.3154  0.6374
  921MOL0     C24220  10.060   9.260   1.422  0.0591 -0.6300 -0.5825
  921MOL0     C24221   9.999   9.299   1.284 -0.0951  0.5104 -0.3147
  921MOL0     C24222   9.978   9.457   1.270 -0.1107  0.1788  0.3917
  921MOL0     C24223  10.106   9.535   1.236  0.2115 -0.2007 -0.3901
  921MOL0     O24224  10.169   9.482   1.118  0.9489  0.2045 -0.2775
  921MOL0     C24225  10.269   9.563   1.064 -1.0338  0.1202  0.4652
  921MOL0     C24226  10.345   9.650   1.142 -0.5063 -0.5790 -0.2827
  921MOL0     C24227  10.459   9.724   1.096 -0.6874  0.7744  0.1572
  921MOL0     C24228  10.529   9.814   1.190  0.2760 -0.6667  1.5199
  921MOL0     C24229  10.502   9.706   0.970 -0.0834 -0.1449 -0.0119
  921MOL0     C24230  10.613   9.788   0.909 -0.3306  0.3672 -0.2210
  921MOL0     O24231  10.601   9.806   0.775 -0.1141  0.2937  0.2537
  921MOL0     C24232  10.701   9.864   0.708  1.2030  0.6476 -0.1591
  921MOL0     C24233  10.674   9.970   0.621  0.1461 -0.0800 -0.4227
  921MOL0     C24234  10.772  10.033   0.539  0.5550 -0.1191 -0.3420
  921MOL0     C24235  10.903   9.987   0.547 -0.2288 -0.7791  1.3910
  921MOL0     O24236  11.003  10.049   0.474  0.1276 -0.2452  0.4000
  921MOL0     C24237  11.115  10.096   0.560  0.3820  0.1671  0.1963
  921MOL0     C24238  11.121  10.248   0.544 -0.1924 -0.1351 -0.1521
  921MOL0     C24239  10.991  10.324   0.548 -0.0694  0.8099  0.5120
  921MOL0     C24240  11.007  10.476   0.588  0.5864  0.1631 -0.1780
  921MOL0     C24241  11.090  10.557   0.486  1.1507  0.2469 -0.0949
  921MOL0     C24242  11.086  10.697   0.531 -0.4583  0.3365  0.2923
  921MOL0     C24243  11.171  10.781   0.454  0.1353 -0.5092  1.3276
  921MOL0     C24244  11.154  10.932   0.496  0.4338 -0.6832 -0.6281
  921MOL0    Cl24245  11.173  10.953   0.667  0.0782  0.5292  0.3298
  921MOL0     C24246  10.930   9.871   0.617  0.1971  0.1430 -1.7235
  921MOL0     C24247  10.833   9.807   0.704 -0.2038  0.8629  0.6466
  921MOL0     O24248  10.708   9.825   0.976  0.3744  0.1748 -0.5992
  921MOL0     C24249  10.433   9.610   0.884 -0.4890  0.4655  0.5526
  921MOL0     C24250  10.313   9.549   0.934 -0.1219  0.1210  0.8105
  921MOL0     N24251  10.001   9.012   1.367 -0.2896 -0.7400 -0.3201
  921MOL0     N24252  10.062   8.898   1.371  0.5234  0.6453 -0.4302
  921MOL0     C24253  11.286   8.746   1.421  0.0481  1.4591 -0.0348
  921MOL0     C24254  11.298   8.676   1.545 -0.4572 -0.7395  0.0918
  921MOL0     C24255  11.335   8.353   1.829 -0.3674  0.5493  1.2362
  921MOL0     C24256  11.322   8.424   1.947 -0.2278 -0.1597 -0.0079
  921MOL0     C24257  11.385   8.382   2.067 -0.8050 -0.0590  0.0094
  921MOL0     C24258  11.463   8.271   2.074 -0.2988 -0.3804 -0.3480
  921MOL0     O24259  11.523   8.227   2.192  0.4815 -0.4230  0.0047
  921MOL0     C24260  11.493   8.095   2.240  0.2730 -0.2583  1.1113
  921MOL0     C24261  11.491   8.103   2.388  0.4446  0.0385  0.2523
  921MOL0     C24262  11.625   8.118   2.456 -0.4357  0.0539 -0.8045
  921MOL0     C24263  11.611   8.135   2.611 -0.2431  0.6191  0.3069
  921MOL0     C24264  11.720   8.057   2.671 -0.1147  0.5883  0.5451
  921MOL0     C24265  11.816   8.010   2.729 -0.4899  0.8313  1.0101
  921MOL0     C24266  11.480   8.195   1.962 -0.2121 -0.2521  0.2845
  921MOL0     C24267  11.419   8.245   1.843 -0.1934  0.1739  0.0058
  921MOL0     H24268  11.015   8.494   1.518  0.2455  0.4611  0.1185
  921MOL0     H24269  10.976   8.639   1.322  1.2050 -1.9882  0.0956
  921MOL0     H24270  11.056   8.914   1.084  1.2382 -2.1135 -1.9225
  921MOL0     H24271  11.007   8.752   1.126  0.2363  0.5344  0.4464
  921MOL0     H24272  10.923   8.854   1.347 -0.2073 -0.4585 -0.0430
  921MOL0     H24273  10.941   9.005   1.279 -1.9594 -1.2075  3.3712
  921MOL0     H24274  10.775   8.963   1.118 -1.3969 -0.7047 -0.9678
  921MOL0     H24275  10.793   8.781   1.126 -1.6157 -0.1431  0.5468
  921MOL0     H24276  10.661   8.774   1.296  0.3308 -0.5422 -0.5599
  921MOL0     H24277  10.692   8.937   1.361 -0.4105  0.1839 -0.2567
  921MOL0     H24278  10.569   9.045   1.163  0.0548  0.1505  2.2948
  921MOL0     H24279  10.509   8.878   1.120  0.9064 -0.2331 -0.1918
  921MOL0     H24280  10.474   8.981   1.403 -0.3589 -0.7582  0.6909
  921MOL0     H24281  10.358   9.033   1.287  1.4414  1.0873 -0.7420
  921MOL0     H24282  10.297   8.814   1.229  0.2019  3.1361 -0.0999
  921MOL0     H24283  10.437   8.741   1.308 -2.0526 -2.4856  0.3932
  921MOL0     H24284  10.348   8.841   1.524  2.5698  1.9064 -3.5247
  921MOL0     H24285  10.222   8.723   1.454  1.5003 -0.7529  1.5458
  921MOL0     H24286  10.269   9.084   1.549 -1.3340 -1.5134  2.7031
  921MOL0     H24287   9.993   9.287   1.505  1.3670  2.3960 -0.3889
  921MOL0     H24288  10.158   9.306   1.434  0.8781 -2.2238 -0.8847
  921MOL0     H24289   9.898   9.258   1.280  0.3909 -1.2611  2.7216
  921MOL0     H24290  10.053   9.265   1.195 -1.6650  1.2138 -1.5854
  921MOL0     H24291   9.919   9.483   1.358 -2.8265 -2.1648 -0.5836
  921MOL0     H24292   9.914   9.477   1.184  1.3784 -0.9305 -1.0442
  921MOL0     H24293  10.175   9.522   1.320 -1.1985  0.1175  0.8639
  921MOL0     H24294  10.087   9.643   1.233 -1.0768 -0.3701  0.7929
  921MOL0     H24295  10.318   9.667   1.246  1.2367 -0.1980  0.1339
  921MOL0     H24296  10.460   9.830   1.273 -0.6938 -0.7609  0.7482
  921MOL0     H24297  10.618   9.764   1.232  1.2461 -1.8347 -1.6251
  921MOL0     H24298  10.556   9.908   1.142  0.2948 -0.8155  1.2362
  921MOL0     H24299  10.568   9.991   0.611  0.1222  0.1846  0.2847
  921MOL0     H24300  10.751  10.100   0.456 -2.3829 -0.2470  0.1945
  921MOL0     H24301  11.096  10.071   0.664 -0.9403  1.9931  0.4303
  921MOL0     H24302  11.206  10.066   0.506 -0.8513  0.9855 -2.5472
  921MOL0     H24303  11.197  10.283   0.615  0.1618 -1.0117 -0.0813
  921MOL0     H24304  11.146  10.266   0.439 -2.7999 -2.2238 -1.2187
  921MOL0     H24305  10.916  10.273   0.609  2.0607 -3.5069 -0.1181
  921MOL0     H24306  10.954  10.322   0.445 -0.1102 -0.5501  0.5364
  921MOL0     H24307  10.907  10.515   0.605  0.4056  0.2861 -1.4035
  921MOL0     H24308  11.061  10.485   0.682  4.0443  0.2257 -2.0011
  921MOL0     H24309  11.043  10.550   0.387  0.3656 -1.1841  0.3525
  921MOL0     H24310  11.192  10.522   0.473  0.4670 -1.6977 -0.6007
  921MOL0     H24311  10.986  10.740   0.526 -0.4643  0.4839  1.4287
  921MOL0     H24312  11.131  10.699   0.631  0.7164  0.1528 -0.2212
  921MOL0     H24313  11.138  10.772   0.350 -0.9019  0.9117  1.5072
  921MOL0     H24314  11.278  10.762   0.467  0.9284  1.6494 -1.1081
  921MOL0     H24315  11.051  10.956   0.465  0.4829  0.2130 -0.1000
  921MOL0     H24316  11.211  11.008   0.441 -1.9424  0.4433 -1.6950
  921MOL0     H24317  11.035   9.843   0.623  0.7844  2.3198 -0.3948
  921MOL0     H24318  10.865   9.722   0.763 -2.1216  0.9002  1.8379
  921MOL0     H24319  10.456   9.596   0.779 -1.3956 -0.3871  0.4513
  921MOL0     H24320  10.261   9.468   0.884  0.6098 -0.4352  0.9322
  921MOL0     H24321  11.363   8.808   1.377  2.3851 -2.1483 -1.5078
  921MOL0     H24322  11.378   8.696   1.616  1.6786  1.1527 -2.6270
  921MOL0     H24323  11.269   8.518   1.939  0.5446  0.3009  0.1990
  921MOL0     H24324  11.379   8.435   2.161 -0.2943  1.9655 -1.0395
  921MOL0     H24325  11.399   8.055   2.200 -0.3707  0.1042  2.1957
  921MOL0     H24326  11.577   8.035   2.205  0.6590  0.0582  1.4763
  921MOL0     H24327  11.433   8.024   2.436 -3.3200  0.6794 -2.6995
  921MOL0     H24328  11.414   8.177   2.412 -1.0292 -0.9887 -1.0670
  921MOL0     H24329  11.676   8.204   2.413 -1.0641  1.4295  1.1002
  921MOL0     H24330  11.688   8.031   2.432  4.0927  2.2394  1.9554
  921MOL0     H24331  11.523   8.093   2.660  0.3552 -2.8645 -1.3016
  921MOL0     H24332  11.630   8.240   2.634  0.7608  0.6532 -0.6161
  921MOL0     H24333  11.903   7.990   2.788  0.8692  2.9312 -0.1547
  921MOL0     H24334  11.541   8.105   1.954  0.4128  0.2735 -1.2939
  921MOL0     H24335  11.436   8.186   1.753  1.9304  0.5209  0.1264
  922MOL0     O24336   8.834   3.562   2.753  0.9037 -0.3184  0.4548
  922MOL0     C24337   8.833   3.442   2.727  0.3862  0.1899 -0.0859
  922MOL0     O24338   8.736   3.351   2.758 -0.6811  0.7969  0.3211
  922MOL0     C24339   8.611   3.406   2.788  0.0705 -0.2196  0.2094
  922MOL0     C24340   8.585   3.458   2.919 -0.2793 -0.2383 -0.1652
  922MOL0     C24341   8.461   3.516   2.945  0.0069  0.3043  0.8170
  922MOL0     C24342   8.353   3.514   2.841 -0.5601 -0.3264 -0.5141
  922MOL0     O24343   8.219   3.539   2.872  0.1212 -0.1795 -0.6507
  922MOL0     C24344   8.184   3.531   3.012 -0.4466  0.2398  0.7909
  922MOL0     C24345   8.033   3.556   3.033  0.5216  0.9265  0.2005
  922MOL0     C24346   7.950   3.453   2.955 -0.0266 -0.0472  0.8207
  922MOL0     C24347   7.807   3.456   3.004  0.8139  0.4368 -0.6402
  922MOL0     C24348   7.729   3.356   2.930  0.8781  0.0972 -0.5927
  922MOL0     C24349   7.584   3.374   2.981  0.5867  0.1515  0.2133
  922MOL0     C24350   7.520   3.252   3.054 -0.5175  0.0990 -0.7914
  922MOL0     C24351   7.506   3.131   2.965  0.2136 -0.0018 -0.3557
  922MOL0     N24352   7.432   3.025   3.046 -0.0816 -0.2960 -0.7506
  922MOL0     C24353   7.403   2.900   2.999  0.3386 -0.0331  0.1316
  922MOL0     C24354   7.330   2.830   3.088 -0.2835 -0.7464 -0.3415
  922MOL0     C24355   7.279   2.692   3.102  0.2777  0.3409  0.0793
  922MOL0     C24356   7.219   2.619   2.980  0.2570  0.4000 -0.0493
  922MOL0     C24357   7.094   2.700   2.924 -0.0214 -0.4690 -0.0887
  922MOL0     C24358   7.019   2.609   2.820  0.1421 -1.1521  0.4225
  922MOL0     O24359   6.983   2.487   2.887  0.5186  0.0238  0.0482
  922MOL0     C24360   6.851   2.433   2.887  0.2453 -0.0172 -0.7922
  922MOL0     C24361   6.742   2.473   2.815 -0.7086 -0.2059  0.8563
  922MOL0     C24362   6.607   2.424   2.829  0.3897  0.7804 -0.2731
  922MOL0     C24363   6.514   2.478   2.721  0.4953 -0.2757  1.3875
  922MOL0     C24364   6.575   2.342   2.938  0.8524  0.6425  0.6721
  922MOL0     C24365   6.440   2.290   2.964 -0.0878 -0.2831 -0.5076
  922MOL0     O24366   6.420   2.231   3.089  0.4174 -0.2248 -0.3761
  922MOL0     C24367   6.284   2.209   3.121 -0.5133  0.4875  0.8813
  922MOL0     C24368   6.180   2.309   3.115  0.4473 -0.5194 -0.0248
  922MOL0     C24369   6.048   2.272   3.146  0.1142  1.2918 -0.5786
  922MOL0     C24370   6.015   2.141   3.192 -0.1900 -0.6158 -0.4138
  922MOL0     O24371   5.892   2.098   3.217  0.1130 -0.0994 -0.5593
  922MOL0     C24372   5.783   2.155   3.143 -0.1579 -0.5047  0.0742
  922MOL0     C24373   5.662   2.055   3.131  0.9311 -0.0956  0.4554
  922MOL0     C24374   5.697   1.956   3.019  0.2334 -0.1666 -0.3669
  922MOL0     C24375   5.632   2.000   2.877 -0.3580 -0.4551  0.3752
  922MOL0     C24376   5.679   1.895   2.766  1.0779  0.3230  0.1136
  922MOL0     C24377   5.614   1.914   2.626  0.0247  1.3248 -0.2592
  922MOL0     C24378   5.669   1.825   2.510  0.6334  0.1148 -0.3321
  922MOL0     C24379   5.656   1.906   2.373 -0.9410  1.2301  0.0279
  922MOL0    Cl24380   5.760   1.816   2.252  0.3091 -0.3485 -0.1834
  922MOL0     C24381   6.118   2.051   3.213  0.2929 -0.3572 -0.2429
  922MOL0     C24382   6.253   2.082   3.180 -0.5702  0.0586 -0.1684
  922MOL0     O24383   6.352   2.299   2.878 -0.1461  0.4116 -0.1811
  922MOL0     C24384   6.689   2.303   3.014 -0.3004  0.6170 -0.0498
  922MOL0     C24385   6.822   2.334   2.984  0.0759  0.4393 -0.5034
  922MOL0     N24386   7.312   2.923   3.194 -0.1767 -0.2149 -0.2387
  922MOL0     N24387   7.378   3.031   3.176  0.2959 -0.5129 -0.5413
  922MOL0     C24388   8.380   3.454   2.717 -0.6611  0.0345  0.2060
  922MOL0     C24389   8.509   3.405   2.687  0.3599  0.4457  0.7726
  922MOL0     C24390   8.968   3.382   2.687  0.6575  0.2059 -0.4718
  922MOL0     C24391   8.985   3.243   2.681 -0.1126  0.1126  0.1216
  922MOL0     C24392   9.116   3.189   2.657 -0.0717 -0.7180  0.0257
  922MOL0     C24393   9.226   3.270   2.620 -0.4645  0.1191 -0.2736
  922MOL0     O24394   9.344   3.200   2.600  0.9583  0.4545  0.1982
  922MOL0     C24395   9.411   3.233   2.480  0.7789  0.6475 -0.0396
  922MOL0     C24396   9.561   3.269   2.514 -0.5063  0.2138 -0.0642
  922MOL0     C24397   9.589   3.389   2.607  0.0127  0.4385  0.9861
  922MOL0     C24398   9.574   3.528   2.551 -0.0270  0.6444 -0.8453
  922MOL0     C24399   9.662   3.620   2.620  0.0546  0.7044  0.8927
  922MOL0     C24400   9.720   3.710   2.677 -0.1695 -0.1016  0.6077
  922MOL0     C24401   9.202   3.405   2.621 -0.0370 -0.5484 -0.1411
  922MOL0     C24402   9.074   3.460   2.646  0.0499  0.5217  0.2198
  922MOL0     H24403   8.652   3.425   2.998  0.1968 -2.6843 -1.4864
  922MOL0     H24404   8.433   3.547   3.045 -0.0326  0.8909  0.6300
  922MOL0     H24405   8.213   3.435   3.056 -0.8973 -1.0262 -1.5076
  922MOL0     H24406   8.223   3.620   3.063 -1.7826  2.0070 -1.1115
  922MOL0     H24407   8.020   3.552   3.141  0.3745 -2.1617  0.1362
  922MOL0     H24408   8.010   3.655   2.992 -0.8326  0.5395 -0.0371
  922MOL0     H24409   7.954   3.460   2.846  2.7251 -1.0351  0.7691
  922MOL0     H24410   7.998   3.355   2.968  1.5263  0.2727 -1.7767
  922MOL0     H24411   7.808   3.434   3.111  0.4230  3.8995  0.1999
  922MOL0     H24412   7.761   3.555   2.992 -0.7794 -0.5797 -4.1385
  922MOL0     H24413   7.726   3.389   2.826 -1.2016  2.5875  0.1486
  922MOL0     H24414   7.760   3.251   2.937 -4.9707 -1.9670 -0.6300
  922MOL0     H24415   7.567   3.461   3.046 -1.9260 -0.1246  0.0401
  922MOL0     H24416   7.526   3.378   2.889  0.8475 -1.3607 -0.0452
  922MOL0     H24417   7.597   3.224   3.126  0.8233  1.9049 -1.4669
  922MOL0     H24418   7.424   3.283   3.097 -2.4128 -1.9361 -3.1749
  922MOL0     H24419   7.606   3.095   2.939  1.0071  2.5573 -1.1706
  922MOL0     H24420   7.438   3.148   2.881 -1.8009 -1.1664  0.9415
  922MOL0     H24421   7.445   2.855   2.910  2.1970 -0.7712  1.3081
  922MOL0     H24422   7.364   2.629   3.128  1.2336  1.1646 -0.9672
  922MOL0     H24423   7.208   2.686   3.185 -0.4248  1.6727 -0.3916
  922MOL0     H24424   7.189   2.516   3.002 -3.9971  1.5771  0.4634
  922MOL0     H24425   7.293   2.615   2.900  1.5469  2.3305  0.9592
  922MOL0     H24426   7.141   2.789   2.880  3.7097 -1.8246  0.7645
  922MOL0     H24427   7.020   2.720   3.001  0.2722  0.6205 -0.0712
  922MOL0     H24428   7.085   2.587   2.736 -2.2679  1.9376 -2.5948
  922MOL0     H24429   6.934   2.666   2.780 -0.8079  0.1141  3.8777
  922MOL0     H24430   6.753   2.557   2.747  0.0664 -0.9456  0.0500
  922MOL0     H24431   6.433   2.543   2.755  0.6538  0.2034  0.8753
  922MOL0     H24432   6.565   2.519   2.633 -1.1794 -2.4856 -0.7334
  922MOL0     H24433   6.458   2.392   2.685 -0.4775 -0.1605  2.5686
  922MOL0     H24434   6.202   2.412   3.088  3.0416 -1.3861 -1.7099
  922MOL0     H24435   5.962   2.338   3.133 -0.0964  1.0482 -0.4414
  922MOL0     H24436   5.747   2.251   3.182  0.1412  2.0335 -5.0964
  922MOL0     H24437   5.817   2.186   3.044 -0.5772 -1.7177 -0.4726
  922MOL0     H24438   5.654   2.000   3.226  0.3707 -1.0160 -0.1076
  922MOL0     H24439   5.565   2.105   3.119 -0.5515 -2.3926  2.0477
  922MOL0     H24440   5.673   1.851   3.040  3.8434 -0.8805  0.8282
  922MOL0     H24441   5.805   1.956   3.009  0.1624  1.4895 -1.5313
  922MOL0     H24442   5.523   2.005   2.882 -0.2969  2.2674  0.6358
  922MOL0     H24443   5.666   2.100   2.849 -1.9384 -0.3332 -1.3619
  922MOL0     H24444   5.646   1.797   2.801 -0.0509  0.9458  0.8752
  922MOL0     H24445   5.788   1.904   2.764  1.0208  1.7135  1.4281
  922MOL0     H24446   5.506   1.897   2.621  0.1319  0.4970  0.0289
  922MOL0     H24447   5.620   2.019   2.597 -2.0616  1.2348 -1.2173
  922MOL0     H24448   5.605   1.736   2.510  1.5244 -0.5356 -1.0122
  922MOL0     H24449   5.772   1.807   2.542  0.9331 -1.8306 -2.2110
  922MOL0     H24450   5.713   1.998   2.386  0.5881  0.3646 -0.2134
  922MOL0     H24451   5.556   1.915   2.330 -1.4240 -2.7830 -0.1322
  922MOL0     H24452   6.083   1.950   3.231  1.5696 -1.0392 -1.4212
  922MOL0     H24453   6.336   2.012   3.186 -2.1482 -1.8350  0.7535
  922MOL0     H24454   6.654   2.233   3.089 -2.7779  2.9887  1.1802
  922MOL0     H24455   6.896   2.273   3.037 -0.1358 -0.2775 -1.0217
  922MOL0     H24456   8.302   3.435   2.644 -0.9203 -1.4954  0.8541
  922MOL0     H24457   8.524   3.366   2.587 -2.1760  0.5670  0.2905
  922MOL0     H24458   8.911   3.165   2.699  0.2601  0.1048  1.8292
  922MOL0     H24459   9.148   3.086   2.647 -0.1756 -0.8175  0.6538
  922MOL0     H24460   9.402   3.147   2.413 -2.3001  1.3923 -0.7021
  922MOL0     H24461   9.365   3.319   2.430 -1.0313 -0.8897 -1.1500
  922MOL0     H24462   9.637   3.280   2.436  1.4991  0.7829  1.8932
  922MOL0     H24463   9.614   3.192   2.569  1.5076  1.1092 -0.6632
  922MOL0     H24464   9.695   3.381   2.636  0.6950  0.1471 -1.3484
  922MOL0     H24465   9.527   3.383   2.696 -1.0297  1.4231  0.3409
  922MOL0     H24466   9.475   3.570   2.567  1.0368  3.6010 -1.3709
  922MOL0     H24467   9.600   3.536   2.445  3.2862 -1.2659 -0.3501
  922MOL0     H24468   9.782   3.780   2.729  1.5705 -1.9971  1.2445
  922MOL0     H24469   9.281   3.471   2.587 -0.0579 -0.1010  0.6596
  922MOL0     H24470   9.074   3.567   2.632  1.2148  0.2768 -2.1716
  923MOL0     O24471   1.409   8.442   0.936  0.1413  0.2817 -0.1115
  923MOL0     C24472   1.478   8.546   0.912  1.0185  0.6486 -0.2472
  923MOL0     O24473   1.439   8.675   0.948  0.7991 -0.0128  0.1545
  923MOL0     C24474   1.312   8.684   0.990 -1.0009 -0.2311  0.3268
  923MOL0     C24475   1.218   8.730   0.896  0.0099 -0.0371 -0.1563
  923MOL0     C24476   1.081   8.734   0.928 -0.0251 -0.2495 -0.6599
  923MOL0     C24477   1.036   8.704   1.056  0.1461  0.1872  0.6124
  923MOL0     O24478   0.902   8.715   1.080  0.8234  0.0821 -0.0330
  923MOL0     C24479   0.860   8.744   1.214  0.1547 -0.8503 -0.2245
  923MOL0     C24480   0.717   8.807   1.212 -0.1674 -0.1744 -0.5534
  923MOL0     C24481   0.610   8.724   1.133 -0.1660  0.5540  0.4294
  923MOL0     C24482   0.581   8.576   1.168 -1.2477 -0.3417 -0.1957
  923MOL0     C24483   0.467   8.525   1.067 -0.3215  0.6578 -1.6406
  923MOL0     C24484   0.328   8.582   1.090 -0.7309  0.5372 -0.0468
  923MOL0     C24485   0.278   8.560   1.235  0.4635 -0.2717 -0.1230
  923MOL0     C24486   0.136   8.604   1.241  0.0684  0.1424  0.1814
  923MOL0     N24487   0.041   8.509   1.182  0.5773  0.2055 -0.1023
  923MOL0     C24488  -0.042   8.427   1.259 -0.3573  0.1012 -0.7565
  923MOL0     C24489  -0.093   8.342   1.162  0.8543 -0.8499 -0.2692
  923MOL0     C24490  -0.193   8.236   1.179 -0.0322  0.3812 -0.1288
  923MOL0     C24491  -0.316   8.255   1.097 -1.0562 -0.2579 -0.8312
  923MOL0     C24492  -0.380   8.397   1.121 -0.0416 -0.5181  0.5030
  923MOL0     C24493  -0.526   8.419   1.076 -0.0541  0.2461 -0.0130
  923MOL0     O24494  -0.585   8.520   1.161 -0.2765  0.3252 -0.2294
  923MOL0     C24495  -0.721   8.516   1.139  0.0946  0.0336 -1.1505
  923MOL0     C24496  -0.807   8.463   1.244  0.4388 -0.0949 -0.0719
  923MOL0     C24497  -0.944   8.468   1.225 -0.0671 -0.7526 -0.1746
  923MOL0     C24498  -1.013   8.415   1.348 -0.3255  0.1064 -0.0279
  923MOL0     C24499  -1.008   8.519   1.104  0.2313 -0.0426  0.3670
  923MOL0     C24500  -1.158   8.538   1.096  0.5751 -0.0004  0.9486
  923MOL0     O24501  -1.200   8.588   0.976  0.0220 -0.4608 -0.3770
  923MOL0     C24502  -1.319   8.653   0.980 -0.6842 -1.2703 -0.3458
  923MOL0     C24503  -1.417   8.606   0.900  0.2416 -0.0657 -0.0310
  923MOL0     C24504  -1.532   8.682   0.865  0.1276  0.1740  0.2723
  923MOL0     C24505  -1.561   8.794   0.945  0.1576 -0.7512  0.5944
  923MOL0     O24506  -1.680   8.848   0.927 -0.0257  0.5533 -0.5189
  923MOL0     C24507  -1.727   8.963   1.014 -0.0903 -0.0934  0.1659
  923MOL0     C24508  -1.874   8.991   0.992 -0.7371  0.7646 -0.2685
  923MOL0     C24509  -1.949   9.081   1.088  0.5396  0.3070 -0.8746
  923MOL0     C24510  -1.918   9.033   1.237  1.2184  0.2041 -0.0618
  923MOL0     C24511  -1.964   8.889   1.264  0.3304  0.2187 -0.1650
  923MOL0     C24512  -1.934   8.847   1.409 -0.2186  0.3149 -0.0977
  923MOL0     C24513  -1.786   8.782   1.402 -0.3182 -0.3842  0.7704
  923MOL0     C24514  -1.727   8.762   1.542  0.3106 -0.0444  0.6005
  923MOL0    Cl24515  -1.796   8.632   1.636  0.4000  0.0790 -0.6410
  923MOL0     C24516  -1.458   8.851   1.024  1.0786  0.2185 -0.4028
  923MOL0     C24517  -1.334   8.778   1.054  0.0366 -0.0819  0.0459
  923MOL0     O24518  -1.227   8.520   1.191  0.3369 -0.1001 -1.1567
  923MOL0     C24519  -0.924   8.582   1.007 -0.2747  0.3013 -0.4514
  923MOL0     C24520  -0.782   8.579   1.026  0.6494  0.7733 -0.0010
  923MOL0     N24521  -0.057   8.381   1.042 -0.0632  0.0037  0.1436
  923MOL0     N24522   0.028   8.480   1.051  0.2377  0.0041 -0.6581
  923MOL0     C24523   1.134   8.678   1.151 -0.2487 -0.6294 -0.1349
  923MOL0     C24524   1.275   8.660   1.119  0.6227 -0.6848  0.1315
  923MOL0     C24525   1.605   8.535   0.856  0.2195  0.0124  0.5256
  923MOL0     C24526   1.672   8.410   0.860  0.3148 -0.4276  0.4033
  923MOL0     C24527   1.797   8.391   0.797 -0.2021  0.3210 -0.1441
  923MOL0     C24528   1.864   8.500   0.751  0.6034  0.4067 -1.4467
  923MOL0     O24529   1.990   8.487   0.715 -0.1860  0.3940  0.0377
  923MOL0     C24530   1.994   8.422   0.584 -0.0292 -1.1973 -0.4747
  923MOL0     C24531   1.943   8.505   0.460  0.1063  0.2528  0.3290
  923MOL0     C24532   1.987   8.476   0.318 -0.4147  0.3709  0.4189
  923MOL0     C24533   2.121   8.539   0.285 -0.5665 -0.5645  0.0302
  923MOL0     C24534   2.180   8.467   0.165  0.5389 -0.2915 -0.0410
  923MOL0     C24535   2.229   8.387   0.085  0.0254 -0.6181  0.3940
  923MOL0     C24536   1.807   8.630   0.756 -0.4944 -0.0197 -0.3101
  923MOL0     C24537   1.671   8.648   0.803 -0.0527  1.2746  0.7901
  923MOL0     H24538   1.230   8.743   0.789  0.5595 -2.8559 -0.5008
  923MOL0     H24539   1.008   8.751   0.850 -3.5912 -1.4003  2.1206
  923MOL0     H24540   0.849   8.650   1.270 -2.2120 -0.7183 -0.3453
  923MOL0     H24541   0.923   8.821   1.257 -2.1994  1.8865 -1.3357
  923MOL0     H24542   0.679   8.827   1.313 -0.0072 -0.4999 -0.4260
  923MOL0     H24543   0.722   8.904   1.162 -0.4991 -0.1067 -0.4584
  923MOL0     H24544   0.517   8.781   1.131 -0.3501  0.2421 -0.2500
  923MOL0     H24545   0.636   8.713   1.027  0.0165  0.0299  0.5226
  923MOL0     H24546   0.668   8.510   1.164 -0.7282  0.2598  0.8996
  923MOL0     H24547   0.544   8.570   1.271  0.1503  1.2796  0.4471
  923MOL0     H24548   0.480   8.543   0.960 -4.5010  0.2469 -2.3695
  923MOL0     H24549   0.462   8.416   1.075 -0.0753  0.7322 -0.0363
  923MOL0     H24550   0.327   8.690   1.075  0.2973  0.3829 -1.4763
  923MOL0     H24551   0.265   8.540   1.010  2.5984 -3.6143 -0.8356
  923MOL0     H24552   0.297   8.461   1.275 -1.6875 -0.7475 -0.1541
  923MOL0     H24553   0.336   8.614   1.311  2.4210 -0.8696 -1.1192
  923MOL0     H24554   0.112   8.701   1.196 -0.4894 -0.3642 -0.6399
  923MOL0     H24555   0.125   8.609   1.350  1.1984  2.3853  0.2591
  923MOL0     H24556  -0.058   8.436   1.366  0.4263 -2.7571 -0.3249
  923MOL0     H24557  -0.152   8.141   1.145 -0.5355  0.0906  0.0563
  923MOL0     H24558  -0.217   8.219   1.284  0.0704 -2.0804 -0.4383
  923MOL0     H24559  -0.396   8.183   1.115  0.1266 -1.5983 -0.7053
  923MOL0     H24560  -0.284   8.256   0.992 -0.4934  3.6704 -0.7399
  923MOL0     H24561  -0.334   8.467   1.050 -0.5426 -1.1860 -0.4983
  923MOL0     H24562  -0.369   8.429   1.225 -1.1756 -0.2713  0.5589
  923MOL0     H24563  -0.582   8.325   1.078 -0.4434  0.3905 -1.9594
  923MOL0     H24564  -0.525   8.455   0.973 -0.1220  2.4852  0.6990
  923MOL0     H24565  -0.762   8.411   1.328  1.0482 -2.7474 -1.9131
  923MOL0     H24566  -0.952   8.341   1.401  0.4540  1.0276  0.3852
  923MOL0     H24567  -1.024   8.491   1.426 -3.1100  0.3687 -0.5647
  923MOL0     H24568  -1.113   8.371   1.338 -0.0574 -0.1767 -2.0179
  923MOL0     H24569  -1.389   8.509   0.861  0.2415 -0.0608 -0.0436
  923MOL0     H24570  -1.611   8.654   0.796 -1.6536  4.0085  0.5022
  923MOL0     H24571  -1.709   8.936   1.119 -2.0279  0.6314  0.7360
  923MOL0     H24572  -1.664   9.051   1.002 -1.4322  0.8396 -0.2001
  923MOL0     H24573  -1.894   9.028   0.891  1.6764 -1.1446 -1.5599
  923MOL0     H24574  -1.929   8.897   0.993 -1.7445  1.1603 -3.9290
  923MOL0     H24575  -2.054   9.080   1.058  0.5239 -0.8731 -0.8148
  923MOL0     H24576  -1.924   9.188   1.091  0.4374  0.3260  1.5643
  923MOL0     H24577  -1.812   9.044   1.265  0.6333  3.4884  1.3117
  923MOL0     H24578  -1.977   9.086   1.312 -0.1086 -1.7758  0.3613
  923MOL0     H24579  -1.918   8.815   1.197 -0.5741  1.8010 -2.6794
  923MOL0     H24580  -2.073   8.882   1.260  0.1406 -1.6984  3.5151
  923MOL0     H24581  -1.942   8.930   1.479 -1.1044 -0.8542  1.2523
  923MOL0     H24582  -2.000   8.767   1.443 -1.3467  0.8539 -0.9576
  923MOL0     H24583  -1.722   8.856   1.354 -0.1654 -1.5920 -0.9568
  923MOL0     H24584  -1.786   8.688   1.345 -5.1798  1.2416 -2.5591
  923MOL0     H24585  -1.726   8.852   1.604 -0.9105 -0.0628  0.6595
  923MOL0     H24586  -1.626   8.733   1.511  0.0545 -2.4039  1.7412
  923MOL0     H24587  -1.467   8.944   1.079 -1.5188 -0.3679  0.2908
  923MOL0     H24588  -1.269   8.819   1.130 -0.3526  0.6819 -0.0297
  923MOL0     H24589  -0.961   8.629   0.916 -0.1507  1.2943 -0.0020
  923MOL0     H24590  -0.707   8.627   0.964  2.1447 -2.7263 -1.1300
  923MOL0     H24591   1.086   8.654   1.245 -1.8183  0.7229 -0.5453
  923MOL0     H24592   1.340   8.637   1.202 -1.2539  2.4710  2.7203
  923MOL0     H24593   1.617   8.326   0.900 -0.4256  2.0672  5.4921
  923MOL0     H24594   1.848   8.295   0.804 -0.7889  0.0764  0.8649
  923MOL0     H24595   2.095   8.383   0.565  0.2710 -0.3597 -0.6344
  923MOL0     H24596   1.939   8.327   0.584 -0.5486 -0.9593  1.9830
  923MOL0     H24597   1.950   8.613   0.475  0.6786  0.4529 -1.2165
  923MOL0     H24598   1.835   8.491   0.462  0.0713  0.0094 -1.2678
  923MOL0     H24599   1.909   8.527   0.261 -0.2675 -0.3412 -0.4409
  923MOL0     H24600   1.989   8.367   0.304  1.4039  0.5465 -1.0486
  923MOL0     H24601   2.195   8.541   0.365  1.9007  2.2261 -2.0490
  923MOL0     H24602   2.125   8.647   0.268 -0.9156 -0.0832  2.6587
  923MOL0     H24603   2.268   8.323   0.009  1.1589 -0.8077  1.1158
  923MOL0     H24604   1.876   8.711   0.739  1.6469 -1.7359 -0.2538
  923MOL0     H24605   1.635   8.751   0.798  3.0148  2.4163 -0.5511
  924MOL0     O24606   0.963   7.455   2.591  0.0769 -0.0132 -0.1610
  924MOL0     C24607   0.960   7.334   2.619 -0.9285  0.0476 -0.1756
  924MOL0     O24608   0.879   7.243   2.563  0.2879  0.1202 -0.3642
  924MOL0     C24609   0.793   7.278   2.462  0.0805  0.5939  0.2158
  924MOL0     C24610   0.831   7.263   2.325  0.5278 -0.2125  0.1632
  924MOL0     C24611   0.746   7.318   2.223  0.2063 -0.5259 -0.6065
  924MOL0     C24612   0.616   7.367   2.263 -0.8127 -0.1680 -1.7196
  924MOL0     O24613   0.516   7.409   2.174  0.9030 -0.4170  1.0029
  924MOL0     C24614   0.485   7.309   2.071  0.3737 -0.1852 -0.1033
  924MOL0     C24615   0.347   7.343   2.001 -0.2733  1.2806 -0.1550
  924MOL0     C24616   0.358   7.468   1.911 -0.4613  0.6662  0.5562
  924MOL0     C24617   0.236   7.447   1.816  0.3446 -0.3505 -0.1042
  924MOL0     C24618   0.251   7.553   1.697 -0.3447 -0.2144  0.1042
  924MOL0     C24619   0.162   7.515   1.569 -0.1770  0.3490 -0.7125
  924MOL0     C24620   0.209   7.614   1.461 -0.6068  0.0450  0.3918
  924MOL0     C24621   0.103   7.650   1.360 -0.0349  0.4046  0.9284
  924MOL0     N24622   0.090   7.539   1.267 -0.3753  0.0054 -0.0204
  924MOL0     C24623   0.177   7.498   1.166 -0.0580 -0.6626 -0.8441
  924MOL0     C24624   0.123   7.382   1.124 -0.1375 -0.3023  0.2548
  924MOL0     C24625   0.163   7.300   1.003  0.3060 -0.0298 -0.4599
  924MOL0     C24626   0.071   7.345   0.889  0.9442 -0.0879 -0.4289
  924MOL0     C24627   0.105   7.261   0.758  0.3960 -0.0477  0.0863
  924MOL0     C24628   0.000   7.297   0.637 -0.7848 -0.1909  0.1309
  924MOL0     O24629   0.020   7.438   0.602 -0.3211 -0.4777  0.0908
  924MOL0     C24630  -0.095   7.485   0.551  0.7812 -0.3122 -0.2220
  924MOL0     C24631  -0.142   7.457   0.424  0.8296  0.6461 -0.6259
  924MOL0     C24632  -0.272   7.489   0.380  0.4553 -0.5276 -0.4209
  924MOL0     C24633  -0.312   7.432   0.242 -1.2832 -0.2523 -0.1832
  924MOL0     C24634  -0.345   7.572   0.463  0.0570 -0.8644 -0.8831
  924MOL0     C24635  -0.471   7.645   0.433 -0.7839 -0.5814 -0.7519
  924MOL0     O24636  -0.571   7.643   0.526  0.7206 -0.4300 -0.2413
  924MOL0     C24637  -0.685   7.715   0.502 -0.3249  0.6520  0.0160
  924MOL0     C24638  -0.707   7.824   0.574 -0.7631 -0.1336  0.0636
  924MOL0     C24639  -0.816   7.913   0.560  0.7949 -0.1189  0.4557
  924MOL0     C24640  -0.916   7.866   0.479  0.6146  0.4067  0.9466
  924MOL0     O24641  -1.028   7.946   0.477  0.3873 -0.1422  0.2919
  924MOL0     C24642  -1.159   7.884   0.508 -0.1553  1.1326 -0.6413
  924MOL0     C24643  -1.265   7.989   0.513 -0.4953  0.2208 -0.4348
  924MOL0     C24644  -1.290   8.063   0.378 -0.3452 -0.2739 -0.5076
  924MOL0     C24645  -1.436   8.084   0.328 -0.3890  0.2382 -0.0178
  924MOL0     C24646  -1.508   7.955   0.325  0.2926  0.0098 -0.3799
  924MOL0     C24647  -1.651   7.980   0.265  0.0608  0.4908 -0.0177
  924MOL0     C24648  -1.713   7.843   0.235  0.3458 -0.2407 -0.3353
  924MOL0     C24649  -1.843   7.846   0.159 -0.2874  0.1617  0.1988
  924MOL0    Cl24650  -1.892   7.670   0.139 -0.3062  0.2595 -0.5149
  924MOL0     C24651  -0.901   7.754   0.396 -0.2464  0.3175 -0.0936
  924MOL0     C24652  -0.782   7.675   0.402 -0.9068  0.5787  0.2636
  924MOL0     O24653  -0.480   7.693   0.317 -0.6866 -0.2274  0.0023
  924MOL0     C24654  -0.297   7.612   0.586 -0.4186 -0.8310 -0.3749
  924MOL0     C24655  -0.171   7.574   0.632  0.3874  0.8200  0.5040
  924MOL0     N24656   0.008   7.349   1.197  0.3660  0.7836 -0.0424
  924MOL0     N24657  -0.000   7.438   1.283  0.2322 -0.2973  0.2185
  924MOL0     C24658   0.584   7.377   2.401 -0.0574 -0.0060  0.4413
  924MOL0     C24659   0.665   7.317   2.498 -0.1934 -0.5176 -1.0124
  924MOL0     C24660   1.045   7.289   2.738  0.2052 -0.2757  0.8014
  924MOL0     C24661   1.182   7.313   2.732 -0.0579  0.0957 -0.0495
  924MOL0     C24662   1.265   7.277   2.841  0.0182  0.1852  0.5978
  924MOL0     C24663   1.212   7.242   2.965  0.0164 -0.2168 -0.3603
  924MOL0     O24664   1.298   7.227   3.067 -0.8595 -0.1597 -0.0668
  924MOL0     C24665   1.276   7.123   3.168 -0.1642 -0.0042  0.1982
  924MOL0     C24666   1.384   7.027   3.160  0.2193  0.1686  0.6172
  924MOL0     C24667   1.517   7.075   3.208  0.0197  0.4943  0.3581
  924MOL0     C24668   1.604   6.964   3.265 -0.1871 -0.3558 -0.1663
  924MOL0     C24669   1.701   7.033   3.350 -0.1714 -0.1050 -0.1464
  924MOL0     C24670   1.781   7.093   3.413 -0.5296 -0.0412 -0.4462
  924MOL0     C24671   1.069   7.228   2.969 -0.0782 -0.2390  0.4585
  924MOL0     C24672   0.990   7.247   2.860  0.4565 -0.1098  0.1034
  924MOL0     H24673   0.926   7.216   2.307  2.3154  2.3125  2.2532
  924MOL0     H24674   0.773   7.304   2.119  3.9623  0.4265  0.1053
  924MOL0     H24675   0.563   7.302   1.995 -1.2463  2.4776 -2.2281
  924MOL0     H24676   0.456   7.215   2.117 -0.7885  0.0151 -0.3866
  924MOL0     H24677   0.318   7.254   1.944 -3.4260  1.9585  0.1950
  924MOL0     H24678   0.278   7.365   2.083  0.8643  1.8727  0.6800
  924MOL0     H24679   0.370   7.559   1.971 -1.9518  0.7563  0.7536
  924MOL0     H24680   0.455   7.470   1.861  0.7283 -2.6171  2.3908
  924MOL0     H24681   0.223   7.345   1.778  0.5033 -0.7175  0.8087
  924MOL0     H24682   0.148   7.473   1.876  3.4715  5.1911  2.7980
  924MOL0     H24683   0.233   7.656   1.729 -1.8067 -0.1151 -0.9028
  924MOL0     H24684   0.355   7.550   1.664 -1.5819 -2.8137 -4.5596
  924MOL0     H24685   0.177   7.410   1.541  0.2468 -0.3973  2.0321
  924MOL0     H24686   0.060   7.542   1.599 -0.2454  1.3254 -1.7386
  924MOL0     H24687   0.227   7.716   1.496 -1.3159  0.3724 -0.1748
  924MOL0     H24688   0.304   7.583   1.417 -0.5460 -0.9649  1.1926
  924MOL0     H24689   0.136   7.741   1.309 -0.4776  1.5726  2.6373
  924MOL0     H24690   0.001   7.661   1.398 -1.2041 -2.2079 -1.1023
  924MOL0     H24691   0.261   7.551   1.123 -0.7664  0.4793 -0.8794
  924MOL0     H24692   0.270   7.294   0.981  0.1583 -2.8286 -0.8869
  924MOL0     H24693   0.138   7.195   1.020 -0.3389 -0.1047 -1.7186
  924MOL0     H24694   0.084   7.448   0.854  2.3806  0.9567  2.7555
  924MOL0     H24695  -0.034   7.337   0.918  1.8671  0.1667  3.6385
  924MOL0     H24696   0.101   7.155   0.784  1.4317  0.5358  2.9586
  924MOL0     H24697   0.205   7.281   0.719  0.2399 -3.1810 -2.3756
  924MOL0     H24698  -0.103   7.274   0.665 -0.3194 -2.0636  0.4131
  924MOL0     H24699   0.035   7.233   0.555 -1.9517 -0.9051  0.1749
  924MOL0     H24700  -0.086   7.386   0.364  2.2673 -0.2620  1.6792
  924MOL0     H24701  -0.311   7.323   0.256 -0.5849 -0.3901 -1.1820
  924MOL0     H24702  -0.405   7.472   0.200 -2.0021  0.6285  2.1255
  924MOL0     H24703  -0.233   7.449   0.169  1.0166 -2.7493  1.5426
  924MOL0     H24704  -0.637   7.856   0.651 -0.5046  2.2673 -1.0669
  924MOL0     H24705  -0.829   8.005   0.617  2.4668  1.2282 -1.2105
  924MOL0     H24706  -1.183   7.807   0.435  0.0829  0.5409 -0.1040
  924MOL0     H24707  -1.156   7.840   0.608  0.1675  0.4953 -0.9284
  924MOL0     H24708  -1.353   7.929   0.540  0.3088 -0.8189 -0.0569
  924MOL0     H24709  -1.244   8.059   0.594  2.5463 -0.7554 -0.2678
  924MOL0     H24710  -1.238   7.999   0.305 -2.1911 -2.5640  0.0756
  924MOL0     H24711  -1.231   8.154   0.366 -2.3637  1.1263 -0.1939
  924MOL0     H24712  -1.481   8.152   0.402 -0.0837 -0.4401  0.7998
  924MOL0     H24713  -1.440   8.132   0.230  1.6605 -0.6964 -0.5994
  924MOL0     H24714  -1.509   7.909   0.424 -0.0174  1.3497  0.2689
  924MOL0     H24715  -1.451   7.889   0.260  0.7238 -0.3457  0.3429
  924MOL0     H24716  -1.703   8.043   0.338  1.1302  2.4597 -0.8660
  924MOL0     H24717  -1.648   8.035   0.170  0.4685  2.7873  1.2557
  924MOL0     H24718  -1.728   7.796   0.333 -0.1398  0.2495 -0.1679
  924MOL0     H24719  -1.638   7.787   0.178  1.3980 -1.0591  1.7532
  924MOL0     H24720  -1.827   7.901   0.066  0.2424  0.4525  0.4538
  924MOL0     H24721  -1.925   7.887   0.219  0.6718  0.1757  1.5696
  924MOL0     H24722  -0.973   7.715   0.324  0.3379  0.8824 -1.0168
  924MOL0     H24723  -0.759   7.602   0.325  1.2441  1.4807 -0.0212
  924MOL0     H24724  -0.351   7.676   0.655 -0.6721 -0.7077 -0.6873
  924MOL0     H24725  -0.133   7.620   0.722 -1.4080  0.0962  1.6812
  924MOL0     H24726   0.489   7.415   2.438  1.3499  3.5085  0.8749
  924MOL0     H24727   0.629   7.324   2.600 -1.3557 -1.1981 -1.3464
  924MOL0     H24728   1.233   7.356   2.647 -0.7141 -1.7335 -1.4377
  924MOL0     H24729   1.372   7.294   2.831  0.0022  0.8538  1.4407
  924MOL0     H24730   1.267   7.167   3.268  1.9267 -1.5791  1.1737
  924MOL0     H24731   1.186   7.063   3.151  0.0493 -0.2433 -0.1145
  924MOL0     H24732   1.395   6.994   3.056 -1.6364 -0.3552  0.5586
  924MOL0     H24733   1.349   6.940   3.216 -1.2341 -0.1853 -0.7812
  924MOL0     H24734   1.487   7.155   3.276 -3.1001 -0.5563  0.3630
  924MOL0     H24735   1.562   7.123   3.120 -0.8352  3.1734  1.2946
  924MOL0     H24736   1.658   6.909   3.188  1.1309  1.1067 -0.3377
  924MOL0     H24737   1.534   6.904   3.325 -1.5058  1.5973  0.3595
  924MOL0     H24738   1.854   7.154   3.461 -1.2373  0.9804 -0.6246
  924MOL0     H24739   1.024   7.204   3.065 -0.1477 -2.6109 -0.1117
  924MOL0     H24740   0.885   7.248   2.888  0.6466  1.2612  0.8805
  925MOL0     O24741   6.979  11.278   3.939  0.0804 -0.6409  0.0786
  925MOL0     C24742   7.083  11.261   3.871  0.6303 -0.1733 -0.2068
  925MOL0     O24743   7.100  11.236   3.741 -0.1711 -0.2527  0.7239
  925MOL0     C24744   6.995  11.246   3.662 -0.4135 -0.6205  0.5250
  925MOL0     C24745   6.885  11.154   3.663 -0.5247 -0.3760  0.0200
  925MOL0     C24746   6.778  11.172   3.576  0.2412 -0.3388  0.1479
  925MOL0     C24747   6.775  11.278   3.487  0.6476 -0.7499 -0.1908
  925MOL0     O24748   6.670  11.284   3.397 -0.7956 -0.3842 -0.2135
  925MOL0     C24749   6.536  11.314   3.433 -0.0846  0.6672 -0.4479
  925MOL0     C24750   6.484  11.426   3.342  0.4707  1.0940 -0.3246
  925MOL0     C24751   6.327  11.451   3.367 -0.0263  0.0876  1.1141
  925MOL0     C24752   6.252  11.367   3.261  0.0999 -0.0054  0.8419
  925MOL0     C24753   6.100  11.357   3.286  0.5491 -0.3738  0.3777
  925MOL0     C24754   6.036  11.293   3.162  0.0590 -0.4780 -0.4987
  925MOL0     C24755   5.892  11.238   3.199 -0.5078 -0.1675  0.5586
  925MOL0     C24756   5.805  11.215   3.072 -0.2191  0.0317  0.5740
  925MOL0     N24757   5.818  11.076   3.023 -0.0612  0.5620  0.0275
  925MOL0     C24758   5.919  11.030   2.952  0.1160  0.2798  0.4317
  925MOL0     C24759   5.871  10.896   2.925  0.4649  0.2452 -0.2153
  925MOL0     C24760   5.928  10.796   2.834 -0.7077 -0.6003  1.0007
  925MOL0     C24761   5.834  10.774   2.713  0.7444  0.4254 -0.5192
  925MOL0     C24762   5.848  10.890   2.606 -0.1263 -0.6788  0.4899
  925MOL0     C24763   5.782  10.841   2.476  0.8311 -0.0024  0.5664
  925MOL0     O24764   5.640  10.812   2.491  0.0124  0.1762  0.3393
  925MOL0     C24765   5.565  10.792   2.376 -0.6770  0.3786 -0.3456
  925MOL0     C24766   5.422  10.787   2.386 -0.1263 -0.2460  0.2905
  925MOL0     C24767   5.334  10.782   2.281 -0.3800  0.2524  0.5109
  925MOL0     C24768   5.188  10.781   2.306 -0.9986  0.5554  0.3356
  925MOL0     C24769   5.394  10.765   2.148  0.7794  0.0085  0.0298
  925MOL0     C24770   5.308  10.749   2.025 -0.3136  0.9003  0.5301
  925MOL0     O24771   5.376  10.716   1.908  0.0602  0.0231 -0.0907
  925MOL0     C24772   5.321  10.748   1.790 -0.2397 -0.5894 -0.4506
  925MOL0     C24773   5.214  10.676   1.736  0.2518  0.0045  0.5059
  925MOL0     C24774   5.155  10.700   1.614 -0.9997  0.2589  1.0342
  925MOL0     C24775   5.219  10.799   1.533  1.0361 -0.5561  0.3249
  925MOL0     O24776   5.169  10.830   1.413 -0.3558 -0.6483  0.2950
  925MOL0     C24777   5.185  10.738   1.308  0.2325 -0.3019  0.8040
  925MOL0     C24778   5.115  10.797   1.186  0.1587  0.0996  0.0761
  925MOL0     C24779   5.155  10.739   1.052  0.6386 -0.2486 -0.5395
  925MOL0     C24780   5.136  10.587   1.045 -0.0135  0.5051 -0.0977
  925MOL0     C24781   5.151  10.545   0.897 -0.0133 -0.0147 -0.4891
  925MOL0     C24782   5.189  10.402   0.879  0.5247 -0.1299  0.7035
  925MOL0     C24783   5.212  10.375   0.723  0.4028 -0.6736 -0.0911
  925MOL0     C24784   5.288  10.246   0.704  0.0397  0.5022 -0.8799
  925MOL0    Cl24785   5.215  10.151   0.562 -0.1492  0.0044 -0.0914
  925MOL0     C24786   5.321  10.872   1.588 -0.0303  0.2636  0.1987
  925MOL0     C24787   5.373  10.852   1.716 -0.2042 -0.3312  0.5194
  925MOL0     O24788   5.187  10.748   2.028  0.6232 -1.1646 -1.0661
  925MOL0     C24789   5.532  10.763   2.142 -0.5508  0.2308  1.5111
  925MOL0     C24790   5.615  10.789   2.249 -0.3805  0.1480 -0.1810
  925MOL0     N24791   5.749  10.870   2.994  0.6943 -0.1684  0.1217
  925MOL0     N24792   5.726  10.975   3.060  0.4836 -0.2742 -0.0970
  925MOL0     C24793   6.886  11.368   3.484 -0.5543 -0.3556  0.2087
  925MOL0     C24794   6.997  11.352   3.560 -0.1721  1.2665  0.2686
  925MOL0     C24795   7.219  11.297   3.938  0.0075 -0.3696 -0.5423
  925MOL0     C24796   7.225  11.344   4.070 -0.0379  0.3802 -0.0076
  925MOL0     C24797   7.344  11.376   4.136  0.3199 -0.6967 -0.4901
  925MOL0     C24798   7.463  11.380   4.057 -0.4595  0.4217  0.4211
  925MOL0     O24799   7.574  11.435   4.119 -0.3603  0.4712 -0.0390
  925MOL0     C24800   7.700  11.438   4.052 -0.1941 -0.0143 -0.0537
  925MOL0     C24801   7.779  11.315   4.073  0.2074  0.8753  0.2411
  925MOL0     C24802   7.923  11.337   4.024  0.1006  0.8977  1.2263
  925MOL0     C24803   7.950  11.322   3.873  0.4465 -0.7140 -0.2327
  925MOL0     C24804   8.091  11.330   3.846 -0.4158  0.7141 -0.1116
  925MOL0     C24805   8.204  11.348   3.827 -0.2274  0.6113  0.5842
  925MOL0     C24806   7.457  11.342   3.922 -0.2595  0.0225  0.1839
  925MOL0     C24807   7.336  11.293   3.873 -0.5745  0.2494 -0.4055
  925MOL0     H24808   6.882  11.074   3.736 -1.0341 -0.1361  0.2675
  925MOL0     H24809   6.695  11.104   3.594  0.0975 -0.5000 -1.0430
  925MOL0     H24810   6.479  11.225   3.404  0.1319  1.5129 -3.8342
  925MOL0     H24811   6.515  11.337   3.538  3.8844  3.4768 -0.0453
  925MOL0     H24812   6.551  11.509   3.367  1.9468 -0.3307  0.5802
  925MOL0     H24813   6.504  11.401   3.237  1.1045 -0.0300  0.0578
  925MOL0     H24814   6.300  11.421   3.469  1.4408  0.1912  1.5533
  925MOL0     H24815   6.306  11.556   3.343  3.2027  0.3440 -1.3423
  925MOL0     H24816   6.282  11.417   3.168  2.0068 -0.2751  1.2526
  925MOL0     H24817   6.281  11.261   3.258 -4.1281 -1.3311  0.1569
  925MOL0     H24818   6.085  11.299   3.378  0.6833 -1.4500 -0.2648
  925MOL0     H24819   6.058  11.456   3.307 -1.4946 -1.1348  0.0725
  925MOL0     H24820   6.024  11.368   3.084  0.7878  1.4161  1.1409
  925MOL0     H24821   6.092  11.207   3.121 -1.3241 -1.8574  0.3936
  925MOL0     H24822   5.899  11.147   3.259  1.1870  0.8201  1.9716
  925MOL0     H24823   5.853  11.321   3.258  0.2267  0.6520 -0.0801
  925MOL0     H24824   5.827  11.277   2.985  0.8728  0.6851  1.2973
  925MOL0     H24825   5.701  11.223   3.106 -0.0872  1.6430  0.6524
  925MOL0     H24826   6.003  11.092   2.919 -0.0601  1.5787  2.2436
  925MOL0     H24827   6.029  10.822   2.801 -0.4927 -0.4646  1.7345
  925MOL0     H24828   5.938  10.701   2.887  3.1861 -2.7477 -2.9162
  925MOL0     H24829   5.736  10.770   2.760  1.6268 -0.1323  1.3645
  925MOL0     H24830   5.843  10.682   2.654  0.4770  1.3011 -1.9895
  925MOL0     H24831   5.954  10.914   2.590  0.1621 -1.6529  0.8717
  925MOL0     H24832   5.793  10.979   2.636 -2.7124 -1.4195 -1.6695
  925MOL0     H24833   5.839  10.751   2.448 -0.7700 -0.8462 -0.1046
  925MOL0     H24834   5.792  10.914   2.395  0.1042 -2.1719 -1.6383
  925MOL0     H24835   5.382  10.789   2.487  2.4031 -2.2612  1.4289
  925MOL0     H24836   5.181  10.789   2.415  0.3602  0.9049  0.4071
  925MOL0     H24837   5.137  10.865   2.258  1.3818  0.8948 -1.8023
  925MOL0     H24838   5.133  10.697   2.263  0.6416 -0.2695 -0.1934
  925MOL0     H24839   5.166  10.605   1.803 -2.4320  2.1812  1.0555
  925MOL0     H24840   5.069  10.646   1.576 -0.0006 -0.3376 -0.5415
  925MOL0     H24841   5.288  10.706   1.294 -1.0390 -3.9648 -1.9878
  925MOL0     H24842   5.127  10.647   1.329  0.0201 -0.2915  0.2753
  925MOL0     H24843   5.006  10.783   1.192 -0.1309  2.3570  0.9516
  925MOL0     H24844   5.142  10.902   1.172  0.2862  0.0382 -0.1491
  925MOL0     H24845   5.259  10.761   1.024  0.4908  1.0114 -0.1605
  925MOL0     H24846   5.097  10.779   0.969 -2.4032  1.0096  2.0042
  925MOL0     H24847   5.210  10.532   1.104  2.2352  1.8640 -1.5171
  925MOL0     H24848   5.032  10.564   1.070 -1.0946  1.7645 -3.0032
  925MOL0     H24849   5.232  10.600   0.849 -2.4516  2.7349 -1.7290
  925MOL0     H24850   5.061  10.557   0.835 -0.4702 -1.6669 -0.2103
  925MOL0     H24851   5.276  10.391   0.945 -0.8011  0.2598  2.5639
  925MOL0     H24852   5.116  10.332   0.920  0.3216 -0.4420 -0.1661
  925MOL0     H24853   5.258  10.455   0.664  1.0779 -1.2739 -0.3889
  925MOL0     H24854   5.112  10.355   0.685  0.1997 -2.3859  1.2033
  925MOL0     H24855   5.292  10.185   0.795  3.3851  3.3411  1.1238
  925MOL0     H24856   5.393  10.270   0.687  0.0012 -0.8791 -3.6542
  925MOL0     H24857   5.373  10.941   1.523 -0.2961 -0.0508 -0.3538
  925MOL0     H24858   5.455  10.920   1.739  0.3691  0.3971 -3.0128
  925MOL0     H24859   5.582  10.748   2.047 -0.0175  1.5257  1.5651
  925MOL0     H24860   5.718  10.796   2.217 -0.3319 -1.7019 -0.5240
  925MOL0     H24861   6.891  11.438   3.402  1.5384 -1.1047 -0.3608
  925MOL0     H24862   7.073  11.427   3.539 -0.3321  1.4471  0.3318
  925MOL0     H24863   7.134  11.337   4.130  0.4807 -4.9704  0.6145
  925MOL0     H24864   7.355  11.405   4.241  0.5800  0.0926 -0.7241
  925MOL0     H24865   7.687  11.458   3.946 -0.8928 -0.4927 -0.0617
  925MOL0     H24866   7.759  11.525   4.085  0.5030  0.3634 -2.1898
  925MOL0     H24867   7.727  11.224   4.041  0.9679  0.3278  0.5324
  925MOL0     H24868   7.779  11.292   4.180  0.7293  0.4570  0.1553
  925MOL0     H24869   7.976  11.248   4.060 -0.5768 -0.0844 -0.1121
  925MOL0     H24870   7.974  11.422   4.069 -1.2883  2.8628 -0.6752
  925MOL0     H24871   7.904  11.399   3.810  2.2773  1.2967  0.7491
  925MOL0     H24872   7.909  11.231   3.828  0.6367 -1.0533  0.2624
  925MOL0     H24873   8.306  11.381   3.819 -0.8068  2.9077  1.6775
  925MOL0     H24874   7.543  11.340   3.856 -0.1877  1.2196  0.2168
  925MOL0     H24875   7.328  11.248   3.774 -4.4197  0.2016 -0.2115
  926MOL0     O24876   3.954   5.239   6.006 -0.0187  0.3632 -0.2382
  926MOL0     C24877   3.886   5.246   6.112 -0.6281  0.3348  0.2974
  926MOL0     O24878   3.935   5.296   6.228  0.7019  0.0744  0.5634
  926MOL0     C24879   4.065   5.339   6.237 -0.4154 -1.0136 -0.2884
  926MOL0     C24880   4.140   5.421   6.146  0.4834 -0.2815 -0.6096
  926MOL0     C24881   4.271   5.456   6.172 -0.1181 -1.3346  0.2067
  926MOL0     C24882   4.328   5.413   6.295  0.0970 -0.8965  0.8186
  926MOL0     O24883   4.459   5.441   6.324  0.3158 -0.1968  0.0636
  926MOL0     C24884   4.539   5.525   6.237 -0.6753  0.2448  0.2213
  926MOL0     C24885   4.683   5.545   6.278  0.0260  0.0670 -0.4433
  926MOL0     C24886   4.778   5.598   6.174  0.4639 -0.4106 -0.9590
  926MOL0     C24887   4.835   5.484   6.082  0.7920  0.0487 -0.6467
  926MOL0     C24888   4.914   5.551   5.973  0.7130  0.1818  0.2274
  926MOL0     C24889   4.962   5.446   5.868 -0.1196 -0.0525 -0.8018
  926MOL0     C24890   5.100   5.374   5.908  0.0338 -0.6858  0.4031
  926MOL0     C24891   5.151   5.293   5.792 -1.2148 -0.6358 -0.1772
  926MOL0     N24892   5.201   5.375   5.676 -0.5905 -0.4770  0.5086
  926MOL0     C24893   5.324   5.418   5.659  0.0401 -0.0159 -0.2385
  926MOL0     C24894   5.327   5.482   5.545 -0.2337 -0.1807  0.0707
  926MOL0     C24895   5.438   5.562   5.490 -0.0289 -0.3887 -0.1566
  926MOL0     C24896   5.519   5.490   5.384  0.6623 -0.3553 -0.4316
  926MOL0     C24897   5.441   5.450   5.262 -0.1724 -0.1258 -0.1939
  926MOL0     C24898   5.429   5.561   5.153 -0.3272  0.2283 -0.9862
  926MOL0     O24899   5.361   5.513   5.037  0.5934  0.3701 -0.4623
  926MOL0     C24900   5.227   5.481   5.040  0.1703 -0.3721 -0.2928
  926MOL0     C24901   5.131   5.502   5.139 -0.1489 -0.3580 -0.1470
  926MOL0     C24902   4.991   5.476   5.114  1.0566 -0.3457 -0.2156
  926MOL0     C24903   4.893   5.529   5.218 -0.2716 -0.2342 -0.1112
  926MOL0     C24904   4.947   5.430   4.990  0.2443  0.8544  0.4820
  926MOL0     C24905   4.808   5.422   4.942 -0.9981  0.8674  0.4409
  926MOL0     O24906   4.770   5.307   4.873  0.5524 -0.3729 -0.4851
  926MOL0     C24907   4.642   5.268   4.844 -0.1748 -0.0121  0.8741
  926MOL0     C24908   4.643   5.149   4.769  0.1067 -0.7222  0.3134
  926MOL0     C24909   4.525   5.082   4.733  0.5015  0.3167 -1.4897
  926MOL0     C24910   4.403   5.133   4.793 -0.8775  1.0330 -0.1874
  926MOL0     O24911   4.282   5.073   4.775  0.4262 -0.0066  0.1407
  926MOL0     C24912   4.265   4.998   4.648  0.2519  0.1211 -0.2322
  926MOL0     C24913   4.108   4.989   4.633  0.4426  0.1011 -0.1120
  926MOL0     C24914   4.064   5.132   4.589 -0.1792  1.7821  0.4084
  926MOL0     C24915   3.914   5.140   4.572 -0.1579  0.1521 -0.6161
  926MOL0     C24916   3.853   5.273   4.560 -0.8999  0.0782 -0.3148
  926MOL0     C24917   3.935   5.357   4.465 -0.2204 -0.4993  0.3560
  926MOL0     C24918   3.846   5.475   4.434 -0.6091 -0.3075  1.1699
  926MOL0     C24919   3.933   5.583   4.360  0.0593 -1.0058 -0.6806
  926MOL0    Cl24920   3.992   5.541   4.204  0.4914 -0.0895  0.6213
  926MOL0     C24921   4.403   5.247   4.886  0.1968  0.8455  0.2644
  926MOL0     C24922   4.521   5.309   4.903  0.3845  0.3964 -0.0387
  926MOL0     O24923   4.743   5.522   4.968 -0.2059 -0.0979  0.8140
  926MOL0     C24924   5.043   5.404   4.891  0.5165  0.1243  0.1898
  926MOL0     C24925   5.178   5.433   4.917 -0.1962  0.1908 -0.7104
  926MOL0     N24926   5.202   5.467   5.490 -0.1976 -0.4126 -0.0723
  926MOL0     N24927   5.131   5.395   5.565  0.3640  0.7636  0.1851
  926MOL0     C24928   4.257   5.340   6.386  0.1138 -0.1916 -0.0317
  926MOL0     C24929   4.130   5.300   6.358  0.8110  0.8666  0.0586
  926MOL0     C24930   3.754   5.180   6.117 -0.9567  0.7191  0.3333
  926MOL0     C24931   3.675   5.173   6.006  0.4528 -0.7034 -0.0511
  926MOL0     C24932   3.544   5.132   6.006  0.0876  0.4431  0.4959
  926MOL0     C24933   3.496   5.074   6.129  0.0762 -0.1482  0.5874
  926MOL0     O24934   3.367   5.025   6.142 -0.0661 -0.0830 -0.4165
  926MOL0     C24935   3.337   4.936   6.034 -0.0163 -0.4998  0.0763
  926MOL0     C24936   3.205   4.870   6.055 -0.1370  0.0739 -0.9516
  926MOL0     C24937   3.214   4.754   6.156  0.5335 -0.8136 -0.6633
  926MOL0     C24938   3.288   4.629   6.105  0.2444 -0.0007  0.1024
  926MOL0     C24939   3.225   4.554   5.998  0.1801 -0.4104 -0.7994
  926MOL0     C24940   3.177   4.493   5.903  0.3327 -0.8311 -0.2924
  926MOL0     C24941   3.577   5.069   6.237 -0.7236  0.0826 -0.0843
  926MOL0     C24942   3.711   5.125   6.237  0.7961 -0.0141 -0.4065
  926MOL0     H24943   4.088   5.448   6.054 -0.9074  1.0373  0.5184
  926MOL0     H24944   4.317   5.511   6.090 -1.3939  0.1701  0.4356
  926MOL0     H24945   4.546   5.478   6.138 -0.3369 -0.9314  0.7978
  926MOL0     H24946   4.495   5.623   6.218 -0.5321 -0.3511 -4.3717
  926MOL0     H24947   4.682   5.616   6.362 -0.5796  0.8363 -1.0846
  926MOL0     H24948   4.720   5.449   6.316 -2.2241  0.0533  2.0729
  926MOL0     H24949   4.726   5.677   6.119  0.2180 -0.4760 -0.8215
  926MOL0     H24950   4.858   5.648   6.229 -0.2122  1.0953 -1.3021
  926MOL0     H24951   4.901   5.420   6.143  1.4959 -2.4100 -3.7056
  926MOL0     H24952   4.757   5.421   6.038  1.2214 -1.8319  1.0806
  926MOL0     H24953   4.851   5.627   5.926 -0.3850  0.5734  2.2279
  926MOL0     H24954   4.994   5.606   6.024  2.0415 -1.7012  0.2893
  926MOL0     H24955   4.890   5.364   5.877 -0.4564  0.4943  3.3176
  926MOL0     H24956   4.961   5.499   5.773 -2.1922  0.4274 -0.5441
  926MOL0     H24957   5.166   5.454   5.941 -0.7991 -0.2835  1.1414
  926MOL0     H24958   5.100   5.310   5.997  0.8208  0.5506  1.3139
  926MOL0     H24959   5.079   5.217   5.759  0.1472 -3.3270  2.5610
  926MOL0     H24960   5.234   5.237   5.835 -1.2700  1.4433  2.9278
  926MOL0     H24961   5.395   5.399   5.738 -0.0002 -2.9597 -0.8202
  926MOL0     H24962   5.396   5.654   5.449 -0.9470 -0.3120  0.8980
  926MOL0     H24963   5.499   5.595   5.574  0.3417  1.3369 -1.0761
  926MOL0     H24964   5.560   5.407   5.442  0.6001  0.7366  1.2587
  926MOL0     H24965   5.592   5.564   5.350  1.0060 -1.1118 -1.3733
  926MOL0     H24966   5.346   5.401   5.281 -1.0786  0.5852 -2.5117
  926MOL0     H24967   5.501   5.373   5.213  1.0092  1.1658 -0.8486
  926MOL0     H24968   5.529   5.605   5.146 -0.4849  1.1360  1.4714
  926MOL0     H24969   5.368   5.643   5.190 -0.6201 -1.2124  2.0686
  926MOL0     H24970   5.164   5.565   5.222 -2.3239  1.6209 -0.6820
  926MOL0     H24971   4.851   5.628   5.198 -1.0737 -0.4387  0.4858
  926MOL0     H24972   4.814   5.458   5.245  0.7096 -0.1276  3.5018
  926MOL0     H24973   4.941   5.544   5.315 -0.7417  2.9294 -0.2797
  926MOL0     H24974   4.740   5.115   4.732  1.7965  2.1928  1.6917
  926MOL0     H24975   4.526   4.985   4.684 -0.9902 -1.0315  0.9374
  926MOL0     H24976   4.318   5.042   4.563 -0.6857  1.5926 -0.0824
  926MOL0     H24977   4.296   4.893   4.660 -2.2139 -0.5534  0.7307
  926MOL0     H24978   4.092   4.915   4.554  2.9309  0.8675 -1.4376
  926MOL0     H24979   4.048   4.964   4.721 -1.5230  0.2435 -1.3523
  926MOL0     H24980   4.113   5.157   4.494  4.0919  1.9058  2.4022
  926MOL0     H24981   4.106   5.209   4.655 -0.7198  2.4675 -0.0385
  926MOL0     H24982   3.882   5.082   4.485 -1.8143 -1.5132  0.9952
  926MOL0     H24983   3.866   5.092   4.658  0.5236  1.3948  0.4971
  926MOL0     H24984   3.846   5.321   4.658 -0.1793 -0.3277 -0.0528
  926MOL0     H24985   3.754   5.260   4.516 -1.0646 -0.1490  0.1160
  926MOL0     H24986   4.028   5.382   4.517 -1.0995  0.3882  1.5450
  926MOL0     H24987   3.957   5.307   4.369 -0.8936  0.7245 -0.4626
  926MOL0     H24988   3.817   5.527   4.525  0.2197 -0.2531  1.4114
  926MOL0     H24989   3.765   5.442   4.369 -0.0498  0.4350  0.0526
  926MOL0     H24990   4.004   5.637   4.423  0.9964  0.7010 -3.0450
  926MOL0     H24991   3.861   5.659   4.326 -0.2632 -0.7352  0.5773
  926MOL0     H24992   4.318   5.273   4.948  0.4861 -1.1383  1.5890
  926MOL0     H24993   4.512   5.401   4.959  1.9929  2.4030 -2.7916
  926MOL0     H24994   5.018   5.370   4.792 -1.6752 -0.7993  1.0081
  926MOL0     H24995   5.252   5.433   4.838  0.3929  2.2073 -0.2360
  926MOL0     H24996   4.304   5.304   6.477 -1.7072 -1.6350  0.3940
  926MOL0     H24997   4.074   5.240   6.430  0.1174  1.7072  0.2385
  926MOL0     H24998   3.723   5.217   5.919  2.3928 -0.7938  0.9447
  926MOL0     H24999   3.477   5.171   5.930  1.7424  3.2072  0.3229
  926MOL0     H25000   3.329   4.984   5.936  1.3029 -0.8775 -0.2358
  926MOL0     H25001   3.420   4.865   6.030 -1.9823 -3.0129  1.1572
  926MOL0     H25002   3.173   4.827   5.959 -0.6987  1.4094 -1.3912
  926MOL0     H25003   3.121   4.938   6.073 -2.1332 -2.8774  2.1037
  926MOL0     H25004   3.107   4.732   6.167  0.1379  1.8797  2.0233
  926MOL0     H25005   3.249   4.782   6.255 -2.0316 -0.4430  0.2005
  926MOL0     H25006   3.288   4.548   6.179  1.5435 -1.8154 -1.7707
  926MOL0     H25007   3.391   4.651   6.077 -0.6218  0.5661 -3.0531
  926MOL0     H25008   3.133   4.454   5.814  1.7617  1.0138 -1.8870
  926MOL0     H25009   3.538   5.013   6.321  2.0093 -4.3933 -1.4746
  926MOL0     H25010   3.778   5.123   6.323  2.4116  0.8418 -1.5814
  927MOL0     O25011   7.535   0.785   6.018  0.0884  0.5732 -0.3341
  927MOL0     C25012   7.590   0.841   5.920 -0.0457  0.8288 -0.2728
  927MOL0     O25013   7.527   0.895   5.810 -0.3222  0.3929  0.3529
  927MOL0     C25014   7.391   0.876   5.803  0.1840  0.5523 -0.3412
  927MOL0     C25015   7.299   0.897   5.909 -0.7176 -0.2149 -1.2618
  927MOL0     C25016   7.158   0.876   5.895 -0.9352 -0.1713 -0.5615
  927MOL0     C25017   7.107   0.818   5.777  0.0098  0.3371 -0.5026
  927MOL0     O25018   6.976   0.787   5.751 -0.4884 -0.1388 -0.8982
  927MOL0     C25019   6.881   0.791   5.859  1.2890 -0.9739  0.0635
  927MOL0     C25020   6.741   0.721   5.832  0.1600  0.0272  0.0853
  927MOL0     C25021   6.656   0.713   5.960 -0.1410 -0.4265 -1.0377
  927MOL0     C25022   6.509   0.703   5.923  0.0901  0.6306  0.0700
  927MOL0     C25023   6.413   0.717   6.045  0.8599 -0.0341  0.2059
  927MOL0     C25024   6.428   0.843   6.129  0.3016  0.1925  0.1749
  927MOL0     C25025   6.344   0.847   6.254 -0.2705  0.1117  0.9232
  927MOL0     C25026   6.196   0.889   6.232  0.3403 -0.4283 -0.2483
  927MOL0     N25027   6.170   1.035   6.195 -0.6537 -0.3545  0.5502
  927MOL0     C25028   6.099   1.125   6.273 -0.7581 -0.0711 -0.3412
  927MOL0     C25029   6.130   1.246   6.216 -0.1478 -0.6959 -0.2908
  927MOL0     C25030   6.083   1.384   6.257 -0.0272  0.0958  0.3249
  927MOL0     C25031   5.979   1.438   6.163  0.1959 -0.5693 -0.5704
  927MOL0     C25032   5.846   1.350   6.164  0.6838 -0.1229 -0.4075
  927MOL0     C25033   5.741   1.408   6.069  1.3475  0.4912 -1.1487
  927MOL0     O25034   5.608   1.417   6.133 -0.0312 -0.1277 -0.0303
  927MOL0     C25035   5.491   1.404   6.058 -0.2802  0.8784  0.0989
  927MOL0     C25036   5.468   1.355   5.926  0.1822  0.7919 -0.3109
  927MOL0     C25037   5.344   1.362   5.865  0.0252 -0.3680  0.2996
  927MOL0     C25038   5.330   1.303   5.724  0.1021 -0.0388 -0.5077
  927MOL0     C25039   5.229   1.411   5.937 -1.4654 -0.7016 -0.8024
  927MOL0     C25040   5.088   1.424   5.887 -0.4310 -0.1612  0.4924
  927MOL0     O25041   4.989   1.431   5.982  0.4242 -0.9142 -0.0533
  927MOL0     C25042   4.854   1.441   5.942  0.0974 -0.3580  0.0564
  927MOL0     C25043   4.770   1.333   5.907 -0.0033  0.0552 -0.5364
  927MOL0     C25044   4.635   1.359   5.878  0.0578 -0.7807 -0.3963
  927MOL0     C25045   4.582   1.487   5.895 -0.4826 -0.4608  0.3886
  927MOL0     O25046   4.447   1.500   5.882  0.9432  0.7859  0.5849
  927MOL0     C25047   4.383   1.628   5.904  0.2165  1.3625  0.5624
  927MOL0     C25048   4.251   1.620   5.826 -0.4518 -0.2450 -0.0887
  927MOL0     C25049   4.180   1.747   5.823 -0.4072 -0.1010  0.2590
  927MOL0     C25050   4.028   1.729   5.802  0.4046  0.0179 -0.0998
  927MOL0     C25051   3.951   1.861   5.782  0.1280  0.1245 -0.4035
  927MOL0     C25052   3.799   1.845   5.758  0.4087  0.3312 -1.0182
  927MOL0     C25053   3.755   1.737   5.662  1.0423  0.0436 -0.1669
  927MOL0     C25054   3.806   1.760   5.521 -0.4843  0.2780 -0.0753
  927MOL0    Cl25055   3.708   1.896   5.461 -0.3327 -0.0655 -0.0015
  927MOL0     C25056   4.663   1.591   5.930  0.3351 -0.0964  0.3694
  927MOL0     C25057   4.798   1.570   5.956 -0.2230 -0.5553  0.2390
  927MOL0     O25058   5.068   1.412   5.769  0.2296  0.3266 -0.5212
  927MOL0     C25059   5.254   1.459   6.060  0.1465  0.4343 -1.1233
  927MOL0     C25060   5.379   1.448   6.124  0.8828  0.1638 -0.1995
  927MOL0     N25061   6.189   1.217   6.095 -0.9336 -0.6482  0.7164
  927MOL0     N25062   6.213   1.093   6.079 -0.4113  0.0020  0.6552
  927MOL0     C25063   7.198   0.788   5.672 -0.3014  1.0234 -0.0070
  927MOL0     C25064   7.336   0.828   5.683 -0.1685  0.1292  0.1379
  927MOL0     C25065   7.733   0.843   5.913 -0.4697 -0.0739 -0.8904
  927MOL0     C25066   7.802   0.870   5.802  0.3148 -1.0656  0.0315
  927MOL0     C25067   7.943   0.890   5.793 -0.3325 -0.4120  0.2936
  927MOL0     C25068   8.025   0.852   5.899  0.0310 -0.8300  0.3378
  927MOL0     O25069   8.160   0.849   5.880  0.0302 -0.2709  0.4919
  927MOL0     C25070   8.243   0.833   5.994  0.2586  0.7661  0.9629
  927MOL0     C25071   8.391   0.850   5.949  0.0202  0.8370 -0.0329
  927MOL0     C25072   8.482   0.857   6.069  0.7127  0.1854 -0.5412
  927MOL0     C25073   8.625   0.862   6.034 -0.1644 -0.5930  0.3437
  927MOL0     C25074   8.710   0.877   6.152 -1.2172 -0.2411  0.3915
  927MOL0     C25075   8.785   0.884   6.249 -0.6945 -0.7332  0.8616
  927MOL0     C25076   7.959   0.843   6.019  0.4388  0.1491 -0.5874
  927MOL0     C25077   7.820   0.830   6.027  0.8889  0.0478 -0.1578
  927MOL0     H25078   7.334   0.947   5.999 -0.6795 -3.0312  0.4251
  927MOL0     H25079   7.094   0.909   5.976  1.1517 -0.2718  1.2383
  927MOL0     H25080   6.917   0.732   5.943 -0.1222 -0.9205  0.7215
  927MOL0     H25081   6.862   0.896   5.882 -0.2786 -1.3837  0.7401
  927MOL0     H25082   6.685   0.772   5.753  2.4347  2.5786  0.0001
  927MOL0     H25083   6.766   0.620   5.798 -0.1131  0.2298 -0.7373
  927MOL0     H25084   6.694   0.622   6.008  0.7757  1.0959  1.3417
  927MOL0     H25085   6.667   0.802   6.023 -0.8953 -1.3339  0.4376
  927MOL0     H25086   6.483   0.779   5.848  0.5510  1.1438  0.4189
  927MOL0     H25087   6.489   0.612   5.866 -0.3848  0.6733  0.1638
  927MOL0     H25088   6.308   0.701   6.019  1.3484 -1.9025 -0.8365
  927MOL0     H25089   6.428   0.637   6.118  2.5594  0.6690  0.6723
  927MOL0     H25090   6.530   0.846   6.169  0.4056 -1.8705  0.1959
  927MOL0     H25091   6.404   0.933   6.072 -0.8653 -0.8822 -1.1168
  927MOL0     H25092   6.342   0.744   6.292  3.4096 -2.3920 -4.4250
  927MOL0     H25093   6.388   0.913   6.329  0.7169 -0.0835  0.5289
  927MOL0     H25094   6.142   0.873   6.326  2.7588  3.2144  1.9959
  927MOL0     H25095   6.153   0.829   6.151 -1.0355  3.2681 -2.5584
  927MOL0     H25096   6.054   1.121   6.371  1.8633  1.2709  1.0336
  927MOL0     H25097   6.047   1.377   6.360  1.5105  5.2332  1.4949
  927MOL0     H25098   6.181   1.433   6.254  0.7748 -1.4334  0.0840
  927MOL0     H25099   6.015   1.434   6.059 -0.9426 -0.3808 -0.9911
  927MOL0     H25100   5.955   1.542   6.188  2.7727  0.0000 -0.1771
  927MOL0     H25101   5.804   1.355   6.265 -5.3139 -0.8424 -2.4229
  927MOL0     H25102   5.864   1.245   6.138 -0.5386 -0.7581  1.1071
  927MOL0     H25103   5.729   1.334   5.990  0.0399  0.3773 -0.8625
  927MOL0     H25104   5.764   1.509   6.032  0.5243  2.0055  2.0568
  927MOL0     H25105   5.547   1.322   5.860  0.1807  1.3840 -0.6203
  927MOL0     H25106   5.296   1.383   5.657 -2.4827 -1.5836 -1.1579
  927MOL0     H25107   5.428   1.265   5.693  0.2609 -0.4284  0.4304
  927MOL0     H25108   5.252   1.227   5.718 -2.6249  2.3300  1.7454
  927MOL0     H25109   4.821   1.239   5.889  0.6824  0.3889 -0.3349
  927MOL0     H25110   4.574   1.275   5.848  1.0230 -0.8615 -2.3054
  927MOL0     H25111   4.364   1.645   6.010  1.1041 -1.5539  1.2899
  927MOL0     H25112   4.431   1.723   5.879 -1.6708  1.9918 -0.8819
  927MOL0     H25113   4.278   1.602   5.721 -0.2968  0.9583 -0.2668
  927MOL0     H25114   4.192   1.531   5.850  0.1456 -1.4284 -2.6144
  927MOL0     H25115   4.214   1.806   5.738 -0.8848  2.5034  1.7587
  927MOL0     H25116   4.203   1.800   5.916  0.7324 -0.3615  0.1401
  927MOL0     H25117   4.024   1.682   5.703  0.8308  1.9022 -1.0516
  927MOL0     H25118   3.989   1.669   5.885 -0.3877  1.3656  0.5405
  927MOL0     H25119   3.994   1.926   5.705  0.3515  1.2933  0.6759
  927MOL0     H25120   3.951   1.922   5.873  0.2165  0.9902 -0.9701
  927MOL0     H25121   3.757   1.819   5.855 -2.4407 -0.8660 -2.4685
  927MOL0     H25122   3.753   1.937   5.721  1.6108  1.4182  0.1000
  927MOL0     H25123   3.646   1.727   5.665  1.0342  0.1194  2.7550
  927MOL0     H25124   3.787   1.634   5.686 -3.0435 -1.8747 -2.0126
  927MOL0     H25125   3.791   1.671   5.460 -1.7056 -0.4405  1.2241
  927MOL0     H25126   3.915   1.772   5.520 -0.2606 -1.5263 -0.4120
  927MOL0     H25127   4.619   1.685   5.961 -0.0684 -0.3125  0.4613
  927MOL0     H25128   4.855   1.656   5.990  3.5001 -1.8128 -2.2666
  927MOL0     H25129   5.180   1.513   6.118 -2.2767 -0.7926 -2.9254
  927MOL0     H25130   5.391   1.463   6.231  1.9270  2.4025 -0.5659
  927MOL0     H25131   7.157   0.753   5.578 -2.1252  0.3852  0.9631
  927MOL0     H25132   7.393   0.821   5.591 -1.8571  0.7743 -1.0166
  927MOL0     H25133   7.741   0.883   5.713  0.8037 -0.3876 -0.2095
  927MOL0     H25134   7.998   0.915   5.702  1.8534 -0.1590  1.6108
  927MOL0     H25135   8.218   0.899   6.078  3.4084 -0.5615  3.1457
  927MOL0     H25136   8.232   0.732   6.036  1.0092  1.3435  2.6583
  927MOL0     H25137   8.401   0.938   5.885  3.5920 -0.2338 -1.1926
  927MOL0     H25138   8.411   0.759   5.891  1.5044  0.7947  0.5011
  927MOL0     H25139   8.454   0.774   6.134  0.4564 -1.0308 -2.1607
  927MOL0     H25140   8.456   0.954   6.113  0.8943  0.2796 -0.6405
  927MOL0     H25141   8.657   0.941   5.966  1.4314  0.0691  1.7941
  927MOL0     H25142   8.636   0.762   5.991  1.0161  1.3007 -4.3813
  927MOL0     H25143   8.847   0.887   6.337 -0.0132 -0.2301  0.3844
  927MOL0     H25144   8.018   0.816   6.106 -0.9427  0.6523  0.5264
  927MOL0     H25145   7.765   0.814   6.119  0.4356  1.3673 -0.1774
  928MOL0     O25146   1.213   1.280   3.205 -0.1252  0.0275 -0.8399
  928MOL0     C25147   1.195   1.179   3.269 -0.4260 -0.1345  0.5669
  928MOL0     O25148   1.078   1.118   3.310  0.5295 -0.0447  0.3556
  928MOL0     C25149   0.956   1.180   3.294  0.3242  0.2986  0.1311
  928MOL0     C25150   0.861   1.087   3.350 -0.0247  0.1631  0.2340
  928MOL0     C25151   0.728   1.116   3.356  0.3428 -0.2926 -0.7456
  928MOL0     C25152   0.678   1.244   3.314  0.7758  0.1062  0.1007
  928MOL0     O25153   0.543   1.293   3.326 -0.1170  0.0206  0.6667
  928MOL0     C25154   0.467   1.224   3.427  0.2764 -0.2817 -1.0418
  928MOL0     C25155   0.341   1.293   3.487 -0.7308  0.2087 -0.6513
  928MOL0     C25156   0.258   1.325   3.360 -0.0347  0.4564 -0.2081
  928MOL0     C25157   0.160   1.428   3.412  0.1439 -0.2423  0.0967
  928MOL0     C25158   0.069   1.478   3.302  0.6643  0.7464 -0.2689
  928MOL0     C25159  -0.026   1.595   3.347  0.1811  0.3628  0.8593
  928MOL0     C25160  -0.108   1.643   3.224 -0.0069 -0.4793 -0.7248
  928MOL0     C25161  -0.210   1.553   3.175 -0.0716  0.1056 -0.1465
  928MOL0     N25162  -0.297   1.494   3.282  0.0845 -0.7713  0.0974
  928MOL0     C25163  -0.422   1.540   3.312 -0.7003  1.1297  1.2467
  928MOL0     C25164  -0.471   1.450   3.397  0.2504  0.1763  0.0694
  928MOL0     C25165  -0.594   1.448   3.485 -0.8428 -0.0988 -0.3560
  928MOL0     C25166  -0.593   1.566   3.588 -0.2605  0.2205 -0.1559
  928MOL0     C25167  -0.454   1.587   3.641  0.2158 -0.1240  0.1770
  928MOL0     C25168  -0.453   1.674   3.766 -0.1433  0.0259 -0.2577
  928MOL0     O25169  -0.328   1.649   3.836 -0.3213  0.0273 -0.0775
  928MOL0     C25170  -0.208   1.673   3.776  0.4911 -0.0170  0.7018
  928MOL0     C25171  -0.106   1.581   3.801 -0.2101 -0.6624  0.0916
  928MOL0     C25172   0.024   1.601   3.762 -0.0593 -0.7416 -0.5506
  928MOL0     C25173   0.119   1.500   3.812  0.3294 -0.0836 -0.4337
  928MOL0     C25174   0.054   1.722   3.687 -0.6015 -0.4197  0.3406
  928MOL0     C25175   0.189   1.751   3.626 -0.8261 -0.6923  0.3921
  928MOL0     O25176   0.287   1.681   3.668 -0.6559 -0.9608  0.0625
  928MOL0     C25177   0.418   1.684   3.614  0.0920 -0.6109 -0.6349
  928MOL0     C25178   0.472   1.762   3.507  0.6912  0.2398 -0.3797
  928MOL0     C25179   0.607   1.749   3.473  0.2305 -0.2005 -0.3689
  928MOL0     C25180   0.698   1.669   3.542 -0.2185  0.5649  0.5153
  928MOL0     O25181   0.829   1.671   3.498  0.0008  0.1200 -0.1228
  928MOL0     C25182   0.935   1.610   3.578 -0.5034  0.1150  0.0091
  928MOL0     C25183   1.072   1.635   3.511  0.5512  0.7565  0.2017
  928MOL0     C25184   1.186   1.574   3.594 -1.2427 -1.3337 -0.0718
  928MOL0     C25185   1.188   1.421   3.567  1.2656  0.0192  0.2191
  928MOL0     C25186   1.278   1.349   3.671  0.2002 -0.9236  0.2175
  928MOL0     C25187   1.317   1.207   3.645 -0.3976  0.2301 -0.6406
  928MOL0     C25188   1.211   1.102   3.669 -0.5404 -1.0842 -0.9936
  928MOL0     C25189   1.271   0.979   3.727  1.0072  0.4412  0.1489
  928MOL0    Cl25190   1.130   0.872   3.747 -0.3285  0.0732 -0.2549
  928MOL0     C25191   0.641   1.590   3.647 -0.0555  0.1303  0.6362
  928MOL0     C25192   0.504   1.592   3.681 -0.2729  0.4886  0.3095
  928MOL0     O25193   0.196   1.839   3.532  0.1186  0.5386  0.3778
  928MOL0     C25194  -0.055   1.799   3.651  0.0839  0.1224 -0.4554
  928MOL0     C25195  -0.192   1.774   3.682  0.4846  0.0639  0.0013
  928MOL0     N25196  -0.382   1.344   3.410 -0.5380 -0.5614 -0.5453
  928MOL0     N25197  -0.281   1.372   3.347 -0.1726 -0.4605 -0.3159
  928MOL0     C25198   0.780   1.335   3.261 -0.1757  0.1580 -0.8628
  928MOL0     C25199   0.912   1.300   3.252  0.1088  0.7395  0.1391
  928MOL0     C25200   1.321   1.096   3.292 -0.3538  0.6281 -0.4726
  928MOL0     C25201   1.308   0.953   3.314 -0.5876  0.6855 -1.3874
  928MOL0     C25202   1.426   0.872   3.327  0.2401  0.4718 -0.0428
  928MOL0     C25203   1.549   0.929   3.303  0.4708 -0.9467  0.8323
  928MOL0     O25204   1.654   0.848   3.281 -0.5552 -0.2358 -0.0622
  928MOL0     C25205   1.781   0.863   3.352  0.1704 -0.0232  0.5448
  928MOL0     C25206   1.768   0.803   3.487 -0.1473  0.3085 -0.5471
  928MOL0     C25207   1.750   0.647   3.487  0.1936 -0.8537  0.0053
  928MOL0     C25208   1.756   0.589   3.632  0.3907  1.5387 -0.2534
  928MOL0     C25209   1.624   0.614   3.686  0.7749 -0.0128  1.0010
  928MOL0     C25210   1.513   0.647   3.713 -0.7869  0.3429  0.7862
  928MOL0     C25211   1.562   1.071   3.298 -0.5002  0.8911 -1.2330
  928MOL0     C25212   1.450   1.152   3.290  0.7620  0.3375 -0.5318
  928MOL0     H25213   0.901   0.988   3.366 -1.7797 -0.3818  1.5524
  928MOL0     H25214   0.654   1.049   3.400  0.2818  0.2017 -0.0832
  928MOL0     H25215   0.438   1.120   3.407  2.6420 -0.9735 -1.1583
  928MOL0     H25216   0.529   1.223   3.517 -1.9912 -2.1205  0.6137
  928MOL0     H25217   0.299   1.230   3.566 -1.6007 -1.2189 -2.2120
  928MOL0     H25218   0.369   1.393   3.524 -2.0271  0.2017  0.4275
  928MOL0     H25219   0.310   1.373   3.277 -0.5477  0.5494 -0.4780
  928MOL0     H25220   0.198   1.240   3.326  2.2562 -1.9878  1.4154
  928MOL0     H25221   0.111   1.385   3.500  1.4728 -0.4187  0.7795
  928MOL0     H25222   0.210   1.518   3.447 -1.4590  0.3132  1.0393
  928MOL0     H25223   0.144   1.528   3.240 -0.3870  0.6097 -1.7008
  928MOL0     H25224   0.014   1.400   3.249 -0.6219  2.3121 -1.3170
  928MOL0     H25225  -0.098   1.565   3.423 -0.9730  0.5604 -0.1251
  928MOL0     H25226   0.028   1.684   3.382  0.6201  1.0827 -1.4762
  928MOL0     H25227  -0.150   1.738   3.258 -0.4744 -1.0336  0.2975
  928MOL0     H25228  -0.033   1.672   3.150 -0.5927  0.3557 -1.0044
  928MOL0     H25229  -0.151   1.473   3.130  1.7002 -0.1124  2.3914
  928MOL0     H25230  -0.270   1.607   3.100 -1.5187 -4.3892 -2.5768
  928MOL0     H25231  -0.462   1.635   3.276  2.3312  2.1217  0.2233
  928MOL0     H25232  -0.690   1.456   3.435 -3.2451 -0.3215  3.7490
  928MOL0     H25233  -0.599   1.345   3.522  0.2689  0.4661  1.5094
  928MOL0     H25234  -0.647   1.527   3.675  1.6896 -1.7858  0.2666
  928MOL0     H25235  -0.628   1.661   3.547  4.3487  1.7430 -1.1704
  928MOL0     H25236  -0.396   1.640   3.564 -1.5405  2.0360  0.2425
  928MOL0     H25237  -0.397   1.495   3.652  0.9125 -0.3405 -3.7458
  928MOL0     H25238  -0.523   1.632   3.839  1.2910  0.1530  1.2442
  928MOL0     H25239  -0.478   1.776   3.738  0.5630  0.2371 -0.1332
  928MOL0     H25240  -0.126   1.496   3.866  2.8175 -0.9219  0.8620
  928MOL0     H25241   0.158   1.541   3.906  1.7555 -4.0585  0.9183
  928MOL0     H25242   0.071   1.403   3.829 -2.9654  0.9851 -2.5969
  928MOL0     H25243   0.193   1.471   3.738  1.4357  1.0008  0.2134
  928MOL0     H25244   0.408   1.829   3.451  0.1021 -1.2644 -1.5751
  928MOL0     H25245   0.629   1.801   3.380 -2.3360 -0.2986 -1.1162
  928MOL0     H25246   0.931   1.653   3.679 -1.5537 -1.4079  0.6526
  928MOL0     H25247   0.910   1.503   3.579 -0.2219  0.0494  0.0252
  928MOL0     H25248   1.069   1.602   3.407  0.8592  1.0957  0.0872
  928MOL0     H25249   1.092   1.742   3.517  2.6742  0.3405  1.2445
  928MOL0     H25250   1.181   1.613   3.696 -4.0768 -2.3238  0.2640
  928MOL0     H25251   1.278   1.624   3.563 -1.3442 -1.7643 -1.1308
  928MOL0     H25252   1.088   1.377   3.578  1.1344  0.4211  0.6501
  928MOL0     H25253   1.217   1.406   3.462 -1.5579 -3.0743 -0.2991
  928MOL0     H25254   1.244   1.368   3.773  1.1228  1.0354  0.1926
  928MOL0     H25255   1.369   1.406   3.650 -1.1941  0.0857 -4.2105
  928MOL0     H25256   1.348   1.184   3.543 -2.6844 -0.2564 -1.2779
  928MOL0     H25257   1.405   1.185   3.706 -1.7551  0.8693  1.7053
  928MOL0     H25258   1.166   1.078   3.572  0.6400 -0.4576 -1.7161
  928MOL0     H25259   1.136   1.141   3.739  1.3143  0.7483  0.0649
  928MOL0     H25260   1.315   1.000   3.825 -0.6926  1.9221  0.6435
  928MOL0     H25261   1.334   0.939   3.646 -1.2293  1.0751 -2.0096
  928MOL0     H25262   0.705   1.539   3.718  0.8513  1.7524  1.0253
  928MOL0     H25263   0.469   1.546   3.774 -0.6658  0.9353  0.3862
  928MOL0     H25264  -0.037   1.894   3.602 -0.1312  1.5474  2.0887
  928MOL0     H25265  -0.265   1.842   3.638 -1.0568 -1.6852 -0.2633
  928MOL0     H25266   0.751   1.435   3.232 -0.7579  0.2678  0.0530
  928MOL0     H25267   0.969   1.382   3.209 -0.3241  1.8833  1.6752
  928MOL0     H25268   1.213   0.904   3.294 -0.0797 -0.9974  0.1009
  928MOL0     H25269   1.415   0.768   3.356 -0.8273  0.2359 -1.1756
  928MOL0     H25270   1.857   0.822   3.285 -2.6535  1.4036 -3.9844
  928MOL0     H25271   1.799   0.968   3.377 -1.9870  0.3139  0.8880
  928MOL0     H25272   1.681   0.856   3.528  1.4488  1.5950  1.3454
  928MOL0     H25273   1.853   0.839   3.546 -2.4873  0.1585  3.2108
  928MOL0     H25274   1.836   0.597   3.440  3.4063  1.7264  2.6519
  928MOL0     H25275   1.657   0.614   3.440 -1.0110  0.1436  1.6071
  928MOL0     H25276   1.838   0.632   3.690  2.5955 -1.6325 -0.7868
  928MOL0     H25277   1.773   0.483   3.614  2.9157  1.5275  1.6817
  928MOL0     H25278   1.408   0.672   3.717 -0.6917  2.0782 -3.3344
  928MOL0     H25279   1.661   1.116   3.300 -0.1684  0.1616  0.7156
  928MOL0     H25280   1.471   1.256   3.269  0.7776  0.1835 -1.2756
  929MOL0     O25281   1.106   6.982   7.162 -0.7781 -0.4629  0.4166
  929MOL0     C25282   1.180   6.991   7.069 -0.4684  0.7593 -0.4399
  929MOL0     O25283   1.311   7.037   7.084 -0.4706  0.4140 -0.2120
  929MOL0     C25284   1.353   7.094   7.202 -1.4496 -0.2399 -0.2003
  929MOL0     C25285   1.434   7.209   7.176  0.7598  0.7123  0.4416
  929MOL0     C25286   1.473   7.290   7.292  0.9495  0.6552  0.7777
  929MOL0     C25287   1.441   7.248   7.415  0.1651 -0.3328 -0.9726
  929MOL0     O25288   1.492   7.318   7.520  0.6206  0.2195  0.9246
  929MOL0     C25289   1.388   7.404   7.570  0.9572  0.0389 -0.2983
  929MOL0     C25290   1.456   7.502   7.667 -0.4225 -1.1447  0.5184
  929MOL0     C25291   1.555   7.588   7.594  0.3543 -0.0404  0.3731
  929MOL0     C25292   1.692   7.525   7.578 -0.3146  0.0535  0.2706
  929MOL0     C25293   1.812   7.609   7.628 -0.4771 -0.0840 -0.8495
  929MOL0     C25294   1.945   7.552   7.557  0.8061 -0.1328  0.8143
  929MOL0     C25295   2.074   7.593   7.620  0.0104  0.5247 -1.0644
  929MOL0     C25296   2.192   7.510   7.565 -0.7083 -0.0347 -0.6187
  929MOL0     N25297   2.319   7.583   7.596 -0.5211  0.8357  0.2589
  929MOL0     C25298   2.413   7.549   7.691  0.0802  0.0850  0.7910
  929MOL0     C25299   2.507   7.647   7.684 -0.2007 -0.2291  0.3655
  929MOL0     C25300   2.616   7.677   7.777 -0.0472 -0.0771 -0.4524
  929MOL0     C25301   2.738   7.754   7.726  0.1666  0.3500  0.0271
  929MOL0     C25302   2.842   7.742   7.843 -0.5671  0.8611  0.9392
  929MOL0     C25303   2.972   7.812   7.800  0.1235  0.4843 -0.6263
  929MOL0     O25304   2.956   7.939   7.739  0.2752 -0.6902 -0.7647
  929MOL0     C25305   3.065   8.019   7.719  1.1066  0.1368  0.0123
  929MOL0     C25306   3.066   8.092   7.605 -0.2630 -0.4114  0.6095
  929MOL0     C25307   3.173   8.182   7.573  1.0476  0.5536  0.8994
  929MOL0     C25308   3.165   8.247   7.431  0.4511  0.1322 -0.0807
  929MOL0     C25309   3.281   8.206   7.660 -0.0025 -0.7073 -0.4307
  929MOL0     C25310   3.396   8.303   7.639 -0.1819 -1.5680  0.3078
  929MOL0     O25311   3.487   8.312   7.741  0.1945 -0.4495 -0.3566
  929MOL0     C25312   3.588   8.402   7.728 -0.9199  0.3694 -0.7485
  929MOL0     C25313   3.594   8.521   7.794 -0.3257  0.1263  0.0729
  929MOL0     C25314   3.696   8.612   7.783 -0.0001  0.7518 -0.1047
  929MOL0     C25315   3.804   8.580   7.706 -0.0618 -0.6427 -0.5006
  929MOL0     O25316   3.909   8.663   7.694 -0.6714  0.1355 -0.1185
  929MOL0     C25317   3.999   8.650   7.801 -1.0956  0.0634  0.4042
  929MOL0     C25318   4.117   8.753   7.790  0.2762 -0.5193  0.5094
  929MOL0     C25319   4.080   8.899   7.839  0.0135 -0.5004  0.4739
  929MOL0     C25320   4.197   8.990   7.815  0.6902  0.1453  0.0642
  929MOL0     C25321   4.188   9.133   7.875  0.7207 -0.7214  0.3221
  929MOL0     C25322   4.300   9.241   7.887 -0.2919 -0.5022 -0.6565
  929MOL0     C25323   4.397   9.188   8.000 -0.0670  0.3152 -0.8764
  929MOL0     C25324   4.504   9.308   8.014 -0.5879  0.0944  0.2235
  929MOL0    Cl25325   4.603   9.270   8.165  0.0362 -0.6534 -0.1789
  929MOL0     C25326   3.810   8.458   7.645  0.5101 -0.9070  0.0713
  929MOL0     C25327   3.705   8.370   7.640 -0.7661  0.5398 -0.6041
  929MOL0     O25328   3.393   8.384   7.545 -0.5000  0.6366  0.3247
  929MOL0     C25329   3.269   8.146   7.787  0.3353  1.0903 -0.1624
  929MOL0     C25330   3.169   8.047   7.810  0.8296 -0.9298  0.5527
  929MOL0     N25331   2.472   7.727   7.568 -0.0818  0.2920 -0.0518
  929MOL0     N25332   2.358   7.696   7.527  0.6413  0.0389  0.0894
  929MOL0     C25333   1.370   7.129   7.437 -0.7467  0.1867 -0.4962
  929MOL0     C25334   1.331   7.054   7.331  0.6090  1.0087 -0.4417
  929MOL0     C25335   1.125   6.949   6.937 -0.6395 -0.2965 -0.1770
  929MOL0     C25336   1.189   6.995   6.820  0.6181 -0.3491  0.3943
  929MOL0     C25337   1.146   6.962   6.694  0.2459 -0.5683  0.4484
  929MOL0     C25338   1.036   6.886   6.672 -0.0686 -0.5199  0.0821
  929MOL0     O25339   0.985   6.843   6.553 -0.1032 -0.5706  0.3134
  929MOL0     C25340   0.910   6.939   6.477 -0.1607 -1.3373  0.7025
  929MOL0     C25341   0.754   6.949   6.517 -0.3342  0.4615  0.5049
  929MOL0     C25342   0.663   6.847   6.445  0.2176 -0.1348  0.0038
  929MOL0     C25343   0.547   6.793   6.533  0.0449  0.2671  0.5022
  929MOL0     C25344   0.461   6.906   6.570  0.0476 -0.4808  0.7927
  929MOL0     C25345   0.390   6.991   6.608 -0.6461 -0.1378  0.0905
  929MOL0     C25346   0.972   6.841   6.784 -0.0095 -0.3061  1.4797
  929MOL0     C25347   1.009   6.879   6.911  0.4416  0.0308  0.3687
  929MOL0     H25348   1.449   7.238   7.073 -2.3155 -2.4897 -1.1300
  929MOL0     H25349   1.533   7.380   7.282  1.0692  1.2362  4.9320
  929MOL0     H25350   1.344   7.472   7.497 -0.7033  0.7616  1.3017
  929MOL0     H25351   1.313   7.342   7.620 -0.3718  2.4826  0.8799
  929MOL0     H25352   1.376   7.554   7.723  0.6596 -1.3108  2.2926
  929MOL0     H25353   1.516   7.451   7.743  0.2453  2.5677  2.7458
  929MOL0     H25354   1.521   7.623   7.496 -1.6303 -0.8634  0.7157
  929MOL0     H25355   1.571   7.680   7.652 -0.1277  0.0393  0.3821
  929MOL0     H25356   1.689   7.427   7.626 -2.9396  1.3165  3.0172
  929MOL0     H25357   1.707   7.510   7.470 -1.2627 -3.1345  0.4809
  929MOL0     H25358   1.795   7.715   7.608 -3.7757  0.4467  3.3371
  929MOL0     H25359   1.834   7.607   7.735  0.2435  2.0744 -0.9157
  929MOL0     H25360   1.937   7.443   7.558  0.4903 -0.1112  0.7786
  929MOL0     H25361   1.946   7.595   7.456  4.7525  3.1128  1.9731
  929MOL0     H25362   2.106   7.697   7.608  1.0153  0.8541  2.8137
  929MOL0     H25363   2.058   7.580   7.728 -1.5295 -0.4742 -1.3873
  929MOL0     H25364   2.194   7.503   7.456  3.5520 -3.8639 -0.5706
  929MOL0     H25365   2.202   7.406   7.597  0.7160 -1.2290 -4.3626
  929MOL0     H25366   2.404   7.471   7.767 -2.0746 -0.2881  0.2205
  929MOL0     H25367   2.564   7.714   7.866 -0.7907 -1.7867 -0.1365
  929MOL0     H25368   2.651   7.576   7.799 -0.6844 -0.5359 -1.4920
  929MOL0     H25369   2.703   7.855   7.702  1.6108  0.7854 -0.3012
  929MOL0     H25370   2.774   7.703   7.636 -2.7393 -0.9875 -0.5074
  929MOL0     H25371   2.866   7.635   7.848 -2.3951  0.1871 -2.0164
  929MOL0     H25372   2.815   7.764   7.946  0.9387  0.8315  1.3590
  929MOL0     H25373   3.027   7.750   7.729 -0.2061 -1.1106  0.4578
  929MOL0     H25374   3.024   7.824   7.896  0.2708 -0.5735 -0.5671
  929MOL0     H25375   2.995   8.069   7.527 -0.7590 -1.8830  1.4522
  929MOL0     H25376   3.080   8.213   7.372 -0.6502  0.4685  1.2671
  929MOL0     H25377   3.142   8.353   7.444 -3.7169 -0.8761  2.4817
  929MOL0     H25378   3.261   8.239   7.378  0.4793 -1.5138  0.1912
  929MOL0     H25379   3.509   8.535   7.861 -1.2621 -2.1412 -0.5362
  929MOL0     H25380   3.688   8.704   7.840 -1.4826  1.4790 -1.3781
  929MOL0     H25381   3.941   8.665   7.893 -2.8832 -1.6583 -0.3608
  929MOL0     H25382   4.053   8.555   7.800 -0.9072  0.1749 -0.0344
  929MOL0     H25383   4.192   8.715   7.860  0.2736  0.8419  1.2994
  929MOL0     H25384   4.154   8.751   7.687  3.9064 -2.0182  1.6781
  929MOL0     H25385   4.071   8.878   7.946  0.0410 -2.9905  0.0359
  929MOL0     H25386   3.993   8.942   7.787  2.2942  2.9186 -0.8757
  929MOL0     H25387   4.288   8.942   7.852 -0.3429 -2.5626 -0.6626
  929MOL0     H25388   4.223   8.992   7.709  2.5675 -0.0558  0.4926
  929MOL0     H25389   4.142   9.133   7.975 -2.2477  1.1014 -0.9153
  929MOL0     H25390   4.102   9.178   7.824  0.7334  0.4692  1.3033
  929MOL0     H25391   4.348   9.233   7.789 -3.5955  0.3040 -2.4919
  929MOL0     H25392   4.266   9.343   7.907 -0.8614 -1.1079  1.9220
  929MOL0     H25393   4.440   9.093   7.966 -2.9541 -1.0414 -0.9683
  929MOL0     H25394   4.361   9.172   8.102 -0.6283 -2.4844 -1.4169
  929MOL0     H25395   4.467   9.411   8.017 -0.7113  0.1008 -0.8893
  929MOL0     H25396   4.575   9.295   7.931 -0.6330  1.1093  0.0125
  929MOL0     H25397   3.900   8.437   7.588  0.8344 -0.9685  0.5875
  929MOL0     H25398   3.707   8.283   7.576 -0.5885 -0.6982  1.0411
  929MOL0     H25399   3.347   8.158   7.862  0.9439 -2.0385 -0.1507
  929MOL0     H25400   3.162   7.988   7.901 -2.8192  0.5264  1.4096
  929MOL0     H25401   1.343   7.088   7.534  0.2976  2.2132  0.7115
  929MOL0     H25402   1.276   6.962   7.349 -0.0125  1.6060  0.8521
  929MOL0     H25403   1.278   7.057   6.828 -0.6342  1.3126  5.3020
  929MOL0     H25404   1.201   6.996   6.607  0.2915 -2.3643 -0.2589
  929MOL0     H25405   0.951   7.040   6.487 -1.2313 -0.7218 -0.8457
  929MOL0     H25406   0.914   6.911   6.372 -0.6251 -0.8247  0.5460
  929MOL0     H25407   0.729   7.051   6.486 -2.0732 -0.9369 -3.4038
  929MOL0     H25408   0.733   6.928   6.622  1.8435  1.6011  1.2259
  929MOL0     H25409   0.725   6.758   6.426 -0.7203 -1.2887  2.0221
  929MOL0     H25410   0.622   6.890   6.353 -2.4356  0.2234  1.2782
  929MOL0     H25411   0.577   6.733   6.620 -2.1038 -2.1481 -0.2809
  929MOL0     H25412   0.490   6.728   6.466 -3.1056  1.6743  1.6273
  929MOL0     H25413   0.314   7.049   6.655 -1.4430 -1.3862  0.4063
  929MOL0     H25414   0.890   6.773   6.763  0.1581  0.1224 -0.8159
  929MOL0     H25415   0.949   6.830   6.987 -1.1682  1.4695  0.1005
  930MOL0     O25416   9.123   8.665   7.736 -0.9031  0.2491  0.2309
  930MOL0     C25417   9.226   8.715   7.766 -1.0132  0.7221 -0.2425
  930MOL0     O25418   9.251   8.795   7.884  0.5281 -0.2748  0.3176
  930MOL0     C25419   9.144   8.849   7.948 -0.1165 -0.7734  0.1179
  930MOL0     C25420   9.125   8.823   8.087  0.3792 -0.3014  0.3795
  930MOL0     C25421   9.015   8.879   8.153  0.4957  0.2587 -0.2083
  930MOL0     C25422   8.922   8.955   8.079 -0.3476 -0.0394 -0.7303
  930MOL0     O25423   8.809   8.995   8.149 -0.2824 -0.0173 -0.6252
  930MOL0     C25424   8.689   8.990   8.075  0.6113 -0.2740  0.8692
  930MOL0     C25425   8.578   9.010   8.178  0.5564  0.0605  0.2058
  930MOL0     C25426   8.564   9.151   8.231 -0.1336  0.3768 -0.3813
  930MOL0     C25427   8.440   9.164   8.317  1.3736 -0.1008  0.3768
  930MOL0     C25428   8.313   9.182   8.236 -0.3504 -0.1157  0.9746
  930MOL0     C25429   8.314   9.304   8.142 -0.8091 -0.1294  0.4514
  930MOL0     C25430   8.172   9.349   8.123  0.2286 -0.2096  0.0338
  930MOL0     C25431   8.172   9.489   8.064 -1.4322  0.4091  0.8716
  930MOL0     N25432   8.045   9.556   8.021  0.0045  0.2114  0.6156
  930MOL0     C25433   7.928   9.575   8.096 -0.9925 -0.7073 -0.5340
  930MOL0     C25434   7.850   9.649   8.009 -0.9064  0.8666  0.6571
  930MOL0     C25435   7.712   9.701   8.031  1.3776  0.0853  0.2891
  930MOL0     C25436   7.711   9.846   8.055  0.1790  0.5577 -0.6155
  930MOL0     C25437   7.569   9.902   8.063 -0.2802  0.2911  0.2085
  930MOL0     C25438   7.490   9.862   8.190 -0.1443  0.1104  0.2711
  930MOL0     O25439   7.351   9.870   8.170  0.2935 -0.4926 -1.5271
  930MOL0     C25440   7.296   9.979   8.240 -0.6793  0.7003 -1.1979
  930MOL0     C25441   7.160   9.965   8.285 -0.4732  0.0098 -0.9096
  930MOL0     C25442   7.095  10.085   8.350 -0.7552  0.5903 -0.1808
  930MOL0     C25443   6.946  10.085   8.367 -0.2292 -0.1780 -0.0521
  930MOL0     C25444   7.167  10.200   8.362 -0.2435  0.2924 -0.6987
  930MOL0     C25445   7.118  10.310   8.447 -0.6707  0.0240 -0.3313
  930MOL0     O25446   7.129  10.436   8.393 -0.3988  0.3341 -0.3524
  930MOL0     C25447   7.071  10.545   8.447 -0.8387 -0.9253 -0.0273
  930MOL0     C25448   6.932  10.546   8.495  0.5444 -0.0980 -0.5975
  930MOL0     C25449   6.870  10.669   8.542  0.3803  0.3236  0.5902
  930MOL0     C25450   6.945  10.786   8.544 -0.3078 -0.3320  0.2999
  930MOL0     O25451   6.902  10.904   8.596  0.0897  0.0019  0.2163
  930MOL0     C25452   6.765  10.927   8.626 -0.0358  0.2251  0.0058
  930MOL0     C25453   6.749  11.069   8.677  0.8236  0.3402  0.5775
  930MOL0     C25454   6.607  11.116   8.664  0.4829  0.2083  0.3665
  930MOL0     C25455   6.562  11.159   8.526  0.8746  0.1744  0.4805
  930MOL0     C25456   6.439  11.261   8.531 -0.2604 -0.1820  0.1868
  930MOL0     C25457   6.310  11.208   8.601 -0.5895 -0.9994 -0.0379
  930MOL0     C25458   6.314  11.252   8.751 -0.1831 -0.3647 -0.3698
  930MOL0     C25459   6.180  11.238   8.812  0.4771 -0.3544 -0.8418
  930MOL0    Cl25460   6.075  11.371   8.764  0.0307 -0.1043  0.6444
  930MOL0     C25461   7.069  10.786   8.481 -1.7557 -0.0189  0.4536
  930MOL0     C25462   7.139  10.668   8.434  0.2401  0.0766 -0.1325
  930MOL0     O25463   7.064  10.283   8.555 -0.2663 -0.0669  0.0698
  930MOL0     C25464   7.294  10.215   8.310  0.3302 -0.4504  0.2345
  930MOL0     C25465   7.351  10.106   8.249  0.1890  0.9570  0.2737
  930MOL0     N25466   7.905   9.666   7.884  0.2879  0.1469  0.0768
  930MOL0     N25467   8.015   9.597   7.893  0.8452  0.6413  0.1120
  930MOL0     C25468   8.947   8.989   7.940  0.6241  0.8214  0.4044
  930MOL0     C25469   9.052   8.932   7.876 -0.2868 -0.9511  0.0081
  930MOL0     C25470   9.336   8.666   7.682 -0.1879  0.5017 -0.0930
  930MOL0     C25471   9.466   8.673   7.735 -0.5750  0.2502 -0.4074
  930MOL0     C25472   9.579   8.646   7.657  0.4259 -0.4445  0.7230
  930MOL0     C25473   9.570   8.614   7.523 -0.9947  0.1700  0.0034
  930MOL0     O25474   9.670   8.577   7.446 -0.3493 -0.8072 -0.5117
  930MOL0     C25475   9.793   8.643   7.471 -0.0655 -0.2395 -0.0955
  930MOL0     C25476   9.786   8.783   7.418 -0.0081  0.7166  0.2131
  930MOL0     C25477   9.925   8.852   7.405  0.5339 -0.4947 -0.6265
  930MOL0     C25478   9.979   8.846   7.266 -0.1729 -0.3651 -0.2678
  930MOL0     C25479  10.122   8.897   7.281  0.9504  0.4162 -0.0307
  930MOL0     C25480  10.236   8.915   7.311 -0.2390  0.2175  0.4599
  930MOL0     C25481   9.442   8.606   7.467  0.7167 -0.6640 -0.7498
  930MOL0     C25482   9.323   8.630   7.547 -0.3260  0.2609 -0.3724
  930MOL0     H25483   9.185   8.750   8.140 -2.7359 -1.0176  3.2490
  930MOL0     H25484   8.994   8.844   8.253  0.7635 -0.2095 -0.3147
  930MOL0     H25485   8.686   9.073   8.004 -3.8929 -0.2018  0.8514
  930MOL0     H25486   8.670   8.897   8.021 -1.9043  0.9399 -0.5323
  930MOL0     H25487   8.488   8.978   8.126  2.3898 -0.0122 -3.2129
  930MOL0     H25488   8.597   8.932   8.252 -3.1863 -1.1979  0.0647
  930MOL0     H25489   8.646   9.179   8.297 -2.4104  2.3628  1.7558
  930MOL0     H25490   8.572   9.213   8.141  1.1183  0.4233 -0.2560
  930MOL0     H25491   8.420   9.079   8.384 -1.4227  0.0328 -0.1378
  930MOL0     H25492   8.453   9.253   8.380  1.4974 -0.0929  0.3402
  930MOL0     H25493   8.307   9.091   8.176  3.0653 -0.5383  1.0846
  930MOL0     H25494   8.222   9.174   8.297 -2.2615 -0.0992 -1.6845
  930MOL0     H25495   8.377   9.377   8.193 -1.6527 -0.7412  2.4722
  930MOL0     H25496   8.358   9.286   8.043  0.8641  2.1196  0.7070
  930MOL0     H25497   8.118   9.280   8.058  2.6389 -2.8874  0.6212
  930MOL0     H25498   8.120   9.355   8.219  1.8945 -0.7342  1.0240
  930MOL0     H25499   8.232   9.494   7.973 -2.3706 -0.0449  0.2250
  930MOL0     H25500   8.221   9.554   8.138  2.3260 -0.4989 -0.5944
  930MOL0     H25501   7.903   9.541   8.196  1.8948  0.0419  0.5294
  930MOL0     H25502   7.649   9.674   7.946  2.2607  4.7955 -2.2355
  930MOL0     H25503   7.682   9.654   8.125  2.9855 -0.4378  0.5697
  930MOL0     H25504   7.765   9.898   7.975 -0.0268  0.9056 -0.5301
  930MOL0     H25505   7.766   9.864   8.147  0.5411 -2.9250 -0.0210
  930MOL0     H25506   7.504   9.870   7.980 -1.5077  3.8313 -0.3869
  930MOL0     H25507   7.571  10.012   8.057 -0.5521  0.2607 -0.6168
  930MOL0     H25508   7.519   9.924   8.275 -0.8035  3.1804 -1.5900
  930MOL0     H25509   7.503   9.757   8.218  1.1260 -0.6829 -2.9065
  930MOL0     H25510   7.107   9.871   8.273  0.9298 -1.1631  1.3991
  930MOL0     H25511   6.907  10.166   8.306 -1.5256 -0.7089  0.0428
  930MOL0     H25512   6.908   9.986   8.337 -1.3007  0.0264  0.5686
  930MOL0     H25513   6.924  10.093   8.474 -1.0499 -0.2858 -0.2061
  930MOL0     H25514   6.867  10.459   8.493  0.9305 -0.4983  1.6171
  930MOL0     H25515   6.771  10.672   8.588 -1.2691  4.2572 -2.5012
  930MOL0     H25516   6.708  10.911   8.534 -2.7425 -0.3191  1.6646
  930MOL0     H25517   6.729  10.853   8.698  3.0927 -1.5231 -0.0260
  930MOL0     H25518   6.792  11.079   8.777  1.9535  1.4591  0.0189
  930MOL0     H25519   6.806  11.144   8.621 -2.7835  2.2921 -0.8020
  930MOL0     H25520   6.605  11.195   8.740  0.5883 -0.9330  1.6154
  930MOL0     H25521   6.535  11.041   8.697  0.1743  0.5436  0.4613
  930MOL0     H25522   6.644  11.201   8.468  0.1165 -0.4256 -1.0929
  930MOL0     H25523   6.542  11.075   8.459 -1.0342  1.2125 -0.3104
  930MOL0     H25524   6.412  11.287   8.429  1.8039  3.3323  0.3847
  930MOL0     H25525   6.484  11.351   8.572  0.4615 -0.0651 -0.8333
  930MOL0     H25526   6.226  11.255   8.548 -0.4107 -0.0556  0.4920
  930MOL0     H25527   6.299  11.100   8.588 -0.5744 -0.7792 -2.2921
  930MOL0     H25528   6.344  11.357   8.752  1.8243 -0.8951 -0.8928
  930MOL0     H25529   6.374  11.188   8.815  1.5912  0.0752 -1.5007
  930MOL0     H25530   6.176  11.245   8.921 -1.9366 -1.5764 -0.7769
  930MOL0     H25531   6.142  11.137   8.793  0.6644 -0.9041  1.4238
  930MOL0     H25532   7.125  10.879   8.478  0.3501 -1.2104  0.7610
  930MOL0     H25533   7.235  10.679   8.386 -0.2372 -1.0852 -1.4086
  930MOL0     H25534   7.330  10.317   8.321 -0.8951  0.2136 -1.5450
  930MOL0     H25535   7.445  10.123   8.198 -1.0093  0.5726 -2.2420
  930MOL0     H25536   8.875   9.038   7.874  1.8248  0.9754 -0.8293
  930MOL0     H25537   9.074   8.964   7.774 -0.3198  2.6457  1.0039
  930MOL0     H25538   9.483   8.686   7.842  1.2472 -4.2000  0.0691
  930MOL0     H25539   9.664   8.644   7.724 -1.4194  2.0481  3.3433
  930MOL0     H25540   9.820   8.651   7.577 -0.5283 -0.0981  0.0146
  930MOL0     H25541   9.869   8.590   7.413  1.5809 -0.1164  1.8717
  930MOL0     H25542   9.717   8.846   7.475 -0.0108  1.8331 -0.9761
  930MOL0     H25543   9.743   8.778   7.318  0.2862 -2.2480  0.1562
  930MOL0     H25544   9.994   8.793   7.466 -1.2745 -0.9831  1.0463
  930MOL0     H25545   9.919   8.956   7.438 -1.5194 -0.9779  0.7230
  930MOL0     H25546   9.927   8.907   7.192 -2.1854 -3.7752 -1.9345
  930MOL0     H25547   9.987   8.744   7.226  0.7793  0.5146 -2.4469
  930MOL0     H25548  10.339   8.930   7.337 -0.6193 -0.8459  2.8382
  930MOL0     H25549   9.429   8.581   7.362  0.2463  0.0292 -0.8621
  930MOL0     H25550   9.232   8.614   7.490 -0.7911  0.0707  0.4146
  931MOL0     O25551   9.262   4.897   7.760 -0.0496  0.3185 -0.5937
  931MOL0     C25552   9.263   4.904   7.879 -0.0888  0.6832  0.1493
  931MOL0     O25553   9.314   4.807   7.970 -0.0383  0.0931 -0.4288
  931MOL0     C25554   9.372   4.683   7.938 -0.2735  0.1896  0.3859
  931MOL0     C25555   9.432   4.609   8.045 -0.0940 -0.4931 -0.0793
  931MOL0     C25556   9.468   4.476   8.022 -0.5293  0.6781  0.0311
  931MOL0     C25557   9.465   4.412   7.896 -0.2005 -0.1815 -0.4166
  931MOL0     O25558   9.513   4.283   7.893  0.9265  0.4483  0.6262
  931MOL0     C25559   9.529   4.222   7.761 -0.0377 -0.0968  0.5112
  931MOL0     C25560   9.386   4.180   7.711 -0.1519  0.0230 -0.7523
  931MOL0     C25561   9.366   4.192   7.559 -0.3367 -0.6299 -0.1972
  931MOL0     C25562   9.448   4.089   7.474 -0.7585 -0.0737  0.9682
  931MOL0     C25563   9.441   4.127   7.321  0.6767  0.6319 -0.2040
  931MOL0     C25564   9.569   4.134   7.250  0.1906 -0.3471  0.3028
  931MOL0     C25565   9.673   4.239   7.300  0.1394 -0.1765  0.0231
  931MOL0     C25566   9.622   4.384   7.301 -0.2163  0.1181  0.0009
  931MOL0     N25567   9.578   4.433   7.169 -0.1446 -0.7388 -0.5291
  931MOL0     C25568   9.664   4.468   7.068 -0.1141  0.6769  0.3173
  931MOL0     C25569   9.583   4.486   6.967 -0.0142 -0.0992 -0.2304
  931MOL0     C25570   9.619   4.522   6.825 -0.1112 -0.2424 -0.6942
  931MOL0     C25571   9.541   4.427   6.727  0.6406  0.9705  0.3847
  931MOL0     C25572   9.557   4.459   6.578 -0.6841 -0.4376 -0.4175
  931MOL0     C25573   9.693   4.418   6.522  0.2046 -0.0201  0.2861
  931MOL0     O25574   9.719   4.485   6.400  0.3355  0.2978  0.4430
  931MOL0     C25575   9.842   4.476   6.338 -0.1371  0.3253  0.6812
  931MOL0     C25576   9.923   4.362   6.355 -0.4939 -0.3400  0.6884
  931MOL0     C25577  10.053   4.355   6.293 -0.9576  0.2049 -0.3549
  931MOL0     C25578  10.140   4.233   6.327  0.2840  0.6311 -0.2310
  931MOL0     C25579  10.099   4.450   6.203  0.0390 -0.0110  0.4311
  931MOL0     C25580  10.224   4.439   6.117  0.1585  0.1226 -0.3235
  931MOL0     O25581  10.226   4.521   6.009  0.0584 -0.1664  0.4303
  931MOL0     C25582  10.342   4.561   5.946  1.2662 -0.3065  0.2902
  931MOL0     C25583  10.436   4.635   6.013  0.4240 -1.0302  0.1309
  931MOL0     C25584  10.558   4.677   5.953 -0.2273  0.9144 -1.1660
  931MOL0     C25585  10.579   4.660   5.816 -0.0374 -0.7648  0.4395
  931MOL0     O25586  10.696   4.707   5.759  0.1221  0.1115 -0.1853
  931MOL0     C25587  10.763   4.600   5.698 -0.3699 -0.2018  0.5614
  931MOL0     C25588  10.762   4.625   5.545  0.5002 -0.2293  0.2805
  931MOL0     C25589  10.844   4.748   5.496  0.1044  0.8542 -0.3298
  931MOL0     C25590  10.987   4.748   5.536 -0.6202  0.3175  0.2052
  931MOL0     C25591  11.060   4.835   5.435 -0.2858 -0.9328  0.2107
  931MOL0     C25592  11.037   4.984   5.466 -0.3762  0.1133  0.3034
  931MOL0     C25593  11.121   5.074   5.368  1.1449 -0.6231 -0.6429
  931MOL0     C25594  11.071   5.220   5.372  0.8827 -0.1688  0.5065
  931MOL0    Cl25595  10.987   5.257   5.525  0.4033 -0.2836  0.0224
  931MOL0     C25596  10.472   4.604   5.745  0.0219 -0.0365  0.3286
  931MOL0     C25597  10.362   4.552   5.802 -0.4124  0.0677 -0.6305
  931MOL0     O25598  10.323   4.376   6.151 -0.0417  0.9725  0.6306
  931MOL0     C25599  10.003   4.562   6.186 -0.1324  0.2827 -0.9998
  931MOL0     C25600   9.882   4.573   6.251 -0.0267 -0.1193 -0.0921
  931MOL0     N25601   9.455   4.478   7.010 -0.5727 -0.0100 -0.0080
  931MOL0     N25602   9.453   4.448   7.134  0.6929  0.0739  0.3418
  931MOL0     C25603   9.420   4.490   7.788 -0.7248 -0.5292  0.8212
  931MOL0     C25604   9.369   4.615   7.810  0.0675  0.0558 -0.1581
  931MOL0     C25605   9.221   5.024   7.937 -0.5047 -0.2728 -0.4406
  931MOL0     C25606   9.159   5.130   7.862 -0.1828  0.6837 -0.7128
  931MOL0     C25607   9.095   5.236   7.935  0.1604 -0.1312 -0.0149
  931MOL0     C25608   9.111   5.248   8.078  0.5683  0.3240  0.2036
  931MOL0     O25609   9.049   5.355   8.128  0.3446  0.0277  0.8508
  931MOL0     C25610   9.047   5.370   8.269 -0.2536 -0.4087 -0.7102
  931MOL0     C25611   9.176   5.437   8.310  0.1362  0.1323  0.7071
  931MOL0     C25612   9.232   5.416   8.459  0.8659 -0.0003 -0.4504
  931MOL0     C25613   9.124   5.466   8.576 -0.0021  0.2139 -0.0738
  931MOL0     C25614   9.095   5.609   8.572 -0.1776 -1.2495  0.5696
  931MOL0     C25615   9.044   5.717   8.577  0.5227 -0.7569 -0.9039
  931MOL0     C25616   9.178   5.155   8.144  0.0123  0.2164 -0.1042
  931MOL0     C25617   9.236   5.045   8.078  0.7195  0.3055 -0.0588
  931MOL0     H25618   9.434   4.656   8.143 -1.4941 -1.3835  0.4107
  931MOL0     H25619   9.510   4.426   8.108  1.9621  2.3480 -0.0884
  931MOL0     H25620   9.582   4.288   7.692 -0.7287  0.2411  0.2873
  931MOL0     H25621   9.581   4.128   7.779 -2.0787 -0.8303  3.2441
  931MOL0     H25622   9.373   4.078   7.748 -0.3836  0.1199 -0.5635
  931MOL0     H25623   9.315   4.243   7.765  1.1818  1.6385 -0.7950
  931MOL0     H25624   9.262   4.178   7.530  0.0093 -0.5813 -1.5544
  931MOL0     H25625   9.396   4.292   7.525 -1.1413 -0.1231  0.5367
  931MOL0     H25626   9.552   4.092   7.508  0.4340 -0.2946 -2.3271
  931MOL0     H25627   9.399   3.993   7.489  1.2535 -1.0297  1.7431
  931MOL0     H25628   9.381   4.049   7.274 -4.0714  3.2305  0.8664
  931MOL0     H25629   9.387   4.222   7.311  0.7984  0.8558  1.1260
  931MOL0     H25630   9.623   4.040   7.265  1.6887  0.3263 -0.6572
  931MOL0     H25631   9.552   4.147   7.143  2.8081  0.9312 -0.0307
  931MOL0     H25632   9.707   4.218   7.402  0.4259  0.2165  0.0088
  931MOL0     H25633   9.767   4.224   7.247  1.5496  3.0697  1.3738
  931MOL0     H25634   9.708   4.448   7.321  0.8134 -0.8451 -1.1768
  931MOL0     H25635   9.536   4.398   7.367 -0.6202 -1.1804 -0.2324
  931MOL0     H25636   9.772   4.468   7.069 -0.0906  2.2829  0.1458
  931MOL0     H25637   9.577   4.623   6.820  2.5348  0.9672  0.2990
  931MOL0     H25638   9.727   4.523   6.809 -0.3043  1.9281 -2.4254
  931MOL0     H25639   9.435   4.441   6.750  0.0717 -1.8295 -0.0894
  931MOL0     H25640   9.566   4.321   6.738  1.0769  0.7486 -2.1764
  931MOL0     H25641   9.545   4.566   6.558 -2.1866 -0.8334 -1.9342
  931MOL0     H25642   9.486   4.405   6.514  0.6676 -0.8133 -1.6491
  931MOL0     H25643   9.697   4.308   6.521 -2.0950 -0.1447 -0.7051
  931MOL0     H25644   9.770   4.461   6.587 -1.9858  2.5979  1.3255
  931MOL0     H25645   9.895   4.278   6.419  0.8514 -1.3503 -0.0092
  931MOL0     H25646  10.135   4.163   6.243  0.3337  1.1003 -0.6251
  931MOL0     H25647  10.241   4.273   6.336 -0.6061  3.2129 -0.9316
  931MOL0     H25648  10.102   4.175   6.412 -0.8756  0.1637 -1.0342
  931MOL0     H25649  10.415   4.651   6.118  0.4929 -1.1987  0.1721
  931MOL0     H25650  10.631   4.726   6.017  0.2528  0.3449 -1.2708
  931MOL0     H25651  10.861   4.610   5.745 -0.2453 -0.9101  0.4555
  931MOL0     H25652  10.730   4.498   5.718  0.2473  0.0318  3.0491
  931MOL0     H25653  10.811   4.540   5.496 -1.8033  0.9872 -4.8589
  931MOL0     H25654  10.661   4.636   5.503  1.2140  0.2327 -1.4065
  931MOL0     H25655  10.797   4.839   5.535 -0.1480  0.1865  0.9855
  931MOL0     H25656  10.828   4.744   5.388 -0.2549 -0.7362 -0.2510
  931MOL0     H25657  11.002   4.778   5.640 -0.5898  1.1455 -0.0252
  931MOL0     H25658  11.023   4.646   5.526  0.8933  1.0389 -2.8601
  931MOL0     H25659  11.027   4.818   5.332 -2.6100 -0.1963  0.7677
  931MOL0     H25660  11.164   4.809   5.459 -0.6522 -2.7184 -0.0059
  931MOL0     H25661  10.931   5.006   5.457 -0.2525  1.9251  2.4118
  931MOL0     H25662  11.069   4.999   5.570 -0.6032 -0.0679  0.3998
  931MOL0     H25663  11.123   5.032   5.267  2.4734  0.8067 -1.2541
  931MOL0     H25664  11.223   5.080   5.410 -0.0372 -0.0419  2.4291
  931MOL0     H25665  11.004   5.240   5.287  3.0020 -0.4950 -1.3329
  931MOL0     H25666  11.146   5.295   5.346  0.6621 -1.3851 -5.1926
  931MOL0     H25667  10.484   4.587   5.639 -0.5994  0.4717  0.1690
  931MOL0     H25668  10.293   4.500   5.735  2.1300 -2.7924 -1.2604
  931MOL0     H25669  10.032   4.644   6.120 -0.0778  0.7457 -0.4008
  931MOL0     H25670   9.813   4.654   6.230  0.6640  0.3521 -0.5572
  931MOL0     H25671   9.439   4.448   7.690  2.8623 -0.3372  1.3193
  931MOL0     H25672   9.320   4.668   7.729 -2.0603 -1.8829 -0.2314
  931MOL0     H25673   9.150   5.136   7.754 -1.1398  1.2455 -0.6118
  931MOL0     H25674   9.058   5.317   7.874  0.7230 -0.3190 -0.6230
  931MOL0     H25675   8.961   5.436   8.287  0.1864 -0.2730  1.1670
  931MOL0     H25676   9.044   5.285   8.338  0.9366  0.5036  0.5251
  931MOL0     H25677   9.177   5.547   8.303  1.8029  0.1630  0.9222
  931MOL0     H25678   9.245   5.399   8.234 -0.8272  2.5874 -1.5652
  931MOL0     H25679   9.319   5.479   8.478  1.7879 -0.8337 -1.7963
  931MOL0     H25680   9.264   5.313   8.477  1.9404  0.7580  2.6296
  931MOL0     H25681   9.165   5.436   8.673  0.0333 -0.4078 -0.2788
  931MOL0     H25682   9.025   5.422   8.560  0.4945 -0.3448 -1.9049
  931MOL0     H25683   9.013   5.816   8.601 -0.8088 -1.2410 -0.5676
  931MOL0     H25684   9.178   5.161   8.252 -0.4781  3.4493 -0.1771
  931MOL0     H25685   9.273   4.965   8.141  2.7029  1.3966  0.2787
  932MOL0     O25686   8.112   8.633   5.022  0.5373 -0.5789  0.3466
  932MOL0     C25687   8.140   8.746   5.028  0.2165 -0.7184 -0.6183
  932MOL0     O25688   8.066   8.849   5.066  0.2907 -0.2818 -0.2526
  932MOL0     C25689   7.934   8.838   5.087  0.8684 -0.4471 -0.5868
  932MOL0     C25690   7.835   8.857   4.988 -0.3189  0.6992 -0.0601
  932MOL0     C25691   7.694   8.842   5.032 -0.4212 -0.1715  0.7890
  932MOL0     C25692   7.664   8.819   5.166 -0.7809 -0.1412 -0.2492
  932MOL0     O25693   7.536   8.797   5.205 -0.0397  0.0312  0.2239
  932MOL0     C25694   7.442   8.895   5.175 -0.4559 -0.4155 -0.5381
  932MOL0     C25695   7.307   8.831   5.192  0.7124  0.0436  0.4443
  932MOL0     C25696   7.189   8.937   5.206  0.0648 -0.1355  0.5830
  932MOL0     C25697   7.180   8.989   5.346 -1.0834 -0.3414 -0.4716
  932MOL0     C25698   7.075   9.098   5.365 -0.0036 -0.2104  0.2076
  932MOL0     C25699   6.930   9.045   5.327  0.8782  0.1334  0.0292
  932MOL0     C25700   6.832   9.162   5.293  0.1097  0.1746  0.3203
  932MOL0     C25701   6.814   9.270   5.402  0.4908 -0.0480  1.4582
  932MOL0     N25702   6.692   9.343   5.385  0.0351 -0.4100 -0.0367
  932MOL0     C25703   6.570   9.298   5.429  0.8385  0.2444 -0.2155
  932MOL0     C25704   6.470   9.369   5.375  0.0798 -0.4424  0.2277
  932MOL0     C25705   6.319   9.346   5.383 -0.0659 -0.5699  0.6139
  932MOL0     C25706   6.231   9.423   5.287  0.4819  0.1918  0.3302
  932MOL0     C25707   6.081   9.387   5.268 -0.8470 -1.0902  0.5947
  932MOL0     C25708   6.005   9.500   5.215  0.3934 -0.5683 -0.9494
  932MOL0     O25709   5.880   9.466   5.176  0.3561  0.4726 -0.5564
  932MOL0     C25710   5.816   9.577   5.117  0.5893  0.3038 -0.3567
  932MOL0     C25711   5.724   9.534   5.016 -0.4679 -0.9058 -0.7013
  932MOL0     C25712   5.660   9.630   4.943  1.2258  0.2654  0.8160
  932MOL0     C25713   5.538   9.581   4.860 -0.1176 -0.2002  0.2861
  932MOL0     C25714   5.688   9.768   4.960  0.2663 -0.5025 -0.0674
  932MOL0     C25715   5.620   9.879   4.885 -0.6400 -0.6413  0.3874
  932MOL0     O25716   5.652  10.016   4.930 -0.7269  0.0606  0.1869
  932MOL0     C25717   5.577  10.105   4.850  0.2278 -0.4245  0.0789
  932MOL0     C25718   5.434  10.092   4.839  0.1335 -0.4317  0.4838
  932MOL0     C25719   5.349  10.178   4.776  0.1611  1.2466  0.1285
  932MOL0     C25720   5.408  10.286   4.714  0.6278 -0.6858  0.4961
  932MOL0     O25721   5.309  10.372   4.663 -0.3508 -0.0641  0.1598
  932MOL0     C25722   5.348  10.494   4.601 -0.3591  0.0631 -1.1024
  932MOL0     C25723   5.217  10.577   4.558 -0.7153 -0.4469  0.7620
  932MOL0     C25724   5.152  10.510   4.429  0.2480 -0.7376 -0.5016
  932MOL0     C25725   5.128  10.350   4.418 -0.4432 -0.3259 -0.1570
  932MOL0     C25726   5.018  10.292   4.321  0.4578 -0.4632  0.8454
  932MOL0     C25727   5.043  10.351   4.181 -0.3277 -0.1735  0.4122
  932MOL0     C25728   4.933  10.316   4.085  0.3789  0.8022  0.1417
  932MOL0     C25729   4.947  10.374   3.942  0.1836 -0.4074 -0.0737
  932MOL0    Cl25730   5.096  10.320   3.853  0.3448  0.0744  0.2737
  932MOL0     C25731   5.544  10.304   4.723  0.1785 -0.3745  0.4113
  932MOL0     C25732   5.625  10.217   4.787 -0.2848 -0.0789  0.5974
  932MOL0     O25733   5.557   9.855   4.780  0.0626  0.5483 -0.5241
  932MOL0     C25734   5.785   9.806   5.055  0.9828 -0.4722 -1.3782
  932MOL0     C25735   5.842   9.713   5.140 -0.7339  0.6156  0.1120
  932MOL0     N25736   6.543   9.464   5.293  0.1838  0.4899 -0.6637
  932MOL0     N25737   6.665   9.455   5.305 -0.2763 -0.1558 -0.5965
  932MOL0     C25738   7.766   8.807   5.258 -0.3026 -0.3647  0.4919
  932MOL0     C25739   7.897   8.813   5.216  0.0265 -0.3598 -0.8662
  932MOL0     C25740   8.279   8.768   4.988  0.2987  1.1092  0.5477
  932MOL0     C25741   8.355   8.672   4.918 -0.3237  0.2770  0.8954
  932MOL0     C25742   8.485   8.710   4.877 -0.1112 -1.0279 -0.0009
  932MOL0     C25743   8.541   8.831   4.925 -1.1324  0.7150 -0.3752
  932MOL0     O25744   8.671   8.858   4.894 -0.8147 -0.3957  0.0595
  932MOL0     C25745   8.676   8.916   4.759 -0.4685  0.6804 -0.3598
  932MOL0     C25746   8.819   8.885   4.696 -0.0196 -0.3113 -1.1607
  932MOL0     C25747   8.854   8.985   4.582 -0.2406  0.2144 -0.1707
  932MOL0     C25748   8.848   9.136   4.611 -0.0003 -0.5595 -0.9878
  932MOL0     C25749   8.920   9.182   4.730 -1.2421 -0.3477  0.5804
  932MOL0     C25750   8.968   9.233   4.825 -0.8423 -0.0969 -0.7602
  932MOL0     C25751   8.467   8.924   4.984 -0.2097 -0.0436 -0.8069
  932MOL0     C25752   8.338   8.898   5.014  0.2768  0.6702  0.5496
  932MOL0     H25753   7.865   8.874   4.885 -3.6899  0.1437 -1.2842
  932MOL0     H25754   7.618   8.846   4.955  0.9528 -0.1263 -0.6210
  932MOL0     H25755   7.451   8.986   5.236 -1.3693 -0.1395 -0.8054
  932MOL0     H25756   7.444   8.924   5.069 -1.3106  4.8482  0.5992
  932MOL0     H25757   7.284   8.775   5.100 -3.7807 -1.0155  1.9661
  932MOL0     H25758   7.313   8.765   5.278 -1.0964 -0.1952  0.4259
  932MOL0     H25759   7.212   9.022   5.142 -1.5707  0.4990  0.7921
  932MOL0     H25760   7.092   8.898   5.171 -0.1165  0.9965 -0.1970
  932MOL0     H25761   7.165   8.916   5.427  1.4270  1.4830  1.8324
  932MOL0     H25762   7.280   9.024   5.370 -1.1653 -1.0757  1.1111
  932MOL0     H25763   7.080   9.121   5.472  1.7209 -0.5003  0.2098
  932MOL0     H25764   7.105   9.185   5.305 -0.9496 -0.6206 -0.8999
  932MOL0     H25765   6.927   8.987   5.234 -1.8679  0.4398 -0.1497
  932MOL0     H25766   6.891   8.979   5.405  0.9895  0.6005  0.4859
  932MOL0     H25767   6.884   9.213   5.211 -3.0488 -0.4525 -2.2866
  932MOL0     H25768   6.739   9.121   5.253 -0.1106 -0.1114  1.1071
  932MOL0     H25769   6.903   9.333   5.403  0.8261 -0.4832  0.6479
  932MOL0     H25770   6.797   9.230   5.502  0.5612  1.3255  2.0262
  932MOL0     H25771   6.559   9.217   5.501  3.0028 -1.0173 -1.1860
  932MOL0     H25772   6.305   9.243   5.348 -0.2405 -1.3191  2.7411
  932MOL0     H25773   6.286   9.341   5.488 -3.5140 -2.3033 -0.3967
  932MOL0     H25774   6.283   9.417   5.191 -0.7149  2.1986 -0.4950
  932MOL0     H25775   6.226   9.528   5.319 -0.2127  0.3062 -0.1194
  932MOL0     H25776   6.024   9.343   5.350 -2.4461 -1.8706 -0.8878
  932MOL0     H25777   6.079   9.310   5.191 -0.2756 -3.0128  2.4176
  932MOL0     H25778   6.056   9.549   5.132 -1.1666  4.1179  0.5564
  932MOL0     H25779   6.007   9.555   5.310  0.6553 -1.9436 -0.1272
  932MOL0     H25780   5.707   9.427   5.027 -0.4621 -0.8162  0.2672
  932MOL0     H25781   5.527   9.473   4.849 -1.7192 -0.2629  2.0671
  932MOL0     H25782   5.443   9.621   4.898 -1.3079 -1.3984 -1.2720
  932MOL0     H25783   5.560   9.617   4.759 -1.6943  1.5780  0.5108
  932MOL0     H25784   5.386  10.015   4.898 -1.2204  0.9295  1.2393
  932MOL0     H25785   5.241  10.169   4.766 -0.1835  3.6862  0.9977
  932MOL0     H25786   5.413  10.548   4.670  1.6888 -0.8813 -2.1945
  932MOL0     H25787   5.410  10.480   4.512 -0.6332  0.3172 -1.3368
  932MOL0     H25788   5.144  10.587   4.639 -2.1697  1.6290 -0.7128
  932MOL0     H25789   5.247  10.678   4.528  1.1707 -1.0660  0.4155
  932MOL0     H25790   5.203  10.545   4.338  1.4043  3.1151  1.3943
  932MOL0     H25791   5.055  10.560   4.429  1.1157  1.0284  0.6916
  932MOL0     H25792   5.225  10.313   4.384 -0.5820  1.1616 -2.3660
  932MOL0     H25793   5.102  10.315   4.518 -2.5474 -1.3293 -1.0086
  932MOL0     H25794   4.925  10.334   4.361  1.0458  1.3027  0.4276
  932MOL0     H25795   4.998  10.184   4.318 -1.2341 -0.1570  0.2604
  932MOL0     H25796   5.037  10.460   4.181 -0.6191 -0.0077 -4.2970
  932MOL0     H25797   5.138  10.316   4.140 -1.8590 -3.4692 -0.7055
  932MOL0     H25798   4.839  10.349   4.131  1.5649  0.6295  2.8686
  932MOL0     H25799   4.924  10.207   4.077  1.6682  0.8110 -2.3302
  932MOL0     H25800   4.945  10.483   3.950  1.3536 -0.2364 -1.7594
  932MOL0     H25801   4.854  10.344   3.892  0.7998 -3.7171  0.5550
  932MOL0     H25802   5.585  10.389   4.670  0.7207 -0.6507  0.3837
  932MOL0     H25803   5.732  10.234   4.776 -0.4794  1.4136  0.7568
  932MOL0     H25804   5.826   9.906   5.052  0.7173 -0.3837 -2.4306
  932MOL0     H25805   5.911   9.751   5.215  0.0991  1.2959 -0.9773
  932MOL0     H25806   7.740   8.785   5.361  0.3386 -0.1745  0.6963
  932MOL0     H25807   7.982   8.792   5.281 -1.5252 -1.1905  1.0035
  932MOL0     H25808   8.323   8.569   4.905 -0.0446  0.4493 -1.6928
  932MOL0     H25809   8.563   8.648   4.834 -0.2183 -1.5590  0.5532
  932MOL0     H25810   8.598   8.880   4.691 -0.8848 -2.6582  1.6748
  932MOL0     H25811   8.668   9.025   4.761  0.6389  0.7797 -0.8983
  932MOL0     H25812   8.832   8.783   4.659  0.8969 -1.4225  1.9291
  932MOL0     H25813   8.898   8.891   4.771 -0.6105  0.5663 -0.5957
  932MOL0     H25814   8.795   8.970   4.492  0.5843 -0.9743 -0.5484
  932MOL0     H25815   8.955   8.962   4.545 -0.8590 -1.7020 -0.7904
  932MOL0     H25816   8.749   9.178   4.630  2.4095  4.2243  4.3811
  932MOL0     H25817   8.892   9.186   4.524 -1.0498  0.6034 -0.8769
  932MOL0     H25818   9.017   9.289   4.902 -0.9750 -0.8161 -0.1421
  932MOL0     H25819   8.518   9.016   5.009 -1.1800 -0.1795  1.9392
  932MOL0     H25820   8.285   8.973   5.072 -1.8778  1.1458 -1.8699
  933MOL0     O25821   1.343   4.754   4.868 -0.6355 -0.9089  0.1076
  933MOL0     C25822   1.410   4.852   4.853 -1.2890 -0.7960 -0.0461
  933MOL0     O25823   1.362   4.977   4.807  0.5895  0.4493 -0.3619
  933MOL0     C25824   1.227   4.999   4.834  0.3962 -0.4311 -0.3609
  933MOL0     C25825   1.192   5.049   4.968 -0.4807  0.4473  0.1790
  933MOL0     C25826   1.060   5.056   5.005 -0.0710 -0.1100 -0.1263
  933MOL0     C25827   0.959   5.022   4.918 -0.6974  0.8791 -0.4193
  933MOL0     O25828   0.826   5.030   4.951  0.0323  0.1823 -0.1030
  933MOL0     C25829   0.790   5.103   5.069  0.1608  0.5315  0.0239
  933MOL0     C25830   0.644   5.146   5.084  0.7468 -0.8125  0.2728
  933MOL0     C25831   0.553   5.028   5.067 -0.0484  0.0110  0.2068
  933MOL0     C25832   0.405   5.032   5.094 -0.5553 -0.8862 -0.0771
  933MOL0     C25833   0.333   5.137   5.005 -0.6055  0.5184 -0.6987
  933MOL0     C25834   0.186   5.171   5.043  0.4110  0.9609  0.5916
  933MOL0     C25835   0.132   5.276   4.943 -1.0179  0.6446 -0.0587
  933MOL0     C25836   0.000   5.336   4.968  0.2127 -0.5727 -0.4165
  933MOL0     N25837  -0.101   5.223   4.972 -0.4772 -0.3710  0.4679
  933MOL0     C25838  -0.162   5.182   4.859  0.5728  0.0549  0.4307
  933MOL0     C25839  -0.244   5.081   4.891  0.0263  0.7082 -0.9866
  933MOL0     C25840  -0.341   5.006   4.806  0.0134  0.3833  0.9499
  933MOL0     C25841  -0.277   4.896   4.720  0.1085  0.0116 -0.2206
  933MOL0     C25842  -0.203   4.795   4.811 -0.4483  0.0239 -0.7205
  933MOL0     C25843  -0.300   4.717   4.901  0.1731 -0.2573  0.1870
  933MOL0     O25844  -0.241   4.597   4.941 -0.3985  0.8769  0.1025
  933MOL0     C25845  -0.135   4.597   5.022 -0.2141  0.4898 -0.1471
  933MOL0     C25846  -0.088   4.713   5.095  0.5618  0.5604 -0.5263
  933MOL0     C25847   0.025   4.710   5.178 -0.1657 -0.5060  0.1087
  933MOL0     C25848   0.053   4.831   5.251 -0.2761  0.8142 -0.2824
  933MOL0     C25849   0.098   4.588   5.191  0.0755 -0.4203 -0.3829
  933MOL0     C25850   0.225   4.566   5.266 -1.0393 -0.1704  0.1623
  933MOL0     O25851   0.285   4.442   5.252  0.6718  0.1637 -0.4777
  933MOL0     C25852   0.413   4.423   5.300  0.2064  0.8465  0.8185
  933MOL0     C25853   0.444   4.432   5.432 -0.1214  0.5919 -0.2250
  933MOL0     C25854   0.578   4.407   5.468  0.3654  0.2108 -0.4196
  933MOL0     C25855   0.675   4.362   5.371 -0.1720 -0.2083 -0.3989
  933MOL0     O25856   0.805   4.330   5.404 -0.9937 -0.1290 -0.5619
  933MOL0     C25857   0.868   4.371   5.530 -0.2942 -0.1721 -0.1951
  933MOL0     C25858   1.015   4.350   5.493 -0.2804  0.2715  0.6281
  933MOL0     C25859   1.070   4.433   5.393 -0.0312 -1.0567  0.5464
  933MOL0     C25860   1.221   4.436   5.376  0.6351 -0.2213 -0.3450
  933MOL0     C25861   1.276   4.336   5.273 -0.9991 -0.1432  0.0022
  933MOL0     C25862   1.426   4.313   5.291 -0.7304  0.8511 -0.1050
  933MOL0     C25863   1.510   4.419   5.224  0.4033  0.1562 -0.3750
  933MOL0     C25864   1.654   4.367   5.209  1.3121  0.8677 -0.3081
  933MOL0    Cl25865   1.721   4.292   5.349 -0.0796  0.2066 -0.7290
  933MOL0     C25866   0.629   4.344   5.239 -0.6932  1.0817  1.4445
  933MOL0     C25867   0.503   4.377   5.202 -0.0309  0.2695  0.6418
  933MOL0     O25868   0.287   4.662   5.312 -0.8134 -0.6340  0.5316
  933MOL0     C25869   0.035   4.467   5.129  0.3672  0.2937 -0.1002
  933MOL0     C25870  -0.075   4.482   5.047  0.2499 -0.2345  0.3264
  933MOL0     N25871  -0.239   5.071   5.030 -0.3658 -0.1464 -0.1819
  933MOL0     N25872  -0.143   5.142   5.071 -0.0117 -0.5002 -1.2721
  933MOL0     C25873   0.994   4.977   4.790  0.9485 -0.0526 -0.0200
  933MOL0     C25874   1.125   4.966   4.746  0.4665  0.6164  0.0686
  933MOL0     C25875   1.557   4.839   4.892  0.3803 -0.4594  0.7385
  933MOL0     C25876   1.648   4.937   4.854  0.0191 -0.0586 -0.8332
  933MOL0     C25877   1.788   4.931   4.897  0.8074  0.0522  0.7550
  933MOL0     C25878   1.825   4.826   4.971 -0.2196  0.1052  0.2328
  933MOL0     O25879   1.954   4.820   5.007 -0.0207  0.5735  0.2873
  933MOL0     C25880   2.025   4.692   5.032 -0.3210  0.5064 -0.1578
  933MOL0     C25881   2.043   4.616   4.911 -0.5456 -0.4990 -0.0061
  933MOL0     C25882   2.129   4.683   4.807 -0.1382 -0.1057 -0.3725
  933MOL0     C25883   2.119   4.618   4.668  0.3247 -0.1648 -0.1044
  933MOL0     C25884   2.168   4.479   4.669 -0.5041  0.3417  0.2606
  933MOL0     C25885   2.206   4.365   4.661 -0.3708  0.6268 -0.1179
  933MOL0     C25886   1.733   4.721   5.004 -0.2893 -0.1880  0.1665
  933MOL0     C25887   1.597   4.727   4.971  0.0450  0.5961  0.0227
  933MOL0     H25888   1.270   5.057   5.043 -0.5471  0.5283  0.2379
  933MOL0     H25889   1.035   5.088   5.106  2.4859 -0.7847  0.7961
  933MOL0     H25890   0.806   5.022   5.141 -0.3281 -1.0220 -1.5273
  933MOL0     H25891   0.849   5.192   5.089 -1.7245  2.5786 -2.6627
  933MOL0     H25892   0.635   5.190   5.183  0.0966 -1.4087  0.4836
  933MOL0     H25893   0.627   5.224   5.010 -1.2514  0.0612  1.5846
  933MOL0     H25894   0.566   5.000   4.963 -1.4109 -2.3068  0.6012
  933MOL0     H25895   0.587   4.933   5.111  1.8065  0.2768 -0.5307
  933MOL0     H25896   0.352   4.939   5.072 -1.9293  0.3810 -2.6119
  933MOL0     H25897   0.397   5.056   5.200 -1.2521  1.5965 -0.6355
  933MOL0     H25898   0.392   5.229   5.004 -0.3529  0.3704  0.0468
  933MOL0     H25899   0.335   5.103   4.901 -1.7688  3.4144 -1.7903
  933MOL0     H25900   0.139   5.072   5.040  1.6679  0.3350  0.8387
  933MOL0     H25901   0.159   5.217   5.138 -3.4459 -0.1875  0.2480
  933MOL0     H25902   0.203   5.360   4.952  0.5357 -0.6822  0.5925
  933MOL0     H25903   0.134   5.230   4.844  2.8113 -0.9841  0.5883
  933MOL0     H25904  -0.020   5.419   4.900  1.7327  1.7163  1.7444
  933MOL0     H25905   0.003   5.376   5.069  1.6069  0.2553 -0.7674
  933MOL0     H25906  -0.150   5.219   4.757  1.6109  1.1745  0.9343
  933MOL0     H25907  -0.405   4.951   4.875 -1.1392 -1.0102 -1.1283
  933MOL0     H25908  -0.411   5.070   4.751 -0.2119 -0.1632  0.6016
  933MOL0     H25909  -0.209   4.944   4.650 -1.9169  0.9550 -1.6570
  933MOL0     H25910  -0.359   4.852   4.662 -0.5720  2.0007 -0.8583
  933MOL0     H25911  -0.132   4.844   4.878 -0.2658  0.5443 -1.2807
  933MOL0     H25912  -0.145   4.732   4.743 -0.8052 -1.0051 -0.0926
  933MOL0     H25913  -0.392   4.689   4.849  0.1548  1.4061 -0.7522
  933MOL0     H25914  -0.340   4.773   4.986 -1.1479 -0.4513 -0.2832
  933MOL0     H25915  -0.144   4.805   5.084  0.3571  0.1217 -4.3662
  933MOL0     H25916  -0.039   4.891   5.248 -2.5285 -2.3637 -3.0069
  933MOL0     H25917   0.074   4.798   5.353 -1.1417 -2.9111 -1.1816
  933MOL0     H25918   0.143   4.876   5.208 -0.5146  1.5863  0.0172
  933MOL0     H25919   0.366   4.458   5.504 -1.8010 -0.5384 -1.5630
  933MOL0     H25920   0.615   4.432   5.567  2.3506  0.1916 -1.0984
  933MOL0     H25921   0.841   4.470   5.567  1.7285  0.2458  0.2659
  933MOL0     H25922   0.834   4.302   5.607 -0.1018 -0.3075 -0.2303
  933MOL0     H25923   1.081   4.349   5.581 -1.3100 -1.4335  1.4188
  933MOL0     H25924   1.030   4.254   5.444  0.6078  1.5854 -1.8763
  933MOL0     H25925   1.046   4.538   5.412  4.0898 -0.3279  2.9265
  933MOL0     H25926   1.026   4.403   5.297  2.2033 -1.0678 -0.5431
  933MOL0     H25927   1.254   4.531   5.332  2.2841 -0.6077 -0.0006
  933MOL0     H25928   1.274   4.412   5.468  1.9415 -0.2493 -1.0805
  933MOL0     H25929   1.259   4.368   5.170 -0.5301 -0.5423 -0.2056
  933MOL0     H25930   1.228   4.237   5.277 -0.4705 -0.3712  1.2506
  933MOL0     H25931   1.446   4.304   5.398  1.7087 -0.4374 -0.6004
  933MOL0     H25932   1.445   4.216   5.245 -2.0427  0.1349  0.8144
  933MOL0     H25933   1.531   4.504   5.290  1.5640  0.4310 -1.0725
  933MOL0     H25934   1.473   4.451   5.126 -0.7712 -1.0159 -0.3581
  933MOL0     H25935   1.722   4.437   5.159  0.8043  0.6649 -1.3280
  933MOL0     H25936   1.633   4.291   5.133  1.2446  2.2267 -1.6956
  933MOL0     H25937   0.697   4.314   5.159 -2.0543  1.4644  0.0967
  933MOL0     H25938   0.489   4.366   5.095 -2.4666 -0.1377  0.9424
  933MOL0     H25939   0.084   4.370   5.134 -0.3247 -0.1242 -1.1180
  933MOL0     H25940  -0.115   4.398   4.991  1.1285  0.2095 -1.0121
  933MOL0     H25941   0.923   4.931   4.723  0.5125 -2.7728  2.0998
  933MOL0     H25942   1.162   4.935   4.649 -0.2748 -1.0865  0.2993
  933MOL0     H25943   1.614   5.026   4.802 -1.5857  1.1309  2.0335
  933MOL0     H25944   1.859   5.013   4.884 -0.1412  0.8326  0.3533
  933MOL0     H25945   2.120   4.718   5.079  1.3582 -2.3214 -1.7422
  933MOL0     H25946   1.984   4.634   5.115  0.4704  0.6338  0.3332
  933MOL0     H25947   1.941   4.588   4.881 -1.8613 -0.4294  3.8758
  933MOL0     H25948   2.084   4.518   4.937  0.8130  0.4191  1.5059
  933MOL0     H25949   2.231   4.688   4.845  0.5697 -0.5164 -2.1248
  933MOL0     H25950   2.088   4.784   4.800 -0.5178 -0.2192  0.1197
  933MOL0     H25951   2.179   4.676   4.598  0.8561 -0.4726  0.0891
  933MOL0     H25952   2.016   4.635   4.638  0.3699  5.0940  1.7534
  933MOL0     H25953   2.237   4.263   4.655 -1.1092  0.3925 -0.0100
  933MOL0     H25954   1.768   4.635   5.060 -0.2561 -0.6591 -0.5537
  933MOL0     H25955   1.515   4.662   4.997 -1.4567  2.7336  0.9489
  934MOL0     O25956   6.687   9.947   4.330 -0.0649  0.0065  0.1117
  934MOL0     C25957   6.637  10.009   4.424 -0.1083  0.5117  0.4621
  934MOL0     O25958   6.709  10.076   4.526  0.1924 -0.4246  0.9166
  934MOL0     C25959   6.842  10.049   4.551 -0.7958  0.1672  0.4081
  934MOL0     C25960   6.925   9.956   4.494  1.0295 -0.3694 -0.5728
  934MOL0     C25961   7.047   9.930   4.549 -0.1072 -0.4088  0.7001
  934MOL0     C25962   7.106  10.007   4.649 -0.0071  0.2570 -0.2060
  934MOL0     O25963   7.234   9.994   4.694  0.4817  0.0260 -0.3378
  934MOL0     C25964   7.316   9.886   4.640 -0.8669 -1.3736 -0.9014
  934MOL0     C25965   7.450   9.881   4.700 -0.5161  0.6286  0.9096
  934MOL0     C25966   7.550   9.986   4.666 -0.0653  0.3296 -0.4373
  934MOL0     C25967   7.701   9.951   4.671 -0.0163  0.6812  0.0242
  934MOL0     C25968   7.753   9.887   4.800 -0.6751  0.3062 -0.6078
  934MOL0     C25969   7.908   9.890   4.797 -0.1424  0.2878 -1.0470
  934MOL0     C25970   7.967   9.815   4.919 -0.5760  0.2936  0.4723
  934MOL0     C25971   8.120   9.830   4.925  0.1382  1.2159 -0.3070
  934MOL0     N25972   8.174   9.789   5.056  0.1217 -0.6825  0.5580
  934MOL0     C25973   8.185   9.860   5.176  0.5656  0.2299 -0.0831
  934MOL0     C25974   8.228   9.764   5.262 -0.3942 -0.4148  0.2664
  934MOL0     C25975   8.241   9.794   5.410  0.2929 -0.6779  0.0143
  934MOL0     C25976   8.097   9.772   5.468 -0.0602 -0.2810  0.4072
  934MOL0     C25977   8.114   9.792   5.621 -0.4246 -0.5833  0.0275
  934MOL0     C25978   7.980   9.788   5.698  0.2189 -0.5971 -0.2109
  934MOL0     O25979   7.911   9.674   5.675  0.6407 -0.6978  0.5535
  934MOL0     C25980   7.784   9.674   5.732 -0.4777 -1.2967 -0.2160
  934MOL0     C25981   7.718   9.773   5.813 -0.1615 -1.3325  0.6939
  934MOL0     C25982   7.584   9.768   5.852 -0.9913 -0.2153 -0.3538
  934MOL0     C25983   7.528   9.900   5.918 -0.3854 -0.0587 -0.0167
  934MOL0     C25984   7.509   9.655   5.820 -0.4527 -0.2556 -0.2069
  934MOL0     C25985   7.362   9.649   5.849  0.0904  0.4780  0.1036
  934MOL0     O25986   7.318   9.715   5.961 -0.1031 -0.3886  0.1171
  934MOL0     C25987   7.186   9.719   5.987 -0.3088  0.2935  0.2099
  934MOL0     C25988   7.106   9.827   5.939 -0.1760 -0.6749 -0.3972
  934MOL0     C25989   6.968   9.840   5.971 -0.7556  0.1626  0.7385
  934MOL0     C25990   6.907   9.748   6.059  0.5200 -0.5261 -0.4376
  934MOL0     O25991   6.775   9.771   6.086  0.2191  0.3990  0.8541
  934MOL0     C25992   6.695   9.655   6.062 -0.9105  0.0021  0.4013
  934MOL0     C25993   6.548   9.691   6.060  0.5509  0.0845  0.0708
  934MOL0     C25994   6.457   9.568   6.055 -0.2458 -0.0273 -0.3331
  934MOL0     C25995   6.307   9.603   6.047 -0.4678  0.0053  0.1248
  934MOL0     C25996   6.240   9.678   6.168 -0.6514  0.8664 -0.4131
  934MOL0     C25997   6.263   9.613   6.300  0.5717  0.5070 -0.3438
  934MOL0     C25998   6.208   9.471   6.314  1.0770  0.1795  1.2553
  934MOL0     C25999   6.223   9.413   6.451  0.3171 -0.8743 -0.1777
  934MOL0    Cl26000   6.151   9.528   6.568 -0.0364  0.3059  0.2869
  934MOL0     C26001   6.993   9.648   6.116  1.0626  0.1799 -0.0958
  934MOL0     C26002   7.129   9.637   6.085 -0.5352  0.8964  0.9182
  934MOL0     O26003   7.301   9.560   5.787  0.4188 -0.1373  0.1308
  934MOL0     C26004   7.567   9.553   5.748  0.3512  0.5268  0.0255
  934MOL0     C26005   7.698   9.569   5.682 -0.2275  0.8648 -0.2120
  934MOL0     N26006   8.244   9.639   5.195  0.3883 -0.1629 -0.7703
  934MOL0     N26007   8.207   9.661   5.074  0.3346  0.6063 -1.1079
  934MOL0     C26008   7.036  10.119   4.697 -0.6929  0.3868  0.0381
  934MOL0     C26009   6.903  10.133   4.647 -0.6775  0.6520  0.1119
  934MOL0     C26010   6.491  10.010   4.425  0.7410  0.7521 -0.5138
  934MOL0     C26011   6.423  10.068   4.543 -0.9417  0.4682  0.0621
  934MOL0     C26012   6.282  10.058   4.553  0.1285  0.6309 -0.6516
  934MOL0     C26013   6.204   9.979   4.467  0.1024 -0.1610  0.1789
  934MOL0     O26014   6.066   9.960   4.467 -0.4428  0.4083  0.5013
  934MOL0     C26015   5.986  10.060   4.529 -0.2045  0.7189 -0.1338
  934MOL0     C26016   5.846  10.058   4.467 -0.0769  0.1138 -0.2602
  934MOL0     C26017   5.763   9.938   4.512 -0.5775 -0.1016  0.5296
  934MOL0     C26018   5.622   9.961   4.448  0.2405 -0.4743  0.7090
  934MOL0     C26019   5.614   9.922   4.305  0.4883 -0.3354  1.0594
  934MOL0     C26020   5.619   9.874   4.191 -0.8382  0.7021  0.2363
  934MOL0     C26021   6.278   9.925   4.367  0.9859 -0.0580 -0.3655
  934MOL0     C26022   6.409   9.945   4.327 -0.1032 -0.4529 -0.4662
  934MOL0     H26023   6.883   9.901   4.410 -0.7645 -1.2601  0.8473
  934MOL0     H26024   7.110   9.857   4.498  1.7799  0.5774  1.5063
  934MOL0     H26025   7.275   9.788   4.667 -0.4723 -0.7209  2.5335
  934MOL0     H26026   7.326   9.900   4.533 -0.6313  0.2846 -0.6902
  934MOL0     H26027   7.441   9.864   4.808  2.5644 -0.1323  1.1289
  934MOL0     H26028   7.498   9.793   4.659  0.0466 -0.5565  3.8625
  934MOL0     H26029   7.523  10.029   4.569 -0.8025  2.4518  0.6530
  934MOL0     H26030   7.537  10.062   4.744  0.5428 -0.5266  0.5265
  934MOL0     H26031   7.724   9.893   4.581 -1.4448  1.2615 -0.7527
  934MOL0     H26032   7.739  10.052   4.659 -2.3268  1.5325 -0.6497
  934MOL0     H26033   7.726   9.938   4.893  0.6678 -0.6194  0.3244
  934MOL0     H26034   7.710   9.787   4.804 -0.8084  0.4070  0.9774
  934MOL0     H26035   7.945   9.849   4.703 -2.0513 -3.5777 -0.3160
  934MOL0     H26036   7.939   9.994   4.810  3.3678 -0.9872  3.0712
  934MOL0     H26037   7.918   9.859   5.006  0.6116  0.8604  0.8783
  934MOL0     H26038   7.938   9.712   4.897  1.9292 -0.3448 -0.0998
  934MOL0     H26039   8.158   9.931   4.903  0.2052  1.1914 -0.3086
  934MOL0     H26040   8.169   9.767   4.849  2.2548  1.8798  0.4249
  934MOL0     H26041   8.167   9.967   5.181 -2.3930 -0.1190 -1.0709
  934MOL0     H26042   8.314   9.724   5.451  0.9612  0.8199  1.4728
  934MOL0     H26043   8.271   9.894   5.443  1.9004 -1.5279  1.2099
  934MOL0     H26044   8.042   9.683   5.438 -0.3632 -0.2274  0.8044
  934MOL0     H26045   8.031   9.852   5.433  0.3194  0.3577  1.1261
  934MOL0     H26046   8.162   9.889   5.641 -1.4346 -0.1732  0.5623
  934MOL0     H26047   8.175   9.717   5.672 -1.8040 -2.2726 -0.7271
  934MOL0     H26048   7.918   9.874   5.671  0.3269 -0.6043 -0.4794
  934MOL0     H26049   8.008   9.808   5.802  1.1862  1.4747 -0.8131
  934MOL0     H26050   7.772   9.864   5.835 -0.7243 -1.1478  1.3457
  934MOL0     H26051   7.502   9.900   6.024 -3.1075  1.6513 -0.5792
  934MOL0     H26052   7.598   9.984   5.908 -0.2973  0.1713  2.0336
  934MOL0     H26053   7.434   9.935   5.875  0.0991  0.4853 -0.6585
  934MOL0     H26054   7.165   9.903   5.889 -0.1999 -0.4854 -0.1394
  934MOL0     H26055   6.896   9.918   5.948 -0.7850 -0.4258 -1.3274
  934MOL0     H26056   6.730   9.612   5.968 -0.3119  0.6274  0.3339
  934MOL0     H26057   6.712   9.577   6.137 -0.6015  0.2048  0.5482
  934MOL0     H26058   6.521   9.742   6.153  0.1810 -0.7327  0.4243
  934MOL0     H26059   6.528   9.746   5.967  1.0387 -1.7323 -1.1603
  934MOL0     H26060   6.472   9.527   6.156 -2.4771  1.1293  0.5558
  934MOL0     H26061   6.483   9.508   5.968 -2.1254 -0.0150 -0.9574
  934MOL0     H26062   6.297   9.658   5.953  0.6311 -1.2593 -0.7765
  934MOL0     H26063   6.251   9.511   6.028 -1.4021  0.8584 -1.3951
  934MOL0     H26064   6.131   9.683   6.158 -1.1157 -0.4762  2.7345
  934MOL0     H26065   6.290   9.776   6.169 -0.0577  0.5751 -0.7175
  934MOL0     H26066   6.366   9.614   6.336 -0.7456  1.2125  3.9851
  934MOL0     H26067   6.203   9.680   6.363 -0.2726  0.3391 -0.9495
  934MOL0     H26068   6.249   9.407   6.236 -0.8453  1.2525 -0.7253
  934MOL0     H26069   6.099   9.473   6.307  1.1481  1.7924  0.0951
  934MOL0     H26070   6.322   9.380   6.486  0.2777  1.1082  2.0255
  934MOL0     H26071   6.161   9.323   6.445  0.3906 -0.9882  0.6908
  934MOL0     H26072   6.946   9.571   6.177 -0.0398 -0.1555 -1.3224
  934MOL0     H26073   7.184   9.553   6.125 -0.8259  0.5655  0.6318
  934MOL0     H26074   7.506   9.468   5.721  0.0025  0.9922 -0.6707
  934MOL0     H26075   7.752   9.496   5.622 -0.2521  0.4110  0.3005
  934MOL0     H26076   7.085  10.186   4.767  0.8541 -0.0210 -0.5977
  934MOL0     H26077   6.853  10.212   4.703 -1.5973 -0.5008  0.9657
  934MOL0     H26078   6.481  10.120   4.618  4.7133 -1.0934 -2.6999
  934MOL0     H26079   6.228  10.104   4.636  1.2216 -1.2499  1.1994
  934MOL0     H26080   5.984  10.050   4.638 -1.1592  0.0114 -0.2113
  934MOL0     H26081   6.019  10.161   4.502  0.5040 -0.1909 -3.1058
  934MOL0     H26082   5.855  10.058   4.358  4.4736  1.6508 -0.0714
  934MOL0     H26083   5.793  10.151   4.489 -0.7054 -0.6149  1.4651
  934MOL0     H26084   5.734   9.941   4.617 -3.6254 -1.9568 -0.1480
  934MOL0     H26085   5.812   9.845   4.482  1.0403  1.1743 -1.0027
  934MOL0     H26086   5.576  10.060   4.463  0.4173 -0.6125  2.3219
  934MOL0     H26087   5.555   9.901   4.510 -1.0933 -0.4128 -0.6335
  934MOL0     H26088   5.640   9.802   4.114 -3.7684  0.8725 -0.8467
  934MOL0     H26089   6.214   9.872   4.296 -1.1023  1.8529 -0.0352
  934MOL0     H26090   6.450   9.897   4.238  0.9805  2.2344 -1.5159
  935MOL0     O26091   0.071  10.534   5.357  0.2730 -0.2325 -0.2829
  935MOL0     C26092   0.046  10.412   5.381 -0.3607  0.2225 -0.4606
  935MOL0     O26093  -0.081  10.360   5.362 -0.4703 -1.0369  0.2869
  935MOL0     C26094  -0.182  10.449   5.339  0.4054 -0.3330 -0.0876
  935MOL0     C26095  -0.248  10.515   5.452 -0.2565  0.9280  1.0383
  935MOL0     C26096  -0.341  10.613   5.426 -0.1508  0.0565 -0.3146
  935MOL0     C26097  -0.384  10.649   5.288 -0.8614 -0.6098 -0.4006
  935MOL0     O26098  -0.473  10.744   5.244 -0.6375  0.2660 -0.9218
  935MOL0     C26099  -0.593  10.743   5.314  0.9801 -0.2269 -0.8525
  935MOL0     C26100  -0.684  10.629   5.282  0.9169  0.3219  0.7121
  935MOL0     C26101  -0.807  10.615   5.363 -0.3480 -0.3109  0.0096
  935MOL0     C26102  -0.865  10.744   5.416 -0.2698 -0.2809  0.7950
  935MOL0     C26103  -1.016  10.715   5.451  0.2868  0.5560  0.7004
  935MOL0     C26104  -1.098  10.842   5.455  0.3573  1.0974 -0.1158
  935MOL0     C26105  -1.238  10.824   5.521 -0.2041 -0.6297 -0.2996
  935MOL0     C26106  -1.302  10.961   5.549  0.3677 -0.9442  0.0253
  935MOL0     N26107  -1.453  10.954   5.584 -0.9457  0.6232 -0.3471
  935MOL0     C26108  -1.503  10.889   5.693 -0.2883 -0.0908 -0.3501
  935MOL0     C26109  -1.635  10.880   5.672 -0.4382 -0.1525 -0.5141
  935MOL0     C26110  -1.733  10.820   5.769  0.3580 -1.0410  0.0611
  935MOL0     C26111  -1.764  10.921   5.887 -0.3802 -0.3893  0.1815
  935MOL0     C26112  -1.902  10.993   5.885  0.5769 -0.1778 -0.2594
  935MOL0     C26113  -2.009  10.906   5.941  0.1299  0.1112 -0.4691
  935MOL0     O26114  -2.127  10.983   5.940  1.0636 -0.3363  0.4756
  935MOL0     C26115  -2.235  10.910   5.986 -0.3136  0.1466 -0.7923
  935MOL0     C26116  -2.271  10.784   5.938  0.1328  0.4043 -0.2165
  935MOL0     C26117  -2.391  10.725   5.978  0.5598  0.3066 -0.0513
  935MOL0     C26118  -2.433  10.600   5.912 -0.0610  0.3610  0.1727
  935MOL0     C26119  -2.469  10.794   6.064 -0.4950  0.2103 -0.0326
  935MOL0     C26120  -2.600  10.752   6.099 -0.2966  0.1927 -0.0088
  935MOL0     O26121  -2.618  10.667   6.204 -0.8962  0.3858 -0.4026
  935MOL0     C26122  -2.744  10.620   6.238 -0.1390 -0.5251 -0.2114
  935MOL0     C26123  -2.819  10.542   6.152  0.1474  0.6599  0.3474
  935MOL0     C26124  -2.938  10.489   6.195 -0.1018 -0.1716  0.0301
  935MOL0     C26125  -2.992  10.523   6.319  0.7567 -0.8355 -0.8990
  935MOL0     O26126  -3.109  10.462   6.376 -0.6729 -0.3536  0.7817
  935MOL0     C26127  -3.223  10.446   6.277  0.0449  0.0977 -0.1114
  935MOL0     C26128  -3.353  10.414   6.343 -0.4500 -0.8280 -0.4242
  935MOL0     C26129  -3.407  10.537   6.417 -0.2497 -0.0659  0.4085
  935MOL0     C26130  -3.526  10.590   6.333 -0.8134  0.2818  0.8483
  935MOL0     C26131  -3.564  10.735   6.369  0.7251  0.2815  0.8261
  935MOL0     C26132  -3.674  10.794   6.273 -0.1026  0.9120 -0.3884
  935MOL0     C26133  -3.814  10.739   6.304 -0.5783 -0.1105 -0.0287
  935MOL0     C26134  -3.924  10.823   6.224 -0.3432  0.5539  0.3926
  935MOL0    Cl26135  -4.086  10.771   6.259  0.1162  0.3693 -0.0424
  935MOL0     C26136  -2.916  10.608   6.401  0.4487 -0.1217  0.6212
  935MOL0     C26137  -2.795  10.654   6.359 -0.1738 -0.1018 -0.1805
  935MOL0     O26138  -2.691  10.787   6.024  0.0652 -0.3987  0.2697
  935MOL0     C26139  -2.434  10.921   6.118  0.5805 -0.0504  0.4130
  935MOL0     C26140  -2.320  10.975   6.084  0.5393  0.0647  0.4768
  935MOL0     N26141  -1.667  10.944   5.553 -0.3162  0.1297 -0.6057
  935MOL0     N26142  -1.555  10.977   5.499  0.2052  0.3643  0.2174
  935MOL0     C26143  -0.320  10.578   5.186  0.1072  0.6342 -0.2735
  935MOL0     C26144  -0.232  10.477   5.210 -0.8064  0.1391 -0.2209
  935MOL0     C26145   0.159  10.315   5.423  0.4919 -0.5258  0.0990
  935MOL0     C26146   0.129  10.185   5.474  0.6883  0.1617 -0.1726
  935MOL0     C26147   0.227  10.105   5.522 -1.7140  0.5616  1.3418
  935MOL0     C26148   0.361  10.143   5.531  0.0672 -0.4515  0.0929
  935MOL0     O26149   0.445  10.063   5.599  0.1567  0.1174 -0.4624
  935MOL0     C26150   0.583  10.070   5.570 -0.7950 -0.1811 -0.1235
  935MOL0     C26151   0.672   9.959   5.642  0.1899 -0.4008  0.0928
  935MOL0     C26152   0.820   9.952   5.605  0.4612  0.7945 -0.2817
  935MOL0     C26153   0.884  10.087   5.555  1.0478  0.0159 -0.0529
  935MOL0     C26154   1.031  10.087   5.569 -0.1283  0.1537 -0.5805
  935MOL0     C26155   1.151  10.083   5.571 -0.4099 -0.6370  0.1235
  935MOL0     C26156   0.395  10.269   5.483  0.5139 -0.4635 -0.2939
  935MOL0     C26157   0.302  10.350   5.422  1.2061 -0.2593  0.6379
  935MOL0     H26158  -0.208  10.485   5.548 -1.5322 -3.3715  0.4369
  935MOL0     H26159  -0.386  10.660   5.513  2.9228  2.6343  0.0382
  935MOL0     H26160  -0.569  10.735   5.421  0.9122 -2.1244 -0.9455
  935MOL0     H26161  -0.646  10.837   5.297  0.9162  0.0249  0.6064
  935MOL0     H26162  -0.708  10.639   5.176  2.7650  3.4629  0.4606
  935MOL0     H26163  -0.630  10.534   5.285  0.2727 -0.2692 -2.8570
  935MOL0     H26164  -0.882  10.554   5.311  0.2476  0.7891 -2.2609
  935MOL0     H26165  -0.780  10.546   5.444 -1.8782 -1.5096 -0.4331
  935MOL0     H26166  -0.804  10.781   5.500 -2.0027  1.6864  1.2637
  935MOL0     H26167  -0.869  10.813   5.331 -0.3288 -1.5550 -0.2654
  935MOL0     H26168  -1.051  10.650   5.370  0.9510  0.0412  0.8195
  935MOL0     H26169  -1.028  10.668   5.549 -0.7157 -1.0849 -0.1475
  935MOL0     H26170  -1.035  10.914   5.508  2.2744  0.4170 -1.3378
  935MOL0     H26171  -1.120  10.872   5.352 -1.3581  3.0372  0.7484
  935MOL0     H26172  -1.288  10.769   5.441  3.1424 -4.0143 -0.3909
  935MOL0     H26173  -1.245  10.761   5.610  2.0447 -2.0746 -1.0380
  935MOL0     H26174  -1.286  11.034   5.469  2.1172 -1.2072  0.0925
  935MOL0     H26175  -1.245  11.009   5.629  3.4255 -1.2497 -1.8222
  935MOL0     H26176  -1.454  10.835   5.773  1.3871 -1.4713 -2.2084
  935MOL0     H26177  -1.828  10.795   5.720  0.2671 -1.5688  0.4907
  935MOL0     H26178  -1.680  10.729   5.801  1.1073 -0.6971 -0.1885
  935MOL0     H26179  -1.691  11.002   5.889 -1.6877  0.8084  1.6067
  935MOL0     H26180  -1.747  10.876   5.986  0.1090  0.2264  0.3804
  935MOL0     H26181  -1.929  11.011   5.780  0.3945 -0.0096 -0.1830
  935MOL0     H26182  -1.905  11.093   5.929 -2.8558 -0.5913  0.7363
  935MOL0     H26183  -1.996  10.874   6.044  1.2397  2.4909  0.2125
  935MOL0     H26184  -2.017  10.815   5.881 -0.9402 -1.4609  1.9551
  935MOL0     H26185  -2.211  10.750   5.854 -1.8605  0.9308 -1.9590
  935MOL0     H26186  -2.536  10.608   5.875  0.6937  0.8100 -1.9202
  935MOL0     H26187  -2.376  10.580   5.822  0.6637  0.6247  0.5673
  935MOL0     H26188  -2.421  10.512   5.975  3.4792 -0.4239 -1.3776
  935MOL0     H26189  -2.779  10.534   6.051 -0.4586 -2.2771  0.2476
  935MOL0     H26190  -3.004  10.420   6.143  2.1599  0.0089 -3.3873
  935MOL0     H26191  -3.232  10.543   6.227  0.0187  1.0776  1.6997
  935MOL0     H26192  -3.196  10.361   6.214  1.3133  0.0647  0.4455
  935MOL0     H26193  -3.431  10.379   6.275  0.0341  0.8119 -1.9182
  935MOL0     H26194  -3.340  10.335   6.417 -0.6228 -1.0204 -0.5971
  935MOL0     H26195  -3.335  10.618   6.427 -0.8973  0.6088 -0.2745
  935MOL0     H26196  -3.437  10.511   6.520 -0.7420  0.8490  0.5065
  935MOL0     H26197  -3.495  10.605   6.229 -0.3494  2.4230  1.2284
  935MOL0     H26198  -3.613  10.525   6.342  2.3029 -4.1689  2.2263
  935MOL0     H26199  -3.475  10.798   6.366  0.1309  1.1286 -0.5847
  935MOL0     H26200  -3.603  10.735   6.471 -2.7959 -0.6743 -0.3651
  935MOL0     H26201  -3.666  10.901   6.292 -0.3900  0.8863 -0.1084
  935MOL0     H26202  -3.646  10.784   6.168  2.2546  0.2154  0.2370
  935MOL0     H26203  -3.835  10.754   6.411 -1.4180 -1.3546  0.0033
  935MOL0     H26204  -3.828  10.636   6.271  0.2420  0.7389 -3.4193
  935MOL0     H26205  -3.911  10.782   6.124  0.3519  0.4419  0.5190
  935MOL0     H26206  -3.912  10.931   6.242  0.1636  0.0869  3.5477
  935MOL0     H26207  -2.950  10.619   6.503 -1.9299 -2.0457  0.1282
  935MOL0     H26208  -2.738  10.724   6.420  2.6855 -1.1899 -1.4084
  935MOL0     H26209  -2.504  10.963   6.189  0.7833 -0.7174  1.0162
  935MOL0     H26210  -2.291  11.075   6.116  2.0445  0.7517 -2.6683
  935MOL0     H26211  -0.349  10.604   5.084  0.0959  1.4401 -0.0716
  935MOL0     H26212  -0.186  10.421   5.129 -3.7662 -2.8353 -0.0644
  935MOL0     H26213   0.026  10.151   5.470  0.7591 -0.1072  0.3077
  935MOL0     H26214   0.206  10.011   5.573  0.8854  0.1028  1.7032
  935MOL0     H26215   0.604  10.051   5.464  2.2685  0.2580  0.3075
  935MOL0     H26216   0.618  10.168   5.601 -1.1201 -0.3888  0.9281
  935MOL0     H26217   0.624   9.862   5.626 -1.6514  0.6140 -0.8844
  935MOL0     H26218   0.675   9.975   5.750  1.3307 -2.6786  0.4574
  935MOL0     H26219   0.829   9.880   5.523 -3.2378  1.4432 -1.4710
  935MOL0     H26220   0.867   9.919   5.698 -1.9328  1.3415  1.2286
  935MOL0     H26221   0.858  10.174   5.617 -0.8748  0.4335 -1.3586
  935MOL0     H26222   0.847  10.107   5.454 -0.2247 -0.4707  0.3050
  935MOL0     H26223   1.257  10.068   5.574 -0.0529  0.9140 -2.3362
  935MOL0     H26224   0.496  10.303   5.505  0.5419 -0.8695  0.2371
  935MOL0     H26225   0.335  10.440   5.371 -3.9190  0.9785 -1.0537
  936MOL0     O26226   1.197   4.120   2.841 -0.0541  0.3796  0.9097
  936MOL0     C26227   1.292   4.181   2.882  0.3669  0.1312 -0.2476
  936MOL0     O26228   1.322   4.210   3.008  1.2220  0.7289  0.2162
  936MOL0     C26229   1.230   4.183   3.112 -0.7329  0.4132  0.4416
  936MOL0     C26230   1.296   4.164   3.233  0.1538  0.3660 -0.8700
  936MOL0     C26231   1.224   4.159   3.352  0.3665  0.9774  0.7687
  936MOL0     C26232   1.082   4.149   3.351 -0.0373 -0.2207  0.1366
  936MOL0     O26233   1.015   4.129   3.458 -0.4791  0.6490 -0.1091
  936MOL0     C26234   1.086   4.092   3.573  0.2236  0.2317 -0.3756
  936MOL0     C26235   0.985   4.071   3.687 -0.2599 -0.3947 -0.4118
  936MOL0     C26236   0.859   3.990   3.649 -0.3168  0.1546  0.4889
  936MOL0     C26237   0.878   3.857   3.580  0.4029  0.1325 -0.0606
  936MOL0     C26238   0.967   3.759   3.657  0.4063  0.8022  0.1468
  936MOL0     C26239   0.908   3.723   3.799  0.0621 -0.3399 -0.1578
  936MOL0     C26240   1.014   3.630   3.866  1.1659 -1.1229  0.4965
  936MOL0     C26241   0.978   3.597   4.009  0.2983 -0.7134 -0.0708
  936MOL0     N26242   1.013   3.462   4.042  0.2735  0.4969 -0.0991
  936MOL0     C26243   0.947   3.341   3.995 -1.0895  0.8085  0.1101
  936MOL0     C26244   1.007   3.237   4.062 -0.1027 -0.6612 -0.2154
  936MOL0     C26245   0.955   3.097   4.054 -0.3559 -0.2469  0.8941
  936MOL0     C26246   0.868   3.062   4.173  0.5209 -0.0572 -0.4701
  936MOL0     C26247   0.805   2.931   4.134 -0.3129  0.0680 -0.0167
  936MOL0     C26248   0.717   2.858   4.234  0.1767  0.1146 -0.3698
  936MOL0     O26249   0.584   2.904   4.229 -0.1522  0.1601 -1.5636
  936MOL0     C26250   0.497   2.877   4.328 -0.6489  0.9678  0.4202
  936MOL0     C26251   0.411   2.969   4.360  0.7833 -0.0622  0.2503
  936MOL0     C26252   0.293   2.950   4.446 -0.6096  0.1459 -0.2943
  936MOL0     C26253   0.210   3.080   4.466 -0.0610 -0.4810  0.3985
  936MOL0     C26254   0.275   2.826   4.504 -0.4504  0.6719 -1.5252
  936MOL0     C26255   0.146   2.784   4.569 -0.2610  0.6033 -1.0845
  936MOL0     O26256   0.142   2.649   4.586 -0.0767  0.2633 -0.1883
  936MOL0     C26257   0.036   2.591   4.644 -0.6989  0.0836 -0.7118
  936MOL0     C26258  -0.098   2.622   4.612  0.6301 -0.3704  0.3205
  936MOL0     C26259  -0.207   2.562   4.685 -0.5132 -0.3561  0.6977
  936MOL0     C26260  -0.187   2.457   4.771  0.5580 -1.2152 -0.2281
  936MOL0     O26261  -0.285   2.391   4.834  1.0677  0.2280  0.3248
  936MOL0     C26262  -0.352   2.467   4.933  0.4851  0.0039 -0.5701
  936MOL0     C26263  -0.493   2.413   4.967 -0.2836  0.2217  0.5062
  936MOL0     C26264  -0.563   2.494   5.079 -0.0527 -0.0683 -0.9335
  936MOL0     C26265  -0.707   2.436   5.099  0.3776  0.1469 -0.7937
  936MOL0     C26266  -0.789   2.529   5.188  0.1080  0.5298 -0.7393
  936MOL0     C26267  -0.738   2.520   5.336  0.3761 -0.7142  0.7039
  936MOL0     C26268  -0.811   2.624   5.422  0.2761 -0.5175  0.1607
  936MOL0     C26269  -0.815   2.608   5.578 -0.1684  0.4141  0.5445
  936MOL0    Cl26270  -0.650   2.540   5.608  0.2712  0.2127  0.2081
  936MOL0     C26271  -0.050   2.428   4.795 -0.2144  0.1855 -0.7498
  936MOL0     C26272   0.061   2.491   4.738  0.3083  0.7357 -0.1091
  936MOL0     O26273   0.059   2.859   4.605 -0.0405 -0.0906  0.1743
  936MOL0     C26274   0.382   2.730   4.488  0.2494 -0.0375  0.3390
  936MOL0     C26275   0.489   2.759   4.401  0.4569  0.1644 -0.2122
  936MOL0     N26276   1.103   3.290   4.138  0.1426 -0.7456  0.0610
  936MOL0     N26277   1.107   3.421   4.136  0.2066 -0.2345  0.2665
  936MOL0     C26278   1.018   4.137   3.227 -0.5140 -0.0799 -0.8404
  936MOL0     C26279   1.092   4.164   3.108  0.3017 -0.4193 -0.1775
  936MOL0     C26280   1.387   4.220   2.774  0.1112 -0.5510 -0.5189
  936MOL0     C26281   1.363   4.193   2.644 -0.5288 -0.3817 -0.2517
  936MOL0     C26282   1.469   4.218   2.547  1.1302 -0.0398 -0.5828
  936MOL0     C26283   1.590   4.263   2.588 -0.5873 -0.3813  1.0908
  936MOL0     O26284   1.682   4.289   2.487  0.0149  0.2942 -0.0579
  936MOL0     C26285   1.816   4.340   2.512 -1.2402  0.8595 -0.2216
  936MOL0     C26286   1.915   4.225   2.504 -0.8141 -0.0467  0.1312
  936MOL0     C26287   2.061   4.274   2.471  0.2347  0.5058 -0.1578
  936MOL0     C26288   2.120   4.391   2.560 -0.0557 -0.0564 -0.5729
  936MOL0     C26289   2.103   4.356   2.701  0.4372 -0.9085  0.3130
  936MOL0     C26290   2.079   4.327   2.814  0.5230  0.8707 -0.0285
  936MOL0     C26291   1.599   4.296   2.725 -0.6964  0.4566  0.8030
  936MOL0     C26292   1.500   4.278   2.810 -0.3678  0.8056 -0.2741
  936MOL0     H26293   1.405   4.158   3.240 -0.0063 -3.7721  2.8916
  936MOL0     H26294   1.280   4.175   3.444  0.4217 -0.3867  1.0052
  936MOL0     H26295   1.153   4.005   3.569 -2.1699 -1.8662  1.6178
  936MOL0     H26296   1.145   4.176   3.609 -1.2475  0.4645  1.6864
  936MOL0     H26297   1.024   4.031   3.782 -0.3167  1.0559  0.2393
  936MOL0     H26298   0.951   4.170   3.718  1.8375 -0.2436  1.6907
  936MOL0     H26299   0.789   3.979   3.733 -0.8048 -1.8855 -0.1264
  936MOL0     H26300   0.804   4.049   3.574 -1.0640 -1.2096 -0.0749
  936MOL0     H26301   0.783   3.809   3.558  1.2774 -1.0718 -1.4222
  936MOL0     H26302   0.921   3.887   3.484  2.2517  2.0565  1.2858
  936MOL0     H26303   0.962   3.665   3.601  1.7020 -0.9014  2.7003
  936MOL0     H26304   1.072   3.788   3.666  0.1586  1.6045  0.5557
  936MOL0     H26305   0.893   3.812   3.861  0.7439  0.6054 -1.2818
  936MOL0     H26306   0.807   3.680   3.795 -0.7264  1.4481 -0.7896
  936MOL0     H26307   1.012   3.539   3.805 -0.8199 -1.0062  0.2988
  936MOL0     H26308   1.115   3.671   3.863  1.8554 -2.7665 -0.4190
  936MOL0     H26309   0.869   3.602   4.018  0.2428 -1.4360 -0.2671
  936MOL0     H26310   1.024   3.668   4.077  0.6461 -0.3541 -0.6712
  936MOL0     H26311   0.856   3.324   3.938 -0.2973 -0.1133 -0.9333
  936MOL0     H26312   0.896   3.089   3.963  1.1338 -1.9411  0.0282
  936MOL0     H26313   1.039   3.028   4.043  0.4960  0.7452  1.0157
  936MOL0     H26314   0.790   3.133   4.200  0.2168 -0.6280  0.1622
  936MOL0     H26315   0.930   3.054   4.263  3.2256  4.9360 -1.4982
  936MOL0     H26316   0.886   2.863   4.108 -0.0370 -0.0834  1.1864
  936MOL0     H26317   0.747   2.944   4.043  0.5459  1.3836 -0.4005
  936MOL0     H26318   0.744   2.873   4.340  0.1922  0.7209 -0.4544
  936MOL0     H26319   0.733   2.754   4.206  2.2236 -0.9292  3.7769
  936MOL0     H26320   0.417   3.066   4.310  0.4064  0.0939  0.5118
  936MOL0     H26321   0.141   3.104   4.384 -0.0488 -0.2494  0.4548
  936MOL0     H26322   0.147   3.090   4.555 -2.2218  1.0074 -1.1916
  936MOL0     H26323   0.286   3.159   4.468 -0.5176 -0.0488  1.2138
  936MOL0     H26324  -0.119   2.699   4.538 -0.4643 -1.6358 -0.7310
  936MOL0     H26325  -0.312   2.588   4.679 -0.3178  0.0950 -2.1847
  936MOL0     H26326  -0.292   2.465   5.024 -0.2212 -0.5106 -0.1006
  936MOL0     H26327  -0.359   2.571   4.898 -0.3032 -0.2300 -1.1342
  936MOL0     H26328  -0.564   2.407   4.884 -1.0749  0.5560  1.1467
  936MOL0     H26329  -0.490   2.313   5.012 -0.3767  0.7392  1.6839
  936MOL0     H26330  -0.574   2.598   5.047 -1.1821 -0.1352 -0.8151
  936MOL0     H26331  -0.504   2.504   5.170 -0.4892  0.6759 -0.7241
  936MOL0     H26332  -0.764   2.430   5.007 -2.2057 -2.6856  0.8078
  936MOL0     H26333  -0.710   2.337   5.145 -0.2249  1.6310  2.7626
  936MOL0     H26334  -0.893   2.494   5.197  0.0777  1.1219  2.2632
  936MOL0     H26335  -0.784   2.629   5.146  1.2264  0.1157 -1.6142
  936MOL0     H26336  -0.750   2.417   5.372 -1.0365 -0.6051  0.5889
  936MOL0     H26337  -0.635   2.557   5.332 -1.2071  4.3954 -2.8368
  936MOL0     H26338  -0.916   2.629   5.391 -0.6949 -1.2214  3.0093
  936MOL0     H26339  -0.760   2.719   5.402  3.4336 -2.2785 -0.7738
  936MOL0     H26340  -0.890   2.536   5.612 -0.9278 -1.0521 -3.6455
  936MOL0     H26341  -0.819   2.702   5.634 -0.1950 -1.0336  3.1496
  936MOL0     H26342  -0.020   2.355   4.869 -2.9204  0.3922  0.7052
  936MOL0     H26343   0.159   2.471   4.780 -0.8840 -1.0518  2.0479
  936MOL0     H26344   0.386   2.629   4.526  2.0178  0.3684  1.3695
  936MOL0     H26345   0.576   2.699   4.375  1.2635  1.8414 -1.6182
  936MOL0     H26346   0.919   4.093   3.233 -2.6028  4.1070 -0.4720
  936MOL0     H26347   1.031   4.160   3.018  0.3828 -0.7495 -0.2211
  936MOL0     H26348   1.264   4.155   2.618 -1.9638 -0.6888  4.6692
  936MOL0     H26349   1.442   4.198   2.443 -0.1203  0.9576 -0.4752
  936MOL0     H26350   1.830   4.405   2.426  1.2341  1.0894  0.2884
  936MOL0     H26351   1.828   4.399   2.603  1.6018  4.3482 -2.5894
  936MOL0     H26352   1.874   4.160   2.426  0.3853 -0.5067 -0.1331
  936MOL0     H26353   1.913   4.165   2.596 -2.0341 -1.5252 -0.8183
  936MOL0     H26354   2.061   4.294   2.364 -1.2872 -2.3560 -0.7801
  936MOL0     H26355   2.127   4.187   2.474 -3.0462 -2.3332 -2.6105
  936MOL0     H26356   2.071   4.486   2.537  1.5854  0.1837 -3.5427
  936MOL0     H26357   2.228   4.404   2.546  0.5709 -4.3668 -0.9246
  936MOL0     H26358   2.064   4.293   2.915  0.7057  1.4184  0.1845
  936MOL0     H26359   1.690   4.342   2.763 -0.3361 -0.1816  0.7181
  936MOL0     H26360   1.523   4.309   2.911 -0.5147  0.8878 -0.2654
  937MOL0     O26361   1.637  10.634   1.838 -0.6155 -0.2630  0.3025
  937MOL0     C26362   1.689  10.723   1.770 -0.5092 -0.1402  0.0277
  937MOL0     O26363   1.644  10.768   1.650 -0.1456  0.7133  0.5653
  937MOL0     C26364   1.521  10.724   1.607  0.2904  0.0302  0.0173
  937MOL0     C26365   1.483  10.591   1.604 -0.4372 -0.1414  0.3437
  937MOL0     C26366   1.364  10.543   1.544 -0.5454 -0.3065  0.4140
  937MOL0     C26367   1.271  10.630   1.501  0.2502 -0.9322  1.0932
  937MOL0     O26368   1.154  10.577   1.443  0.0522 -0.3261 -0.0496
  937MOL0     C26369   1.073  10.664   1.366 -0.3597  0.2935 -0.4138
  937MOL0     C26370   0.965  10.732   1.454 -0.8987  0.3588 -0.3034
  937MOL0     C26371   0.889  10.832   1.369 -0.6086 -0.6211 -0.6402
  937MOL0     C26372   0.745  10.852   1.425 -0.1878  0.0069  0.5287
  937MOL0     C26373   0.659  10.898   1.309 -0.2288 -0.1342  0.5172
  937MOL0     C26374   0.515  10.912   1.362  1.1894  0.6299 -0.0292
  937MOL0     C26375   0.423  11.007   1.277 -0.1540  0.6076  0.2156
  937MOL0     C26376   0.281  11.025   1.334  0.4804 -0.5904 -0.8945
  937MOL0     N26377   0.197  10.905   1.362  0.1364  0.0849 -0.5874
  937MOL0     C26378   0.162  10.801   1.281 -1.0159  0.3980  0.0655
  937MOL0     C26379   0.110  10.708   1.360 -0.0379  0.3616  0.2439
  937MOL0     C26380   0.030  10.602   1.300 -0.4550  0.1187 -0.4145
  937MOL0     C26381   0.003  10.485   1.387 -0.0605 -0.2632  0.3617
  937MOL0     C26382  -0.081  10.379   1.309  0.1247 -0.1619 -0.3128
  937MOL0     C26383  -0.236  10.393   1.343 -0.7664  0.9203 -0.0002
  937MOL0     O26384  -0.319  10.294   1.269 -0.1937 -1.2633 -0.6855
  937MOL0     C26385  -0.343  10.171   1.319  0.1778  0.1567  0.1539
  937MOL0     C26386  -0.259  10.106   1.415  0.6067  0.4759  0.3970
  937MOL0     C26387  -0.295   9.981   1.454 -0.3534  0.2591  0.1643
  937MOL0     C26388  -0.233   9.938   1.587 -0.0721  0.1544  0.2489
  937MOL0     C26389  -0.382   9.898   1.386  0.3655  0.2093 -0.7973
  937MOL0     C26390  -0.423   9.757   1.423 -0.0231 -0.8667  0.6363
  937MOL0     O26391  -0.334   9.655   1.385  0.1592 -0.2376  0.6194
  937MOL0     C26392  -0.360   9.536   1.456 -1.2310 -0.4112  0.4562
  937MOL0     C26393  -0.343   9.531   1.600  0.2580  0.8669 -0.7807
  937MOL0     C26394  -0.333   9.408   1.673 -0.2442  0.4867  1.1559
  937MOL0     C26395  -0.355   9.285   1.603 -0.4237 -1.0282  0.4954
  937MOL0     O26396  -0.340   9.167   1.669  0.1212 -0.5101 -0.6389
  937MOL0     C26397  -0.460   9.127   1.743  0.1565  0.3501 -0.1300
  937MOL0     C26398  -0.550   9.037   1.645 -0.2771  0.5105 -0.1936
  937MOL0     C26399  -0.640   8.929   1.717  0.9223 -0.5627  0.1330
  937MOL0     C26400  -0.683   8.821   1.623  0.2822 -0.9842  0.3022
  937MOL0     C26401  -0.702   8.692   1.699  0.1494  0.4199  0.4526
  937MOL0     C26402  -0.572   8.622   1.752 -1.0057  0.6539  0.1379
  937MOL0     C26403  -0.581   8.559   1.895  0.1905  0.6971  0.0145
  937MOL0     C26404  -0.456   8.469   1.916  0.3799 -0.7644  0.1271
  937MOL0    Cl26405  -0.420   8.449   2.083  0.5404 -0.2885 -0.1304
  937MOL0     C26406  -0.373   9.291   1.463  0.3652 -0.1172 -0.1570
  937MOL0     C26407  -0.359   9.413   1.390  0.2246 -0.6319  1.1582
  937MOL0     O26408  -0.526   9.746   1.495 -0.0311  0.7117  0.6475
  937MOL0     C26409  -0.459   9.957   1.285  0.9164  0.5858 -0.0801
  937MOL0     C26410  -0.434  10.090   1.245  0.2273  0.2020 -0.0764
  937MOL0     N26411   0.111  10.750   1.488  0.7213 -0.1445 -0.2593
  937MOL0     N26412   0.155  10.878   1.491 -0.0585  0.4048 -0.1576
  937MOL0     C26413   1.306  10.766   1.491 -0.5087 -1.0474 -0.4620
  937MOL0     C26414   1.432  10.809   1.542  0.6631 -0.3636 -0.0746
  937MOL0     C26415   1.810  10.788   1.813  0.0016 -0.0061 -0.0389
  937MOL0     C26416   1.899  10.873   1.731  0.3069  0.0382  0.0886
  937MOL0     C26417   2.022  10.908   1.781  0.1312 -0.5365  0.7182
  937MOL0     C26418   2.061  10.881   1.912 -1.0108 -0.2006 -0.0956
  937MOL0     O26419   2.187  10.912   1.960 -0.7944  0.1471 -0.4245
  937MOL0     C26420   2.296  10.834   1.904 -0.4720 -0.8733  0.3999
  937MOL0     C26421   2.351  10.884   1.779  0.1471  0.7427  0.2090
  937MOL0     C26422   2.494  10.838   1.766 -0.1108  0.3658 -0.1712
  937MOL0     C26423   2.554  10.911   1.645  0.2292 -0.0144 -0.2472
  937MOL0     C26424   2.680  10.853   1.601  0.1390  0.5670 -0.1708
  937MOL0     C26425   2.780  10.797   1.573  0.3645  0.7761 -0.1291
  937MOL0     C26426   1.979  10.807   1.987  0.4102 -0.1750  0.0257
  937MOL0     C26427   1.853  10.770   1.941  0.0747  0.0278 -1.0224
  937MOL0     H26428   1.563  10.522   1.629  2.7115  2.6409 -1.3185
  937MOL0     H26429   1.343  10.437   1.540  0.3197 -0.4906 -3.4102
  937MOL0     H26430   1.136  10.730   1.305 -1.3138  0.5203 -1.1596
  937MOL0     H26431   1.017  10.606   1.293 -0.9472  4.2964 -3.5009
  937MOL0     H26432   0.897  10.654   1.490 -1.2362 -0.5127 -2.6221
  937MOL0     H26433   1.011  10.785   1.538  0.9956 -0.3413 -0.8410
  937MOL0     H26434   0.929  10.934   1.365  0.6127 -0.8143  3.1323
  937MOL0     H26435   0.874  10.797   1.267 -0.7187  0.9426 -1.1912
  937MOL0     H26436   0.700  10.758   1.459 -1.6802  0.9349  1.2531
  937MOL0     H26437   0.755  10.918   1.511 -1.4876  2.1598 -0.8886
  937MOL0     H26438   0.711  10.984   1.264  2.1716  0.6710  4.3796
  937MOL0     H26439   0.650  10.817   1.236 -1.8104 -1.4290  2.0868
  937MOL0     H26440   0.470  10.816   1.388 -0.9999  1.8289  0.8703
  937MOL0     H26441   0.518  10.961   1.460  1.4844 -0.6505  0.6178
  937MOL0     H26442   0.462  11.108   1.261  0.3943 -0.0856 -3.6711
  937MOL0     H26443   0.407  10.969   1.176  0.7701 -1.2635  0.7328
  937MOL0     H26444   0.233  11.095   1.264 -0.1997  2.0175  1.9327
  937MOL0     H26445   0.286  11.086   1.425  1.1077  1.4372 -2.2157
  937MOL0     H26446   0.165  10.786   1.174 -0.0687 -2.7779  0.4334
  937MOL0     H26447  -0.069  10.643   1.276  0.7005  2.6164 -1.2973
  937MOL0     H26448   0.072  10.571   1.204 -1.4011 -1.1931 -0.4390
  937MOL0     H26449  -0.046  10.526   1.476 -2.7129  1.4095 -1.6823
  937MOL0     H26450   0.100  10.442   1.414  0.1989 -0.6513 -1.0740
  937MOL0     H26451  -0.050  10.279   1.342  0.7046  0.8094  2.3473
  937MOL0     H26452  -0.061  10.391   1.202  0.8684  0.0082 -0.1592
  937MOL0     H26453  -0.257  10.493   1.306  0.1061  2.0221  2.2626
  937MOL0     H26454  -0.253  10.384   1.451 -2.2547 -1.6563 -0.3754
  937MOL0     H26455  -0.178  10.155   1.469  1.1073  3.1474 -2.4314
  937MOL0     H26456  -0.180   9.842   1.594  0.9801  0.8382  3.6948
  937MOL0     H26457  -0.151  10.003   1.620 -1.3412  0.8197  2.2481
  937MOL0     H26458  -0.310   9.941   1.664 -1.7442  0.9210 -1.3730
  937MOL0     H26459  -0.319   9.628   1.643  1.6440  0.0650  0.3520
  937MOL0     H26460  -0.319   9.400   1.781  2.3349 -0.4003  0.8110
  937MOL0     H26461  -0.433   9.067   1.831 -1.9499 -1.7575 -0.7891
  937MOL0     H26462  -0.520   9.213   1.773  2.1610  1.4671  0.7830
  937MOL0     H26463  -0.608   9.102   1.579  1.3337  0.9220 -1.2518
  937MOL0     H26464  -0.475   8.987   1.583  1.4460  3.6216 -0.8424
  937MOL0     H26465  -0.727   8.983   1.754  1.1352 -0.8295  1.0591
  937MOL0     H26466  -0.594   8.887   1.807  1.8109 -1.0821 -0.5446
  937MOL0     H26467  -0.770   8.852   1.564  0.5552  1.6210  1.1314
  937MOL0     H26468  -0.603   8.805   1.549  0.9890  2.2932  0.1858
  937MOL0     H26469  -0.772   8.623   1.649 -2.2317  2.1474  1.2583
  937MOL0     H26470  -0.765   8.718   1.784  0.4210  0.1414  0.7417
  937MOL0     H26471  -0.531   8.551   1.679  0.1502  3.5740 -2.2486
  937MOL0     H26472  -0.498   8.701   1.766  0.6973 -1.1521  2.2279
  937MOL0     H26473  -0.666   8.491   1.904  0.9651 -0.1620  1.1641
  937MOL0     H26474  -0.589   8.636   1.972  0.6790  1.9953 -1.1925
  937MOL0     H26475  -0.372   8.523   1.871 -0.8605  1.7640  0.6330
  937MOL0     H26476  -0.480   8.370   1.878 -5.7840  1.3526 -2.7225
  937MOL0     H26477  -0.400   9.200   1.412 -0.8702 -0.7382  1.5251
  937MOL0     H26478  -0.366   9.424   1.283 -0.7025  2.8351  1.4676
  937MOL0     H26479  -0.536   9.904   1.231  0.1308  2.1907 -0.6051
  937MOL0     H26480  -0.491  10.138   1.166  0.4603 -0.0638 -0.4045
  937MOL0     H26481   1.252  10.847   1.444  0.0326  0.5836  1.5890
  937MOL0     H26482   1.447  10.917   1.538  2.0334 -0.5117  0.5387
  937MOL0     H26483   1.881  10.899   1.627  0.3857 -1.2769 -0.2761
  937MOL0     H26484   2.095  10.959   1.719 -0.9251  0.3560  0.1789
  937MOL0     H26485   2.375  10.859   1.976 -2.2260 -0.8142  2.4104
  937MOL0     H26486   2.286  10.726   1.911  1.6777 -1.1259  0.2599
  937MOL0     H26487   2.348  10.994   1.773  1.1369  0.7737  0.1732
  937MOL0     H26488   2.290  10.852   1.694 -0.3895  2.3028 -0.0437
  937MOL0     H26489   2.506  10.729   1.760  0.0622  0.3921 -0.2941
  937MOL0     H26490   2.547  10.866   1.858  0.2755  1.6703 -0.7764
  937MOL0     H26491   2.572  11.017   1.666  0.9561 -0.3737  1.0519
  937MOL0     H26492   2.489  10.898   1.559  1.8698 -1.2507 -1.3613
  937MOL0     H26493   2.877  10.752   1.560  0.0488  0.2334 -0.6306
  937MOL0     H26494   2.004  10.804   2.093 -0.1614  3.2483  0.3919
  937MOL0     H26495   1.785  10.713   2.004  0.2322  1.2101  0.2579
  938MOL0     O26496   4.522   4.292   2.361  0.7451  0.2776 -0.2803
  938MOL0     C26497   4.579   4.224   2.443 -0.5565  0.9270 -0.7928
  938MOL0     O26498   4.525   4.112   2.515 -0.0190 -0.3478  0.1147
  938MOL0     C26499   4.400   4.058   2.474 -0.3484  0.4880 -0.2727
  938MOL0     C26500   4.284   4.127   2.456 -0.6332  0.7514 -0.2364
  938MOL0     C26501   4.180   4.061   2.397 -0.0494  0.4484  0.7415
  938MOL0     C26502   4.185   3.930   2.364 -0.7453  0.0358  0.2641
  938MOL0     O26503   4.072   3.881   2.297  0.3047 -0.0678 -0.0037
  938MOL0     C26504   4.083   3.741   2.271  0.9552  0.5446 -0.1411
  938MOL0     C26505   3.969   3.719   2.163  0.0521  0.1593 -0.7018
  938MOL0     C26506   3.971   3.567   2.127 -0.5437 -0.3013 -0.3401
  938MOL0     C26507   3.863   3.503   2.037 -0.5965  0.4851 -0.3449
  938MOL0     C26508   3.802   3.378   2.099 -0.2470 -0.2887 -0.5195
  938MOL0     C26509   3.756   3.284   1.986 -0.3350 -0.7691 -1.1345
  938MOL0     C26510   3.614   3.326   1.946 -0.1055  0.5277  0.0836
  938MOL0     C26511   3.575   3.239   1.827 -0.7688  0.0068  0.5747
  938MOL0     N26512   3.447   3.278   1.773  0.4166  0.5199 -0.2472
  938MOL0     C26513   3.311   3.236   1.804 -0.0476 -0.0946  0.7310
  938MOL0     C26514   3.233   3.269   1.700 -1.2290 -0.2595 -0.1806
  938MOL0     C26515   3.083   3.233   1.691  0.6493  0.4892  0.2760
  938MOL0     C26516   3.014   3.320   1.784  0.0699 -0.0330 -0.2584
  938MOL0     C26517   2.996   3.463   1.734  0.4160 -0.4990  0.4564
  938MOL0     C26518   2.932   3.555   1.836  0.2238  0.2844  0.3648
  938MOL0     O26519   3.017   3.598   1.948  0.2762  0.5168  0.6878
  938MOL0     C26520   2.942   3.625   2.066 -0.6658 -0.7608 -0.8146
  938MOL0     C26521   2.824   3.699   2.066  0.0398 -0.8045 -0.2698
  938MOL0     C26522   2.754   3.737   2.187 -0.2501 -0.1467 -0.5169
  938MOL0     C26523   2.656   3.846   2.183 -0.1760 -0.2792  0.4706
  938MOL0     C26524   2.808   3.683   2.306 -0.2977  0.2973 -0.7414
  938MOL0     C26525   2.741   3.686   2.442  0.4035 -0.2489  0.5408
  938MOL0     O26526   2.813   3.695   2.559  0.0533 -0.4606  0.1731
  938MOL0     C26527   2.753   3.667   2.679  0.5763 -0.3268 -0.9064
  938MOL0     C26528   2.791   3.558   2.746  0.4917 -0.7853  0.9525
  938MOL0     C26529   2.744   3.521   2.874  0.4651 -1.1388 -0.1794
  938MOL0     C26530   2.638   3.590   2.935  0.4677 -0.0012 -0.2520
  938MOL0     O26531   2.595   3.571   3.067  0.0655  0.1311  0.4462
  938MOL0     C26532   2.569   3.436   3.111  0.3953 -0.2693 -0.2264
  938MOL0     C26533   2.427   3.399   3.066  0.0946  0.3887  0.1618
  938MOL0     C26534   2.321   3.480   3.147  0.0330  0.2064  0.4342
  938MOL0     C26535   2.194   3.405   3.104 -0.4465  0.5012 -0.0184
  938MOL0     C26536   2.072   3.481   3.163  0.7973  0.2681 -0.0310
  938MOL0     C26537   1.946   3.410   3.102  0.6577 -1.1162 -0.6139
  938MOL0     C26538   1.815   3.482   3.137 -0.1872  0.2045  0.5841
  938MOL0     C26539   1.812   3.636   3.089 -0.6609  0.0316 -0.2679
  938MOL0    Cl26540   1.888   3.667   2.929  0.1792 -0.2447 -0.0958
  938MOL0     C26541   2.583   3.693   2.860  0.0521  0.4070  0.3486
  938MOL0     C26542   2.648   3.734   2.746  0.6066 -0.0163  0.7219
  938MOL0     O26543   2.617   3.669   2.447  0.3553 -0.4677  0.1616
  938MOL0     C26544   2.927   3.604   2.312 -0.3983  0.0438  0.2622
  938MOL0     C26545   2.989   3.579   2.193  0.2156  0.2650 -1.5974
  938MOL0     N26546   3.311   3.341   1.609 -0.9314  0.6982 -0.0504
  938MOL0     N26547   3.432   3.340   1.658 -0.0957 -1.0613 -0.3767
  938MOL0     C26548   4.298   3.851   2.409  0.2378 -0.6550 -0.2250
  938MOL0     C26549   4.409   3.923   2.445  0.7349  0.3425  0.0356
  938MOL0     C26550   4.714   4.269   2.489  0.4164  0.4507 -0.3573
  938MOL0     C26551   4.783   4.203   2.591  0.3150  0.1356 -0.5475
  938MOL0     C26552   4.916   4.245   2.639  0.3830 -0.8896  0.4546
  938MOL0     C26553   4.975   4.358   2.581 -0.3576 -1.2874 -0.0211
  938MOL0     O26554   5.096   4.392   2.619  0.9183  0.3869 -0.0559
  938MOL0     C26555   5.178   4.500   2.573  0.1004 -0.0154 -0.0915
  938MOL0     C26556   5.297   4.527   2.667 -0.0006  0.7771 -0.5866
  938MOL0     C26557   5.265   4.616   2.790 -0.3075  0.3230  0.6117
  938MOL0     C26558   5.289   4.767   2.761  0.0082 -0.3388  0.6748
  938MOL0     C26559   5.428   4.791   2.723  0.7557 -0.4833  0.5575
  938MOL0     C26560   5.540   4.823   2.703 -0.3408 -0.1782 -0.2192
  938MOL0     C26561   4.901   4.423   2.475  0.4260  0.4797 -0.4254
  938MOL0     C26562   4.774   4.382   2.439 -0.5323 -0.4621 -0.3457
  938MOL0     H26563   4.278   4.233   2.479  0.2800  0.7313  0.1558
  938MOL0     H26564   4.086   4.109   2.372  0.6694  1.7752  0.4853
  938MOL0     H26565   4.178   3.712   2.226  1.3249 -1.7920  1.9205
  938MOL0     H26566   4.065   3.683   2.362 -1.3729 -2.2411 -2.1891
  938MOL0     H26567   3.866   3.747   2.187  0.0968 -0.5536  0.3947
  938MOL0     H26568   3.996   3.777   2.074 -0.4240  2.0189  0.3059
  938MOL0     H26569   4.071   3.533   2.098  0.3272 -0.8966  3.0306
  938MOL0     H26570   3.958   3.523   2.226  2.2564  1.8535  1.1334
  938MOL0     H26571   3.790   3.580   2.010 -1.6152  0.4714  2.1371
  938MOL0     H26572   3.902   3.477   1.938 -0.1015 -0.0883 -0.0096
  938MOL0     H26573   3.884   3.325   2.150  0.8348  2.3462  0.6454
  938MOL0     H26574   3.730   3.410   2.175 -1.0922  0.7595 -1.7189
  938MOL0     H26575   3.819   3.270   1.898 -0.4727 -1.4912 -1.1286
  938MOL0     H26576   3.746   3.184   2.030 -0.3090 -0.1771  0.2554
  938MOL0     H26577   3.554   3.313   2.037  2.8225  0.3799  2.1163
  938MOL0     H26578   3.620   3.429   1.910  0.3082  0.7281  0.7208
  938MOL0     H26579   3.581   3.132   1.852  0.8197 -0.5463 -1.7958
  938MOL0     H26580   3.647   3.247   1.745 -1.2679 -5.6287 -0.8730
  938MOL0     H26581   3.284   3.183   1.894  2.4719 -1.0436  1.0251
  938MOL0     H26582   3.036   3.227   1.592 -0.6715  0.4629  0.8924
  938MOL0     H26583   3.076   3.133   1.735  2.9765 -0.2846 -0.9128
  938MOL0     H26584   3.065   3.325   1.880 -1.3315  1.5857  0.4473
  938MOL0     H26585   2.914   3.280   1.801 -0.1307  1.0785  1.3042
  938MOL0     H26586   2.923   3.454   1.653  2.2418 -1.1141 -1.2002
  938MOL0     H26587   3.085   3.506   1.686 -0.0488 -0.0549 -0.0222
  938MOL0     H26588   2.850   3.497   1.878 -1.5585  0.8599 -2.0662
  938MOL0     H26589   2.887   3.643   1.789 -0.6945 -0.2187  0.2810
  938MOL0     H26590   2.781   3.729   1.971 -0.9532  1.0274  0.6968
  938MOL0     H26591   2.686   3.929   2.248 -2.4502 -0.2773  1.6239
  938MOL0     H26592   2.648   3.881   2.080  1.7170 -3.0882 -0.7651
  938MOL0     H26593   2.552   3.822   2.204  0.7178 -3.7051  1.8551
  938MOL0     H26594   2.868   3.499   2.699  1.1650  0.3692  0.5613
  938MOL0     H26595   2.784   3.436   2.928  1.3695 -1.0839 -0.7455
  938MOL0     H26596   2.641   3.370   3.061  1.7201  0.3074  0.8286
  938MOL0     H26597   2.595   3.441   3.218 -1.7691  4.6821  0.3218
  938MOL0     H26598   2.417   3.420   2.959  1.1030  1.2447  0.2269
  938MOL0     H26599   2.416   3.292   3.082 -1.2104  0.4675 -0.0621
  938MOL0     H26600   2.303   3.582   3.114 -0.4581 -0.2551 -0.8169
  938MOL0     H26601   2.340   3.468   3.254  1.3768  0.8368  0.2737
  938MOL0     H26602   2.188   3.404   2.995  4.4726 -1.7483 -0.5395
  938MOL0     H26603   2.194   3.301   3.139  0.6329  0.0251 -1.3374
  938MOL0     H26604   2.062   3.589   3.158 -2.4009  0.3333  3.4049
  938MOL0     H26605   2.063   3.466   3.271 -2.7033  0.5910 -0.1776
  938MOL0     H26606   1.966   3.397   2.995  4.0205 -0.8024 -0.1254
  938MOL0     H26607   1.940   3.307   3.139  1.5165 -1.3305 -1.0603
  938MOL0     H26608   1.784   3.468   3.241 -1.2993  0.2287  0.2786
  938MOL0     H26609   1.743   3.439   3.066 -1.0272  2.5053 -0.0442
  938MOL0     H26610   1.858   3.691   3.171  1.6820 -2.0143 -0.1028
  938MOL0     H26611   1.708   3.669   3.084 -1.2751 -1.8670 -1.0350
  938MOL0     H26612   2.502   3.742   2.913  2.0283  0.8832  3.1627
  938MOL0     H26613   2.623   3.827   2.695  1.5392  0.2451  0.7265
  938MOL0     H26614   2.958   3.552   2.402  0.8521  1.1275  0.4801
  938MOL0     H26615   3.082   3.524   2.207 -0.2621 -0.1649  0.1889
  938MOL0     H26616   4.308   3.744   2.398  1.6559 -0.5577 -0.1276
  938MOL0     H26617   4.506   3.879   2.467  0.1972 -0.3410  1.1579
  938MOL0     H26618   4.756   4.101   2.615 -3.3986  1.3524  1.2230
  938MOL0     H26619   4.987   4.177   2.684  0.8225 -0.2969  0.6678
  938MOL0     H26620   5.221   4.480   2.475  0.4450 -2.0232  0.4224
  938MOL0     H26621   5.115   4.590   2.566  3.0211  2.1214 -0.8286
  938MOL0     H26622   5.379   4.577   2.614  0.6227  1.4509  0.9713
  938MOL0     H26623   5.341   4.435   2.706  0.7337  1.8055  1.0991
  938MOL0     H26624   5.336   4.592   2.870  0.3859 -0.3302 -0.1919
  938MOL0     H26625   5.165   4.587   2.824  0.5525 -2.5997  0.9424
  938MOL0     H26626   5.271   4.831   2.849  3.0056  2.7383 -0.7167
  938MOL0     H26627   5.222   4.798   2.681  0.1008  0.3297  0.8460
  938MOL0     H26628   5.643   4.854   2.710 -0.1698 -0.8598  0.3990
  938MOL0     H26629   4.947   4.516   2.443  0.4790  1.4576  2.1982
  938MOL0     H26630   4.729   4.438   2.358 -0.6205 -0.4280 -0.2718
  939MOL0     O26631   3.329   5.699   7.388 -0.0322 -0.0123  0.5507
  939MOL0     C26632   3.325   5.807   7.332  0.8134  0.0579  0.5062
  939MOL0     O26633   3.314   5.819   7.193  0.2677 -1.0395 -1.1199
  939MOL0     C26634   3.269   5.710   7.120  0.8814  0.0366  0.4563
  939MOL0     C26635   3.365   5.638   7.040 -0.3825 -0.3484 -0.4597
  939MOL0     C26636   3.321   5.534   6.956  0.2202  0.1526  0.4929
  939MOL0     C26637   3.182   5.495   6.954 -0.0736 -0.0280  0.4433
  939MOL0     O26638   3.148   5.398   6.870 -0.3364 -0.1960 -0.5510
  939MOL0     C26639   3.018   5.338   6.876 -0.6546 -0.1199  0.4861
  939MOL0     C26640   2.905   5.408   6.802 -0.1473  0.3442 -0.0046
  939MOL0     C26641   2.763   5.365   6.849 -0.2845 -0.5660 -1.2553
  939MOL0     C26642   2.731   5.216   6.824  0.9031 -0.4391  0.1601
  939MOL0     C26643   2.590   5.178   6.868 -0.1591  0.9373  0.4155
  939MOL0     C26644   2.478   5.240   6.783  0.6159 -0.9305  0.1872
  939MOL0     C26645   2.338   5.202   6.838  0.3580 -0.1435 -1.4569
  939MOL0     C26646   2.229   5.260   6.749 -0.1546  0.3385  0.5883
  939MOL0     N26647   2.097   5.201   6.782 -0.0554  0.5358  0.5001
  939MOL0     C26648   2.029   5.206   6.906  0.1322 -0.7917  0.1591
  939MOL0     C26649   1.921   5.127   6.891 -0.8872 -0.1766  0.0094
  939MOL0     C26650   1.831   5.086   7.002  0.5809 -0.0510 -0.2315
  939MOL0     C26651   1.873   4.954   7.066 -0.9729 -0.1253 -0.0307
  939MOL0     C26652   1.769   4.923   7.171  0.6124 -1.0564 -0.7300
  939MOL0     C26653   1.794   4.787   7.244 -0.0280  0.4359  0.6242
  939MOL0     O26654   1.698   4.769   7.345  0.3774 -0.1664 -0.8500
  939MOL0     C26655   1.579   4.704   7.322  1.1376 -0.1042  1.0774
  939MOL0     C26656   1.495   4.686   7.428 -0.0565  0.3032 -0.9535
  939MOL0     C26657   1.369   4.631   7.417 -0.3244 -0.3637 -0.2198
  939MOL0     C26658   1.293   4.617   7.544  0.1536  0.5029 -0.0131
  939MOL0     C26659   1.308   4.594   7.294  0.2939  0.5908  0.1289
  939MOL0     C26660   1.172   4.544   7.259 -0.1900  0.3782  0.8968
  939MOL0     O26661   1.071   4.604   7.335  0.0808 -0.0374  0.7903
  939MOL0     C26662   0.940   4.593   7.290  0.5131 -0.2556 -1.2155
  939MOL0     C26663   0.899   4.639   7.161  0.7186  0.0168 -0.5982
  939MOL0     C26664   0.762   4.632   7.130 -1.1137 -0.1027  0.1404
  939MOL0     C26665   0.664   4.595   7.227  0.6830  0.0034  0.1436
  939MOL0     O26666   0.528   4.589   7.214 -0.2922 -0.1217  0.3807
  939MOL0     C26667   0.478   4.594   7.072 -1.2839 -0.9982  0.2327
  939MOL0     C26668   0.334   4.533   7.067 -0.2531  0.5397 -0.6731
  939MOL0     C26669   0.227   4.652   7.069 -0.1598 -0.3957  0.2810
  939MOL0     C26670   0.224   4.734   7.202 -1.5046  0.1327  0.0628
  939MOL0     C26671   0.105   4.821   7.231 -0.0090 -1.1690  0.5282
  939MOL0     C26672  -0.013   4.743   7.284  0.3041  0.5364 -0.2455
  939MOL0     C26673  -0.124   4.837   7.331 -0.4630 -0.8038  0.0251
  939MOL0     C26674  -0.128   4.870   7.476 -0.5220  0.1538  0.3526
  939MOL0    Cl26675   0.006   5.004   7.497  0.6120  0.0657 -0.4051
  939MOL0     C26676   0.707   4.556   7.356 -0.0183 -0.2141 -0.3807
  939MOL0     C26677   0.839   4.559   7.391  0.0486  0.0831 -0.6093
  939MOL0     O26678   1.166   4.461   7.171 -0.1752 -0.0884  0.1604
  939MOL0     C26679   1.401   4.615   7.180  0.5010  0.5513 -0.9345
  939MOL0     C26680   1.523   4.669   7.193 -0.1387  0.5077 -0.8579
  939MOL0     N26681   1.936   5.059   6.766  0.1956  0.2454 -0.5453
  939MOL0     N26682   2.032   5.107   6.701 -0.2494  0.0496  0.1265
  939MOL0     C26683   3.098   5.565   7.040 -0.8812  0.1731 -0.4849
  939MOL0     C26684   3.140   5.664   7.125 -0.5127  0.0270  0.2798
  939MOL0     C26685   3.340   5.932   7.416 -0.0780  0.1529 -0.0153
  939MOL0     C26686   3.344   6.055   7.358 -0.1032  0.4257  0.6751
  939MOL0     C26687   3.351   6.177   7.427 -0.1697 -0.5243 -0.6298
  939MOL0     C26688   3.339   6.176   7.566  0.2932  1.0086 -0.1803
  939MOL0     O26689   3.313   6.280   7.655 -0.4951 -0.6369  0.1026
  939MOL0     C26690   3.256   6.395   7.594 -0.1263 -0.1272 -0.3526
  939MOL0     C26691   3.226   6.504   7.705  0.1454 -0.2351  0.3019
  939MOL0     C26692   3.149   6.464   7.830  1.2627  0.0110  0.2167
  939MOL0     C26693   3.006   6.410   7.814  0.9773  0.3553 -1.0359
  939MOL0     C26694   2.910   6.504   7.761  0.8887  0.9816  0.1440
  939MOL0     C26695   2.838   6.591   7.705 -1.6515  0.4649  0.4498
  939MOL0     C26696   3.331   6.052   7.631 -0.2900  0.1184 -0.0751
  939MOL0     C26697   3.336   5.928   7.558  0.0729 -0.1580  1.0157
  939MOL0     H26698   3.470   5.663   7.055 -0.8032  2.1837 -1.2461
  939MOL0     H26699   3.389   5.468   6.902 -1.1872 -1.0223  0.0892
  939MOL0     H26700   3.026   5.237   6.835  1.6141 -0.5556  1.8491
  939MOL0     H26701   2.983   5.332   6.979 -1.8503 -1.6363  0.0331
  939MOL0     H26702   2.904   5.514   6.825 -0.0138  0.1238  1.0469
  939MOL0     H26703   2.911   5.375   6.697 -0.2495 -3.3717  1.0002
  939MOL0     H26704   2.756   5.382   6.957 -0.7940  0.2044 -1.4068
  939MOL0     H26705   2.678   5.416   6.803  0.5162  0.1795 -1.9473
  939MOL0     H26706   2.750   5.185   6.721  1.0685  3.3078 -1.0759
  939MOL0     H26707   2.798   5.157   6.888 -0.8548 -2.2410  0.4212
  939MOL0     H26708   2.585   5.069   6.860  1.4715  0.9789 -4.2859
  939MOL0     H26709   2.573   5.216   6.969 -2.0275 -0.0163  0.5124
  939MOL0     H26710   2.471   5.348   6.796 -3.1463 -1.1998  1.6887
  939MOL0     H26711   2.493   5.218   6.677 -1.3607  1.6353 -0.7185
  939MOL0     H26712   2.327   5.093   6.842 -2.6902  0.0776  2.5090
  939MOL0     H26713   2.325   5.247   6.937  1.0477  1.6052 -2.1234
  939MOL0     H26714   2.249   5.227   6.647  2.5920 -3.3130  2.0613
  939MOL0     H26715   2.235   5.369   6.758  1.6191  0.1950  1.7071
  939MOL0     H26716   2.065   5.245   7.001  0.5962 -0.9484  0.0526
  939MOL0     H26717   1.827   5.155   7.087  2.7078 -1.6737  1.2770
  939MOL0     H26718   1.734   5.079   6.951  2.1533 -1.6031 -3.2281
  939MOL0     H26719   1.974   4.956   7.108 -1.8036 -0.9479  2.1055
  939MOL0     H26720   1.859   4.882   6.985  1.9574 -1.7497  0.7789
  939MOL0     H26721   1.673   4.935   7.119  0.9340 -0.4247 -1.1934
  939MOL0     H26722   1.764   5.009   7.239 -1.6908  0.3524 -2.5142
  939MOL0     H26723   1.890   4.802   7.295 -1.5910  2.1445  3.3123
  939MOL0     H26724   1.790   4.699   7.180 -0.8641 -0.7022  2.1464
  939MOL0     H26725   1.529   4.719   7.526 -1.2428 -0.7699 -0.1447
  939MOL0     H26726   1.233   4.526   7.546 -1.5962  1.3899 -3.7946
  939MOL0     H26727   1.363   4.621   7.628 -3.0703 -1.2840  3.0047
  939MOL0     H26728   1.216   4.693   7.560  0.1348  0.3134  0.8572
  939MOL0     H26729   0.960   4.688   7.085  1.2307  1.4301  0.6725
  939MOL0     H26730   0.735   4.663   7.029 -2.0777  0.2606  0.4938
  939MOL0     H26731   0.468   4.695   7.033 -0.3838 -1.6955 -1.9415
  939MOL0     H26732   0.546   4.538   7.007 -0.3733  1.5104 -1.1046
  939MOL0     H26733   0.327   4.475   6.974  0.0219 -0.0874 -0.3158
  939MOL0     H26734   0.325   4.460   7.148  0.1038  4.0805  2.8741
  939MOL0     H26735   0.133   4.596   7.068  0.4663 -2.1982  6.1116
  939MOL0     H26736   0.250   4.716   6.983  3.6772  0.1082  1.4729
  939MOL0     H26737   0.219   4.658   7.281 -2.4929  2.8688  2.8133
  939MOL0     H26738   0.318   4.788   7.213 -2.8123  2.1582  2.1497
  939MOL0     H26739   0.079   4.870   7.137  2.4200 -0.1889  0.2766
  939MOL0     H26740   0.139   4.902   7.296  1.7183 -0.6511 -0.9327
  939MOL0     H26741  -0.050   4.684   7.200  0.4542 -0.0303  0.0872
  939MOL0     H26742   0.028   4.675   7.358  0.7084  0.5016 -0.4989
  939MOL0     H26743  -0.215   4.777   7.324 -2.3693  1.7735  1.1257
  939MOL0     H26744  -0.128   4.932   7.277  0.9452 -0.9772 -0.4450
  939MOL0     H26745  -0.116   4.783   7.542 -3.6464 -0.0217  0.8725
  939MOL0     H26746  -0.221   4.914   7.514  0.7798  2.2619  1.3061
  939MOL0     H26747   0.637   4.532   7.435 -1.7088  3.2012 -0.6523
  939MOL0     H26748   0.854   4.557   7.499  1.5900  1.2805 -0.7636
  939MOL0     H26749   1.372   4.578   7.082  1.7559 -0.5809 -0.9098
  939MOL0     H26750   1.579   4.680   7.100  0.7192 -2.8542 -0.8665
  939MOL0     H26751   2.990   5.557   7.047 -0.7902  0.3053  1.9552
  939MOL0     H26752   3.077   5.710   7.200  0.0391 -0.4645  1.0531
  939MOL0     H26753   3.346   6.055   7.250 -2.2265 -2.7483  0.5011
  939MOL0     H26754   3.356   6.271   7.374  0.8364 -0.1605  0.0833
  939MOL0     H26755   3.334   6.442   7.532 -0.5137  0.4215 -0.4365
  939MOL0     H26756   3.169   6.375   7.532 -0.1929  1.5650 -0.8652
  939MOL0     H26757   3.161   6.578   7.657  2.4617  1.9789  0.3906
  939MOL0     H26758   3.318   6.554   7.734 -0.6483  2.6131 -1.5856
  939MOL0     H26759   3.142   6.554   7.891 -0.2649  0.4374 -0.5435
  939MOL0     H26760   3.207   6.388   7.884 -1.6629 -2.7227 -0.1580
  939MOL0     H26761   2.973   6.389   7.916  0.2570  1.2306 -1.0757
  939MOL0     H26762   3.016   6.320   7.752 -4.2840 -0.4857 -1.1220
  939MOL0     H26763   2.776   6.651   7.642 -2.3984 -1.0378 -0.2818
  939MOL0     H26764   3.316   6.052   7.738  1.0429 -1.3891  0.1636
  939MOL0     H26765   3.316   5.833   7.606  0.0615  0.9697  3.3899
  940MOL0     O26766   3.676   0.390   9.785  0.3305 -0.3763 -0.0179
  940MOL0     C26767   3.626   0.486   9.730 -0.9175 -0.5360  0.4326
  940MOL0     O26768   3.686   0.569   9.632 -0.2542 -0.5193  0.0712
  940MOL0     C26769   3.804   0.534   9.570  0.1435 -0.0957  0.1927
  940MOL0     C26770   3.800   0.552   9.434 -0.4764  1.2975  0.6252
  940MOL0     C26771   3.914   0.517   9.354  0.2491 -0.1465 -0.6902
  940MOL0     C26772   4.037   0.495   9.417  0.1445 -0.1123  0.7888
  940MOL0     O26773   4.150   0.467   9.348 -0.7675  0.3636  0.5291
  940MOL0     C26774   4.214   0.590   9.293  0.3318  0.3811 -0.7279
  940MOL0     C26775   4.304   0.557   9.170  0.0861  0.6516 -1.0134
  940MOL0     C26776   4.365   0.687   9.126 -0.3798 -0.9238  1.0493
  940MOL0     C26777   4.263   0.775   9.046  0.6523  0.5682 -0.3404
  940MOL0     C26778   4.343   0.883   8.970 -0.3630  0.8909  0.5662
  940MOL0     C26779   4.336   1.016   9.049  0.7484 -0.7666  0.7395
  940MOL0     C26780   4.389   1.132   8.969 -0.1034  0.8029  0.0346
  940MOL0     C26781   4.435   1.249   9.055 -0.2092 -0.0788  0.1248
  940MOL0     N26782   4.498   1.360   8.991 -0.1224  0.1234  0.5699
  940MOL0     C26783   4.464   1.427   8.878 -0.3159 -0.0251 -0.9348
  940MOL0     C26784   4.572   1.501   8.840  0.4880  0.5439  0.4400
  940MOL0     C26785   4.609   1.592   8.724 -0.1102  0.4567  0.4888
  940MOL0     C26786   4.491   1.664   8.658 -0.2319  0.2726 -0.4595
  940MOL0     C26787   4.417   1.560   8.569 -0.5370 -0.7852 -0.0485
  940MOL0     C26788   4.266   1.600   8.558  0.6859 -1.0057  0.0352
  940MOL0     O26789   4.187   1.620   8.678 -0.5520 -0.6786 -0.8813
  940MOL0     C26790   4.124   1.510   8.737  0.2839  0.1450  0.1384
  940MOL0     C26791   4.061   1.532   8.860  0.5853  0.0161 -0.1433
  940MOL0     C26792   3.975   1.434   8.928 -0.0874 -0.3272  0.5484
  940MOL0     C26793   3.914   1.481   9.058 -0.2488 -0.0759  0.3952
  940MOL0     C26794   3.981   1.304   8.877 -0.5758  0.9720  0.3146
  940MOL0     C26795   3.906   1.188   8.930 -0.4678 -0.2890 -0.5589
  940MOL0     O26796   3.871   1.086   8.844  0.5118 -0.2955 -0.0316
  940MOL0     C26797   3.835   0.973   8.920  0.1577  0.4669  0.0999
  940MOL0     C26798   3.703   0.923   8.903 -0.2599  0.0436 -0.1966
  940MOL0     C26799   3.660   0.815   8.977 -0.6203 -0.2694 -0.2483
  940MOL0     C26800   3.742   0.747   9.066 -0.2255 -0.2837 -0.2860
  940MOL0     O26801   3.721   0.627   9.132  0.2066 -0.2482 -0.4796
  940MOL0     C26802   3.605   0.556   9.084  0.2658  0.4526 -1.2424
  940MOL0     C26803   3.600   0.415   9.145  0.2973 -0.5163  0.9054
  940MOL0     C26804   3.497   0.322   9.081  0.4862  0.1800 -0.5015
  940MOL0     C26805   3.352   0.381   9.095  0.0360 -0.0328  0.3878
  940MOL0     C26806   3.230   0.302   9.040  1.1924  0.2750 -0.6158
  940MOL0     C26807   3.238   0.290   8.891 -0.3744 -0.8435  0.3048
  940MOL0     C26808   3.107   0.229   8.845 -0.1702  0.2091  0.4469
  940MOL0     C26809   3.110   0.146   8.706 -0.3567 -0.7158  1.3795
  940MOL0    Cl26810   3.128   0.278   8.577  0.4000 -0.3243  0.1318
  940MOL0     C26811   3.872   0.798   9.080  0.1594  0.1702 -0.2562
  940MOL0     C26812   3.923   0.909   9.005 -0.8595 -0.1700  0.4236
  940MOL0     O26813   3.876   1.197   9.051 -0.3252  0.2296  0.3932
  940MOL0     C26814   4.067   1.271   8.771  0.0074 -0.9640 -0.4466
  940MOL0     C26815   4.135   1.375   8.708  0.4795 -0.0422  0.4701
  940MOL0     N26816   4.672   1.472   8.934 -0.3885  0.5902  0.3084
  940MOL0     N26817   4.633   1.383   9.015 -0.1108 -0.5581  0.6514
  940MOL0     C26818   4.036   0.482   9.550 -0.2486  0.6855 -0.3311
  940MOL0     C26819   3.925   0.507   9.630 -0.1636  0.4510 -0.1181
  940MOL0     C26820   3.482   0.510   9.761 -0.1063 -0.4059  0.4284
  940MOL0     C26821   3.417   0.616   9.697  0.6830 -1.0879  0.8477
  940MOL0     C26822   3.279   0.642   9.729  0.4849 -0.9889  1.0746
  940MOL0     C26823   3.212   0.567   9.819  0.4095 -0.2022  0.0934
  940MOL0     O26824   3.090   0.600   9.878  0.0206  0.2675  0.4939
  940MOL0     C26825   3.011   0.698   9.810  0.8514  0.4851  0.4353
  940MOL0     C26826   2.873   0.712   9.867 -0.5964 -0.0464  0.5152
  940MOL0     C26827   2.803   0.584   9.881 -0.0942  0.6441 -0.2419
  940MOL0     C26828   2.676   0.593   9.953 -0.9485 -0.4441  0.1231
  940MOL0     C26829   2.577   0.674   9.880 -0.3189 -0.5378 -0.6715
  940MOL0     C26830   2.492   0.742   9.827 -0.1863  0.2492  0.2103
  940MOL0     C26831   3.279   0.463   9.894  0.0163 -0.0043 -0.0225
  940MOL0     C26832   3.416   0.435   9.856  1.2549  0.3788 -0.4296
  940MOL0     H26833   3.706   0.574   9.386 -0.2856  1.1437  0.1761
  940MOL0     H26834   3.904   0.521   9.246  0.7164 -2.1000 -0.8409
  940MOL0     H26835   4.134   0.655   9.256  1.3901  0.2435 -3.5705
  940MOL0     H26836   4.278   0.641   9.366  1.7096  1.8371 -2.8090
  940MOL0     H26837   4.382   0.489   9.202  1.2125  0.9054 -3.0381
  940MOL0     H26838   4.240   0.509   9.095  0.4673 -0.2372 -0.7698
  940MOL0     H26839   4.413   0.741   9.208  2.3303  1.3537 -1.7436
  940MOL0     H26840   4.454   0.664   9.066 -0.9610 -0.0112 -0.2204
  940MOL0     H26841   4.217   0.712   8.969  0.8203  0.1711 -0.1224
  940MOL0     H26842   4.183   0.810   9.111  0.5884 -1.6499  0.8857
  940MOL0     H26843   4.443   0.841   8.959 -1.1282 -1.9798  3.1373
  940MOL0     H26844   4.301   0.895   8.870 -0.5119  2.3032  0.7767
  940MOL0     H26845   4.228   1.033   9.059  0.1988 -1.5203 -2.5890
  940MOL0     H26846   4.383   1.002   9.147 -0.8285 -2.0142  1.3608
  940MOL0     H26847   4.472   1.100   8.906 -0.4104  0.6811 -0.3122
  940MOL0     H26848   4.309   1.170   8.905  0.8944  0.8193 -1.2351
  940MOL0     H26849   4.499   1.213   9.136  3.5551  2.3892 -1.4577
  940MOL0     H26850   4.347   1.293   9.104 -0.2648  1.2255 -1.0737
  940MOL0     H26851   4.364   1.433   8.836 -0.9021  0.8684  0.5133
  940MOL0     H26852   4.685   1.666   8.752 -0.4007  0.2905  1.8185
  940MOL0     H26853   4.657   1.537   8.643 -1.1245 -0.5680  0.5598
  940MOL0     H26854   4.537   1.736   8.590  3.7292 -2.7035 -1.2949
  940MOL0     H26855   4.429   1.697   8.742  0.6514 -0.3035  0.4429
  940MOL0     H26856   4.439   1.463   8.615  0.5637  0.0452  1.2610
  940MOL0     H26857   4.460   1.556   8.468 -1.4526 -0.9332 -0.4430
  940MOL0     H26858   4.215   1.523   8.499 -3.3114 -0.1547  2.0110
  940MOL0     H26859   4.254   1.691   8.499 -0.5877 -1.0490  0.2022
  940MOL0     H26860   4.070   1.635   8.895  1.2281 -0.1330  0.1455
  940MOL0     H26861   3.973   1.447   9.144  1.6536  1.2782 -0.3092
  940MOL0     H26862   3.917   1.590   9.058  2.1015 -0.0854 -0.1512
  940MOL0     H26863   3.814   1.440   9.072 -0.8413  1.3796  0.6183
  940MOL0     H26864   3.643   0.982   8.835  0.1450  1.8169  0.8961
  940MOL0     H26865   3.560   0.774   8.965 -0.8560  0.0106  0.6675
  940MOL0     H26866   3.517   0.612   9.115  0.4877 -0.5169  1.3410
  940MOL0     H26867   3.598   0.557   8.975 -1.0036  0.4750 -1.1714
  940MOL0     H26868   3.698   0.366   9.152  0.3405 -1.5162 -3.7251
  940MOL0     H26869   3.565   0.431   9.247  0.3466  2.4985  0.5534
  940MOL0     H26870   3.516   0.225   9.128  0.8041 -0.4642 -1.9110
  940MOL0     H26871   3.525   0.308   8.977 -0.9235 -0.9111 -0.7739
  940MOL0     H26872   3.326   0.411   9.197 -1.4339  1.4683 -0.3781
  940MOL0     H26873   3.343   0.471   9.032  1.7979 -0.5286 -0.6326
  940MOL0     H26874   3.139   0.357   9.068  1.2308  0.9450 -1.7336
  940MOL0     H26875   3.222   0.208   9.095 -1.4394  0.7509 -0.0339
  940MOL0     H26876   3.243   0.387   8.840  0.1251 -1.2427 -0.4295
  940MOL0     H26877   3.328   0.237   8.858 -0.6277  0.2433 -2.3733
  940MOL0     H26878   3.037   0.311   8.826  0.0970 -0.0501 -2.0804
  940MOL0     H26879   3.071   0.171   8.931  0.5858 -2.0634 -0.6764
  940MOL0     H26880   3.018   0.094   8.679 -0.8437  0.2920  1.0362
  940MOL0     H26881   3.193   0.075   8.716  1.7783  1.4411  0.1156
  940MOL0     H26882   3.940   0.749   9.149  1.8783  0.9872 -1.3066
  940MOL0     H26883   4.024   0.945   9.018 -1.0011  1.6172 -2.5712
  940MOL0     H26884   4.100   1.176   8.732  0.8031 -0.9531  0.1714
  940MOL0     H26885   4.180   1.347   8.613  1.4244 -2.4621  1.5276
  940MOL0     H26886   4.128   0.459   9.601  0.6244 -0.1810 -2.1887
  940MOL0     H26887   3.925   0.486   9.737 -3.9659  1.9977  0.3251
  940MOL0     H26888   3.470   0.674   9.622 -2.3321 -1.2355 -1.6095
  940MOL0     H26889   3.224   0.714   9.669 -0.8573 -1.7211  1.4070
  940MOL0     H26890   3.055   0.797   9.828 -1.5231  1.7286 -0.2083
  940MOL0     H26891   3.000   0.675   9.704 -1.7295 -0.3416  0.8139
  940MOL0     H26892   2.814   0.783   9.808 -2.2302  2.1626  4.4416
  940MOL0     H26893   2.887   0.755   9.966 -1.3415 -2.1714  1.6044
  940MOL0     H26894   2.869   0.537   9.955  3.0878  3.4605 -1.0065
  940MOL0     H26895   2.797   0.532   9.786 -0.3640  2.0669 -1.0370
  940MOL0     H26896   2.695   0.637  10.051 -0.4103  0.7785 -0.5054
  940MOL0     H26897   2.620   0.501   9.971 -2.2127  0.5819  1.6914
  940MOL0     H26898   2.418   0.803   9.779 -2.1763 -2.5756 -0.5815
  940MOL0     H26899   3.230   0.397   9.964  1.0342 -0.1892  0.5303
  940MOL0     H26900   3.450   0.339   9.895  1.5748  1.4285  2.0767
  941MOL0     O26901   5.159   5.057   6.450  0.1307  0.3358  0.7040
  941MOL0     C26902   5.202   5.126   6.355 -0.2317 -0.0774 -0.2525
  941MOL0     O26903   5.135   5.160   6.249  0.5068  0.3274  0.4457
  941MOL0     C26904   5.000   5.119   6.224  0.1077 -0.5572  0.4563
  941MOL0     C26905   4.905   5.182   6.299 -0.2991 -0.7083 -0.2691
  941MOL0     C26906   4.771   5.164   6.277  1.2857  1.0419  0.2445
  941MOL0     C26907   4.724   5.110   6.162 -0.0447  0.6842  0.1965
  941MOL0     O26908   4.594   5.111   6.107 -0.7253 -0.1254  0.6363
  941MOL0     C26909   4.494   5.036   6.175  0.2477 -0.1753  0.5271
  941MOL0     C26910   4.377   5.015   6.082 -0.1417 -0.6137  0.2036
  941MOL0     C26911   4.259   4.929   6.144 -0.0028 -0.0179  0.2099
  941MOL0     C26912   4.149   4.896   6.040  1.2309 -0.3399  0.8372
  941MOL0     C26913   4.060   4.790   6.092  0.4424  0.4374  0.7986
  941MOL0     C26914   3.926   4.767   6.023  0.6415 -0.1722  0.7300
  941MOL0     C26915   3.812   4.793   6.114  0.4912  0.0394 -1.0241
  941MOL0     C26916   3.671   4.766   6.049 -0.6127 -0.6915 -0.5393
  941MOL0     N26917   3.653   4.634   5.994  0.5307 -0.0008  1.8314
  941MOL0     C26918   3.641   4.593   5.860 -0.3941 -0.3308 -0.1526
  941MOL0     C26919   3.623   4.461   5.865  0.1952 -0.5504  0.0920
  941MOL0     C26920   3.596   4.377   5.741  0.6524 -0.4662  0.7269
  941MOL0     C26921   3.448   4.363   5.723  0.2763  0.8272 -0.2838
  941MOL0     C26922   3.400   4.309   5.580 -0.8594 -0.0088 -0.6282
  941MOL0     C26923   3.248   4.319   5.569  0.0117 -0.4062  0.5209
  941MOL0     O26924   3.214   4.323   5.432 -0.7666 -0.5072  1.0276
  941MOL0     C26925   3.090   4.298   5.390 -0.1049  0.0042 -0.2032
  941MOL0     C26926   2.983   4.282   5.480  0.3399 -0.7410  0.5306
  941MOL0     C26927   2.854   4.253   5.447  0.9423  0.2665  0.2533
  941MOL0     C26928   2.751   4.241   5.548  0.2964  1.2308  0.1324
  941MOL0     C26929   2.830   4.229   5.306  0.3053  0.3401  0.0656
  941MOL0     C26930   2.698   4.188   5.252 -0.2770  0.1488 -1.2456
  941MOL0     O26931   2.704   4.125   5.134  0.2710  1.3054  0.5767
  941MOL0     C26932   2.588   4.092   5.069 -0.5749  0.3389 -0.0793
  941MOL0     C26933   2.507   4.191   5.016 -0.0519  0.3956 -0.0522
  941MOL0     C26934   2.393   4.152   4.929 -0.2710 -0.4292 -1.5133
  941MOL0     C26935   2.372   4.024   4.893  0.0912  0.0761  0.9130
  941MOL0     O26936   2.257   3.999   4.807  0.1912  0.7037 -0.5664
  941MOL0     C26937   2.191   3.870   4.804  0.5525  0.0477 -0.0668
  941MOL0     C26938   2.266   3.766   4.720 -0.1878  0.3439  0.4876
  941MOL0     C26939   2.290   3.825   4.581  0.2785  0.2313 -0.7729
  941MOL0     C26940   2.380   3.728   4.510  0.6448 -0.2632  0.4448
  941MOL0     C26941   2.396   3.742   4.354  0.4712 -0.5419  0.1701
  941MOL0     C26942   2.457   3.887   4.316  0.2240 -0.5862  0.1123
  941MOL0     C26943   2.605   3.913   4.339 -0.7730 -0.8141  0.1702
  941MOL0     C26944   2.705   3.824   4.252  0.1093 -0.4472  0.0000
  941MOL0    Cl26945   2.863   3.900   4.251 -0.0546 -0.0117 -0.3171
  941MOL0     C26946   2.456   3.924   4.953  0.1002 -0.5276  0.2622
  941MOL0     C26947   2.555   3.958   5.045 -0.0525 -0.6650 -0.0354
  941MOL0     O26948   2.592   4.198   5.321 -0.4911 -0.2912 -0.2621
  941MOL0     C26949   2.928   4.256   5.212  0.4009  0.1328 -0.6009
  941MOL0     C26950   3.064   4.280   5.250 -0.7352 -0.5543  0.0518
  941MOL0     N26951   3.639   4.419   5.990  0.0345  0.1633  0.2386
  941MOL0     N26952   3.648   4.521   6.069  0.1780 -0.0032 -0.0528
  941MOL0     C26953   4.824   5.048   6.077 -1.0184  0.8591 -0.1414
  941MOL0     C26954   4.967   5.045   6.114 -0.2440  0.0072 -0.3850
  941MOL0     C26955   5.352   5.132   6.348  0.1292  0.1397  0.1546
  941MOL0     C26956   5.420   5.155   6.229  0.3908  0.6389 -0.0161
  941MOL0     C26957   5.553   5.154   6.217 -0.6496  1.0587  0.5582
  941MOL0     C26958   5.645   5.130   6.322  0.8002  0.6226  0.0279
  941MOL0     O26959   5.782   5.111   6.315 -0.1045 -0.3187  1.2044
  941MOL0     C26960   5.852   5.153   6.192  0.9102 -0.7573 -0.6417
  941MOL0     C26961   5.981   5.239   6.225 -0.0273 -0.1530 -0.4713
  941MOL0     C26962   5.941   5.358   6.308  0.6068 -0.1085  0.3609
  941MOL0     C26963   6.060   5.445   6.344  0.3972 -0.4368 -1.0211
  941MOL0     C26964   6.124   5.498   6.225  0.7535  0.9753 -0.1092
  941MOL0     C26965   6.167   5.555   6.125 -0.9178 -0.2197 -0.2472
  941MOL0     C26966   5.578   5.097   6.442  0.4310 -0.9547  0.1557
  941MOL0     C26967   5.439   5.102   6.456 -0.7306 -0.7589 -0.2733
  941MOL0     H26968   4.933   5.243   6.384  0.3302 -1.7440  0.2940
  941MOL0     H26969   4.684   5.204   6.328  0.3293 -0.9808  0.3216
  941MOL0     H26970   4.531   4.938   6.206 -1.1087 -0.9268 -0.1434
  941MOL0     H26971   4.458   5.097   6.258 -3.1140 -2.0050  0.5786
  941MOL0     H26972   4.335   5.111   6.053 -1.3320 -1.9493 -2.9733
  941MOL0     H26973   4.396   4.977   5.981 -1.9286  1.7801 -1.1249
  941MOL0     H26974   4.300   4.837   6.187  0.4256 -2.0520 -4.0198
  941MOL0     H26975   4.192   4.984   6.210 -1.9577  0.1143 -1.7753
  941MOL0     H26976   4.091   4.986   6.018  3.1406  0.9546  0.8670
  941MOL0     H26977   4.192   4.860   5.946  0.3464 -2.1200  1.0805
  941MOL0     H26978   4.111   4.694   6.099  0.8871  0.7724  3.1659
  941MOL0     H26979   4.041   4.806   6.199  0.6167  0.4528  0.8275
  941MOL0     H26980   3.926   4.838   5.940  0.5507 -0.8185  0.1667
  941MOL0     H26981   3.929   4.669   5.975 -0.1594  0.7656 -1.3309
  941MOL0     H26982   3.837   4.730   6.200  3.7958 -0.1339 -1.9780
  941MOL0     H26983   3.807   4.900   6.137  1.4045  0.5543 -2.9990
  941MOL0     H26984   3.658   4.842   5.972  0.5466 -2.7733 -2.9216
  941MOL0     H26985   3.594   4.792   6.123 -0.8009  2.7668 -1.7827
  941MOL0     H26986   3.655   4.644   5.765 -1.4126 -0.4297 -0.3575
  941MOL0     H26987   3.642   4.418   5.650 -1.8078 -0.7159 -0.7058
  941MOL0     H26988   3.636   4.276   5.753 -2.3638 -1.6237  1.8120
  941MOL0     H26989   3.408   4.465   5.717  1.2266  1.3561  1.5206
  941MOL0     H26990   3.404   4.306   5.806 -1.7534  1.1043 -1.1032
  941MOL0     H26991   3.431   4.206   5.561  2.0554  0.3867  1.3437
  941MOL0     H26992   3.454   4.375   5.511  1.8045 -0.0628  1.2554
  941MOL0     H26993   3.209   4.413   5.610 -1.2795 -0.6838 -0.0255
  941MOL0     H26994   3.205   4.230   5.616  0.2790  0.3834  2.3343
  941MOL0     H26995   2.998   4.296   5.587 -0.7466  1.2145  0.4895
  941MOL0     H26996   2.663   4.293   5.510  0.8209  1.1540 -1.2341
  941MOL0     H26997   2.746   4.134   5.570 -0.6981  1.0128 -1.0467
  941MOL0     H26998   2.786   4.284   5.642  1.6427 -0.3806  0.4065
  941MOL0     H26999   2.511   4.295   5.048 -1.2542  0.3993  0.1490
  941MOL0     H27000   2.333   4.233   4.889  0.8379 -0.6697 -3.8532
  941MOL0     H27001   2.174   3.838   4.907  1.3169 -0.1448  0.0043
  941MOL0     H27002   2.087   3.885   4.773  0.3594  0.4349  0.7403
  941MOL0     H27003   2.358   3.729   4.765  0.4204 -0.3591 -1.2410
  941MOL0     H27004   2.206   3.674   4.719 -1.1146  0.8530 -2.5077
  941MOL0     H27005   2.348   3.916   4.598  1.4624 -1.0102  2.6592
  941MOL0     H27006   2.199   3.852   4.527 -1.2383 -1.1857  0.9392
  941MOL0     H27007   2.476   3.744   4.560  0.6949  2.0564 -0.3174
  941MOL0     H27008   2.333   3.631   4.531 -2.3112  0.9345 -0.2685
  941MOL0     H27009   2.292   3.735   4.319 -1.6540 -0.2116  5.4334
  941MOL0     H27010   2.456   3.657   4.322 -1.1690 -2.0403  0.9077
  941MOL0     H27011   2.440   3.891   4.208 -3.4726 -0.7999  0.5432
  941MOL0     H27012   2.400   3.972   4.354 -0.1322 -1.2461  1.0888
  941MOL0     H27013   2.623   3.894   4.446 -3.0005  2.8123  1.3550
  941MOL0     H27014   2.638   4.015   4.319  2.4017 -1.7817 -0.0045
  941MOL0     H27015   2.668   3.816   4.150 -0.9755 -1.2659  0.4296
  941MOL0     H27016   2.704   3.718   4.280 -2.9190 -0.2977  0.8335
  941MOL0     H27017   2.445   3.817   4.940 -0.6386 -0.4290  0.0139
  941MOL0     H27018   2.610   3.875   5.089  2.3754  0.9730  0.2405
  941MOL0     H27019   2.898   4.250   5.107  0.0904 -0.3662 -0.4880
  941MOL0     H27020   3.138   4.288   5.171  0.3440  1.7002  1.1979
  941MOL0     H27021   4.783   4.998   5.990  1.6013  0.2317 -1.0809
  941MOL0     H27022   5.038   4.985   6.058 -1.1162 -0.2726 -1.2161
  941MOL0     H27023   5.353   5.174   6.145 -0.4923 -0.3928  0.4274
  941MOL0     H27024   5.574   5.179   6.114 -1.2485  0.4467  0.2779
  941MOL0     H27025   5.874   5.059   6.139 -4.2680 -2.4330 -0.4150
  941MOL0     H27026   5.793   5.207   6.117 -0.5608 -1.2250  0.1294
  941MOL0     H27027   6.020   5.265   6.126 -1.3568 -1.4045 -1.3783
  941MOL0     H27028   6.050   5.177   6.284 -0.7991 -0.4046  0.1940
  941MOL0     H27029   5.889   5.330   6.400  0.9675 -2.0540  0.0327
  941MOL0     H27030   5.878   5.415   6.239  0.8702 -0.5454 -0.2492
  941MOL0     H27031   6.133   5.382   6.396  0.3093 -0.0385 -0.4018
  941MOL0     H27032   6.029   5.532   6.403  0.4953 -0.9271 -0.2181
  941MOL0     H27033   6.183   5.605   6.031  0.9504 -0.2842 -0.0041
  941MOL0     H27034   5.639   5.059   6.524 -0.7779  0.2919  1.6907
  941MOL0     H27035   5.395   5.084   6.553 -1.5642 -5.9943 -1.3517
  942MOL0     O27036   9.439   5.536   6.207 -0.1273 -0.4872  0.2944
  942MOL0     C27037   9.483   5.480   6.103  0.3794  0.0104 -0.0950
  942MOL0     O27038   9.404   5.408   6.018  0.1816 -0.7110 -0.1634
  942MOL0     C27039   9.271   5.398   6.065  0.1104 -0.2658  0.1461
  942MOL0     C27040   9.247   5.311   6.158 -0.5363 -0.3396  0.1167
  942MOL0     C27041   9.114   5.299   6.212 -0.0043  0.6015  0.3973
  942MOL0     C27042   9.009   5.377   6.160  0.2835  0.9910 -0.0764
  942MOL0     O27043   8.888   5.372   6.216 -0.6751  0.5479 -0.5861
  942MOL0     C27044   8.780   5.445   6.159 -0.0385  0.4314 -0.2079
  942MOL0     C27045   8.664   5.413   6.242 -0.1215  0.9435 -0.1874
  942MOL0     C27046   8.675   5.468   6.387 -0.0745 -0.1704  0.6715
  942MOL0     C27047   8.548   5.434   6.476 -0.6903  0.0759  0.2551
  942MOL0     C27048   8.584   5.331   6.586 -0.8237  0.3072  0.4283
  942MOL0     C27049   8.600   5.402   6.724 -0.4395 -0.2331 -0.8451
  942MOL0     C27050   8.626   5.301   6.834 -0.5163  1.1779 -1.3522
  942MOL0     C27051   8.650   5.370   6.971  0.4745 -0.0989  0.3342
  942MOL0     N27052   8.779   5.429   6.980 -0.3073  0.3950 -0.6222
  942MOL0     C27053   8.818   5.532   7.061  0.3473 -0.1437 -0.8037
  942MOL0     C27054   8.944   5.555   7.031  0.0498  0.7354 -0.4932
  942MOL0     C27055   9.037   5.669   7.077 -0.0496  0.2598  0.3705
  942MOL0     C27056   9.178   5.655   7.031  0.2220  0.3937 -0.2105
  942MOL0     C27057   9.246   5.794   7.049 -0.2596  0.2023  0.1611
  942MOL0     C27058   9.399   5.783   7.066 -0.5387  0.8344  0.2168
  942MOL0     O27059   9.437   5.726   7.195  0.0239 -0.3374  0.1923
  942MOL0     C27060   9.416   5.798   7.313  0.2170 -0.4873  0.5249
  942MOL0     C27061   9.443   5.726   7.430 -1.2282 -0.2261  0.3480
  942MOL0     C27062   9.444   5.787   7.561  1.2003 -0.2053  0.1897
  942MOL0     C27063   9.466   5.690   7.666 -0.4033  0.1382 -0.4165
  942MOL0     C27064   9.413   5.928   7.568 -0.2091 -0.1726  0.3081
  942MOL0     C27065   9.406   6.010   7.696 -0.1089  0.0647  0.1364
  942MOL0     O27066   9.323   6.120   7.688  0.5795  0.2345  0.6404
  942MOL0     C27067   9.320   6.196   7.805 -0.2160 -0.0055  0.5658
  942MOL0     C27068   9.223   6.174   7.905 -0.7704 -0.8975  0.3494
  942MOL0     C27069   9.205   6.273   8.003  0.5110 -0.2021  0.5129
  942MOL0     C27070   9.290   6.386   8.011  1.2798  0.6370 -0.0389
  942MOL0     O27071   9.283   6.479   8.123  0.3787 -0.1692  0.0990
  942MOL0     C27072   9.326   6.420   8.248 -0.3611  0.4171 -0.1358
  942MOL0     C27073   9.465   6.377   8.258  0.4277  0.2592 -0.0446
  942MOL0     C27074   9.505   6.345   8.398 -1.0483  0.6102 -1.1252
  942MOL0     C27075   9.651   6.368   8.430 -0.3363 -0.1943  0.6342
  942MOL0     C27076   9.662   6.415   8.573 -0.1540 -0.8802 -0.6763
  942MOL0     C27077   9.794   6.477   8.618  0.5321 -0.3924 -0.5372
  942MOL0     C27078   9.842   6.591   8.532  0.5594  0.0803  1.0268
  942MOL0     C27079   9.955   6.670   8.611 -0.0732  0.2935  0.2217
  942MOL0    Cl27080   9.901   6.755   8.756  0.2985  0.0961 -0.0920
  942MOL0     C27081   9.390   6.402   7.914  0.2856 -0.5553  0.1084
  942MOL0     C27082   9.400   6.313   7.806  0.3572  0.5679  0.1469
  942MOL0     O27083   9.487   5.987   7.786  0.5189  0.0331  0.4783
  942MOL0     C27084   9.388   6.000   7.444  0.1568  0.8738 -0.3783
  942MOL0     C27085   9.398   5.934   7.326  0.8505  0.4663 -0.4742
  942MOL0     N27086   8.987   5.460   6.940  0.4245  0.7004  0.3198
  942MOL0     N27087   8.892   5.378   6.915  0.1884 -0.6350 -0.9248
  942MOL0     C27088   9.039   5.466   6.051 -1.0154  0.6580 -0.2679
  942MOL0     C27089   9.174   5.480   5.999  0.3345  0.1413 -0.0174
  942MOL0     C27090   9.628   5.455   6.088  0.6920 -0.3511 -0.1205
  942MOL0     C27091   9.713   5.551   6.149 -0.9541 -0.2100  0.0203
  942MOL0     C27092   9.856   5.521   6.150  0.0989  0.5719 -0.5340
  942MOL0     C27093   9.906   5.404   6.101 -0.6405  0.4281  0.5005
  942MOL0     O27094  10.044   5.383   6.084 -0.3285 -1.4461  0.1571
  942MOL0     C27095  10.085   5.343   5.953  0.6589 -0.3267  0.5226
  942MOL0     C27096  10.190   5.442   5.875 -0.4109  0.0553  0.2924
  942MOL0     C27097  10.330   5.440   5.921  0.7723  0.4977  0.3694
  942MOL0     C27098  10.341   5.499   6.057 -0.7368 -0.3944  0.0252
  942MOL0     C27099  10.300   5.640   6.075 -0.0889  0.1267 -0.9325
  942MOL0     C27100  10.272   5.757   6.092 -0.1999  0.4219  0.9443
  942MOL0     C27101   9.813   5.308   6.041 -0.0054 -1.2839 -0.2603
  942MOL0     C27102   9.682   5.340   6.028  0.5919  0.7804  0.5223
  942MOL0     H27103   9.336   5.266   6.202 -1.2252  0.9161  3.0272
  942MOL0     H27104   9.087   5.231   6.292  0.2569  0.9109  0.7516
  942MOL0     H27105   8.785   5.554   6.154 -1.2027  0.4563 -1.3709
  942MOL0     H27106   8.768   5.416   6.054  1.8726  1.7951 -0.8509
  942MOL0     H27107   8.575   5.458   6.197 -0.7278  0.1182  0.1672
  942MOL0     H27108   8.649   5.305   6.253 -4.7516  1.5183  0.9840
  942MOL0     H27109   8.764   5.428   6.437  0.1465 -0.2380  0.2362
  942MOL0     H27110   8.697   5.575   6.388  1.5213 -0.4619  2.5697
  942MOL0     H27111   8.516   5.524   6.529  0.0338 -0.5116  1.7726
  942MOL0     H27112   8.470   5.387   6.415 -0.6407 -0.3182  0.4925
  942MOL0     H27113   8.506   5.255   6.592 -1.8372  1.0857 -1.9512
  942MOL0     H27114   8.679   5.279   6.569  0.1103  1.8752  0.5818
  942MOL0     H27115   8.685   5.471   6.719  1.5743 -2.2645  2.0497
  942MOL0     H27116   8.511   5.460   6.750 -0.5223 -0.7215  0.0044
  942MOL0     H27117   8.533   5.243   6.837  0.7860 -1.1190  2.6410
  942MOL0     H27118   8.705   5.231   6.808 -0.6468  0.9827 -1.2235
  942MOL0     H27119   8.638   5.290   7.044  0.4190  1.0901  1.6636
  942MOL0     H27120   8.579   5.450   6.992 -1.0200 -1.0728 -0.8447
  942MOL0     H27121   8.765   5.594   7.133  1.9066  0.8308 -0.4536
  942MOL0     H27122   8.995   5.759   7.032 -2.7195 -2.0501 -2.2555
  942MOL0     H27123   9.040   5.681   7.185 -2.6220 -0.5784  0.6058
  942MOL0     H27124   9.170   5.652   6.922  2.1812 -0.1068 -0.3782
  942MOL0     H27125   9.245   5.580   7.075  4.8525  4.2543  0.0903
  942MOL0     H27126   9.198   5.835   7.138 -0.1664  1.5484 -0.3925
  942MOL0     H27127   9.232   5.841   6.951  0.1865  0.0597  0.0262
  942MOL0     H27128   9.447   5.881   7.075 -1.7315  1.2713  3.0616
  942MOL0     H27129   9.439   5.726   6.982 -1.7902  1.8134 -1.0902
  942MOL0     H27130   9.471   5.622   7.423 -0.1602 -0.0585  1.6940
  942MOL0     H27131   9.573   5.699   7.689  0.7749 -1.8990 -4.2214
  942MOL0     H27132   9.401   5.701   7.754  2.2039 -1.7880  1.9158
  942MOL0     H27133   9.429   5.590   7.645 -1.9947  0.3657  1.0783
  942MOL0     H27134   9.161   6.085   7.908  0.5781 -1.9379 -1.1195
  942MOL0     H27135   9.133   6.254   8.082 -1.5294  0.4652 -1.0955
  942MOL0     H27136   9.308   6.499   8.321  3.9462  2.0061 -0.5102
  942MOL0     H27137   9.253   6.340   8.266 -0.0036  0.0943 -0.1061
  942MOL0     H27138   9.485   6.282   8.209 -1.0189  1.4479 -3.1847
  942MOL0     H27139   9.541   6.446   8.222  3.3789 -0.7941  3.4792
  942MOL0     H27140   9.470   6.249   8.437 -0.6534  1.3865  1.3173
  942MOL0     H27141   9.446   6.412   8.463 -2.7661  0.2403 -2.2189
  942MOL0     H27142   9.714   6.281   8.411 -1.3575 -0.4363 -2.0176
  942MOL0     H27143   9.687   6.444   8.360 -2.1448 -1.0811 -1.3442
  942MOL0     H27144   9.641   6.321   8.625  0.4407 -1.4325 -1.4156
  942MOL0     H27145   9.585   6.488   8.601  1.1807 -0.1876  1.4368
  942MOL0     H27146   9.791   6.494   8.726 -1.0995 -0.1412 -0.5823
  942MOL0     H27147   9.868   6.398   8.610  0.7351 -0.1800 -0.7846
  942MOL0     H27148   9.758   6.659   8.513  1.9947  2.1835  1.8824
  942MOL0     H27149   9.888   6.568   8.435  0.9286  2.4771  0.5623
  942MOL0     H27150   9.984   6.754   8.546  2.4682  3.5965  4.9693
  942MOL0     H27151  10.033   6.600   8.644  1.3457  1.3584 -0.7319
  942MOL0     H27152   9.455   6.488   7.928 -0.3509  0.3819 -2.1672
  942MOL0     H27153   9.455   6.323   7.713 -1.6209  0.8517 -1.0738
  942MOL0     H27154   9.365   6.106   7.455  1.3967  1.2595 -1.3526
  942MOL0     H27155   9.384   5.995   7.237 -0.3550  2.5416  1.0551
  942MOL0     H27156   8.962   5.529   6.010 -2.3753 -1.4738 -1.1984
  942MOL0     H27157   9.197   5.558   5.927  1.4672  0.9886  1.1804
  942MOL0     H27158   9.675   5.647   6.182 -1.9124 -0.9700  1.2022
  942MOL0     H27159   9.933   5.582   6.197 -0.2766  0.0037  0.8666
  942MOL0     H27160  10.145   5.251   5.961 -0.0341 -0.7439  1.0535
  942MOL0     H27161  10.001   5.331   5.885  1.7855  3.2309 -1.7194
  942MOL0     H27162  10.149   5.541   5.852 -0.3309 -0.2204 -1.1179
  942MOL0     H27163  10.206   5.387   5.782  4.4242  0.3511  0.7129
  942MOL0     H27164  10.397   5.494   5.852 -1.9082  1.0264 -2.0312
  942MOL0     H27165  10.357   5.334   5.917 -2.7343 -0.5971  1.9794
  942MOL0     H27166  10.449   5.485   6.073 -0.6334 -2.5145 -2.0015
  942MOL0     H27167  10.288   5.441   6.133  1.0437 -0.0514  1.6308
  942MOL0     H27168  10.249   5.862   6.100 -0.4596  0.5914 -1.3290
  942MOL0     H27169   9.855   5.222   5.990  2.8158  0.6258 -1.4138
  942MOL0     H27170   9.616   5.263   5.989  1.7793  1.0383 -2.2263
  943MOL0     O27171   6.617   9.785   5.581  0.7085  0.4712 -0.0757
  943MOL0     C27172   6.670   9.772   5.471 -0.1456  0.3078 -0.3935
  943MOL0     O27173   6.616   9.797   5.349  0.2423  0.0417 -0.2998
  943MOL0     C27174   6.491   9.857   5.357  0.1027  0.3453 -0.3905
  943MOL0     C27175   6.383   9.780   5.300  0.3498 -0.9015 -0.6501
  943MOL0     C27176   6.255   9.837   5.298 -0.7591  0.1839 -0.8851
  943MOL0     C27177   6.237   9.972   5.343  0.5793 -0.1712  0.0864
  943MOL0     O27178   6.104  10.001   5.338  0.2545  0.3490 -0.8709
  943MOL0     C27179   6.054  10.068   5.451 -0.8776 -0.4729  0.1174
  943MOL0     C27180   5.908  10.053   5.463  0.5826  0.0506  1.1654
  943MOL0     C27181   5.827  10.159   5.397  0.3657 -0.8752  0.4121
  943MOL0     C27182   5.791  10.129   5.254 -0.3160 -0.2933 -0.8205
  943MOL0     C27183   5.669  10.214   5.216  0.4994  0.5964 -0.1409
  943MOL0     C27184   5.534  10.153   5.260 -0.5159  0.6785  0.0480
  943MOL0     C27185   5.429  10.256   5.224  0.5898  0.2634 -0.1059
  943MOL0     C27186   5.286  10.217   5.262 -1.0196  0.2593 -0.7020
  943MOL0     N27187   5.192  10.165   5.156 -1.2558 -0.7787  0.0446
  943MOL0     C27188   5.203  10.038   5.103 -1.0974 -0.1660 -0.0711
  943MOL0     C27189   5.118  10.042   4.995  0.3598 -0.3392  0.3801
  943MOL0     C27190   5.106   9.928   4.896 -0.0579 -0.5705  0.3477
  943MOL0     C27191   5.189   9.802   4.937 -0.7275  0.1258  0.3248
  943MOL0     C27192   5.164   9.681   4.843 -0.1926  0.8116  0.1032
  943MOL0     C27193   5.232   9.693   4.710 -0.5838  0.3413  0.1245
  943MOL0     O27194   5.213   9.563   4.642 -0.4646 -0.1510 -0.7832
  943MOL0     C27195   5.309   9.535   4.543  0.6951  0.1644  0.8218
  943MOL0     C27196   5.281   9.427   4.459  0.2686  0.9794  0.1287
  943MOL0     C27197   5.354   9.391   4.344 -0.2553 -0.4717 -0.6675
  943MOL0     C27198   5.302   9.260   4.276  0.0098  0.0289  0.0778
  943MOL0     C27199   5.473   9.461   4.324  0.9637  0.1386  0.5985
  943MOL0     C27200   5.549   9.440   4.197 -0.4612  0.8271  1.6541
  943MOL0     O27201   5.691   9.478   4.206 -0.2600  0.1591 -0.0499
  943MOL0     C27202   5.761   9.482   4.085  0.5203  0.9084 -0.1848
  943MOL0     C27203   5.896   9.452   4.094 -0.4730 -0.2913  0.5416
  943MOL0     C27204   5.986   9.462   3.980  0.3171  0.1267 -0.5804
  943MOL0     C27205   5.927   9.494   3.852  0.7147 -0.3891 -0.7042
  943MOL0     O27206   6.019   9.500   3.748  0.0925 -0.2728 -0.1312
  943MOL0     C27207   5.983   9.532   3.612 -0.0630 -0.1801 -0.2225
  943MOL0     C27208   6.030   9.681   3.586  0.2185 -0.6696  0.2693
  943MOL0     C27209   5.965   9.732   3.453 -0.0210  0.7907 -0.1518
  943MOL0     C27210   6.004   9.879   3.427  0.5653  0.4878 -0.1061
  943MOL0     C27211   6.136   9.905   3.353  0.3463  0.0446 -0.4123
  943MOL0     C27212   6.139   9.848   3.208  0.0915  0.0783 -0.1071
  943MOL0     C27213   6.077   9.949   3.111  0.5364 -0.4905  0.4333
  943MOL0     C27214   6.026   9.896   2.972 -1.0651 -1.3493 -0.7355
  943MOL0    Cl27215   6.028  10.038   2.861 -0.0172 -0.0935 -0.1165
  943MOL0     C27216   5.781   9.513   3.834  0.1844 -0.0494  0.2748
  943MOL0     C27217   5.704   9.511   3.956 -1.1095 -0.7333 -0.1469
  943MOL0     O27218   5.494   9.381   4.104  0.3103  0.6172  0.9276
  943MOL0     C27219   5.504   9.572   4.405  0.5224 -0.2927  0.3048
  943MOL0     C27220   5.425   9.609   4.518  0.5884  0.0278  0.0420
  943MOL0     N27221   5.059  10.163   4.990 -0.0104  0.8712  0.4890
  943MOL0     N27222   5.111  10.243   5.075  0.4089  0.2609 -0.5075
  943MOL0     C27223   6.343  10.053   5.380  0.3543  0.2795 -0.6071
  943MOL0     C27224   6.469   9.992   5.395  0.6189 -0.0460 -0.4688
  943MOL0     C27225   6.813   9.725   5.473  0.1314 -0.8183  0.1846
  943MOL0     C27226   6.886   9.714   5.589  0.7966 -0.4126 -0.1371
  943MOL0     C27227   7.024   9.692   5.590 -0.0754  0.2137  0.0891
  943MOL0     C27228   7.093   9.677   5.468  0.1979 -0.1183 -0.0314
  943MOL0     O27229   7.230   9.679   5.471 -0.1953  0.3226  0.1358
  943MOL0     C27230   7.291   9.801   5.516  0.7041  0.1803  0.5660
  943MOL0     C27231   7.415   9.853   5.430  0.3533 -0.3392  0.0320
  943MOL0     C27232   7.539   9.796   5.496 -0.1818  0.5100 -0.7483
  943MOL0     C27233   7.658   9.805   5.398 -0.1758 -0.3480 -0.5857
  943MOL0     C27234   7.711   9.940   5.365  0.8614 -0.1295  0.4913
  943MOL0     C27235   7.777  10.035   5.340  1.0513 -0.6616 -0.3798
  943MOL0     C27236   7.017   9.667   5.352 -0.7640  0.5751 -0.0917
  943MOL0     C27237   6.881   9.693   5.351 -0.1959 -0.4769  0.1407
  943MOL0     H27238   6.397   9.676   5.272  0.9654 -0.6099 -1.4731
  943MOL0     H27239   6.169   9.776   5.272 -1.8298  1.8033 -1.3296
  943MOL0     H27240   6.106  10.024   5.537  0.6558 -1.7893 -1.3879
  943MOL0     H27241   6.083  10.173   5.444  0.1344 -0.7080  0.5006
  943MOL0     H27242   5.876   9.955   5.425 -0.8754  1.1676 -0.6479
  943MOL0     H27243   5.883  10.051   5.569 -3.2985 -1.0443  0.3774
  943MOL0     H27244   5.739  10.193   5.452  1.0978 -0.2004  1.1899
  943MOL0     H27245   5.880  10.254   5.402  1.8505 -1.6362 -0.2537
  943MOL0     H27246   5.872  10.160   5.187 -0.9830  0.0022 -1.5107
  943MOL0     H27247   5.756  10.026   5.243 -0.4145 -0.6085  1.8018
  943MOL0     H27248   5.663  10.316   5.255  0.2854  2.0158 -3.5526
  943MOL0     H27249   5.660  10.234   5.109 -3.6938  1.7206  0.2597
  943MOL0     H27250   5.520  10.061   5.202 -4.8004  1.3511 -0.3106
  943MOL0     H27251   5.524  10.130   5.367 -2.8023  0.4191 -0.1590
  943MOL0     H27252   5.446  10.355   5.268 -0.3500  1.0995 -1.5227
  943MOL0     H27253   5.431  10.267   5.115  2.8140 -1.2562 -0.2791
  943MOL0     H27254   5.232  10.299   5.310 -0.5812  0.8269 -1.1550
  943MOL0     H27255   5.292  10.137   5.336 -0.0753  0.6908 -0.2944
  943MOL0     H27256   5.266   9.952   5.121 -0.7359 -0.1660 -1.2362
  943MOL0     H27257   5.000   9.902   4.899 -0.1642 -0.1445  3.4565
  943MOL0     H27258   5.126   9.955   4.792 -2.0150  1.1188  0.3528
  943MOL0     H27259   5.158   9.762   5.034  2.6172 -1.7110  0.7739
  943MOL0     H27260   5.296   9.818   4.948 -0.3853 -1.1078 -0.8966
  943MOL0     H27261   5.055   9.674   4.843 -0.1074 -2.6117 -0.2232
  943MOL0     H27262   5.199   9.587   4.887  1.0092  1.3234  0.2803
  943MOL0     H27263   5.336   9.724   4.723 -0.2582  1.1030 -3.2454
  943MOL0     H27264   5.183   9.763   4.641 -0.2734  0.5254  0.0888
  943MOL0     H27265   5.184   9.380   4.468  1.1843 -1.6059 -2.0566
  943MOL0     H27266   5.264   9.289   4.178  1.8088 -1.7634 -1.2227
  943MOL0     H27267   5.380   9.184   4.269  1.0228  1.0371  0.1543
  943MOL0     H27268   5.219   9.209   4.326  0.1573 -2.3747 -1.9314
  943MOL0     H27269   5.930   9.432   4.195 -0.2657  1.9945  0.9927
  943MOL0     H27270   6.091   9.448   4.001 -0.2981 -1.4654  1.8064
  943MOL0     H27271   6.042   9.466   3.548  1.6703  0.9181  0.1688
  943MOL0     H27272   5.879   9.524   3.580 -0.6251 -0.6945  1.6653
  943MOL0     H27273   6.002   9.749   3.667 -1.1180 -1.3098  0.3863
  943MOL0     H27274   6.139   9.677   3.580  0.2458 -0.8633  0.8139
  943MOL0     H27275   5.857   9.724   3.465  0.2493  0.0547  2.5479
  943MOL0     H27276   6.001   9.666   3.374 -0.9268 -0.2308  0.2614
  943MOL0     H27277   5.927   9.924   3.363 -0.0902  1.2151  1.1343
  943MOL0     H27278   6.002   9.938   3.519  1.2070 -0.5789  0.6115
  943MOL0     H27279   6.224   9.856   3.396 -0.0352  0.4590  0.9192
  943MOL0     H27280   6.138  10.014   3.351  1.1535  0.0222 -2.1474
  943MOL0     H27281   6.241   9.817   3.185 -0.6624 -1.7945 -1.1647
  943MOL0     H27282   6.078   9.758   3.194 -0.8196  0.8026 -0.9558
  943MOL0     H27283   6.142  10.035   3.092  0.4113 -0.1412  1.5256
  943MOL0     H27284   5.982   9.983   3.155 -0.1426  1.4914 -2.2726
  943MOL0     H27285   5.922   9.866   2.982 -1.6487  0.9873  1.2203
  943MOL0     H27286   6.082   9.813   2.927 -0.8953 -1.0842 -1.0114
  943MOL0     H27287   5.744   9.538   3.736 -0.1809  0.8707  0.6345
  943MOL0     H27288   5.600   9.533   3.933 -1.1167 -1.1630 -0.5324
  943MOL0     H27289   5.587   9.641   4.395  0.6315  0.0293  2.7593
  943MOL0     H27290   5.464   9.692   4.575  1.1039  1.9043 -2.7984
  943MOL0     H27291   6.336  10.160   5.398  1.3568  0.0185  1.5758
  943MOL0     H27292   6.558  10.049   5.420  0.8622 -0.8030  0.3976
  943MOL0     H27293   6.842   9.733   5.687 -0.6296  1.2452 -1.0484
  943MOL0     H27294   7.069   9.691   5.689 -6.7764  1.7746  3.7584
  943MOL0     H27295   7.221   9.885   5.507  1.2783  0.5596 -0.6044
  943MOL0     H27296   7.315   9.807   5.623  0.1529 -0.7321  0.7494
  943MOL0     H27297   7.417   9.962   5.442 -1.6114 -0.4015  1.4059
  943MOL0     H27298   7.403   9.818   5.327 -1.7154 -1.2024  0.5069
  943MOL0     H27299   7.518   9.690   5.516 -4.7485  1.7131  2.6014
  943MOL0     H27300   7.558   9.833   5.597 -0.9877 -5.3770  2.0108
  943MOL0     H27301   7.624   9.768   5.301  0.5042  0.2009 -1.0433
  943MOL0     H27302   7.739   9.740   5.432 -1.6668 -1.1054  1.7469
  943MOL0     H27303   7.840  10.123   5.336  0.5452 -0.1502  1.7021
  943MOL0     H27304   7.085   9.641   5.272 -0.3932 -1.0313  0.7176
  943MOL0     H27305   6.829   9.681   5.256 -0.1249 -0.8726  0.1508
  944MOL0     O27306   5.995   2.643   1.266 -0.1030  0.2396  0.2950
  944MOL0     C27307   6.073   2.544   1.276  0.0176 -0.5020  0.3233
  944MOL0     O27308   6.034   2.411   1.298  0.5659 -0.4119  1.2855
  944MOL0     C27309   5.901   2.386   1.317 -0.3495 -0.4521  0.1958
  944MOL0     C27310   5.797   2.419   1.221  0.6451 -0.8671 -0.5658
  944MOL0     C27311   5.665   2.383   1.237  0.6106  0.5451  0.4955
  944MOL0     C27312   5.623   2.312   1.351 -0.9226  0.8680 -0.0932
  944MOL0     O27313   5.487   2.290   1.367  0.6212 -0.6789 -0.0781
  944MOL0     C27314   5.446   2.233   1.489 -0.3739  0.5454  0.1694
  944MOL0     C27315   5.303   2.206   1.488  0.2095 -0.9030 -0.7123
  944MOL0     C27316   5.220   2.336   1.528 -0.4053 -1.1192 -0.6287
  944MOL0     C27317   5.070   2.307   1.551 -0.6919  0.1750 -0.0470
  944MOL0     C27318   5.012   2.434   1.630 -0.7442 -0.9175  0.6738
  944MOL0     C27319   4.853   2.430   1.630  0.1111 -0.8487 -0.3327
  944MOL0     C27320   4.799   2.543   1.715  0.6559 -0.2972 -0.2097
  944MOL0     C27321   4.657   2.572   1.677  0.3043  0.2350 -0.3114
  944MOL0     N27322   4.561   2.462   1.701 -1.0891  0.4223  1.4308
  944MOL0     C27323   4.487   2.403   1.599 -0.6940  0.1811 -0.2417
  944MOL0     C27324   4.387   2.331   1.657  0.5901 -1.0882 -0.3150
  944MOL0     C27325   4.296   2.224   1.591 -0.1979 -0.0169 -0.0313
  944MOL0     C27326   4.169   2.286   1.531 -1.1109 -1.9070  0.5047
  944MOL0     C27327   4.066   2.189   1.472  0.5223  0.4830  0.4543
  944MOL0     C27328   3.948   2.280   1.427 -0.1011 -0.3803  0.0186
  944MOL0     O27329   3.841   2.196   1.379  0.0267  0.3480 -0.4795
  944MOL0     C27330   3.704   2.226   1.404 -0.4371  0.0205 -1.2153
  944MOL0     C27331   3.648   2.312   1.500 -0.7087 -0.3282  0.3304
  944MOL0     C27332   3.513   2.343   1.519 -0.1246  0.5317  0.0691
  944MOL0     C27333   3.470   2.457   1.613 -0.6819 -0.6783 -0.4789
  944MOL0     C27334   3.420   2.270   1.442  0.1160 -0.2989 -0.3489
  944MOL0     C27335   3.271   2.282   1.464 -0.2804  0.2907 -0.8571
  944MOL0     O27336   3.194   2.248   1.355  0.4201 -0.1807 -0.0864
  944MOL0     C27337   3.055   2.243   1.378  0.3847  0.3962 -0.7042
  944MOL0     C27338   2.979   2.351   1.425  0.2568  0.2470  0.1446
  944MOL0     C27339   2.841   2.337   1.437 -0.2531  0.1985 -0.2391
  944MOL0     C27340   2.770   2.218   1.418  0.0849 -0.2981  0.7496
  944MOL0     O27341   2.637   2.208   1.457  0.8115 -0.3395  0.3297
  944MOL0     C27342   2.556   2.168   1.346 -0.6509  0.0699  1.1319
  944MOL0     C27343   2.410   2.193   1.391 -0.1249  0.8420  0.2184
  944MOL0     C27344   2.309   2.162   1.272  0.8647  0.4100  0.5301
  944MOL0     C27345   2.177   2.231   1.309 -0.2581  0.6742  0.2010
  944MOL0     C27346   2.056   2.188   1.219  0.0528  0.6490 -0.0866
  944MOL0     C27347   1.927   2.245   1.283 -0.4980 -0.0658  0.1611
  944MOL0     C27348   1.804   2.177   1.244 -0.5401 -0.8218  0.1233
  944MOL0     C27349   1.688   2.215   1.329  0.0618  0.5935 -0.5220
  944MOL0    Cl27350   1.626   2.389   1.317  0.0745 -0.1109 -0.2700
  944MOL0     C27351   2.852   2.105   1.380 -0.4165  0.5099  1.3502
  944MOL0     C27352   2.989   2.119   1.357  0.0491 -0.6303 -0.2545
  944MOL0     O27353   3.230   2.307   1.577  0.0388  0.0364  0.2650
  944MOL0     C27354   3.474   2.187   1.340 -0.0452  0.1843 -0.2795
  944MOL0     C27355   3.614   2.161   1.322  0.5998 -1.2966 -0.4003
  944MOL0     N27356   4.388   2.364   1.791 -0.4620  0.2086 -0.0552
  944MOL0     N27357   4.492   2.446   1.815  0.4195  0.2845  0.0369
  944MOL0     C27358   5.722   2.289   1.452 -0.2836 -0.7470 -0.3911
  944MOL0     C27359   5.860   2.328   1.435  0.1201  0.1773 -0.1853
  944MOL0     C27360   6.218   2.567   1.261 -0.2396 -0.0025 -0.2711
  944MOL0     C27361   6.304   2.465   1.224  0.6881  0.5201 -0.1863
  944MOL0     C27362   6.433   2.489   1.214 -0.1875 -0.6785 -0.1003
  944MOL0     C27363   6.494   2.606   1.254 -1.0821  0.2563 -0.2298
  944MOL0     O27364   6.625   2.635   1.261  0.4053 -0.5258  0.7726
  944MOL0     C27365   6.705   2.557   1.345 -0.7500 -0.5728  0.5927
  944MOL0     C27366   6.840   2.637   1.375 -0.4520  0.2084  0.6007
  944MOL0     C27367   6.947   2.546   1.439  0.1000  0.4773  0.6949
  944MOL0     C27368   6.923   2.534   1.589 -0.6673  0.3224  0.0485
  944MOL0     C27369   7.028   2.434   1.621  0.1373 -0.2357  0.2112
  944MOL0     C27370   7.115   2.361   1.660 -0.3581  0.0104  0.0501
  944MOL0     C27371   6.408   2.718   1.280 -0.0969 -0.2868  0.6868
  944MOL0     C27372   6.276   2.697   1.277  0.2406 -0.3871 -1.5179
  944MOL0     H27373   5.830   2.478   1.137  1.3443 -0.4713 -0.0316
  944MOL0     H27374   5.596   2.417   1.161 -1.5552  1.2467  2.6368
  944MOL0     H27375   5.498   2.141   1.520 -0.1037  1.0804  1.3560
  944MOL0     H27376   5.477   2.302   1.568  3.8152  0.0400 -0.7558
  944MOL0     H27377   5.259   2.163   1.397 -1.4386  0.6193 -0.6760
  944MOL0     H27378   5.288   2.127   1.562 -0.3008  0.7678  1.0200
  944MOL0     H27379   5.257   2.384   1.620 -1.7270  1.5552 -1.3978
  944MOL0     H27380   5.233   2.402   1.442  3.2435 -0.6022  0.1356
  944MOL0     H27381   5.033   2.291   1.450 -0.0368 -0.8174 -0.1391
  944MOL0     H27382   5.057   2.226   1.624 -1.7876  1.3250  1.1041
  944MOL0     H27383   5.052   2.432   1.732  1.3609  1.7088  0.0052
  944MOL0     H27384   5.050   2.521   1.576  1.7801 -0.0214  3.6311
  944MOL0     H27385   4.817   2.432   1.527 -1.6246 -3.1233  0.1409
  944MOL0     H27386   4.815   2.340   1.679  1.0008 -0.6528  0.7399
  944MOL0     H27387   4.815   2.522   1.821  4.3003 -1.8081 -0.8917
  944MOL0     H27388   4.858   2.630   1.686  2.2314 -1.0183  0.6931
  944MOL0     H27389   4.660   2.613   1.575 -2.2341 -0.0817 -0.5802
  944MOL0     H27390   4.624   2.650   1.747  0.5868  1.0804 -1.0931
  944MOL0     H27391   4.502   2.407   1.491  2.3536 -0.8899  0.0339
  944MOL0     H27392   4.356   2.162   1.523 -1.7289 -0.9941 -0.5233
  944MOL0     H27393   4.258   2.161   1.672 -1.5937  1.3049  0.3936
  944MOL0     H27394   4.185   2.364   1.456 -0.9438 -2.1066  0.3297
  944MOL0     H27395   4.135   2.354   1.610 -0.2394  1.0334 -1.4828
  944MOL0     H27396   4.033   2.125   1.554  0.1113  3.5995  2.9205
  944MOL0     H27397   4.116   2.135   1.391  1.1106  2.2357 -0.4079
  944MOL0     H27398   3.982   2.344   1.345  0.8631 -0.1332  0.5816
  944MOL0     H27399   3.919   2.339   1.514 -3.6663 -1.8522 -0.0416
  944MOL0     H27400   3.712   2.341   1.583  2.1482 -3.1357 -0.7014
  944MOL0     H27401   3.384   2.519   1.586  0.0020  0.6539  0.3165
  944MOL0     H27402   3.463   2.413   1.713 -0.9596  1.2037  0.3722
  944MOL0     H27403   3.552   2.529   1.616  0.2431 -1.6196 -2.1968
  944MOL0     H27404   3.027   2.442   1.459  0.0462 -0.2517  1.8822
  944MOL0     H27405   2.797   2.428   1.478 -1.1827 -0.5265  0.4211
  944MOL0     H27406   2.578   2.238   1.264  0.3590  1.1974  2.3335
  944MOL0     H27407   2.572   2.062   1.326  2.9844  0.7300 -0.1770
  944MOL0     H27408   2.398   2.121   1.473 -0.2206 -2.2949 -2.3395
  944MOL0     H27409   2.409   2.295   1.431  2.4468  2.3520 -3.0866
  944MOL0     H27410   2.293   2.054   1.273 -4.0606  0.8745  2.5384
  944MOL0     H27411   2.356   2.189   1.178  1.8582  2.0609  1.4502
  944MOL0     H27412   2.156   2.209   1.414  2.4897  0.0544  0.7057
  944MOL0     H27413   2.185   2.340   1.302 -1.5768  0.6782 -1.9984
  944MOL0     H27414   2.032   2.081   1.219  0.3066  0.5885  0.5981
  944MOL0     H27415   2.069   2.236   1.122  0.3514  2.0808  0.6338
  944MOL0     H27416   1.937   2.232   1.391 -1.6688 -0.8746  0.1951
  944MOL0     H27417   1.902   2.349   1.259 -2.2352 -0.0942  1.6149
  944MOL0     H27418   1.821   2.070   1.250  1.3656 -0.4885  1.5972
  944MOL0     H27419   1.781   2.205   1.141  1.3224 -1.3270 -0.4579
  944MOL0     H27420   1.711   2.192   1.433  3.7081 -1.4780 -1.6106
  944MOL0     H27421   1.604   2.146   1.313 -1.2965  2.5108 -2.2042
  944MOL0     H27422   2.818   2.003   1.372 -2.6179  1.2239  0.9972
  944MOL0     H27423   3.053   2.039   1.320  0.7057 -0.0614 -0.3576
  944MOL0     H27424   3.398   2.137   1.280 -0.4912  0.8193 -0.2584
  944MOL0     H27425   3.646   2.091   1.245  2.9396  1.7138 -2.3886
  944MOL0     H27426   5.690   2.251   1.548 -0.7142  1.6534  0.4864
  944MOL0     H27427   5.937   2.293   1.503  2.5808 -0.2992 -2.9775
  944MOL0     H27428   6.269   2.365   1.201  1.9526  0.3036 -1.2922
  944MOL0     H27429   6.504   2.411   1.189  3.1694  1.5489  1.6060
  944MOL0     H27430   6.668   2.522   1.441  2.1210  0.5486  2.2437
  944MOL0     H27431   6.736   2.467   1.291  0.3557  0.0209  0.2045
  944MOL0     H27432   6.821   2.718   1.447 -3.7692  1.0649 -1.0567
  944MOL0     H27433   6.882   2.679   1.284  0.3686 -1.0898  0.3605
  944MOL0     H27434   7.042   2.600   1.425  0.7321 -0.7836 -0.0202
  944MOL0     H27435   6.934   2.456   1.378 -2.6849  1.8254 -0.9256
  944MOL0     H27436   6.823   2.510   1.626 -0.8175  1.6278  0.5646
  944MOL0     H27437   6.950   2.630   1.633 -1.3053  0.3730  0.3411
  944MOL0     H27438   7.190   2.286   1.678 -0.2181 -0.0595 -0.8024
  944MOL0     H27439   6.448   2.813   1.312 -1.4934  0.7339 -0.4672
  944MOL0     H27440   6.217   2.786   1.297  4.6527  2.4398  0.2687
  945MOL0     O27441   2.734   4.729   6.930 -0.4175 -0.5765  0.1071
  945MOL0     C27442   2.684   4.813   7.001  1.1173  0.2389  0.9461
  945MOL0     O27443   2.560   4.814   7.037  0.1544 -0.8335 -0.2835
  945MOL0     C27444   2.460   4.745   6.975 -0.2176 -0.1339  0.0096
  945MOL0     C27445   2.464   4.619   6.903  0.0875  0.5532  0.1377
  945MOL0     C27446   2.342   4.567   6.855  0.1497 -0.5883  0.8181
  945MOL0     C27447   2.216   4.631   6.878 -0.2638 -0.4365 -0.1138
  945MOL0     O27448   2.105   4.563   6.830 -0.4521 -0.2804  0.5989
  945MOL0     C27449   1.976   4.585   6.899  0.2076 -0.3323  0.2995
  945MOL0     C27450   1.865   4.546   6.804  0.4087  0.3936  0.0530
  945MOL0     C27451   1.723   4.566   6.864  0.1649 -0.3182  0.2977
  945MOL0     C27452   1.611   4.507   6.773  0.1858 -0.1257  0.6981
  945MOL0     C27453   1.489   4.515   6.841 -0.0855 -0.0632  0.3873
  945MOL0     C27454   1.377   4.452   6.756  0.0072 -0.1060  0.0704
  945MOL0     C27455   1.242   4.473   6.824 -0.8255 -0.5923  0.5927
  945MOL0     C27456   1.127   4.424   6.741 -0.7083  0.5409 -0.9270
  945MOL0     N27457   1.007   4.406   6.829  0.0626 -0.1055  0.2383
  945MOL0     C27458   0.989   4.316   6.934  0.0482 -0.1407  0.4238
  945MOL0     C27459   0.861   4.331   6.978  0.0288  0.6439  0.0641
  945MOL0     C27460   0.794   4.248   7.084  0.3972  0.5562  0.5182
  945MOL0     C27461   0.878   4.148   7.167 -1.4565  0.7540 -0.3780
  945MOL0     C27462   0.849   4.161   7.322 -0.0594 -0.8384 -0.1175
  945MOL0     C27463   0.902   4.037   7.400  0.2850 -0.3046  0.0890
  945MOL0     O27464   0.819   3.923   7.380 -0.6321  0.3143  0.4877
  945MOL0     C27465   0.690   3.904   7.431  0.0857  0.1696 -0.0360
  945MOL0     C27466   0.645   3.968   7.546  0.1284 -0.3736  1.2491
  945MOL0     C27467   0.517   3.941   7.602  0.4007  0.7042  0.1710
  945MOL0     C27468   0.485   3.993   7.742 -0.8252  0.0277 -0.4052
  945MOL0     C27469   0.432   3.846   7.535 -0.1787 -0.1996  1.0076
  945MOL0     C27470   0.300   3.787   7.578  0.8063 -0.9513 -0.2433
  945MOL0     O27471   0.210   3.864   7.640 -0.1409  0.0430 -0.6365
  945MOL0     C27472   0.104   3.797   7.700  0.3683 -0.5551  0.5839
  945MOL0     C27473   0.126   3.725   7.821 -0.2400  0.3126 -0.1394
  945MOL0     C27474   0.032   3.662   7.890  0.3259  0.4431 -0.4232
  945MOL0     C27475  -0.100   3.669   7.845 -0.6271  0.2238  0.1858
  945MOL0     O27476  -0.203   3.615   7.911 -0.1916 -0.9173 -0.1785
  945MOL0     C27477  -0.187   3.535   8.031  0.2339 -0.2756  0.2999
  945MOL0     C27478  -0.305   3.432   8.050  0.0245 -0.6485 -0.2111
  945MOL0     C27479  -0.435   3.511   8.090 -0.4868 -0.0587  0.3775
  945MOL0     C27480  -0.556   3.419   8.088  0.5169 -0.1557  0.5877
  945MOL0     C27481  -0.679   3.494   8.147 -0.1427  0.5072  0.1311
  945MOL0     C27482  -0.794   3.392   8.143  0.2757  0.3220  0.1413
  945MOL0     C27483  -0.933   3.462   8.179 -0.2817  0.4370 -0.1275
  945MOL0     C27484  -1.054   3.393   8.107  0.1914  0.7419  0.2384
  945MOL0    Cl27485  -1.072   3.217   8.143 -0.6671 -0.4456  0.1484
  945MOL0     C27486  -0.128   3.738   7.735  0.4175 -0.3417  0.9282
  945MOL0     C27487  -0.028   3.802   7.663  0.4418 -0.1526 -0.4703
  945MOL0     O27488   0.296   3.670   7.558  0.3207  0.8114 -0.0796
  945MOL0     C27489   0.495   3.781   7.422 -0.0193  0.9449  0.2586
  945MOL0     C27490   0.618   3.805   7.370 -0.4677 -0.5889 -1.0971
  945MOL0     N27491   0.797   4.427   6.899  0.2570 -0.3126  0.3538
  945MOL0     N27492   0.890   4.475   6.815  0.6687  0.2899 -0.8851
  945MOL0     C27493   2.218   4.742   6.967 -0.0707 -0.0400 -0.6885
  945MOL0     C27494   2.335   4.803   7.011 -0.4588 -0.2858 -0.8940
  945MOL0     C27495   2.772   4.924   7.041  0.4143 -0.0613 -0.1990
  945MOL0     C27496   2.732   5.013   7.138 -0.4253 -0.0909 -0.5188
  945MOL0     C27497   2.826   5.107   7.178  0.5676  0.4744 -0.2679
  945MOL0     C27498   2.955   5.098   7.151 -0.2892 -0.6589  0.3780
  945MOL0     O27499   3.031   5.198   7.212 -0.2172  0.4323 -0.2706
  945MOL0     C27500   3.171   5.181   7.203  0.1657 -1.0185  0.5521
  945MOL0     C27501   3.248   5.297   7.266  0.1137  0.5308 -0.1506
  945MOL0     C27502   3.394   5.256   7.273 -0.8574 -0.6856 -0.4189
  945MOL0     C27503   3.475   5.373   7.335  0.1429  0.5556  0.5985
  945MOL0     C27504   3.613   5.351   7.324 -0.0547  0.6278 -0.3455
  945MOL0     C27505   3.727   5.312   7.305  0.0933  0.2703 -0.7693
  945MOL0     C27506   2.995   5.014   7.046  0.1660  0.3915 -0.1249
  945MOL0     C27507   2.900   4.927   6.990 -0.6724 -0.4451  0.3719
  945MOL0     H27508   2.554   4.561   6.885 -0.5096 -0.9744  1.8453
  945MOL0     H27509   2.346   4.468   6.811 -0.9189  0.0445 -0.8053
  945MOL0     H27510   1.965   4.523   6.989  3.4451 -1.3155  0.1411
  945MOL0     H27511   1.965   4.693   6.911 -2.9113 -0.5267  0.0975
  945MOL0     H27512   1.869   4.605   6.712 -4.1640  1.4442  0.2786
  945MOL0     H27513   1.895   4.446   6.770  1.6976  0.2551  1.4684
  945MOL0     H27514   1.720   4.511   6.959 -0.8172 -1.9156 -0.6071
  945MOL0     H27515   1.714   4.674   6.870  4.2192  0.1244  1.0153
  945MOL0     H27516   1.604   4.560   6.677  0.2115 -2.0314 -0.4202
  945MOL0     H27517   1.633   4.400   6.758 -4.0192 -1.2096  0.8488
  945MOL0     H27518   1.493   4.467   6.939  3.1981 -1.7051 -0.4233
  945MOL0     H27519   1.464   4.617   6.871  1.2867  0.4464 -0.1507
  945MOL0     H27520   1.369   4.497   6.657  1.7101  1.8416  0.7556
  945MOL0     H27521   1.399   4.346   6.741  0.9032 -0.3042  2.2845
  945MOL0     H27522   1.237   4.430   6.925 -0.1887 -0.0504  0.8692
  945MOL0     H27523   1.229   4.581   6.841  0.1644 -0.0681 -1.6422
  945MOL0     H27524   1.163   4.335   6.688  2.8527  1.4278 -0.1990
  945MOL0     H27525   1.117   4.506   6.669  1.8521  2.3446  0.6360
  945MOL0     H27526   1.067   4.249   6.968  0.7925  0.6015  0.2258
  945MOL0     H27527   0.742   4.318   7.150 -0.4050 -0.7978  1.3700
  945MOL0     H27528   0.717   4.191   7.032 -0.2840  0.0722  1.9825
  945MOL0     H27529   0.985   4.157   7.146 -1.9279  1.9376 -2.6450
  945MOL0     H27530   0.859   4.047   7.127 -0.7863  0.7811 -0.7925
  945MOL0     H27531   0.743   4.173   7.346 -0.0170  0.1382 -0.4108
  945MOL0     H27532   0.904   4.251   7.351  0.8052 -0.1259 -3.4947
  945MOL0     H27533   0.902   4.058   7.507  1.9619 -2.0713  0.5083
  945MOL0     H27534   1.009   4.022   7.381  0.9795  0.4969  2.9442
  945MOL0     H27535   0.705   4.041   7.599 -0.0568  2.3167 -1.8731
  945MOL0     H27536   0.554   4.070   7.779  0.3495 -0.3970 -1.6695
  945MOL0     H27537   0.387   4.042   7.731  0.6576  3.3730 -0.1012
  945MOL0     H27538   0.487   3.919   7.822 -0.7586 -2.2238 -2.3803
  945MOL0     H27539   0.228   3.708   7.855  0.8228 -0.7267 -3.4449
  945MOL0     H27540   0.061   3.614   7.983 -0.1013  0.5383 -0.2357
  945MOL0     H27541  -0.101   3.468   8.027 -2.0765 -3.4925  0.8168
  945MOL0     H27542  -0.188   3.606   8.114 -2.7309  0.9938 -0.6897
  945MOL0     H27543  -0.310   3.381   7.953 -0.6815 -0.5208 -0.2473
  945MOL0     H27544  -0.280   3.360   8.129 -1.6740  1.1703  2.1357
  945MOL0     H27545  -0.458   3.599   8.030 -1.5831 -1.1225 -0.8164
  945MOL0     H27546  -0.414   3.549   8.191 -1.9452  0.8228  0.3812
  945MOL0     H27547  -0.583   3.391   7.985  0.4221 -1.6736  0.9961
  945MOL0     H27548  -0.539   3.325   8.141  0.1241 -1.6564 -1.7909
  945MOL0     H27549  -0.710   3.576   8.080 -0.7738 -1.0862 -1.6172
  945MOL0     H27550  -0.668   3.532   8.249 -1.0988 -1.0813  0.8605
  945MOL0     H27551  -0.803   3.344   8.045 -1.5301  2.1098 -0.6439
  945MOL0     H27552  -0.766   3.305   8.203  3.7622  0.6791 -0.7602
  945MOL0     H27553  -0.930   3.568   8.153 -3.7648  1.2602  2.0815
  945MOL0     H27554  -0.935   3.450   8.288  0.9865  0.3807 -0.0999
  945MOL0     H27555  -1.039   3.409   8.000 -1.1087  0.4763  0.0031
  945MOL0     H27556  -1.148   3.436   8.142 -0.6788  0.7235 -1.9132
  945MOL0     H27557  -0.229   3.735   7.697  0.2307 -0.9123  1.4526
  945MOL0     H27558  -0.062   3.854   7.574 -3.2876 -2.5974 -0.7014
  945MOL0     H27559   0.438   3.709   7.364 -0.6553 -0.2615  2.2567
  945MOL0     H27560   0.646   3.752   7.280 -2.6024 -1.7385 -1.1488
  945MOL0     H27561   2.123   4.774   7.008  0.8047  0.9220  0.6489
  945MOL0     H27562   2.332   4.884   7.084 -1.1480 -0.9519 -0.1619
  945MOL0     H27563   2.634   5.025   7.182 -0.6848 -1.4483 -0.6813
  945MOL0     H27564   2.789   5.191   7.236 -0.9282 -0.8151  0.7484
  945MOL0     H27565   3.200   5.088   7.252  2.6969  0.2575  1.7099
  945MOL0     H27566   3.201   5.171   7.099 -4.6305  1.4174 -1.3859
  945MOL0     H27567   3.215   5.316   7.369 -0.5271 -0.3870 -0.1731
  945MOL0     H27568   3.234   5.389   7.209  0.0686  1.8736  1.9002
  945MOL0     H27569   3.430   5.233   7.172 -2.2849 -1.7482 -0.7146
  945MOL0     H27570   3.405   5.166   7.334 -2.9395  0.2099  1.4355
  945MOL0     H27571   3.441   5.397   7.436  1.4228  0.8006  0.9948
  945MOL0     H27572   3.439   5.454   7.272 -0.7909  0.4970  1.0471
  945MOL0     H27573   3.818   5.263   7.277  0.5387 -0.6397  1.9666
  945MOL0     H27574   3.098   4.991   7.021 -0.2138 -0.6337 -0.8070
  945MOL0     H27575   2.934   4.847   6.925 -2.0287  1.0959 -2.3986
  946MOL0     O27576   5.683   7.004   0.735  0.2292  0.7784  0.6315
  946MOL0     C27577   5.692   7.076   0.636 -0.1020 -0.1458 -0.1554
  946MOL0     O27578   5.598   7.081   0.526 -0.1637 -0.1269  0.3855
  946MOL0     C27579   5.470   7.041   0.548  0.5121 -1.1435 -0.2427
  946MOL0     C27580   5.406   6.975   0.444  0.0495 -0.1582  0.4743
  946MOL0     C27581   5.274   6.933   0.447 -0.3198 -0.1347 -0.5811
  946MOL0     C27582   5.190   6.988   0.545  0.1763 -1.0565 -1.3153
  946MOL0     O27583   5.052   6.968   0.554  0.7254  0.4454 -0.4751
  946MOL0     C27584   4.985   6.963   0.429 -1.0059  0.5407 -0.0071
  946MOL0     C27585   4.844   6.933   0.451  1.2358  0.0651 -0.0229
  946MOL0     C27586   4.753   7.061   0.463  0.5789 -0.2490  1.0220
  946MOL0     C27587   4.630   7.062   0.370 -0.4870 -0.6213  0.3392
  946MOL0     C27588   4.537   7.179   0.422  0.3309 -0.1387 -0.4345
  946MOL0     C27589   4.422   7.208   0.323 -0.7099 -0.0870 -0.6913
  946MOL0     C27590   4.302   7.269   0.393 -0.7543 -0.2066  0.2437
  946MOL0     C27591   4.248   7.184   0.508  0.3260  0.6526 -0.9573
  946MOL0     N27592   4.098   7.198   0.537 -0.3060  0.2618  0.6988
  946MOL0     C27593   4.029   7.315   0.549 -1.1209 -0.0599 -0.7098
  946MOL0     C27594   3.897   7.279   0.544 -0.3553  0.1282 -1.0869
  946MOL0     C27595   3.779   7.378   0.567 -0.0087  0.5364 -0.0828
  946MOL0     C27596   3.635   7.309   0.590 -0.3167 -0.6240 -0.0504
  946MOL0     C27597   3.636   7.231   0.722 -0.3020 -0.0169 -0.2744
  946MOL0     C27598   3.510   7.152   0.742 -0.5099 -0.6673 -0.0384
  946MOL0     O27599   3.393   7.235   0.760  0.4964 -0.3438  0.2322
  946MOL0     C27600   3.268   7.180   0.781  0.8371  0.5053  0.0915
  946MOL0     C27601   3.171   7.263   0.838 -0.1409 -0.9779  0.0147
  946MOL0     C27602   3.040   7.217   0.867 -0.6033 -0.8910 -0.0922
  946MOL0     C27603   2.933   7.320   0.916  0.3509  0.7935  0.1295
  946MOL0     C27604   3.013   7.082   0.855 -0.9719  0.4407 -0.4714
  946MOL0     C27605   2.888   7.032   0.894  0.6606 -0.3515 -0.2228
  946MOL0     O27606   2.880   6.976   1.018 -0.4453  0.3481  0.2954
  946MOL0     C27607   2.760   6.927   1.078 -0.5503 -0.1383  0.8391
  946MOL0     C27608   2.767   6.812   1.153  0.6402  0.3602 -0.4038
  946MOL0     C27609   2.646   6.755   1.200  0.8330 -0.3358 -0.0463
  946MOL0     C27610   2.520   6.819   1.186 -0.1805  1.0721 -0.0755
  946MOL0     O27611   2.401   6.764   1.213 -0.2099  0.0036  0.4044
  946MOL0     C27612   2.401   6.626   1.240 -1.0431  0.2873 -0.2140
  946MOL0     C27613   2.260   6.589   1.253 -0.1031  0.3763 -0.3062
  946MOL0     C27614   2.200   6.575   1.110  0.9006 -0.7731 -0.2343
  946MOL0     C27615   2.072   6.490   1.124 -0.1707 -1.2326 -0.1764
  946MOL0     C27616   2.105   6.341   1.132  0.0143  1.0178  0.0007
  946MOL0     C27617   1.987   6.238   1.143 -0.4587 -0.4509  0.4917
  946MOL0     C27618   1.868   6.260   1.040 -0.4764  0.8766 -0.2346
  946MOL0     C27619   1.756   6.159   1.046  0.5609  0.4772  0.3335
  946MOL0    Cl27620   1.813   6.009   0.975  0.0259  0.3450  0.1831
  946MOL0     C27621   2.516   6.949   1.123  0.1740  0.1756  0.7241
  946MOL0     C27622   2.632   7.001   1.065 -0.4361  0.3933 -0.0542
  946MOL0     O27623   2.792   7.067   0.822  0.1480  0.5670  0.2621
  946MOL0     C27624   3.105   6.994   0.791 -0.3135 -0.5059 -0.3824
  946MOL0     C27625   3.240   7.043   0.761  0.3525 -0.1143 -0.3604
  946MOL0     N27626   3.877   7.139   0.536  0.4783 -0.0250 -0.5196
  946MOL0     N27627   4.001   7.094   0.523 -0.2356 -0.4148  1.2662
  946MOL0     C27628   5.250   7.072   0.648  0.2787  0.2655 -0.6655
  946MOL0     C27629   5.386   7.085   0.656 -0.9456 -0.1540 -0.3151
  946MOL0     C27630   5.814   7.161   0.634 -0.2313  0.2263  0.4489
  946MOL0     C27631   5.851   7.223   0.525 -0.7871 -0.1055  0.7984
  946MOL0     C27632   5.979   7.272   0.503  0.3789 -0.3988 -0.4906
  946MOL0     C27633   6.071   7.272   0.610  0.0168 -0.0455  0.3988
  946MOL0     O27634   6.197   7.320   0.604  0.4271 -0.3747 -0.0153
  946MOL0     C27635   6.267   7.301   0.483 -0.3840 -0.1907  0.5656
  946MOL0     C27636   6.383   7.198   0.500  0.3394 -0.3500 -0.5689
  946MOL0     C27637   6.478   7.244   0.620 -0.5393  0.0169  0.1447
  946MOL0     C27638   6.613   7.169   0.619  0.2582 -0.1700  1.0218
  946MOL0     C27639   6.701   7.232   0.520  0.2701  0.7861  0.5425
  946MOL0     C27640   6.770   7.283   0.432  0.9899  0.0174  0.5219
  946MOL0     C27641   6.015   7.230   0.736 -0.2453 -0.1455  0.6742
  946MOL0     C27642   5.893   7.170   0.744  0.3991  1.0083  0.3208
  946MOL0     H27643   5.471   6.941   0.364  0.9360 -2.3566  2.0152
  946MOL0     H27644   5.232   6.867   0.372 -0.9952  0.5702 -0.8332
  946MOL0     H27645   4.997   7.057   0.373  0.2439 -0.8301 -2.2156
  946MOL0     H27646   5.016   6.882   0.362 -0.0952  0.0486  0.9915
  946MOL0     H27647   4.802   6.874   0.369  0.0459  2.8956 -1.6031
  946MOL0     H27648   4.833   6.874   0.542  4.2518 -1.2877 -0.4146
  946MOL0     H27649   4.714   7.064   0.565  0.1661 -1.5836  0.9273
  946MOL0     H27650   4.804   7.157   0.449  1.2534 -0.7745 -0.3655
  946MOL0     H27651   4.663   7.083   0.268  3.3566  2.8500  2.0425
  946MOL0     H27652   4.584   6.963   0.371 -2.0217 -0.1713 -4.2928
  946MOL0     H27653   4.499   7.146   0.519  0.9575  0.6135  0.0835
  946MOL0     H27654   4.598   7.268   0.441  0.2845 -0.0799 -0.5610
  946MOL0     H27655   4.462   7.263   0.237  2.2863 -2.4186 -0.9755
  946MOL0     H27656   4.394   7.112   0.278 -0.2443 -1.1404  1.1818
  946MOL0     H27657   4.328   7.374   0.410  0.8468 -0.2647 -1.5875
  946MOL0     H27658   4.227   7.265   0.313 -1.0883 -0.8272  0.5792
  946MOL0     H27659   4.304   7.209   0.598  0.1041  0.0787 -0.6615
  946MOL0     H27660   4.265   7.080   0.479 -2.0905 -0.8020  2.2434
  946MOL0     H27661   4.067   7.414   0.573 -2.3368  0.1733  0.3565
  946MOL0     H27662   3.815   7.444   0.646  3.0927 -0.9468 -0.0778
  946MOL0     H27663   3.767   7.447   0.483  1.7561  0.4305 -0.4657
  946MOL0     H27664   3.611   7.244   0.506 -3.6613  1.2183 -0.6586
  946MOL0     H27665   3.560   7.388   0.583  1.9040  1.4704 -2.2936
  946MOL0     H27666   3.661   7.295   0.807 -1.0157  1.2688 -1.0023
  946MOL0     H27667   3.716   7.156   0.717 -0.3180  0.0567 -3.5919
  946MOL0     H27668   3.515   7.080   0.824 -1.5081 -1.5411 -0.7056
  946MOL0     H27669   3.496   7.102   0.646  0.0371 -1.5503  0.3290
  946MOL0     H27670   3.196   7.368   0.849  0.8726 -0.9554 -1.9006
  946MOL0     H27671   2.979   7.395   0.982  1.4694 -0.9410  1.3971
  946MOL0     H27672   2.878   7.364   0.832  0.6052  0.1314 -0.3939
  946MOL0     H27673   2.858   7.274   0.981  0.0004  2.4100  0.9413
  946MOL0     H27674   2.863   6.767   1.177 -0.3684 -1.7273 -0.0953
  946MOL0     H27675   2.660   6.669   1.264 -2.2399 -1.3968 -0.6497
  946MOL0     H27676   2.446   6.571   1.157 -2.5934  0.8752 -1.4866
  946MOL0     H27677   2.456   6.602   1.332 -2.5895  0.7217  0.8714
  946MOL0     H27678   2.268   6.494   1.305  0.0263 -0.0168 -1.0277
  946MOL0     H27679   2.209   6.664   1.315  1.9497  1.2140  0.4448
  946MOL0     H27680   2.268   6.529   1.037  0.2570 -2.1896  0.0178
  946MOL0     H27681   2.162   6.672   1.077  2.5739 -0.2349 -0.6641
  946MOL0     H27682   2.011   6.518   1.211 -2.0303 -1.3889 -1.3660
  946MOL0     H27683   2.008   6.505   1.036 -0.4393 -0.3479  0.1557
  946MOL0     H27684   2.170   6.320   1.218 -1.8063  1.3383  1.5263
  946MOL0     H27685   2.149   6.322   1.034 -1.8256 -0.3365 -0.6089
  946MOL0     H27686   2.011   6.132   1.152 -2.0744 -0.7701  1.6229
  946MOL0     H27687   1.952   6.259   1.245  1.6278  0.1192  1.1302
  946MOL0     H27688   1.895   6.285   0.937 -1.0545  2.1774 -0.0816
  946MOL0     H27689   1.831   6.357   1.076  1.0209  0.8544  1.5693
  946MOL0     H27690   1.666   6.188   0.992  0.3651  1.3794  1.1116
  946MOL0     H27691   1.730   6.142   1.151 -0.3062 -4.0257 -0.3963
  946MOL0     H27692   2.413   6.983   1.118  0.1251 -0.0230  0.2944
  946MOL0     H27693   2.618   7.098   1.019 -2.4084 -0.4230 -1.3237
  946MOL0     H27694   3.072   6.894   0.763 -1.4570 -0.3071  0.1882
  946MOL0     H27695   3.313   6.971   0.724  1.5700  1.9004 -2.0583
  946MOL0     H27696   5.177   7.102   0.722  1.0947 -0.9555  0.6955
  946MOL0     H27697   5.442   7.132   0.736  0.3484  2.4802 -2.5873
  946MOL0     H27698   5.793   7.198   0.436  0.1911 -1.7003  0.5564
  946MOL0     H27699   6.000   7.318   0.406  0.5044  0.8094  0.0822
  946MOL0     H27700   6.206   7.274   0.397  3.2421 -0.7910 -2.0688
  946MOL0     H27701   6.309   7.398   0.454  0.5892 -1.1382 -1.3801
  946MOL0     H27702   6.438   7.198   0.405 -1.2244 -1.3747 -1.5122
  946MOL0     H27703   6.346   7.096   0.517 -0.7753  0.0250 -0.6888
  946MOL0     H27704   6.437   7.220   0.719  0.0443 -4.6583 -0.5354
  946MOL0     H27705   6.491   7.351   0.603 -1.6638 -0.4113 -4.6615
  946MOL0     H27706   6.592   7.064   0.597 -3.5535  0.4664  0.9181
  946MOL0     H27707   6.657   7.187   0.717 -0.5090 -0.5077  1.4343
  946MOL0     H27708   6.835   7.345   0.373  1.2177  1.8183  2.5540
  946MOL0     H27709   6.074   7.238   0.826 -0.1602  2.6842  0.4773
  946MOL0     H27710   5.868   7.120   0.837 -3.6526 -2.8837 -2.4699
  947MOL0     O27711   7.362   0.112   2.732 -0.0868 -0.0270  0.6255
  947MOL0     C27712   7.393   0.148   2.620  0.4288 -0.0763  0.3202
  947MOL0     O27713   7.322   0.236   2.536  0.1464 -0.3946  0.0738
  947MOL0     C27714   7.205   0.288   2.590 -0.5577 -0.3057  0.0590
  947MOL0     C27715   7.192   0.377   2.704 -0.2378  0.7244  0.4327
  947MOL0     C27716   7.073   0.443   2.734 -0.5649  0.2509 -0.2171
  947MOL0     C27717   6.961   0.434   2.639 -0.0771 -0.5711  0.2482
  947MOL0     O27718   6.852   0.514   2.672  0.6037  0.5207  0.3915
  947MOL0     C27719   6.725   0.458   2.645  0.3477  0.0633  1.0047
  947MOL0     C27720   6.606   0.547   2.684 -1.1972 -0.1035 -0.1849
  947MOL0     C27721   6.479   0.512   2.609 -0.1852 -0.2098 -0.5315
  947MOL0     C27722   6.355   0.566   2.675 -0.3755 -0.6387 -0.7480
  947MOL0     C27723   6.241   0.596   2.577  0.3538 -0.5160 -0.6182
  947MOL0     C27724   6.192   0.478   2.487 -0.4110 -0.0901 -1.6618
  947MOL0     C27725   6.101   0.529   2.379  0.2681 -0.4790  1.0489
  947MOL0     C27726   5.964   0.554   2.443  0.5455  0.5269 -0.5789
  947MOL0     N27727   5.868   0.534   2.335 -0.6107  0.3284 -0.3180
  947MOL0     C27728   5.825   0.420   2.282  0.1201  0.0721  0.3852
  947MOL0     C27729   5.760   0.466   2.171 -0.1935  0.5780 -0.3362
  947MOL0     C27730   5.707   0.368   2.074  0.6629  0.2988  0.4752
  947MOL0     C27731   5.802   0.343   1.959 -0.6646  0.6750 -0.5651
  947MOL0     C27732   5.767   0.225   1.871  0.4430  0.2611 -0.8759
  947MOL0     C27733   5.857   0.179   1.758 -0.5214 -0.4867 -0.4878
  947MOL0     O27734   5.990   0.136   1.806  0.3384  0.3056  0.0682
  947MOL0     C27735   6.050   0.064   1.703  0.7818  0.1283 -0.9052
  947MOL0     C27736   6.014  -0.069   1.675  0.4268  0.8389  0.1856
  947MOL0     C27737   6.058  -0.133   1.556 -0.7154 -0.2263  0.4875
  947MOL0     C27738   6.034  -0.281   1.525  0.7168 -0.1120 -1.4563
  947MOL0     C27739   6.149  -0.059   1.469  0.9506 -0.8454  1.2383
  947MOL0     C27740   6.199  -0.102   1.335  0.8707  0.9595  0.5012
  947MOL0     O27741   6.209  -0.242   1.317 -0.3840 -0.6280  0.8059
  947MOL0     C27742   6.235  -0.302   1.197  0.5624  0.0603  0.2830
  947MOL0     C27743   6.288  -0.427   1.194  0.4467  0.6157 -0.4222
  947MOL0     C27744   6.315  -0.485   1.070  0.4192 -0.0771 -0.4224
  947MOL0     C27745   6.301  -0.408   0.944 -0.3541  0.4343 -0.4169
  947MOL0     O27746   6.338  -0.452   0.815  0.3710 -0.0747 -0.0723
  947MOL0     C27747   6.480  -0.433   0.803  0.8818 -0.6385  0.4393
  947MOL0     C27748   6.548  -0.538   0.715 -0.0904 -0.2045  0.1217
  947MOL0     C27749   6.561  -0.668   0.803 -0.8616 -0.8809 -0.3186
  947MOL0     C27750   6.596  -0.796   0.714  0.0623 -0.5293 -0.8117
  947MOL0     C27751   6.658  -0.909   0.802  0.0966  0.2447 -0.2582
  947MOL0     C27752   6.815  -0.880   0.829 -0.0387 -0.4460 -0.5130
  947MOL0     C27753   6.893  -0.995   0.897 -0.8408  0.1492  0.3695
  947MOL0     C27754   6.915  -1.103   0.801  0.0446  0.1800  0.2506
  947MOL0    Cl27755   7.053  -1.071   0.696  0.0183 -0.1164 -0.1787
  947MOL0     C27756   6.245  -0.286   0.951 -0.2700  0.5379  0.0823
  947MOL0     C27757   6.209  -0.231   1.071  0.6002 -0.0122  0.3632
  947MOL0     O27758   6.255  -0.020   1.265 -0.0157  0.0085 -0.0899
  947MOL0     C27759   6.189   0.069   1.505  0.3114 -0.2035 -0.2056
  947MOL0     C27760   6.124   0.134   1.608  0.5991 -0.3404 -0.7109
  947MOL0     N27761   5.769   0.599   2.148  0.5444 -0.3500 -0.6399
  947MOL0     N27762   5.825   0.636   2.257 -0.0795  0.5466  0.7318
  947MOL0     C27763   6.978   0.348   2.532  0.1669 -0.4162  0.0237
  947MOL0     C27764   7.093   0.275   2.503 -1.9691 -0.3249 -0.1037
  947MOL0     C27765   7.529   0.106   2.578  0.2004 -0.3370 -0.0313
  947MOL0     C27766   7.601   0.017   2.661  0.9934  0.5038 -0.8849
  947MOL0     C27767   7.726  -0.028   2.624 -0.9361  0.2992  0.4904
  947MOL0     C27768   7.792   0.001   2.509  0.1068 -0.1560  0.0182
  947MOL0     O27769   7.914  -0.038   2.465 -0.1926  0.3490  0.4043
  947MOL0     C27770   7.974  -0.166   2.517 -0.2204  0.4848  0.1520
  947MOL0     C27771   7.884  -0.287   2.540  0.9280  0.1893  0.5473
  947MOL0     C27772   7.849  -0.369   2.405  0.3642  0.6018  0.6245
  947MOL0     C27773   7.738  -0.307   2.324  0.2623  0.4386  0.2826
  947MOL0     C27774   7.608  -0.288   2.396  0.0559 -0.1730 -0.6991
  947MOL0     C27775   7.490  -0.280   2.439  1.3913 -0.2816  0.3912
  947MOL0     C27776   7.717   0.092   2.425  0.0154  0.4516 -0.6426
  947MOL0     C27777   7.593   0.148   2.460  1.1073 -0.0355  0.8237
  947MOL0     H27778   7.276   0.382   2.772  1.0142 -1.0094 -0.8974
  947MOL0     H27779   7.062   0.490   2.831  4.0661  1.3774 -0.0353
  947MOL0     H27780   6.723   0.459   2.536 -0.7268  0.9840  1.0139
  947MOL0     H27781   6.717   0.352   2.671  0.2857  0.0246  0.8257
  947MOL0     H27782   6.597   0.533   2.792  0.7157  2.4570  0.4014
  947MOL0     H27783   6.628   0.653   2.669  1.0035 -0.7486 -2.1593
  947MOL0     H27784   6.492   0.543   2.505  1.0991 -1.2811 -0.7258
  947MOL0     H27785   6.467   0.403   2.607 -3.4611  0.0524 -1.4125
  947MOL0     H27786   6.324   0.492   2.750 -2.4019  1.6171  0.7724
  947MOL0     H27787   6.374   0.655   2.734  0.6050 -1.0053 -0.4882
  947MOL0     H27788   6.155   0.627   2.637  1.2278  0.4488  0.1916
  947MOL0     H27789   6.274   0.675   2.510 -1.8474  1.6576  0.7205
  947MOL0     H27790   6.286   0.444   2.441  0.8524  0.0161  0.6832
  947MOL0     H27791   6.154   0.391   2.541 -0.1898 -0.8108 -2.6323
  947MOL0     H27792   6.155   0.613   2.335 -0.7196 -0.1896  0.3575
  947MOL0     H27793   6.086   0.449   2.306 -1.4386 -1.2374  2.1609
  947MOL0     H27794   5.965   0.660   2.467  0.3437  0.0455  1.7660
  947MOL0     H27795   5.936   0.502   2.535  2.4894  0.3926 -0.0317
  947MOL0     H27796   5.850   0.318   2.308  0.4568  0.2841  0.9221
  947MOL0     H27797   5.688   0.272   2.123 -1.3002  1.8659  2.9789
  947MOL0     H27798   5.610   0.403   2.039  1.2349 -0.3260 -1.9428
  947MOL0     H27799   5.900   0.322   2.002 -1.5926  0.7627  1.7198
  947MOL0     H27800   5.808   0.426   1.889  3.6986  0.0660 -1.1854
  947MOL0     H27801   5.669   0.242   1.826  0.5213  0.2875 -1.0379
  947MOL0     H27802   5.751   0.138   1.936 -0.1895  0.1043 -1.2316
  947MOL0     H27803   5.875   0.252   1.679 -0.6336 -1.9191 -1.9026
  947MOL0     H27804   5.804   0.104   1.698 -0.2068 -1.4611  0.4256
  947MOL0     H27805   5.946  -0.120   1.742  1.2874 -1.6118 -0.7087
  947MOL0     H27806   5.987  -0.330   1.611  1.0691  1.7973 -0.1168
  947MOL0     H27807   5.982  -0.288   1.429  2.4652 -2.1787 -2.3434
  947MOL0     H27808   6.132  -0.329   1.513  1.3711  1.2612 -1.8863
  947MOL0     H27809   6.306  -0.478   1.288 -0.4798  0.6334 -0.2204
  947MOL0     H27810   6.351  -0.587   1.077  0.5638  0.0912  1.7479
  947MOL0     H27811   6.496  -0.339   0.749  2.1777 -1.1390 -0.0848
  947MOL0     H27812   6.540  -0.428   0.895  6.8130 -0.6032 -2.9381
  947MOL0     H27813   6.494  -0.560   0.622  3.0319 -1.5612 -1.5057
  947MOL0     H27814   6.647  -0.497   0.692 -0.7764  0.6315 -1.5084
  947MOL0     H27815   6.463  -0.678   0.851 -0.7476 -0.0817  0.0856
  947MOL0     H27816   6.640  -0.657   0.877  0.7720 -0.8173 -1.9790
  947MOL0     H27817   6.496  -0.816   0.675 -2.6550  4.5047  2.4506
  947MOL0     H27818   6.668  -0.780   0.634  0.4612 -0.3515 -0.4256
  947MOL0     H27819   6.644  -1.004   0.751 -5.1924  1.4576 -1.6521
  947MOL0     H27820   6.608  -0.925   0.898  0.3424 -2.5133 -0.5210
  947MOL0     H27821   6.856  -0.861   0.730  0.5126  0.1925 -0.1723
  947MOL0     H27822   6.818  -0.787   0.887  1.2849 -0.0376 -1.2014
  947MOL0     H27823   6.845  -1.021   0.992  0.8619  1.2677  1.6041
  947MOL0     H27824   6.993  -0.965   0.929 -0.1213  0.0964 -1.7153
  947MOL0     H27825   6.833  -1.129   0.735  0.5059  3.2034 -1.6869
  947MOL0     H27826   6.941  -1.187   0.866  0.1348 -1.1181 -1.4298
  947MOL0     H27827   6.213  -0.233   0.862  1.1975 -1.5140 -1.7626
  947MOL0     H27828   6.154  -0.138   1.072 -2.2825 -1.5894 -0.0365
  947MOL0     H27829   6.268   0.117   1.447 -1.6881 -1.8886 -4.7755
  947MOL0     H27830   6.142   0.239   1.625 -3.8878  0.2629  1.5865
  947MOL0     H27831   6.908   0.357   2.449  1.1295  2.1563 -0.6020
  947MOL0     H27832   7.100   0.213   2.415 -1.2230 -1.5983  0.8068
  947MOL0     H27833   7.565  -0.011   2.760 -1.0600  2.5787 -0.9722
  947MOL0     H27834   7.775  -0.091   2.698 -0.6752 -1.5189 -1.1615
  947MOL0     H27835   8.055  -0.185   2.446 -0.3435  1.4177 -0.2572
  947MOL0     H27836   8.015  -0.149   2.617 -3.9948 -0.5084  2.0674
  947MOL0     H27837   7.787  -0.256   2.581  0.5675 -0.3628  0.1252
  947MOL0     H27838   7.933  -0.342   2.620  1.6780  2.6401  1.8730
  947MOL0     H27839   7.816  -0.467   2.439 -3.9681  1.3148 -0.8584
  947MOL0     H27840   7.936  -0.375   2.339 -3.4397  0.8443 -5.2013
  947MOL0     H27841   7.728  -0.361   2.230  1.3037 -0.4189  0.6447
  947MOL0     H27842   7.761  -0.204   2.295  0.6893 -0.2476 -1.9954
  947MOL0     H27843   7.384  -0.270   2.453  1.3871  2.5677 -1.0086
  947MOL0     H27844   7.766   0.121   2.332  2.7780  0.3564  0.6781
  947MOL0     H27845   7.554   0.222   2.391  1.0885 -0.1747  0.6859
  948MOL0     O27846   4.261   2.597   6.774 -0.1135 -0.1962  0.1222
  948MOL0     C27847   4.217   2.534   6.682 -0.5601  1.1459  1.3384
  948MOL0     O27848   4.274   2.543   6.558 -0.3791 -0.6177  0.0930
  948MOL0     C27849   4.363   2.638   6.541 -0.1389  0.2792 -0.4138
  948MOL0     C27850   4.495   2.597   6.525  0.1224 -0.1109 -0.2821
  948MOL0     C27851   4.596   2.691   6.487  0.2902  0.1090  0.2470
  948MOL0     C27852   4.563   2.827   6.465 -0.5421 -0.5924 -0.2540
  948MOL0     O27853   4.654   2.929   6.435  0.7271 -0.2329 -0.6755
  948MOL0     C27854   4.771   2.929   6.515  0.4943 -0.3250  0.1648
  948MOL0     C27855   4.746   2.961   6.660 -0.2580 -0.6164 -0.0130
  948MOL0     C27856   4.881   2.970   6.739 -0.7214  0.6502 -0.3855
  948MOL0     C27857   4.866   3.051   6.866  0.3565 -0.2402 -0.0363
  948MOL0     C27858   4.804   2.974   6.980 -0.4349  0.1353 -0.4675
  948MOL0     C27859   4.816   3.068   7.103  0.1603  0.0069 -0.2538
  948MOL0     C27860   4.733   3.018   7.220 -1.0907  0.2835  0.7459
  948MOL0     C27861   4.726   3.110   7.344 -0.3818 -0.2928 -0.0785
  948MOL0     N27862   4.630   3.218   7.322  0.6309  0.1478 -0.0314
  948MOL0     C27863   4.496   3.189   7.335 -0.4445 -0.9888  0.0980
  948MOL0     C27864   4.439   3.285   7.260  0.2989  0.7325 -0.6089
  948MOL0     C27865   4.290   3.309   7.245  0.6554  0.1281 -0.3155
  948MOL0     C27866   4.221   3.197   7.183  0.2997 -0.0592 -0.0372
  948MOL0     C27867   4.173   3.093   7.289  1.3034 -0.0484 -0.0805
  948MOL0     C27868   4.118   2.960   7.229 -0.9339 -1.1607 -0.2785
  948MOL0     O27869   4.197   2.920   7.119 -0.8310 -0.3054 -0.0250
  948MOL0     C27870   4.315   2.856   7.138 -0.0718 -1.4281 -1.1847
  948MOL0     C27871   4.378   2.820   7.021  0.3923 -0.4135 -0.2314
  948MOL0     C27872   4.496   2.751   7.002  1.3456 -0.4544 -0.2540
  948MOL0     C27873   4.537   2.710   6.865  0.3317  0.6155 -0.1252
  948MOL0     C27874   4.567   2.726   7.118 -0.1601  1.3146 -0.2975
  948MOL0     C27875   4.697   2.653   7.116  0.7717  0.5848 -0.3705
  948MOL0     O27876   4.710   2.556   7.027  0.0092 -0.3916 -0.0095
  948MOL0     C27877   4.830   2.501   6.987 -0.0504 -0.1462  0.3581
  948MOL0     C27878   4.825   2.376   6.918 -0.5379 -0.2367  0.7530
  948MOL0     C27879   4.945   2.320   6.864  0.1154  0.3003  0.5394
  948MOL0     C27880   5.068   2.366   6.903 -0.3596  0.5676  0.7176
  948MOL0     O27881   5.179   2.285   6.879 -0.3051  0.4286  0.4037
  948MOL0     C27882   5.269   2.273   6.996 -0.5177  0.2877 -0.1789
  948MOL0     C27883   5.348   2.137   7.006  0.1260 -0.3829  0.0045
  948MOL0     C27884   5.381   2.111   7.154 -0.5009 -0.7756 -0.2482
  948MOL0     C27885   5.425   1.966   7.179 -0.1248 -0.1194  0.0890
  948MOL0     C27886   5.440   1.945   7.335 -0.1063  0.0131 -0.5393
  948MOL0     C27887   5.362   1.827   7.387  0.2706 -0.0410 -0.8674
  948MOL0     C27888   5.431   1.691   7.358  0.3563  0.9534  0.2132
  948MOL0     C27889   5.329   1.573   7.394 -1.2615 -0.0858 -0.1568
  948MOL0    Cl27890   5.261   1.585   7.559 -0.1290 -0.0306  0.5100
  948MOL0     C27891   5.078   2.488   6.969 -0.7848 -0.3359  0.3185
  948MOL0     C27892   4.963   2.548   7.014  0.0649 -0.0885 -0.3234
  948MOL0     O27893   4.777   2.681   7.204  0.2060 -0.2495 -0.4407
  948MOL0     C27894   4.520   2.769   7.248  0.3300  0.3057 -0.3575
  948MOL0     C27895   4.394   2.828   7.257  0.1211 -0.2457  0.1324
  948MOL0     N27896   4.534   3.368   7.200 -0.0963  0.1681  0.5098
  948MOL0     N27897   4.646   3.329   7.239 -0.0146 -0.4256 -0.6295
  948MOL0     C27898   4.433   2.866   6.485 -0.3375  0.3904 -0.3120
  948MOL0     C27899   4.334   2.768   6.509  0.5575 -0.6404  0.1685
  948MOL0     C27900   4.110   2.438   6.700  0.1525  0.3394  0.8560
  948MOL0     C27901   4.084   2.386   6.830 -0.9863 -0.3691  0.0230
  948MOL0     C27902   3.971   2.311   6.853 -0.2726  0.3148  0.4917
  948MOL0     C27903   3.896   2.265   6.738 -0.6277  0.2824 -1.3096
  948MOL0     O27904   3.780   2.194   6.769  0.8078 -0.2485 -0.1776
  948MOL0     C27905   3.713   2.117   6.669 -0.8188 -0.4498  0.0702
  948MOL0     C27906   3.589   2.037   6.724 -0.2834 -0.4328  0.6418
  948MOL0     C27907   3.620   1.918   6.820  0.5445 -0.1360  0.6921
  948MOL0     C27908   3.487   1.830   6.847  0.3468 -0.6050  0.2676
  948MOL0     C27909   3.395   1.898   6.940  0.8112 -0.2097 -0.1318
  948MOL0     C27910   3.318   1.958   7.005  0.5089 -0.3306 -0.6833
  948MOL0     C27911   3.936   2.301   6.609 -0.7336  0.3053  0.7397
  948MOL0     C27912   4.032   2.395   6.586 -0.6914  0.8277 -0.3631
  948MOL0     H27913   4.520   2.493   6.548  3.3419  0.5041 -0.5457
  948MOL0     H27914   4.694   2.649   6.471  0.3867  0.3968  0.0845
  948MOL0     H27915   4.816   2.832   6.489 -3.3344 -2.0892 -0.5883
  948MOL0     H27916   4.841   3.005   6.478 -0.7068 -0.7203 -3.2828
  948MOL0     H27917   4.692   3.056   6.668  1.0406  0.0605  1.0264
  948MOL0     H27918   4.674   2.887   6.697  0.2951 -0.8837  0.5435
  948MOL0     H27919   4.921   2.872   6.769  1.4926  0.2442 -4.0471
  948MOL0     H27920   4.964   3.013   6.684  0.8657 -1.8541 -0.1307
  948MOL0     H27921   4.964   3.093   6.891  0.0170  0.7433 -0.3229
  948MOL0     H27922   4.806   3.139   6.840 -0.3811 -0.4998  0.7596
  948MOL0     H27923   4.701   2.951   6.951 -0.7062  0.6478  0.0686
  948MOL0     H27924   4.849   2.878   7.007 -2.4349 -1.1660 -1.5011
  948MOL0     H27925   4.922   3.073   7.127 -0.0088 -0.8474  0.7061
  948MOL0     H27926   4.776   3.166   7.077  0.8704 -0.3782 -3.1343
  948MOL0     H27927   4.629   3.000   7.189 -0.8060 -0.8614  0.4085
  948MOL0     H27928   4.776   2.923   7.253  0.7921  1.4272  1.7699
  948MOL0     H27929   4.826   3.148   7.369  0.0450 -0.9317 -0.7716
  948MOL0     H27930   4.692   3.062   7.437  0.5304 -0.3844  0.2187
  948MOL0     H27931   4.462   3.096   7.380  1.1642 -0.7646  1.8907
  948MOL0     H27932   4.247   3.345   7.339  0.3706  1.5077 -0.9526
  948MOL0     H27933   4.277   3.395   7.179 -0.6828  3.4339  3.7688
  948MOL0     H27934   4.279   3.142   7.108 -1.9961 -2.7904  0.0009
  948MOL0     H27935   4.134   3.244   7.135  2.3005  1.6799 -2.1485
  948MOL0     H27936   4.100   3.138   7.356  0.6400  0.3563 -1.0412
  948MOL0     H27937   4.258   3.061   7.350  0.3384 -3.8446 -0.4616
  948MOL0     H27938   4.021   2.983   7.183 -0.4431  2.2413  0.1699
  948MOL0     H27939   4.111   2.885   7.309  0.3724  0.2257  1.2116
  948MOL0     H27940   4.314   2.819   6.933  0.3178  1.1423 -0.2197
  948MOL0     H27941   4.540   2.602   6.848 -3.7834  0.6092 -2.1812
  948MOL0     H27942   4.468   2.740   6.785 -0.5586 -0.4444  0.2184
  948MOL0     H27943   4.631   2.762   6.845 -1.4186  4.5614  0.9040
  948MOL0     H27944   4.724   2.342   6.902 -0.7741  0.5545  0.4858
  948MOL0     H27945   4.951   2.228   6.806  1.6573  0.7408 -0.0677
  948MOL0     H27946   5.344   2.352   7.001  0.5216 -0.7496  1.8220
  948MOL0     H27947   5.214   2.293   7.088  0.9306 -0.0256  0.7882
  948MOL0     H27948   5.297   2.051   6.961 -2.2705  1.2486 -0.5531
  948MOL0     H27949   5.443   2.145   6.953  0.5260 -1.0412  0.6056
  948MOL0     H27950   5.284   2.136   7.199 -0.0015  2.2614 -0.6172
  948MOL0     H27951   5.455   2.183   7.189 -0.2751 -0.5473 -1.1631
  948MOL0     H27952   5.345   1.905   7.136  0.0428  0.2442 -0.7533
  948MOL0     H27953   5.525   1.949   7.138 -1.0696 -1.0958 -1.8927
  948MOL0     H27954   5.398   2.035   7.382  0.4880  0.0532 -0.0808
  948MOL0     H27955   5.541   1.931   7.373  0.2947  0.2094 -1.5017
  948MOL0     H27956   5.345   1.850   7.492  2.3406  4.1553 -1.2421
  948MOL0     H27957   5.269   1.818   7.329  1.7552 -2.2314 -3.1247
  948MOL0     H27958   5.523   1.675   7.415  0.1879 -0.8694  0.0249
  948MOL0     H27959   5.465   1.673   7.256 -0.2877 -2.9817  0.5314
  948MOL0     H27960   5.386   1.480   7.390 -1.3452 -0.1924  0.8511
  948MOL0     H27961   5.254   1.573   7.314 -0.0774 -2.3658 -1.3501
  948MOL0     H27962   5.178   2.527   6.985 -0.4732 -0.8776 -0.2893
  948MOL0     H27963   4.974   2.639   7.071  0.9322 -1.1324  1.2559
  948MOL0     H27964   4.582   2.762   7.336  1.7065 -2.1764 -1.4524
  948MOL0     H27965   4.355   2.847   7.356  0.4085  0.3429  0.1433
  948MOL0     H27966   4.409   2.972   6.486 -2.1012  0.0287 -1.0222
  948MOL0     H27967   4.228   2.788   6.513  0.2109 -2.4629  2.2008
  948MOL0     H27968   4.144   2.417   6.915  0.5916  1.2753 -1.6187
  948MOL0     H27969   3.936   2.278   6.951  1.4954 -2.3548  0.3412
  948MOL0     H27970   3.674   2.184   6.592 -1.6526 -2.3989 -1.2682
  948MOL0     H27971   3.783   2.049   6.619 -0.8703 -1.6897  1.6033
  948MOL0     H27972   3.528   2.013   6.636  0.6117 -1.0518  0.1837
  948MOL0     H27973   3.535   2.107   6.789 -1.6157  1.0402 -1.8658
  948MOL0     H27974   3.652   1.956   6.917 -1.3104  0.2351  1.1966
  948MOL0     H27975   3.701   1.855   6.781  0.3202 -2.3130  3.4511
  948MOL0     H27976   3.519   1.734   6.890 -3.3999 -1.4670  1.4867
  948MOL0     H27977   3.445   1.805   6.750  1.8480 -1.2802 -0.2489
  948MOL0     H27978   3.245   2.020   7.053  0.6965  0.5085 -1.4552
  948MOL0     H27979   3.885   2.268   6.519  1.0252  0.6165 -0.4082
  948MOL0     H27980   4.059   2.431   6.487 -0.6263  1.3002 -0.1754
  949MOL0     O27981   6.488   3.547   0.832 -1.1926 -0.4022 -0.0045
  949MOL0     C27982   6.580   3.570   0.914 -0.3381  0.1620 -0.5742
  949MOL0     O27983   6.562   3.571   1.049 -0.9205  0.5769 -0.2797
  949MOL0     C27984   6.443   3.519   1.097  0.6457 -0.2155  0.3933
  949MOL0     C27985   6.453   3.408   1.189  0.5620  0.3678 -1.0125
  949MOL0     C27986   6.340   3.358   1.254 -0.1901  0.1102 -0.0050
  949MOL0     C27987   6.210   3.394   1.223  0.9328  0.0065 -0.1452
  949MOL0     O27988   6.113   3.324   1.285 -0.2922 -1.4196 -0.1263
  949MOL0     C27989   5.982   3.379   1.285  0.0726  0.2308 -0.0623
  949MOL0     C27990   5.898   3.288   1.375 -0.0376 -0.2467 -0.3798
  949MOL0     C27991   5.874   3.150   1.319  0.4540  0.0352  0.3200
  949MOL0     C27992   5.810   3.061   1.427  1.2607  0.1663  0.5394
  949MOL0     C27993   5.756   2.933   1.370  0.2289 -0.3348 -0.1938
  949MOL0     C27994   5.679   2.858   1.483  0.3797  0.0003 -0.9090
  949MOL0     C27995   5.690   2.704   1.474 -0.3457  1.0661 -0.7084
  949MOL0     C27996   5.565   2.643   1.555 -0.1291 -0.2061  0.4010
  949MOL0     N27997   5.436   2.673   1.499  0.2856 -0.6530  0.0967
  949MOL0     C27998   5.397   2.659   1.364  1.3196  0.3710 -0.3583
  949MOL0     C27999   5.264   2.675   1.362  0.9089  0.1851  0.2789
  949MOL0     C28000   5.170   2.666   1.247 -0.1815  0.5482  0.3085
  949MOL0     C28001   5.132   2.809   1.202 -0.0409  0.3445  0.0410
  949MOL0     C28002   4.980   2.804   1.154 -0.2234  0.3817 -0.4871
  949MOL0     C28003   4.876   2.825   1.267  0.4038  0.1588 -0.6061
  949MOL0     O28004   4.744   2.812   1.223  0.5104 -0.0705  0.3690
  949MOL0     C28005   4.647   2.817   1.320  0.6830 -0.3466 -0.4013
  949MOL0     C28006   4.652   2.887   1.445 -0.7474 -0.2635 -0.2607
  949MOL0     C28007   4.555   2.862   1.541  0.6590  1.0604 -0.3942
  949MOL0     C28008   4.565   2.959   1.655 -1.0140  0.0955  0.7842
  949MOL0     C28009   4.448   2.773   1.525 -0.3189 -0.1377 -0.1992
  949MOL0     C28010   4.336   2.743   1.618  0.6786  0.2268  0.7200
  949MOL0     O28011   4.243   2.638   1.577  0.2116 -0.0565 -0.0372
  949MOL0     C28012   4.135   2.610   1.662  0.3442 -1.0834 -0.1193
  949MOL0     C28013   4.005   2.608   1.599 -0.1580  0.0726 -0.6978
  949MOL0     C28014   3.890   2.582   1.675 -0.1705  0.5541  0.2757
  949MOL0     C28015   3.904   2.541   1.809 -0.2141 -0.0623  0.3616
  949MOL0     O28016   3.785   2.503   1.865  0.7607 -0.3921  0.3576
  949MOL0     C28017   3.779   2.448   2.002 -1.6273  0.2023  0.0776
  949MOL0     C28018   3.642   2.476   2.057 -1.2788  0.1828 -0.0127
  949MOL0     C28019   3.617   2.619   2.103  0.8630  0.2625  0.0125
  949MOL0     C28020   3.460   2.633   2.133 -0.4588 -0.8223 -0.3926
  949MOL0     C28021   3.375   2.619   2.001  0.2940  0.8016  0.2024
  949MOL0     C28022   3.236   2.689   1.994 -1.0064 -1.0169 -0.4788
  949MOL0     C28023   3.179   2.677   1.856 -0.0868  0.2366  0.2010
  949MOL0     C28024   3.071   2.780   1.821  0.0407 -0.0538 -0.3532
  949MOL0    Cl28025   2.937   2.752   1.944  0.2312  0.0425  0.1828
  949MOL0     C28026   4.033   2.530   1.873  0.1549 -0.2300 -0.1316
  949MOL0     C28027   4.146   2.581   1.797  0.8803  0.1454  0.2945
  949MOL0     O28028   4.327   2.816   1.712 -0.1803 -0.4732  0.3571
  949MOL0     C28029   4.447   2.702   1.405 -0.1672  0.1415 -0.1929
  949MOL0     C28030   4.536   2.734   1.297 -0.0174  0.4155  0.9637
  949MOL0     N28031   5.224   2.705   1.487  0.0742 -0.3345  0.6092
  949MOL0     N28032   5.323   2.699   1.568  0.4601 -0.6336  0.6331
  949MOL0     C28033   6.202   3.501   1.131 -0.3849  0.0137  0.2513
  949MOL0     C28034   6.308   3.562   1.067 -0.2381 -0.5002  0.6717
  949MOL0     C28035   6.715   3.618   0.868  0.1434 -0.1456  1.5494
  949MOL0     C28036   6.768   3.731   0.930 -0.0561 -0.4926  0.4235
  949MOL0     C28037   6.903   3.770   0.891 -0.2314 -0.2246 -0.5022
  949MOL0     C28038   6.975   3.692   0.807 -0.9155  0.4133  0.4706
  949MOL0     O28039   7.100   3.729   0.756 -0.0864 -1.1236 -0.2456
  949MOL0     C28040   7.165   3.855   0.788 -0.0706 -0.2680  0.0891
  949MOL0     C28041   7.297   3.878   0.710 -0.3391  0.0335 -0.3943
  949MOL0     C28042   7.428   3.869   0.792  0.5474  0.1558 -0.3462
  949MOL0     C28043   7.546   3.817   0.707 -0.2853 -0.2428  0.2876
  949MOL0     C28044   7.620   3.916   0.631  0.4366 -0.2608  0.3164
  949MOL0     C28045   7.691   3.985   0.561 -0.3947  0.1976  0.1850
  949MOL0     C28046   6.918   3.581   0.749 -0.6414  0.7422 -0.0085
  949MOL0     C28047   6.783   3.546   0.770  0.3056 -0.2780  1.0588
  949MOL0     H28048   6.548   3.360   1.212  0.6489 -0.3150 -2.6688
  949MOL0     H28049   6.352   3.271   1.319 -0.7052 -0.5703 -0.7955
  949MOL0     H28050   5.975   3.486   1.309  0.9307  0.6960 -1.7708
  949MOL0     H28051   5.942   3.368   1.184 -0.6112  1.1122  0.1034
  949MOL0     H28052   5.941   3.295   1.475  0.7704 -0.0620 -0.7355
  949MOL0     H28053   5.800   3.332   1.394 -0.1778 -0.0762 -1.4567
  949MOL0     H28054   5.816   3.160   1.227  1.4999  3.2464 -0.1121
  949MOL0     H28055   5.966   3.099   1.289  1.2226  2.9803 -2.9777
  949MOL0     H28056   5.878   3.047   1.511  1.8126 -2.7535 -0.2711
  949MOL0     H28057   5.730   3.120   1.471 -0.1150  0.4897 -2.1945
  949MOL0     H28058   5.679   2.945   1.293 -1.5758 -0.9804  1.4011
  949MOL0     H28059   5.837   2.868   1.336  0.8946 -1.9051  3.7997
  949MOL0     H28060   5.726   2.871   1.581 -1.5841 -1.4858  0.3021
  949MOL0     H28061   5.576   2.894   1.493  0.2716 -0.9323  2.7572
  949MOL0     H28062   5.696   2.664   1.372 -0.8019 -1.6986  0.2583
  949MOL0     H28063   5.785   2.681   1.522 -1.6354 -1.7728  0.7345
  949MOL0     H28064   5.569   2.687   1.655 -2.5907 -1.0521  0.9627
  949MOL0     H28065   5.569   2.535   1.575 -1.4764 -0.6389 -1.3758
  949MOL0     H28066   5.462   2.632   1.282  1.5770  0.9253 -0.3407
  949MOL0     H28067   5.235   2.609   1.180  0.9441  1.6279  0.4415
  949MOL0     H28068   5.081   2.616   1.285  1.5312 -2.9926  0.0820
  949MOL0     H28069   5.204   2.843   1.127  0.5096  0.4029  0.5872
  949MOL0     H28070   5.152   2.885   1.278  1.0569 -0.7008  0.8309
  949MOL0     H28071   4.958   2.703   1.118  1.0834 -0.6610  1.5105
  949MOL0     H28072   4.966   2.883   1.080 -0.3910  1.2295  0.4316
  949MOL0     H28073   4.889   2.926   1.307 -1.3408 -0.4068  1.5317
  949MOL0     H28074   4.901   2.748   1.340  0.4450 -0.5004 -1.3015
  949MOL0     H28075   4.740   2.948   1.462 -0.6268 -0.5226  0.0525
  949MOL0     H28076   4.479   3.026   1.648 -0.1241  1.1511 -0.5445
  949MOL0     H28077   4.568   2.898   1.746 -1.5281  0.9563  1.3981
  949MOL0     H28078   4.660   3.013   1.660  0.9494 -2.9905 -0.6022
  949MOL0     H28079   3.988   2.635   1.495  1.0673  0.5355 -0.8013
  949MOL0     H28080   3.793   2.586   1.626  1.2554  0.1893 -2.8432
  949MOL0     H28081   3.795   2.340   1.999 -0.6961  0.2194  2.4170
  949MOL0     H28082   3.854   2.499   2.063  1.9177  0.0738 -3.6955
  949MOL0     H28083   3.572   2.450   1.976  0.7735 -2.9268 -0.9748
  949MOL0     H28084   3.626   2.405   2.139  2.0614  0.2353  0.8240
  949MOL0     H28085   3.643   2.691   2.025  1.6979  1.0789  1.0296
  949MOL0     H28086   3.687   2.625   2.186  0.5325 -2.9529  0.6539
  949MOL0     H28087   3.430   2.554   2.202 -0.1179 -2.3883 -1.9758
  949MOL0     H28088   3.429   2.732   2.166  0.3121 -0.3757 -0.9440
  949MOL0     H28089   3.357   2.513   1.982  0.7352  0.8031 -0.2578
  949MOL0     H28090   3.434   2.659   1.917 -0.0717 -2.8957 -2.0392
  949MOL0     H28091   3.155   2.650   2.057 -1.2106  2.4118  1.6047
  949MOL0     H28092   3.251   2.794   2.020 -1.1146 -0.7471 -1.4675
  949MOL0     H28093   3.136   2.578   1.841  1.6467 -0.7407  1.2354
  949MOL0     H28094   3.255   2.696   1.779  0.9826  2.6423  1.7173
  949MOL0     H28095   3.031   2.771   1.720  0.5219 -0.8820 -0.4815
  949MOL0     H28096   3.110   2.880   1.837 -0.9895  0.4796 -1.0833
  949MOL0     H28097   4.042   2.499   1.977  3.1406 -1.4680 -0.6538
  949MOL0     H28098   4.234   2.602   1.857  0.9608 -1.0786  0.6234
  949MOL0     H28099   4.376   2.624   1.381 -2.2942  2.5020 -2.0711
  949MOL0     H28100   4.512   2.679   1.206  1.7916  0.3324  0.4849
  949MOL0     H28101   6.103   3.530   1.099 -0.7826 -0.5123  0.9849
  949MOL0     H28102   6.302   3.655   1.012  2.1009 -0.1267  0.9347
  949MOL0     H28103   6.700   3.776   1.002 -1.1470 -0.0445 -0.8258
  949MOL0     H28104   6.945   3.854   0.945  0.9526 -2.0458  1.5544
  949MOL0     H28105   7.094   3.934   0.764 -1.0637  0.2069  3.9100
  949MOL0     H28106   7.192   3.878   0.892  0.3347  2.3721 -0.5302
  949MOL0     H28107   7.301   3.976   0.660 -1.9516  0.2810 -0.0729
  949MOL0     H28108   7.293   3.802   0.632 -2.8598  0.5773 -0.8835
  949MOL0     H28109   7.415   3.812   0.884 -1.7760 -1.1152 -1.3651
  949MOL0     H28110   7.445   3.974   0.816  1.5132  0.0489 -0.5240
  949MOL0     H28111   7.515   3.745   0.631  1.3432 -2.7189  1.8185
  949MOL0     H28112   7.615   3.769   0.778 -0.9874  0.0250  1.1686
  949MOL0     H28113   7.737   4.056   0.495 -1.0280 -0.6140 -1.1824
  949MOL0     H28114   6.970   3.522   0.675  2.1795  3.6340 -0.5656
  949MOL0     H28115   6.744   3.457   0.722 -1.2678  0.6258  0.5909
  950MOL0     O28116   5.831  10.755   8.048 -0.4705 -0.1544 -0.4498
  950MOL0     C28117   5.946  10.735   8.097  0.3256  0.4487 -0.3971
  950MOL0     O28118   5.982  10.752   8.231  0.3242 -0.0130  0.5556
  950MOL0     C28119   5.894  10.788   8.330 -0.0780 -0.1442 -0.6911
  950MOL0     C28120   5.758  10.805   8.316 -0.2166  0.2302  0.0322
  950MOL0     C28121   5.675  10.826   8.422  0.4950 -0.0763 -0.1590
  950MOL0     C28122   5.723  10.828   8.559  0.0292 -0.3076 -0.1544
  950MOL0     O28123   5.631  10.874   8.657 -0.6006  0.6945  0.2925
  950MOL0     C28124   5.660  10.851   8.791 -0.1674  0.4672  0.4127
  950MOL0     C28125   5.759  10.954   8.848  0.5834  0.5234  0.6412
  950MOL0     C28126   5.698  11.095   8.878 -0.0282  0.6687 -0.0656
  950MOL0     C28127   5.808  11.188   8.946 -0.2640  0.4765 -0.6159
  950MOL0     C28128   5.761  11.316   9.016  0.0057  0.8536 -0.1959
  950MOL0     C28129   5.856  11.424   9.054 -1.1521 -0.1236  0.1033
  950MOL0     C28130   5.983  11.378   9.132  0.3861 -0.1350  0.2181
  950MOL0     C28131   6.102  11.474   9.125 -0.0928  0.5400 -0.2438
  950MOL0     N28132   6.218  11.423   9.206  0.0071 -0.2104 -0.1365
  950MOL0     C28133   6.307  11.317   9.164  1.4782 -0.7281  0.2291
  950MOL0     C28134   6.401  11.312   9.256  0.8739  0.5973 -0.0337
  950MOL0     C28135   6.510  11.218   9.255  0.2866  0.3753  0.0375
  950MOL0     C28136   6.644  11.263   9.209  0.0011  0.1579  0.3855
  950MOL0     C28137   6.728  11.311   9.328 -0.6023  0.1497 -0.7520
  950MOL0     C28138   6.698  11.451   9.372 -0.3773  0.1448 -0.3018
  950MOL0     O28139   6.780  11.480   9.490  0.0050  0.2152  0.5177
  950MOL0     C28140   6.754  11.431   9.618  0.4865  0.3402  0.1669
  950MOL0     C28141   6.855  11.372   9.694  0.1511 -0.1310 -0.0514
  950MOL0     C28142   6.820  11.310   9.819  0.0903 -0.2909 -0.4256
  950MOL0     C28143   6.923  11.220   9.882  0.3526 -0.4246 -0.9014
  950MOL0     C28144   6.689  11.328   9.879 -0.3933 -0.1649 -0.7205
  950MOL0     C28145   6.657  11.289  10.018  0.1201 -0.0981 -1.3728
  950MOL0     O28146   6.521  11.273  10.055  0.2808  0.3738 -0.0387
  950MOL0     C28147   6.496  11.202  10.170 -0.8027  0.4304 -0.0948
  950MOL0     C28148   6.435  11.270  10.276 -0.7778  0.0601  0.3302
  950MOL0     C28149   6.403  11.206  10.388  0.0678  0.6289 -0.5146
  950MOL0     C28150   6.426  11.061  10.402  0.3947  0.2849 -0.5028
  950MOL0     O28151   6.380  11.003  10.516 -0.8211  0.5374  0.0121
  950MOL0     C28152   6.441  10.886  10.577 -0.0313  0.0653 -0.7003
  950MOL0     C28153   6.404  10.888  10.724  0.3827  0.1658  0.3239
  950MOL0     C28154   6.278  10.812  10.772  0.2210 -0.1716  0.3572
  950MOL0     C28155   6.152  10.895  10.733 -0.2028  0.0402  0.1755
  950MOL0     C28156   6.017  10.817  10.758 -0.3981 -0.0646 -0.1855
  950MOL0     C28157   5.992  10.786  10.912  0.0840 -0.0383  0.3734
  950MOL0     C28158   5.849  10.716  10.918 -1.0386  0.6365 -0.0395
  950MOL0     C28159   5.814  10.681  11.061 -0.0603 -0.2218 -0.3689
  950MOL0    Cl28160   5.667  10.583  11.071  0.2072 -0.0293 -0.0147
  950MOL0     C28161   6.468  10.990  10.296 -0.5140 -0.5435  0.4158
  950MOL0     C28162   6.512  11.063  10.183 -1.2847 -0.4374 -0.1979
  950MOL0     O28163   6.750  11.251  10.092  0.0042 -0.5112  0.7066
  950MOL0     C28164   6.594  11.388   9.800  1.2593 -0.3379  0.0336
  950MOL0     C28165   6.622  11.425   9.665 -0.0913  0.4426  0.3910
  950MOL0     N28166   6.367  11.411   9.345  0.1147  0.4277  0.4679
  950MOL0     N28167   6.275  11.480   9.311  0.4649 -0.5797  0.0339
  950MOL0     C28168   5.868  10.803   8.580 -0.0443  0.0574  0.4281
  950MOL0     C28169   5.945  10.784   8.461 -0.2841 -0.0909  0.2212
  950MOL0     C28170   6.046  10.700   8.003 -0.9241 -0.1364 -0.3196
  950MOL0     C28171   6.008  10.654   7.870  0.6528  0.5636  0.1575
  950MOL0     C28172   6.100  10.610   7.778 -0.4948 -0.2054 -0.3831
  950MOL0     C28173   6.231  10.607   7.812 -0.6291 -0.2743 -0.2979
  950MOL0     O28174   6.315  10.555   7.715  0.1935 -0.5491 -0.5279
  950MOL0     C28175   6.455  10.586   7.727  0.1601 -0.4011 -0.7208
  950MOL0     C28176   6.528  10.538   7.601 -0.2069 -0.3726  0.1287
  950MOL0     C28177   6.674  10.582   7.594  0.0807 -0.3151  0.4412
  950MOL0     C28178   6.696  10.723   7.544  0.4219 -1.1385  0.1432
  950MOL0     C28179   6.833  10.764   7.588 -0.7510 -0.2100 -0.2734
  950MOL0     C28180   6.946  10.804   7.604  0.4421 -1.0071 -0.1518
  950MOL0     C28181   6.278  10.654   7.939  0.1962 -0.5391 -0.9464
  950MOL0     C28182   6.183  10.688   8.036  0.0380 -0.5519 -0.5008
  950MOL0     H28183   5.703  10.807   8.223  1.0108 -1.3554 -0.7737
  950MOL0     H28184   5.571  10.842   8.397  0.8965  1.4444 -1.0062
  950MOL0     H28185   5.563  10.853   8.843  0.2089 -1.0581  1.2682
  950MOL0     H28186   5.691  10.746   8.802  0.9024  0.4854 -1.9267
  950MOL0     H28187   5.794  10.919   8.945  2.5216  2.0340  0.5514
  950MOL0     H28188   5.847  10.963   8.784 -0.9058 -3.1318 -2.3189
  950MOL0     H28189   5.656  11.143   8.790 -2.1242 -0.6747  0.1085
  950MOL0     H28190   5.621  11.079   8.955 -0.6796 -1.0658 -1.0104
  950MOL0     H28191   5.858  11.138   9.029 -1.4385  0.4371  0.0955
  950MOL0     H28192   5.876  11.218   8.865 -0.1001  2.7942  0.3127
  950MOL0     H28193   5.690  11.363   8.947 -0.8033  0.8772  0.6260
  950MOL0     H28194   5.700  11.290   9.103 -1.7335  1.2504 -1.2462
  950MOL0     H28195   5.893  11.475   8.965  1.3909 -0.9582  0.5787
  950MOL0     H28196   5.796  11.489   9.119 -1.6670 -0.3730 -0.1222
  950MOL0     H28197   5.962  11.348   9.235  3.4692 -2.2568  0.3650
  950MOL0     H28198   6.021  11.295   9.071 -1.4026 -0.6968 -0.1966
  950MOL0     H28199   6.079  11.568   9.178  0.6980  0.1753  0.7689
  950MOL0     H28200   6.138  11.500   9.025  0.5997  1.3748  0.2021
  950MOL0     H28201   6.295  11.242   9.086 -0.9754 -2.1660  1.8743
  950MOL0     H28202   6.503  11.170   9.353 -3.4768  1.0602  0.2734
  950MOL0     H28203   6.484  11.140   9.183 -0.3817 -0.4005  1.0903
  950MOL0     H28204   6.623  11.344   9.139  0.5698 -0.2832 -0.3091
  950MOL0     H28205   6.699  11.189   9.149 -0.1151 -1.6319  2.3345
  950MOL0     H28206   6.832  11.312   9.296 -1.0084  2.0599 -2.1915
  950MOL0     H28207   6.740  11.241   9.411  2.1996 -1.2060 -2.1556
  950MOL0     H28208   6.594  11.471   9.400  0.3847  0.7354  2.4704
  950MOL0     H28209   6.737  11.519   9.295  0.9361  0.1799  0.3544
  950MOL0     H28210   6.954  11.384   9.653  1.0097 -0.1256  1.8967
  950MOL0     H28211   6.882  11.127   9.924 -0.5691  1.4782  2.8620
  950MOL0     H28212   7.001  11.188   9.812  1.7394 -1.9750  1.2042
  950MOL0     H28213   6.969  11.276   9.963 -1.9651  1.3370 -0.6984
  950MOL0     H28214   6.412  11.375  10.262  0.4537  0.7688  2.9771
  950MOL0     H28215   6.346  11.254  10.466  0.3898  1.8884 -1.0367
  950MOL0     H28216   6.397  10.798  10.530 -4.5588  0.8061  1.6353
  950MOL0     H28217   6.550  10.882  10.569  0.2968 -5.6985  1.7431
  950MOL0     H28218   6.490  10.833  10.763 -0.0214 -0.4045  0.4345
  950MOL0     H28219   6.395  10.991  10.757 -0.3240  0.5315 -0.9580
  950MOL0     H28220   6.284  10.820  10.881 -0.1321 -0.0609  0.3708
  950MOL0     H28221   6.262  10.713  10.728  0.8697  0.7675 -2.1542
  950MOL0     H28222   6.160  10.992  10.782 -2.8584 -0.1523  1.1359
  950MOL0     H28223   6.152  10.922  10.627  1.2757  0.7560  0.3411
  950MOL0     H28224   6.028  10.724  10.702 -2.3566  1.0087 -2.5131
  950MOL0     H28225   5.944  10.883  10.711 -1.7670 -0.6660  1.0203
  950MOL0     H28226   6.069  10.717  10.948 -1.1449 -1.5440  0.2230
  950MOL0     H28227   5.996  10.876  10.974 -3.4720  1.1129 -0.8177
  950MOL0     H28228   5.866  10.626  10.858  2.4884  0.8318  0.4380
  950MOL0     H28229   5.764  10.778  10.889 -2.7165 -0.6810  1.8031
  950MOL0     H28230   5.803  10.773  11.119  0.1757  1.5048 -2.9199
  950MOL0     H28231   5.890  10.621  11.113  0.1992  1.0308  0.7374
  950MOL0     H28232   6.484  10.883  10.292  0.3292 -0.3893 -2.5810
  950MOL0     H28233   6.555  11.002  10.104 -1.7270 -2.2913  0.9411
  950MOL0     H28234   6.493  11.395   9.840  1.1060 -0.9147 -0.2324
  950MOL0     H28235   6.538  11.447   9.600  0.3632 -0.6773 -0.6189
  950MOL0     H28236   5.900  10.782   8.681 -0.5874  0.6074  0.7259
  950MOL0     H28237   6.049  10.753   8.461 -0.9201 -2.4631 -1.0760
  950MOL0     H28238   5.904  10.651   7.838  0.8309  5.3325 -1.6893
  950MOL0     H28239   6.058  10.576   7.684 -3.2140  0.7144  0.3960
  950MOL0     H28240   6.462  10.694   7.737 -1.8010  0.0014 -2.8649
  950MOL0     H28241   6.495  10.537   7.817 -1.8439 -1.2251 -0.2112
  950MOL0     H28242   6.480  10.578   7.510  0.8835  2.4028  0.6583
  950MOL0     H28243   6.525  10.430   7.587 -0.3839 -0.3344 -0.1574
  950MOL0     H28244   6.732  10.508   7.537 -1.1496 -0.2199 -0.9836
  950MOL0     H28245   6.698  10.578   7.700 -1.7736 -1.5409  0.8648
  950MOL0     H28246   6.628  10.790   7.598  0.8573 -0.6713  0.1234
  950MOL0     H28247   6.689  10.729   7.435 -1.3965 -0.7158  0.2553
  950MOL0     H28248   7.047  10.838   7.600  0.4709 -1.1562 -0.7602
  950MOL0     H28249   6.384  10.656   7.962 -0.3021  1.4624  1.7478
  950MOL0     H28250   6.213  10.704   8.139  0.2121 -0.3816 -0.5770
  951MOL0     O28251   7.731   4.203   6.040 -0.1125 -0.3158  0.1006
  951MOL0     C28252   7.781   4.250   5.937 -0.4464 -0.0283 -0.3687
  951MOL0     O28253   7.710   4.300   5.841 -0.7684 -0.1230  0.0906
  951MOL0     C28254   7.576   4.320   5.857 -0.0292  0.3376  0.5011
  951MOL0     C28255   7.504   4.365   5.966 -0.7023 -1.0111  0.2554
  951MOL0     C28256   7.365   4.380   5.970 -1.0782 -1.0181  0.3011
  951MOL0     C28257   7.292   4.341   5.860  0.2621  0.0058  0.8111
  951MOL0     O28258   7.146   4.350   5.852 -0.0011  0.2061 -0.3617
  951MOL0     C28259   7.073   4.398   5.973  1.1737  0.3942 -0.1005
  951MOL0     C28260   6.929   4.409   5.930 -0.8037 -0.5026  0.9279
  951MOL0     C28261   6.904   4.522   5.823  0.7043  0.1719 -0.0670
  951MOL0     C28262   6.761   4.581   5.840 -0.1755  0.5290  0.4146
  951MOL0     C28263   6.734   4.668   5.964 -0.5219 -1.4380 -1.1437
  951MOL0     C28264   6.843   4.776   5.984 -0.2003 -0.9115 -0.1366
  951MOL0     C28265   6.844   4.891   5.882  0.5063 -0.1023  0.2772
  951MOL0     C28266   6.952   4.990   5.922  0.4602 -0.2515 -0.3041
  951MOL0     N28267   7.085   4.924   5.917  0.5224  0.9139 -0.5028
  951MOL0     C28268   7.137   4.836   5.826  0.1569 -0.2296 -0.5206
  951MOL0     C28269   7.253   4.792   5.875  0.0999 -0.5624  0.0371
  951MOL0     C28270   7.338   4.689   5.824 -0.1551  0.2222  0.5654
  951MOL0     C28271   7.397   4.731   5.690  1.2208  0.5094  0.1221
  951MOL0     C28272   7.531   4.798   5.692 -0.6826 -1.4150  0.2842
  951MOL0     C28273   7.653   4.722   5.754 -0.5456 -0.2391  0.2217
  951MOL0     O28274   7.771   4.781   5.689  0.7087  0.0240 -0.0962
  951MOL0     C28275   7.890   4.723   5.722  0.3124 -0.4756 -0.7675
  951MOL0     C28276   8.000   4.788   5.673 -0.2801  0.6910  0.1671
  951MOL0     C28277   8.130   4.765   5.718  0.1632 -0.9156  0.5016
  951MOL0     C28278   8.243   4.841   5.657 -0.6173 -0.4050  0.3861
  951MOL0     C28279   8.155   4.680   5.831  0.3319  1.0665 -0.9145
  951MOL0     C28280   8.286   4.658   5.900  0.3369  0.5977 -0.0278
  951MOL0     O28281   8.319   4.533   5.940 -0.1918 -0.8254 -0.3457
  951MOL0     C28282   8.420   4.514   6.021  0.2163 -1.0954 -0.0943
  951MOL0     C28283   8.393   4.506   6.155  1.0298  0.0266 -0.4135
  951MOL0     C28284   8.492   4.489   6.242 -0.1111  0.9229  0.6739
  951MOL0     C28285   8.619   4.491   6.203 -0.5412 -0.1153 -0.5805
  951MOL0     O28286   8.734   4.476   6.288  0.6422 -0.5346 -0.2630
  951MOL0     C28287   8.716   4.416   6.422 -0.2063 -0.8790  0.1005
  951MOL0     C28288   8.839   4.445   6.511  0.2401 -0.1687 -0.2700
  951MOL0     C28289   8.840   4.365   6.640  0.3263  1.1297 -0.0436
  951MOL0     C28290   8.970   4.373   6.727  0.2673  0.0808 -0.0211
  951MOL0     C28291   8.974   4.307   6.873 -0.0093 -1.3493  0.1693
  951MOL0     C28292   9.103   4.350   6.943 -0.0904 -0.6481  0.2566
  951MOL0     C28293   9.107   4.291   7.088  0.2256  0.0873  0.1812
  951MOL0     C28294   9.095   4.137   7.102  0.0042 -0.1812  0.2345
  951MOL0    Cl28295   9.079   4.068   7.271  0.4295 -0.0220 -0.1510
  951MOL0     C28296   8.648   4.482   6.071  0.1072 -0.5125 -0.0244
  951MOL0     C28297   8.552   4.502   5.976  0.6652 -0.8275 -0.0206
  951MOL0     O28298   8.361   4.756   5.911 -0.3301  0.8025 -0.1201
  951MOL0     C28299   8.054   4.602   5.880  1.0295 -0.4339  0.3621
  951MOL0     C28300   7.920   4.627   5.818 -0.2474  0.6568  0.3686
  951MOL0     N28301   7.284   4.859   5.990  0.5567  0.1720  0.1740
  951MOL0     N28302   7.178   4.931   6.023  0.6306 -0.3773  0.3208
  951MOL0     C28303   7.359   4.301   5.752  0.3426  0.3214 -0.1159
  951MOL0     C28304   7.497   4.293   5.746 -0.0609  0.6908 -0.6534
  951MOL0     C28305   7.927   4.231   5.929  0.1318 -0.4400 -0.2352
  951MOL0     C28306   7.985   4.223   5.808  0.6567 -0.4443 -0.5355
  951MOL0     C28307   8.124   4.217   5.794  0.0409  0.3094  0.0242
  951MOL0     C28308   8.210   4.199   5.906  0.3713  0.5394  0.6469
  951MOL0     O28309   8.342   4.172   5.905  0.8262 -0.1257  0.5590
  951MOL0     C28310   8.406   4.150   5.784 -0.3129 -0.3946  0.0379
  951MOL0     C28311   8.560   4.133   5.812  0.4637  0.7261  0.4035
  951MOL0     C28312   8.643   4.153   5.682  1.5984 -1.2979 -0.0139
  951MOL0     C28313   8.796   4.147   5.720  0.5902 -0.2533  0.4166
  951MOL0     C28314   8.869   4.241   5.636 -0.2249 -0.6500  0.6410
  951MOL0     C28315   8.920   4.329   5.557 -0.5278  0.2250  0.2323
  951MOL0     C28316   8.148   4.199   6.030  0.1338 -0.4875  0.0601
  951MOL0     C28317   8.010   4.216   6.039 -0.3955 -0.4629  0.0569
  951MOL0     H28318   7.564   4.381   6.056  1.4938 -1.3118 -1.0841
  951MOL0     H28319   7.327   4.419   6.064 -1.6338 -2.0087  0.5031
  951MOL0     H28320   7.072   4.330   6.059 -2.4228 -2.1483 -1.8705
  951MOL0     H28321   7.107   4.497   6.003  1.8298  0.0917  0.1840
  951MOL0     H28322   6.895   4.312   5.892 -4.6044  1.2861 -0.7401
  951MOL0     H28323   6.882   4.439   6.024 -0.0874 -2.3667  1.9313
  951MOL0     H28324   6.975   4.604   5.809 -0.9444  1.2163 -3.1528
  951MOL0     H28325   6.907   4.466   5.729 -0.9031  0.7606 -0.4970
  951MOL0     H28326   6.749   4.645   5.752  2.4793 -0.9300 -1.1272
  951MOL0     H28327   6.685   4.503   5.856  0.5587 -0.1484  0.6900
  951MOL0     H28328   6.638   4.721   5.958  0.6472  0.8272 -1.2366
  951MOL0     H28329   6.730   4.602   6.051 -3.9825 -2.9695 -2.3051
  951MOL0     H28330   6.807   4.819   6.078  0.9227  4.4663 -1.8264
  951MOL0     H28331   6.939   4.726   6.001  2.0876  2.7799 -0.9954
  951MOL0     H28332   6.862   4.860   5.779 -2.5447  3.5971 -1.6139
  951MOL0     H28333   6.751   4.948   5.885  1.9426  2.6210 -2.3830
  951MOL0     H28334   6.936   5.034   6.021  0.4083 -0.1328 -0.3670
  951MOL0     H28335   6.947   5.075   5.855 -2.6277 -1.3631 -1.6660
  951MOL0     H28336   7.094   4.821   5.728  0.0475  0.3247 -0.5608
  951MOL0     H28337   7.408   4.670   5.906 -2.0261 -1.4647  1.8578
  951MOL0     H28338   7.271   4.605   5.804 -0.3749  1.0351 -2.6970
  951MOL0     H28339   7.317   4.779   5.632  0.6578 -0.0514  0.4147
  951MOL0     H28340   7.415   4.639   5.634 -3.1124 -0.4093 -0.1341
  951MOL0     H28341   7.521   4.892   5.747  3.5496 -0.5361 -0.0983
  951MOL0     H28342   7.554   4.823   5.588 -0.7425  1.2496  0.8233
  951MOL0     H28343   7.648   4.618   5.722  0.2025 -0.1153 -0.3566
  951MOL0     H28344   7.657   4.724   5.863  1.6631 -0.2711  0.1915
  951MOL0     H28345   7.984   4.873   5.608  2.3060  3.1537  2.5078
  951MOL0     H28346   8.223   4.835   5.550  3.3412  3.3669 -0.8434
  951MOL0     H28347   8.250   4.945   5.690  0.8916  0.5267 -2.5046
  951MOL0     H28348   8.340   4.792   5.670  0.2977  1.7969  2.5245
  951MOL0     H28349   8.288   4.489   6.173  1.0249  0.0787 -0.3940
  951MOL0     H28350   8.465   4.471   6.345  0.5979  0.4681  0.7899
  951MOL0     H28351   8.626   4.460   6.464  0.1589  0.7012 -0.6994
  951MOL0     H28352   8.703   4.308   6.412 -1.2336 -0.6448 -1.3873
  951MOL0     H28353   8.927   4.423   6.450  0.0910  0.3511 -0.6825
  951MOL0     H28354   8.841   4.549   6.543  1.0975  0.0560 -1.0262
  951MOL0     H28355   8.840   4.263   6.599  0.3110  0.5647  1.3064
  951MOL0     H28356   8.745   4.379   6.692 -3.0613 -0.0821 -5.1201
  951MOL0     H28357   9.046   4.325   6.665 -2.9073  1.2181 -5.4194
  951MOL0     H28358   8.980   4.482   6.738 -0.7735  0.2524 -0.6464
  951MOL0     H28359   8.974   4.199   6.861 -0.3130 -1.1801 -1.6598
  951MOL0     H28360   8.889   4.351   6.928  1.7062  1.6206  0.6468
  951MOL0     H28361   9.184   4.306   6.885 -1.0755 -1.5673 -0.4749
  951MOL0     H28362   9.114   4.458   6.951 -1.2726 -0.1196 -3.2953
  951MOL0     H28363   9.019   4.332   7.139  1.2139 -0.9022  2.8286
  951MOL0     H28364   9.200   4.329   7.132 -0.1261  0.4105  0.6557
  951MOL0     H28365   9.176   4.094   7.043  0.0971  1.4060 -0.8538
  951MOL0     H28366   9.002   4.098   7.057 -0.6791 -1.3874  2.5438
  951MOL0     H28367   8.750   4.474   6.036 -0.7504 -1.6215 -2.4669
  951MOL0     H28368   8.581   4.494   5.872  3.0811  1.6132  0.3513
  951MOL0     H28369   8.064   4.518   5.949 -1.1017 -1.5073 -0.5382
  951MOL0     H28370   7.841   4.557   5.844 -0.1804  0.9914  1.5676
  951MOL0     H28371   7.303   4.259   5.669 -2.5403  1.1736  1.2879
  951MOL0     H28372   7.522   4.245   5.652  0.6864 -3.9717  1.6295
  951MOL0     H28373   7.920   4.235   5.721 -0.1975  0.8337  0.2598
  951MOL0     H28374   8.157   4.224   5.691 -3.2553 -0.5055 -1.1795
  951MOL0     H28375   8.381   4.064   5.721  0.2479 -0.6576  0.1668
  951MOL0     H28376   8.399   4.241   5.725  1.3556 -1.0148 -1.1823
  951MOL0     H28377   8.584   4.035   5.853 -0.5002  1.6532  3.4395
  951MOL0     H28378   8.581   4.217   5.879 -1.3413  1.9636 -0.4811
  951MOL0     H28379   8.610   4.239   5.622  2.4006  0.0783  1.4122
  951MOL0     H28380   8.616   4.074   5.612  2.5659  0.0718 -2.0426
  951MOL0     H28381   8.829   4.044   5.702  1.3153 -0.4457  2.5907
  951MOL0     H28382   8.815   4.189   5.819  1.6162 -0.7208  0.4250
  951MOL0     H28383   8.943   4.403   5.483 -0.8869  2.0235  1.8528
  951MOL0     H28384   8.210   4.185   6.118  2.1828 -2.3290 -1.5756
  951MOL0     H28385   7.970   4.221   6.139 -1.0257  3.6665 -0.1990
  952MOL0     O28386   9.386   0.148   1.804  0.7040  0.2990 -0.4728
  952MOL0     C28387   9.348   0.245   1.874  0.2847 -0.0051  0.0009
  952MOL0     O28388   9.439   0.351   1.917 -0.0946  0.4867 -0.2284
  952MOL0     C28389   9.572   0.327   1.900  0.4158  0.1064  0.6011
  952MOL0     C28390   9.642   0.415   1.820 -0.1788  0.1223  0.7839
  952MOL0     C28391   9.779   0.404   1.807  1.1919 -0.3545  0.0905
  952MOL0     C28392   9.848   0.302   1.869  0.0893  1.2106 -0.3726
  952MOL0     O28393   9.984   0.296   1.859  0.3960  0.7504  0.8139
  952MOL0     C28394  10.052   0.176   1.879 -0.6720 -0.5834 -0.0031
  952MOL0     C28395  10.177   0.169   1.786  1.5244  0.4447 -0.1760
  952MOL0     C28396  10.293   0.093   1.846 -0.2617  0.5749 -0.7260
  952MOL0     C28397  10.419   0.066   1.760  0.2788 -1.1120  0.8337
  952MOL0     C28398  10.525  -0.003   1.848 -0.0843  0.4070 -0.0580
  952MOL0     C28399  10.663  -0.007   1.784 -0.0009  0.2063  0.2906
  952MOL0     C28400  10.764  -0.075   1.873 -0.1131  0.5425  0.1044
  952MOL0     C28401  10.895  -0.093   1.787 -0.4184 -0.2311 -0.1594
  952MOL0     N28402  10.937   0.040   1.736 -0.2513  0.3982  0.1419
  952MOL0     C28403  10.924   0.073   1.614  0.7703 -0.6940  0.0370
  952MOL0     C28404  10.965   0.198   1.598 -1.0848  0.5020  0.2697
  952MOL0     C28405  10.939   0.272   1.470 -0.7766 -0.1644 -0.0164
  952MOL0     C28406  10.801   0.320   1.461  0.4914  0.3142  0.2182
  952MOL0     C28407  10.752   0.332   1.321  0.0981  0.0228  0.0894
  952MOL0     C28408  10.624   0.410   1.334  0.8477  0.7124 -0.7486
  952MOL0     O28409  10.645   0.551   1.336 -0.4838  0.0760  0.1792
  952MOL0     C28410  10.544   0.626   1.389 -0.2369  0.0048  0.7566
  952MOL0     C28411  10.576   0.727   1.480 -0.1588  0.4316  1.1775
  952MOL0     C28412  10.483   0.815   1.541  0.0945 -0.0881 -0.2266
  952MOL0     C28413  10.549   0.929   1.620 -0.1724  0.0817 -0.0760
  952MOL0     C28414  10.345   0.795   1.507 -0.6946 -0.0929 -0.0597
  952MOL0     C28415  10.242   0.863   1.576 -0.2712 -0.8757 -0.3270
  952MOL0     O28416  10.123   0.894   1.511 -0.4577 -0.0956 -0.4059
  952MOL0     C28417  10.019   0.900   1.593  0.3167  0.9114  0.3765
  952MOL0     C28418   9.972   1.032   1.627 -0.4404 -1.0253  0.4970
  952MOL0     C28419   9.841   1.049   1.671 -0.1105  0.1861  0.9290
  952MOL0     C28420   9.749   0.937   1.686  0.9278 -0.5339  0.4605
  952MOL0     O28421   9.620   0.969   1.711  0.0546  0.8977  0.0613
  952MOL0     C28422   9.523   0.867   1.683 -0.4584 -0.1060  0.0752
  952MOL0     C28423   9.385   0.911   1.737 -0.6730 -0.3511  0.3012
  952MOL0     C28424   9.266   0.827   1.691 -0.3929 -0.1108  0.5034
  952MOL0     C28425   9.138   0.858   1.773  0.5264  0.8855  0.8767
  952MOL0     C28426   9.015   0.855   1.679 -0.2291  0.2443 -0.3184
  952MOL0     C28427   8.894   0.890   1.758  0.2991 -0.5890  0.4473
  952MOL0     C28428   8.834   0.782   1.843 -1.3990  0.9547  0.8075
  952MOL0     C28429   8.714   0.833   1.920  0.3055  0.5967 -0.4807
  952MOL0    Cl28430   8.572   0.868   1.813 -0.4398  0.1294 -0.1992
  952MOL0     C28431   9.800   0.810   1.659  0.8263 -0.1791  0.2627
  952MOL0     C28432   9.932   0.791   1.613 -0.8781  0.0597 -0.3891
  952MOL0     O28433  10.263   0.890   1.700 -0.5133  0.1710  0.1451
  952MOL0     C28434  10.315   0.705   1.408  0.6414 -0.6478  0.4192
  952MOL0     C28435  10.410   0.618   1.352 -0.0003  0.1082 -0.9025
  952MOL0     N28436  10.999   0.250   1.721 -0.6133 -0.4163  0.0174
  952MOL0     N28437  10.985   0.152   1.805  0.3975  0.1788  1.0451
  952MOL0     C28438   9.780   0.212   1.958 -0.1072 -0.0751  0.1224
  952MOL0     C28439   9.640   0.227   1.977  0.7831 -0.6054  0.7301
  952MOL0     C28440   9.210   0.265   1.914 -0.6347 -0.5357  0.0937
  952MOL0     C28441   9.174   0.363   2.002  0.8016 -0.6661 -0.8796
  952MOL0     C28442   9.038   0.390   2.026  0.0261 -0.4045  0.0702
  952MOL0     C28443   8.943   0.309   1.969 -0.2657  0.1392  0.1253
  952MOL0     O28444   8.812   0.326   1.996  0.2321 -0.2091 -0.2275
  952MOL0     C28445   8.742   0.451   2.008 -0.5778 -0.3999  0.6690
  952MOL0     C28446   8.599   0.422   1.967 -0.8198  0.3263  0.8005
  952MOL0     C28447   8.518   0.333   2.065 -0.6103 -0.2250  0.3287
  952MOL0     C28448   8.368   0.320   2.044 -0.5240 -0.1932  1.0402
  952MOL0     C28449   8.317   0.244   2.151  0.4019 -0.3752 -0.6424
  952MOL0     C28450   8.261   0.186   2.245 -0.3401  0.1378  0.2233
  952MOL0     C28451   8.979   0.196   1.891 -0.2448 -0.4742  0.7186
  952MOL0     C28452   9.110   0.182   1.857 -0.2637  0.6786  0.9836
  952MOL0     H28453   9.597   0.494   1.761  2.4969  1.8944  0.9431
  952MOL0     H28454   9.852   0.466   1.757  2.4455 -0.8007  1.2980
  952MOL0     H28455  10.088   0.167   1.982 -1.0885 -4.0516 -0.0487
  952MOL0     H28456   9.988   0.089   1.860 -0.0663 -1.3249  1.1743
  952MOL0     H28457  10.153   0.112   1.696  1.0739 -0.0751  0.2665
  952MOL0     H28458  10.207   0.272   1.764  2.3582  0.3699  0.5387
  952MOL0     H28459  10.316   0.152   1.935 -2.4130  2.8688 -1.5752
  952MOL0     H28460  10.252  -0.002   1.883 -2.1382  0.9784 -1.6307
  952MOL0     H28461  10.395   0.002   1.675 -0.7584  0.7756 -0.3804
  952MOL0     H28462  10.468   0.160   1.733 -2.3414 -0.3397 -1.5767
  952MOL0     H28463  10.521   0.046   1.946 -2.4725 -0.9920  0.6334
  952MOL0     H28464  10.495  -0.107   1.863 -0.5054  0.2053 -1.9830
  952MOL0     H28465  10.651  -0.064   1.691 -2.1461 -0.9617  1.1925
  952MOL0     H28466  10.693   0.095   1.757  2.2759 -0.2181  1.0073
  952MOL0     H28467  10.786  -0.011   1.959 -0.4683  1.2799 -0.3499
  952MOL0     H28468  10.735  -0.173   1.912 -2.1449  0.4057 -1.5836
  952MOL0     H28469  10.869  -0.170   1.714 -2.4641 -1.9048  2.1432
  952MOL0     H28470  10.967  -0.135   1.858  1.5227 -1.4186 -2.6825
  952MOL0     H28471  10.887   0.024   1.525  1.9178 -1.1758 -0.1871
  952MOL0     H28472  11.000   0.363   1.477  0.6669 -1.1209  0.3387
  952MOL0     H28473  10.973   0.211   1.385  0.5201 -1.7013  1.5370
  952MOL0     H28474  10.797   0.419   1.507 -2.1611  0.2309  0.2688
  952MOL0     H28475  10.739   0.248   1.514 -0.3629  0.7414 -0.1763
  952MOL0     H28476  10.733   0.234   1.277  1.9417 -1.0681  1.6301
  952MOL0     H28477  10.821   0.384   1.254 -2.5202  2.5888 -0.8695
  952MOL0     H28478  10.567   0.371   1.419  0.8106  2.3034 -0.0131
  952MOL0     H28479  10.556   0.399   1.248 -0.2436  1.6965 -0.0403
  952MOL0     H28480  10.681   0.735   1.507  0.7224  0.7144 -1.9924
  952MOL0     H28481  10.640   0.959   1.566 -0.1534  1.1080  0.5020
  952MOL0     H28482  10.485   1.016   1.632  0.4399  0.4584  0.5352
  952MOL0     H28483  10.592   0.901   1.717 -0.7954  0.4022  0.2986
  952MOL0     H28484  10.032   1.121   1.607  0.4516 -1.6000  0.5591
  952MOL0     H28485   9.803   1.151   1.675  0.7441  0.5331  0.3627
  952MOL0     H28486   9.519   0.852   1.574  1.5506 -0.7690  0.0645
  952MOL0     H28487   9.540   0.783   1.750 -2.3652  0.4037  1.2844
  952MOL0     H28488   9.391   0.906   1.846 -1.1123 -1.4005  0.2912
  952MOL0     H28489   9.368   1.011   1.694 -0.9658 -0.5290 -0.0061
  952MOL0     H28490   9.296   0.722   1.683 -0.5078  0.0210 -3.6126
  952MOL0     H28491   9.243   0.852   1.587 -0.5605 -3.6637 -0.4671
  952MOL0     H28492   9.113   0.786   1.852  3.2986 -0.1423  0.9313
  952MOL0     H28493   9.154   0.947   1.834  2.0995  0.7667  0.6754
  952MOL0     H28494   9.000   0.763   1.622 -1.7839  0.7113 -0.7103
  952MOL0     H28495   9.033   0.925   1.598 -0.9802 -2.0377 -2.6038
  952MOL0     H28496   8.910   0.985   1.811 -1.6520  1.1624 -1.8538
  952MOL0     H28497   8.822   0.909   1.678  1.8205  1.0319 -0.6242
  952MOL0     H28498   8.904   0.739   1.915 -0.6401 -0.3219 -0.6206
  952MOL0     H28499   8.806   0.697   1.779  1.5069 -0.1872  0.8829
  952MOL0     H28500   8.734   0.926   1.973 -1.2852  1.2666 -1.0051
  952MOL0     H28501   8.688   0.751   1.987  1.6778 -1.1052 -1.9013
  952MOL0     H28502   9.742   0.720   1.668 -1.5177  1.1052 -1.1059
  952MOL0     H28503   9.959   0.701   1.558  3.1794  1.5165 -1.1312
  952MOL0     H28504  10.210   0.690   1.383  0.4614  1.4179 -0.2181
  952MOL0     H28505  10.372   0.551   1.276  1.1109  1.4580 -2.7126
  952MOL0     H28506   9.826   0.129   2.010 -0.0251  0.3846  0.8107
  952MOL0     H28507   9.584   0.164   2.045  1.9846 -1.1572  1.2433
  952MOL0     H28508   9.248   0.430   2.045  0.8197 -2.2654  1.7759
  952MOL0     H28509   9.013   0.473   2.091 -1.3262  2.1317 -3.3757
  952MOL0     H28510   8.753   0.509   2.100 -1.8509 -1.3670  1.4566
  952MOL0     H28511   8.779   0.520   1.931 -0.1375 -0.3796  0.8932
  952MOL0     H28512   8.586   0.384   1.865 -0.4006  0.9379  0.5133
  952MOL0     H28513   8.555   0.523   1.958 -0.9835  0.1206 -1.2097
  952MOL0     H28514   8.526   0.386   2.161 -1.0835  0.1943  0.1429
  952MOL0     H28515   8.558   0.231   2.065  2.0001  0.7210  0.9838
  952MOL0     H28516   8.353   0.263   1.952  1.2366  1.5279 -0.3668
  952MOL0     H28517   8.317   0.417   2.044 -1.2126 -0.5461  0.4159
  952MOL0     H28518   8.211   0.151   2.334  3.8146  1.4061  3.3677
  952MOL0     H28519   8.908   0.143   1.829 -2.0262  4.1213 -1.6364
  952MOL0     H28520   9.139   0.105   1.786 -1.4685 -0.1547  1.3649
  953MOL0     O28521   8.066   7.455   8.959  0.2791 -0.5483  0.3941
  953MOL0     C28522   8.079   7.411   8.842  0.0636 -0.1453  0.5380
  953MOL0     O28523   7.978   7.382   8.753  0.0326  1.0800  0.7599
  953MOL0     C28524   7.853   7.395   8.794  0.5094 -1.2001 -0.8780
  953MOL0     C28525   7.772   7.488   8.727 -0.7784 -0.0777 -0.4318
  953MOL0     C28526   7.635   7.493   8.750  0.2918 -0.2040 -0.1308
  953MOL0     C28527   7.576   7.401   8.838  0.4463 -0.3513 -1.2815
  953MOL0     O28528   7.445   7.422   8.874  0.8369 -0.0254 -0.1544
  953MOL0     C28529   7.389   7.354   8.995 -0.3618  0.9505  0.1461
  953MOL0     C28530   7.252   7.413   9.024  0.2484  0.2041 -0.2532
  953MOL0     C28531   7.138   7.385   8.925  0.3358 -0.1430 -0.3341
  953MOL0     C28532   7.008   7.439   8.977 -0.0250 -0.1619  0.4426
  953MOL0     C28533   6.884   7.409   8.895 -0.0580  0.6831 -0.1087
  953MOL0     C28534   6.779   7.511   8.947  0.3733  0.1949 -0.0890
  953MOL0     C28535   6.632   7.475   8.911 -0.1053  0.1215  0.5276
  953MOL0     C28536   6.551   7.594   8.939  0.0964 -0.2097  0.3046
  953MOL0     N28537   6.410   7.561   8.913  0.5261  0.4316 -0.5539
  953MOL0     C28538   6.365   7.519   8.791 -1.0370 -0.3844 -0.5295
  953MOL0     C28539   6.241   7.483   8.807  0.7009 -1.3659  0.4713
  953MOL0     C28540   6.150   7.441   8.691 -0.0080 -1.3185 -1.0412
  953MOL0     C28541   6.154   7.289   8.663 -0.0073  0.4302 -0.2705
  953MOL0     C28542   6.129   7.200   8.788 -0.4721 -0.7526 -1.1326
  953MOL0     C28543   5.991   7.236   8.853 -0.5910 -0.7278  0.1139
  953MOL0     O28544   5.975   7.186   8.990 -0.5198 -0.5506  0.7306
  953MOL0     C28545   5.848   7.215   9.046  0.1602 -0.2624  0.2232
  953MOL0     C28546   5.759   7.311   8.994 -0.6799  1.0152 -0.3670
  953MOL0     C28547   5.635   7.322   9.062  0.0249 -0.2712  0.9678
  953MOL0     C28548   5.542   7.413   8.999 -0.0149 -0.6784 -0.4981
  953MOL0     C28549   5.597   7.256   9.177  0.1497 -0.0321 -0.5096
  953MOL0     C28550   5.474   7.273   9.263 -0.0266  0.1518  0.0226
  953MOL0     O28551   5.409   7.156   9.290 -0.1768  1.0923  0.9485
  953MOL0     C28552   5.284   7.172   9.349  0.0046  0.0429 -0.3819
  953MOL0     C28553   5.260   7.145   9.485  0.1679  0.9268 -0.7172
  953MOL0     C28554   5.126   7.153   9.535  0.3984  0.2425  0.2703
  953MOL0     C28555   5.017   7.210   9.457 -0.4232  0.3644 -0.6587
  953MOL0     O28556   4.887   7.218   9.493 -0.6859 -0.0077 -0.1423
  953MOL0     C28557   4.848   7.196   9.627 -0.8940 -0.3145 -0.3976
  953MOL0     C28558   4.692   7.207   9.634 -0.3549  0.3345 -0.0466
  953MOL0     C28559   4.649   7.199   9.771  0.5949  0.2155 -0.0470
  953MOL0     C28560   4.498   7.158   9.756  0.1581 -0.3538 -1.0535
  953MOL0     C28561   4.410   7.247   9.662  0.0398  0.5959  0.0974
  953MOL0     C28562   4.269   7.229   9.691  1.1250  0.1878  0.5951
  953MOL0     C28563   4.230   7.098   9.608  0.3613 -0.1887  0.6102
  953MOL0     C28564   4.100   7.121   9.528  0.0213  0.2945 -0.6586
  953MOL0    Cl28565   4.120   7.235   9.396  0.4107  0.2438  0.2647
  953MOL0     C28566   5.058   7.249   9.330 -0.1579 -0.2064 -0.5959
  953MOL0     C28567   5.182   7.231   9.275 -0.5196 -0.8714 -0.2258
  953MOL0     O28568   5.442   7.384   9.297 -0.8685 -0.3976  0.2719
  953MOL0     C28569   5.694   7.162   9.220  0.2168 -0.4368 -0.1660
  953MOL0     C28570   5.822   7.151   9.163 -0.0788 -0.4004  0.5398
  953MOL0     N28571   6.205   7.495   8.935  0.0644 -0.1456  0.0075
  953MOL0     N28572   6.308   7.539   9.008 -0.1822  0.0728 -0.4337
  953MOL0     C28573   7.653   7.297   8.900  0.4419  0.0195 -0.0125
  953MOL0     C28574   7.793   7.303   8.874  1.3122  0.3905  0.4631
  953MOL0     C28575   8.216   7.380   8.799 -0.1571  0.3127 -0.6909
  953MOL0     C28576   8.230   7.327   8.663  0.1342 -0.8047 -0.1241
  953MOL0     C28577   8.363   7.294   8.626  0.1740 -0.3021  0.5983
  953MOL0     C28578   8.474   7.306   8.712  0.2919  0.5129  0.3474
  953MOL0     O28579   8.602   7.275   8.669  0.0229 -1.1045  0.4392
  953MOL0     C28580   8.622   7.139   8.628  0.1906 -0.5015 -0.4712
  953MOL0     C28581   8.655   7.050   8.748  0.5051 -0.2629 -0.5694
  953MOL0     C28582   8.690   6.906   8.722 -0.0334 -0.2392  0.3955
  953MOL0     C28583   8.759   6.820   8.831 -0.3659 -0.4496 -0.3083
  953MOL0     C28584   8.877   6.895   8.881  0.1665 -0.0464 -0.5801
  953MOL0     C28585   8.973   6.956   8.911 -0.3840  0.1571 -0.0591
  953MOL0     C28586   8.456   7.378   8.832 -0.3262  1.3278 -0.2412
  953MOL0     C28587   8.330   7.417   8.874  0.4418 -0.5228 -0.2408
  953MOL0     H28588   7.817   7.565   8.667  4.3394 -1.9035  0.5510
  953MOL0     H28589   7.571   7.571   8.709 -0.2162 -1.4923 -1.9089
  953MOL0     H28590   7.388   7.246   8.979 -2.1939  1.1422 -1.3831
  953MOL0     H28591   7.461   7.372   9.075 -2.1974  0.3256  2.0272
  953MOL0     H28592   7.225   7.374   9.123  0.8839 -1.8456 -0.8388
  953MOL0     H28593   7.257   7.521   9.042 -0.4975 -0.2003  2.8854
  953MOL0     H28594   7.173   7.426   8.829  1.7171 -3.1249 -1.2039
  953MOL0     H28595   7.128   7.277   8.913  1.7716 -0.5984  2.0491
  953MOL0     H28596   6.978   7.393   9.071  1.4722 -3.2256 -0.4635
  953MOL0     H28597   7.028   7.546   8.990  2.9242 -0.7207  1.3917
  953MOL0     H28598   6.902   7.418   8.787  0.2643 -1.0103 -0.2206
  953MOL0     H28599   6.850   7.307   8.913 -2.4582  1.5391  0.5191
  953MOL0     H28600   6.790   7.515   9.056  1.2592 -1.2975 -0.1010
  953MOL0     H28601   6.799   7.611   8.906 -0.9107  1.5463  2.3493
  953MOL0     H28602   6.623   7.436   8.809 -4.7656 -0.5446  0.9501
  953MOL0     H28603   6.603   7.396   8.982  2.2206  0.6041  2.1436
  953MOL0     H28604   6.579   7.674   8.870  0.5251  0.3792  1.1355
  953MOL0     H28605   6.563   7.628   9.042  0.5253  1.4277 -0.2545
  953MOL0     H28606   6.408   7.528   8.692 -2.5178 -0.0109 -1.1589
  953MOL0     H28607   6.050   7.481   8.710  1.0819  0.6713  1.1159
  953MOL0     H28608   6.184   7.509   8.612  2.3985  1.7587  2.2890
  953MOL0     H28609   6.254   7.258   8.633  0.0390 -1.2767  1.4496
  953MOL0     H28610   6.079   7.269   8.586  0.7096 -3.9893 -0.0860
  953MOL0     H28611   6.211   7.209   8.860  0.8878 -1.9448 -2.4695
  953MOL0     H28612   6.138   7.095   8.757  5.4902 -0.0584 -2.9947
  953MOL0     H28613   5.908   7.197   8.793  0.2181  1.7220 -2.8551
  953MOL0     H28614   5.984   7.345   8.855  1.8200 -0.3631 -3.3207
  953MOL0     H28615   5.779   7.357   8.898  0.3890 -1.4706 -1.4101
  953MOL0     H28616   5.479   7.465   9.071 -0.3830 -1.0893 -0.5156
  953MOL0     H28617   5.587   7.492   8.939 -2.7426 -1.0082 -3.2942
  953MOL0     H28618   5.468   7.365   8.934 -0.8098  1.7015 -1.4621
  953MOL0     H28619   5.342   7.104   9.544  0.1951 -0.1202 -1.4346
  953MOL0     H28620   5.116   7.122   9.639  3.0533 -1.3230  0.1488
  953MOL0     H28621   4.876   7.096   9.661 -2.4654 -0.4026  0.7310
  953MOL0     H28622   4.903   7.272   9.684  1.3502  0.0455 -2.8361
  953MOL0     H28623   4.651   7.292   9.578  1.6300 -0.1063 -2.3478
  953MOL0     H28624   4.658   7.120   9.577  1.8804 -0.9087  0.3962
  953MOL0     H28625   4.652   7.299   9.815  1.5568  0.1563  0.0437
  953MOL0     H28626   4.709   7.138   9.838  0.0014 -0.4967 -0.1459
  953MOL0     H28627   4.487   7.057   9.716 -0.9436 -0.3636 -0.7607
  953MOL0     H28628   4.454   7.153   9.856 -1.3984 -2.8483 -1.7733
  953MOL0     H28629   4.432   7.245   9.555  0.6767  0.2506  0.2310
  953MOL0     H28630   4.430   7.353   9.682 -1.4780  0.5299  2.4344
  953MOL0     H28631   4.256   7.202   9.796  2.5954 -1.5118  0.3808
  953MOL0     H28632   4.206   7.315   9.664 -1.4538 -1.2309  1.7058
  953MOL0     H28633   4.218   7.023   9.687  0.9960 -0.5365  0.3793
  953MOL0     H28634   4.304   7.076   9.531  0.8024  1.1968  0.6078
  953MOL0     H28635   4.022   7.158   9.596 -1.0922 -2.5627 -0.2571
  953MOL0     H28636   4.057   7.024   9.501 -0.5409 -0.0794  1.3915
  953MOL0     H28637   4.972   7.279   9.271 -2.7107 -3.3890  1.1489
  953MOL0     H28638   5.196   7.257   9.171 -1.1956 -1.1317 -0.3848
  953MOL0     H28639   5.677   7.088   9.299 -0.3764  1.4517  1.5544
  953MOL0     H28640   5.888   7.070   9.194 -1.0655 -1.8240 -0.9028
  953MOL0     H28641   7.610   7.229   8.973 -0.3043 -0.4443 -0.8725
  953MOL0     H28642   7.857   7.225   8.915 -1.0475 -2.0210 -0.1752
  953MOL0     H28643   8.141   7.313   8.602  1.5732 -0.9146 -2.3220
  953MOL0     H28644   8.379   7.259   8.525  3.2479  2.7122 -0.1280
  953MOL0     H28645   8.535   7.097   8.577 -2.2381  0.2036  2.7892
  953MOL0     H28646   8.695   7.145   8.547 -0.5598  0.2879 -1.1095
  953MOL0     H28647   8.576   7.055   8.824  0.7167 -1.1446 -0.2872
  953MOL0     H28648   8.741   7.103   8.791  0.1109  1.3054 -1.6141
  953MOL0     H28649   8.748   6.904   8.629 -0.9756 -2.5479 -0.2028
  953MOL0     H28650   8.592   6.860   8.710  0.7044 -2.2035  1.4871
  953MOL0     H28651   8.793   6.725   8.790 -0.3967 -1.8696  2.7260
  953MOL0     H28652   8.688   6.783   8.905 -2.9538 -1.3170 -3.0065
  953MOL0     H28653   9.060   7.012   8.937  0.5590  0.3547 -3.2269
  953MOL0     H28654   8.538   7.400   8.900 -0.0134 -1.3912  0.3847
  953MOL0     H28655   8.333   7.475   8.966 -1.6947 -2.6030  1.2681
  954MOL0     O28656   5.499   5.428   5.992 -0.2545  0.3886  0.8218
  954MOL0     C28657   5.584   5.503   6.043  0.5212  0.1955  0.4839
  954MOL0     O28658   5.592   5.540   6.170  0.5014  0.0345 -0.4727
  954MOL0     C28659   5.466   5.529   6.246  0.4459 -0.3947  0.4647
  954MOL0     C28660   5.343   5.578   6.189 -0.3060 -0.0487  0.0131
  954MOL0     C28661   5.219   5.569   6.259 -0.2897 -0.9584 -0.2063
  954MOL0     C28662   5.212   5.511   6.387  0.3960 -0.0663 -0.6937
  954MOL0     O28663   5.085   5.519   6.444 -0.7457  0.6439 -0.2077
  954MOL0     C28664   5.096   5.571   6.580 -0.9433 -0.1076  0.4700
  954MOL0     C28665   5.099   5.451   6.679 -0.5313 -0.1157  0.1024
  954MOL0     C28666   5.037   5.494   6.807 -0.2346 -0.4816  0.4203
  954MOL0     C28667   5.036   5.385   6.907 -0.0517 -0.5705  0.4953
  954MOL0     C28668   4.966   5.442   7.038 -0.5071  0.0591  0.8300
  954MOL0     C28669   4.985   5.359   7.163  0.2549  0.1064  0.8908
  954MOL0     C28670   5.136   5.325   7.188 -0.2646 -0.4577  0.1038
  954MOL0     C28671   5.149   5.259   7.328  0.1721  0.0154  0.9090
  954MOL0     N28672   5.072   5.134   7.342  0.3093 -0.8581  0.4370
  954MOL0     C28673   5.026   5.049   7.242 -0.0452  0.6634 -0.1289
  954MOL0     C28674   4.927   4.975   7.299 -0.1128  0.0989 -0.5471
  954MOL0     C28675   4.877   4.856   7.239  0.3985 -0.2027  0.3883
  954MOL0     C28676   4.734   4.880   7.182  0.0804  0.6569 -1.3640
  954MOL0     C28677   4.731   5.000   7.087  0.4451  0.0039  0.9349
  954MOL0     C28678   4.592   5.002   7.023 -0.0448  0.5910 -0.5344
  954MOL0     O28679   4.485   5.029   7.109  0.4841  0.7354 -0.3453
  954MOL0     C28680   4.359   5.021   7.068 -0.9175  0.1463  0.2808
  954MOL0     C28681   4.269   5.077   7.154  0.3672  1.1512 -0.4277
  954MOL0     C28682   4.133   5.078   7.130 -0.3289  0.4971  0.0682
  954MOL0     C28683   4.038   5.157   7.215 -1.1524 -0.2928 -0.3233
  954MOL0     C28684   4.077   5.007   7.019 -0.6018 -0.2149  0.3882
  954MOL0     C28685   3.938   4.994   6.992 -0.5662  0.1106  0.3868
  954MOL0     O28686   3.843   4.998   7.093 -0.1951  0.0617  0.3010
  954MOL0     C28687   3.711   4.965   7.095  0.1947  0.0543  0.6903
  954MOL0     C28688   3.637   4.990   7.216 -0.3065  0.7038  0.0750
  954MOL0     C28689   3.504   4.952   7.225  0.0125  1.0688 -0.0001
  954MOL0     C28690   3.433   4.895   7.120 -0.5357 -0.4686  0.8776
  954MOL0     O28691   3.305   4.855   7.142  0.8661 -0.3172 -0.0447
  954MOL0     C28692   3.249   4.745   7.068 -0.3267 -0.9097  0.6258
  954MOL0     C28693   3.135   4.688   7.136 -0.7945  0.9852  0.2744
  954MOL0     C28694   3.083   4.567   7.061 -0.0357 -0.5867  0.1288
  954MOL0     C28695   2.939   4.526   7.108  0.8056 -0.8534 -0.0534
  954MOL0     C28696   2.882   4.425   7.012 -1.0002  0.1189 -0.2187
  954MOL0     C28697   2.761   4.363   7.076  0.6002 -0.2666  0.8402
  954MOL0     C28698   2.733   4.221   7.024 -1.1079 -0.1591 -0.2577
  954MOL0     C28699   2.622   4.227   6.921 -0.7586  0.1596  0.3350
  954MOL0    Cl28700   2.458   4.281   6.992 -0.1813 -0.2146  0.5977
  954MOL0     C28701   3.512   4.868   7.005 -0.1894  0.0166 -0.2983
  954MOL0     C28702   3.643   4.905   6.995  0.4043  0.0264 -0.2032
  954MOL0     O28703   3.923   4.974   6.869 -0.2077  0.4523  0.3095
  954MOL0     C28704   4.173   4.945   6.934 -0.1741 -0.3476  0.1665
  954MOL0     C28705   4.311   4.945   6.962  0.6003 -0.4990  0.2496
  954MOL0     N28706   4.908   5.019   7.429  0.0466  0.4220 -0.1812
  954MOL0     N28707   4.986   5.120   7.446  0.8154 -0.3326  0.2737
  954MOL0     C28708   5.331   5.466   6.445  0.0963  0.2765 -0.9440
  954MOL0     C28709   5.457   5.474   6.373  0.2453 -0.6710  0.9322
  954MOL0     C28710   5.681   5.561   5.948  0.3847 -0.3321 -0.5090
  954MOL0     C28711   5.685   5.533   5.817 -0.5966 -0.9466  1.1303
  954MOL0     C28712   5.776   5.604   5.734  0.5083 -0.0717 -0.2512
  954MOL0     C28713   5.875   5.699   5.778 -0.3103 -0.5239 -0.0221
  954MOL0     O28714   5.970   5.763   5.695  0.0763  0.2833  0.2547
  954MOL0     C28715   5.899   5.835   5.596  0.0902  0.0417  0.5832
  954MOL0     C28716   5.993   5.934   5.529 -0.0661 -0.6103  0.9953
  954MOL0     C28717   6.103   5.849   5.460  0.2905 -0.1195  0.7781
  954MOL0     C28718   6.169   5.938   5.358  0.3425 -0.9442 -0.9598
  954MOL0     C28719   6.273   5.880   5.278  0.3001  0.5770 -0.5042
  954MOL0     C28720   6.359   5.807   5.219  1.2198 -0.4453 -0.0587
  954MOL0     C28721   5.878   5.718   5.916 -0.1336 -0.9098  0.0729
  954MOL0     C28722   5.777   5.655   5.998 -0.8202 -0.5593 -0.2853
  954MOL0     H28723   5.340   5.638   6.098 -1.2850  1.8356  1.2372
  954MOL0     H28724   5.137   5.622   6.213  0.8918  1.0913 -0.0857
  954MOL0     H28725   5.183   5.635   6.593  1.3061 -3.0075  0.8473
  954MOL0     H28726   5.009   5.634   6.599 -1.5430 -0.4743 -0.8967
  954MOL0     H28727   5.030   5.381   6.631 -0.5387 -0.6776  0.9007
  954MOL0     H28728   5.202   5.417   6.689 -0.9467 -1.5181 -0.1121
  954MOL0     H28729   5.099   5.581   6.835  1.4305 -1.2019 -0.8457
  954MOL0     H28730   4.935   5.528   6.790  0.4317  0.7011 -1.4935
  954MOL0     H28731   4.984   5.297   6.867 -0.5427 -0.2029  0.3118
  954MOL0     H28732   5.139   5.356   6.928  0.8495  0.9346 -1.5023
  954MOL0     H28733   4.991   5.547   7.057  2.1605 -0.2403 -0.4550
  954MOL0     H28734   4.859   5.439   7.020 -0.5621  0.0112  1.1498
  954MOL0     H28735   4.936   5.406   7.249  0.0468 -0.4952  1.1035
  954MOL0     H28736   4.933   5.265   7.147  0.8172 -0.3507  1.6347
  954MOL0     H28737   5.180   5.253   7.118 -0.2427 -0.4725  0.1330
  954MOL0     H28738   5.193   5.418   7.192 -0.7503 -0.1829  0.8869
  954MOL0     H28739   5.115   5.328   7.406  2.9994 -0.1908  2.4551
  954MOL0     H28740   5.255   5.238   7.340  0.5598  0.7361 -0.9211
  954MOL0     H28741   5.068   5.052   7.142 -1.1074  0.5368 -0.5879
  954MOL0     H28742   4.936   4.824   7.153 -2.3219 -3.8963 -0.3576
  954MOL0     H28743   4.876   4.777   7.314 -0.4534 -1.0121 -0.4477
  954MOL0     H28744   4.663   4.905   7.262  1.9498  2.3496 -0.1010
  954MOL0     H28745   4.696   4.789   7.136 -0.8818  0.9336 -1.1308
  954MOL0     H28746   4.803   4.992   7.005 -3.4795  1.4712 -3.1153
  954MOL0     H28747   4.742   5.095   7.140 -0.9225  0.8556 -0.2264
  954MOL0     H28748   4.582   4.904   6.975 -1.0987  0.3663  0.1320
  954MOL0     H28749   4.591   5.074   6.940 -2.1689 -0.5726 -1.5801
  954MOL0     H28750   4.300   5.113   7.251  1.5276 -0.2840 -0.2397
  954MOL0     H28751   3.977   5.085   7.271 -2.2624  1.5435  0.9475
  954MOL0     H28752   4.094   5.225   7.280  0.4081 -2.5585  0.8459
  954MOL0     H28753   3.984   5.220   7.144  1.4074  0.2214 -1.9702
  954MOL0     H28754   3.702   5.036   7.290  0.3319  0.5087 -0.3561
  954MOL0     H28755   3.459   4.960   7.324  1.0714  0.2260  0.5739
  954MOL0     H28756   3.219   4.766   6.965 -1.6335  0.3334  1.2267
  954MOL0     H28757   3.325   4.668   7.053  1.0387  0.2336  1.4322
  954MOL0     H28758   3.166   4.638   7.229  0.1141  1.2978  0.1474
  954MOL0     H28759   3.051   4.755   7.161 -0.6173 -0.0665  4.5539
  954MOL0     H28760   3.153   4.483   7.065 -0.0798 -0.5848  1.0836
  954MOL0     H28761   3.075   4.601   6.957 -0.1519 -0.5644  0.1457
  954MOL0     H28762   2.934   4.496   7.213  0.0214  0.3638  0.2902
  954MOL0     H28763   2.877   4.617   7.107 -0.2394 -1.5357  0.8109
  954MOL0     H28764   2.950   4.345   6.981  0.0166  0.8655  0.0288
  954MOL0     H28765   2.870   4.478   6.917  1.5882 -0.7820 -1.1240
  954MOL0     H28766   2.769   4.356   7.185  1.5713 -0.0654  0.7855
  954MOL0     H28767   2.679   4.434   7.066  2.1909  1.4755 -0.4672
  954MOL0     H28768   2.708   4.157   7.109  1.5606 -1.3926 -0.2895
  954MOL0     H28769   2.821   4.171   6.983  2.5261  4.3331  1.1729
  954MOL0     H28770   2.620   4.128   6.876  4.0168 -0.2613  0.5340
  954MOL0     H28771   2.642   4.297   6.839 -4.8217 -0.7676 -1.6874
  954MOL0     H28772   3.461   4.828   6.918 -1.0296 -0.7358  0.5097
  954MOL0     H28773   3.685   4.884   6.897 -1.0075  2.8508 -1.5300
  954MOL0     H28774   4.153   4.891   6.841 -1.0216 -1.2197  0.8332
  954MOL0     H28775   4.382   4.887   6.903  1.7060 -1.3098  2.2621
  954MOL0     H28776   5.343   5.420   6.542 -1.6102 -1.6491 -1.5725
  954MOL0     H28777   5.548   5.426   6.407  1.1314 -1.0643 -1.7464
  954MOL0     H28778   5.613   5.459   5.782 -1.5246  0.2289  0.4612
  954MOL0     H28779   5.782   5.591   5.626  0.1074  0.5561 -0.3553
  954MOL0     H28780   5.858   5.773   5.515  1.3970 -0.2919  0.1552
  954MOL0     H28781   5.820   5.892   5.645  1.4438  1.3968  1.2659
  954MOL0     H28782   6.035   5.996   5.609  2.4580 -2.2187  1.0301
  954MOL0     H28783   5.949   6.003   5.456 -0.6853 -1.9346  0.0791
  954MOL0     H28784   6.062   5.763   5.408  0.2851  0.2166  0.2156
  954MOL0     H28785   6.173   5.822   5.540 -0.5673  2.6561  2.6170
  954MOL0     H28786   6.205   6.034   5.397 -2.0394  0.5876 -2.2565
  954MOL0     H28787   6.088   5.961   5.289  1.0864  0.4015 -1.4267
  954MOL0     H28788   6.432   5.745   5.170 -0.3063 -2.5486  0.2085
  954MOL0     H28789   5.951   5.781   5.966  0.9587  0.4224 -2.9762
  954MOL0     H28790   5.794   5.677   6.103  1.0613 -0.8557 -0.4930
  955MOL0     O28791   9.368   6.180   0.403 -0.2729  0.0743 -1.3938
  955MOL0     C28792   9.406   6.267   0.328 -1.1111 -0.6214  1.1455
  955MOL0     O28793   9.342   6.381   0.291 -0.6155  0.1431  0.0926
  955MOL0     C28794   9.214   6.400   0.337 -0.1515 -0.2128 -0.5795
  955MOL0     C28795   9.192   6.463   0.461  0.3612 -0.1771 -0.4011
  955MOL0     C28796   9.063   6.478   0.505 -0.4062 -0.0122 -0.9315
  955MOL0     C28797   8.953   6.441   0.434  0.6098 -0.7829 -0.1200
  955MOL0     O28798   8.821   6.462   0.484 -0.0302 -0.3360 -0.1056
  955MOL0     C28799   8.725   6.514   0.391  0.6079  0.1948 -0.5457
  955MOL0     C28800   8.602   6.602   0.450 -0.1497 -0.3156  0.7422
  955MOL0     C28801   8.509   6.636   0.333  0.9402 -0.6376 -0.8782
  955MOL0     C28802   8.394   6.724   0.398 -0.3670  0.3203  0.4238
  955MOL0     C28803   8.280   6.758   0.305  0.3664  1.0297  1.0494
  955MOL0     C28804   8.178   6.643   0.300  0.4936 -1.0983 -0.2760
  955MOL0     C28805   8.059   6.697   0.214 -0.6587  0.3392 -0.7111
  955MOL0     C28806   7.954   6.587   0.227  0.3576 -0.1696  0.5121
  955MOL0     N28807   7.829   6.642   0.166  0.1219  0.5021 -0.2115
  955MOL0     C28808   7.758   6.567   0.076 -0.6886  0.1793  0.2134
  955MOL0     C28809   7.651   6.639   0.047  0.4319 -0.3046  0.3759
  955MOL0     C28810   7.546   6.584  -0.038  0.1024 -0.4161  0.1169
  955MOL0     C28811   7.465   6.484   0.052  0.7092  0.6440  0.0101
  955MOL0     C28812   7.361   6.423  -0.055 -0.1704  0.2665 -0.0428
  955MOL0     C28813   7.270   6.325   0.006 -0.1112  0.4628  0.4465
  955MOL0     O28814   7.189   6.382   0.110 -0.0151 -0.2882 -0.5857
  955MOL0     C28815   7.103   6.295   0.163  0.4490  0.4694 -0.2720
  955MOL0     C28816   7.009   6.334   0.259 -0.7855  0.0372 -0.4899
  955MOL0     C28817   6.892   6.256   0.294 -0.9869  0.6531  0.4641
  955MOL0     C28818   6.792   6.326   0.382  0.3070  0.0728 -0.0390
  955MOL0     C28819   6.877   6.126   0.238  0.1182  0.4234  0.7673
  955MOL0     C28820   6.738   6.054   0.234  0.0875  0.0406 -0.3754
  955MOL0     O28821   6.735   5.922   0.259 -0.5783 -0.0411 -0.1327
  955MOL0     C28822   6.615   5.854   0.246  0.7453  0.2585 -0.6941
  955MOL0     C28823   6.560   5.816   0.127  0.3896 -0.1743  0.5693
  955MOL0     C28824   6.453   5.724   0.126 -0.4558  0.4296 -0.4230
  955MOL0     C28825   6.383   5.682   0.242 -0.7528 -0.2006 -0.5265
  955MOL0     O28826   6.270   5.606   0.260  0.6281 -0.0283  0.4210
  955MOL0     C28827   6.174   5.618   0.151  1.3275  1.0431 -0.3659
  955MOL0     C28828   6.050   5.531   0.184 -0.5704 -1.1827 -0.2537
  955MOL0     C28829   6.083   5.385   0.195 -0.6201  0.5550  0.2278
  955MOL0     C28830   5.962   5.300   0.243  0.6379 -0.0374  0.8362
  955MOL0     C28831   5.857   5.288   0.125 -0.0615 -0.1563 -0.0069
  955MOL0     C28832   5.737   5.185   0.148 -0.2027 -0.0304 -0.3889
  955MOL0     C28833   5.641   5.222   0.260  0.9026  0.0081 -0.0032
  955MOL0     C28834   5.503   5.172   0.241 -0.5566 -0.7641 -0.2177
  955MOL0    Cl28835   5.486   5.012   0.164 -0.1454  0.3228  0.1869
  955MOL0     C28836   6.444   5.724   0.366  0.1899  0.1893  0.2223
  955MOL0     C28837   6.561   5.800   0.370  0.2750 -0.4429  0.4836
  955MOL0     O28838   6.638   6.120   0.241 -0.3891  0.0125 -0.1958
  955MOL0     C28839   6.979   6.079   0.160  0.2214 -0.2129 -0.0859
  955MOL0     C28840   7.085   6.162   0.122 -0.5727  0.0113 -0.4241
  955MOL0     N28841   7.657   6.759   0.113 -0.5926  0.5505 -0.6015
  955MOL0     N28842   7.766   6.763   0.179 -0.3368 -0.5941  0.7182
  955MOL0     C28843   8.979   6.377   0.307 -0.1988 -0.3819 -0.5637
  955MOL0     C28844   9.105   6.365   0.257 -0.9426  0.4782 -0.1689
  955MOL0     C28845   9.540   6.251   0.274 -0.4430 -0.2841  0.8688
  955MOL0     C28846   9.608   6.135   0.282 -0.3264 -0.1712 -0.0335
  955MOL0     C28847   9.734   6.119   0.223  0.4607  0.5116 -0.7792
  955MOL0     C28848   9.789   6.213   0.152 -0.0128 -0.8833  0.2851
  955MOL0     O28849   9.904   6.183   0.082 -0.4834 -0.0541 -0.4102
  955MOL0     C28850   9.864   6.144  -0.053 -0.1638 -0.2523  0.1326
  955MOL0     C28851   9.935   6.025  -0.109  0.0096 -0.1029  0.1359
  955MOL0     C28852  10.062   6.066  -0.186  0.2496  0.4503 -0.0082
  955MOL0     C28853  10.142   5.953  -0.246 -0.4786 -0.0846 -0.1217
  955MOL0     C28854  10.127   5.826  -0.184  0.1673 -0.4591  0.1294
  955MOL0     C28855  10.110   5.717  -0.127  0.3239 -0.2828  0.9339
  955MOL0     C28856   9.726   6.336   0.135 -0.9937  0.5776 -0.1319
  955MOL0     C28857   9.595   6.356   0.193  0.1499 -0.2800 -0.1690
  955MOL0     H28858   9.276   6.500   0.519 -0.2112 -1.3602  1.2496
  955MOL0     H28859   9.052   6.511   0.608  1.6296  1.1706 -1.0484
  955MOL0     H28860   8.778   6.590   0.332  1.8761  1.1102  1.6667
  955MOL0     H28861   8.698   6.428   0.329  2.1122  0.1542 -1.1976
  955MOL0     H28862   8.555   6.546   0.531 -0.7420 -0.4438  0.3146
  955MOL0     H28863   8.634   6.702   0.482 -2.8514  1.5413 -1.7708
  955MOL0     H28864   8.553   6.688   0.248  0.3706  1.0982 -0.1548
  955MOL0     H28865   8.473   6.539   0.298 -0.2733  1.0048 -4.5995
  955MOL0     H28866   8.342   6.674   0.480  0.8465 -0.3506  0.7961
  955MOL0     H28867   8.440   6.817   0.434  0.9835 -0.4549  0.7530
  955MOL0     H28868   8.227   6.852   0.324 -0.1933  1.2748 -1.3530
  955MOL0     H28869   8.317   6.755   0.202  0.2251 -1.0119  1.0194
  955MOL0     H28870   8.227   6.550   0.271 -1.5554 -2.2258 -0.2618
  955MOL0     H28871   8.142   6.627   0.402 -0.0262 -1.6044 -0.5370
  955MOL0     H28872   8.019   6.786   0.263  0.4068 -0.5423  1.9132
  955MOL0     H28873   8.093   6.711   0.111 -1.0816 -1.6034 -1.1541
  955MOL0     H28874   7.944   6.552   0.330 -0.0591 -1.4020  0.0732
  955MOL0     H28875   7.983   6.502   0.164 -2.1262 -0.9738  0.3438
  955MOL0     H28876   7.768   6.462   0.049  0.9333  0.7979 -1.9400
  955MOL0     H28877   7.483   6.663  -0.080 -2.0586 -1.0361  1.9699
  955MOL0     H28878   7.596   6.521  -0.112  0.7941 -3.1500  2.7482
  955MOL0     H28879   7.408   6.537   0.129  1.8781 -1.5514  2.5181
  955MOL0     H28880   7.508   6.401   0.109 -2.8502 -0.5995  1.1852
  955MOL0     H28881   7.412   6.380  -0.141  2.0265 -0.3338  1.4597
  955MOL0     H28882   7.305   6.500  -0.108 -4.5555 -1.9526  0.8494
  955MOL0     H28883   7.329   6.245   0.050 -4.9319 -5.4540 -2.3520
  955MOL0     H28884   7.216   6.273  -0.074  4.3519 -0.3690 -2.3759
  955MOL0     H28885   7.022   6.435   0.297  1.1792 -0.0194 -0.9520
  955MOL0     H28886   6.829   6.405   0.448  0.6816  0.2126 -0.4163
  955MOL0     H28887   6.711   6.371   0.325  1.7104  1.7319 -0.7775
  955MOL0     H28888   6.750   6.257   0.457 -1.2952  1.6753  0.6314
  955MOL0     H28889   6.614   5.840   0.036 -1.3521 -1.0913 -0.7872
  955MOL0     H28890   6.418   5.682   0.032  0.1309  1.3873 -1.0816
  955MOL0     H28891   6.137   5.720   0.160 -0.6574  0.4586 -1.4273
  955MOL0     H28892   6.220   5.603   0.053 -1.0339 -1.2257 -1.2587
  955MOL0     H28893   6.015   5.562   0.283  0.3522  2.4874 -0.9429
  955MOL0     H28894   5.982   5.558   0.103  0.1928 -0.9114 -0.8127
  955MOL0     H28895   6.168   5.377   0.263 -1.3187  0.0051  1.0457
  955MOL0     H28896   6.105   5.350   0.093 -1.7266  2.7497 -0.8347
  955MOL0     H28897   5.990   5.196   0.265 -2.3814 -1.2350 -0.5072
  955MOL0     H28898   5.919   5.341   0.335  0.1283 -0.6009  0.8556
  955MOL0     H28899   5.921   5.268   0.039  3.6249  3.2929  1.5874
  955MOL0     H28900   5.819   5.388   0.101  1.7244  0.7244  0.6394
  955MOL0     H28901   5.675   5.194   0.058 -0.2453  0.9435 -0.2704
  955MOL0     H28902   5.768   5.081   0.157 -4.3232 -1.4957 -1.1038
  955MOL0     H28903   5.643   5.332   0.267  3.2526  0.0247 -0.0850
  955MOL0     H28904   5.677   5.186   0.356 -2.7178 -4.5567 -0.0346
  955MOL0     H28905   5.451   5.245   0.178 -1.7617  0.3523  1.9335
  955MOL0     H28906   5.447   5.176   0.335  1.5304 -0.8303  1.1092
  955MOL0     H28907   6.406   5.697   0.464 -0.0544  0.5044  0.2178
  955MOL0     H28908   6.596   5.827   0.469  2.4332 -0.4042 -0.2288
  955MOL0     H28909   6.975   5.987   0.103 -0.5811  0.6302 -1.4548
  955MOL0     H28910   7.148   6.116   0.047  0.1279  1.7920 -0.9739
  955MOL0     H28911   8.893   6.339   0.252 -0.9027  0.6334 -0.2086
  955MOL0     H28912   9.117   6.314   0.161  1.7749  2.7000 -1.1506
  955MOL0     H28913   9.569   6.043   0.324 -2.8155  1.0378  0.4884
  955MOL0     H28914   9.791   6.026   0.222  1.5192  1.1365 -0.1139
  955MOL0     H28915   9.757   6.122  -0.058 -0.5921  0.5815  3.5082
  955MOL0     H28916   9.888   6.225  -0.123  1.1449  0.0248  0.8605
  955MOL0     H28917   9.860   5.983  -0.176 -2.2335  0.4806  2.1366
  955MOL0     H28918   9.953   5.952  -0.029  0.7503 -3.1361 -2.5536
  955MOL0     H28919  10.127   6.124  -0.119 -0.3865  2.7323 -1.2725
  955MOL0     H28920  10.049   6.138  -0.267 -4.4782 -0.2846 -0.1569
  955MOL0     H28921  10.245   5.989  -0.234 -0.3519  0.2679 -1.9616
  955MOL0     H28922  10.122   5.944  -0.353  2.4815 -0.8941 -0.7047
  955MOL0     H28923  10.066   5.622  -0.101  2.4544 -1.6429 -0.1309
  955MOL0     H28924   9.781   6.414   0.083 -0.4402 -0.1191 -0.6024
  955MOL0     H28925   9.559   6.458   0.180 -1.5925 -1.0824 -2.1726
  956MOL0     O28926   6.234   1.116  10.439  0.0482 -0.1719 -0.4470
  956MOL0     C28927   6.264   1.021  10.513  0.3729  0.6494  0.4454
  956MOL0     O28928   6.168   0.951  10.594 -0.6401 -0.1234  0.1032
  956MOL0     C28929   6.035   0.949  10.564  0.2778  0.4117  0.3464
  956MOL0     C28930   5.968   0.833  10.587  0.1157 -0.0028  0.9677
  956MOL0     C28931   5.833   0.822  10.557  0.4787  0.0081  0.3877
  956MOL0     C28932   5.755   0.933  10.503 -0.5406  0.1642 -1.0466
  956MOL0     O28933   5.619   0.923  10.486  0.3898 -0.0576 -0.2957
  956MOL0     C28934   5.538   0.821  10.540 -0.6354  0.9906 -0.7201
  956MOL0     C28935   5.496   0.710  10.439  0.2083 -0.3495  0.2251
  956MOL0     C28936   5.440   0.576  10.484  0.4660  0.1827  0.8101
  956MOL0     C28937   5.524   0.505  10.592 -0.4625 -0.2056  0.2441
  956MOL0     C28938   5.480   0.525  10.729 -0.9111 -0.6093 -0.9924
  956MOL0     C28939   5.525   0.407  10.821 -0.5121 -0.6336  0.0788
  956MOL0     C28940   5.473   0.414  10.966  0.9599 -0.0839  0.1340
  956MOL0     C28941   5.546   0.311  11.063  0.0795 -0.3087  0.4184
  956MOL0     N28942   5.503   0.165  11.055 -0.0982  0.0027 -0.5816
  956MOL0     C28943   5.524   0.075  10.959 -0.4699  0.0157  0.6749
  956MOL0     C28944   5.464  -0.039  10.995  0.4280 -0.1014 -0.5053
  956MOL0     C28945   5.469  -0.164  10.901 -0.6909 -0.3142 -0.0489
  956MOL0     C28946   5.345  -0.162  10.815  0.3158 -0.5394  0.0144
  956MOL0     C28947   5.229  -0.208  10.902 -0.6028 -0.9341 -0.6192
  956MOL0     C28948   5.117  -0.243  10.813 -0.3338  0.1492  0.5190
  956MOL0     O28949   5.025  -0.321  10.893  0.3615  0.3137  0.4461
  956MOL0     C28950   4.903  -0.349  10.840  0.1156  0.6262  0.0180
  956MOL0     C28951   4.876  -0.336  10.704 -0.0181 -0.1527  0.8223
  956MOL0     C28952   4.753  -0.360  10.648 -0.5567 -0.7995 -0.8310
  956MOL0     C28953   4.742  -0.331  10.508 -0.1520 -0.4399 -0.0045
  956MOL0     C28954   4.652  -0.405  10.731 -0.0289  0.3167  0.1139
  956MOL0     C28955   4.513  -0.431  10.680  0.6118 -0.3509 -0.3115
  956MOL0     O28956   4.416  -0.417  10.776 -0.5154 -0.1027 -0.4631
  956MOL0     C28957   4.278  -0.414  10.743 -0.5577 -0.7135 -0.0934
  956MOL0     C28958   4.207  -0.533  10.722 -1.0941  0.6245 -0.2437
  956MOL0     C28959   4.072  -0.529  10.703 -0.2436 -0.3376 -0.1722
  956MOL0     C28960   4.000  -0.402  10.693  0.4916 -0.0100  0.9967
  956MOL0     O28961   3.859  -0.386  10.688 -0.1008  0.0821  0.0409
  956MOL0     C28962   3.775  -0.499  10.692 -0.9428  0.1458 -0.2188
  956MOL0     C28963   3.628  -0.469  10.673 -0.9904  0.0691 -0.1938
  956MOL0     C28964   3.591  -0.357  10.769  0.3094 -0.1538  0.9368
  956MOL0     C28965   3.436  -0.368  10.786 -0.6926 -0.5668  0.4547
  956MOL0     C28966   3.374  -0.256  10.879 -0.3203 -0.4481 -0.8595
  956MOL0     C28967   3.227  -0.284  10.912 -0.2111 -0.2854 -0.3901
  956MOL0     C28968   3.169  -0.190  11.019 -0.9096 -0.0523  0.0265
  956MOL0     C28969   3.027  -0.150  11.014  0.8753 -0.2914 -0.4567
  956MOL0    Cl28970   2.918  -0.291  11.027 -0.1300  0.4760  0.2002
  956MOL0     C28971   4.073  -0.280  10.698  0.5972 -0.5563  0.4557
  956MOL0     C28972   4.214  -0.292  10.725 -0.2355  0.2395  0.0909
  956MOL0     O28973   4.488  -0.477  10.569 -0.3722 -0.4654 -0.6540
  956MOL0     C28974   4.686  -0.438  10.868  0.3434  0.0104  0.7059
  956MOL0     C28975   4.804  -0.399  10.922  1.5213 -1.3245 -0.5843
  956MOL0     N28976   5.402  -0.012  11.114  0.6602 -0.3236 -0.3049
  956MOL0     N28977   5.430   0.108  11.151  0.2481 -0.6786 -0.4487
  956MOL0     C28978   5.830   1.054  10.503  0.7535 -0.4508  0.6440
  956MOL0     C28979   5.962   1.067  10.540 -0.3954  0.4060  0.4748
  956MOL0     C28980   6.406   0.979  10.540 -0.0595  0.8102  0.7722
  956MOL0     C28981   6.526   1.049  10.499  0.5172  0.9413 -0.0252
  956MOL0     C28982   6.647   0.990  10.530 -0.8238  1.3974 -0.0700
  956MOL0     C28983   6.657   0.871  10.610 -0.5107  0.5976  0.5570
  956MOL0     O28984   6.778   0.832  10.660 -0.5603  0.4341  0.3086
  956MOL0     C28985   6.892   0.912  10.640  0.4470  0.2155 -0.7749
  956MOL0     C28986   6.984   0.880  10.758 -0.1514  0.8424 -0.2934
  956MOL0     C28987   7.118   0.955  10.760 -0.1901  0.3996 -0.6373
  956MOL0     C28988   7.217   0.894  10.867 -0.6537 -0.8733  0.4462
  956MOL0     C28989   7.181   0.918  11.009 -0.5403  0.2196  0.0351
  956MOL0     C28990   7.159   0.932  11.125 -0.1672  0.0849 -0.1076
  956MOL0     C28991   6.544   0.811  10.660 -0.1682  0.7059  0.3968
  956MOL0     C28992   6.420   0.864  10.623  0.0420 -0.2666  0.2850
  956MOL0     H28993   6.024   0.745  10.619  1.3279  0.0696 -0.8489
  956MOL0     H28994   5.778   0.730  10.571  1.8212 -0.9882 -0.6671
  956MOL0     H28995   5.582   0.765  10.624 -4.3513  0.4577  1.0633
  956MOL0     H28996   5.440   0.857  10.572 -1.5089  1.4478 -3.6601
  956MOL0     H28997   5.432   0.752  10.361  1.6763  1.1568 -0.2066
  956MOL0     H28998   5.585   0.681  10.382 -0.5403 -3.9520  0.6144
  956MOL0     H28999   5.341   0.594  10.526  0.0862  0.1742 -0.0652
  956MOL0     H29000   5.437   0.508  10.398  1.7646 -1.3940  1.9594
  956MOL0     H29001   5.503   0.400  10.569 -0.7537 -0.1249  0.1271
  956MOL0     H29002   5.632   0.513  10.578  0.3628 -4.5700  2.4307
  956MOL0     H29003   5.519   0.621  10.763 -0.0120 -0.0694 -3.3968
  956MOL0     H29004   5.374   0.544  10.746 -0.7550 -0.9074  0.4572
  956MOL0     H29005   5.500   0.311  10.776 -2.5072  0.0364 -0.3694
  956MOL0     H29006   5.634   0.413  10.828 -0.4273 -2.5976  0.8992
  956MOL0     H29007   5.484   0.518  10.999 -1.0389  0.1090  0.3446
  956MOL0     H29008   5.367   0.389  10.978  0.8045  0.6354  0.3485
  956MOL0     H29009   5.524   0.339  11.167  2.2725  0.6124  0.6941
  956MOL0     H29010   5.648   0.329  11.029 -1.1497 -0.4339 -3.8430
  956MOL0     H29011   5.559   0.095  10.858  1.0174  1.3161  1.4141
  956MOL0     H29012   5.557  -0.163  10.837 -1.1882 -0.0414 -0.7356
  956MOL0     H29013   5.481  -0.255  10.961  0.7226  0.3379  0.7037
  956MOL0     H29014   5.358  -0.237  10.736 -2.0350 -0.0824 -0.8832
  956MOL0     H29015   5.349  -0.059  10.778  1.7967  0.5134  2.8330
  956MOL0     H29016   5.203  -0.126  10.971  0.5253 -0.6618 -0.4996
  956MOL0     H29017   5.261  -0.296  10.958 -1.6133 -0.8673  0.0895
  956MOL0     H29018   5.152  -0.310  10.734 -0.1845  0.1243  0.6077
  956MOL0     H29019   5.058  -0.162  10.769 -1.9880 -2.1226 -1.7659
  956MOL0     H29020   4.958  -0.311  10.637  1.5730 -0.1077  2.7161
  956MOL0     H29021   4.643  -0.296  10.479  0.0373 -1.6790 -2.3978
  956MOL0     H29022   4.820  -0.263  10.472  1.4997 -1.4272  1.5455
  956MOL0     H29023   4.766  -0.420  10.449  0.4614  0.7468 -1.6103
  956MOL0     H29024   4.267  -0.623  10.713  2.9620  2.8909  1.1259
  956MOL0     H29025   4.011  -0.619  10.698 -2.1720  0.7887  1.4496
  956MOL0     H29026   3.800  -0.584  10.626 -2.4971  0.0225 -0.6785
  956MOL0     H29027   3.782  -0.542  10.792 -1.1140 -0.6502 -0.5400
  956MOL0     H29028   3.595  -0.447  10.571  1.2264 -2.6697 -1.6235
  956MOL0     H29029   3.575  -0.562  10.694  0.1242 -0.6583 -0.5501
  956MOL0     H29030   3.606  -0.258  10.726 -1.7702 -0.0412  0.3456
  956MOL0     H29031   3.648  -0.371  10.862  0.1350 -1.6683  0.8354
  956MOL0     H29032   3.391  -0.352  10.687  0.8261  1.7520  0.0423
  956MOL0     H29033   3.413  -0.468  10.824  0.9062 -0.5956  1.4254
  956MOL0     H29034   3.379  -0.153  10.842 -1.1140  1.2290  3.1535
  956MOL0     H29035   3.433  -0.251  10.971 -1.7923 -3.6620  0.3976
  956MOL0     H29036   3.181  -0.291  10.813  0.8528 -1.0696 -0.8564
  956MOL0     H29037   3.201  -0.382  10.955 -0.3829 -0.6261 -1.2509
  956MOL0     H29038   3.236  -0.104  11.012 -0.5280 -0.2615  0.9644
  956MOL0     H29039   3.199  -0.222  11.119  2.5772 -0.2072 -0.9379
  956MOL0     H29040   3.017  -0.108  10.913  0.1284  1.9107  0.4859
  956MOL0     H29041   3.004  -0.075  11.090  1.1640 -2.2960  1.6894
  956MOL0     H29042   4.021  -0.188  10.675 -2.5310 -2.4121 -0.5100
  956MOL0     H29043   4.268  -0.198  10.737 -0.2482  0.2385  0.1529
  956MOL0     H29044   4.611  -0.486  10.930 -0.9063 -0.1106 -0.8474
  956MOL0     H29045   4.823  -0.422  11.027  1.1920 -1.1714 -0.4908
  956MOL0     H29046   5.784   1.150  10.485  1.9939  0.8572  3.7609
  956MOL0     H29047   6.007   1.165  10.534  0.1098  0.1150 -0.7318
  956MOL0     H29048   6.521   1.139  10.437 -1.4237  2.4607  2.1794
  956MOL0     H29049   6.741   1.033  10.496  2.6059 -2.6247  3.2245
  956MOL0     H29050   6.942   0.900  10.543 -1.5189 -0.6112 -1.7473
  956MOL0     H29051   6.881   1.021  10.645  2.2349  0.3659  1.5912
  956MOL0     H29052   7.018   0.776  10.758  0.0982  0.8455  2.8303
  956MOL0     H29053   6.931   0.901  10.851 -1.7082  1.9807 -1.3599
  956MOL0     H29054   7.105   1.063  10.774 -1.0482  0.3187 -0.7743
  956MOL0     H29055   7.167   0.929  10.666 -0.6190 -1.0017 -0.4951
  956MOL0     H29056   7.307   0.950  10.840  1.3110 -3.2950  1.6483
  956MOL0     H29057   7.233   0.787  10.855 -1.4602 -1.3422  2.8383
  956MOL0     H29058   7.117   0.941  11.223  1.1199 -0.6736  0.5306
  956MOL0     H29059   6.551   0.724  10.724  0.5317  1.1450  0.9311
  956MOL0     H29060   6.343   0.809  10.677  0.3703 -1.4947 -0.4401
  957MOL0     O29061   9.266   0.861   4.581 -0.3584  0.3751  0.3280
  957MOL0     C29062   9.364   0.876   4.649 -0.3621  0.0199  0.5933
  957MOL0     O29063   9.364   0.911   4.780  0.2775  0.1253 -0.4227
  957MOL0     C29064   9.230   0.899   4.835  0.2099  0.0573 -0.6887
  957MOL0     C29065   9.140   0.796   4.840  0.3385  0.3519 -0.0036
  957MOL0     C29066   9.012   0.820   4.905  1.1550  0.3104 -0.5511
  957MOL0     C29067   8.982   0.929   4.981  0.9837 -1.1993 -0.8089
  957MOL0     O29068   8.867   0.933   5.055 -0.2700 -0.1292 -0.2905
  957MOL0     C29069   8.815   1.060   5.108 -0.2961 -0.1422 -0.0178
  957MOL0     C29070   8.685   1.023   5.172  0.0667 -0.4089  0.2588
  957MOL0     C29071   8.574   0.981   5.076 -0.3636 -0.1721  0.4553
  957MOL0     C29072   8.446   0.939   5.152  0.5428 -0.5622  0.3602
  957MOL0     C29073   8.325   0.908   5.060 -1.1410  0.7155  0.3595
  957MOL0     C29074   8.202   0.852   5.147 -1.1417 -0.5262  0.1544
  957MOL0     C29075   8.081   0.830   5.057 -0.1645  0.0927 -0.1184
  957MOL0     C29076   7.959   0.785   5.136  0.8765 -0.4831 -0.1133
  957MOL0     N29077   7.833   0.794   5.052 -0.4020 -1.2293 -0.5344
  957MOL0     C29078   7.770   0.684   4.994  0.2082 -1.1465  0.2963
  957MOL0     C29079   7.648   0.732   4.946 -0.7056 -0.0896  0.3260
  957MOL0     C29080   7.541   0.650   4.871  0.5540  0.2395 -0.5357
  957MOL0     C29081   7.455   0.750   4.797  0.3634  0.0253 -0.1387
  957MOL0     C29082   7.319   0.696   4.738 -0.0143 -0.6562 -0.6776
  957MOL0     C29083   7.215   0.803   4.707  0.3572 -0.1735  0.2764
  957MOL0     O29084   7.255   0.853   4.573  0.7852  0.1279  0.2039
  957MOL0     C29085   7.162   0.823   4.474 -0.5934 -0.3641  0.3531
  957MOL0     C29086   7.166   0.906   4.360  0.2639 -0.0205  0.3786
  957MOL0     C29087   7.088   0.882   4.247  0.9348 -0.0319  0.2429
  957MOL0     C29088   7.114   0.974   4.123 -0.5386  0.2776  0.3093
  957MOL0     C29089   7.002   0.774   4.250  0.2163  0.4633  0.3007
  957MOL0     C29090   6.894   0.741   4.151 -0.2880  0.0452  0.6529
  957MOL0     O29091   6.821   0.620   4.156  0.3381  0.3525 -0.3257
  957MOL0     C29092   6.698   0.608   4.105  0.7335  0.5129  0.3011
  957MOL0     C29093   6.589   0.696   4.135 -1.0361  0.4441 -1.0705
  957MOL0     C29094   6.458   0.665   4.096  0.8119 -1.0118 -0.5181
  957MOL0     C29095   6.436   0.553   4.017  0.3254 -0.5990  0.1288
  957MOL0     O29096   6.298   0.523   4.007  0.2260  0.6861 -0.9050
  957MOL0     C29097   6.247   0.497   3.881 -0.6945  0.1399  0.0536
  957MOL0     C29098   6.127   0.576   3.862  0.1930 -0.5604  0.6348
  957MOL0     C29099   6.022   0.494   3.929 -1.1014 -0.4067 -0.2297
  957MOL0     C29100   5.885   0.563   3.929 -1.1971 -0.2697  0.4393
  957MOL0     C29101   5.763   0.490   3.979  0.7278  0.1608 -0.1391
  957MOL0     C29102   5.703   0.396   3.870 -0.4140  0.4459 -0.0532
  957MOL0     C29103   5.590   0.310   3.928 -0.5332  0.4594  0.1868
  957MOL0     C29104   5.527   0.210   3.830 -0.3186 -0.4661  0.1109
  957MOL0    Cl29105   5.449   0.303   3.716  0.4348 -0.4587  0.2988
  957MOL0     C29106   6.535   0.472   3.982 -0.1033 -0.2585 -0.2591
  957MOL0     C29107   6.672   0.497   4.015 -0.7350  0.3175  0.0829
  957MOL0     O29108   6.860   0.838   4.092  0.3149 -0.4499 -0.3064
  957MOL0     C29109   7.005   0.680   4.355  0.3724 -0.1904 -0.5859
  957MOL0     C29110   7.080   0.714   4.464 -0.8301 -0.1712  0.2246
  957MOL0     N29111   7.650   0.867   4.978  0.1459  0.4654 -0.4489
  957MOL0     N29112   7.756   0.903   5.035 -0.5676  0.1603  0.2792
  957MOL0     C29113   9.079   1.037   4.972  0.9429  0.8662 -0.6660
  957MOL0     C29114   9.200   1.014   4.910  0.5247 -0.3346  0.1614
  957MOL0     C29115   9.499   0.860   4.579  0.2936  0.1676  0.3181
  957MOL0     C29116   9.619   0.901   4.641  0.4807 -0.1965  0.9682
  957MOL0     C29117   9.736   0.917   4.578  0.1425 -0.4767  0.1456
  957MOL0     C29118   9.744   0.901   4.442 -0.2481  1.1511 -0.3890
  957MOL0     O29119   9.855   0.925   4.370  0.2796  0.0865 -0.7233
  957MOL0     C29120   9.995   0.916   4.424  0.0812  0.3745  0.4463
  957MOL0     C29121  10.035   0.771   4.455 -0.5386 -0.1460 -0.0901
  957MOL0     C29122  10.077   0.704   4.331  0.4561  0.7350  1.2302
  957MOL0     C29123  10.153   0.574   4.364  0.1800  0.2570  0.3666
  957MOL0     C29124  10.074   0.476   4.438  0.3313 -0.4765 -0.5675
  957MOL0     C29125  10.016   0.408   4.520  0.0690  0.3917 -0.0671
  957MOL0     C29126   9.624   0.859   4.378  0.8496  0.3082 -0.2097
  957MOL0     C29127   9.501   0.832   4.441  0.0356  0.0844 -0.2253
  957MOL0     H29128   9.148   0.699   4.793 -1.7430  0.8292 -1.5081
  957MOL0     H29129   8.935   0.744   4.902 -0.6544  1.3135  5.7131
  957MOL0     H29130   8.882   1.107   5.181 -0.6856  1.2658 -0.5284
  957MOL0     H29131   8.785   1.132   5.032  1.2252  1.1584  0.5579
  957MOL0     H29132   8.697   0.940   5.242  1.4558 -0.5679 -0.1416
  957MOL0     H29133   8.652   1.114   5.223 -2.1848 -2.0896  2.0108
  957MOL0     H29134   8.560   1.057   4.999  1.3730  0.6063  0.8692
  957MOL0     H29135   8.613   0.889   5.032  0.2862 -1.0363  2.6798
  957MOL0     H29136   8.473   0.859   5.222  3.9231  2.7553  3.2292
  957MOL0     H29137   8.422   1.018   5.223  2.3791  1.9639 -1.6463
  957MOL0     H29138   8.302   1.001   5.006 -1.4511 -1.0230 -2.7293
  957MOL0     H29139   8.355   0.827   4.993  1.6344  1.1081  0.9785
  957MOL0     H29140   8.227   0.763   5.205 -4.5844  0.3261  3.3266
  957MOL0     H29141   8.174   0.931   5.218  0.1730 -0.2724  0.4249
  957MOL0     H29142   8.054   0.930   5.021  0.6916 -0.2279 -1.7359
  957MOL0     H29143   8.101   0.756   4.979  3.3774  1.2550 -0.5238
  957MOL0     H29144   7.956   0.853   5.222 -0.1271  1.5579 -1.6796
  957MOL0     H29145   7.965   0.680   5.167 -0.6828 -1.5750 -3.1685
  957MOL0     H29146   7.810   0.584   5.005  0.5544 -1.0129  0.2645
  957MOL0     H29147   7.583   0.579   4.800  0.2066 -0.1423 -0.3619
  957MOL0     H29148   7.480   0.599   4.946  0.7999  0.9893  0.1961
  957MOL0     H29149   7.511   0.793   4.714 -1.6229  0.5088 -1.2870
  957MOL0     H29150   7.424   0.833   4.861  0.6763  0.5284 -0.6306
  957MOL0     H29151   7.275   0.627   4.810  2.4743  0.9231  2.6504
  957MOL0     H29152   7.343   0.646   4.644  2.3568  4.3000 -3.0992
  957MOL0     H29153   7.228   0.886   4.777 -1.2740 -1.6338  2.4201
  957MOL0     H29154   7.114   0.763   4.717  0.3605 -0.1533  0.3886
  957MOL0     H29155   7.252   0.969   4.345  0.1495 -0.3055 -1.6368
  957MOL0     H29156   7.218   1.008   4.126  0.1345 -1.4345 -1.2424
  957MOL0     H29157   7.105   0.924   4.026 -1.4224  2.1380 -0.6303
  957MOL0     H29158   7.047   1.060   4.109 -2.0664 -0.8314  0.5809
  957MOL0     H29159   6.612   0.779   4.200  0.7545 -0.8324  0.0201
  957MOL0     H29160   6.377   0.736   4.105  2.7511  1.2031  0.5295
  957MOL0     H29161   6.333   0.518   3.816  1.0160 -1.1070  1.8114
  957MOL0     H29162   6.232   0.391   3.858  0.5220  0.3245 -1.8235
  957MOL0     H29163   6.134   0.681   3.890  0.9392  0.0977 -1.7349
  957MOL0     H29164   6.110   0.582   3.754  1.0242  2.5609  0.5916
  957MOL0     H29165   6.048   0.479   4.035  0.7187  0.0308 -0.5756
  957MOL0     H29166   6.016   0.393   3.888  1.8228 -1.0950  0.7424
  957MOL0     H29167   5.892   0.645   4.000 -0.9862 -1.1610  1.4775
  957MOL0     H29168   5.855   0.619   3.839 -0.4788  1.3962  1.1983
  957MOL0     H29169   5.684   0.564   3.994  1.6804  1.1784  0.0389
  957MOL0     H29170   5.771   0.432   4.071 -0.0658 -0.6464 -0.5675
  957MOL0     H29171   5.673   0.459   3.786  2.4156  1.5913 -0.3015
  957MOL0     H29172   5.777   0.329   3.825  1.7982  2.1470  0.8601
  957MOL0     H29173   5.509   0.371   3.967 -0.3512  1.4369 -0.9154
  957MOL0     H29174   5.628   0.252   4.013  0.5509  4.1232  2.3907
  957MOL0     H29175   5.452   0.143   3.872 -1.3448 -0.9296 -2.2821
  957MOL0     H29176   5.608   0.155   3.781 -1.4155 -2.0703  0.0585
  957MOL0     H29177   6.523   0.377   3.931  1.3748 -1.6478  1.7962
  957MOL0     H29178   6.748   0.430   3.974 -1.2172  0.6315 -1.3946
  957MOL0     H29179   6.946   0.589   4.353 -0.2347  0.2049 -1.6445
  957MOL0     H29180   7.070   0.653   4.553 -0.7601 -1.3393 -0.5538
  957MOL0     H29181   9.062   1.136   5.013  0.8218  0.1340  1.1342
  957MOL0     H29182   9.276   1.090   4.894 -0.8770  0.6423 -2.4377
  957MOL0     H29183   9.615   0.915   4.749 -0.3374 -0.0888  0.9340
  957MOL0     H29184   9.820   0.964   4.628  0.5388  0.6650 -1.4752
  957MOL0     H29185  10.066   0.961   4.354 -1.6485  0.9073 -1.0328
  957MOL0     H29186   9.999   0.972   4.518 -3.6633  1.3275  0.1927
  957MOL0     H29187   9.960   0.724   4.519 -0.2636 -0.1084  0.2630
  957MOL0     H29188  10.130   0.784   4.508 -1.5671 -1.6363  2.3311
  957MOL0     H29189  10.146   0.764   4.272 -1.0947  3.0042  1.6050
  957MOL0     H29190   9.982   0.684   4.280  1.1113 -0.7227  0.5142
  957MOL0     H29191  10.250   0.585   4.413  1.0279  0.5693 -1.3094
  957MOL0     H29192  10.177   0.531   4.266  0.5475 -2.9176  1.7169
  957MOL0     H29193   9.972   0.363   4.607 -3.2290  0.2443 -1.6733
  957MOL0     H29194   9.616   0.860   4.270  3.8476  2.1614 -0.5256
  957MOL0     H29195   9.410   0.816   4.383 -1.7241  0.3244  2.2941
  958MOL0     O29196   5.096   7.326   0.957  0.0601 -0.6040  0.0378
  958MOL0     C29197   5.099   7.274   1.068 -0.1544  0.3345 -0.3388
  958MOL0     O29198   5.032   7.319   1.173  0.1982 -0.3839 -0.5273
  958MOL0     C29199   4.941   7.421   1.161 -0.7841  0.9940 -0.9295
  958MOL0     C29200   4.971   7.553   1.113 -0.7756  0.7558  1.1883
  958MOL0     C29201   4.879   7.656   1.115 -0.7844  0.4122  0.8081
  958MOL0     C29202   4.751   7.642   1.173  0.4859 -0.2717 -0.0412
  958MOL0     O29203   4.651   7.737   1.185  0.0423 -0.2131 -0.4913
  958MOL0     C29204   4.696   7.880   1.190  0.8661  0.4994  0.3200
  958MOL0     C29205   4.634   7.960   1.302  0.8555  0.0972  0.1935
  958MOL0     C29206   4.485   7.977   1.280  0.4084  0.2639  0.7376
  958MOL0     C29207   4.436   8.071   1.392  0.3227 -0.3994  0.7295
  958MOL0     C29208   4.288   8.100   1.369 -0.1294 -0.5537  0.3927
  958MOL0     C29209   4.234   8.146   1.503  0.2485  0.2583  0.3461
  958MOL0     C29210   4.085   8.132   1.497  0.3604 -0.4655  0.5366
  958MOL0     C29211   4.020   8.167   1.627  0.3446 -0.3717  0.1380
  958MOL0     N29212   4.062   8.069   1.731 -0.1749  0.2944  0.6930
  958MOL0     C29213   4.158   8.085   1.829  0.1487  0.1435  0.1443
  958MOL0     C29214   4.129   7.981   1.910  1.2045 -0.0528 -0.0888
  958MOL0     C29215   4.175   7.949   2.047 -0.1603  0.1799 -0.1794
  958MOL0     C29216   4.134   8.039   2.157 -0.9800  0.9399 -0.1534
  958MOL0     C29217   3.981   8.041   2.174  0.5497  0.5817 -0.1757
  958MOL0     C29218   3.923   7.907   2.207  0.5622 -0.0848  0.0100
  958MOL0     O29219   3.803   7.926   2.290  1.0297  0.4114  0.0910
  958MOL0     C29220   3.688   7.930   2.216 -0.1978 -0.2845 -0.1067
  958MOL0     C29221   3.664   7.920   2.078  0.3425  0.4161 -0.1730
  958MOL0     C29222   3.538   7.932   2.027  0.3148  0.9228  0.5942
  958MOL0     C29223   3.516   7.944   1.872 -0.5095  1.1226 -0.4616
  958MOL0     C29224   3.425   7.952   2.112  0.2944  0.3905  0.1407
  958MOL0     C29225   3.291   7.984   2.067 -0.3933 -0.3948  0.0134
  958MOL0     O29226   3.193   7.983   2.167 -0.3534 -0.2399 -0.0332
  958MOL0     C29227   3.069   8.035   2.138 -0.0850  0.3853 -0.6364
  958MOL0     C29228   2.978   7.960   2.061 -0.6290  0.0733  0.9328
  958MOL0     C29229   2.842   8.012   2.037 -0.3710 -1.0849  0.5248
  958MOL0     C29230   2.800   8.134   2.099 -0.6724 -0.2045 -0.3757
  958MOL0     O29231   2.665   8.163   2.088 -0.1684 -0.6690  0.3468
  958MOL0     C29232   2.614   8.275   2.167  0.4764 -0.3093 -0.1130
  958MOL0     C29233   2.471   8.315   2.125 -0.6069  0.2264 -0.3234
  958MOL0     C29234   2.382   8.193   2.097 -0.3494  0.8957  0.2452
  958MOL0     C29235   2.241   8.232   2.067  0.2568  0.2304  0.1680
  958MOL0     C29236   2.157   8.106   2.038  0.2902 -1.0068  0.8045
  958MOL0     C29237   2.058   8.112   1.923 -0.4320 -0.2377 -0.4314
  958MOL0     C29238   1.956   8.001   1.914  0.2078  0.2081  0.0317
  958MOL0     C29239   1.846   8.052   1.816 -0.0040  0.3659 -0.0769
  958MOL0    Cl29240   1.742   7.916   1.769 -0.2284  0.1248 -0.6616
  958MOL0     C29241   2.895   8.206   2.175 -0.9955 -0.4343 -0.7905
  958MOL0     C29242   3.024   8.155   2.193 -0.0563 -1.2087 -0.3305
  958MOL0     O29243   3.276   8.030   1.953  0.6970  0.1318  0.6264
  958MOL0     C29244   3.449   7.949   2.252  0.4365  0.6788  1.1486
  958MOL0     C29245   3.581   7.950   2.307  0.9387  0.8624  0.9579
  958MOL0     N29246   4.019   7.912   1.869  0.4238  0.2329  0.6739
  958MOL0     N29247   3.974   7.961   1.757  1.0338  0.4939 -0.3640
  958MOL0     C29248   4.720   7.515   1.225  0.9399 -0.4283 -0.4221
  958MOL0     C29249   4.813   7.411   1.218  0.6193  0.4847  0.1252
  958MOL0     C29250   5.195   7.168   1.087 -0.0570 -0.2922  0.7027
  958MOL0     C29251   5.194   7.102   1.204  0.0881  0.9772  0.1169
  958MOL0     C29252   5.281   6.992   1.221 -0.6655  0.1351 -0.5594
  958MOL0     C29253   5.370   6.955   1.120 -0.8250  0.3300 -0.6103
  958MOL0     O29254   5.467   6.865   1.151  0.1090  0.6494  0.1957
  958MOL0     C29255   5.596   6.882   1.080 -0.9932 -0.0946  0.1931
  958MOL0     C29256   5.690   6.772   1.142 -0.0776 -0.5523 -0.9222
  958MOL0     C29257   5.833   6.788   1.111  0.2363  0.2327 -0.2126
  958MOL0     C29258   5.912   6.667   1.160 -0.1002  0.2517  0.1053
  958MOL0     C29259   6.060   6.670   1.126  0.4221  0.3044  0.6986
  958MOL0     C29260   6.180   6.668   1.099 -0.1505  0.1572  0.0877
  958MOL0     C29261   5.367   7.024   1.000 -0.8038 -1.1706 -0.4612
  958MOL0     C29262   5.285   7.135   0.982 -0.4796  0.5186 -0.2283
  958MOL0     H29263   5.076   7.579   1.107 -0.9697  2.6433  3.9332
  958MOL0     H29264   4.916   7.749   1.073  0.4083  0.0354  1.0040
  958MOL0     H29265   4.804   7.895   1.194  1.0733  0.5182 -2.9709
  958MOL0     H29266   4.672   7.927   1.094  2.0175  1.9756  0.7210
  958MOL0     H29267   4.650   7.900   1.392  1.6443 -0.0366 -0.0335
  958MOL0     H29268   4.672   8.062   1.310  2.7142 -0.5875  0.4496
  958MOL0     H29269   4.474   8.029   1.185 -0.3692 -1.1606  0.0102
  958MOL0     H29270   4.437   7.879   1.271  3.7001 -1.5504  1.1633
  958MOL0     H29271   4.464   8.028   1.489  2.5867 -1.4745 -0.3093
  958MOL0     H29272   4.488   8.167   1.383 -0.3633 -0.2293 -2.2125
  958MOL0     H29273   4.262   8.172   1.291 -1.4696 -3.1624 -1.7191
  958MOL0     H29274   4.231   8.009   1.346 -0.9271 -0.1171  0.5825
  958MOL0     H29275   4.271   8.081   1.583  3.8284  0.6482 -0.8431
  958MOL0     H29276   4.254   8.251   1.528  1.6029 -0.5385  3.0948
  958MOL0     H29277   4.040   8.196   1.420  1.4389  0.2014  0.4443
  958MOL0     H29278   4.054   8.029   1.475  1.0463 -0.2721 -1.5597
  958MOL0     H29279   3.911   8.165   1.620  0.3734  0.5340 -0.6714
  958MOL0     H29280   4.053   8.265   1.661  2.0933 -1.3763  1.5481
  958MOL0     H29281   4.230   8.165   1.845  0.4220  0.1776 -1.0884
  958MOL0     H29282   4.131   7.852   2.074  0.1656  0.4274  1.3274
  958MOL0     H29283   4.280   7.919   2.057 -0.1494  0.2644 -0.0469
  958MOL0     H29284   4.176   8.139   2.144 -0.8652  0.7704 -1.2084
  958MOL0     H29285   4.172   7.990   2.247 -1.1305 -1.8486 -1.5191
  958MOL0     H29286   3.928   8.081   2.087  0.9604  0.2718 -0.5752
  958MOL0     H29287   3.964   8.111   2.256  0.9309  1.1223 -0.5526
  958MOL0     H29288   3.994   7.853   2.270 -0.0148 -0.6978  0.1394
  958MOL0     H29289   3.898   7.853   2.115  1.3913 -2.0725  0.8931
  958MOL0     H29290   3.742   7.889   2.010 -1.0076 -0.0677 -1.5551
  958MOL0     H29291   3.489   8.042   1.832 -0.8170 -0.4258 -4.5428
  958MOL0     H29292   3.609   7.924   1.818  1.0077 -0.0486  2.3803
  958MOL0     H29293   3.437   7.876   1.837  0.6927 -0.9229  0.5820
  958MOL0     H29294   3.010   7.866   2.017 -0.1970 -0.0729  1.5464
  958MOL0     H29295   2.774   7.966   1.965 -0.2197  2.3553 -2.0645
  958MOL0     H29296   2.619   8.233   2.268  2.3874 -0.4426 -0.2353
  958MOL0     H29297   2.683   8.360   2.164 -0.4862  0.5355  0.6685
  958MOL0     H29298   2.425   8.368   2.209 -0.7071  0.8107 -0.7394
  958MOL0     H29299   2.467   8.378   2.036  1.0392  0.2506 -0.4099
  958MOL0     H29300   2.383   8.129   2.185 -3.4442 -1.1960 -1.0579
  958MOL0     H29301   2.425   8.144   2.008 -1.9297 -0.5889  0.2439
  958MOL0     H29302   2.199   8.296   2.145  0.2804  1.8812 -1.1438
  958MOL0     H29303   2.236   8.286   1.973  1.1388 -0.7663 -0.4811
  958MOL0     H29304   2.094   8.074   2.122 -1.2410 -1.6128 -0.5259
  958MOL0     H29305   2.218   8.015   2.035 -1.1653 -2.0018 -0.2992
  958MOL0     H29306   2.004   8.207   1.936  0.8168  0.3581  0.5942
  958MOL0     H29307   2.113   8.112   1.829  0.3389 -0.5475  0.0083
  958MOL0     H29308   1.910   7.980   2.011 -0.8591 -1.2065 -0.7238
  958MOL0     H29309   1.999   7.904   1.887 -2.0196 -1.1812  1.1126
  958MOL0     H29310   1.895   8.090   1.725  1.0343  1.7594  1.0228
  958MOL0     H29311   1.781   8.129   1.859  1.5865  2.4667 -1.2226
  958MOL0     H29312   2.877   8.306   2.213  0.6708  0.0979 -1.3366
  958MOL0     H29313   3.090   8.212   2.257  1.7502 -1.2408 -2.0398
  958MOL0     H29314   3.373   7.986   2.321  1.2804  2.9337  0.9451
  958MOL0     H29315   3.588   7.957   2.415 -2.3582 -1.2143  1.4308
  958MOL0     H29316   4.615   7.512   1.250 -0.1675  2.7903 -3.8162
  958MOL0     H29317   4.791   7.315   1.264 -0.3458  0.4897 -0.2938
  958MOL0     H29318   5.123   7.122   1.284 -1.5217  3.7264 -1.8109
  958MOL0     H29319   5.282   6.932   1.312 -0.2267 -0.8326 -1.1775
  958MOL0     H29320   5.591   6.857   0.974  1.9052 -0.0692 -0.0265
  958MOL0     H29321   5.643   6.980   1.092  2.9218 -1.9097  1.1825
  958MOL0     H29322   5.647   6.674   1.122 -0.1441 -0.5722 -0.6850
  958MOL0     H29323   5.688   6.789   1.250  0.6933  0.9930 -1.1269
  958MOL0     H29324   5.870   6.872   1.169  0.5428  0.7689 -1.1702
  958MOL0     H29325   5.836   6.807   1.004  0.8797 -0.9135 -0.4133
  958MOL0     H29326   5.878   6.578   1.107 -0.2500  0.3038  0.1122
  958MOL0     H29327   5.899   6.643   1.266  1.6440  1.3658  0.6272
  958MOL0     H29328   6.280   6.689   1.067  0.4616  1.2861  2.5535
  958MOL0     H29329   5.442   6.997   0.927  0.0010 -1.7430  0.5363
  958MOL0     H29330   5.304   7.207   0.903 -3.9151 -1.0620 -2.7441
  959MOL0     O29331   6.947   7.889   9.771  1.4273 -0.5296  0.3012
  959MOL0     C29332   6.878   7.901   9.667 -0.2115  0.2783 -0.6221
  959MOL0     O29333   6.742   7.868   9.662  0.3261  0.1500 -0.2250
  959MOL0     C29334   6.670   7.834   9.779 -0.4319  0.6771 -1.0548
  959MOL0     C29335   6.578   7.736   9.768  0.1882 -0.5135  0.3057
  959MOL0     C29336   6.483   7.720   9.875 -0.4501  0.6264 -0.4924
  959MOL0     C29337   6.486   7.798   9.992 -0.4235  0.8097 -0.3311
  959MOL0     O29338   6.381   7.798  10.081 -0.4529  0.5485  0.2851
  959MOL0     C29339   6.268   7.867  10.041  0.9565 -0.2734 -0.5162
  959MOL0     C29340   6.158   7.839  10.148 -0.2675 -0.1829  0.1214
  959MOL0     C29341   6.034   7.902  10.096  0.0512 -0.5452  0.2297
  959MOL0     C29342   5.922   7.893  10.205  0.2007  0.1561  0.3969
  959MOL0     C29343   5.788   7.953  10.157 -0.3218 -0.1873  0.5034
  959MOL0     C29344   5.681   7.922  10.266  0.4162 -0.6372  0.8367
  959MOL0     C29345   5.537   7.960  10.211 -0.7653 -0.0049  0.5201
  959MOL0     C29346   5.411   7.916  10.282  0.5405 -0.5466 -0.2858
  959MOL0     N29347   5.397   7.783  10.346 -0.6106  0.1123  0.3976
  959MOL0     C29348   5.477   7.668  10.329 -0.3542 -0.6741  0.3036
  959MOL0     C29349   5.422   7.566  10.408 -0.3197 -0.0433  0.0013
  959MOL0     C29350   5.461   7.423  10.422 -1.3480 -0.2804 -1.5231
  959MOL0     C29351   5.589   7.416  10.513  0.5494  0.7369  0.6403
  959MOL0     C29352   5.641   7.276  10.552 -0.1362 -0.4764  0.1936
  959MOL0     C29353   5.793   7.270  10.585 -0.0432  0.3897  0.3636
  959MOL0     O29354   5.860   7.258  10.460 -0.5436 -0.0886  0.1808
  959MOL0     C29355   5.996   7.271  10.468  0.5742  0.1902 -0.4079
  959MOL0     C29356   6.054   7.248  10.344  0.3039  0.4991 -0.0376
  959MOL0     C29357   6.193   7.259  10.320 -1.0476  0.1421  0.0433
  959MOL0     C29358   6.241   7.216  10.193  0.1569  0.2434  1.0736
  959MOL0     C29359   6.280   7.294  10.420  0.4006 -0.1742 -0.0856
  959MOL0     C29360   6.422   7.326  10.399  0.1209 -0.0332  0.3350
  959MOL0     O29361   6.468   7.351  10.276 -0.0481  0.0285  0.6717
  959MOL0     C29362   6.597   7.405  10.245  0.3106 -0.0108  0.0167
  959MOL0     C29363   6.609   7.511  10.150  0.1473  1.2018 -1.1265
  959MOL0     C29364   6.725   7.591  10.144  0.1755 -0.0802  0.8075
  959MOL0     C29365   6.835   7.550  10.213  0.4381 -0.2403  0.1739
  959MOL0     O29366   6.959   7.613  10.204 -0.8627 -0.3456  0.0447
  959MOL0     C29367   6.993   7.680  10.083 -0.4292 -0.4253 -0.1171
  959MOL0     C29368   7.123   7.737  10.118  0.4825 -0.3952 -0.8136
  959MOL0     C29369   7.251   7.643  10.138  0.4541 -0.4412  0.2356
  959MOL0     C29370   7.381   7.721  10.139 -0.2884  0.6155 -0.6929
  959MOL0     C29371   7.505   7.630  10.117 -0.3377  0.1653  0.0771
  959MOL0     C29372   7.509   7.522  10.220 -1.5891  0.2015 -0.4199
  959MOL0     C29373   7.636   7.423  10.197  0.1678 -0.6665  0.6988
  959MOL0     C29374   7.612   7.281  10.239  0.0522  0.7422  1.0187
  959MOL0    Cl29375   7.574   7.271  10.411  0.6377  0.3091 -0.2322
  959MOL0     C29376   6.822   7.442  10.303 -0.0901 -0.5264 -0.3874
  959MOL0     C29377   6.709   7.373  10.324  0.2168 -0.3131  0.3345
  959MOL0     O29378   6.481   7.329  10.505 -0.3030  0.2114 -0.6746
  959MOL0     C29379   6.216   7.315  10.548 -0.1109 -0.2955 -0.5682
  959MOL0     C29380   6.081   7.305  10.570  0.2195 -0.2413 -0.6923
  959MOL0     N29381   5.319   7.633  10.483 -0.2744  0.5386  0.4072
  959MOL0     N29382   5.302   7.756  10.441 -0.0045 -0.7135  0.2621
  959MOL0     C29383   6.586   7.894  10.002 -0.4193 -0.1748  0.9209
  959MOL0     C29384   6.675   7.918   9.895  0.3560  1.0467  1.1969
  959MOL0     C29385   6.957   7.925   9.550 -0.6824  0.2540  1.4023
  959MOL0     C29386   7.089   7.972   9.564 -0.3399  0.0423  0.1328
  959MOL0     C29387   7.164   8.012   9.452  0.4925  0.4413 -0.1683
  959MOL0     C29388   7.113   7.993   9.322  0.6864  0.2284  0.2360
  959MOL0     O29389   7.191   8.016   9.216  0.6601 -0.6653 -0.2468
  959MOL0     C29390   7.323   7.984   9.213 -0.3973  0.2973  0.1966
  959MOL0     C29391   7.393   7.979   9.075  0.2373  0.2234  0.4256
  959MOL0     C29392   7.310   7.873   8.997 -0.7458 -0.8239  0.6764
  959MOL0     C29393   7.375   7.813   8.864  0.2946  0.2472 -0.7012
  959MOL0     C29394   7.465   7.913   8.796  0.5829 -1.1301  0.3639
  959MOL0     C29395   7.536   7.987   8.733  0.0531  0.6631 -0.5691
  959MOL0     C29396   6.980   7.936   9.308 -0.2000 -0.1658 -0.0661
  959MOL0     C29397   6.903   7.911   9.420 -0.4910  0.7031 -0.4961
  959MOL0     H29398   6.572   7.689   9.670 -1.2075  0.2377  0.0133
  959MOL0     H29399   6.401   7.649   9.870 -0.1455  0.1282  0.9650
  959MOL0     H29400   6.285   7.974  10.032 -2.4532  0.6423  1.7993
  959MOL0     H29401   6.231   7.821   9.948  0.2011 -1.5166  0.3586
  959MOL0     H29402   6.155   7.734  10.179  2.9393  0.6448  4.1544
  959MOL0     H29403   6.176   7.897  10.239 -1.6008  3.3603 -1.6909
  959MOL0     H29404   6.058   8.009  10.088 -3.4138  0.4741  1.6455
  959MOL0     H29405   5.993   7.847  10.010 -2.1074  0.6795  0.3964
  959MOL0     H29406   5.914   7.785  10.216  1.2455  0.1780  1.6137
  959MOL0     H29407   5.946   7.933  10.304 -0.7969 -0.7268  1.0206
  959MOL0     H29408   5.800   8.059  10.135  1.9190  0.0658  2.4421
  959MOL0     H29409   5.765   7.906  10.061  2.5301  2.1491 -1.5058
  959MOL0     H29410   5.688   7.814  10.275 -1.8916 -0.9453 -0.4586
  959MOL0     H29411   5.700   7.974  10.361  1.2104  1.0755 -0.1992
  959MOL0     H29412   5.528   8.066  10.186  0.0038  0.0496  0.4544
  959MOL0     H29413   5.540   7.913  10.113  4.0613  1.1912 -0.1564
  959MOL0     H29414   5.328   7.905  10.213 -2.0029  1.8290  2.1277
  959MOL0     H29415   5.386   8.000  10.348  1.7105 -0.4877  0.1237
  959MOL0     H29416   5.551   7.652  10.251 -0.1343 -0.0682  0.3794
  959MOL0     H29417   5.384   7.357  10.464 -0.2517 -1.0342 -0.6361
  959MOL0     H29418   5.493   7.402  10.319  2.5415  0.1336 -0.5652
  959MOL0     H29419   5.554   7.456  10.609  1.6687 -1.3965  2.0240
  959MOL0     H29420   5.671   7.477  10.474  1.0129 -0.6968 -0.7099
  959MOL0     H29421   5.622   7.201  10.475  2.1120 -1.2996  0.3885
  959MOL0     H29422   5.588   7.255  10.645 -0.0645  3.3658  1.2873
  959MOL0     H29423   5.821   7.185  10.648  1.9452  2.2098  2.1053
  959MOL0     H29424   5.832   7.351  10.647  1.6242  0.9821 -1.3702
  959MOL0     H29425   5.997   7.228  10.254  0.0807  0.4444  0.1171
  959MOL0     H29426   6.336   7.163  10.202 -1.4213 -3.3656 -0.9963
  959MOL0     H29427   6.176   7.147  10.138  1.8101  0.2191 -0.9593
  959MOL0     H29428   6.242   7.307  10.132 -1.1744 -0.6313 -0.3373
  959MOL0     H29429   6.525   7.543  10.089  0.3389  1.9961 -0.9800
  959MOL0     H29430   6.713   7.669  10.070  0.8607 -1.1618 -0.4843
  959MOL0     H29431   7.014   7.611  10.001  2.3214 -0.2147  0.3232
  959MOL0     H29432   6.932   7.767  10.055  2.6686  1.8025 -0.4752
  959MOL0     H29433   7.143   7.791  10.025 -1.8919 -0.2328 -1.3003
  959MOL0     H29434   7.119   7.808  10.201 -0.0982 -1.2672 -0.0775
  959MOL0     H29435   7.237   7.581  10.049  1.0062 -0.5727  0.2384
  959MOL0     H29436   7.247   7.579  10.227  2.0212 -1.8094 -0.6236
  959MOL0     H29437   7.385   7.793  10.057  2.2748 -1.4269 -2.5363
  959MOL0     H29438   7.388   7.769  10.237 -2.5226 -1.5677  0.6850
  959MOL0     H29439   7.600   7.684  10.113  0.9196 -1.9169  0.4260
  959MOL0     H29440   7.498   7.582  10.019  1.8241 -0.7646  0.3110
  959MOL0     H29441   7.520   7.571  10.318 -0.9457 -0.3727 -0.1973
  959MOL0     H29442   7.421   7.459  10.236 -1.6199  0.4568  0.5177
  959MOL0     H29443   7.720   7.452  10.260  1.1904 -2.0340  0.0009
  959MOL0     H29444   7.662   7.425  10.091 -2.2537 -0.5279  0.0531
  959MOL0     H29445   7.695   7.213  10.216 -0.5516  0.2663  0.2321
  959MOL0     H29446   7.533   7.242  10.175 -1.7869  3.3355  1.5368
  959MOL0     H29447   6.910   7.406  10.356 -0.1515 -0.9690 -0.5784
  959MOL0     H29448   6.697   7.289  10.392 -4.4068 -0.9852 -0.9617
  959MOL0     H29449   6.272   7.359  10.630  0.6934  1.2609 -1.9020
  959MOL0     H29450   6.047   7.320  10.672  0.2059 -1.4721 -0.5084
  959MOL0     H29451   6.603   7.945  10.096  2.0976  0.3805  0.2428
  959MOL0     H29452   6.753   7.993   9.888  2.7921 -1.2725  1.6861
  959MOL0     H29453   7.144   7.996   9.655  0.3248 -0.4767 -0.1262
  959MOL0     H29454   7.267   8.042   9.464  0.5074  0.9408 -1.3876
  959MOL0     H29455   7.377   8.064   9.265  0.0324  0.1580 -0.0236
  959MOL0     H29456   7.334   7.883   9.253  1.1779  0.9182  1.4386
  959MOL0     H29457   7.495   7.939   9.078  1.6163  3.2698 -1.1511
  959MOL0     H29458   7.404   8.075   9.023 -0.4689 -0.3705 -0.8657
  959MOL0     H29459   7.217   7.918   8.960  0.5744 -0.1157 -1.9775
  959MOL0     H29460   7.277   7.789   9.059 -1.2951 -0.3271  1.0708
  959MOL0     H29461   7.288   7.788   8.802 -1.1773  1.0271  0.9501
  959MOL0     H29462   7.429   7.723   8.893 -0.1835  0.0509 -0.4133
  959MOL0     H29463   7.618   8.046   8.695  0.7234  1.3509  1.7763
  959MOL0     H29464   6.948   7.927   9.205  1.6231  0.8002 -0.7524
  959MOL0     H29465   6.808   7.864   9.397 -0.2647 -0.0101  0.0121
  960MOL0     O29466   9.663  10.814   3.893 -0.1366 -0.1475  0.0972
  960MOL0     C29467   9.645  10.696   3.926 -0.1738 -0.2106 -0.6937
  960MOL0     O29468   9.529  10.637   3.953 -0.1982  0.5067  0.8276
  960MOL0     C29469   9.405  10.684   3.939  0.6005  0.2446 -1.1323
  960MOL0     C29470   9.364  10.822   3.941  0.1766 -0.3350  0.3803
  960MOL0     C29471   9.235  10.862   3.959  0.2563  0.6194  0.2134
  960MOL0     C29472   9.135  10.772   3.983  0.9010 -0.3402  0.2479
  960MOL0     O29473   9.006  10.824   4.006  0.0426 -0.1884  0.2347
  960MOL0     C29474   8.910  10.729   4.049 -0.8794 -0.4395 -0.2031
  960MOL0     C29475   8.781  10.786   4.099  0.0261  0.1045  0.2062
  960MOL0     C29476   8.797  10.901   4.204 -0.2949  0.9976 -0.5051
  960MOL0     C29477   8.674  10.928   4.288 -0.0008 -0.4513 -0.2083
  960MOL0     C29478   8.564  11.004   4.217  0.2414 -0.0483 -0.4724
  960MOL0     C29479   8.455  11.034   4.312  0.2789 -0.3804 -0.2868
  960MOL0     C29480   8.346  11.136   4.251 -0.5531 -0.5242 -0.4724
  960MOL0     C29481   8.283  11.094   4.122  0.1415  0.2664  0.3413
  960MOL0     N29482   8.173  11.001   4.133  0.3161  1.5542  0.4029
  960MOL0     C29483   8.189  10.867   4.148  0.4088 -0.2030 -0.3238
  960MOL0     C29484   8.073  10.823   4.204 -0.6583  0.1107 -0.1934
  960MOL0     C29485   8.035  10.681   4.228  0.2893  0.5929 -0.2806
  960MOL0     C29486   8.017  10.636   4.376  0.7196 -0.4406  0.9970
  960MOL0     C29487   7.915  10.714   4.460 -0.6797 -0.3336 -0.1051
  960MOL0     C29488   7.781  10.671   4.421  0.0700  0.2434 -0.0380
  960MOL0     O29489   7.752  10.717   4.292  0.0569 -0.7067 -0.4344
  960MOL0     C29490   7.625  10.760   4.251 -0.9423 -0.2805  0.1112
  960MOL0     C29491   7.615  10.855   4.146 -0.4819 -0.7359 -0.3655
  960MOL0     C29492   7.485  10.898   4.090 -1.1505  0.3564 -0.2780
  960MOL0     C29493   7.486  11.027   4.009 -0.1477 -0.7579 -0.2280
  960MOL0     C29494   7.370  10.823   4.137  0.4743  0.6420 -0.7737
  960MOL0     C29495   7.228  10.826   4.082 -0.7280  0.5127 -0.3604
  960MOL0     O29496   7.130  10.755   4.155 -1.0286  1.0929  0.4540
  960MOL0     C29497   7.019  10.732   4.088 -0.1501  0.3277 -0.2868
  960MOL0     C29498   6.928  10.833   4.074  1.0860  0.2244 -0.4879
  960MOL0     C29499   6.800  10.812   4.025  0.7389 -0.6384  0.2266
  960MOL0     C29500   6.757  10.690   3.971 -0.8972 -0.0236 -0.7580
  960MOL0     O29501   6.633  10.670   3.922  0.0164  0.1985  0.2334
  960MOL0     C29502   6.527  10.718   3.995 -0.2392  0.1092  0.2315
  960MOL0     C29503   6.398  10.703   3.908 -0.6071  0.5154 -0.6689
  960MOL0     C29504   6.278  10.737   3.994  0.0540  0.2100  0.0296
  960MOL0     C29505   6.148  10.714   3.914  0.9643 -0.7414 -0.4469
  960MOL0     C29506   6.019  10.713   3.990  0.5079 -0.8389 -0.1453
  960MOL0     C29507   5.902  10.740   3.896  0.5617  0.7102  0.4764
  960MOL0     C29508   5.776  10.714   3.971  1.1740  0.4590 -0.3399
  960MOL0     C29509   5.644  10.750   3.893 -0.4518 -0.7398 -0.3670
  960MOL0    Cl29510   5.629  10.696   3.722  0.0391  0.2309  0.0906
  960MOL0     C29511   6.847  10.584   3.997 -0.3278 -0.5012  0.0272
  960MOL0     C29512   6.975  10.606   4.063  0.1306 -0.1667  0.6613
  960MOL0     O29513   7.206  10.884   3.971 -0.5651 -0.1137 -0.2416
  960MOL0     C29514   7.389  10.725   4.242  0.8549  0.1858 -0.4026
  960MOL0     C29515   7.518  10.689   4.290  0.3134  0.1464 -0.0161
  960MOL0     N29516   7.987  10.923   4.205 -0.1425  0.3512  0.0918
  960MOL0     N29517   8.051  11.033   4.164  0.2917  0.0466  0.2548
  960MOL0     C29518   9.172  10.641   3.972 -0.5976 -0.1576 -0.3397
  960MOL0     C29519   9.304  10.594   3.950  0.0152 -0.1362 -0.3045
  960MOL0     C29520   9.773  10.622   3.924 -0.5269 -0.2236  1.1293
  960MOL0     C29521   9.888  10.650   3.842 -0.3090  0.7609  0.0596
  960MOL0     C29522   9.983  10.542   3.824 -0.3614 -0.6034  0.2758
  960MOL0     C29523   9.978  10.416   3.896 -0.4342 -0.1829 -0.9361
  960MOL0     O29524  10.066  10.316   3.887  0.6515 -0.5330 -0.5160
  960MOL0     C29525  10.204  10.335   3.836  1.2540 -1.4240  0.6186
  960MOL0     C29526  10.303  10.252   3.912 -0.1665  0.7143  1.4736
  960MOL0     C29527  10.250  10.105   3.907 -0.4754 -0.6352  0.6574
  960MOL0     C29528  10.360  10.001   3.944 -0.2365  0.0425 -0.3586
  960MOL0     C29529  10.426  10.024   4.074 -0.4736  0.1041  0.5610
  960MOL0     C29530  10.491  10.038   4.183  0.0035 -0.3350 -0.0723
  960MOL0     C29531   9.868  10.399   3.971  0.2327 -0.4367 -0.7282
  960MOL0     C29532   9.766  10.494   3.990 -0.6648  0.0646 -0.1568
  960MOL0     H29533   9.434  10.905   3.930 -0.9692  0.5353 -0.5856
  960MOL0     H29534   9.208  10.967   3.958  2.6821  1.2996 -0.0997
  960MOL0     H29535   8.908  10.652   3.971  0.0410 -0.4841 -0.1905
  960MOL0     H29536   8.959  10.684   4.135  1.6849  0.3507 -1.1760
  960MOL0     H29537   8.728  10.819   4.009  0.7769 -1.1614 -0.7492
  960MOL0     H29538   8.723  10.706   4.146 -1.1755 -0.6615 -2.3832
  960MOL0     H29539   8.885  10.890   4.267 -0.9864  1.3628  0.5567
  960MOL0     H29540   8.813  10.985   4.135  0.1155  0.5823 -0.9225
  960MOL0     H29541   8.635  10.831   4.322 -0.8996  0.2851  0.9593
  960MOL0     H29542   8.710  10.985   4.374 -2.2719  2.4010 -0.9733
  960MOL0     H29543   8.602  11.100   4.180  0.6835  1.0714  2.6080
  960MOL0     H29544   8.543  10.935   4.134 -0.1775 -1.3067  0.6418
  960MOL0     H29545   8.397  10.945   4.340 -0.3585  0.8378  2.6235
  960MOL0     H29546   8.495  11.090   4.397 -0.1833 -0.5032  0.0155
  960MOL0     H29547   8.266  11.154   4.322 -0.6454 -0.0922 -0.6855
  960MOL0     H29548   8.397  11.230   4.229  1.8605 -1.8619 -1.0890
  960MOL0     H29549   8.363  11.050   4.062 -0.6536  1.7430 -1.9133
  960MOL0     H29550   8.260  11.186   4.068  1.0193  1.0091  1.1864
  960MOL0     H29551   8.267  10.794   4.129  0.2692 -0.4157 -0.0893
  960MOL0     H29552   7.959  10.655   4.154  1.0669  0.2235 -0.9692
  960MOL0     H29553   8.106  10.611   4.183 -2.8628 -3.2307  0.1571
  960MOL0     H29554   8.113  10.640   4.427 -0.2974 -1.0444  3.0652
  960MOL0     H29555   7.978  10.534   4.379  0.5584 -0.4209 -0.0794
  960MOL0     H29556   7.934  10.821   4.448  0.2028 -0.7347 -3.4437
  960MOL0     H29557   7.930  10.684   4.564 -0.3685 -0.5013 -0.1995
  960MOL0     H29558   7.719  10.715   4.500 -0.0570  0.0833 -0.0470
  960MOL0     H29559   7.781  10.564   4.444  1.6101  0.4920  1.2965
  960MOL0     H29560   7.707  10.907   4.121 -1.4538  1.5753  0.4987
  960MOL0     H29561   7.584  11.074   3.999 -0.5199  0.1033  0.1475
  960MOL0     H29562   7.447  11.005   3.909 -1.7134 -0.8027  0.3599
  960MOL0     H29563   7.427  11.105   4.057 -0.9611 -0.4181 -1.6959
  960MOL0     H29564   6.973  10.925   4.108 -1.7423  0.9784  1.6147
  960MOL0     H29565   6.749  10.908   4.019  0.1652 -0.8346  1.6613
  960MOL0     H29566   6.511  10.667   4.090  2.3355  0.2675  0.8241
  960MOL0     H29567   6.540  10.823   4.023  1.6868  0.0888 -0.4287
  960MOL0     H29568   6.410  10.771   3.823  3.2052  0.1754 -0.5416
  960MOL0     H29569   6.387  10.601   3.870 -0.4237  0.3198 -0.1970
  960MOL0     H29570   6.289  10.834   4.042  2.8298 -0.5973  1.2513
  960MOL0     H29571   6.279  10.658   4.070 -0.7420  0.5345  0.3808
  960MOL0     H29572   6.163  10.796   3.844  2.0850 -0.2663  0.3230
  960MOL0     H29573   6.147  10.621   3.856 -1.3452 -1.1442  0.1171
  960MOL0     H29574   6.026  10.778   4.078 -0.0307 -2.9313  1.5341
  960MOL0     H29575   6.008  10.615   4.039 -0.0852  0.7227  3.1185
  960MOL0     H29576   5.918  10.841   3.857  1.7113  0.5527  0.5011
  960MOL0     H29577   5.905  10.668   3.814 -0.9425 -0.8242  1.6792
  960MOL0     H29578   5.781  10.770   4.065 -3.2839  1.2568 -0.3693
  960MOL0     H29579   5.770  10.608   3.995 -3.7101  0.5070 -0.3447
  960MOL0     H29580   5.641  10.859   3.906  1.4886 -0.7079  0.1800
  960MOL0     H29581   5.561  10.726   3.960 -0.5325  1.8712  0.5911
  960MOL0     H29582   6.831  10.480   3.970  1.2894 -1.6406  3.0458
  960MOL0     H29583   7.032  10.513   4.066  0.5350  0.0808  0.7286
  960MOL0     H29584   7.306  10.669   4.283 -0.4522  1.4265 -1.2756
  960MOL0     H29585   7.523  10.616   4.370  0.6534  1.6537  1.3778
  960MOL0     H29586   9.099  10.564   3.996 -0.6504  0.4936  1.6802
  960MOL0     H29587   9.304  10.487   3.937 -4.0804 -0.2488 -0.8170
  960MOL0     H29588   9.906  10.746   3.794 -0.8682  0.9156  0.1499
  960MOL0     H29589  10.056  10.571   3.750  0.1882  0.6297  1.2806
  960MOL0     H29590  10.188  10.314   3.730  0.8657 -0.5882  0.5027
  960MOL0     H29591  10.229  10.441   3.821 -0.5291 -1.4272 -3.9278
  960MOL0     H29592  10.318  10.280   4.017 -1.1626 -0.5848  1.9797
  960MOL0     H29593  10.400  10.236   3.863 -0.4722 -0.4539  1.2335
  960MOL0     H29594  10.213  10.082   3.806  0.8442  1.5193 -0.3979
  960MOL0     H29595  10.163  10.095   3.973 -2.6681  2.4645 -1.4308
  960MOL0     H29596  10.442  10.012   3.872 -0.2036  0.6407 -0.2321
  960MOL0     H29597  10.308   9.905   3.935 -1.1938  0.6120 -1.1077
  960MOL0     H29598  10.535  10.042   4.280 -3.0506 -1.4698  1.5084
  960MOL0     H29599   9.860  10.294   3.999  4.5259 -1.2956 -1.9155
  960MOL0     H29600   9.677  10.473   4.048  0.4300  1.5204  2.1793
  961MOL0     O29601  10.344   2.481   5.873 -0.0618 -0.0771 -0.7669
  961MOL0     C29602  10.362   2.365   5.866  0.0846  0.2720  0.7014
  961MOL0     O29603  10.266   2.273   5.834 -0.1137 -0.5410 -1.0313
  961MOL0     C29604  10.134   2.310   5.808  0.1451 -0.6817  0.9424
  961MOL0     C29605  10.067   2.412   5.867  0.5733  0.2393 -1.0950
  961MOL0     C29606   9.934   2.438   5.837 -0.3886  0.4149 -0.0184
  961MOL0     C29607   9.857   2.345   5.753 -0.0980 -0.1888 -0.5655
  961MOL0     O29608   9.725   2.369   5.729  0.2762  0.0845 -0.2748
  961MOL0     C29609   9.634   2.269   5.677  0.6157  0.0113 -0.6779
  961MOL0     C29610   9.498   2.304   5.719 -0.3515 -1.0571  0.1436
  961MOL0     C29611   9.410   2.185   5.702  0.7194 -0.2087  0.7175
  961MOL0     C29612   9.366   2.168   5.559 -0.1032 -0.6339  0.9302
  961MOL0     C29613   9.290   2.033   5.544 -0.2717  0.9757  0.1600
  961MOL0     C29614   9.184   2.025   5.428 -0.7145 -0.3611  0.5051
  961MOL0     C29615   9.058   2.105   5.456  0.0500  0.2832 -0.0653
  961MOL0     C29616   8.988   2.056   5.584 -0.3534 -0.8221  0.4326
  961MOL0     N29617   8.849   2.122   5.592 -0.5016 -0.4602 -0.1815
  961MOL0     C29618   8.748   2.120   5.500  0.1260  1.1412  0.2187
  961MOL0     C29619   8.640   2.190   5.550  0.5915 -0.2342  0.4674
  961MOL0     C29620   8.518   2.229   5.474  0.3278 -0.1448 -0.1294
  961MOL0     C29621   8.400   2.154   5.531 -0.5395  0.1715 -0.2858
  961MOL0     C29622   8.361   2.169   5.680 -0.4833 -0.2974  0.5399
  961MOL0     C29623   8.350   2.320   5.703  0.2464  0.5477  0.8753
  961MOL0     O29624   8.241   2.358   5.786  0.2136 -0.6058 -0.5668
  961MOL0     C29625   8.253   2.438   5.899  0.2232  0.0781 -0.0278
  961MOL0     C29626   8.371   2.482   5.954  0.3305  0.2092 -0.1082
  961MOL0     C29627   8.379   2.556   6.074  0.3625  0.5303 -0.1820
  961MOL0     C29628   8.516   2.571   6.133  0.3851 -0.6563 -0.7353
  961MOL0     C29629   8.255   2.601   6.135 -0.2905  0.9795 -0.5433
  961MOL0     C29630   8.241   2.670   6.266  0.3837  0.6299 -0.3841
  961MOL0     O29631   8.129   2.745   6.284 -0.2314  0.1591  0.0176
  961MOL0     C29632   8.109   2.829   6.395 -0.4913  0.0774  0.2147
  961MOL0     C29633   7.977   2.869   6.409  0.7725 -0.3854  0.5525
  961MOL0     C29634   7.948   2.959   6.512 -0.2128 -0.2668 -0.3800
  961MOL0     C29635   8.030   3.006   6.611 -0.2088 -0.1646  0.6570
  961MOL0     O29636   7.987   3.091   6.706 -0.3467  0.1214 -0.7064
  961MOL0     C29637   8.026   3.227   6.676  0.1194 -0.0006  0.5229
  961MOL0     C29638   7.915   3.328   6.700 -0.2195  0.3906  0.3642
  961MOL0     C29639   7.880   3.371   6.845  0.0014  0.1018  1.0724
  961MOL0     C29640   7.750   3.446   6.850 -0.5540  0.9299 -0.4554
  961MOL0     C29641   7.729   3.503   6.984 -0.6531  0.1972  0.0803
  961MOL0     C29642   7.585   3.552   6.988  0.3539 -0.6281 -0.2016
  961MOL0     C29643   7.536   3.561   7.144  0.4193 -0.0911  0.6783
  961MOL0     C29644   7.392   3.604   7.141  0.3987  0.1881  0.4778
  961MOL0    Cl29645   7.286   3.470   7.082  0.2212 -0.1811 -0.2500
  961MOL0     C29646   8.171   2.971   6.594  0.4548  0.9907 -1.2521
  961MOL0     C29647   8.208   2.881   6.494  0.6064  0.0683  1.3874
  961MOL0     O29648   8.334   2.657   6.347  0.3967 -0.3005 -0.0250
  961MOL0     C29649   8.133   2.558   6.070 -0.2591 -0.0647 -0.3089
  961MOL0     C29650   8.144   2.477   5.958  1.1143  0.5131 -0.3697
  961MOL0     N29651   8.676   2.226   5.677  0.5358  0.6071 -0.2675
  961MOL0     N29652   8.797   2.186   5.703  0.9155 -0.1697  0.1904
  961MOL0     C29653   9.931   2.244   5.698  0.1515  0.5481 -1.4738
  961MOL0     C29654  10.069   2.216   5.732 -0.4434  0.9049  0.4871
  961MOL0     C29655  10.500   2.319   5.890  0.8331 -0.5255  0.3797
  961MOL0     C29656  10.604   2.397   5.925  0.0606 -0.8843  0.7932
  961MOL0     C29657  10.735   2.353   5.934  0.0100 -0.3345  0.4939
  961MOL0     C29658  10.773   2.224   5.900 -0.5950  0.8799  0.0225
  961MOL0     O29659  10.905   2.192   5.912  0.2083 -0.2130 -0.3696
  961MOL0     C29660  10.947   2.058   5.863 -0.3283 -0.0028 -0.3058
  961MOL0     C29661  11.087   2.021   5.912 -0.3652  0.4127 -0.6782
  961MOL0     C29662  11.198   2.075   5.817 -0.1689  0.9812  0.6759
  961MOL0     C29663  11.200   2.232   5.798  0.7095 -0.2472  0.0882
  961MOL0     C29664  11.304   2.274   5.703  0.4037 -0.9754 -0.5618
  961MOL0     C29665  11.389   2.324   5.628 -0.5075  0.0197  0.0093
  961MOL0     C29666  10.668   2.142   5.874  1.2413  0.3374 -0.1387
  961MOL0     C29667  10.536   2.184   5.874  0.7433 -0.3994 -0.1213
  961MOL0     H29668  10.108   2.492   5.928  1.3989 -0.8499 -0.1683
  961MOL0     H29669   9.890   2.520   5.893 -1.4827  0.1592 -0.4832
  961MOL0     H29670   9.641   2.272   5.568  0.3215 -3.8122 -0.9382
  961MOL0     H29671   9.660   2.170   5.716 -0.1742  1.3466  3.7533
  961MOL0     H29672   9.510   2.328   5.825 -0.2203  2.0220 -0.4780
  961MOL0     H29673   9.460   2.399   5.679  1.1746 -0.3561  0.3035
  961MOL0     H29674   9.473   2.103   5.736  1.8889  1.5406  3.0438
  961MOL0     H29675   9.324   2.199   5.769  0.7354  1.4632  0.4361
  961MOL0     H29676   9.301   2.253   5.536  2.0337  0.7848 -0.1818
  961MOL0     H29677   9.438   2.180   5.478 -4.4136 -2.8911 -3.8230
  961MOL0     H29678   9.363   1.954   5.525  0.0546  1.7909 -2.2844
  961MOL0     H29679   9.238   2.002   5.635  1.3553 -1.7107  0.2712
  961MOL0     H29680   9.220   2.063   5.332 -0.6126  0.4197  0.8450
  961MOL0     H29681   9.165   1.917   5.423  1.8462 -0.8075 -1.8239
  961MOL0     H29682   9.084   2.210   5.465  1.4886 -0.0513 -0.1232
  961MOL0     H29683   8.996   2.086   5.367 -1.4720 -1.3023  1.2535
  961MOL0     H29684   9.038   2.081   5.678 -1.9655 -2.0492  1.6637
  961MOL0     H29685   8.982   1.947   5.573  0.0416 -0.5736 -3.3911
  961MOL0     H29686   8.758   2.072   5.403  1.3014  1.0120  0.3804
  961MOL0     H29687   8.517   2.339   5.482 -0.1146 -0.2013  0.6832
  961MOL0     H29688   8.521   2.193   5.371 -0.2876 -4.9406  1.3218
  961MOL0     H29689   8.424   2.048   5.517 -0.5213 -0.0464  1.2305
  961MOL0     H29690   8.308   2.171   5.473 -1.6807 -0.1702  1.3495
  961MOL0     H29691   8.431   2.127   5.752  1.2027 -0.2846 -1.0481
  961MOL0     H29692   8.262   2.122   5.683 -1.3600  1.2474 -1.6230
  961MOL0     H29693   8.324   2.364   5.606  1.5550 -3.2680 -1.4483
  961MOL0     H29694   8.449   2.357   5.731  1.1751 -1.0680 -0.1014
  961MOL0     H29695   8.465   2.461   5.904  0.8805 -1.1693  1.4359
  961MOL0     H29696   8.541   2.493   6.205 -2.1488 -1.5742 -0.7235
  961MOL0     H29697   8.584   2.585   6.049  2.1530  2.3209  1.0067
  961MOL0     H29698   8.525   2.666   6.187  1.8640 -0.9275 -0.4930
  961MOL0     H29699   7.892   2.842   6.347  0.0347  0.0996  1.3334
  961MOL0     H29700   7.843   2.980   6.532 -0.9737 -3.7617 -0.0576
  961MOL0     H29701   8.105   3.252   6.747 -0.3545  1.4464  0.5686
  961MOL0     H29702   8.059   3.238   6.572  0.5876 -1.1792  0.5340
  961MOL0     H29703   7.957   3.419   6.656  1.0787 -0.7202 -0.7892
  961MOL0     H29704   7.834   3.295   6.635  2.3502 -0.1698 -2.7660
  961MOL0     H29705   7.963   3.437   6.874  2.0995 -1.0630 -1.8091
  961MOL0     H29706   7.869   3.281   6.906 -1.7076 -0.5694 -0.1611
  961MOL0     H29707   7.750   3.527   6.777 -4.0420  1.7640  0.3042
  961MOL0     H29708   7.669   3.378   6.824 -0.1385  0.6756 -1.0976
  961MOL0     H29709   7.803   3.583   6.992  0.6192 -0.2996 -4.2019
  961MOL0     H29710   7.753   3.433   7.064 -1.7384 -1.6367 -1.1245
  961MOL0     H29711   7.578   3.648   6.936 -0.2893 -0.1687  0.6903
  961MOL0     H29712   7.523   3.486   6.928 -1.8263 -0.4637  1.7331
  961MOL0     H29713   7.601   3.622   7.207  2.3006 -1.6063  0.2780
  961MOL0     H29714   7.541   3.457   7.179 -1.5743 -1.2644 -2.1165
  961MOL0     H29715   7.392   3.689   7.072  3.4552 -1.3439 -1.6471
  961MOL0     H29716   7.365   3.633   7.243 -0.7380 -1.2966  0.6365
  961MOL0     H29717   8.249   3.007   6.661 -1.1963 -0.3076  1.5500
  961MOL0     H29718   8.313   2.854   6.487  0.2498 -1.2448  0.6614
  961MOL0     H29719   8.037   2.593   6.107  0.0245 -0.7658  1.1454
  961MOL0     H29720   8.049   2.447   5.914  2.0817 -0.5904 -1.7863
  961MOL0     H29721   9.896   2.166   5.631 -0.9440  0.2938 -0.6314
  961MOL0     H29722  10.114   2.129   5.687  1.5346  2.5374 -0.8377
  961MOL0     H29723  10.585   2.501   5.950  0.7652 -0.3047 -0.9394
  961MOL0     H29724  10.818   2.413   5.972  0.2714 -0.5671  0.2954
  961MOL0     H29725  10.877   1.981   5.899  1.5611 -2.0976 -0.8614
  961MOL0     H29726  10.943   2.053   5.754  2.3520  0.2493 -0.4639
  961MOL0     H29727  11.086   1.911   5.915 -1.8984  0.4156  1.1746
  961MOL0     H29728  11.103   2.048   6.017  0.1397 -0.0487 -0.6327
  961MOL0     H29729  11.191   2.022   5.721  0.0937  1.7337  0.2343
  961MOL0     H29730  11.298   2.046   5.851 -0.6362 -0.2622  1.0576
  961MOL0     H29731  11.229   2.278   5.893  4.3924 -0.3212 -0.8477
  961MOL0     H29732  11.102   2.259   5.760  0.3488 -0.8044  0.6170
  961MOL0     H29733  11.463   2.363   5.560 -1.2565 -1.6055 -1.8491
  961MOL0     H29734  10.677   2.036   5.854 -0.7186  0.5170 -2.4679
  961MOL0     H29735  10.451   2.117   5.864 -1.8327  1.8090  3.7408
  962MOL0     O29736   9.956   6.130   8.025 -0.4631 -0.1519  0.3225
  962MOL0     C29737   9.968   6.102   8.143  0.6303 -0.4885 -0.1046
  962MOL0     O29738   9.940   5.985   8.207 -0.2352  0.3947  0.4795
  962MOL0     C29739   9.867   5.888   8.133  0.5779 -0.9028 -0.4747
  962MOL0     C29740   9.771   5.899   8.032  0.1048  1.0590  0.5559
  962MOL0     C29741   9.718   5.794   7.961 -0.1515  0.9157 -0.9120
  962MOL0     C29742   9.754   5.663   8.001  0.2905 -0.3979  0.0186
  962MOL0     O29743   9.689   5.566   7.926 -0.0121 -0.5190 -0.3659
  962MOL0     C29744   9.704   5.432   7.981  0.3085 -0.1563 -0.9492
  962MOL0     C29745   9.597   5.337   7.925  0.2444 -0.2089  0.1703
  962MOL0     C29746   9.599   5.332   7.767  0.2936  0.1742 -0.6321
  962MOL0     C29747   9.476   5.257   7.733  0.2215 -0.1212  0.9787
  962MOL0     C29748   9.441   5.242   7.586  0.5588  0.3863 -0.5269
  962MOL0     C29749   9.539   5.144   7.518  0.5007 -0.2380  0.4486
  962MOL0     C29750   9.484   4.999   7.539  0.7019 -0.3597 -0.2990
  962MOL0     C29751   9.563   4.898   7.459 -0.5476  0.4155 -0.2451
  962MOL0     N29752   9.485   4.778   7.433 -0.8285  0.7138  0.0496
  962MOL0     C29753   9.372   4.780   7.357 -0.0382 -0.1619 -0.1985
  962MOL0     C29754   9.310   4.659   7.383 -0.3741 -0.0262 -0.5087
  962MOL0     C29755   9.171   4.623   7.342 -0.1887 -0.2469 -1.4407
  962MOL0     C29756   9.064   4.729   7.378 -0.3798  0.1600 -0.3528
  962MOL0     C29757   9.077   4.793   7.516 -0.9641 -0.9789 -0.2149
  962MOL0     C29758   8.938   4.829   7.572 -0.0483 -0.1094 -0.6475
  962MOL0     O29759   8.869   4.908   7.476  0.4891 -0.2701 -0.0671
  962MOL0     C29760   8.747   4.944   7.508  0.1498  0.2044  0.2355
  962MOL0     C29761   8.661   4.986   7.411  0.3755 -0.7743  0.0378
  962MOL0     C29762   8.525   4.995   7.427 -0.4736  0.1814 -0.7131
  962MOL0     C29763   8.448   5.050   7.305  0.3609  0.7936  0.0923
  962MOL0     C29764   8.470   4.974   7.555 -0.0134  0.5104 -0.0088
  962MOL0     C29765   8.334   5.014   7.576  0.0683  0.2629  0.0016
  962MOL0     O29766   8.300   5.055   7.707  0.0852  0.0620 -0.2599
  962MOL0     C29767   8.177   5.114   7.728  0.1030 -0.5522 -0.1585
  962MOL0     C29768   8.177   5.249   7.738 -0.5261  0.0607  0.2251
  962MOL0     C29769   8.057   5.315   7.765  0.0262  0.9493 -0.7783
  962MOL0     C29770   7.940   5.245   7.809  0.4784  0.1533 -0.0635
  962MOL0     O29771   7.820   5.305   7.830 -0.0214 -0.4644  0.2432
  962MOL0     C29772   7.795   5.442   7.842  0.9345 -0.3353  0.1326
  962MOL0     C29773   7.656   5.478   7.810  1.2049 -0.1474  0.0258
  962MOL0     C29774   7.556   5.450   7.921 -1.2750 -0.4164 -0.0092
  962MOL0     C29775   7.416   5.476   7.889  0.1579  0.3217  0.3952
  962MOL0     C29776   7.322   5.413   7.992 -0.4041 -0.2737 -0.2749
  962MOL0     C29777   7.176   5.434   7.954 -0.7282  0.7451 -0.8326
  962MOL0     C29778   7.090   5.317   7.985  0.7862  0.5154 -0.6486
  962MOL0     C29779   7.055   5.317   8.126 -0.8208 -0.7202  0.2530
  962MOL0    Cl29780   7.147   5.194   8.206  0.3590 -0.1604 -0.2381
  962MOL0     C29781   7.944   5.101   7.815 -0.2865 -0.3314  0.4912
  962MOL0     C29782   8.058   5.040   7.761 -0.4896 -0.5622  0.8205
  962MOL0     O29783   8.250   4.994   7.488 -0.8795  0.2709  0.2229
  962MOL0     C29784   8.548   4.925   7.656  0.6361  0.0566  1.0065
  962MOL0     C29785   8.683   4.923   7.631  0.4290 -0.0883  0.1224
  962MOL0     N29786   9.399   4.578   7.463  0.8273  0.8303  0.2082
  962MOL0     N29787   9.492   4.652   7.496 -1.1641 -0.5241  0.2949
  962MOL0     C29788   9.846   5.649   8.110  0.4395  0.5689  0.3772
  962MOL0     C29789   9.908   5.760   8.166  0.1599 -0.6165  2.3104
  962MOL0     C29790  10.025   6.218   8.224  1.0129  0.8245  0.3118
  962MOL0     C29791  10.022   6.220   8.362 -0.0693 -0.5304  0.8591
  962MOL0     C29792  10.081   6.318   8.437  0.2232  0.5799 -0.2478
  962MOL0     C29793  10.137   6.434   8.379 -0.8654 -0.8955  1.0715
  962MOL0     O29794  10.218   6.519   8.454  0.1903  0.1846 -0.4932
  962MOL0     C29795  10.305   6.618   8.392  1.2369  0.3965  0.0850
  962MOL0     C29796  10.229   6.751   8.362 -0.2674  0.8583 -0.2114
  962MOL0     C29797  10.300   6.804   8.237 -0.2589 -0.0544 -0.2823
  962MOL0     C29798  10.239   6.943   8.199 -0.6312  0.6445 -0.9642
  962MOL0     C29799  10.265   7.052   8.294  0.1780  0.8670  0.8743
  962MOL0     C29800  10.284   7.151   8.359 -0.0172 -0.6961 -1.3342
  962MOL0     C29801  10.130   6.439   8.242 -0.0765 -0.9940  0.1504
  962MOL0     C29802  10.072   6.338   8.169  0.5766 -0.0574 -0.1275
  962MOL0     H29803   9.720   5.992   8.013 -1.9620 -0.3514 -1.1912
  962MOL0     H29804   9.643   5.816   7.886 -2.8925  1.9416  1.9299
  962MOL0     H29805   9.806   5.400   7.958 -0.1626 -0.4318 -2.7950
  962MOL0     H29806   9.676   5.433   8.087  1.3853  1.6385 -0.6291
  962MOL0     H29807   9.618   5.240   7.970  2.3068  0.1713  0.1091
  962MOL0     H29808   9.497   5.357   7.966 -0.7397  0.1715 -2.2619
  962MOL0     H29809   9.596   5.434   7.728  0.6001  0.0183 -1.0671
  962MOL0     H29810   9.689   5.282   7.732 -0.8667 -1.3307 -1.6336
  962MOL0     H29811   9.491   5.154   7.768 -2.7564 -0.2860  2.0078
  962MOL0     H29812   9.388   5.306   7.775  0.5371 -0.8809  2.6130
  962MOL0     H29813   9.335   5.217   7.574  0.8198 -0.7599 -0.6169
  962MOL0     H29814   9.444   5.340   7.539 -0.1495  0.5666 -0.2110
  962MOL0     H29815   9.539   5.165   7.411 -0.1934  2.8061  0.9638
  962MOL0     H29816   9.639   5.140   7.563  0.5941 -2.1748  0.1724
  962MOL0     H29817   9.494   4.964   7.642  0.5093 -0.7895 -0.4196
  962MOL0     H29818   9.379   4.991   7.510  0.4082 -2.0433  1.0167
  962MOL0     H29819   9.651   4.867   7.516 -0.6578  0.2825 -0.1478
  962MOL0     H29820   9.588   4.928   7.357  3.6672 -3.5941 -0.7486
  962MOL0     H29821   9.328   4.860   7.299 -0.4555 -2.0493 -2.6899
  962MOL0     H29822   9.166   4.598   7.236 -0.3827  0.3262 -1.5688
  962MOL0     H29823   9.145   4.527   7.388 -2.0838  0.4970 -0.8761
  962MOL0     H29824   8.964   4.688   7.361 -0.3688 -1.6118  2.9846
  962MOL0     H29825   9.080   4.822   7.323  1.8099  0.0178 -0.0391
  962MOL0     H29826   9.143   4.880   7.521 -3.2167  0.7821  0.5814
  962MOL0     H29827   9.121   4.721   7.586 -1.8660  0.3979  1.8686
  962MOL0     H29828   8.954   4.876   7.669  1.1663 -0.7153 -0.5439
  962MOL0     H29829   8.878   4.739   7.591 -2.4801  1.6020  0.3042
  962MOL0     H29830   8.712   5.017   7.321 -0.3894 -0.9147 -0.4578
  962MOL0     H29831   8.370   4.980   7.273  1.0790  0.5360 -1.1324
  962MOL0     H29832   8.394   5.143   7.326 -0.7534  0.0151  0.8277
  962MOL0     H29833   8.524   5.061   7.228  2.5102  1.4627  2.1858
  962MOL0     H29834   8.265   5.309   7.716 -1.5063  1.6532  0.5168
  962MOL0     H29835   8.051   5.421   7.741 -0.8567  0.5360 -2.5512
  962MOL0     H29836   7.808   5.481   7.944 -2.2260  1.8553 -0.1661
  962MOL0     H29837   7.864   5.502   7.782 -1.8464  0.0493 -2.9538
  962MOL0     H29838   7.640   5.580   7.776  2.8725 -0.1242 -0.7469
  962MOL0     H29839   7.641   5.410   7.726  2.1626 -0.5339  0.1585
  962MOL0     H29840   7.577   5.522   8.001  0.3382 -1.8082  0.8942
  962MOL0     H29841   7.583   5.350   7.958  2.5828  0.4318 -0.0911
  962MOL0     H29842   7.395   5.584   7.886  1.3613  0.5796  0.4919
  962MOL0     H29843   7.386   5.433   7.793  0.6470 -0.8612  0.7500
  962MOL0     H29844   7.339   5.460   8.090  1.0542 -1.7171  0.2282
  962MOL0     H29845   7.341   5.305   8.003 -1.4960 -1.0031 -4.2297
  962MOL0     H29846   7.135   5.532   7.981 -1.2987  0.5664 -1.0215
  962MOL0     H29847   7.168   5.453   7.846  0.6485  3.0824 -0.5918
  962MOL0     H29848   7.132   5.217   7.968  2.5963  0.2069  4.1975
  962MOL0     H29849   6.992   5.323   7.937  1.0756 -0.0752 -1.3387
  962MOL0     H29850   6.954   5.295   8.161 -0.6545 -3.3874 -0.7140
  962MOL0     H29851   7.101   5.407   8.167  2.9687 -1.8222 -1.1781
  962MOL0     H29852   7.852   5.047   7.835 -1.6333  0.7565 -2.1601
  962MOL0     H29853   8.053   4.935   7.735 -0.2830 -0.4667  0.3782
  962MOL0     H29854   8.509   4.888   7.751  1.9615 -1.9302  0.8520
  962MOL0     H29855   8.749   4.887   7.710  0.1684  0.8218  0.7605
  962MOL0     H29856   9.866   5.550   8.150 -1.8365  0.6851  1.9999
  962MOL0     H29857   9.984   5.759   8.244  3.1895  1.7611 -0.2913
  962MOL0     H29858   9.986   6.134   8.418  0.3407 -0.1440  1.7330
  962MOL0     H29859  10.080   6.317   8.545  2.7544  2.8559 -0.1069
  962MOL0     H29860  10.385   6.642   8.463  0.6443  2.2009  0.1848
  962MOL0     H29861  10.346   6.578   8.299  2.2074  0.9464  0.2646
  962MOL0     H29862  10.234   6.818   8.449 -2.3454 -0.6985  1.1853
  962MOL0     H29863  10.126   6.728   8.334  0.5267 -2.4993 -0.8597
  962MOL0     H29864  10.287   6.734   8.154 -1.5901  0.2743 -0.3694
  962MOL0     H29865  10.407   6.824   8.247 -0.6793  1.6633  1.4516
  962MOL0     H29866  10.133   6.928   8.178 -0.1268 -2.2673 -1.7991
  962MOL0     H29867  10.286   6.971   8.104  0.6974  0.7985 -0.2960
  962MOL0     H29868  10.292   7.234   8.426 -2.2729  0.1533 -1.9935
  962MOL0     H29869  10.177   6.519   8.186  3.4043 -2.8650  0.1278
  962MOL0     H29870  10.059   6.363   8.064 -1.8762  0.2141  0.1656
  963MOL0     O29871   7.064   3.000  10.097  0.1782 -0.1340  0.3036
  963MOL0     C29872   7.147   3.086  10.134 -0.1663  0.2960 -0.2765
  963MOL0     O29873   7.120   3.216  10.156  0.5550  0.1495 -0.6973
  963MOL0     C29874   6.988   3.249  10.155 -1.1045  0.1212 -1.0909
  963MOL0     C29875   6.895   3.181  10.242 -0.1246 -0.1599  0.8929
  963MOL0     C29876   6.752   3.209  10.220  0.1902  0.7659 -0.2927
  963MOL0     C29877   6.708   3.302  10.130 -0.0018  1.2528 -0.8659
  963MOL0     O29878   6.578   3.348  10.115 -0.4183 -0.2980 -0.1176
  963MOL0     C29879   6.487   3.255  10.054 -0.2316  0.3623  0.5891
  963MOL0     C29880   6.341   3.301  10.027  0.1068  0.0937 -0.1216
  963MOL0     C29881   6.278   3.332  10.171 -0.0670  0.2921  0.1752
  963MOL0     C29882   6.125   3.355  10.151  0.4793  0.3434  0.2350
  963MOL0     C29883   6.055   3.385  10.285 -0.3642 -1.0521 -0.3802
  963MOL0     C29884   5.903   3.385  10.269  0.3452 -0.9402 -0.1893
  963MOL0     C29885   5.843   3.381  10.407  0.1855  0.2412  0.1148
  963MOL0     C29886   5.696   3.410  10.403  0.0197  0.1495  0.1092
  963MOL0     N29887   5.616   3.291  10.364  0.0377  0.2281  0.0165
  963MOL0     C29888   5.583   3.188  10.454  0.7848 -0.3196 -0.1803
  963MOL0     C29889   5.507   3.099  10.375  0.3926 -0.0727  0.3540
  963MOL0     C29890   5.449   2.964  10.400  1.5570  0.2872 -0.6523
  963MOL0     C29891   5.334   2.968  10.503 -0.0715 -0.0665 -0.3704
  963MOL0     C29892   5.233   2.859  10.491  0.0583  0.6724  0.3174
  963MOL0     C29893   5.290   2.720  10.493 -0.5321 -0.1483  0.4974
  963MOL0     O29894   5.385   2.703  10.595  0.8552 -0.4172 -0.4784
  963MOL0     C29895   5.482   2.608  10.582  0.2646 -0.3270 -0.7031
  963MOL0     C29896   5.555   2.588  10.707  0.4529 -0.3221  0.7058
  963MOL0     C29897   5.654   2.487  10.722 -0.2483  0.1135  0.6473
  963MOL0     C29898   5.709   2.479  10.857  0.2666  0.5352  0.9959
  963MOL0     C29899   5.693   2.412  10.611 -0.4886 -0.1940  0.5289
  963MOL0     C29900   5.789   2.301  10.624  0.0477 -0.0510 -0.2328
  963MOL0     O29901   5.814   2.247  10.747 -0.1608 -0.5796 -0.3895
  963MOL0     C29902   5.878   2.126  10.770 -0.1468  0.1758 -0.8337
  963MOL0     C29903   5.939   2.046  10.669 -0.8072 -0.0010 -0.0714
  963MOL0     C29904   5.988   1.914  10.699 -1.0807 -0.4274 -0.5004
  963MOL0     C29905   5.984   1.858  10.825  0.6067  1.1699  0.4073
  963MOL0     O29906   6.015   1.720  10.832  0.7981  0.6763 -0.2274
  963MOL0     C29907   6.010   1.663  10.966 -0.1491 -0.0979  0.9231
  963MOL0     C29908   6.133   1.705  11.047  0.8933  0.8561 -0.0257
  963MOL0     C29909   6.251   1.632  10.965 -0.2696 -0.2065  0.5142
  963MOL0     C29910   6.382   1.700  11.003  0.3712  0.6439  0.0522
  963MOL0     C29911   6.452   1.602  11.104 -0.0364 -0.0870 -0.1528
  963MOL0     C29912   6.597   1.653  11.127 -0.3565 -0.8488 -0.1254
  963MOL0     C29913   6.696   1.659  11.010 -0.7640  0.3277 -0.6434
  963MOL0     C29914   6.848   1.652  11.048  0.1897  0.3693  0.0535
  963MOL0    Cl29915   6.881   1.803  11.144 -0.1581  0.1821 -0.4303
  963MOL0     C29916   5.921   1.937  10.920  0.5650 -0.4167  0.4662
  963MOL0     C29917   5.874   2.071  10.898 -0.3804 -0.1545  0.5111
  963MOL0     O29918   5.836   2.269  10.514  0.1741 -0.0097 -0.2741
  963MOL0     C29919   5.623   2.434  10.484  0.0224 -0.3522  0.2403
  963MOL0     C29920   5.517   2.531  10.478 -0.0659 -0.1249  0.8311
  963MOL0     N29921   5.488   3.154  10.258 -0.7313  0.4935  0.4213
  963MOL0     N29922   5.540   3.266  10.250  0.1937  0.1905 -0.1826
  963MOL0     C29923   6.808   3.372  10.052  0.5563  0.1484  0.1127
  963MOL0     C29924   6.949   3.348  10.069  1.1497  0.2532 -0.5576
  963MOL0     C29925   7.284   3.044  10.121  0.8339  0.0490 -0.4570
  963MOL0     C29926   7.308   2.928  10.042 -0.2731 -0.2152 -0.0582
  963MOL0     C29927   7.434   2.871  10.040  0.7259  0.0033 -0.4445
  963MOL0     C29928   7.542   2.931  10.112 -0.0063 -0.0000  0.1649
  963MOL0     O29929   7.666   2.874  10.090 -0.1815 -0.6578 -0.7384
  963MOL0     C29930   7.754   2.878  10.197  1.0610  1.1390  0.4708
  963MOL0     C29931   7.893   2.927  10.148  0.6132 -0.5452  0.1940
  963MOL0     C29932   7.992   2.913  10.264 -0.1259 -0.6959 -0.6750
  963MOL0     C29933   8.057   2.780  10.267 -0.0599  0.0936  0.3721
  963MOL0     C29934   8.170   2.762  10.171  0.0568  0.8244 -0.0322
  963MOL0     C29935   8.265   2.727  10.098 -0.0395 -0.4112  0.0518
  963MOL0     C29936   7.508   3.039  10.199  0.0315  0.5359 -0.3152
  963MOL0     C29937   7.387   3.103  10.196  0.7585 -0.7579 -0.8433
  963MOL0     H29938   6.917   3.096  10.306  1.1259  0.2626  1.0443
  963MOL0     H29939   6.690   3.157  10.292  2.0455 -1.6795 -0.3635
  963MOL0     H29940   6.535   3.231   9.959 -0.0715  1.3316  0.4179
  963MOL0     H29941   6.484   3.160  10.108  0.3292  0.2609  0.4478
  963MOL0     H29942   6.337   3.387   9.959  1.9490  0.8349  0.6411
  963MOL0     H29943   6.284   3.219   9.982 -0.4808 -1.0109  2.4689
  963MOL0     H29944   6.289   3.242  10.232 -0.1025 -0.6597 -1.1873
  963MOL0     H29945   6.325   3.420  10.216 -1.2702  0.3977  1.3144
  963MOL0     H29946   6.112   3.429  10.072 -3.4719  0.0340  0.3832
  963MOL0     H29947   6.085   3.264  10.105  0.7230  1.2966 -1.9812
  963MOL0     H29948   6.089   3.315  10.361  1.7747 -0.7208 -0.9670
  963MOL0     H29949   6.088   3.483  10.320  2.5475 -1.8442 -0.6716
  963MOL0     H29950   5.868   3.474  10.216 -0.5503 -1.8837 -1.2478
  963MOL0     H29951   5.868   3.295  10.217  3.8464 -1.0985 -2.6009
  963MOL0     H29952   5.866   3.283  10.449  1.8289 -0.5908 -2.4392
  963MOL0     H29953   5.890   3.457  10.470  3.8512 -1.0351 -0.8514
  963MOL0     H29954   5.671   3.473  10.317  2.6408 -1.0327 -1.6326
  963MOL0     H29955   5.663   3.462  10.493  3.9691  1.8360  0.8039
  963MOL0     H29956   5.616   3.184  10.558  0.4359 -0.7463 -0.0825
  963MOL0     H29957   5.405   2.920  10.310 -2.3176 -3.5685  2.6743
  963MOL0     H29958   5.523   2.907  10.457 -0.3519  0.6944  2.4321
  963MOL0     H29959   5.284   3.060  10.470 -0.0196 -0.4204 -1.4783
  963MOL0     H29960   5.379   2.973  10.602 -0.4276  1.4880 -0.2495
  963MOL0     H29961   5.189   2.856  10.391  0.8728 -2.6263 -0.0330
  963MOL0     H29962   5.153   2.866  10.565 -2.5844 -1.2866 -2.1105
  963MOL0     H29963   5.334   2.704  10.395  3.4407 -1.1306  2.2313
  963MOL0     H29964   5.217   2.639  10.504 -0.7877 -0.0926 -0.6670
  963MOL0     H29965   5.535   2.651  10.793  2.4788  0.2199  0.8296
  963MOL0     H29966   5.683   2.570  10.911  1.9894  0.6096  1.7559
  963MOL0     H29967   5.679   2.388  10.910 -1.1378  0.7760  0.6450
  963MOL0     H29968   5.818   2.480  10.855  0.3496  2.0216  3.1085
  963MOL0     H29969   5.954   2.076  10.566  2.5689 -0.0875  0.2760
  963MOL0     H29970   6.016   1.843  10.623 -2.4087 -1.1667 -0.3355
  963MOL0     H29971   5.917   1.683  11.019 -0.2787 -0.9742  1.0465
  963MOL0     H29972   6.016   1.555  10.950 -0.5520  0.0973 -0.7335
  963MOL0     H29973   6.145   1.813  11.049 -1.1399  1.1315  2.4203
  963MOL0     H29974   6.128   1.657  11.146  0.4748 -1.8009 -1.2533
  963MOL0     H29975   6.226   1.640  10.858  1.0937  0.0009  0.1913
  963MOL0     H29976   6.239   1.525  10.986 -3.0593 -0.7532 -2.8072
  963MOL0     H29977   6.448   1.718  10.918  0.1075  2.5315  0.2129
  963MOL0     H29978   6.362   1.803  11.031 -0.6383  0.4775 -0.0276
  963MOL0     H29979   6.459   1.501  11.063 -1.3012  0.5211 -1.9795
  963MOL0     H29980   6.395   1.605  11.197  0.4287  1.2457  0.1072
  963MOL0     H29981   6.598   1.756  11.165 -0.5281 -0.5277 -0.9633
  963MOL0     H29982   6.638   1.589  11.205  0.4691 -0.5102 -0.2738
  963MOL0     H29983   6.684   1.754  10.957  2.0459  2.0915  1.5578
  963MOL0     H29984   6.677   1.577  10.939  1.1159  0.1754 -1.0260
  963MOL0     H29985   6.916   1.649  10.962 -0.9058  2.6144 -0.9766
  963MOL0     H29986   6.863   1.566  11.113 -2.0595 -0.0608  0.0685
  963MOL0     H29987   5.911   1.904  11.022 -0.5976  0.5129  0.6877
  963MOL0     H29988   5.833   2.130  10.979 -2.4916  3.3320 -2.7828
  963MOL0     H29989   5.629   2.354  10.411  1.0772 -0.7456  0.7179
  963MOL0     H29990   5.457   2.541  10.388  0.1275 -1.3814  0.5429
  963MOL0     H29991   6.782   3.457   9.990  1.5260  0.3897  0.0291
  963MOL0     H29992   7.022   3.402  10.009  0.9910  0.2544 -0.7522
  963MOL0     H29993   7.229   2.882   9.984  1.1877 -0.2946 -2.1047
  963MOL0     H29994   7.443   2.782   9.978  1.7298 -0.2274  0.0115
  963MOL0     H29995   7.730   2.933  10.288 -2.3174  2.4648 -1.0875
  963MOL0     H29996   7.768   2.772  10.221 -0.0447 -0.7548 -5.4358
  963MOL0     H29997   7.883   3.033  10.122  1.0545 -0.6186 -0.2976
  963MOL0     H29998   7.920   2.865  10.063  1.4042 -1.6224  1.1912
  963MOL0     H29999   7.940   2.935  10.357  1.4157  2.8462 -0.5130
  963MOL0     H30000   8.069   2.991  10.260  0.2103 -1.0697 -2.2756
  963MOL0     H30001   7.981   2.701  10.267  0.1164 -0.1375  2.1274
  963MOL0     H30002   8.112   2.764  10.360  2.6629 -1.6272 -1.4003
  963MOL0     H30003   8.354   2.696  10.047  2.0225  2.0731  1.9060
  963MOL0     H30004   7.585   3.077  10.265  1.6664 -1.9442 -0.7032
  963MOL0     H30005   7.364   3.197  10.245 -1.3121 -1.0233 -1.2094
  964MOL0     O30006   9.715   3.661   0.577 -0.0371 -0.4217  0.2615
  964MOL0     C30007   9.765   3.746   0.653  0.3814 -0.2234 -0.0397
  964MOL0     O30008   9.705   3.838   0.736  0.5903 -0.3909 -0.4309
  964MOL0     C30009   9.569   3.819   0.752  0.3654 -0.5188 -0.5496
  964MOL0     C30010   9.509   3.706   0.792 -0.7108  0.7111 -0.3246
  964MOL0     C30011   9.372   3.702   0.831  0.2012 -0.5337 -0.2597
  964MOL0     C30012   9.292   3.822   0.830  0.2516  0.3307 -0.3275
  964MOL0     O30013   9.158   3.817   0.854  0.3108  0.8983  0.1139
  964MOL0     C30014   9.090   3.696   0.896 -0.4798  0.1720 -0.0401
  964MOL0     C30015   8.946   3.720   0.918  0.0296 -0.4821  0.2932
  964MOL0     C30016   8.855   3.592   0.914 -0.6540 -1.5294 -0.6609
  964MOL0     C30017   8.920   3.471   0.984  1.0148 -0.3091  1.5751
  964MOL0     C30018   8.845   3.341   0.952 -0.5360 -0.3740  1.3340
  964MOL0     C30019   8.693   3.328   0.980  0.4609 -0.0470 -0.8456
  964MOL0     C30020   8.656   3.376   1.125 -0.1291  0.0576  0.0813
  964MOL0     C30021   8.516   3.325   1.163  0.4530 -0.2182  0.6102
  964MOL0     N30022   8.446   3.410   1.269  0.1286 -0.1682 -0.2068
  964MOL0     C30023   8.495   3.499   1.358  0.0495 -0.0357  0.2077
  964MOL0     C30024   8.383   3.544   1.427  0.8206  0.1422  0.1438
  964MOL0     C30025   8.382   3.650   1.529  0.5757  0.3219 -1.1748
  964MOL0     C30026   8.450   3.612   1.659 -0.0255  0.4756  0.8990
  964MOL0     C30027   8.370   3.516   1.747  1.0408  0.2680 -0.9982
  964MOL0     C30028   8.458   3.445   1.840  1.0744 -0.2620  0.7135
  964MOL0     O30029   8.401   3.376   1.952  0.8323  0.1262  0.0791
  964MOL0     C30030   8.334   3.268   1.916  0.4400 -0.1367 -0.0168
  964MOL0     C30031   8.202   3.268   1.878 -0.6290 -0.5311  1.0509
  964MOL0     C30032   8.139   3.148   1.850  1.1723 -0.5178 -0.3084
  964MOL0     C30033   7.997   3.158   1.821  0.1111 -0.3588  0.4592
  964MOL0     C30034   8.197   3.018   1.861 -0.7617 -0.6683  0.0313
  964MOL0     C30035   8.144   2.886   1.827 -0.1406 -0.1025  0.7453
  964MOL0     O30036   8.217   2.780   1.854  0.2254  0.0015 -0.7829
  964MOL0     C30037   8.175   2.656   1.810  0.5246 -0.7165 -1.1351
  964MOL0     C30038   8.159   2.628   1.674 -0.3189 -0.2261 -1.0293
  964MOL0     C30039   8.123   2.498   1.644 -0.0578 -0.0152  0.1826
  964MOL0     C30040   8.094   2.396   1.737 -0.7514 -0.1718 -0.1090
  964MOL0     O30041   8.030   2.277   1.716 -0.5746  0.1354  0.3942
  964MOL0     C30042   7.970   2.248   1.593 -0.7542 -0.7992  0.5981
  964MOL0     C30043   7.905   2.114   1.599 -0.3836 -0.0555 -0.6966
  964MOL0     C30044   7.819   2.085   1.479 -0.0571  0.2909  0.2268
  964MOL0     C30045   7.775   1.934   1.457 -0.0969 -0.3917 -0.3099
  964MOL0     C30046   7.683   1.920   1.332 -0.3100 -0.2126 -0.3012
  964MOL0     C30047   7.746   1.892   1.204 -0.4675 -0.1578  0.1015
  964MOL0     C30048   7.644   1.864   1.094  0.0291  0.0639  0.9744
  964MOL0     C30049   7.508   1.949   1.096  0.0669  0.4733  1.1046
  964MOL0    Cl30050   7.522   2.099   0.992 -0.1898 -0.1996 -0.2854
  964MOL0     C30051   8.109   2.433   1.874 -0.2878  0.6452 -0.0298
  964MOL0     C30052   8.159   2.558   1.906 -0.2299  0.4349  0.4514
  964MOL0     O30053   8.033   2.882   1.779  0.0042 -0.2922 -0.5670
  964MOL0     C30054   8.329   3.024   1.913  0.4877 -1.0966 -0.6240
  964MOL0     C30055   8.398   3.147   1.935 -0.1358  0.1336  0.8388
  964MOL0     N30056   8.265   3.480   1.379 -0.5348  0.5220 -0.6135
  964MOL0     N30057   8.307   3.392   1.293  0.3619  0.3277 -0.4358
  964MOL0     C30058   9.347   3.937   0.790 -0.8917 -1.3197  0.8762
  964MOL0     C30059   9.488   3.938   0.764  0.7392  1.5409 -0.1395
  964MOL0     C30060   9.913   3.762   0.636  0.6331 -0.1183  0.4862
  964MOL0     C30061   9.992   3.822   0.731 -0.0882  0.4710 -0.1956
  964MOL0     C30062  10.132   3.835   0.716 -0.2394  0.1399  0.4654
  964MOL0     C30063  10.193   3.778   0.600  0.5460 -0.2645  0.6658
  964MOL0     O30064  10.327   3.793   0.573  0.8778  0.0206  0.2680
  964MOL0     C30065  10.414   3.736   0.673 -0.0458 -0.2201  0.2366
  964MOL0     C30066  10.427   3.584   0.637  0.1261  0.2206  0.3922
  964MOL0     C30067  10.348   3.487   0.728 -0.3915 -0.1549 -0.6620
  964MOL0     C30068  10.403   3.476   0.872  0.5172  0.1036 -0.1677
  964MOL0     C30069  10.539   3.426   0.867 -0.1227 -0.4508  0.4847
  964MOL0     C30070  10.657   3.391   0.855 -0.8690 -0.0951 -0.1274
  964MOL0     C30071  10.113   3.737   0.501 -0.1453  0.9198  0.1288
  964MOL0     C30072   9.978   3.724   0.517  0.4498 -0.2326  0.0966
  964MOL0     H30073   9.566   3.614   0.793 -1.8750 -0.0213  0.5400
  964MOL0     H30074   9.319   3.609   0.851 -0.8490  0.0173 -0.4046
  964MOL0     H30075   9.106   3.620   0.819  2.6081  0.3245  0.3123
  964MOL0     H30076   9.136   3.642   0.979 -1.9280 -1.6534 -0.3609
  964MOL0     H30077   8.939   3.765   1.017 -0.8816  0.9409 -0.3817
  964MOL0     H30078   8.908   3.804   0.859 -0.4521  0.6151  2.0959
  964MOL0     H30079   8.756   3.618   0.953 -2.0104 -1.1923 -3.9686
  964MOL0     H30080   8.842   3.580   0.806  0.5156  0.2802 -1.0431
  964MOL0     H30081   9.024   3.452   0.955 -0.0115 -1.2573 -1.9736
  964MOL0     H30082   8.917   3.481   1.093  1.0825  1.6647  1.4324
  964MOL0     H30083   8.880   3.291   0.862 -1.7716  1.5530 -0.3186
  964MOL0     H30084   8.884   3.278   1.032  1.6444  1.0366  1.4841
  964MOL0     H30085   8.643   3.380   0.897  0.2331  2.7484  0.8819
  964MOL0     H30086   8.665   3.223   0.970 -1.5691  0.1105  2.0120
  964MOL0     H30087   8.724   3.343   1.204  1.2764 -0.6212 -1.3424
  964MOL0     H30088   8.675   3.484   1.125  0.4543 -0.0416 -0.2128
  964MOL0     H30089   8.531   3.220   1.191  0.2475 -0.5882 -0.5724
  964MOL0     H30090   8.440   3.331   1.084  0.9967 -3.1734 -0.2940
  964MOL0     H30091   8.594   3.540   1.370 -0.5405  1.2883  0.6984
  964MOL0     H30092   8.418   3.740   1.477 -2.1587  1.3256 -1.5235
  964MOL0     H30093   8.278   3.680   1.544  0.1542 -1.7309  0.5159
  964MOL0     H30094   8.480   3.703   1.710 -1.8766  2.2921 -1.0661
  964MOL0     H30095   8.541   3.559   1.628  0.2299 -1.1543  4.0826
  964MOL0     H30096   8.314   3.435   1.697  1.7213 -0.6069 -0.3784
  964MOL0     H30097   8.294   3.575   1.799 -0.0727 -0.0566 -2.2041
  964MOL0     H30098   8.531   3.518   1.875  2.0304  0.1951 -2.0039
  964MOL0     H30099   8.509   3.372   1.777  0.3637  1.1015 -1.5708
  964MOL0     H30100   8.152   3.364   1.869 -0.2306 -0.3748  0.4013
  964MOL0     H30101   7.975   3.122   1.720  0.4086  2.9535 -0.9156
  964MOL0     H30102   7.941   3.092   1.887 -1.6930 -0.4642 -1.1160
  964MOL0     H30103   7.953   3.257   1.836 -0.2665 -0.5337  0.4956
  964MOL0     H30104   8.172   2.704   1.598  1.7991 -2.1919 -2.7924
  964MOL0     H30105   8.119   2.465   1.540 -2.0353 -1.9147  0.7959
  964MOL0     H30106   7.901   2.332   1.581  0.4836  0.3665  1.3694
  964MOL0     H30107   8.039   2.255   1.508  0.0170  0.4757  1.3004
  964MOL0     H30108   7.987   2.042   1.604  0.6024  1.0480 -0.3749
  964MOL0     H30109   7.854   2.101   1.696  0.2147  0.2506 -0.3364
  964MOL0     H30110   7.873   2.113   1.388 -1.4432 -1.9343 -1.3742
  964MOL0     H30111   7.728   2.146   1.486  0.1133  0.6533 -0.5953
  964MOL0     H30112   7.871   1.886   1.434  0.9345  2.8071 -3.6774
  964MOL0     H30113   7.725   1.889   1.543  0.1933  1.5865  0.9565
  964MOL0     H30114   7.635   2.018   1.319 -1.4712 -0.9559 -2.0245
  964MOL0     H30115   7.598   1.852   1.345 -0.9470  0.4531 -0.8274
  964MOL0     H30116   7.810   1.977   1.179  1.0159 -0.4609  2.5143
  964MOL0     H30117   7.825   1.817   1.218 -0.7016 -0.0502  2.4766
  964MOL0     H30118   7.623   1.757   1.104  2.2891 -0.7977 -2.0221
  964MOL0     H30119   7.686   1.871   0.993 -3.6699 -0.9993 -0.7907
  964MOL0     H30120   7.472   1.971   1.197 -1.8737 -0.9502  0.7736
  964MOL0     H30121   7.431   1.884   1.055 -1.6381  2.7524  0.4567
  964MOL0     H30122   8.070   2.377   1.959  0.9734  0.0509  0.1760
  964MOL0     H30123   8.171   2.581   2.011  0.8683 -1.2639  0.7423
  964MOL0     H30124   8.382   2.930   1.927  0.5542 -0.6503  2.9673
  964MOL0     H30125   8.506   3.145   1.948  0.9690  2.2873 -4.8659
  964MOL0     H30126   9.302   4.035   0.776  1.6681 -0.4189 -2.0635
  964MOL0     H30127   9.542   4.029   0.746  2.3469  0.4615 -0.9983
  964MOL0     H30128   9.944   3.869   0.817  2.0871  0.9176  0.8393
  964MOL0     H30129  10.191   3.894   0.785 -1.7368  0.5662  1.4171
  964MOL0     H30130  10.510   3.788   0.668  0.6024 -0.8740  3.5807
  964MOL0     H30131  10.378   3.759   0.774  0.7337 -1.6074  0.8469
  964MOL0     H30132  10.531   3.549   0.633 -0.8551 -3.2049  1.7291
  964MOL0     H30133  10.386   3.564   0.538 -0.3103  1.8704  0.1983
  964MOL0     H30134  10.338   3.381   0.701  1.1825 -2.0371  4.8380
  964MOL0     H30135  10.243   3.515   0.739 -1.4698 -3.8697 -0.1223
  964MOL0     H30136  10.343   3.403   0.927  0.3072 -0.5199 -1.1978
  964MOL0     H30137  10.403   3.571   0.925  1.4747 -0.1002  0.2109
  964MOL0     H30138  10.761   3.364   0.856 -0.1411  2.3943 -0.8539
  964MOL0     H30139  10.160   3.686   0.418  4.4827  0.4304  2.6484
  964MOL0     H30140   9.934   3.682   0.428  3.0827  1.3322 -2.1148
  965MOL0     O30141   3.385   0.287   6.676 -0.3052  0.0574  0.2770
  965MOL0     C30142   3.502   0.330   6.682 -0.5766 -0.2077  0.8544
  965MOL0     O30143   3.565   0.382   6.789 -0.0310  0.7254  0.4793
  965MOL0     C30144   3.495   0.376   6.908  0.2945  0.1471 -0.1275
  965MOL0     C30145   3.488   0.253   6.987  0.1554 -0.5357  0.0623
  965MOL0     C30146   3.423   0.250   7.114 -0.0270  0.9437  0.0828
  965MOL0     C30147   3.366   0.372   7.160  0.9717 -0.5820  0.1260
  965MOL0     O30148   3.313   0.380   7.288  0.0736  0.4191  0.5410
  965MOL0     C30149   3.424   0.398   7.391 -0.0240 -0.7455 -0.2635
  965MOL0     C30150   3.354   0.391   7.529 -0.2451  0.3303 -0.5665
  965MOL0     C30151   3.289   0.526   7.564 -0.7959  0.2399  0.7347
  965MOL0     C30152   3.312   0.548   7.716  0.3533  0.3316  0.8602
  965MOL0     C30153   3.247   0.680   7.765  0.0619  0.5077  1.1846
  965MOL0     C30154   3.314   0.745   7.883 -0.3183  0.2592 -0.5240
  965MOL0     C30155   3.225   0.848   7.957  0.1096  0.3377  0.4380
  965MOL0     C30156   3.186   0.971   7.870 -0.4295  0.0689 -0.9650
  965MOL0     N30157   3.140   1.086   7.956  0.4159 -0.4806  0.3379
  965MOL0     C30158   3.000   1.115   7.959 -0.2199  0.2685  0.9746
  965MOL0     C30159   2.997   1.237   8.021 -0.9434  0.4110 -0.2565
  965MOL0     C30160   2.869   1.308   8.064  0.1418  0.2979  0.3310
  965MOL0     C30161   2.829   1.289   8.210 -0.1138 -0.8427 -0.6563
  965MOL0     C30162   2.708   1.376   8.249  0.3423  0.7319 -0.1837
  965MOL0     C30163   2.649   1.311   8.374  0.3363 -0.2409 -0.1950
  965MOL0     O30164   2.585   1.186   8.342 -1.0574 -0.3047 -0.2814
  965MOL0     C30165   2.449   1.186   8.326 -0.2604  0.0968 -0.5884
  965MOL0     C30166   2.372   1.284   8.261 -0.1518  0.0712  0.0877
  965MOL0     C30167   2.226   1.266   8.239 -0.8019  0.1256  0.2971
  965MOL0     C30168   2.154   1.386   8.184  0.0842  0.1656  0.2810
  965MOL0     C30169   2.170   1.147   8.289  0.8975  0.0607  0.2604
  965MOL0     C30170   2.027   1.122   8.284  0.7903  0.9401  0.4222
  965MOL0     O30171   1.946   1.177   8.183 -0.6752  0.1229 -0.2942
  965MOL0     C30172   1.819   1.124   8.180 -0.8875  0.7898 -0.5191
  965MOL0     C30173   1.711   1.168   8.263  0.0183  0.1698  0.4026
  965MOL0     C30174   1.586   1.108   8.255  0.6344 -0.0780 -0.3495
  965MOL0     C30175   1.553   1.018   8.165  0.4027  0.9240 -0.7782
  965MOL0     O30176   1.421   0.983   8.154  0.0542 -0.8653  0.4290
  965MOL0     C30177   1.391   0.844   8.129  0.4705  0.4386 -0.2768
  965MOL0     C30178   1.472   0.762   8.227  0.5952  1.0184 -0.4014
  965MOL0     C30179   1.435   0.617   8.233 -0.9425  0.8742 -0.3308
  965MOL0     C30180   1.452   0.551   8.094  0.2847 -0.2240 -0.4013
  965MOL0     C30181   1.483   0.405   8.120 -0.2343  0.6122  0.6672
  965MOL0     C30182   1.384   0.330   8.211  0.2866  0.1951  0.6946
  965MOL0     C30183   1.415   0.188   8.223 -0.2209 -0.2828 -1.0331
  965MOL0     C30184   1.384   0.103   8.094  0.0988  0.5543 -0.5940
  965MOL0    Cl30185   1.415  -0.071   8.112 -0.2851 -0.2557 -0.4536
  965MOL0     C30186   1.659   0.973   8.078  0.9953  0.3052  0.0454
  965MOL0     C30187   1.789   1.017   8.087 -0.2348 -0.2834  0.0378
  965MOL0     O30188   1.981   1.045   8.371 -0.6832  0.7598 -0.2586
  965MOL0     C30189   2.249   1.056   8.357 -0.0634  0.9283 -0.5467
  965MOL0     C30190   2.388   1.068   8.373  0.0070 -0.2327 -0.4913
  965MOL0     N30191   3.123   1.281   8.040  1.2965 -0.0640 -0.1685
  965MOL0     N30192   3.205   1.196   8.004  0.0375 -0.1389  0.1016
  965MOL0     C30193   3.379   0.497   7.093 -1.0257 -0.0260 -0.4250
  965MOL0     C30194   3.430   0.495   6.964 -0.2228 -0.0766  0.6732
  965MOL0     C30195   3.570   0.344   6.547 -1.2580 -0.1133 -0.9672
  965MOL0     C30196   3.536   0.254   6.447 -0.3242  0.8402  0.3397
  965MOL0     C30197   3.587   0.268   6.325 -0.9137 -0.0279 -0.5811
  965MOL0     C30198   3.697   0.362   6.292  0.2879 -0.0681  0.3635
  965MOL0     O30199   3.755   0.385   6.165  1.0466 -0.2047  0.1358
  965MOL0     C30200   3.697   0.317   6.058 -0.7645 -0.9446  0.7972
  965MOL0     C30201   3.767   0.183   6.043 -1.1393 -0.5829  0.0690
  965MOL0     C30202   3.907   0.187   5.988 -0.8530  0.5117  0.2764
  965MOL0     C30203   3.950   0.041   5.970 -0.2653  0.4145 -0.0254
  965MOL0     C30204   4.067   0.027   5.886  0.0624  0.6790 -0.5397
  965MOL0     C30205   4.165   0.028   5.807  0.6271  0.3939 -0.1173
  965MOL0     C30206   3.740   0.438   6.401  0.0973 -0.5637  0.7165
  965MOL0     C30207   3.674   0.436   6.525 -0.1155  1.2870  0.3102
  965MOL0     H30208   3.527   0.160   6.947  3.7860  1.6893 -2.1256
  965MOL0     H30209   3.431   0.167   7.183  2.4175 -1.9494 -3.3464
  965MOL0     H30210   3.487   0.309   7.384 -0.9150 -1.4122  0.0299
  965MOL0     H30211   3.487   0.487   7.382 -0.5256 -0.5313 -2.0463
  965MOL0     H30212   3.282   0.310   7.521  0.6323 -0.7485  1.4963
  965MOL0     H30213   3.427   0.356   7.603  1.4783  2.6353 -1.0677
  965MOL0     H30214   3.315   0.601   7.488 -0.2605 -0.7391 -0.0716
  965MOL0     H30215   3.180   0.523   7.549 -0.5325 -0.6277 -1.3940
  965MOL0     H30216   3.254   0.472   7.771 -0.2031 -1.3905 -1.9122
  965MOL0     H30217   3.419   0.549   7.739  2.1651 -1.1056 -5.6010
  965MOL0     H30218   3.257   0.764   7.695  2.2621 -0.0605  0.7475
  965MOL0     H30219   3.140   0.662   7.782  0.3099 -0.1798  2.0986
  965MOL0     H30220   3.357   0.674   7.955  0.8200  1.8987  0.4992
  965MOL0     H30221   3.402   0.794   7.841 -2.1190  1.9905 -2.4640
  965MOL0     H30222   3.133   0.797   7.985 -0.7726  2.5119  1.7682
  965MOL0     H30223   3.278   0.880   8.048  0.3674  1.7624 -0.1875
  965MOL0     H30224   3.110   0.935   7.800 -0.8557 -0.2081 -0.3621
  965MOL0     H30225   3.272   1.006   7.812 -1.0635  0.5628 -1.6183
  965MOL0     H30226   2.919   1.057   7.916  1.6619  0.0172 -2.6163
  965MOL0     H30227   2.901   1.412   8.057  1.8497 -0.2404 -0.5137
  965MOL0     H30228   2.786   1.282   7.998  0.6603 -2.3419  0.6093
  965MOL0     H30229   2.921   1.310   8.266 -2.2196  2.0353  2.1205
  965MOL0     H30230   2.806   1.184   8.228  1.0402 -1.1429 -0.8247
  965MOL0     H30231   2.635   1.381   8.167  0.0859  0.9520  0.0607
  965MOL0     H30232   2.736   1.478   8.275 -2.7487  1.1249  2.0440
  965MOL0     H30233   2.579   1.384   8.416  0.5492 -0.3727  0.3931
  965MOL0     H30234   2.721   1.298   8.455 -1.9033 -0.7986  1.8339
  965MOL0     H30235   2.411   1.378   8.225  0.3014  1.2147  3.2799
  965MOL0     H30236   2.079   1.418   8.257 -0.1678 -0.9400  0.5255
  965MOL0     H30237   2.227   1.463   8.157  0.6147 -0.2270  0.5802
  965MOL0     H30238   2.123   1.356   8.083  2.7078  0.7005 -0.7722
  965MOL0     H30239   1.722   1.263   8.314 -3.5939  1.2094 -0.4827
  965MOL0     H30240   1.503   1.144   8.315  0.6923 -2.1762  1.1153
  965MOL0     H30241   1.284   0.822   8.141  0.7006 -1.4074 -1.2583
  965MOL0     H30242   1.405   0.813   8.025  1.2969  0.1621 -0.0917
  965MOL0     H30243   1.578   0.775   8.207  0.9055 -0.5154  0.1013
  965MOL0     H30244   1.458   0.781   8.334 -3.0803 -1.7902 -0.1741
  965MOL0     H30245   1.333   0.612   8.272  0.1741  1.9353  3.0752
  965MOL0     H30246   1.513   0.572   8.294  0.2857  0.4225 -2.1534
  965MOL0     H30247   1.360   0.561   8.036  0.2598 -1.0438 -0.5212
  965MOL0     H30248   1.529   0.589   8.027 -0.4545  1.7986 -0.1625
  965MOL0     H30249   1.588   0.384   8.143 -0.1788 -1.9452 -1.3744
  965MOL0     H30250   1.481   0.348   8.026  2.8786 -2.1953  2.0897
  965MOL0     H30251   1.384   0.383   8.306 -1.3485  1.8302 -0.1503
  965MOL0     H30252   1.287   0.348   8.163  1.7422  3.7626 -1.3175
  965MOL0     H30253   1.340   0.153   8.295  1.4826 -1.7419  0.1014
  965MOL0     H30254   1.514   0.176   8.267  1.2976  1.2606 -3.7458
  965MOL0     H30255   1.453   0.148   8.023  3.0775  0.1999  1.8676
  965MOL0     H30256   1.280   0.125   8.068 -0.1444  0.7860  0.5266
  965MOL0     H30257   1.638   0.896   8.005 -2.1260 -0.8603  1.9929
  965MOL0     H30258   1.859   0.973   8.016 -1.5436  1.2151 -2.3297
  965MOL0     H30259   2.206   0.968   8.404 -0.7985 -0.2418 -3.1981
  965MOL0     H30260   2.452   0.994   8.420 -0.2720 -0.5963 -0.6727
  965MOL0     H30261   3.319   0.580   7.130 -0.9231 -0.6406  1.1813
  965MOL0     H30262   3.427   0.592   6.915 -1.0466  0.1468  1.1340
  965MOL0     H30263   3.467   0.172   6.463 -0.0935  0.4687 -0.5438
  965MOL0     H30264   3.545   0.198   6.253 -2.8183 -1.4737  1.7710
  965MOL0     H30265   3.590   0.296   6.063 -0.8446 -0.3301  1.8593
  965MOL0     H30266   3.718   0.379   5.970 -0.3325 -0.2860  1.3508
  965MOL0     H30267   3.710   0.125   5.970  0.0024 -0.0698 -1.2872
  965MOL0     H30268   3.759   0.135   6.141 -3.0017  1.5046  1.0254
  965MOL0     H30269   3.975   0.246   6.050  0.7643 -0.5014 -0.4534
  965MOL0     H30270   3.907   0.234   5.889  0.1723  1.3616  0.6665
  965MOL0     H30271   3.865  -0.010   5.923  0.4741  1.2338 -2.4048
  965MOL0     H30272   3.955   0.002   6.072  0.8554  2.7263  0.8612
  965MOL0     H30273   4.240   0.028   5.730 -0.9772 -1.2442 -1.8177
  965MOL0     H30274   3.820   0.512   6.399  1.1695 -1.6109  2.3153
  965MOL0     H30275   3.698   0.512   6.597  0.8253  1.4518 -0.1564
  966MOL0     O30276   4.525   0.759   1.270 -0.0474  0.9135  0.4377
  966MOL0     C30277   4.523   0.708   1.379 -0.0351  0.4634 -0.2546
  966MOL0     O30278   4.405   0.687   1.449  0.1775 -0.2559 -0.1256
  966MOL0     C30279   4.284   0.733   1.409  0.1302  0.1494  0.5840
  966MOL0     C30280   4.264   0.876   1.416 -0.8526  0.4866 -1.0789
  966MOL0     C30281   4.133   0.923   1.393 -0.0299 -1.0417  0.2639
  966MOL0     C30282   4.030   0.832   1.359  0.0607  0.3411 -0.4831
  966MOL0     O30283   3.907   0.883   1.324  0.2442 -0.3092  0.0927
  966MOL0     C30284   3.843   0.994   1.378 -0.1967  0.1662 -1.3096
  966MOL0     C30285   3.691   0.992   1.380 -0.0773  0.1102 -0.4136
  966MOL0     C30286   3.633   1.137   1.404 -0.1079  0.4526 -0.3374
  966MOL0     C30287   3.534   1.189   1.289 -0.4500 -0.5817 -0.7447
  966MOL0     C30288   3.391   1.138   1.298  0.5242 -0.4438 -0.3928
  966MOL0     C30289   3.322   1.162   1.433  0.3378 -0.0393 -0.3431
  966MOL0     C30290   3.338   1.299   1.500  0.3986 -0.4796  0.2204
  966MOL0     C30291   3.275   1.317   1.638  0.2696 -0.5591 -0.6646
  966MOL0     N30292   3.322   1.210   1.716 -0.0422  0.1406 -0.5230
  966MOL0     C30293   3.444   1.196   1.777 -0.9894  0.7591 -0.6600
  966MOL0     C30294   3.429   1.091   1.860 -0.6363  0.9199 -0.8893
  966MOL0     C30295   3.543   1.024   1.937  0.1044  0.0923 -0.0337
  966MOL0     C30296   3.581   0.885   1.881  0.1838  1.0053  0.2874
  966MOL0     C30297   3.688   0.829   1.972 -0.4813 -0.0577  0.2863
  966MOL0     C30298   3.647   0.823   2.124  0.6023 -0.2997  0.1675
  966MOL0     O30299   3.714   0.728   2.203  0.1762 -0.2943  0.5547
  966MOL0     C30300   3.848   0.748   2.221  0.5541  0.3792  1.2134
  966MOL0     C30301   3.925   0.858   2.183  0.4786  0.4502 -0.2303
  966MOL0     C30302   4.061   0.858   2.198 -0.4100  0.4073 -0.4224
  966MOL0     C30303   4.136   0.993   2.164  0.6059  0.5531  0.0469
  966MOL0     C30304   4.131   0.746   2.269  0.3614  0.9121  0.2457
  966MOL0     C30305   4.277   0.736   2.290 -1.1030 -0.3872  0.0616
  966MOL0     O30306   4.343   0.859   2.278  0.7161  0.4679  0.3884
  966MOL0     C30307   4.480   0.863   2.311  0.0715  0.1955  0.4666
  966MOL0     C30308   4.520   0.953   2.410  0.2635  0.3251 -0.1791
  966MOL0     C30309   4.657   0.972   2.437  0.0083  0.5667 -0.1992
  966MOL0     C30310   4.753   0.904   2.356  0.1818  0.8248 -0.3848
  966MOL0     O30311   4.889   0.937   2.366  0.4739  0.2339  0.0675
  966MOL0     C30312   4.945   0.979   2.491 -0.8287 -0.2815 -0.2144
  966MOL0     C30313   5.103   0.987   2.490 -1.2188  0.1493 -0.7445
  966MOL0     C30314   5.158   1.042   2.624 -0.6051 -1.0280 -0.5069
  966MOL0     C30315   5.307   1.035   2.630 -0.7760  0.2161  0.3886
  966MOL0     C30316   5.357   0.919   2.711  0.1159  0.2012  0.4054
  966MOL0     C30317   5.502   0.922   2.714  0.4846 -0.2204  0.8135
  966MOL0     C30318   5.565   0.819   2.809 -0.2704 -0.0963  0.1102
  966MOL0     C30319   5.705   0.867   2.837 -0.3823 -0.1837  0.0100
  966MOL0    Cl30320   5.795   0.865   2.680  0.1994  0.1422 -0.0475
  966MOL0     C30321   4.714   0.823   2.254 -0.1559  0.4760  0.3645
  966MOL0     C30322   4.576   0.806   2.226  0.0515 -0.4335 -0.0898
  966MOL0     O30323   4.333   0.625   2.300  0.0884 -0.7265  0.3111
  966MOL0     C30324   4.045   0.640   2.309 -0.6424 -0.4553 -0.2720
  966MOL0     C30325   3.908   0.643   2.287 -0.3629  0.9855 -0.2387
  966MOL0     N30326   3.294   1.047   1.856 -0.6515  0.0284 -0.3566
  966MOL0     N30327   3.242   1.119   1.757 -0.3147  0.4117 -0.4508
  966MOL0     C30328   4.055   0.694   1.345  0.3879  0.5415 -0.4262
  966MOL0     C30329   4.180   0.645   1.375  0.1346 -0.2338 -0.8036
  966MOL0     C30330   4.643   0.669   1.446 -0.5154 -0.0352 -0.6565
  966MOL0     C30331   4.630   0.580   1.552  0.1242  0.9549 -0.7846
  966MOL0     C30332   4.747   0.518   1.610  0.2531 -0.4757  0.5820
  966MOL0     C30333   4.876   0.557   1.561  0.6832 -0.0933  0.2114
  966MOL0     O30334   4.984   0.519   1.633  0.2243 -0.6148 -0.5650
  966MOL0     C30335   5.070   0.634   1.642 -0.0125 -0.3795  0.7767
  966MOL0     C30336   5.145   0.612   1.769 -1.0818  0.2096  0.4701
  966MOL0     C30337   5.066   0.649   1.896 -0.3287  0.7094 -0.3455
  966MOL0     C30338   5.127   0.581   2.021  0.7135  0.1564 -0.0572
  966MOL0     C30339   5.068   0.636   2.143  0.7568 -0.4041  0.1693
  966MOL0     C30340   5.036   0.680   2.252  0.1403 -0.0834  0.5300
  966MOL0     C30341   4.876   0.652   1.453  0.3159  0.0809  0.8079
  966MOL0     C30342   4.767   0.705   1.403  0.0951 -0.5213 -0.2865
  966MOL0     H30343   4.349   0.937   1.442  0.2862 -1.7032  0.6684
  966MOL0     H30344   4.107   1.028   1.399 -0.7970 -0.9607 -2.6986
  966MOL0     H30345   3.884   1.010   1.478 -1.6933  0.1937 -0.6777
  966MOL0     H30346   3.864   1.085   1.321 -1.1165  2.0863  1.2473
  966MOL0     H30347   3.647   0.953   1.287 -1.5366  0.5490  0.0638
  966MOL0     H30348   3.662   0.931   1.466 -1.6198  0.5870 -0.5655
  966MOL0     H30349   3.577   1.136   1.498  0.1972  2.5171 -0.0981
  966MOL0     H30350   3.718   1.204   1.418  0.6751 -0.7020  0.6188
  966MOL0     H30351   3.535   1.297   1.277 -0.5445 -0.5256 -0.2840
  966MOL0     H30352   3.573   1.153   1.194  0.1665  1.5533 -1.3473
  966MOL0     H30353   3.329   1.200   1.231 -0.8982 -0.3577  0.9361
  966MOL0     H30354   3.397   1.033   1.270  1.7406 -0.4029 -0.3478
  966MOL0     H30355   3.217   1.134   1.424  1.0284 -3.0453  0.1061
  966MOL0     H30356   3.360   1.086   1.502 -1.4344 -0.1343  0.5685
  966MOL0     H30357   3.444   1.323   1.499  0.8554 -2.0942  2.4333
  966MOL0     H30358   3.306   1.373   1.426 -1.3839 -0.9146  0.5050
  966MOL0     H30359   3.167   1.306   1.632  0.2397  0.1758 -1.8162
  966MOL0     H30360   3.302   1.414   1.681  0.8258 -1.3598  0.8643
  966MOL0     H30361   3.541   1.239   1.758 -1.2618  0.5539 -2.7937
  966MOL0     H30362   3.630   1.085   1.913 -1.0448  1.2774 -1.3277
  966MOL0     H30363   3.517   1.035   2.043 -0.6715  0.9919 -0.3055
  966MOL0     H30364   3.619   0.876   1.779  0.5321 -4.6659  0.6047
  966MOL0     H30365   3.488   0.827   1.881 -1.2490  3.1533 -0.8530
  966MOL0     H30366   3.781   0.886   1.971 -1.0536  0.9010 -0.6330
  966MOL0     H30367   3.715   0.729   1.937  0.9226  0.3332  0.1735
  966MOL0     H30368   3.540   0.798   2.129  0.9562 -1.6974  2.2300
  966MOL0     H30369   3.660   0.921   2.171  1.2825 -0.0727 -0.4813
  966MOL0     H30370   3.894   0.953   2.139  0.0050  0.4754  0.1474
  966MOL0     H30371   4.199   0.979   2.076 -1.8515 -0.7504 -1.6432
  966MOL0     H30372   4.067   1.070   2.128 -2.1002 -0.0103  3.5084
  966MOL0     H30373   4.181   1.045   2.249  2.2332 -0.6919 -0.0140
  966MOL0     H30374   4.437   1.002   2.460 -1.6882 -3.3004  0.4489
  966MOL0     H30375   4.685   1.036   2.521  1.0155 -0.7786  0.5284
  966MOL0     H30376   4.914   1.081   2.517 -0.0601 -0.1521  0.2125
  966MOL0     H30377   4.925   0.911   2.574 -0.6906  1.6096  1.4359
  966MOL0     H30378   5.142   0.887   2.467  3.0415  1.4943 -0.1768
  966MOL0     H30379   5.133   1.050   2.406  0.2623  0.3510 -0.0818
  966MOL0     H30380   5.116   0.991   2.712  0.7586 -1.7641 -0.2600
  966MOL0     H30381   5.138   1.149   2.634 -2.1008 -1.1834 -1.5380
  966MOL0     H30382   5.351   1.015   2.531 -0.8919  0.8242  0.2107
  966MOL0     H30383   5.349   1.130   2.664  2.9244 -1.2956  0.5678
  966MOL0     H30384   5.320   0.833   2.655 -2.4784  1.0356  0.6870
  966MOL0     H30385   5.308   0.924   2.809 -1.3067  0.0283 -0.2640
  966MOL0     H30386   5.544   0.915   2.613  1.1830  2.1155  0.8684
  966MOL0     H30387   5.527   1.023   2.750 -2.0968  0.5325  0.6782
  966MOL0     H30388   5.578   0.723   2.760 -3.4090 -2.2525  3.0493
  966MOL0     H30389   5.514   0.811   2.905 -2.2488  1.7064 -0.7164
  966MOL0     H30390   5.761   0.812   2.913  0.0128 -0.4648 -0.4784
  966MOL0     H30391   5.683   0.967   2.874 -0.9914  0.6874 -2.5456
  966MOL0     H30392   4.782   0.787   2.178  1.9372 -2.4086  3.3492
  966MOL0     H30393   4.540   0.749   2.141 -1.9930  1.8902 -0.9264
  966MOL0     H30394   4.092   0.552   2.352  0.0556 -0.3286 -0.7583
  966MOL0     H30395   3.856   0.553   2.316  3.0468 -0.9738  0.3733
  966MOL0     H30396   3.979   0.624   1.312 -1.7414  1.6661  1.6947
  966MOL0     H30397   4.193   0.538   1.365 -1.8525 -0.5184 -0.7899
  966MOL0     H30398   4.536   0.541   1.591 -0.8228  2.0163 -1.9319
  966MOL0     H30399   4.746   0.433   1.677  0.2672 -0.9882 -0.0543
  966MOL0     H30400   5.140   0.641   1.558  1.9793 -4.6846  1.8010
  966MOL0     H30401   5.019   0.730   1.653  2.6057  0.8498  4.2042
  966MOL0     H30402   5.227   0.684   1.772 -0.2443 -0.7220  0.2373
  966MOL0     H30403   5.187   0.511   1.764  3.1528  1.8404 -0.6436
  966MOL0     H30404   4.965   0.609   1.887 -0.2441 -0.3903  2.5178
  966MOL0     H30405   5.076   0.757   1.912  1.4108  0.3129  1.5913
  966MOL0     H30406   5.232   0.612   2.016  0.2672  1.8797  0.5361
  966MOL0     H30407   5.117   0.472   2.016 -1.7858  0.1628  2.7243
  966MOL0     H30408   5.018   0.717   2.351 -0.8651 -1.4249  0.8744
  966MOL0     H30409   4.960   0.709   1.415  0.3071 -0.1726  0.3987
  966MOL0     H30410   4.784   0.765   1.314  0.9301 -0.6238 -0.1997
  967MOL0     O30411   0.239   6.252   5.833 -0.0486  0.2485 -0.0321
  967MOL0     C30412   0.159   6.239   5.737 -0.0052  0.3004  0.4209
  967MOL0     O30413   0.047   6.314   5.715  0.4800 -0.3438 -0.0201
  967MOL0     C30414  -0.010   6.383   5.814 -0.6180  0.9255  0.1822
  967MOL0     C30415  -0.034   6.519   5.796  0.3377  0.2331 -0.2498
  967MOL0     C30416  -0.092   6.592   5.903  0.2337  0.2155 -0.1364
  967MOL0     C30417  -0.133   6.519   6.013  0.7041 -0.2991  0.0019
  967MOL0     O30418  -0.202   6.594   6.104 -0.0797 -0.7649  0.3908
  967MOL0     C30419  -0.333   6.560   6.146 -1.0075  0.0804 -0.6423
  967MOL0     C30420  -0.436   6.601   6.047 -0.4141 -0.2702 -0.3103
  967MOL0     C30421  -0.421   6.746   6.004 -0.2384 -0.4508 -0.5074
  967MOL0     C30422  -0.536   6.782   5.910 -0.4518 -0.1921  0.4981
  967MOL0     C30423  -0.493   6.901   5.827  0.1800 -1.0137 -0.2867
  967MOL0     C30424  -0.616   6.937   5.738  0.1002  0.3616  0.1642
  967MOL0     C30425  -0.689   7.056   5.773  0.5876 -0.9558  0.6177
  967MOL0     C30426  -0.818   7.073   5.694  0.1170 -0.3068 -0.3872
  967MOL0     N30427  -0.877   7.204   5.717 -0.0779 -0.2856  0.6141
  967MOL0     C30428  -0.973   7.262   5.648  0.6490  1.0641 -0.5880
  967MOL0     C30429  -1.023   7.357   5.734  0.2060 -0.1083 -0.8326
  967MOL0     C30430  -1.140   7.452   5.701  0.0612  0.2557  0.0429
  967MOL0     C30431  -1.249   7.441   5.806  0.1233 -0.7537  0.2590
  967MOL0     C30432  -1.372   7.518   5.769  0.0717  0.2856 -0.6565
  967MOL0     C30433  -1.350   7.670   5.774 -0.6236  1.3036  0.0065
  967MOL0     O30434  -1.281   7.706   5.893  0.2594  0.5038  0.0277
  967MOL0     C30435  -1.221   7.828   5.897  0.2303  0.9852 -0.1616
  967MOL0     C30436  -1.252   7.927   5.811 -0.3232 -0.1355 -0.3747
  967MOL0     C30437  -1.167   8.043   5.808 -0.5821 -0.0383 -1.0998
  967MOL0     C30438  -1.207   8.153   5.716  0.4994 -0.1876  0.4105
  967MOL0     C30439  -1.059   8.054   5.914 -0.2236 -0.1722  0.7704
  967MOL0     C30440  -0.961   8.168   5.928 -1.0303 -0.0996  0.5489
  967MOL0     O30441  -0.853   8.158   6.027 -0.2405  0.2030  0.6370
  967MOL0     C30442  -0.741   8.230   5.993 -0.2361  0.2918 -0.4889
  967MOL0     C30443  -0.646   8.176   5.907 -0.6562 -1.0486 -0.4744
  967MOL0     C30444  -0.524   8.247   5.895  0.9265 -0.2205  0.7208
  967MOL0     C30445  -0.516   8.379   5.943 -0.6827  0.3434  0.5778
  967MOL0     O30446  -0.394   8.447   5.942 -0.2768 -0.5254  0.0882
  967MOL0     C30447  -0.337   8.469   5.808 -0.5656  0.5554 -0.2717
  967MOL0     C30448  -0.386   8.601   5.749 -0.7851 -0.8795 -0.3594
  967MOL0     C30449  -0.274   8.707   5.717  0.8972 -0.4027  0.3866
  967MOL0     C30450  -0.346   8.833   5.652 -0.2094  0.3344 -0.2326
  967MOL0     C30451  -0.263   8.959   5.672 -0.8463 -0.1254  0.3635
  967MOL0     C30452  -0.138   8.937   5.579 -0.2430 -0.3733 -0.5176
  967MOL0     C30453  -0.071   9.059   5.524 -0.3467  0.8853  0.1896
  967MOL0     C30454   0.054   9.085   5.612  0.2818 -0.2970  0.5787
  967MOL0    Cl30455   0.211   9.001   5.585  0.0577 -0.1604  0.1759
  967MOL0     C30456  -0.615   8.430   6.023 -0.3658 -0.4171 -0.1706
  967MOL0     C30457  -0.723   8.351   6.046  0.0605 -0.4497 -0.0823
  967MOL0     O30458  -0.961   8.252   5.838 -1.0048  0.0733 -0.8034
  967MOL0     C30459  -1.034   7.954   5.995 -0.5949 -0.4431  0.3204
  967MOL0     C30460  -1.113   7.835   5.990 -0.3810  0.3971  0.3886
  967MOL0     N30461  -0.940   7.368   5.849  0.3290 -1.0391  0.1646
  967MOL0     N30462  -0.854   7.268   5.833 -0.5945  0.8310  0.0800
  967MOL0     C30463  -0.102   6.384   6.035  0.8663  0.0550  0.7039
  967MOL0     C30464  -0.043   6.312   5.932 -0.5363  0.4369 -0.0370
  967MOL0     C30465   0.213   6.150   5.629 -0.1970  0.4799 -0.3142
  967MOL0     C30466   0.324   6.062   5.644  0.5935  0.2462 -0.4632
  967MOL0     C30467   0.376   5.988   5.544 -0.5118  0.8029  0.0697
  967MOL0     C30468   0.316   6.001   5.418 -0.0932 -0.1378 -0.2745
  967MOL0     O30469   0.351   5.922   5.307 -0.0302 -0.2808  0.1019
  967MOL0     C30470   0.493   5.927   5.275  0.4499 -0.0244 -0.7753
  967MOL0     C30471   0.514   5.943   5.125  0.6196 -0.0316 -0.4898
  967MOL0     C30472   0.658   5.937   5.097 -0.6266 -0.5772  0.9444
  967MOL0     C30473   0.689   5.939   4.941  0.9288 -0.7486  0.5758
  967MOL0     C30474   0.833   5.917   4.917  0.7843  0.5720 -0.3079
  967MOL0     C30475   0.953   5.908   4.896 -0.3225  0.5615 -0.4075
  967MOL0     C30476   0.191   6.067   5.402 -0.3790  0.0626 -1.0635
  967MOL0     C30477   0.138   6.142   5.504  1.5390 -0.3889  0.1238
  967MOL0     H30478  -0.009   6.570   5.703 -0.4826  1.9652  0.4251
  967MOL0     H30479  -0.104   6.700   5.899  1.1391  0.3945  1.1286
  967MOL0     H30480  -0.340   6.456   6.179  0.9663  0.5780  1.6577
  967MOL0     H30481  -0.341   6.609   6.243 -0.1610 -2.1521  0.6425
  967MOL0     H30482  -0.415   6.535   5.962  4.4571  0.4498  0.0369
  967MOL0     H30483  -0.535   6.584   6.090 -1.2367  0.8882 -1.6504
  967MOL0     H30484  -0.409   6.822   6.081  0.2692  2.1884 -3.0130
  967MOL0     H30485  -0.326   6.760   5.950  0.2318 -1.8373 -0.0999
  967MOL0     H30486  -0.565   6.699   5.844 -1.1636  0.8044 -0.4786
  967MOL0     H30487  -0.624   6.803   5.971 -1.4458 -1.9888 -0.2269
  967MOL0     H30488  -0.461   6.986   5.889 -1.7993 -0.4847  0.0765
  967MOL0     H30489  -0.414   6.861   5.763  0.5233 -2.3420  0.8837
  967MOL0     H30490  -0.588   6.963   5.636 -0.7773 -1.2716 -0.5402
  967MOL0     H30491  -0.686   6.856   5.715  0.9377  0.2189 -2.1033
  967MOL0     H30492  -0.708   7.066   5.880  1.9844  3.9184  0.6378
  967MOL0     H30493  -0.618   7.134   5.744 -0.8374  0.4278  0.6681
  967MOL0     H30494  -0.885   6.996   5.731  0.6199 -1.3106 -1.4982
  967MOL0     H30495  -0.801   7.063   5.586 -0.2250  0.3602 -0.5097
  967MOL0     H30496  -1.018   7.232   5.554 -0.3665  0.5239  0.0558
  967MOL0     H30497  -1.101   7.554   5.698  1.0797 -0.1205  0.0808
  967MOL0     H30498  -1.184   7.425   5.604 -0.9646 -0.5672  0.7136
  967MOL0     H30499  -1.217   7.482   5.902 -0.4660 -1.6821  0.8682
  967MOL0     H30500  -1.275   7.335   5.807 -0.5909 -0.8031 -4.2330
  967MOL0     H30501  -1.442   7.497   5.851  1.5986 -2.0474  0.1460
  967MOL0     H30502  -1.421   7.483   5.678 -1.8392  0.0041  0.4331
  967MOL0     H30503  -1.445   7.722   5.758 -1.4528 -0.2282 -0.1860
  967MOL0     H30504  -1.295   7.687   5.681 -0.0624 -0.3418  0.0117
  967MOL0     H30505  -1.334   7.928   5.740 -0.3059  0.4910 -0.3960
  967MOL0     H30506  -1.145   8.150   5.626  0.8366  5.0265  0.1468
  967MOL0     H30507  -1.306   8.129   5.675  0.5345  0.4112 -0.0241
  967MOL0     H30508  -1.206   8.257   5.748  0.0826 -0.1999  0.4669
  967MOL0     H30509  -0.666   8.074   5.876 -0.5168 -2.6052  3.8277
  967MOL0     H30510  -0.441   8.207   5.836 -1.9967  0.0235 -4.0974
  967MOL0     H30511  -0.228   8.472   5.814 -0.6009 -0.0494  1.2369
  967MOL0     H30512  -0.362   8.388   5.738 -2.9432  2.5294 -1.8922
  967MOL0     H30513  -0.436   8.586   5.653  0.6359  0.6558 -1.3968
  967MOL0     H30514  -0.448   8.638   5.832 -0.0108 -0.8078  0.2000
  967MOL0     H30515  -0.211   8.654   5.645 -1.0290 -1.5874 -0.4933
  967MOL0     H30516  -0.225   8.743   5.808 -0.8753 -0.0495  1.2426
  967MOL0     H30517  -0.367   8.811   5.547 -0.7213  1.7266 -0.4489
  967MOL0     H30518  -0.450   8.836   5.688 -1.5333  0.5980 -3.6838
  967MOL0     H30519  -0.234   8.986   5.774 -2.3699  1.9329  0.3034
  967MOL0     H30520  -0.327   9.033   5.622  1.3115  1.2445 -0.5421
  967MOL0     H30521  -0.064   8.872   5.627  0.3635  1.6276  1.3702
  967MOL0     H30522  -0.175   8.885   5.490 -0.3848 -1.5817  0.2211
  967MOL0     H30523  -0.132   9.149   5.534 -1.9277  0.0925 -1.8671
  967MOL0     H30524  -0.044   9.044   5.420 -0.1627  1.1878  0.1911
  967MOL0     H30525   0.029   9.091   5.719  0.7331  1.7823  0.6231
  967MOL0     H30526   0.089   9.185   5.585 -1.8675 -0.4874 -3.6814
  967MOL0     H30527  -0.609   8.528   6.071 -0.2167 -1.1562  1.3671
  967MOL0     H30528  -0.805   8.380   6.111 -0.3109 -2.3888  0.3570
  967MOL0     H30529  -0.950   7.956   6.063  0.6322  0.8029 -1.1400
  967MOL0     H30530  -1.100   7.753   6.060 -3.0536  0.6400  1.2835
  967MOL0     H30531  -0.128   6.319   6.117 -0.4514 -0.6063 -0.2038
  967MOL0     H30532  -0.030   6.205   5.935  0.6917  0.5694  0.1805
  967MOL0     H30533   0.359   6.051   5.746  0.3657 -1.5517 -0.5530
  967MOL0     H30534   0.465   5.930   5.564  0.3215  2.0804  0.2240
  967MOL0     H30535   0.544   6.007   5.330 -0.5893  0.4448 -0.4585
  967MOL0     H30536   0.537   5.831   5.302  1.7188  0.9119  0.6470
  967MOL0     H30537   0.486   6.045   5.098 -1.5633 -0.4481  0.0477
  967MOL0     H30538   0.442   5.877   5.077  0.8096 -0.6349  0.0365
  967MOL0     H30539   0.714   5.852   5.137  1.5836  0.5878  0.4586
  967MOL0     H30540   0.710   6.021   5.143  2.3941 -1.5682 -0.3832
  967MOL0     H30541   0.632   6.021   4.898  0.0396 -1.5916  0.1200
  967MOL0     H30542   0.641   5.848   4.902  0.2000  0.8491 -2.5664
  967MOL0     H30543   1.053   5.915   4.858  0.6467  3.9293  2.2351
  967MOL0     H30544   0.151   6.078   5.302 -0.0781  2.0470 -1.0098
  967MOL0     H30545   0.056   6.210   5.485  1.0741 -0.7906  0.6544
  968MOL0     O30546   6.532   6.154   7.757 -0.2912 -0.2394 -0.6026
  968MOL0     C30547   6.642   6.128   7.823  0.7330  1.2391  0.3361
  968MOL0     O30548   6.637   6.070   7.945  0.0336  0.7431 -0.3447
  968MOL0     C30549   6.513   6.041   7.997 -0.3818  0.1204 -0.4483
  968MOL0     C30550   6.452   5.913   7.985  0.9374  0.0607  1.1659
  968MOL0     C30551   6.316   5.891   8.032  0.2462 -1.0282 -0.3639
  968MOL0     C30552   6.257   5.985   8.109  1.2022  0.3691 -0.2737
  968MOL0     O30553   6.131   5.969   8.165  0.3278 -0.5393 -0.6518
  968MOL0     C30554   6.038   5.889   8.090  0.6424  0.5097 -0.0038
  968MOL0     C30555   5.896   5.942   8.133 -0.0838  0.2417  0.3665
  968MOL0     C30556   5.869   5.935   8.276  0.4504  0.5911 -0.1884
  968MOL0     C30557   5.726   5.976   8.300  0.6904 -0.2270 -1.0245
  968MOL0     C30558   5.685   5.953   8.441 -1.2530  0.0697 -0.2268
  968MOL0     C30559   5.533   5.945   8.447 -0.1534 -0.3666  0.1495
  968MOL0     C30560   5.484   5.807   8.399 -0.5380 -0.5067  0.4552
  968MOL0     C30561   5.341   5.776   8.445 -0.6551 -0.3709  0.1269
  968MOL0     N30562   5.235   5.879   8.449 -0.8844 -0.1370  0.2018
  968MOL0     C30563   5.210   5.948   8.561  0.2954 -0.1183 -0.4463
  968MOL0     C30564   5.086   5.996   8.550 -1.0700  1.0859  0.7525
  968MOL0     C30565   5.032   6.084   8.665 -0.2938  0.3615 -0.3637
  968MOL0     C30566   4.929   6.177   8.609  0.5158  0.3425  0.1696
  968MOL0     C30567   4.842   6.248   8.721  1.4915 -0.5524 -0.1330
  968MOL0     C30568   4.701   6.176   8.718 -0.0553  0.1902 -0.2061
  968MOL0     O30569   4.611   6.226   8.810 -0.3595  0.1042 -0.0443
  968MOL0     C30570   4.478   6.177   8.808 -0.2915 -0.9660  0.3553
  968MOL0     C30571   4.392   6.226   8.909 -0.0838  1.2296 -0.6943
  968MOL0     C30572   4.259   6.190   8.909 -0.1908 -0.6485 -0.4947
  968MOL0     C30573   4.178   6.238   9.031 -0.7418  0.1106 -0.1368
  968MOL0     C30574   4.202   6.103   8.809  0.5954  0.7968 -0.4674
  968MOL0     C30575   4.058   6.073   8.813  0.7295 -0.5429 -0.1564
  968MOL0     O30576   3.968   6.177   8.818  0.3876  0.0076  0.2161
  968MOL0     C30577   3.831   6.139   8.836 -0.8918  0.3147 -0.1313
  968MOL0     C30578   3.771   6.181   8.963  0.2495  0.5270 -0.0696
  968MOL0     C30579   3.640   6.129   8.978 -0.4851 -0.4248 -0.3568
  968MOL0     C30580   3.573   6.055   8.878 -0.6811  0.0146  0.6013
  968MOL0     O30581   3.447   6.020   8.904  0.5252 -0.1672  0.0640
  968MOL0     C30582   3.421   5.877   8.909 -0.1771 -0.5196 -0.0821
  968MOL0     C30583   3.277   5.849   8.962  0.7789  0.5633  0.5981
  968MOL0     C30584   3.249   5.703   8.966 -0.0719  0.2046  0.3491
  968MOL0     C30585   3.117   5.654   9.026 -0.0766 -0.3779 -0.8903
  968MOL0     C30586   3.001   5.690   8.949  0.0746 -0.4072 -0.3375
  968MOL0     C30587   2.958   5.585   8.828  1.0148  0.3673  0.2147
  968MOL0     C30588   2.801   5.565   8.829 -0.2279 -0.5214  0.3098
  968MOL0     C30589   2.731   5.675   8.746 -0.3500  0.1895  0.4281
  968MOL0    Cl30590   2.574   5.617   8.675 -0.4512 -0.4917 -0.1358
  968MOL0     C30591   3.636   6.031   8.758 -0.3739  0.5603 -0.3232
  968MOL0     C30592   3.767   6.071   8.736 -0.2443 -0.0483 -0.3825
  968MOL0     O30593   4.034   5.952   8.817 -0.2785 -0.2964 -0.2349
  968MOL0     C30594   4.284   6.050   8.716  1.0081  0.8496  0.2576
  968MOL0     C30595   4.422   6.090   8.715  0.3081  0.6224  0.0049
  968MOL0     N30596   5.037   5.956   8.424  1.0224 -0.6117  0.5029
  968MOL0     N30597   5.129   5.888   8.367 -0.3410  0.4799  1.4178
  968MOL0     C30598   6.324   6.103   8.128  0.3954 -0.1207 -0.3918
  968MOL0     C30599   6.445   6.137   8.072 -0.4772  0.5173  0.3395
  968MOL0     C30600   6.775   6.161   7.775 -0.5248  0.1883  0.2607
  968MOL0     C30601   6.889   6.157   7.856  0.7255  0.0560  0.4305
  968MOL0     C30602   7.007   6.170   7.786  0.0909  0.6677  0.0020
  968MOL0     C30603   7.026   6.207   7.648 -0.8288 -0.3037 -0.1081
  968MOL0     O30604   7.155   6.210   7.596 -0.2748  0.7014  0.2419
  968MOL0     C30605   7.182   6.275   7.471 -1.2118 -0.8720  0.0264
  968MOL0     C30606   7.310   6.219   7.414 -0.2649 -0.6315  0.4406
  968MOL0     C30607   7.301   6.249   7.261 -0.5674 -0.2719 -0.7638
  968MOL0     C30608   7.437   6.242   7.196 -0.1678  0.1024 -0.3112
  968MOL0     C30609   7.489   6.102   7.205  0.6563 -0.1980  0.4410
  968MOL0     C30610   7.533   5.986   7.201  0.7959  0.2750 -0.1788
  968MOL0     C30611   6.908   6.231   7.582 -0.3019 -0.3886 -0.2119
  968MOL0     C30612   6.786   6.202   7.639 -0.3138  0.2135 -1.1156
  968MOL0     H30613   6.504   5.830   7.939 -0.9811 -0.5493 -0.0023
  968MOL0     H30614   6.257   5.803   8.009  0.7722 -1.9267  1.5163
  968MOL0     H30615   6.058   5.907   7.984  1.4439 -0.4965 -0.0352
  968MOL0     H30616   6.053   5.781   8.103  1.1159  0.9014  3.7314
  968MOL0     H30617   5.888   6.046   8.102 -1.9524  0.4656  1.4923
  968MOL0     H30618   5.816   5.885   8.085 -1.2792  0.8164  1.6205
  968MOL0     H30619   5.874   5.832   8.310 -1.6222  0.6905  0.5383
  968MOL0     H30620   5.942   6.001   8.324  2.7277  0.6885 -3.3939
  968MOL0     H30621   5.720   6.083   8.282  2.6129  0.3217  1.1001
  968MOL0     H30622   5.647   5.934   8.236 -0.2041 -2.9329  1.6183
  968MOL0     H30623   5.709   5.855   8.482 -0.8447  0.6435  0.9638
  968MOL0     H30624   5.733   6.021   8.513 -1.6629 -0.8052  0.9081
  968MOL0     H30625   5.505   5.944   8.552 -1.1773 -1.3619 -0.1160
  968MOL0     H30626   5.482   6.022   8.389 -3.8640 -1.5630  1.5507
  968MOL0     H30627   5.500   5.809   8.290  0.7862  0.2653  0.6403
  968MOL0     H30628   5.553   5.729   8.433 -0.7072 -1.4274 -1.1837
  968MOL0     H30629   5.340   5.714   8.535 -3.0666  0.5178  0.7847
  968MOL0     H30630   5.301   5.714   8.365  0.0094  1.6854 -1.9062
  968MOL0     H30631   5.281   5.971   8.639 -0.7877  3.3177 -0.2881
  968MOL0     H30632   4.995   6.014   8.741 -3.1937  3.7142  1.6187
  968MOL0     H30633   5.108   6.140   8.719 -0.3925  0.5465 -0.4154
  968MOL0     H30634   4.862   6.121   8.543  0.2303 -0.8498  1.4223
  968MOL0     H30635   4.986   6.251   8.554  0.0336  1.0752  0.6344
  968MOL0     H30636   4.824   6.353   8.696  1.9283 -0.8298 -1.6871
  968MOL0     H30637   4.896   6.244   8.817 -0.5902 -0.9435  1.0782
  968MOL0     H30638   4.712   6.070   8.740 -1.6339 -0.3797 -1.9729
  968MOL0     H30639   4.670   6.189   8.614  2.1826  0.9892 -0.8475
  968MOL0     H30640   4.425   6.290   8.990  2.0095  0.0024 -0.4748
  968MOL0     H30641   4.114   6.319   8.993 -0.7638  1.7651  3.0943
  968MOL0     H30642   4.133   6.148   9.074 -0.2465 -2.1919 -3.8848
  968MOL0     H30643   4.247   6.281   9.103  0.9786 -1.5818 -0.6790
  968MOL0     H30644   3.809   6.239   9.046 -0.6885  0.0384  0.7145
  968MOL0     H30645   3.586   6.150   9.070 -0.7832  0.1252 -0.6474
  968MOL0     H30646   3.447   5.830   8.814 -1.8906  0.5200 -1.1147
  968MOL0     H30647   3.482   5.839   8.992  1.3673 -3.0725 -2.2420
  968MOL0     H30648   3.271   5.890   9.063  3.3350 -1.3490  1.6324
  968MOL0     H30649   3.209   5.896   8.891 -0.5980  1.0242  2.1609
  968MOL0     H30650   3.330   5.650   9.018  0.1191 -1.2173 -1.2926
  968MOL0     H30651   3.253   5.667   8.862 -1.4796  2.4765 -0.5652
  968MOL0     H30652   3.122   5.545   9.030 -2.5534 -0.5987 -1.8288
  968MOL0     H30653   3.101   5.697   9.125 -1.7701  0.4643 -1.5000
  968MOL0     H30654   2.999   5.791   8.905  0.2139 -0.3648 -0.2448
  968MOL0     H30655   2.914   5.697   9.016 -0.6680  1.6345 -1.4022
  968MOL0     H30656   2.988   5.615   8.727  0.8663 -0.3764 -0.0551
  968MOL0     H30657   3.004   5.488   8.850 -0.0045 -0.1143  0.3078
  968MOL0     H30658   2.763   5.575   8.931 -0.2950  0.9744  0.1481
  968MOL0     H30659   2.783   5.464   8.791  0.4128 -0.2990 -0.6184
  968MOL0     H30660   2.793   5.703   8.660 -1.9920 -2.4572 -1.7734
  968MOL0     H30661   2.718   5.771   8.797 -1.9272 -0.0585  0.5282
  968MOL0     H30662   3.578   5.983   8.680 -1.8992  1.5112  0.1861
  968MOL0     H30663   3.816   6.067   8.640  0.2977 -0.5226 -0.0908
  968MOL0     H30664   4.239   5.977   8.648 -0.1248  1.7851 -0.0291
  968MOL0     H30665   4.485   6.066   8.630 -0.4420  0.5272 -0.5365
  968MOL0     H30666   6.268   6.183   8.175  0.5893 -0.7689  0.9850
  968MOL0     H30667   6.498   6.232   8.072  0.2477  0.1203  0.1052
  968MOL0     H30668   6.891   6.136   7.963 -1.6064  2.5164  1.0378
  968MOL0     H30669   7.096   6.164   7.849  0.1799  0.8036 -0.1098
  968MOL0     H30670   7.095   6.273   7.405  1.4356  0.9554 -3.9039
  968MOL0     H30671   7.209   6.380   7.487 -0.4769 -1.2615  1.5288
  968MOL0     H30672   7.322   6.111   7.419 -2.5609 -0.9286  0.6231
  968MOL0     H30673   7.399   6.275   7.443 -1.4252  1.7083 -0.2431
  968MOL0     H30674   7.256   6.347   7.241 -2.7922 -1.2258 -0.8348
  968MOL0     H30675   7.239   6.169   7.219 -1.4577 -0.2374  0.4155
  968MOL0     H30676   7.507   6.319   7.230  0.1670  0.9953 -2.8340
  968MOL0     H30677   7.426   6.257   7.088  1.6616 -3.0125 -1.0637
  968MOL0     H30678   7.568   5.885   7.203 -0.1571 -0.0881 -0.9882
  968MOL0     H30679   6.911   6.266   7.479  0.7571  1.6756  0.4638
  968MOL0     H30680   6.701   6.212   7.573  0.6338 -0.4376 -2.4730
  969MOL0     O30681   1.694   2.467  10.257 -0.5945 -0.7654  0.3381
  969MOL0     C30682   1.644   2.520  10.154 -0.1277  0.4169  0.3336
  969MOL0     O30683   1.712   2.535  10.035  0.3312  0.3493  1.0476
  969MOL0     C30684   1.846   2.507  10.019  0.5266 -0.7161 -0.6629
  969MOL0     C30685   1.927   2.616   9.963  0.1546 -0.0215  0.2961
  969MOL0     C30686   2.062   2.601   9.953  0.1611  0.0907 -0.6294
  969MOL0     C30687   2.132   2.486   9.995  0.5190 -0.1981  0.1625
  969MOL0     O30688   2.267   2.465   9.970  0.2264 -0.1321  0.1357
  969MOL0     C30689   2.343   2.588   9.959  0.0935  0.5730  0.2637
  969MOL0     C30690   2.491   2.541   9.941  0.1395 -0.4484  0.0569
  969MOL0     C30691   2.579   2.664   9.982  0.5268 -0.0128  0.0253
  969MOL0     C30692   2.731   2.654   9.946  0.0820  0.7750 -0.2132
  969MOL0     C30693   2.797   2.789   9.969  0.1905 -0.5590  0.2565
  969MOL0     C30694   2.949   2.803   9.941 -0.0873  0.7208  0.5081
  969MOL0     C30695   2.995   2.945   9.954 -0.3360 -0.6730  0.7226
  969MOL0     C30696   3.147   2.950   9.962 -0.1713  0.3921 -0.0635
  969MOL0     N30697   3.192   3.073  10.014  0.2623 -0.1746 -0.2791
  969MOL0     C30698   3.205   3.118  10.145 -0.6114 -0.5913  0.3471
  969MOL0     C30699   3.208   3.254  10.135  0.0789  0.3387  1.0269
  969MOL0     C30700   3.212   3.353  10.245 -0.3595  0.2028 -0.1247
  969MOL0     C30701   3.359   3.340  10.290 -0.0353 -0.2190  0.3113
  969MOL0     C30702   3.396   3.426  10.420 -0.0142 -0.7219 -1.1709
  969MOL0     C30703   3.540   3.424  10.457 -0.9152 -0.3101  0.4984
  969MOL0     O30704   3.601   3.297  10.460  0.3222 -0.3796  0.1777
  969MOL0     C30705   3.735   3.296  10.470 -0.2018 -0.1116  0.2885
  969MOL0     C30706   3.786   3.170  10.449  0.4106 -0.5000  0.3626
  969MOL0     C30707   3.919   3.138  10.470  0.2989  1.0756  0.7757
  969MOL0     C30708   3.959   3.002  10.420  0.6808 -0.4424  1.6447
  969MOL0     C30709   4.015   3.234  10.520 -0.2028 -0.3116 -0.1743
  969MOL0     C30710   4.163   3.212  10.551 -0.3164 -0.4830  0.6883
  969MOL0     O30711   4.223   3.322  10.600 -0.8483  0.4411  0.3335
  969MOL0     C30712   4.361   3.332  10.602  0.7518  0.4946  0.2563
  969MOL0     C30713   4.447   3.317  10.497 -0.1614 -0.3293 -0.5863
  969MOL0     C30714   4.587   3.320  10.507  0.6064 -0.2457 -0.7546
  969MOL0     C30715   4.646   3.343  10.630  0.3147  0.2363 -0.3440
  969MOL0     O30716   4.776   3.366  10.649 -0.5503  0.3217  0.4072
  969MOL0     C30717   4.868   3.337  10.537 -0.7275 -0.2137 -0.1911
  969MOL0     C30718   5.006   3.353  10.598  0.2495 -0.3733 -1.2041
  969MOL0     C30719   5.110   3.330  10.490  0.0549 -1.1306 -0.4055
  969MOL0     C30720   5.247   3.374  10.527 -0.0384 -0.6456  0.0541
  969MOL0     C30721   5.272   3.523  10.545 -0.4742  0.0009 -0.0318
  969MOL0     C30722   5.214   3.617  10.432 -0.3254 -0.0537  0.3153
  969MOL0     C30723   5.262   3.768  10.456  0.9367  0.0764  0.6325
  969MOL0     C30724   5.230   3.871  10.348 -0.7515  1.0455  1.1990
  969MOL0    Cl30725   5.226   4.026  10.426 -0.1982  0.6933  0.5811
  969MOL0     C30726   4.562   3.351  10.734 -0.5501 -0.4134  0.3848
  969MOL0     C30727   4.423   3.345  10.724 -1.0762 -0.0792  0.2719
  969MOL0     O30728   4.219   3.096  10.537  0.3521 -0.3742 -0.4694
  969MOL0     C30729   3.958   3.358  10.555  0.1242  0.4184 -0.2218
  969MOL0     C30730   3.828   3.387  10.529  0.0152  0.0118 -0.3558
  969MOL0     N30731   3.208   3.289  10.003 -0.8921  0.8037  0.3349
  969MOL0     N30732   3.203   3.181   9.931  0.4532  0.2463 -0.1118
  969MOL0     C30733   2.046   2.380  10.046  1.3658  0.0061  0.4445
  969MOL0     C30734   1.905   2.387  10.055 -0.5445  0.2133 -0.3088
  969MOL0     C30735   1.498   2.557  10.162 -0.4556  1.3535  0.6828
  969MOL0     C30736   1.437   2.585  10.040 -0.2787  0.8124  0.0012
  969MOL0     C30737   1.308   2.618  10.030 -0.3278 -1.6638 -0.2962
  969MOL0     C30738   1.221   2.601  10.137 -0.3220  0.3080  1.4338
  969MOL0     O30739   1.084   2.620  10.131  0.2538 -0.5423 -0.2829
  969MOL0     C30740   1.025   2.565  10.013 -0.2445  0.7427 -0.3643
  969MOL0     C30741   0.885   2.628   9.990  0.0958  0.2534 -0.5908
  969MOL0     C30742   0.784   2.561  10.082 -1.0853  0.5795 -0.6357
  969MOL0     C30743   0.668   2.661  10.109  0.3008  0.1772 -0.8117
  969MOL0     C30744   0.592   2.694   9.988 -0.0423 -0.3878 -0.2717
  969MOL0     C30745   0.539   2.715   9.879 -0.0499 -0.0913  0.4722
  969MOL0     C30746   1.276   2.577  10.254 -1.8837 -0.0162 -0.5163
  969MOL0     C30747   1.417   2.571  10.278 -0.4992 -0.0991  0.2990
  969MOL0     H30748   1.879   2.704   9.923 -4.0141 -1.9780  0.3963
  969MOL0     H30749   2.127   2.676   9.909  2.5177  1.0660  3.9194
  969MOL0     H30750   2.312   2.643   9.870  0.6409 -0.6807 -0.7345
  969MOL0     H30751   2.333   2.648  10.050 -0.4073  1.8948 -0.6404
  969MOL0     H30752   2.510   2.463  10.015 -0.0418 -0.7280 -0.1926
  969MOL0     H30753   2.508   2.526   9.834 -1.8912 -1.6525 -0.1453
  969MOL0     H30754   2.553   2.750   9.921  0.1477  0.9852  1.5275
  969MOL0     H30755   2.553   2.681  10.087  0.6187 -1.5373  0.3178
  969MOL0     H30756   2.778   2.575  10.006 -0.2155  0.5200 -0.3121
  969MOL0     H30757   2.747   2.622   9.843  1.4610 -0.4217  0.3361
  969MOL0     H30758   2.751   2.862   9.902  1.4576 -0.6989 -0.8083
  969MOL0     H30759   2.772   2.814  10.072 -2.2882 -3.1242  0.4094
  969MOL0     H30760   3.005   2.731  10.001 -1.8479  0.3462  1.7699
  969MOL0     H30761   2.965   2.781   9.835  2.7622 -2.4469  1.4038
  969MOL0     H30762   2.965   3.006   9.868  0.5290  1.8063  2.0878
  969MOL0     H30763   2.962   2.984  10.050  0.4714  6.4461 -1.3008
  969MOL0     H30764   3.196   2.917   9.870 -3.7493 -1.7564 -1.4533
  969MOL0     H30765   3.171   2.882  10.045  2.2283  3.4823  1.9900
  969MOL0     H30766   3.222   3.061  10.235  1.1877 -1.3057 -0.3969
  969MOL0     H30767   3.191   3.446  10.192 -0.0677 -0.0170 -0.6355
  969MOL0     H30768   3.139   3.324  10.320 -1.7620 -0.6557 -1.7376
  969MOL0     H30769   3.417   3.394  10.215 -0.4463  2.5707  1.8548
  969MOL0     H30770   3.401   3.240  10.300  2.7278  0.8434  0.4284
  969MOL0     H30771   3.337   3.387  10.504  1.2856 -0.7304 -0.2484
  969MOL0     H30772   3.372   3.532  10.411  0.2529 -0.4806  0.7228
  969MOL0     H30773   3.566   3.479  10.548  0.1672  1.1323 -0.6011
  969MOL0     H30774   3.594   3.478  10.377 -2.1408 -3.5016 -2.7641
  969MOL0     H30775   3.707   3.103  10.415 -3.0593  3.8248 -0.9486
  969MOL0     H30776   3.875   2.980  10.353  2.1412  0.8277 -0.7650
  969MOL0     H30777   4.053   2.991  10.365  0.7207 -1.2918  1.8643
  969MOL0     H30778   3.953   2.924  10.496 -0.1741  0.6089  2.6837
  969MOL0     H30779   4.395   3.284  10.407  0.7034 -1.9518 -0.5266
  969MOL0     H30780   4.650   3.303  10.420  1.8265  1.8444 -0.3475
  969MOL0     H30781   4.861   3.229  10.519  0.4046 -0.4470  0.6247
  969MOL0     H30782   4.845   3.406  10.456 -0.7660  0.0887  0.0748
  969MOL0     H30783   5.009   3.456  10.634 -5.9634 -0.2818  0.2160
  969MOL0     H30784   5.023   3.273  10.671  1.0894 -2.2800 -3.3748
  969MOL0     H30785   5.090   3.375  10.393  1.1172  1.1675  0.3862
  969MOL0     H30786   5.106   3.220  10.487 -2.4359 -1.0796 -3.1508
  969MOL0     H30787   5.270   3.325  10.623 -0.0677  0.5857  0.7125
  969MOL0     H30788   5.312   3.339  10.446 -1.3682 -0.7171 -1.0118
  969MOL0     H30789   5.380   3.543  10.543 -0.7079  1.4934  0.5621
  969MOL0     H30790   5.222   3.556  10.636 -2.3773 -1.5684 -0.4272
  969MOL0     H30791   5.271   3.569  10.351  0.9182  0.5465  0.8090
  969MOL0     H30792   5.106   3.605  10.424 -0.5952  2.2094  0.0401
  969MOL0     H30793   5.370   3.767  10.473  1.1463  2.4015 -0.1713
  969MOL0     H30794   5.212   3.812  10.543 -1.0518  0.1699 -0.4974
  969MOL0     H30795   5.129   3.851  10.312 -0.0070 -2.5454  0.7954
  969MOL0     H30796   5.298   3.870  10.262 -0.8882  1.7209  1.0728
  969MOL0     H30797   4.611   3.379  10.827  0.0863  1.9313 -0.5885
  969MOL0     H30798   4.365   3.356  10.814  0.0739 -3.3000  1.5256
  969MOL0     H30799   4.027   3.432  10.595  0.0914  0.6192 -0.5336
  969MOL0     H30800   3.811   3.488  10.565  2.8838  1.1281 -1.7879
  969MOL0     H30801   2.078   2.282  10.079 -0.6730 -1.0460 -0.5018
  969MOL0     H30802   1.842   2.313  10.105 -0.6022  1.5585  1.7451
  969MOL0     H30803   1.487   2.569   9.945 -2.2634  0.1210 -0.9602
  969MOL0     H30804   1.266   2.664   9.941  3.0135  1.8414 -0.3519
  969MOL0     H30805   1.087   2.569   9.923  0.4129 -3.1380 -0.2722
  969MOL0     H30806   1.021   2.457  10.032  5.4701  0.6248  2.3897
  969MOL0     H30807   0.853   2.631   9.886 -3.1978  1.5914  0.3472
  969MOL0     H30808   0.900   2.735  10.008 -0.8197  0.5539 -1.5600
  969MOL0     H30809   0.835   2.532  10.174 -2.3275 -0.0980 -0.1414
  969MOL0     H30810   0.737   2.472  10.040 -1.3505  0.4782 -0.1342
  969MOL0     H30811   0.702   2.754  10.153 -0.5212  0.5739 -0.9932
  969MOL0     H30812   0.592   2.628  10.180 -0.9813  3.0385 -0.7142
  969MOL0     H30813   0.491   2.712   9.783 -0.9707 -3.1304  0.9147
  969MOL0     H30814   1.207   2.564  10.336 -1.0815  1.8239  0.5112
  969MOL0     H30815   1.457   2.546  10.376 -0.8706  2.6120  1.2272
  970MOL0     O30816  11.109   6.883   2.798 -0.1020  0.3661  0.3618
  970MOL0     C30817  11.150   6.823   2.899  0.2142 -0.2624 -0.5325
  970MOL0     O30818  11.077   6.809   3.013 -0.6897 -0.0921 -0.6059
  970MOL0     C30819  10.942   6.824   2.998 -0.2412 -0.0179 -0.1027
  970MOL0     C30820  10.866   6.712   2.968 -0.3335 -0.5088  0.5380
  970MOL0     C30821  10.728   6.724   2.942  0.5314  1.5286 -0.3774
  970MOL0     C30822  10.668   6.850   2.938  0.1847  0.0805  0.1331
  970MOL0     O30823  10.536   6.875   2.892 -0.4858 -0.2606 -0.0869
  970MOL0     C30824  10.472   6.759   2.828 -0.0870  0.0636  0.2789
  970MOL0     C30825  10.349   6.813   2.745  0.0962 -0.2183 -0.9584
  970MOL0     C30826  10.245   6.883   2.834 -0.2321 -0.0630  0.1648
  970MOL0     C30827  10.106   6.892   2.768 -0.1075 -0.0590  0.9129
  970MOL0     C30828  10.026   6.770   2.727  0.7863 -0.0485  0.1485
  970MOL0     C30829   9.985   6.685   2.849  0.0971  0.6582  0.0017
  970MOL0     C30830   9.889   6.752   2.950  0.2979  0.4936  0.2921
  970MOL0     C30831   9.761   6.788   2.874  0.0912 -0.8258 -0.3942
  970MOL0     N30832   9.655   6.844   2.954 -0.4980  0.2634  0.1636
  970MOL0     C30833   9.547   6.773   3.011 -0.1293 -0.1803  0.4988
  970MOL0     C30834   9.475   6.871   3.074  0.5860 -0.6129  0.4744
  970MOL0     C30835   9.350   6.856   3.157 -0.8096 -0.2215 -0.3444
  970MOL0     C30836   9.238   6.954   3.119 -0.6472 -0.6565 -0.1232
  970MOL0     C30837   9.122   6.885   3.196  0.6925  0.6335  0.8886
  970MOL0     C30838   8.990   6.966   3.183 -0.5094 -0.0123  0.2809
  970MOL0     O30839   9.026   7.100   3.225 -0.1732  0.2118 -0.1068
  970MOL0     C30840   8.937   7.155   3.312 -0.0293 -0.2286  0.8074
  970MOL0     C30841   8.950   7.138   3.452  0.1817  0.5592  0.3517
  970MOL0     C30842   8.855   7.194   3.543 -0.0759  0.1416  0.7041
  970MOL0     C30843   8.890   7.172   3.687 -0.2997 -0.0266  0.6954
  970MOL0     C30844   8.749   7.272   3.488 -0.0043  0.2595 -1.0381
  970MOL0     C30845   8.642   7.341   3.563  1.0149 -0.1546 -0.6581
  970MOL0     O30846   8.667   7.384   3.690  0.4988 -0.3618  0.0309
  970MOL0     C30847   8.571   7.444   3.768  0.8195  0.0969  0.6547
  970MOL0     C30848   8.543   7.581   3.771  0.2539 -0.2201  0.4710
  970MOL0     C30849   8.432   7.631   3.837 -0.7997  0.2128 -0.0521
  970MOL0     C30850   8.356   7.555   3.918  0.1756 -0.3585  0.1204
  970MOL0     O30851   8.236   7.617   3.957  0.4287  0.5037 -0.0224
  970MOL0     C30852   8.146   7.546   4.041 -0.0603  0.0581  0.2206
  970MOL0     C30853   8.205   7.529   4.177  0.5415 -0.6663  0.2867
  970MOL0     C30854   8.235   7.674   4.240  0.6127  0.1275 -0.1128
  970MOL0     C30855   8.105   7.754   4.261 -0.5438 -0.3384  0.7300
  970MOL0     C30856   8.122   7.878   4.343  0.3474  0.6731 -0.5774
  970MOL0     C30857   8.167   7.866   4.490 -0.1428 -0.3318 -0.0231
  970MOL0     C30858   8.161   7.995   4.560 -0.4060 -0.6642 -0.0991
  970MOL0     C30859   8.214   7.990   4.703 -0.0324 -0.1307  0.0724
  970MOL0    Cl30860   8.383   7.980   4.716  0.3676  0.3696  0.3386
  970MOL0     C30861   8.396   7.419   3.929 -0.0513 -0.2511  0.6575
  970MOL0     C30862   8.506   7.368   3.861 -0.7843 -0.4616  0.5934
  970MOL0     O30863   8.530   7.359   3.510 -0.2960  0.4763  0.9958
  970MOL0     C30864   8.731   7.273   3.347 -0.0823  0.4561 -0.6823
  970MOL0     C30865   8.826   7.226   3.260  0.1172 -0.0183 -0.3222
  970MOL0     N30866   9.532   6.991   3.044  0.2553 -0.0112  0.0486
  970MOL0     N30867   9.638   6.977   2.975 -0.4252  0.5654  0.2589
  970MOL0     C30868  10.739   6.959   2.975 -0.2687 -0.3123  0.3075
  970MOL0     C30869  10.876   6.948   3.001  0.3433  0.0196  0.3682
  970MOL0     C30870  11.285   6.769   2.909  0.2514  0.9302  0.1363
  970MOL0     C30871  11.339   6.727   3.036 -0.6207  0.1428  0.1615
  970MOL0     C30872  11.472   6.697   3.027 -0.3648  0.4104 -0.3663
  970MOL0     C30873  11.547   6.684   2.906 -0.3705 -0.1305  0.2540
  970MOL0     O30874  11.684   6.661   2.909 -0.1425 -0.1477 -0.2622
  970MOL0     C30875  11.762   6.743   2.818 -1.0344  0.4225 -0.5505
  970MOL0     C30876  11.898   6.764   2.877  0.9482  0.4913  0.2317
  970MOL0     C30877  11.959   6.642   2.934 -0.7272  0.4471  0.2405
  970MOL0     C30878  12.106   6.659   2.969  0.2108 -0.2454  0.2654
  970MOL0     C30879  12.191   6.533   2.984 -0.1667 -0.3719 -0.0994
  970MOL0     C30880  12.267   6.436   2.994 -1.1994 -0.6958 -1.1412
  970MOL0     C30881  11.485   6.720   2.788  0.6807  0.2114  0.2340
  970MOL0     C30882  11.356   6.762   2.780  0.2530 -1.0440  0.6603
  970MOL0     H30883  10.910   6.614   2.952 -3.4636 -1.8022 -0.9486
  970MOL0     H30884  10.667   6.634   2.935 -3.2407  3.9742 -2.9556
  970MOL0     H30885  10.546   6.709   2.765 -1.5106 -0.4436 -1.0825
  970MOL0     H30886  10.425   6.701   2.908 -0.8170 -0.9920 -0.8757
  970MOL0     H30887  10.379   6.874   2.659 -3.5662  0.6117 -1.8107
  970MOL0     H30888  10.291   6.732   2.698 -1.6926  0.2361  0.3349
  970MOL0     H30889  10.227   6.842   2.934 -0.5548  1.5401  0.8106
  970MOL0     H30890  10.286   6.978   2.870 -2.3793 -0.3577  3.9129
  970MOL0     H30891  10.042   6.959   2.826  2.0806  2.1362  0.9899
  970MOL0     H30892  10.116   6.951   2.677 -0.3537  0.8116  1.4347
  970MOL0     H30893   9.943   6.792   2.658 -0.5895 -0.4644  1.6035
  970MOL0     H30894  10.091   6.710   2.662  1.8324 -0.2693  1.3608
  970MOL0     H30895   9.949   6.592   2.804  1.2492  0.0816  0.2053
  970MOL0     H30896  10.076   6.666   2.907 -0.7989  2.7121  2.2415
  970MOL0     H30897   9.865   6.684   3.033  0.6693  0.4781  0.3886
  970MOL0     H30898   9.933   6.839   2.998 -2.4066  2.5963 -0.7524
  970MOL0     H30899   9.713   6.703   2.825 -0.6752  0.7290 -2.4778
  970MOL0     H30900   9.773   6.863   2.795 -4.6367  1.7599  0.9170
  970MOL0     H30901   9.535   6.665   3.009  3.0155 -0.6765  1.6630
  970MOL0     H30902   9.318   6.753   3.176 -2.3801  0.3974  0.6524
  970MOL0     H30903   9.374   6.882   3.260  1.1150 -1.7909 -0.3249
  970MOL0     H30904   9.226   6.966   3.011 -2.4097  0.4442  0.1630
  970MOL0     H30905   9.267   7.051   3.162  1.7943 -2.2898  2.2848
  970MOL0     H30906   9.138   6.877   3.304  1.4903  0.1821  0.7408
  970MOL0     H30907   9.093   6.787   3.156 -3.0216  2.2606 -0.9173
  970MOL0     H30908   8.903   6.915   3.225  0.5456 -2.0837  0.0385
  970MOL0     H30909   8.970   6.965   3.076  0.4275 -4.4257 -0.0223
  970MOL0     H30910   9.025   7.067   3.487 -2.0417 -1.8733  0.4893
  970MOL0     H30911   8.801   7.124   3.729 -0.9169 -1.6194 -2.1272
  970MOL0     H30912   8.973   7.101   3.689 -0.6475 -0.4935 -0.3089
  970MOL0     H30913   8.920   7.265   3.735 -1.7486  2.0218 -2.1003
  970MOL0     H30914   8.594   7.639   3.695  0.1116  0.5424  0.9499
  970MOL0     H30915   8.403   7.732   3.815  1.0543  0.1188 -3.6651
  970MOL0     H30916   8.049   7.594   4.047  0.3424  0.9731 -0.4077
  970MOL0     H30917   8.129   7.445   4.002  1.6749  0.0943 -0.7478
  970MOL0     H30918   8.126   7.477   4.233 -0.6619 -0.5749 -1.2539
  970MOL0     H30919   8.292   7.463   4.175  0.8253 -0.3336 -2.8107
  970MOL0     H30920   8.301   7.737   4.180 -1.0891  1.7248 -0.4200
  970MOL0     H30921   8.278   7.657   4.339  1.9853 -0.3161 -0.7733
  970MOL0     H30922   8.080   7.787   4.160 -0.5165  2.8210  1.6503
  970MOL0     H30923   8.029   7.687   4.303 -0.3284  0.0985  1.8630
  970MOL0     H30924   8.022   7.922   4.340 -0.3356 -0.8445 -2.6763
  970MOL0     H30925   8.190   7.945   4.290  0.8889  2.3652  2.0501
  970MOL0     H30926   8.111   7.786   4.539 -0.8261 -0.3094 -0.7513
  970MOL0     H30927   8.268   7.824   4.498 -0.9046 -1.8050  3.8186
  970MOL0     H30928   8.057   8.028   4.556 -0.4608 -0.4481  2.2070
  970MOL0     H30929   8.225   8.070   4.513 -0.8752 -0.8382 -1.0411
  970MOL0     H30930   8.182   7.903   4.760  3.7898 -0.8309  1.4467
  970MOL0     H30931   8.174   8.083   4.746 -0.7754  2.0024 -4.6442
  970MOL0     H30932   8.335   7.356   3.994 -1.3177  2.8462  2.7164
  970MOL0     H30933   8.525   7.261   3.860  0.1046 -0.3193  1.3189
  970MOL0     H30934   8.654   7.326   3.291 -0.0531  4.2292  2.3660
  970MOL0     H30935   8.808   7.260   3.159  0.3020  1.3043  0.0798
  970MOL0     H30936  10.698   7.059   2.978  0.3317 -0.0027 -1.1509
  970MOL0     H30937  10.922   7.038   3.039  2.1283 -0.7222  0.0623
  970MOL0     H30938  11.274   6.725   3.123 -0.7896  1.1917  0.0755
  970MOL0     H30939  11.530   6.680   3.117  1.2669 -0.0878 -1.4615
  970MOL0     H30940  11.767   6.683   2.727  1.7001 -1.3901  0.6705
  970MOL0     H30941  11.711   6.839   2.804 -2.3283 -0.3428 -1.3957
  970MOL0     H30942  11.898   6.832   2.962  0.3467  1.5142 -0.5606
  970MOL0     H30943  11.963   6.812   2.803  1.4707  1.0035  1.0023
  970MOL0     H30944  11.949   6.564   2.858  1.8386  1.4272 -1.2256
  970MOL0     H30945  11.911   6.615   3.028 -0.7032  3.0484  1.0881
  970MOL0     H30946  12.103   6.704   3.069 -0.6846 -3.6816  1.9511
  970MOL0     H30947  12.164   6.730   2.909  1.4146 -1.1278  0.3428
  970MOL0     H30948  12.317   6.342   3.002 -0.1469  0.0185  2.9884
  970MOL0     H30949  11.535   6.700   2.694 -0.7857 -1.2509 -0.2796
  970MOL0     H30950  11.309   6.784   2.685 -2.9297 -4.4092  1.2325
  971MOL0     O30951   5.354  11.337   8.323 -0.1403 -0.1137  0.0943
  971MOL0     C30952   5.333  11.460   8.317 -0.2054  0.2497  0.9379
  971MOL0     O30953   5.214  11.519   8.337 -0.5833  0.3627  0.6211
  971MOL0     C30954   5.105  11.433   8.354 -0.2597 -1.5107  0.7712
  971MOL0     C30955   5.042  11.362   8.254 -0.0532 -0.0271 -0.6015
  971MOL0     C30956   4.937  11.274   8.279 -0.8861 -0.2616 -0.0883
  971MOL0     C30957   4.888  11.265   8.406 -0.7860 -0.3868  0.2281
  971MOL0     O30958   4.758  11.202   8.411 -0.1189 -0.6048  1.0117
  971MOL0     C30959   4.716  11.131   8.525  0.4215  0.1454  0.2917
  971MOL0     C30960   4.588  11.049   8.493  0.0146 -0.7243 -0.1913
  971MOL0     C30961   4.465  11.146   8.496  0.4163  0.1008 -0.4287
  971MOL0     C30962   4.423  11.161   8.345 -0.0307  0.2796  0.3728
  971MOL0     C30963   4.329  11.285   8.324  1.3844 -0.2373  0.0202
  971MOL0     C30964   4.240  11.283   8.194 -0.0021  0.8240 -0.2258
  971MOL0     C30965   4.136  11.399   8.199 -0.0623 -0.4068 -0.2605
  971MOL0     C30966   4.063  11.409   8.060 -1.0650 -0.1170  0.3852
  971MOL0     N30967   4.136  11.463   7.937 -0.3829 -0.1849 -0.0093
  971MOL0     C30968   4.074  11.480   7.821 -0.4853  0.5369  0.1404
  971MOL0     C30969   4.165  11.540   7.747 -0.1391 -0.0371  0.5580
  971MOL0     C30970   4.149  11.594   7.611  0.8906  0.1369  0.3659
  971MOL0     C30971   4.106  11.483   7.522  0.2192  0.3635 -0.5427
  971MOL0     C30972   4.216  11.373   7.500  0.6922  0.3277 -0.3387
  971MOL0     C30973   4.359  11.421   7.488  0.6325 -0.3292 -0.4648
  971MOL0     O30974   4.364  11.526   7.389  0.0160 -0.5678 -0.1265
  971MOL0     C30975   4.397  11.506   7.258  0.1529  0.3853  0.4014
  971MOL0     C30976   4.464  11.388   7.214  0.1747  0.3266  0.4821
  971MOL0     C30977   4.515  11.382   7.079 -1.0109 -0.0595  0.3461
  971MOL0     C30978   4.594  11.266   7.034 -0.4830  0.8546 -0.6908
  971MOL0     C30979   4.487  11.494   6.991 -0.2640  0.0248  0.4207
  971MOL0     C30980   4.520  11.502   6.844 -1.2229  0.7606 -0.7377
  971MOL0     O30981   4.544  11.622   6.798 -0.0044  0.6466  0.2604
  971MOL0     C30982   4.598  11.648   6.680 -0.7903 -0.0285  0.7603
  971MOL0     C30983   4.677  11.557   6.598 -0.6501  0.0792 -0.3555
  971MOL0     C30984   4.736  11.601   6.479 -0.0738 -0.0051 -0.0343
  971MOL0     C30985   4.729  11.735   6.444  0.4156 -0.2004 -0.1930
  971MOL0     O30986   4.792  11.801   6.338 -0.4538 -0.9484  0.2420
  971MOL0     C30987   4.861  11.723   6.240 -0.1092 -0.2383  0.5276
  971MOL0     C30988   4.912  11.783   6.112 -0.4718 -1.2793  0.0469
  971MOL0     C30989   5.033  11.881   6.128  0.5496 -0.0072 -0.7339
  971MOL0     C30990   5.166  11.807   6.141 -0.4003 -0.4676 -0.3599
  971MOL0     C30991   5.217  11.747   6.014  0.1694 -1.3302  0.7269
  971MOL0     C30992   5.342  11.666   6.046 -0.3267  0.8005  0.2158
  971MOL0     C30993   5.406  11.610   5.925 -0.1999  0.5131 -0.0522
  971MOL0     C30994   5.511  11.513   5.963 -0.7220  0.3220 -0.7133
  971MOL0    Cl30995   5.640  11.578   6.070  0.1939 -0.2636  0.2392
  971MOL0     C30996   4.636  11.820   6.514  1.0327  0.8579  0.0867
  971MOL0     C30997   4.570  11.772   6.630 -0.3337 -0.1873  0.1405
  971MOL0     O30998   4.526  11.402   6.781  0.3389  1.0090  1.1197
  971MOL0     C30999   4.418  11.609   7.044  0.1836 -0.3723 -0.4959
  971MOL0     C31000   4.368  11.604   7.173 -0.2307  0.3338  0.8005
  971MOL0     N31001   4.285  11.547   7.815  0.4148 -0.5393 -1.1466
  971MOL0     N31002   4.272  11.498   7.933  0.0044 -0.8648  0.1365
  971MOL0     C31003   4.953  11.323   8.513  0.4341  0.4353 -0.8014
  971MOL0     C31004   5.057  11.413   8.489 -0.0418 -0.5137  0.8270
  971MOL0     C31005   5.444  11.542   8.294 -0.2865  0.0487  0.5939
  971MOL0     C31006   5.485  11.644   8.380 -0.0940  0.1687  0.9529
  971MOL0     C31007   5.605  11.713   8.364  0.8639 -0.2454 -0.4101
  971MOL0     C31008   5.689  11.679   8.253  0.3920  0.6092 -0.4531
  971MOL0     O31009   5.815  11.724   8.234 -0.6008  0.8229  0.6698
  971MOL0     C31010   5.877  11.814   8.333  0.7260 -0.1096  0.1537
  971MOL0     C31011   6.022  11.780   8.353  0.0674 -0.1772  0.3769
  971MOL0     C31012   6.039  11.632   8.398  0.9332 -0.9758  1.2599
  971MOL0     C31013   6.189  11.595   8.423  0.0850 -0.1315 -0.3447
  971MOL0     C31014   6.269  11.683   8.512  0.4870  0.9468  0.0581
  971MOL0     C31015   6.331  11.751   8.595 -0.0831 -0.2707  0.2520
  971MOL0     C31016   5.639  11.587   8.157  0.0609 -0.3071  0.3888
  971MOL0     C31017   5.521  11.513   8.182 -0.2262  0.1264  1.0482
  971MOL0     H31018   5.075  11.386   8.154 -1.3453  0.5170 -0.9231
  971MOL0     H31019   4.892  11.223   8.195 -0.6741 -0.1381 -0.2785
  971MOL0     H31020   4.805  11.073   8.550  0.7714 -0.1904 -1.6054
  971MOL0     H31021   4.698  11.206   8.602  1.0804  0.9401 -0.3172
  971MOL0     H31022   4.599  10.990   8.402  0.5073 -2.6819  1.0580
  971MOL0     H31023   4.583  10.973   8.572  0.1735 -2.6433 -1.9333
  971MOL0     H31024   4.375  11.099   8.537  0.4059  2.0386  2.0303
  971MOL0     H31025   4.494  11.234   8.554 -1.7248 -0.9235  2.4972
  971MOL0     H31026   4.514  11.169   8.285  0.0862 -2.5838  0.0626
  971MOL0     H31027   4.374  11.068   8.316 -1.3146  1.0024  0.1348
  971MOL0     H31028   4.261  11.271   8.408  0.6634  0.4331 -0.4398
  971MOL0     H31029   4.375  11.383   8.343 -0.2494  0.6601 -0.4245
  971MOL0     H31030   4.309  11.275   8.109  0.2069 -1.7254  0.0880
  971MOL0     H31031   4.195  11.183   8.189  2.9748 -0.5937 -1.3274
  971MOL0     H31032   4.057  11.376   8.270 -0.7704  0.2351 -0.8304
  971MOL0     H31033   4.182  11.496   8.223  0.2832 -0.7074  0.3222
  971MOL0     H31034   3.981  11.478   8.080 -1.0641  0.0824 -0.2782
  971MOL0     H31035   4.030  11.311   8.025  2.0787 -1.8202  1.7691
  971MOL0     H31036   3.973  11.447   7.798 -0.8204  0.0155  2.1801
  971MOL0     H31037   4.068  11.668   7.615  2.8568  2.4393 -0.0165
  971MOL0     H31038   4.241  11.641   7.575  0.0128  1.6615  0.0167
  971MOL0     H31039   4.083  11.521   7.422  0.1316 -1.2792 -1.1944
  971MOL0     H31040   4.012  11.436   7.552  1.1197 -1.1754  0.0188
  971MOL0     H31041   4.183  11.320   7.410 -0.6284 -1.8222  1.3134
  971MOL0     H31042   4.210  11.301   7.582 -1.3570 -1.0880 -1.6453
  971MOL0     H31043   4.426  11.340   7.459  1.1982 -0.8221  1.9584
  971MOL0     H31044   4.398  11.452   7.586 -1.0931 -4.2901  1.7366
  971MOL0     H31045   4.487  11.302   7.276  0.1202 -0.3740 -0.4421
  971MOL0     H31046   4.692  11.302   7.001  0.2951  1.4872  2.0862
  971MOL0     H31047   4.605  11.196   7.117 -2.1670 -1.0174 -1.9356
  971MOL0     H31048   4.547  11.206   6.955  1.7200  0.4366 -1.7589
  971MOL0     H31049   4.691  11.451   6.618  0.4977 -0.1592 -2.1846
  971MOL0     H31050   4.795  11.530   6.422  0.7687 -2.2313  3.3043
  971MOL0     H31051   4.945  11.670   6.286  1.3789  0.4363 -1.3167
  971MOL0     H31052   4.792  11.641   6.218  0.9250 -1.4907  1.6971
  971MOL0     H31053   4.939  11.698   6.048 -0.2944 -2.9527  2.1932
  971MOL0     H31054   4.828  11.837   6.067 -2.5542 -3.5071  1.0144
  971MOL0     H31055   5.017  11.941   6.218  0.1305  1.5111 -1.7817
  971MOL0     H31056   5.033  11.952   6.046  0.7909  1.1341  0.2344
  971MOL0     H31057   5.238  11.870   6.194 -0.8692 -0.3889  0.1836
  971MOL0     H31058   5.143  11.718   6.200 -0.9406  0.3849  0.7596
  971MOL0     H31059   5.236  11.831   5.946 -1.3683 -0.8061  0.8902
  971MOL0     H31060   5.142  11.686   5.963  1.0132 -0.8609 -1.1559
  971MOL0     H31061   5.415  11.733   6.093 -0.9480  0.1202  2.2867
  971MOL0     H31062   5.326  11.587   6.120 -0.8022  1.8689  1.2945
  971MOL0     H31063   5.446  11.689   5.861  1.9230 -0.9764 -0.6381
  971MOL0     H31064   5.334  11.552   5.866  0.1631  0.4993 -0.4813
  971MOL0     H31065   5.555  11.463   5.876 -0.3824 -3.6895  1.5275
  971MOL0     H31066   5.467  11.423   6.008  0.5678  0.6203  1.2839
  971MOL0     H31067   4.606  11.922   6.490 -0.8322  0.1377 -0.9432
  971MOL0     H31068   4.507  11.835   6.693  1.9823  1.5788  0.8548
  971MOL0     H31069   4.398  11.697   6.984  0.7234  0.4487  0.4975
  971MOL0     H31070   4.314  11.690   7.213 -0.2990  1.7952 -2.1076
  971MOL0     H31071   4.919  11.316   8.616  2.0528 -1.2695 -0.3242
  971MOL0     H31072   5.108  11.468   8.568  0.9683  0.9675 -0.7707
  971MOL0     H31073   5.429  11.663   8.471 -0.3971  0.1503  0.7735
  971MOL0     H31074   5.635  11.783   8.441  2.0053 -0.5908 -0.5200
  971MOL0     H31075   5.869  11.917   8.297 -2.9935  0.8329  3.0595
  971MOL0     H31076   5.836  11.812   8.435  2.5912 -2.1759  0.9503
  971MOL0     H31077   6.059  11.851   8.428  1.5857  0.4598 -0.9223
  971MOL0     H31078   6.078  11.789   8.260  0.0540 -1.9834  0.1685
  971MOL0     H31079   5.998  11.567   8.321 -0.8511  0.4694  0.9251
  971MOL0     H31080   5.985  11.625   8.493  0.2880 -0.4343  0.9415
  971MOL0     H31081   6.242  11.598   8.328  0.0659  2.4669 -0.3430
  971MOL0     H31082   6.195  11.493   8.462  2.1776  0.0729  0.0219
  971MOL0     H31083   6.358  11.820   8.673  1.7384  0.2436 -0.7785
  971MOL0     H31084   5.691  11.575   8.063 -0.4521  1.0498 -0.1008
  971MOL0     H31085   5.485  11.442   8.108  1.2036  0.5467 -0.0820
  972MOL0     O31086   6.294   5.620   9.690 -0.3996 -0.0917 -0.0909
  972MOL0     C31087   6.401   5.555   9.695 -0.0279 -1.0178 -0.2584
  972MOL0     O31088   6.407   5.424   9.739 -0.2727 -0.9015  0.2502
  972MOL0     C31089   6.297   5.368   9.799 -0.0284  1.0603 -0.7457
  972MOL0     C31090   6.234   5.423   9.912  0.9784  0.3786  1.1389
  972MOL0     C31091   6.134   5.359   9.975  0.3950  0.4843  0.8588
  972MOL0     C31092   6.094   5.240   9.929 -1.3270  0.2442 -0.9531
  972MOL0     O31093   5.987   5.184   9.993 -0.1581  0.1699  0.4079
  972MOL0     C31094   5.948   5.048   9.960  0.0913 -0.2670 -0.5490
  972MOL0     C31095   5.819   5.011  10.040 -0.4551 -0.0979  0.0018
  972MOL0     C31096   5.703   5.120  10.024  0.1267 -0.0193  0.0433
  972MOL0     C31097   5.609   5.107  10.152 -0.3276  0.9407  0.0324
  972MOL0     C31098   5.467   5.073  10.118  0.3762  0.1575  0.3046
  972MOL0     C31099   5.390   5.198  10.077  1.1839 -0.2897  1.1104
  972MOL0     C31100   5.252   5.153  10.021  0.1285 -0.2079 -0.7087
  972MOL0     C31101   5.176   5.273   9.962 -0.1642 -0.2995  0.0310
  972MOL0     N31102   5.034   5.236   9.950  1.0333  0.1372 -0.6681
  972MOL0     C31103   5.000   5.149   9.858 -0.6162  0.1034  0.3232
  972MOL0     C31104   4.871   5.121   9.878  0.6157  0.4321  0.0216
  972MOL0     C31105   4.784   5.016   9.813 -1.3554  0.4241  0.2689
  972MOL0     C31106   4.816   4.878   9.865 -0.3309  0.0853 -0.5196
  972MOL0     C31107   4.712   4.774   9.823  0.0984  0.4710 -0.5223
  972MOL0     C31108   4.733   4.632   9.868  0.5373 -0.4526  0.3458
  972MOL0     O31109   4.631   4.551   9.814 -0.0980  0.0427  0.3845
  972MOL0     C31110   4.513   4.523   9.879 -0.2407 -0.9178  0.3170
  972MOL0     C31111   4.437   4.414   9.842  0.3671 -0.1495 -0.6068
  972MOL0     C31112   4.328   4.364   9.926 -0.6019 -0.0148 -0.4439
  972MOL0     C31113   4.265   4.236   9.874  0.8164 -0.2030  0.1762
  972MOL0     C31114   4.286   4.430  10.042 -0.4389  0.2083 -0.7181
  972MOL0     C31115   4.186   4.379  10.137 -0.3198 -0.4324 -0.2404
  972MOL0     O31116   4.195   4.414  10.266 -0.9808  0.2064  0.1213
  972MOL0     C31117   4.092   4.397  10.350 -0.3564  0.5610 -0.0992
  972MOL0     C31118   4.096   4.295  10.438  0.3241  0.2170  0.2547
  972MOL0     C31119   3.991   4.281  10.530 -0.4624 -1.1885 -0.0111
  972MOL0     C31120   3.883   4.380  10.537 -0.1168  0.2025  0.6681
  972MOL0     O31121   3.787   4.363  10.636 -0.0582 -0.2474  0.4440
  972MOL0     C31122   3.706   4.478  10.679  0.2416  0.6096 -0.0260
  972MOL0     C31123   3.650   4.458  10.826  0.6155  0.2589  0.2327
  972MOL0     C31124   3.757   4.466  10.930 -0.2105 -0.0646 -0.3852
  972MOL0     C31125   3.700   4.494  11.068  0.1111 -0.5161  0.6015
  972MOL0     C31126   3.803   4.562  11.160 -0.1979  0.0042  0.0396
  972MOL0     C31127   3.840   4.701  11.130  0.0898 -0.1102  0.5815
  972MOL0     C31128   3.947   4.743  11.226  0.7365  0.1429  0.1116
  972MOL0     C31129   3.980   4.892  11.206  0.4349 -1.0964  0.0168
  972MOL0    Cl31130   4.055   4.910  11.038 -0.2589 -0.3111  0.0273
  972MOL0     C31131   3.880   4.471  10.429  0.7153  0.2522 -0.2159
  972MOL0     C31132   3.979   4.468  10.334 -0.4005  0.6118 -0.3476
  972MOL0     O31133   4.093   4.315  10.084 -0.6831  0.1448  0.2234
  972MOL0     C31134   4.374   4.532  10.082  0.3351  0.0766 -0.2790
  972MOL0     C31135   4.479   4.588  10.003 -0.1914  0.0995  0.0719
  972MOL0     N31136   4.824   5.217   9.976 -0.1851 -0.5634 -0.3927
  972MOL0     N31137   4.929   5.285  10.019 -0.5477  0.4505 -0.0158
  972MOL0     C31138   6.153   5.174   9.821 -0.4205 -0.6849 -0.1300
  972MOL0     C31139   6.257   5.238   9.750  0.6707 -0.7341 -0.7200
  972MOL0     C31140   6.517   5.633   9.661 -1.3104 -0.2095  0.2110
  972MOL0     C31141   6.523   5.775   9.657  0.0174  0.2463 -1.2337
  972MOL0     C31142   6.622   5.850   9.614 -0.3399 -0.1984 -0.2297
  972MOL0     C31143   6.732   5.785   9.566  0.1948  0.4992  0.5720
  972MOL0     O31144   6.831   5.863   9.508 -0.4285  0.0051 -0.4006
  972MOL0     C31145   6.962   5.813   9.496  0.2157 -0.0584 -0.7460
  972MOL0     C31146   7.043   5.866   9.374 -0.7511 -0.7796  0.1012
  972MOL0     C31147   6.976   5.822   9.243 -0.0303 -0.3133  0.6970
  972MOL0     C31148   6.875   5.924   9.189 -0.1868  0.1800 -0.1551
  972MOL0     C31149   6.945   6.026   9.106 -0.8574 -1.0235  0.0811
  972MOL0     C31150   7.010   6.109   9.061  0.4785  0.5143 -0.8390
  972MOL0     C31151   6.730   5.645   9.566  0.4290  0.9401  0.5382
  972MOL0     C31152   6.637   5.563   9.622  0.4437  0.4448  0.4184
  972MOL0     H31153   6.257   5.520   9.955  2.9855 -1.3783  4.4339
  972MOL0     H31154   6.072   5.402  10.054 -0.6563  0.5854  0.0051
  972MOL0     H31155   5.923   5.042   9.853 -0.8094  0.0461 -0.3636
  972MOL0     H31156   6.028   4.979   9.988  1.8110  1.3708 -1.2178
  972MOL0     H31157   5.779   4.911  10.021  1.0668 -0.9787  1.1886
  972MOL0     H31158   5.852   5.003  10.144 -1.0998  2.5097  0.4663
  972MOL0     H31159   5.744   5.220  10.039  2.8917 -0.6724 -2.2896
  972MOL0     H31160   5.646   5.109   9.931 -0.7611  0.1091  0.5603
  972MOL0     H31161   5.654   5.028  10.213 -2.5578 -1.6693 -1.4734
  972MOL0     H31162   5.610   5.203  10.205  0.4117  0.5354  0.7923
  972MOL0     H31163   5.473   5.003  10.034 -1.2460  0.9292 -0.5067
  972MOL0     H31164   5.411   5.024  10.198 -2.7903 -1.0534 -2.4270
  972MOL0     H31165   5.374   5.259  10.166 -1.7604  0.0180  0.4732
  972MOL0     H31166   5.442   5.252   9.997  0.4787 -0.0057  0.8334
  972MOL0     H31167   5.267   5.079   9.942  2.7529  0.7695 -1.2246
  972MOL0     H31168   5.208   5.099  10.106  1.7728  0.7546  0.8291
  972MOL0     H31169   5.219   5.313   9.869 -1.4795  0.1738 -0.3964
  972MOL0     H31170   5.189   5.362  10.024  1.8004 -1.8330  1.9325
  972MOL0     H31171   5.068   5.099   9.790 -0.0472 -1.8422  2.2180
  972MOL0     H31172   4.677   5.042   9.817 -1.5974 -0.6438  2.7124
  972MOL0     H31173   4.812   5.016   9.707  1.9772  3.2503  0.9750
  972MOL0     H31174   4.813   4.877   9.974  0.1684  1.3440 -0.4766
  972MOL0     H31175   4.911   4.851   9.817 -2.0573 -3.2029 -2.4771
  972MOL0     H31176   4.721   4.763   9.715  0.9643  2.3265 -0.6961
  972MOL0     H31177   4.611   4.805   9.851  0.0998 -0.6771  0.8336
  972MOL0     H31178   4.747   4.629   9.976  0.7904 -0.5599  0.3112
  972MOL0     H31179   4.831   4.597   9.833  0.4085 -0.4148 -0.0654
  972MOL0     H31180   4.468   4.348   9.761  3.1922  0.9186 -0.5004
  972MOL0     H31181   4.266   4.153   9.945  1.8064 -0.8160 -0.5273
  972MOL0     H31182   4.160   4.256   9.849  0.4929  0.1740  1.7668
  972MOL0     H31183   4.324   4.207   9.786 -1.7214  2.5122 -2.7121
  972MOL0     H31184   4.188   4.237  10.432  1.2215  1.7593 -3.0000
  972MOL0     H31185   3.979   4.202  10.604  0.2682 -0.1241  1.2866
  972MOL0     H31186   3.765   4.568  10.656  0.1520  1.2301  2.0099
  972MOL0     H31187   3.619   4.475  10.612  0.2808  0.9654 -0.0996
  972MOL0     H31188   3.586   4.545  10.843  0.9247  1.7115 -4.6431
  972MOL0     H31189   3.596   4.363  10.823  0.5909  0.2974 -0.9442
  972MOL0     H31190   3.824   4.549  10.905  0.2350 -0.0627  0.7577
  972MOL0     H31191   3.824   4.380  10.925  3.2205  2.4512 -1.7892
  972MOL0     H31192   3.618   4.566  11.058  1.8702  1.5897  0.8303
  972MOL0     H31193   3.668   4.401  11.117 -0.7676 -0.0051  1.0302
  972MOL0     H31194   3.889   4.495  11.153  1.4832  2.0845 -0.1165
  972MOL0     H31195   3.763   4.558  11.262  1.2492 -0.3383  0.6288
  972MOL0     H31196   3.875   4.722  11.029  0.2015  0.5874  0.7624
  972MOL0     H31197   3.745   4.755  11.131 -0.6583 -0.8781 -4.2790
  972MOL0     H31198   4.036   4.682  11.205 -0.9638 -2.7951  0.8777
  972MOL0     H31199   3.898   4.717  11.321 -0.4012 -2.1499 -1.0274
  972MOL0     H31200   4.056   4.921  11.279  1.7922 -1.4256 -1.2212
  972MOL0     H31201   3.892   4.957  11.214  0.3313 -1.0526 -1.2366
  972MOL0     H31202   3.796   4.538  10.418 -0.0618 -0.5246  0.7012
  972MOL0     H31203   3.975   4.538  10.251 -1.6200  1.4102  0.3451
  972MOL0     H31204   4.362   4.571  10.183  0.7257  1.8822 -0.8823
  972MOL0     H31205   4.531   4.670  10.050 -0.7745  0.1309  0.6661
  972MOL0     H31206   6.133   5.068   9.805  0.1329 -1.5474  3.7099
  972MOL0     H31207   6.307   5.205   9.659  2.2889  1.4965 -0.7243
  972MOL0     H31208   6.434   5.823   9.697 -0.0261  1.4847 -2.7069
  972MOL0     H31209   6.642   5.957   9.614  3.5343 -0.7512 -1.4543
  972MOL0     H31210   7.025   5.852   9.577 -1.2235 -1.0728  0.9615
  972MOL0     H31211   6.977   5.705   9.509  1.8865  0.2013 -0.2939
  972MOL0     H31212   7.140   5.815   9.382  1.4308  2.9811 -0.0087
  972MOL0     H31213   7.058   5.973   9.384  3.1376 -1.0812 -1.0197
  972MOL0     H31214   6.927   5.726   9.265 -1.3436 -0.1178 -1.1478
  972MOL0     H31215   7.041   5.817   9.155 -1.4229  2.0556 -0.5482
  972MOL0     H31216   6.830   5.977   9.274 -2.4316  1.1882 -1.8471
  972MOL0     H31217   6.791   5.878   9.136 -0.7832 -0.2940  1.1701
  972MOL0     H31218   7.069   6.182   9.008 -2.2647  2.0298 -1.9827
  972MOL0     H31219   6.817   5.594   9.525  1.3336  0.9040  2.4233
  972MOL0     H31220   6.647   5.455   9.635 -0.0315 -0.2904 -3.6935
  973MOL0     O31221   0.995   2.289   5.286 -0.1044 -0.6778 -0.9062
  973MOL0     C31222   1.040   2.186   5.234  0.1339 -0.3058 -0.6272
  973MOL0     O31223   1.157   2.125   5.270  0.5886 -0.2423  0.5931
  973MOL0     C31224   1.253   2.183   5.348 -0.1297 -0.1310  0.4059
  973MOL0     C31225   1.389   2.197   5.290  0.6204 -0.8528 -0.5720
  973MOL0     C31226   1.495   2.250   5.361 -0.8120  0.1671  0.2626
  973MOL0     C31227   1.472   2.265   5.499  0.4637 -0.9130  0.7081
  973MOL0     O31228   1.574   2.301   5.588 -0.1559 -0.2513 -0.1287
  973MOL0     C31229   1.642   2.425   5.549  0.6893  0.1750 -0.1209
  973MOL0     C31230   1.711   2.478   5.676  0.5646  0.1477 -0.4539
  973MOL0     C31231   1.823   2.385   5.725  0.2542  0.3701 -0.7640
  973MOL0     C31232   1.942   2.367   5.627  0.2915 -1.2192  1.2091
  973MOL0     C31233   2.058   2.288   5.687  0.0997 -0.3059 -0.7889
  973MOL0     C31234   2.191   2.331   5.621  0.3468 -0.3149  0.3269
  973MOL0     C31235   2.308   2.241   5.662 -1.5117 -0.9352 -0.4808
  973MOL0     C31236   2.438   2.312   5.662 -0.1764 -0.4029 -0.4028
  973MOL0     N31237   2.471   2.356   5.526 -0.3043 -0.1466  0.7184
  973MOL0     C31238   2.547   2.289   5.433 -0.7875 -0.9073  0.1345
  973MOL0     C31239   2.560   2.375   5.323  0.1732  0.0366 -0.1983
  973MOL0     C31240   2.639   2.339   5.204  0.5373 -0.2910  0.3037
  973MOL0     C31241   2.554   2.292   5.097  0.3162 -0.2298 -0.7635
  973MOL0     C31242   2.599   2.150   5.040  1.5553  0.1428  0.2499
  973MOL0     C31243   2.508   2.103   4.934  0.8092 -0.2365  0.4998
  973MOL0     O31244   2.381   2.064   4.993 -0.7949 -0.7554 -0.3173
  973MOL0     C31245   2.296   1.986   4.911 -0.1198  0.4083  0.8189
  973MOL0     C31246   2.298   1.978   4.772  0.0912  0.2235  0.0576
  973MOL0     C31247   2.201   1.901   4.700  0.5679 -0.1895  0.5474
  973MOL0     C31248   2.203   1.901   4.551 -1.1128 -0.0325 -0.2785
  973MOL0     C31249   2.099   1.831   4.772  0.2642  0.2786  0.1377
  973MOL0     C31250   1.974   1.778   4.711  0.0671  0.1765 -0.4765
  973MOL0     O31251   1.956   1.777   4.566  0.8030  0.6007  0.1975
  973MOL0     C31252   1.857   1.697   4.524  0.0515  0.6102 -1.0122
  973MOL0     C31253   1.750   1.762   4.473  0.1697  0.9376  0.2999
  973MOL0     C31254   1.642   1.694   4.414  0.3058  0.7852 -1.4169
  973MOL0     C31255   1.649   1.559   4.411  0.7965 -0.0949  0.1078
  973MOL0     O31256   1.544   1.488   4.367 -0.6258  0.3623  0.4593
  973MOL0     C31257   1.580   1.394   4.263  0.3568  0.0740 -0.4429
  973MOL0     C31258   1.485   1.392   4.146  0.0403 -0.4934  0.6810
  973MOL0     C31259   1.368   1.311   4.190 -0.7734  0.2980 -1.2310
  973MOL0     C31260   1.262   1.281   4.076 -0.2862  0.1272 -0.0360
  973MOL0     C31261   1.149   1.196   4.125  0.1184 -0.1301  0.3303
  973MOL0     C31262   1.049   1.162   4.017  0.4802 -0.2988 -0.1853
  973MOL0     C31263   0.920   1.107   4.067 -0.2359 -0.0131  0.2871
  973MOL0     C31264   0.842   1.039   3.953 -0.5783 -0.1144  0.2223
  973MOL0    Cl31265   0.798   1.164   3.833 -0.0345  0.3457 -0.3116
  973MOL0     C31266   1.756   1.491   4.465 -1.0930  0.1707 -0.6293
  973MOL0     C31267   1.865   1.562   4.516  0.4601  0.2608 -0.9379
  973MOL0     O31268   1.895   1.728   4.791  0.4187  0.5873  0.0740
  973MOL0     C31269   2.116   1.827   4.911 -0.3592 -0.0406  0.8186
  973MOL0     C31270   2.214   1.903   4.982 -0.2572 -0.7501  0.1924
  973MOL0     N31271   2.501   2.494   5.358  0.0951  0.5039  0.3396
  973MOL0     N31272   2.442   2.478   5.479  0.3200 -0.1322  0.2630
  973MOL0     C31273   1.345   2.250   5.552  0.1540  0.6495 -0.7597
  973MOL0     C31274   1.236   2.224   5.480  0.6468 -0.9447 -0.1641
  973MOL0     C31275   0.949   2.124   5.137 -0.2277 -0.7570 -0.8689
  973MOL0     C31276   0.936   1.990   5.134 -0.2450 -0.2175  0.5760
  973MOL0     C31277   0.845   1.928   5.043  0.1398  0.5005 -0.0480
  973MOL0     C31278   0.778   2.006   4.953 -0.0011 -0.1769  0.9664
  973MOL0     O31279   0.679   1.966   4.868 -0.0046  0.2082 -0.2618
  973MOL0     C31280   0.650   1.828   4.843  0.8165  0.5500  0.1906
  973MOL0     C31281   0.519   1.787   4.921 -0.0488 -0.1693  0.4538
  973MOL0     C31282   0.394   1.766   4.840 -0.1725 -0.9356 -0.4869
  973MOL0     C31283   0.394   1.668   4.727  0.7598 -0.3239  0.3600
  973MOL0     C31284   0.266   1.652   4.667 -0.0971  0.8121 -0.2090
  973MOL0     C31285   0.163   1.618   4.613  0.8736 -1.0029 -0.9960
  973MOL0     C31286   0.790   2.149   4.948  0.7935  1.5897 -0.0981
  973MOL0     C31287   0.889   2.201   5.033 -0.7871 -0.1900  0.0042
  973MOL0     H31288   1.399   2.151   5.192  0.3050 -0.1607 -0.9365
  973MOL0     H31289   1.585   2.268   5.302 -1.4417 -2.2581 -1.6162
  973MOL0     H31290   1.703   2.422   5.458  1.7184 -0.4758  0.5779
  973MOL0     H31291   1.562   2.495   5.521  0.2010 -0.7714 -1.2244
  973MOL0     H31292   1.753   2.578   5.664  1.2071  0.1645  1.5389
  973MOL0     H31293   1.630   2.480   5.750 -0.6196 -1.9544 -1.5926
  973MOL0     H31294   1.865   2.425   5.818  2.3904 -0.4512 -1.3117
  973MOL0     H31295   1.788   2.286   5.752  0.1952  0.3606 -0.8731
  973MOL0     H31296   1.918   2.324   5.529  0.9113 -0.3370  0.6471
  973MOL0     H31297   1.972   2.471   5.606  1.3665 -1.0251  3.4282
  973MOL0     H31298   2.064   2.293   5.796  1.8185  1.0431 -0.8898
  973MOL0     H31299   2.026   2.186   5.665 -0.7496 -0.3761  0.6931
  973MOL0     H31300   2.175   2.346   5.514  0.7800  2.7831  0.6237
  973MOL0     H31301   2.206   2.436   5.645 -2.4699  0.3206 -0.2918
  973MOL0     H31302   2.294   2.198   5.762 -0.2091  1.4179  0.8259
  973MOL0     H31303   2.316   2.165   5.585 -2.5823 -0.3244 -1.2095
  973MOL0     H31304   2.518   2.261   5.716 -0.8351  0.6370  1.6640
  973MOL0     H31305   2.427   2.408   5.712 -1.2661 -0.2652 -0.8689
  973MOL0     H31306   2.581   2.186   5.443 -1.1913 -1.2874 -1.9418
  973MOL0     H31307   2.683   2.434   5.171  1.5551 -0.7298  0.3324
  973MOL0     H31308   2.716   2.265   5.228  0.0186 -1.5997 -1.8131
  973MOL0     H31309   2.555   2.368   5.018 -0.2554  0.7776  0.1844
  973MOL0     H31310   2.456   2.271   5.141 -0.2393 -2.6130 -2.8462
  973MOL0     H31311   2.594   2.079   5.123  1.1441  3.0892  2.9806
  973MOL0     H31312   2.698   2.160   4.995  0.0184  0.8708 -3.2656
  973MOL0     H31313   2.568   2.020   4.895  0.4624 -2.3329  3.9597
  973MOL0     H31314   2.497   2.173   4.851 -1.3852 -1.7491 -0.5975
  973MOL0     H31315   2.369   2.034   4.712 -0.1674  0.4798 -0.0092
  973MOL0     H31316   2.202   1.797   4.517  1.7267  0.3738 -1.9797
  973MOL0     H31317   2.114   1.958   4.522  0.7851  2.8705 -0.8273
  973MOL0     H31318   2.292   1.952   4.514 -0.2834  0.1289  1.8049
  973MOL0     H31319   1.733   1.869   4.477 -4.4987  0.3929  2.9612
  973MOL0     H31320   1.552   1.743   4.378 -0.8092 -0.2002 -0.0863
  973MOL0     H31321   1.683   1.412   4.230  0.1547 -1.2755 -1.8923
  973MOL0     H31322   1.581   1.297   4.313 -2.0868 -0.0837 -0.5850
  973MOL0     H31323   1.459   1.494   4.117  4.9011  0.8835  0.2966
  973MOL0     H31324   1.538   1.355   4.057 -2.6502 -0.1043 -1.1847
  973MOL0     H31325   1.316   1.365   4.270  0.4778 -0.9979  0.5545
  973MOL0     H31326   1.400   1.213   4.226  0.3718  0.0004 -2.9771
  973MOL0     H31327   1.221   1.370   4.028  0.6305 -0.1903 -1.4729
  973MOL0     H31328   1.314   1.223   3.999  0.7539 -0.2769  0.9390
  973MOL0     H31329   1.098   1.235   4.214 -0.8083 -1.6958  0.5255
  973MOL0     H31330   1.192   1.101   4.158 -0.8551 -0.5483  0.4019
  973MOL0     H31331   1.024   1.253   3.962 -4.0034 -2.0576 -1.5132
  973MOL0     H31332   1.097   1.087   3.954  0.8500 -0.6005  0.4467
  973MOL0     H31333   0.866   1.196   4.102 -2.6179 -0.8364 -1.0160
  973MOL0     H31334   0.934   1.043   4.154 -0.4823  1.6491  1.6002
  973MOL0     H31335   0.747   0.999   3.990  0.8727 -1.4338  2.7573
  973MOL0     H31336   0.899   0.956   3.910  1.0559  1.2112 -0.2416
  973MOL0     H31337   1.770   1.384   4.473 -0.1772  0.2869 -0.5633
  973MOL0     H31338   1.948   1.504   4.553 -1.1985 -0.6795  1.5409
  973MOL0     H31339   2.043   1.772   4.970  0.9484  0.1252  2.6902
  973MOL0     H31340   2.208   1.908   5.091  0.2876  1.5915  0.1489
  973MOL0     H31341   1.340   2.272   5.658 -0.1975 -1.6938 -0.2199
  973MOL0     H31342   1.134   2.221   5.519 -0.0530 -1.8714 -1.9533
  973MOL0     H31343   0.984   1.932   5.212 -1.6041  1.1602  2.5584
  973MOL0     H31344   0.824   1.823   5.060  0.4217  0.9267  3.8029
  973MOL0     H31345   0.635   1.801   4.738  1.4207 -2.1204  0.7058
  973MOL0     H31346   0.722   1.751   4.873 -1.2157 -0.9785  1.4696
  973MOL0     H31347   0.504   1.869   4.992 -0.6285 -0.5652  0.7954
  973MOL0     H31348   0.531   1.690   4.970 -0.9718 -0.7118 -0.3533
  973MOL0     H31349   0.375   1.869   4.806 -2.3888 -0.4320  1.9626
  973MOL0     H31350   0.309   1.748   4.906 -1.0328  0.6413 -1.1020
  973MOL0     H31351   0.436   1.576   4.768 -1.3226 -2.0605 -1.1436
  973MOL0     H31352   0.461   1.703   4.648 -0.0349 -1.7710 -1.0067
  973MOL0     H31353   0.072   1.605   4.559  0.8840  0.0076 -1.2720
  973MOL0     H31354   0.738   2.212   4.877 -0.1741  0.1259 -0.7495
  973MOL0     H31355   0.907   2.308   5.035 -3.5918  0.3648  0.6910
  974MOL0     O31356   3.447   6.025  11.018  0.2399  0.4089  0.5301
  974MOL0     C31357   3.480   5.936  10.942  0.4979  0.8231 -0.5838
  974MOL0     O31358   3.408   5.832  10.899  1.0886 -0.3075 -0.2113
  974MOL0     C31359   3.275   5.827  10.931 -0.1936  0.3233 -0.0807
  974MOL0     C31360   3.227   5.719  11.000  0.2717  0.8205  0.3056
  974MOL0     C31361   3.086   5.698  11.014 -0.0394 -0.0150  0.8091
  974MOL0     C31362   2.989   5.795  10.970  0.0724 -0.5043 -0.1884
  974MOL0     O31363   2.855   5.777  10.973  0.5068  0.2592 -0.4405
  974MOL0     C31364   2.783   5.853  11.071 -0.1240 -0.5698  0.2339
  974MOL0     C31365   2.666   5.937  11.020 -0.2833  0.5728 -0.4055
  974MOL0     C31366   2.554   5.843  10.967 -0.6563  0.5627  0.0041
  974MOL0     C31367   2.507   5.723  11.053 -1.6186  0.1973  0.4994
  974MOL0     C31368   2.437   5.762  11.173 -0.8168  0.0772 -0.5000
  974MOL0     C31369   2.353   5.666  11.244 -1.1124  0.5784  0.0376
  974MOL0     C31370   2.268   5.742  11.339 -0.0530 -0.7119  0.0688
  974MOL0     C31371   2.178   5.640  11.412 -0.0176  0.1521 -0.2714
  974MOL0     N31372   2.077   5.586  11.319 -0.3505 -0.5224 -0.2892
  974MOL0     C31373   1.976   5.668  11.268 -0.3669 -0.1302 -0.8750
  974MOL0     C31374   1.882   5.585  11.223 -0.3537 -0.3779 -0.0250
  974MOL0     C31375   1.740   5.618  11.178 -0.6577  0.6266 -0.4481
  974MOL0     C31376   1.707   5.547  11.046 -0.5357  0.1657 -0.6079
  974MOL0     C31377   1.607   5.630  10.957 -0.0607 -0.4076  0.1114
  974MOL0     C31378   1.486   5.669  11.043  0.2601  0.5132 -0.5588
  974MOL0     O31379   1.434   5.563  11.123  0.2390 -0.1057  0.9029
  974MOL0     C31380   1.309   5.520  11.082 -0.1868  0.1456  0.1119
  974MOL0     C31381   1.200   5.567  11.160  0.2415 -0.3559  0.3890
  974MOL0     C31382   1.075   5.506  11.142 -0.6154 -0.9354  0.6935
  974MOL0     C31383   0.966   5.564  11.230 -0.1621  0.1695  0.1487
  974MOL0     C31384   1.051   5.417  11.039 -0.3398  0.1579 -0.5369
  974MOL0     C31385   0.924   5.354  11.022  0.3509 -0.3935  1.0352
  974MOL0     O31386   0.823   5.373  11.107 -0.2297 -0.1334 -0.2656
  974MOL0     C31387   0.707   5.302  11.088  1.1955 -0.1722  0.1015
  974MOL0     C31388   0.703   5.161  11.100  0.2120 -1.1133 -0.4574
  974MOL0     C31389   0.587   5.090  11.105  0.2023 -0.0325 -0.4765
  974MOL0     C31390   0.468   5.158  11.078  0.2589 -0.1470 -0.0858
  974MOL0     O31391   0.349   5.092  11.082 -0.2866 -0.3348 -0.0724
  974MOL0     C31392   0.338   4.950  11.097  0.5904 -0.4224  0.2649
  974MOL0     C31393   0.189   4.931  11.094 -0.1752  1.0687  0.0643
  974MOL0     C31394   0.173   4.774  11.088 -0.0666  0.6040  0.0506
  974MOL0     C31395   0.025   4.743  11.080 -0.3927 -0.6070  0.2687
  974MOL0     C31396  -0.013   4.592  11.094 -0.1260  0.5664  0.1064
  974MOL0     C31397   0.054   4.502  10.981 -0.2996  0.2565  0.0406
  974MOL0     C31398   0.042   4.351  11.018 -0.5309 -1.0569 -0.0418
  974MOL0     C31399  -0.093   4.293  10.995  0.4798  0.4739 -0.7161
  974MOL0    Cl31400  -0.122   4.155  11.115  0.0921  0.0528  0.4043
  974MOL0     C31401   0.467   5.300  11.063  0.0986  0.4518 -0.3765
  974MOL0     C31402   0.582   5.373  11.066  0.4027 -0.1453 -0.0635
  974MOL0     O31403   0.920   5.275  10.927 -0.0502  0.4286  0.8140
  974MOL0     C31404   1.159   5.374  10.961 -0.6394  0.3387  1.0146
  974MOL0     C31405   1.288   5.417  10.983 -0.5165 -0.0627 -0.9103
  974MOL0     N31406   1.921   5.458  11.248 -0.7256 -0.1893 -0.5704
  974MOL0     N31407   2.031   5.459  11.309  0.4951  0.4303 -1.6453
  974MOL0     C31408   3.043   5.910  10.909 -0.2733  1.2244  0.3246
  974MOL0     C31409   3.181   5.921  10.882  0.6702  0.2974  0.7576
  974MOL0     C31410   3.619   5.944  10.901  0.3544  0.8357  0.2472
  974MOL0     C31411   3.659   5.873  10.787 -0.0617 -0.0363 -0.2795
  974MOL0     C31412   3.795   5.859  10.754  0.0541 -0.7669  0.1019
  974MOL0     C31413   3.896   5.925  10.825  0.0329  0.1667  0.4317
  974MOL0     O31414   4.023   5.928  10.788  0.2534  0.0192 -0.2946
  974MOL0     C31415   4.054   6.046  10.712  0.2760  1.5223  0.3032
  974MOL0     C31416   4.198   6.054  10.672 -0.5641  0.2090 -0.6973
  974MOL0     C31417   4.291   5.991  10.779  0.7527  0.1046 -0.1516
  974MOL0     C31418   4.441   6.023  10.758  0.1726 -0.2247 -0.2360
  974MOL0     C31419   4.470   5.957  10.632 -0.3297 -0.2379  0.0728
  974MOL0     C31420   4.500   5.910  10.522 -0.4519 -0.5304 -0.2310
  974MOL0     C31421   3.858   5.986  10.947  0.8185 -0.4350  0.0378
  974MOL0     C31422   3.718   6.009  10.978 -0.0116  0.0398  0.3952
  974MOL0     H31423   3.292   5.644  11.045 -1.1030 -1.8010 -1.8201
  974MOL0     H31424   3.071   5.599  11.055  1.9306  0.6436  3.4069
  974MOL0     H31425   2.753   5.780  11.146 -0.0374  0.6289  1.4683
  974MOL0     H31426   2.844   5.925  11.126 -0.3606  0.9047 -1.3302
  974MOL0     H31427   2.638   6.008  11.099 -0.6335  1.6599 -1.4719
  974MOL0     H31428   2.709   5.999  10.941  0.7301 -0.2881 -0.5421
  974MOL0     H31429   2.464   5.904  10.960 -0.9654  0.1990  0.6970
  974MOL0     H31430   2.591   5.807  10.870  2.8174  0.7251  1.1274
  974MOL0     H31431   2.437   5.671  10.988  0.1246  1.0430 -2.1890
  974MOL0     H31432   2.584   5.647  11.066 -0.3764  1.1803 -0.8138
  974MOL0     H31433   2.510   5.809  11.240 -0.8638  0.2128 -0.5420
  974MOL0     H31434   2.370   5.844  11.143  1.6564  2.8407  1.0091
  974MOL0     H31435   2.291   5.610  11.175 -0.8256  1.9370 -1.3666
  974MOL0     H31436   2.417   5.593  11.296  1.9814  3.9314  1.4240
  974MOL0     H31437   2.328   5.782  11.421 -0.1787 -0.4196  0.0185
  974MOL0     H31438   2.212   5.827  11.299 -0.3790 -0.3015  1.3690
  974MOL0     H31439   2.132   5.683  11.501 -0.4689  0.0880 -0.4714
  974MOL0     H31440   2.241   5.558  11.447 -2.8405 -2.2515 -0.3723
  974MOL0     H31441   1.971   5.776  11.279 -0.2336 -0.3795  5.1189
  974MOL0     H31442   1.664   5.602  11.254 -1.6160  1.3962 -1.2164
  974MOL0     H31443   1.727   5.723  11.150 -1.8899 -0.2755 -3.8426
  974MOL0     H31444   1.668   5.446  11.054 -0.8285  0.2182 -1.3291
  974MOL0     H31445   1.804   5.539  10.997 -0.7518  1.0851 -1.2173
  974MOL0     H31446   1.583   5.562  10.874 -2.3884  2.1898 -1.5145
  974MOL0     H31447   1.662   5.716  10.918 -0.4961 -0.8389 -1.5537
  974MOL0     H31448   1.406   5.706  10.977  0.5249  1.2206 -0.4982
  974MOL0     H31449   1.512   5.759  11.100 -1.4839  0.0593  1.0397
  974MOL0     H31450   1.227   5.631  11.244  4.5971 -1.3951  0.0527
  974MOL0     H31451   0.912   5.493  11.293  1.4969  0.2520  1.7482
  974MOL0     H31452   1.001   5.643  11.298  1.1592 -0.0467 -0.2472
  974MOL0     H31453   0.897   5.606  11.157 -0.2277 -0.5204 -0.1905
  974MOL0     H31454   0.799   5.111  11.097 -0.3244 -2.1209 -1.6605
  974MOL0     H31455   0.599   4.982  11.106  2.5862  0.1897  0.2180
  974MOL0     H31456   0.391   4.881  11.030  0.0877 -1.6520  1.0932
  974MOL0     H31457   0.370   4.926  11.198 -0.4537  0.5155  0.8470
  974MOL0     H31458   0.147   4.970  11.188  2.2357  0.7422  1.3750
  974MOL0     H31459   0.144   4.971  11.003 -1.4083  0.8770  0.5707
  974MOL0     H31460   0.217   4.726  11.176 -0.3463  2.1392  1.0709
  974MOL0     H31461   0.225   4.739  10.999  2.0956  3.1131  0.2023
  974MOL0     H31462  -0.034   4.797  11.155 -1.3829 -3.6188  1.8369
  974MOL0     H31463  -0.009   4.776  10.982  2.2053 -0.1278 -0.5570
  974MOL0     H31464  -0.122   4.591  11.084 -0.6618  3.1194  3.7176
  974MOL0     H31465   0.009   4.546  11.190  0.8534 -2.1197 -1.3085
  974MOL0     H31466   0.020   4.523  10.879  4.7809 -2.8351 -2.7247
  974MOL0     H31467   0.159   4.532  10.985 -0.8784  2.5173 -0.5074
  974MOL0     H31468   0.069   4.337  11.123  0.8533 -0.6673 -0.3240
  974MOL0     H31469   0.109   4.296  10.952  0.6520  1.3245 -0.9746
  974MOL0     H31470  -0.087   4.241  10.899  2.8869 -1.6370  0.4710
  974MOL0     H31471  -0.180   4.359  10.998  0.4611  0.4321  1.8636
  974MOL0     H31472   0.372   5.351  11.054 -1.0651 -1.3672  0.8507
  974MOL0     H31473   0.577   5.481  11.061  0.9860  0.0288  2.2356
  974MOL0     H31474   1.151   5.311  10.873 -3.0064  0.5078  1.0332
  974MOL0     H31475   1.377   5.384  10.930 -0.7556  3.3289 -3.7626
  974MOL0     H31476   2.982   5.993  10.875 -2.2357  0.2580  1.3592
  974MOL0     H31477   3.215   6.010  10.831  1.4841 -0.8405 -0.7622
  974MOL0     H31478   3.597   5.819  10.717  1.7222 -0.1951 -1.7950
  974MOL0     H31479   3.809   5.792  10.669 -0.4134 -0.3384 -0.3159
  974MOL0     H31480   4.003   6.053  10.615  0.8870  0.9907 -0.0679
  974MOL0     H31481   4.016   6.122  10.780 -5.6071  0.0281 -0.7563
  974MOL0     H31482   4.232   6.156  10.655  3.0983 -0.7102  0.2165
  974MOL0     H31483   4.213   5.995  10.581  1.6439  2.0591 -1.6166
  974MOL0     H31484   4.272   5.885  10.797 -3.4698  0.8866  1.1308
  974MOL0     H31485   4.252   6.050  10.863 -3.8485  0.0919 -1.9771
  974MOL0     H31486   4.503   5.975  10.834 -0.7342  2.1726  2.1806
  974MOL0     H31487   4.453   6.132  10.753 -0.0990 -0.2032 -0.4401
  974MOL0     H31488   4.539   5.871  10.430 -0.0918  1.9690 -1.2310
  974MOL0     H31489   3.935   6.031  11.009  0.3646  1.8020 -0.9158
  974MOL0     H31490   3.689   6.057  11.071  0.8407  1.0495  0.1591
  975MOL0     O31491   3.960   2.960   7.544 -0.2361  0.4421  1.0606
  975MOL0     C31492   3.998   2.851   7.581 -0.4820  0.0500 -0.4333
  975MOL0     O31493   3.918   2.746   7.615 -0.0189  0.0726 -0.1658
  975MOL0     C31494   3.781   2.745   7.566  0.3097 -0.3679 -0.0119
  975MOL0     C31495   3.684   2.667   7.627 -0.6278  0.5173 -0.6195
  975MOL0     C31496   3.553   2.660   7.586 -0.7952  0.4552 -0.2233
  975MOL0     C31497   3.518   2.709   7.460  0.0102 -0.5532 -0.3748
  975MOL0     O31498   3.393   2.685   7.417 -0.0374  0.2371  0.5455
  975MOL0     C31499   3.395   2.575   7.322  0.4903 -0.9458 -0.0295
  975MOL0     C31500   3.313   2.462   7.385  0.5672 -0.7539 -1.0902
  975MOL0     C31501   3.178   2.501   7.451  0.2537  0.6995  0.8700
  975MOL0     C31502   3.176   2.523   7.600 -0.0879  0.4710 -0.4441
  975MOL0     C31503   3.042   2.566   7.668 -0.3346 -0.1422  0.2404
  975MOL0     C31504   3.063   2.543   7.820  0.3783 -0.1621  0.6743
  975MOL0     C31505   2.930   2.562   7.895 -0.2714  0.0213 -0.2421
  975MOL0     C31506   2.961   2.575   8.044 -0.0300 -0.4930  0.4663
  975MOL0     N31507   2.994   2.452   8.108  0.6516 -0.0423 -0.2527
  975MOL0     C31508   2.895   2.359   8.134  0.0255  0.4615 -0.0861
  975MOL0     C31509   2.949   2.290   8.243  0.1449  0.0659  0.9802
  975MOL0     C31510   2.894   2.173   8.319 -0.6439 -0.3599  0.2011
  975MOL0     C31511   2.882   2.210   8.469  0.2784  0.1843 -0.8204
  975MOL0     C31512   2.749   2.288   8.498  0.5835  0.8133 -0.6796
  975MOL0     C31513   2.751   2.354   8.642 -0.0234  0.6378  0.5452
  975MOL0     O31514   2.712   2.256   8.743 -0.1318  0.0682  0.2255
  975MOL0     C31515   2.577   2.229   8.745  0.7035  0.5487 -0.7143
  975MOL0     C31516   2.534   2.134   8.838  0.2867  0.1620  0.8600
  975MOL0     C31517   2.404   2.089   8.845 -0.0658 -0.4276  0.0408
  975MOL0     C31518   2.348   2.005   8.966  0.5684 -0.0264  0.4484
  975MOL0     C31519   2.311   2.138   8.748 -1.2331 -0.2615  0.0844
  975MOL0     C31520   2.173   2.104   8.761 -0.7341 -0.3774  0.5509
  975MOL0     O31521   2.145   1.972   8.751 -0.1155 -0.2162  0.4315
  975MOL0     C31522   2.029   1.922   8.804  0.5057  0.0518 -0.0869
  975MOL0     C31523   1.965   1.823   8.730 -0.6622  0.0033 -0.0499
  975MOL0     C31524   1.845   1.758   8.778 -0.8040  0.3419  0.1230
  975MOL0     C31525   1.780   1.791   8.897 -1.0749 -0.7507  0.6164
  975MOL0     O31526   1.658   1.735   8.928  0.7239  0.0591  0.4961
  975MOL0     C31527   1.552   1.830   8.885 -0.2152 -0.1194 -0.8853
  975MOL0     C31528   1.432   1.819   8.985 -0.7697  0.6726 -0.4648
  975MOL0     C31529   1.304   1.897   8.941 -0.0504  0.4612  0.4704
  975MOL0     C31530   1.324   2.050   8.919  0.8062  0.9421 -0.2432
  975MOL0     C31531   1.206   2.133   8.869 -0.7872 -0.3055 -0.4783
  975MOL0     C31532   1.084   2.145   8.969 -0.2880 -0.2235 -0.8322
  975MOL0     C31533   1.097   2.243   9.077  0.6264  0.5425 -0.4964
  975MOL0     C31534   0.966   2.292   9.130  1.0770 -0.3851 -0.6397
  975MOL0    Cl31535   0.871   2.406   9.022 -0.3984  0.1378  0.2061
  975MOL0     C31536   1.841   1.906   8.962  0.5031 -0.5912 -0.3884
  975MOL0     C31537   1.964   1.966   8.920 -0.4226  0.0850  0.6456
  975MOL0     O31538   2.100   2.200   8.783 -0.3776 -0.4021  0.3870
  975MOL0     C31539   2.349   2.242   8.656  0.6319 -0.1964 -0.1981
  975MOL0     C31540   2.479   2.282   8.658  0.7622  0.2299  0.3804
  975MOL0     N31541   3.080   2.328   8.255  0.4503  0.3829  0.9777
  975MOL0     N31542   3.099   2.424   8.175 -0.5863  0.2475  0.3933
  975MOL0     C31543   3.617   2.779   7.383 -0.5212  0.0370 -0.6098
  975MOL0     C31544   3.745   2.794   7.439 -0.3814 -0.5214  0.1689
  975MOL0     C31545   4.143   2.818   7.603 -0.6892  0.4120 -0.1798
  975MOL0     C31546   4.247   2.918   7.616  0.1598  0.1537  0.1126
  975MOL0     C31547   4.381   2.890   7.625 -0.1688  0.7945 -0.5411
  975MOL0     C31548   4.428   2.753   7.612 -0.1399  0.3122  0.9047
  975MOL0     O31549   4.557   2.698   7.599  0.2810 -0.1435  0.0812
  975MOL0     C31550   4.641   2.759   7.696 -0.7647 -0.2822 -0.3096
  975MOL0     C31551   4.780   2.708   7.681  0.1683  0.1080 -0.0609
  975MOL0     C31552   4.842   2.732   7.539 -0.5013 -0.2383  0.1641
  975MOL0     C31553   4.894   2.886   7.533  0.5656  0.4099  0.1394
  975MOL0     C31554   5.033   2.911   7.587 -0.3031 -0.5792  0.3333
  975MOL0     C31555   5.140   2.936   7.645  0.5214  0.4234 -0.4364
  975MOL0     C31556   4.326   2.663   7.588 -1.1013  0.2945 -0.0790
  975MOL0     C31557   4.189   2.689   7.589  0.4825  0.2149 -0.0139
  975MOL0     H31558   3.720   2.623   7.720 -2.4245  0.9681  0.3190
  975MOL0     H31559   3.474   2.606   7.637 -0.2719  0.8794  1.0933
  975MOL0     H31560   3.343   2.605   7.230 -0.0331 -5.3241 -1.4284
  975MOL0     H31561   3.492   2.542   7.284  1.7703  1.9071  0.5596
  975MOL0     H31562   3.308   2.375   7.318 -0.7886 -4.4234  3.2423
  975MOL0     H31563   3.375   2.436   7.472  1.5528  4.1977 -0.0487
  975MOL0     H31564   3.139   2.588   7.397  2.6465  1.6909  0.6210
  975MOL0     H31565   3.104   2.423   7.431 -4.1328  3.9858  2.6732
  975MOL0     H31566   3.212   2.432   7.648 -1.4683  2.1488  4.4270
  975MOL0     H31567   3.246   2.605   7.620  0.9606 -0.3739 -0.5935
  975MOL0     H31568   3.013   2.669   7.644 -1.4650 -0.7725 -1.3316
  975MOL0     H31569   2.973   2.498   7.617 -0.3027 -0.7769  1.0189
  975MOL0     H31570   3.111   2.447   7.842 -0.8826 -1.1432 -0.6242
  975MOL0     H31571   3.134   2.622   7.845 -0.0055  1.0516 -1.7625
  975MOL0     H31572   2.870   2.649   7.868 -0.3704  0.3387  0.9452
  975MOL0     H31573   2.866   2.475   7.877 -1.7141  0.6044  1.6588
  975MOL0     H31574   2.869   2.609   8.092 -0.2002  1.1818 -0.9445
  975MOL0     H31575   3.046   2.643   8.056  3.0930 -3.9101 -0.5513
  975MOL0     H31576   2.798   2.327   8.099  0.1753 -1.6627  1.2408
  975MOL0     H31577   2.800   2.135   8.280 -1.5707  0.2479  1.7475
  975MOL0     H31578   2.969   2.093   8.314 -0.1470  0.0505  0.8052
  975MOL0     H31579   2.970   2.268   8.498 -1.2727  2.0213  0.4914
  975MOL0     H31580   2.870   2.114   8.519  5.4395 -1.2176 -1.6498
  975MOL0     H31581   2.667   2.217   8.498  0.9866  0.3427 -0.7918
  975MOL0     H31582   2.728   2.364   8.422  1.2582 -0.4499 -2.1800
  975MOL0     H31583   2.684   2.439   8.657 -3.4009 -1.3850 -1.9561
  975MOL0     H31584   2.852   2.381   8.677  0.3881 -1.2222  0.8970
  975MOL0     H31585   2.605   2.089   8.907 -0.0097 -1.3221  0.2432
  975MOL0     H31586   2.262   2.060   9.006 -0.0703  0.8579 -1.9569
  975MOL0     H31587   2.306   1.913   8.923  0.0286  1.8963 -3.5776
  975MOL0     H31588   2.417   1.984   9.048  2.0773  1.0847 -0.4847
  975MOL0     H31589   2.003   1.782   8.637 -0.7379  0.1806 -0.1614
  975MOL0     H31590   1.816   1.675   8.714 -2.6281  0.0905  1.1989
  975MOL0     H31591   1.588   1.933   8.889  1.4283 -0.6701 -0.2286
  975MOL0     H31592   1.519   1.818   8.782  0.6841 -0.7544 -1.1149
  975MOL0     H31593   1.409   1.712   8.993 -0.1223  0.6455  1.3584
  975MOL0     H31594   1.456   1.867   9.080  0.3571  1.4488 -1.1140
  975MOL0     H31595   1.226   1.883   9.016 -1.3623  0.5682 -0.8172
  975MOL0     H31596   1.255   1.857   8.851  0.4189  1.6249 -0.3335
  975MOL0     H31597   1.349   2.094   9.016  0.5328 -0.6539  0.5906
  975MOL0     H31598   1.409   2.058   8.850  0.9583  0.5410 -0.1105
  975MOL0     H31599   1.162   2.084   8.782  0.0362  2.3398 -2.5070
  975MOL0     H31600   1.256   2.229   8.855  1.3007 -1.3155 -0.2027
  975MOL0     H31601   0.995   2.186   8.920  0.4417  0.2620 -1.7713
  975MOL0     H31602   1.058   2.049   9.015 -1.6053 -1.0375 -3.0913
  975MOL0     H31603   1.157   2.327   9.041  1.0989 -0.4264 -2.1084
  975MOL0     H31604   1.156   2.208   9.163 -0.1043 -0.5077 -0.4030
  975MOL0     H31605   0.986   2.342   9.225  1.8463 -1.5419 -0.1560
  975MOL0     H31606   0.912   2.199   9.150 -0.8097  0.5284 -1.2379
  975MOL0     H31607   1.793   1.935   9.055  1.2890 -2.0378  0.5168
  975MOL0     H31608   1.994   2.059   8.969 -1.9046  0.0952  1.5859
  975MOL0     H31609   2.273   2.288   8.593  0.5294 -0.2783 -0.1345
  975MOL0     H31610   2.504   2.355   8.581  0.2873 -0.1634 -0.1619
  975MOL0     H31611   3.602   2.812   7.280 -0.2517  3.9322  0.4672
  975MOL0     H31612   3.817   2.845   7.376  2.1271 -1.4224  2.1306
  975MOL0     H31613   4.202   3.017   7.612  0.0188  0.0615 -0.9854
  975MOL0     H31614   4.455   2.969   7.620  1.2612 -0.5193 -3.3068
  975MOL0     H31615   4.648   2.867   7.684  0.8558 -0.4244 -0.8944
  975MOL0     H31616   4.609   2.740   7.799  0.1829  0.0138  0.0447
  975MOL0     H31617   4.779   2.600   7.699 -0.1032  0.3385  1.4100
  975MOL0     H31618   4.848   2.757   7.752  3.4463 -0.8464 -2.2755
  975MOL0     H31619   4.762   2.722   7.465  0.5071 -2.5348 -0.7075
  975MOL0     H31620   4.920   2.659   7.519  1.0230 -0.3626  5.1136
  975MOL0     H31621   4.820   2.955   7.573 -0.6126 -0.1706 -0.9680
  975MOL0     H31622   4.895   2.909   7.426  0.1724  0.7121  0.2014
  975MOL0     H31623   5.228   2.961   7.701 -1.3773  0.7834  2.6233
  975MOL0     H31624   4.366   2.563   7.574  2.5202  1.6115 -0.0785
  975MOL0     H31625   4.132   2.597   7.576  0.1244  0.0561  2.2025
  976MOL0     O31626   9.665   2.844   7.154 -0.1797  0.0140 -0.0554
  976MOL0     C31627   9.630   2.932   7.083 -0.8297  0.4887  0.6585
  976MOL0     O31628   9.704   3.000   6.988 -0.1912 -0.1758 -0.0772
  976MOL0     C31629   9.841   2.970   6.983 -0.6202  0.9135  0.0432
  976MOL0     C31630   9.889   2.874   6.898  0.3440 -0.7757  0.9332
  976MOL0     C31631  10.033   2.847   6.888  0.0201  0.3977  0.3222
  976MOL0     C31632  10.128   2.926   6.961 -0.5199 -0.2154  0.0679
  976MOL0     O31633  10.260   2.897   6.942  0.9931 -0.0676 -0.3679
  976MOL0     C31634  10.349   2.958   7.035 -0.4718  0.6613  0.3548
  976MOL0     C31635  10.483   2.921   6.980 -0.1484 -0.0512 -0.0223
  976MOL0     C31636  10.599   2.996   7.042  0.0733 -1.4186  0.2920
  976MOL0     C31637  10.729   2.985   6.967 -0.0113 -0.5213  0.9360
  976MOL0     C31638  10.827   3.078   7.031 -0.0582  0.0736 -0.6905
  976MOL0     C31639  10.961   3.072   6.960 -0.3462 -0.2236 -0.2259
  976MOL0     C31640  11.066   3.127   7.051  0.0370 -0.6104 -0.1761
  976MOL0     C31641  11.213   3.125   6.988  0.9133  0.8016  0.7533
  976MOL0     N31642  11.297   3.222   7.059  0.2034  0.2555  0.5420
  976MOL0     C31643  11.333   3.214   7.184 -0.0346  0.1624  0.4368
  976MOL0     C31644  11.385   3.339   7.217 -0.0938  1.0972 -0.6281
  976MOL0     C31645  11.469   3.359   7.343  0.2088  0.0142 -0.5077
  976MOL0     C31646  11.390   3.419   7.451 -0.2276 -0.1325 -0.5167
  976MOL0     C31647  11.289   3.318   7.513  0.0172 -0.8673  0.2615
  976MOL0     C31648  11.185   3.393   7.594 -0.0623 -0.7992  0.4899
  976MOL0     O31649  11.070   3.313   7.628 -0.3376 -0.0264  0.2608
  976MOL0     C31650  10.950   3.366   7.652  0.1339 -0.4307  1.0838
  976MOL0     C31651  10.833   3.284   7.642  0.6508  0.3920  0.1664
  976MOL0     C31652  10.700   3.328   7.664 -0.3659  0.5378 -0.2348
  976MOL0     C31653  10.585   3.228   7.657  0.7992 -0.6458 -0.2473
  976MOL0     C31654  10.685   3.460   7.708 -1.0236 -0.6732 -0.5498
  976MOL0     C31655  10.550   3.522   7.721  0.3697  0.3491 -1.0135
  976MOL0     O31656  10.453   3.500   7.622  0.5397 -0.4031  0.6316
  976MOL0     C31657  10.345   3.592   7.621  0.1244 -0.0173  0.0217
  976MOL0     C31658  10.258   3.618   7.733  0.6085 -0.6840 -0.6921
  976MOL0     C31659  10.147   3.705   7.709 -0.1245 -0.2410 -1.0383
  976MOL0     C31660  10.134   3.772   7.590  0.3681  0.7300 -0.2920
  976MOL0     O31661  10.017   3.847   7.572 -0.3808  0.9556 -0.4705
  976MOL0     C31662   9.987   3.908   7.442  0.7798 -0.1514  0.6403
  976MOL0     C31663   9.951   3.817   7.325 -0.0661 -0.3251 -0.1191
  976MOL0     C31664   9.918   3.896   7.194 -0.1360  0.8449 -0.1812
  976MOL0     C31665   9.842   3.806   7.092 -0.2122  0.4654  0.4290
  976MOL0     C31666   9.778   3.893   6.985 -0.0081 -0.4164 -0.3635
  976MOL0     C31667   9.881   3.946   6.880  0.2523 -0.3780 -1.2338
  976MOL0     C31668   9.796   4.001   6.763  0.0452 -0.2625 -0.7464
  976MOL0     C31669   9.889   4.067   6.657  0.1595  0.6126 -0.0797
  976MOL0    Cl31670   9.948   4.235   6.707  0.0079 -0.1062 -0.7678
  976MOL0     C31671  10.229   3.750   7.483  1.3620  0.6282  0.0752
  976MOL0     C31672  10.332   3.658   7.499  0.2465  0.2489 -0.5667
  976MOL0     O31673  10.531   3.579   7.829 -0.3431  0.6270 -0.2217
  976MOL0     C31674  10.798   3.537   7.724 -0.2092 -0.4027 -0.3612
  976MOL0     C31675  10.934   3.499   7.692  0.1421 -0.9170 -0.1671
  976MOL0     N31676  11.368   3.425   7.111  0.1345 -0.2487 -0.5411
  976MOL0     N31677  11.311   3.355   7.013  0.6876 -0.3328 -0.5411
  976MOL0     C31678  10.070   3.028   7.034  0.0073 -1.1940  0.2852
  976MOL0     C31679   9.930   3.051   7.050 -0.2680  0.5745  0.1822
  976MOL0     C31680   9.484   2.956   7.060 -1.0513  0.1392 -0.9360
  976MOL0     C31681   9.388   2.886   7.130  0.1467 -0.3966 -0.4107
  976MOL0     C31682   9.254   2.913   7.121  0.6970 -0.7262 -0.4488
  976MOL0     C31683   9.207   3.024   7.039 -0.0449  0.8153 -0.5218
  976MOL0     O31684   9.075   3.062   7.023 -0.0244 -0.4510  0.2089
  976MOL0     C31685   8.970   3.014   7.107  0.1665 -0.2336 -0.2841
  976MOL0     C31686   8.860   3.111   7.138 -0.5255 -0.3812 -0.1477
  976MOL0     C31687   8.770   3.148   7.017 -0.4162 -0.0009 -0.5676
  976MOL0     C31688   8.663   3.254   7.061 -0.4477 -0.4097  0.6693
  976MOL0     C31689   8.613   3.230   7.196  0.2878  0.1311  0.0499
  976MOL0     C31690   8.581   3.225   7.315  0.8730  0.5848  0.6158
  976MOL0     C31691   9.307   3.075   6.958 -0.7229  0.5875 -0.7698
  976MOL0     C31692   9.444   3.050   6.969  1.0009 -0.4145  0.0913
  976MOL0     H31693   9.822   2.824   6.828  1.5616  1.3900 -2.0068
  976MOL0     H31694  10.080   2.775   6.822 -0.5169 -0.2517  0.6337
  976MOL0     H31695  10.332   3.066   7.044 -0.7254  0.4691  3.0992
  976MOL0     H31696  10.342   2.920   7.138  0.8235  1.2759  0.6907
  976MOL0     H31697  10.486   2.813   6.997  1.6773  0.2098  1.7482
  976MOL0     H31698  10.490   2.936   6.872 -0.0131 -1.1898 -0.1910
  976MOL0     H31699  10.563   3.098   7.025  0.2853 -1.6369 -1.6616
  976MOL0     H31700  10.619   2.969   7.146 -0.4641  0.8979  1.0417
  976MOL0     H31701  10.760   2.881   6.976  1.5836  0.0453  2.5440
  976MOL0     H31702  10.714   3.022   6.865  2.0285  0.2178  0.8545
  976MOL0     H31703  10.778   3.175   7.016  1.1389  1.2241  2.0908
  976MOL0     H31704  10.832   3.060   7.139 -1.1734  2.8900 -0.0875
  976MOL0     H31705  10.994   2.969   6.948  2.0558  0.1320  2.1912
  976MOL0     H31706  10.954   3.128   6.867 -1.3341  0.5559  0.2971
  976MOL0     H31707  11.034   3.228   7.080 -0.2411 -0.3702 -1.2648
  976MOL0     H31708  11.068   3.064   7.140 -3.2122 -0.9718 -0.2096
  976MOL0     H31709  11.212   3.150   6.881  5.1519 -0.0521  0.3167
  976MOL0     H31710  11.252   3.024   7.003  1.5870  1.1413  1.3622
  976MOL0     H31711  11.321   3.120   7.237  0.9932 -0.6967 -0.8009
  976MOL0     H31712  11.515   3.264   7.373  1.9580  0.6542 -1.0354
  976MOL0     H31713  11.540   3.440   7.324 -1.1274  1.6021  0.8789
  976MOL0     H31714  11.334   3.502   7.408  2.1881  0.7462 -2.1656
  976MOL0     H31715  11.460   3.468   7.520 -1.6703  0.1686  0.7830
  976MOL0     H31716  11.351   3.253   7.575  1.3161 -0.4953 -0.5970
  976MOL0     H31717  11.231   3.263   7.437 -3.1525  0.8206  1.3113
  976MOL0     H31718  11.139   3.471   7.533  1.8127  1.0625  1.3233
  976MOL0     H31719  11.230   3.453   7.673 -0.1306 -0.6037  0.3808
  976MOL0     H31720  10.844   3.183   7.605  2.7787  0.2345  1.0944
  976MOL0     H31721  10.503   3.260   7.592 -1.6605  0.9703  3.2607
  976MOL0     H31722  10.622   3.129   7.631  1.3662 -0.4808 -0.0703
  976MOL0     H31723  10.555   3.214   7.762  5.2682  0.8965  1.4820
  976MOL0     H31724  10.268   3.575   7.832  0.6233  0.7179 -0.0583
  976MOL0     H31725  10.078   3.728   7.789  1.6310  1.7735 -0.0004
  976MOL0     H31726   9.895   3.965   7.459  1.9217  3.3080 -3.3413
  976MOL0     H31727  10.064   3.980   7.416 -1.0408  1.4860 -0.4905
  976MOL0     H31728  10.039   3.758   7.301 -0.5467 -1.4955  0.8529
  976MOL0     H31729   9.874   3.743   7.351 -0.2128 -0.3011 -0.4789
  976MOL0     H31730  10.014   3.929   7.154 -0.3872  2.1124  0.2386
  976MOL0     H31731   9.869   3.992   7.211 -1.9379  0.3160 -2.0286
  976MOL0     H31732   9.908   3.732   7.047 -2.0370  0.7193 -2.9757
  976MOL0     H31733   9.755   3.754   7.132 -1.6857  2.0160 -0.5984
  976MOL0     H31734   9.714   3.971   7.029  0.2173 -1.6734  2.3828
  976MOL0     H31735   9.716   3.823   6.929  1.7530 -1.5089 -1.0024
  976MOL0     H31736   9.939   4.028   6.924 -2.3468  2.6560 -3.0911
  976MOL0     H31737   9.942   3.859   6.851 -1.1685 -2.2945  1.1720
  976MOL0     H31738   9.717   4.071   6.792 -2.2829 -3.0259  0.0617
  976MOL0     H31739   9.740   3.919   6.718  1.6221 -0.7802 -1.8763
  976MOL0     H31740   9.824   4.074   6.569 -1.6716 -0.2299  1.1404
  976MOL0     H31741   9.973   3.998   6.645 -0.5215  0.1675 -2.9199
  976MOL0     H31742  10.224   3.809   7.392  0.8654  0.9217  0.2932
  976MOL0     H31743  10.403   3.631   7.421  0.9318  2.4475 -0.7557
  976MOL0     H31744  10.790   3.638   7.764  2.1242 -0.6003  0.8140
  976MOL0     H31745  11.019   3.564   7.709  0.7561 -2.1391  1.8159
  976MOL0     H31746  10.128   3.107   7.081 -0.9865 -0.9223  1.1008
  976MOL0     H31747   9.894   3.132   7.113 -1.7879  1.1804 -1.3962
  976MOL0     H31748   9.422   2.796   7.181 -1.0202 -1.3968 -1.3165
  976MOL0     H31749   9.183   2.862   7.185  1.1371  0.0163  0.6611
  976MOL0     H31750   8.914   2.926   7.073  0.2044 -0.2970 -0.1840
  976MOL0     H31751   9.019   2.989   7.202  0.7442 -0.6171 -0.6781
  976MOL0     H31752   8.891   3.201   7.192 -1.3732 -0.9464  1.3411
  976MOL0     H31753   8.810   3.055   7.217 -0.1828  1.7960  1.7226
  976MOL0     H31754   8.713   3.057   6.994 -1.0059 -0.1887  1.4380
  976MOL0     H31755   8.818   3.178   6.924 -0.7638 -0.1282 -0.7879
  976MOL0     H31756   8.584   3.261   6.986  1.2654 -1.0905 -1.3281
  976MOL0     H31757   8.706   3.355   7.068  0.0647 -0.6334  0.8316
  976MOL0     H31758   8.563   3.233   7.420  2.1527  0.3994  0.8557
  976MOL0     H31759   9.277   3.155   6.892  1.7728  1.1275 -1.3094
  976MOL0     H31760   9.504   3.113   6.904 -1.9251  0.2666 -2.1553
  977MOL0     O31761  11.101   0.920  10.118 -0.3346  0.4142  0.7539
  977MOL0     C31762  11.206   0.914  10.178 -0.3809 -0.5182  0.5511
  977MOL0     O31763  11.220   0.909  10.314  0.0146 -0.1701 -0.4137
  977MOL0     C31764  11.113   0.926  10.397  0.0221  0.1690 -0.3901
  977MOL0     C31765  11.026   1.036  10.382 -0.1699 -1.0060  0.1709
  977MOL0     C31766  10.923   1.060  10.468  1.1966  0.2906  0.5524
  977MOL0     C31767  10.890   0.976  10.583 -0.7076  0.8045 -0.4450
  977MOL0     O31768  10.778   1.002  10.657 -0.5803 -0.0670 -0.1620
  977MOL0     C31769  10.794   0.950  10.786  0.8851  0.0499 -0.3815
  977MOL0     C31770  10.695   1.024  10.871  0.2898 -0.1239  0.6521
  977MOL0     C31771  10.674   0.951  11.002 -0.1957  0.1131  0.5665
  977MOL0     C31772  10.591   1.032  11.097  0.1965  0.2116 -0.7041
  977MOL0     C31773  10.584   0.975  11.234  0.1112 -0.4823  0.4836
  977MOL0     C31774  10.464   1.033  11.307  0.2029 -0.5656  0.7702
  977MOL0     C31775  10.466   0.987  11.453 -0.2683  0.4965  0.0423
  977MOL0     C31776  10.330   1.003  11.518 -0.3366  0.1669  0.1926
  977MOL0     N31777  10.321   0.944  11.646 -0.1536  0.4777 -0.1861
  977MOL0     C31778  10.249   1.000  11.750  0.1361  0.0136  0.0944
  977MOL0     C31779  10.249   0.914  11.848 -0.1757 -0.5793 -0.6380
  977MOL0     C31780  10.170   0.915  11.976  0.1576 -0.3862  0.2405
  977MOL0     C31781  10.028   0.863  11.957 -1.4829  0.1371 -0.0424
  977MOL0     C31782  10.021   0.711  11.967 -0.7772  0.4609 -0.0075
  977MOL0     C31783   9.890   0.662  11.992 -0.1035 -0.1166  0.4123
  977MOL0     O31784   9.812   0.670  11.877 -0.0617 -0.3951  0.1559
  977MOL0     C31785   9.681   0.696  11.905  0.3074  0.4618  0.5494
  977MOL0     C31786   9.621   0.768  12.010 -0.9223  0.2416  0.6375
  977MOL0     C31787   9.481   0.780  12.021 -0.5878  0.7959 -0.3071
  977MOL0     C31788   9.435   0.865  12.132  0.7832 -0.2094  0.1613
  977MOL0     C31789   9.385   0.726  11.921  0.1652  1.2178 -0.0136
  977MOL0     C31790   9.240   0.761  11.912 -0.4577  0.2194 -0.7014
  977MOL0     O31791   9.176   0.680  11.826 -0.5377  0.1746  0.0558
  977MOL0     C31792   9.047   0.704  11.787  0.5600  0.3980 -0.0762
  977MOL0     C31793   8.936   0.732  11.868 -0.0812  0.1558  0.1413
  977MOL0     C31794   8.810   0.748  11.809  0.6596  0.9251 -1.3082
  977MOL0     C31795   8.787   0.732  11.673  1.1457 -0.4439 -0.3286
  977MOL0     O31796   8.659   0.746  11.616  0.3001  0.1580 -0.1441
  977MOL0     C31797   8.570   0.840  11.687  0.1006  0.8561  0.0290
  977MOL0     C31798   8.452   0.893  11.611 -0.0605 -0.2240 -1.0241
  977MOL0     C31799   8.494   0.973  11.492  0.1659 -0.0694  0.2193
  977MOL0     C31800   8.526   1.118  11.523 -0.9707  0.0971 -0.1224
  977MOL0     C31801   8.579   1.173  11.393  0.4977  0.9048 -0.3111
  977MOL0     C31802   8.592   1.331  11.374 -0.7889  0.9221 -0.6275
  977MOL0     C31803   8.689   1.397  11.478  0.8839  0.0959  0.0557
  977MOL0     C31804   8.686   1.548  11.482 -0.1436  0.0995 -0.0711
  977MOL0    Cl31805   8.670   1.630  11.329 -0.1497 -0.2410  0.7408
  977MOL0     C31806   8.889   0.687  11.598  0.1291  0.2844 -0.2001
  977MOL0     C31807   9.018   0.682  11.649  0.9936  0.5683 -0.0378
  977MOL0     O31808   9.189   0.834  11.996 -0.1293  0.4073 -0.2773
  977MOL0     C31809   9.449   0.661  11.810 -0.1341  0.1142  0.1393
  977MOL0     C31810   9.597   0.641  11.806  0.0553  0.0931  0.4530
  977MOL0     N31811  10.309   0.794  11.798  0.4451  1.1880  0.5029
  977MOL0     N31812  10.341   0.817  11.671 -0.0316  0.1346 -0.9060
  977MOL0     C31813  10.980   0.869  10.594 -0.5400 -0.0776 -0.1196
  977MOL0     C31814  11.083   0.846  10.504 -0.1096 -0.0006 -1.2092
  977MOL0     C31815  11.326   0.902  10.095 -0.6943 -0.6549  0.2170
  977MOL0     C31816  11.455   0.863  10.143  0.7358  1.5494 -0.4336
  977MOL0     C31817  11.568   0.842  10.054  0.5668 -0.3472  0.4234
  977MOL0     C31818  11.558   0.864   9.912 -0.1305 -1.0076  1.0443
  977MOL0     O31819  11.658   0.852   9.815 -0.2430 -0.2023 -0.2538
  977MOL0     C31820  11.776   0.792   9.866  0.2577 -0.3072  0.2081
  977MOL0     C31821  11.760   0.643   9.893  0.4355  0.2111  0.1760
  977MOL0     C31822  11.885   0.562   9.838  0.3320  0.5144  0.4153
  977MOL0     C31823  11.871   0.414   9.862 -0.0661  0.5413  0.2134
  977MOL0     C31824  11.753   0.345   9.813 -0.1344  0.2103  0.3098
  977MOL0     C31825  11.644   0.300   9.778 -0.6129  0.4717  0.0676
  977MOL0     C31826  11.437   0.912   9.869  0.2317  0.1256 -0.3907
  977MOL0     C31827  11.327   0.928   9.961  0.1783  0.0952  1.0595
  977MOL0     H31828  11.043   1.103  10.299  0.3228 -0.4800  0.6791
  977MOL0     H31829  10.856   1.141  10.445  1.5853  0.3203 -0.5012
  977MOL0     H31830  10.754   0.849  10.796 -0.7954  0.9158  2.5652
  977MOL0     H31831  10.894   0.966  10.828  3.0201 -1.5112 -4.3393
  977MOL0     H31832  10.723   1.129  10.886  1.5925 -0.4239  0.4233
  977MOL0     H31833  10.594   1.025  10.829  1.4713 -0.1720 -2.4468
  977MOL0     H31834  10.624   0.857  10.979 -1.0895  0.5305  0.7903
  977MOL0     H31835  10.775   0.937  11.042 -0.4215 -1.8896  0.5419
  977MOL0     H31836  10.620   1.138  11.099 -1.9984  0.8752  0.9213
  977MOL0     H31837  10.486   1.032  11.066 -0.4518  2.4102  1.1680
  977MOL0     H31838  10.577   0.866  11.234  1.1185 -0.5854 -1.4808
  977MOL0     H31839  10.675   1.010  11.283 -0.3055 -1.4960  2.0621
  977MOL0     H31840  10.451   1.141  11.311 -1.6178 -0.7684  1.6893
  977MOL0     H31841  10.375   0.990  11.261 -0.5056  1.3743  0.2478
  977MOL0     H31842  10.490   0.880  11.454 -2.5766 -0.0882 -0.3243
  977MOL0     H31843  10.539   1.045  11.511  0.1311 -0.3709  0.4322
  977MOL0     H31844  10.254   0.942  11.469 -1.0256 -0.3866  1.8679
  977MOL0     H31845  10.294   1.105  11.532  1.1407  0.6952  0.3296
  977MOL0     H31846  10.201   1.097  11.746 -1.5203 -0.7412  0.7881
  977MOL0     H31847  10.228   0.856  12.047 -2.2789 -3.9479 -0.4547
  977MOL0     H31848  10.159   1.018  12.012 -2.2814 -1.4171  2.8551
  977MOL0     H31849   9.991   0.891  11.858 -1.6530  2.8752  0.6989
  977MOL0     H31850   9.968   0.919  12.030  0.0912  2.3465 -0.3393
  977MOL0     H31851  10.073   0.676  12.056  0.7596  2.3166 -0.1043
  977MOL0     H31852  10.067   0.669  11.877  2.0641 -1.0567  2.0274
  977MOL0     H31853   9.852   0.712  12.082 -0.2341 -3.2849  2.2602
  977MOL0     H31854   9.906   0.558  12.020 -1.4021 -0.5591 -0.4209
  977MOL0     H31855   9.682   0.820  12.083 -0.0546  0.7015 -0.3982
  977MOL0     H31856   9.432   0.961  12.080  3.0329 -1.8300 -3.2674
  977MOL0     H31857   9.345   0.817  12.173  0.8545 -0.9442 -0.5300
  977MOL0     H31858   9.510   0.875  12.211 -0.4730  2.1685  1.1560
  977MOL0     H31859   8.960   0.736  11.974  0.9418 -0.0977 -0.0689
  977MOL0     H31860   8.726   0.750  11.878  1.8274  0.4795  0.1842
  977MOL0     H31861   8.540   0.789  11.779  3.0638 -2.2827 -0.5202
  977MOL0     H31862   8.628   0.930  11.708  2.6515 -0.6433 -0.1387
  977MOL0     H31863   8.384   0.811  11.585 -2.3930  2.3888 -3.9332
  977MOL0     H31864   8.405   0.956  11.687  2.5551 -0.0307  0.5515
  977MOL0     H31865   8.409   0.968  11.423  0.6150 -3.5633 -0.2329
  977MOL0     H31866   8.587   0.937  11.448  0.1488  2.1109 -1.8266
  977MOL0     H31867   8.434   1.172  11.546 -0.2428  0.7394  1.4400
  977MOL0     H31868   8.597   1.128  11.605 -1.3009 -0.8295  0.2872
  977MOL0     H31869   8.510   1.148  11.312 -0.3709 -1.4036  1.0162
  977MOL0     H31870   8.672   1.123  11.367 -0.4649 -1.3743  0.3757
  977MOL0     H31871   8.637   1.354  11.277  1.7638  2.3661  0.7823
  977MOL0     H31872   8.490   1.369  11.374 -2.2597 -2.6294 -1.5560
  977MOL0     H31873   8.791   1.370  11.449  0.7896  2.4492 -2.9308
  977MOL0     H31874   8.666   1.356  11.577 -2.2853 -0.0207 -0.6354
  977MOL0     H31875   8.778   1.587  11.527 -0.1391 -0.4780  0.4293
  977MOL0     H31876   8.606   1.578  11.552  0.1082 -0.3199  0.4059
  977MOL0     H31877   8.871   0.659  11.495 -0.0384  0.1878 -0.1451
  977MOL0     H31878   9.101   0.647  11.588  0.6644  2.3299 -1.6007
  977MOL0     H31879   9.388   0.615  11.733  1.2440 -1.9177  0.1942
  977MOL0     H31880   9.643   0.584  11.726  2.1535  1.4906  0.6162
  977MOL0     H31881  10.971   0.795  10.673  1.1734 -1.0174 -0.7386
  977MOL0     H31882  11.167   0.782  10.531  0.9510  0.9461 -2.1517
  977MOL0     H31883  11.469   0.839  10.248  0.3973  0.5192 -0.6194
  977MOL0     H31884  11.662   0.814  10.101 -0.4330 -1.6829  1.7494
  977MOL0     H31885  11.857   0.807   9.794 -0.9071 -0.4628 -1.1783
  977MOL0     H31886  11.826   0.845   9.948  2.5434 -0.6339 -0.8809
  977MOL0     H31887  11.674   0.596   9.843 -0.9425  2.0030  0.7505
  977MOL0     H31888  11.749   0.627  10.000 -0.9289  1.1411  0.2077
  977MOL0     H31889  11.982   0.601   9.871  0.8686  1.1115 -1.6939
  977MOL0     H31890  11.893   0.569   9.729  0.1586  0.2610  0.3866
  977MOL0     H31891  11.885   0.380   9.965  0.1847 -2.3710 -0.7099
  977MOL0     H31892  11.947   0.365   9.800  1.5281 -0.2016  2.6011
  977MOL0     H31893  11.557   0.256   9.733  2.2235 -2.4565 -3.1650
  977MOL0     H31894  11.430   0.934   9.763 -2.0955 -0.9733 -0.5253
  977MOL0     H31895  11.246   0.986   9.917  0.8881  0.8101  0.6705
  978MOL0     O31896   3.445   3.383  10.966 -0.2022  0.3063  0.0114
  978MOL0     C31897   3.519   3.469  10.918 -0.4474 -0.0491  1.4826
  978MOL0     O31898   3.476   3.566  10.826 -0.9263 -0.0364 -0.3070
  978MOL0     C31899   3.356   3.592  10.773 -0.2231  0.4688  1.3724
  978MOL0     C31900   3.236   3.525  10.797 -0.2451 -0.0710 -0.1504
  978MOL0     C31901   3.129   3.545  10.720 -0.7444 -0.3807  1.0456
  978MOL0     C31902   3.126   3.640  10.617  0.5415 -0.5036 -0.1595
  978MOL0     O31903   3.004   3.642  10.551 -0.0520  0.0990  0.1222
  978MOL0     C31904   3.011   3.690  10.416 -0.3070  1.0252 -0.3283
  978MOL0     C31905   2.876   3.654  10.354  0.8949 -0.9050 -0.0520
  978MOL0     C31906   2.857   3.504  10.313 -0.1795  0.6270  0.5399
  978MOL0     C31907   2.708   3.470  10.260 -0.2571  0.4437 -1.2552
  978MOL0     C31908   2.602   3.523  10.362 -0.7564 -0.0858 -0.2480
  978MOL0     C31909   2.589   3.430  10.485  0.2165 -0.2510 -0.9735
  978MOL0     C31910   2.453   3.464  10.551  0.5293 -0.4232  0.8910
  978MOL0     C31911   2.449   3.405  10.686  0.3507 -0.1836  0.2029
  978MOL0     N31912   2.482   3.260  10.670 -0.2075  0.1338 -0.2807
  978MOL0     C31913   2.568   3.189  10.745 -0.1092  0.5334 -0.3320
  978MOL0     C31914   2.546   3.060  10.726  0.7781  0.5759 -0.4370
  978MOL0     C31915   2.620   2.942  10.776  0.1931 -0.0217 -0.8774
  978MOL0     C31916   2.579   2.885  10.912  0.0497 -0.0704 -0.1024
  978MOL0     C31917   2.426   2.866  10.935 -0.0752 -0.2073  0.0315
  978MOL0     C31918   2.359   2.762  10.842 -0.8026 -0.3182 -0.2667
  978MOL0     O31919   2.232   2.733  10.889  0.0272 -0.2122 -0.0652
  978MOL0     C31920   2.128   2.822  10.875 -0.1542  0.0770 -0.8694
  978MOL0     C31921   2.010   2.779  10.935 -0.9615  0.8754  0.1036
  978MOL0     C31922   1.895   2.859  10.923 -0.2447 -0.2183 -0.1244
  978MOL0     C31923   1.776   2.822  10.992  0.3508  0.2503 -0.1623
  978MOL0     C31924   1.900   2.982  10.854 -0.8927 -0.5933 -0.0225
  978MOL0     C31925   1.790   3.074  10.815 -0.3678  0.5952 -0.7047
  978MOL0     O31926   1.808   3.143  10.702 -0.0720 -0.4525  0.2801
  978MOL0     C31927   1.712   3.224  10.648  0.0605 -0.4759  0.3040
  978MOL0     C31928   1.623   3.314  10.714 -0.5132  0.7279 -0.2067
  978MOL0     C31929   1.530   3.389  10.638  0.1730 -1.1809 -0.0963
  978MOL0     C31930   1.524   3.380  10.500 -0.0692 -1.0235  0.3939
  978MOL0     O31931   1.443   3.468  10.427  0.1271  0.1306  0.3483
  978MOL0     C31932   1.482   3.604  10.445 -0.1353  0.0699  0.0136
  978MOL0     C31933   1.450   3.678  10.306 -0.5075 -0.3986  1.2107
  978MOL0     C31934   1.303   3.672  10.260  0.8285 -0.3438  0.2951
  978MOL0     C31935   1.285   3.720  10.117 -0.2232  0.2998  0.5419
  978MOL0     C31936   1.301   3.873  10.111  0.2555  0.7050  0.2745
  978MOL0     C31937   1.302   3.889   9.953  0.4588 -1.1393  0.5163
  978MOL0     C31938   1.277   4.040   9.924 -0.1076  0.7886 -0.0299
  978MOL0     C31939   1.295   4.085   9.772  1.2020 -0.1106 -1.0085
  978MOL0    Cl31940   1.447   4.044   9.710 -0.3521  0.2660  0.0377
  978MOL0     C31941   1.608   3.295  10.434  0.4030 -1.0718 -0.8872
  978MOL0     C31942   1.703   3.219  10.509  0.3109  0.3808 -0.4147
  978MOL0     O31943   1.692   3.080  10.895  0.4493  0.0452  0.2547
  978MOL0     C31944   2.024   3.023  10.807  0.5934 -0.4454 -0.1639
  978MOL0     C31945   2.131   2.939  10.803 -0.7531  0.3269 -0.1937
  978MOL0     N31946   2.444   3.055  10.633  0.6539  0.6888 -0.6644
  978MOL0     N31947   2.406   3.167  10.601  0.7118  0.7533  0.0364
  978MOL0     C31948   3.241   3.712  10.593  0.3340  0.2609  0.3505
  978MOL0     C31949   3.348   3.693  10.677 -0.0045  0.6012 -0.0310
  978MOL0     C31950   3.662   3.471  10.959  0.4986  0.1011  0.8060
  978MOL0     C31951   3.695   3.401  11.081  0.1853  0.3509  0.3633
  978MOL0     C31952   3.822   3.397  11.131 -0.3596 -0.6512  0.3805
  978MOL0     C31953   3.925   3.460  11.061 -0.0009  0.0630 -0.1142
  978MOL0     O31954   4.057   3.444  11.121  0.7027 -0.0926 -0.1980
  978MOL0     C31955   4.159   3.516  11.057 -1.0992 -0.4476 -0.0769
  978MOL0     C31956   4.278   3.517  11.165 -0.2948 -0.6553 -0.3067
  978MOL0     C31957   4.312   3.393  11.235  0.7101 -0.0371 -0.8022
  978MOL0     C31958   4.454   3.378  11.288  0.7743  0.4997  0.5101
  978MOL0     C31959   4.477   3.480  11.392  0.4899  0.4060  1.7406
  978MOL0     C31960   4.512   3.545  11.484 -0.3220 -0.0123 -0.8057
  978MOL0     C31961   3.896   3.534  10.943  0.3668  0.6982 -0.7482
  978MOL0     C31962   3.771   3.525  10.883 -0.9477 -0.0015  0.3817
  978MOL0     H31963   3.233   3.448  10.873  1.8336  0.2351  0.3116
  978MOL0     H31964   3.038   3.487  10.733  1.0507 -3.3601  1.1476
  978MOL0     H31965   3.015   3.799  10.430 -0.8207  0.7983  1.9696
  978MOL0     H31966   3.096   3.646  10.363 -0.0450  0.4998  0.5059
  978MOL0     H31967   2.797   3.679  10.425 -0.3929  2.7863 -2.4534
  978MOL0     H31968   2.867   3.721  10.268  1.1226  2.8116  2.5764
  978MOL0     H31969   2.920   3.461  10.235 -1.1966 -0.1239  0.0966
  978MOL0     H31970   2.866   3.446  10.405 -4.7397 -1.0828  0.2033
  978MOL0     H31971   2.693   3.527  10.168 -0.2403  0.3546 -1.3135
  978MOL0     H31972   2.692   3.362  10.251  1.0651  0.1374 -0.2575
  978MOL0     H31973   2.616   3.626  10.398 -3.4534  0.0388  0.6208
  978MOL0     H31974   2.503   3.538  10.317 -0.9159  3.4770  0.9870
  978MOL0     H31975   2.604   3.323  10.466  1.9034 -0.6039  1.7732
  978MOL0     H31976   2.674   3.449  10.550  0.8520 -0.2765 -1.7815
  978MOL0     H31977   2.433   3.571  10.550 -1.9178 -0.8192 -0.3829
  978MOL0     H31978   2.379   3.424  10.482  1.9559 -0.4800 -0.6755
  978MOL0     H31979   2.351   3.430  10.728  0.0577 -3.5164  1.7987
  978MOL0     H31980   2.528   3.454  10.744 -0.6102  1.6484  0.0321
  978MOL0     H31981   2.628   3.234  10.823 -2.2247  0.9761  1.1424
  978MOL0     H31982   2.596   2.862  10.705 -1.9672 -0.0950 -0.1316
  978MOL0     H31983   2.728   2.955  10.769  0.2913 -0.3726 -0.0348
  978MOL0     H31984   2.617   2.947  10.994  0.6470  0.5101 -0.7970
  978MOL0     H31985   2.631   2.790  10.921  1.0744  0.4351 -0.5154
  978MOL0     H31986   2.378   2.964  10.944 -1.2847 -0.8041  0.3146
  978MOL0     H31987   2.424   2.819  11.034 -0.3601 -0.3094 -0.0232
  978MOL0     H31988   2.419   2.671  10.851  0.7203  0.5124 -1.4570
  978MOL0     H31989   2.362   2.807  10.742  1.5674  0.4466  0.0675
  978MOL0     H31990   2.010   2.685  10.989 -1.8793  1.3737  1.0023
  978MOL0     H31991   1.780   2.855  11.096 -1.3227 -0.6789  0.2311
  978MOL0     H31992   1.678   2.856  10.957 -0.3811 -0.4008  1.1524
  978MOL0     H31993   1.766   2.713  10.993  1.6512  0.0143  3.5599
  978MOL0     H31994   1.634   3.321  10.822  0.2096  1.4595 -0.3115
  978MOL0     H31995   1.452   3.442  10.690  0.9097 -1.1888  1.0369
  978MOL0     H31996   1.426   3.653  10.526  0.0612  1.3090 -0.5662
  978MOL0     H31997   1.590   3.615  10.461 -0.4885  0.6172  2.5438
  978MOL0     H31998   1.491   3.779  10.316  2.8430 -1.7739  3.2661
  978MOL0     H31999   1.512   3.625  10.233  1.0875  2.2951  0.4835
  978MOL0     H32000   1.244   3.736  10.327 -0.6942 -3.0293  1.6767
  978MOL0     H32001   1.252   3.575  10.254 -0.5636  0.3820 -0.1248
  978MOL0     H32002   1.357   3.666  10.055 -2.5101 -0.2312 -1.8380
  978MOL0     H32003   1.187   3.692  10.077  1.2535 -1.3692 -2.1552
  978MOL0     H32004   1.397   3.908  10.149  0.8767 -0.9722  0.3314
  978MOL0     H32005   1.226   3.939  10.156 -0.1115  2.6593 -2.8898
  978MOL0     H32006   1.394   3.854   9.906  1.3671  1.4617  0.2018
  978MOL0     H32007   1.226   3.838   9.892  0.2730  0.5370 -0.7235
  978MOL0     H32008   1.331   4.102   9.996  0.3953  2.8106 -2.0420
  978MOL0     H32009   1.171   4.050   9.946 -0.3812  1.8480 -1.6463
  978MOL0     H32010   1.274   4.192   9.771 -0.8496 -0.4809 -2.6458
  978MOL0     H32011   1.214   4.041   9.713 -0.0109 -2.0078  1.8290
  978MOL0     H32012   1.607   3.281  10.327  0.2752 -0.5164 -0.9606
  978MOL0     H32013   1.775   3.162  10.451  0.3229  0.7566 -0.7728
  978MOL0     H32014   2.037   3.124  10.767  2.6900  0.5057  2.5889
  978MOL0     H32015   2.223   2.977  10.757 -0.9532  1.2035  0.1022
  978MOL0     H32016   3.263   3.780  10.511 -1.6593  0.2198 -0.2611
  978MOL0     H32017   3.446   3.735  10.652  0.7547 -1.7172 -1.2173
  978MOL0     H32018   3.605   3.370  11.133 -1.1633 -2.0180 -2.9948
  978MOL0     H32019   3.850   3.346  11.223  0.4263 -1.5154 -0.3266
  978MOL0     H32020   4.201   3.459  10.974 -1.7591 -3.0623  1.2581
  978MOL0     H32021   4.120   3.614  11.028 -0.7626 -0.6750 -1.3400
  978MOL0     H32022   4.252   3.584  11.247 -2.0734 -0.1730 -1.2055
  978MOL0     H32023   4.366   3.562  11.119 -0.0969 -0.7514 -0.0274
  978MOL0     H32024   4.293   3.320  11.156 -1.2486  2.7652 -3.1503
  978MOL0     H32025   4.245   3.382  11.321  1.3288  0.8528 -0.1868
  978MOL0     H32026   4.519   3.386  11.200  0.2006  1.7618  0.1661
  978MOL0     H32027   4.478   3.279  11.327  2.4777  2.5463  5.4382
  978MOL0     H32028   4.548   3.600  11.569 -0.9988 -2.3987  1.1035
  978MOL0     H32029   3.971   3.592  10.890 -1.9690  2.6226 -2.1749
  978MOL0     H32030   3.769   3.571  10.785  2.8908 -0.1660  0.0705
  979MOL0     O32031   0.474   9.095  11.202 -0.0114 -0.4719 -0.8051
  979MOL0     C32032   0.492   8.978  11.242  0.6081 -1.1965 -0.4609
  979MOL0     O32033   0.398   8.886  11.276  0.2115  0.1491  0.5893
  979MOL0     C32034   0.266   8.912  11.255  0.4379 -0.3008 -0.3723
  979MOL0     C32035   0.182   8.888  11.365  0.1599  0.3505 -0.5423
  979MOL0     C32036   0.042   8.920  11.358 -0.1701 -0.1343 -0.3194
  979MOL0     C32037  -0.014   8.964  11.233  1.1693 -1.2424 -0.1255
  979MOL0     O32038  -0.145   8.979  11.202  0.5140  0.4685  0.2393
  979MOL0     C32039  -0.240   8.918  11.297 -0.3369 -0.0357  0.7577
  979MOL0     C32040  -0.379   8.924  11.224  0.6153 -0.3118 -0.5632
  979MOL0     C32041  -0.488   8.857  11.310 -0.6851 -0.7584  0.4600
  979MOL0     C32042  -0.464   8.697  11.301  0.5348 -0.0727 -0.0725
  979MOL0     C32043  -0.599   8.630  11.336 -1.0121 -0.0931  1.2254
  979MOL0     C32044  -0.589   8.483  11.307 -0.1264 -0.1096 -0.3375
  979MOL0     C32045  -0.724   8.419  11.333  0.5606 -0.6700  0.6712
  979MOL0     C32046  -0.716   8.282  11.268 -0.4464 -0.1827  0.0515
  979MOL0     N32047  -0.826   8.192  11.265 -0.3101  0.1406 -0.2378
  979MOL0     C32048  -0.834   8.087  11.352 -0.2552  0.1456  0.8731
  979MOL0     C32049  -0.960   8.032  11.339  1.0143  0.0555  0.2280
  979MOL0     C32050  -1.044   7.929  11.422 -0.5671  0.2018  0.2626
  979MOL0     C32051  -1.180   7.894  11.355  0.6391 -0.5599  0.7961
  979MOL0     C32052  -1.281   8.001  11.379 -0.5420  0.4797  0.0568
  979MOL0     C32053  -1.417   7.975  11.296 -0.8471  1.3600  0.1810
  979MOL0     O32054  -1.483   7.849  11.341  0.7183  0.1835  0.1012
  979MOL0     C32055  -1.594   7.812  11.263 -1.1461  0.4536  0.6758
  979MOL0     C32056  -1.685   7.903  11.202  0.3993  0.5133  1.7072
  979MOL0     C32057  -1.791   7.857  11.124  0.6491 -0.0116  0.4362
  979MOL0     C32058  -1.884   7.966  11.072  0.5818  0.5727  0.4086
  979MOL0     C32059  -1.793   7.722  11.076  0.0113  0.0765  0.4415
  979MOL0     C32060  -1.881   7.670  10.971  0.5398 -1.1150  0.4931
  979MOL0     O32061  -1.857   7.543  10.928  1.0969 -0.6222  0.2048
  979MOL0     C32062  -1.938   7.481  10.834  0.3698 -0.2929  0.2513
  979MOL0     C32063  -1.871   7.387  10.752 -0.1157 -1.3073 -0.8462
  979MOL0     C32064  -1.938   7.312  10.659  0.4534 -0.1166  0.0941
  979MOL0     C32065  -2.082   7.327  10.639 -1.6941 -0.1993 -0.9973
  979MOL0     O32066  -2.149   7.266  10.531 -0.7658 -1.2257  0.2986
  979MOL0     C32067  -2.224   7.147  10.557 -0.9985  0.2360 -0.6220
  979MOL0     C32068  -2.364   7.183  10.610 -0.5542 -0.2775 -0.0926
  979MOL0     C32069  -2.430   7.281  10.517 -0.1522 -0.9934  0.8107
  979MOL0     C32070  -2.567   7.332  10.581 -0.1215  0.2300  0.4097
  979MOL0     C32071  -2.644   7.400  10.468  0.1704  1.0011 -0.5601
  979MOL0     C32072  -2.777   7.418  10.522  0.2122 -0.1707 -0.5662
  979MOL0     C32073  -2.883   7.442  10.414 -0.0345 -0.6503 -1.0883
  979MOL0     C32074  -3.023   7.481  10.461  0.0222 -0.0062  0.2732
  979MOL0    Cl32075  -3.129   7.539  10.324 -0.3619 -0.4115  0.2720
  979MOL0     C32076  -2.150   7.425  10.722  0.3343  0.3498 -0.4301
  979MOL0     C32077  -2.077   7.498  10.818  0.6037 -0.1928 -0.4215
  979MOL0     O32078  -1.967   7.749  10.926 -0.5329 -0.3481  0.0875
  979MOL0     C32079  -1.705   7.631  11.141  0.3222  0.3077  0.1690
  979MOL0     C32080  -1.611   7.676  11.239  0.1870  0.8200 -0.3629
  979MOL0     N32081  -1.019   8.093  11.224 -0.0985 -0.5458  0.4438
  979MOL0     N32082  -0.937   8.189  11.184 -0.1846 -0.2313 -0.0913
  979MOL0     C32083   0.072   9.001  11.133  0.3148  0.2488  0.1539
  979MOL0     C32084   0.208   8.962  11.138 -0.3002 -0.4572 -0.6028
  979MOL0     C32085   0.642   8.950  11.266  0.6000 -0.7640  0.3725
  979MOL0     C32086   0.687   8.814  11.277  0.2630 -0.3302  0.5117
  979MOL0     C32087   0.821   8.774  11.277 -0.4461 -0.3185  0.2902
  979MOL0     C32088   0.918   8.877  11.278  0.6203  0.8132 -0.0468
  979MOL0     O32089   1.055   8.855  11.269 -0.0159  0.1965  0.2403
  979MOL0     C32090   1.111   8.724  11.262  0.0925 -0.1082  0.0594
  979MOL0     C32091   1.108   8.660  11.401  0.3573  0.1900  0.3957
  979MOL0     C32092   1.117   8.751  11.524  0.2154  0.4884  1.2086
  979MOL0     C32093   1.099   8.674  11.659 -0.1471  0.5546 -0.0730
  979MOL0     C32094   1.137   8.773  11.760 -0.3330  0.5045 -0.0197
  979MOL0     C32095   1.143   8.865  11.838 -1.2680 -0.4293 -0.4201
  979MOL0     C32096   0.874   9.011  11.299  0.2395  1.0544  0.6194
  979MOL0     C32097   0.739   9.050  11.273 -0.5238 -0.0321 -0.7333
  979MOL0     H32098   0.239   8.850  11.450 -0.0518 -1.4485 -1.1597
  979MOL0     H32099  -0.025   8.902  11.441  0.8004  1.0226  0.7444
  979MOL0     H32100  -0.225   8.810  11.310 -1.7819 -0.3332  0.1868
  979MOL0     H32101  -0.237   8.972  11.392 -2.9157  0.0794  0.8608
  979MOL0     H32102  -0.411   9.027  11.204  0.6832 -0.2214 -0.2033
  979MOL0     H32103  -0.378   8.875  11.126 -0.0914  1.2953 -1.4221
  979MOL0     H32104  -0.465   8.893  11.411  0.2199  3.9234 -1.1567
  979MOL0     H32105  -0.590   8.887  11.281 -0.7370 -0.6196  0.7825
  979MOL0     H32106  -0.443   8.659  11.201 -1.7507 -2.4473  0.2201
  979MOL0     H32107  -0.393   8.668  11.379 -0.3550  1.1023  1.2365
  979MOL0     H32108  -0.615   8.646  11.443 -0.2387 -2.9740  1.8601
  979MOL0     H32109  -0.675   8.686  11.280  1.8249 -1.0490 -4.3188
  979MOL0     H32110  -0.558   8.465  11.204  0.3301  0.5400 -0.3220
  979MOL0     H32111  -0.505   8.436  11.359  1.0943 -0.9225 -2.9021
  979MOL0     H32112  -0.750   8.430  11.439 -0.3872  2.6030  0.2071
  979MOL0     H32113  -0.793   8.482  11.277  1.4492 -1.6554 -1.6424
  979MOL0     H32114  -0.626   8.239  11.314  0.6946  1.0810 -0.9159
  979MOL0     H32115  -0.690   8.295  11.162 -1.2775 -2.5081 -0.4995
  979MOL0     H32116  -0.765   8.064  11.433 -1.3570  1.3944  2.2268
  979MOL0     H32117  -0.986   7.839  11.446  1.9021  1.5707 -0.2463
  979MOL0     H32118  -1.068   7.980  11.516  2.7582 -0.5191  1.6545
  979MOL0     H32119  -1.214   7.801  11.401 -1.1563 -0.0055  0.6595
  979MOL0     H32120  -1.179   7.874  11.247 -1.0203  1.8845  0.2258
  979MOL0     H32121  -1.235   8.098  11.356  2.2097 -1.3282 -2.9268
  979MOL0     H32122  -1.312   7.999  11.484  0.7843  2.0628  0.5169
  979MOL0     H32123  -1.383   7.986  11.192  0.1089  0.3297  0.3711
  979MOL0     H32124  -1.491   8.051  11.324 -2.0816  0.0380  0.6191
  979MOL0     H32125  -1.690   8.011  11.207  3.0430  1.1206 -2.9524
  979MOL0     H32126  -1.869   7.978  10.964  1.7918 -1.5986  0.2796
  979MOL0     H32127  -1.985   7.928  11.085  0.3339  0.9588 -0.3413
  979MOL0     H32128  -1.881   8.060  11.128  0.3526  1.4973 -1.0626
  979MOL0     H32129  -1.765   7.369  10.766  0.2089  1.0142  0.1701
  979MOL0     H32130  -1.883   7.241  10.598  0.6976  2.1948 -2.5673
  979MOL0     H32131  -2.237   7.077  10.474 -0.9177  0.4011 -0.7762
  979MOL0     H32132  -2.174   7.096  10.639  1.7365  4.5352  0.7085
  979MOL0     H32133  -2.428   7.095  10.620 -1.0720  0.1915  0.9392
  979MOL0     H32134  -2.355   7.214  10.715  0.5891  1.7659 -0.7475
  979MOL0     H32135  -2.448   7.237  10.418 -0.0581  0.2466  0.2239
  979MOL0     H32136  -2.370   7.369  10.495  1.4918 -1.7914  1.9508
  979MOL0     H32137  -2.619   7.245  10.622  1.5279 -1.7698 -1.5197
  979MOL0     H32138  -2.539   7.397  10.665  1.7858 -1.2069  0.9784
  979MOL0     H32139  -2.637   7.342  10.375  2.2136  2.3014 -1.2810
  979MOL0     H32140  -2.593   7.493  10.442  2.2351  0.3019  0.7315
  979MOL0     H32141  -2.809   7.329  10.577  0.1064  2.1231  3.5072
  979MOL0     H32142  -2.782   7.502  10.593  4.6357  1.7107 -2.1350
  979MOL0     H32143  -2.884   7.353  10.351  3.6422  0.5425 -3.1290
  979MOL0     H32144  -2.837   7.521  10.354  1.5335 -0.3485  0.3973
  979MOL0     H32145  -2.997   7.571  10.518 -0.4782  0.1088  0.3184
  979MOL0     H32146  -3.069   7.403  10.522 -0.3197 -0.1242 -0.1334
  979MOL0     H32147  -2.256   7.443  10.710  0.3757 -0.6023 -2.6778
  979MOL0     H32148  -2.134   7.575  10.870  1.0871  0.0419 -0.2274
  979MOL0     H32149  -1.714   7.529  11.105 -2.6856  1.6790 -3.7404
  979MOL0     H32150  -1.546   7.601  11.284 -2.2381  0.3294  2.6456
  979MOL0     H32151   0.029   9.055  11.049  0.1695  0.5999  0.4526
  979MOL0     H32152   0.274   8.982  11.053 -0.6528 -1.3877 -1.1016
  979MOL0     H32153   0.618   8.733  11.254 -2.9298  2.2520  0.2060
  979MOL0     H32154   0.851   8.670  11.268 -0.9790 -0.4156 -0.4530
  979MOL0     H32155   1.061   8.667  11.183  1.0702  0.6722 -1.1689
  979MOL0     H32156   1.215   8.729  11.226 -0.5025 -1.2784 -1.9916
  979MOL0     H32157   1.187   8.585  11.414 -0.5791 -0.5237  2.5789
  979MOL0     H32158   1.011   8.609  11.404  0.0739  0.6460 -0.8255
  979MOL0     H32159   1.044   8.833  11.520  0.6479  0.8744 -2.5680
  979MOL0     H32160   1.216   8.796  11.530  1.3657 -1.8881  0.9567
  979MOL0     H32161   1.165   8.586  11.660 -1.0247 -0.1148  0.8940
  979MOL0     H32162   0.999   8.641  11.687  1.3843 -2.7185  2.2740
  979MOL0     H32163   1.168   8.947  11.903  2.5977 -1.4129 -0.3909
  979MOL0     H32164   0.957   9.080  11.308  0.2562  0.9197  1.6053
  979MOL0     H32165   0.717   9.156  11.263  0.9565  0.4924  0.9585
  980MOL0     O32166   5.247   6.399   4.603  0.0752 -0.1594 -0.0450
  980MOL0     C32167   5.213   6.332   4.701 -0.1648 -0.3966 -0.3536
  980MOL0     O32168   5.102   6.250   4.717 -0.9158 -1.1148 -0.1111
  980MOL0     C32169   5.014   6.264   4.612 -0.1866  0.0504  0.4104
  980MOL0     C32170   5.008   6.166   4.510  0.1039 -0.6390  0.2058
  980MOL0     C32171   4.910   6.171   4.407  0.1181  0.8821 -0.1180
  980MOL0     C32172   4.816   6.276   4.402  0.0692  0.0909 -0.1340
  980MOL0     O32173   4.737   6.269   4.294  0.1054 -0.5921  0.8916
  980MOL0     C32174   4.628   6.360   4.288 -0.3312  0.2507  0.0576
  980MOL0     C32175   4.527   6.350   4.173 -0.1531 -0.2283  0.5532
  980MOL0     C32176   4.417   6.465   4.186  0.0876  0.6495 -0.5705
  980MOL0     C32177   4.325   6.455   4.068 -0.5027 -0.5607  0.0265
  980MOL0     C32178   4.221   6.571   4.080 -1.0030 -0.1026 -0.6481
  980MOL0     C32179   4.180   6.620   3.935  0.5720 -0.3154 -0.5331
  980MOL0     C32180   4.097   6.527   3.859  0.2911 -0.4664  0.3562
  980MOL0     C32181   3.951   6.519   3.889 -0.7417  0.2831 -0.7470
  980MOL0     N32182   3.877   6.430   3.797 -0.2787  0.1969  0.3622
  980MOL0     C32183   3.835   6.469   3.678 -0.2323 -0.5160 -0.0251
  980MOL0     C32184   3.748   6.373   3.630 -0.3306 -0.7393  0.2878
  980MOL0     C32185   3.674   6.385   3.498 -0.8080  0.1846  1.0457
  980MOL0     C32186   3.527   6.389   3.526 -0.3622 -0.7611  0.3605
  980MOL0     C32187   3.463   6.243   3.510  0.8191  0.0806 -0.3692
  980MOL0     C32188   3.303   6.247   3.536  0.5281  0.3515  0.2152
  980MOL0     O32189   3.250   6.352   3.450  0.0181  0.1780  0.3146
  980MOL0     C32190   3.118   6.361   3.425  0.8875  0.6463 -0.3625
  980MOL0     C32191   3.078   6.472   3.342 -0.3816 -0.1406  0.1299
  980MOL0     C32192   2.939   6.498   3.332 -0.5522 -0.2332  0.5449
  980MOL0     C32193   2.901   6.608   3.228  0.1540  0.5092 -0.0834
  980MOL0     C32194   2.837   6.423   3.392  0.3533 -0.1966 -0.3181
  980MOL0     C32195   2.689   6.434   3.363  1.2557 -0.9148  0.2277
  980MOL0     O32196   2.620   6.313   3.374  0.5011 -0.2228  0.4779
  980MOL0     C32197   2.490   6.308   3.328 -0.7107 -0.4260  0.6352
  980MOL0     C32198   2.437   6.246   3.209  0.3377 -0.1352 -0.3139
  980MOL0     C32199   2.299   6.262   3.178 -0.2838 -0.1278  0.6364
  980MOL0     C32200   2.211   6.340   3.252  0.3501  0.5906  0.2813
  980MOL0     O32201   2.080   6.343   3.201 -0.2813 -0.1237 -0.1253
  980MOL0     C32202   1.983   6.428   3.252  0.0009 -0.6419 -0.1435
  980MOL0     C32203   1.860   6.414   3.161  0.9921  0.2642 -0.4682
  980MOL0     C32204   1.731   6.481   3.217 -0.5382  0.3400 -0.0012
  980MOL0     C32205   1.699   6.618   3.168  0.4556 -0.5421 -0.1166
  980MOL0     C32206   1.663   6.621   3.017 -0.1458  0.1699  0.2770
  980MOL0     C32207   1.607   6.760   2.964 -0.0201  0.2063  0.3120
  980MOL0     C32208   1.567   6.750   2.813 -0.4172  0.8711  0.5024
  980MOL0     C32209   1.499   6.877   2.750  0.0303 -0.4426  0.3939
  980MOL0    Cl32210   1.333   6.849   2.761  0.0444  0.2348 -0.2320
  980MOL0     C32211   2.262   6.391   3.369  0.0893 -1.2183  0.6402
  980MOL0     C32212   2.395   6.370   3.404  0.1864  0.0388 -0.2862
  980MOL0     O32213   2.641   6.545   3.338 -0.0665  0.0533  0.6750
  980MOL0     C32214   2.879   6.315   3.469 -1.1382  0.0282 -0.8226
  980MOL0     C32215   3.016   6.285   3.492  0.8534  0.9598  0.0841
  980MOL0     N32216   3.749   6.272   3.721 -0.7244 -0.3966  0.9831
  980MOL0     N32217   3.825   6.303   3.820 -0.2447  0.3526 -0.1899
  980MOL0     C32218   4.832   6.379   4.498 -0.7842 -0.0074 -0.2148
  980MOL0     C32219   4.923   6.373   4.599 -0.1617 -0.9687  0.3712
  980MOL0     C32220   5.273   6.377   4.829 -0.2697 -0.4355  0.6017
  980MOL0     C32221   5.226   6.329   4.954 -0.5664  0.5529  0.8445
  980MOL0     C32222   5.289   6.363   5.074  0.4816 -0.4962  0.4787
  980MOL0     C32223   5.404   6.444   5.072  0.5331 -0.4566  0.3292
  980MOL0     O32224   5.454   6.469   5.195 -0.1704 -0.0418  0.0209
  980MOL0     C32225   5.595   6.500   5.205  0.7817 -0.2349 -0.6323
  980MOL0     C32226   5.673   6.366   5.184 -0.2474  0.3838 -0.3215
  980MOL0     C32227   5.830   6.409   5.205  0.6403 -0.6419 -0.4353
  980MOL0     C32228   5.907   6.279   5.178  0.5888 -0.0304  0.0976
  980MOL0     C32229   6.047   6.300   5.215 -0.3709 -0.1931  0.1225
  980MOL0     C32230   6.162   6.320   5.235 -0.5748 -0.9829  0.0381
  980MOL0     C32231   5.440   6.514   4.951  0.3110 -0.1101 -0.1360
  980MOL0     C32232   5.377   6.469   4.828 -0.4385 -1.5523 -1.0687
  980MOL0     H32233   5.078   6.083   4.511 -1.8892 -2.4180  0.0067
  980MOL0     H32234   4.921   6.099   4.326  2.0132  0.8772  0.0963
  980MOL0     H32235   4.583   6.361   4.388  2.3865 -0.0895  1.3834
  980MOL0     H32236   4.669   6.461   4.284  1.7808 -0.5934 -0.7184
  980MOL0     H32237   4.588   6.372   4.085 -1.8361  1.2744 -0.3085
  980MOL0     H32238   4.466   6.260   4.163  0.6967 -0.5950 -2.2155
  980MOL0     H32239   4.354   6.445   4.274 -1.4460 -0.2880 -1.8422
  980MOL0     H32240   4.459   6.566   4.188  2.3986 -0.0893  4.4463
  980MOL0     H32241   4.382   6.474   3.977 -0.1731  0.7623  0.4767
  980MOL0     H32242   4.272   6.359   4.064  0.8181 -1.2639 -2.0697
  980MOL0     H32243   4.139   6.536   4.144 -0.2341  0.9132  0.9460
  980MOL0     H32244   4.258   6.661   4.129  1.5929 -1.1627 -0.5119
  980MOL0     H32245   4.140   6.722   3.932  2.6692  0.6528  1.4126
  980MOL0     H32246   4.273   6.645   3.884  1.5261  0.9929  1.7021
  980MOL0     H32247   4.107   6.557   3.754 -1.3439 -0.0834  0.2708
  980MOL0     H32248   4.139   6.426   3.855 -0.4668 -0.8175  0.9914
  980MOL0     H32249   3.906   6.618   3.886 -2.9383 -0.4574  2.3035
  980MOL0     H32250   3.936   6.489   3.994  0.0032 -2.0334 -1.2427
  980MOL0     H32251   3.853   6.562   3.625  1.5553 -0.1400  1.1254
  980MOL0     H32252   3.708   6.470   3.438 -2.5027  0.6995  0.7355
  980MOL0     H32253   3.686   6.300   3.430  0.5016  0.3646  1.0319
  980MOL0     H32254   3.478   6.460   3.459 -0.7326 -1.4862 -0.1498
  980MOL0     H32255   3.505   6.428   3.626  0.9450 -2.0593  1.1958
  980MOL0     H32256   3.503   6.169   3.580  0.6060  0.1939 -0.1269
  980MOL0     H32257   3.477   6.223   3.404  0.5670  0.2431 -0.4349
  980MOL0     H32258   3.275   6.263   3.640  1.4290 -1.0532  0.7073
  980MOL0     H32259   3.270   6.145   3.513  0.1552  0.2335  1.2271
  980MOL0     H32260   3.150   6.543   3.305  1.6895 -1.4878  1.3434
  980MOL0     H32261   2.814   6.581   3.168 -0.8471  0.5662  1.2968
  980MOL0     H32262   2.866   6.693   3.286 -4.0589 -2.5573  2.4637
  980MOL0     H32263   2.989   6.624   3.165  0.9665  0.9182  1.1316
  980MOL0     H32264   2.507   6.184   3.154 -1.2569 -2.8609  0.5313
  980MOL0     H32265   2.257   6.198   3.101  0.6025  0.0286  0.0023
  980MOL0     H32266   1.959   6.398   3.354  0.2668  0.7510  0.3560
  980MOL0     H32267   2.027   6.528   3.257  1.3002 -1.2434  3.6011
  980MOL0     H32268   1.884   6.447   3.059  0.1915  0.4727 -0.5950
  980MOL0     H32269   1.839   6.307   3.147  0.1411  0.4349 -0.5730
  980MOL0     H32270   1.751   6.483   3.324  1.7251  0.2857 -0.3610
  980MOL0     H32271   1.651   6.412   3.190  0.2172 -0.6758  0.2989
  980MOL0     H32272   1.609   6.643   3.225  0.9260  0.2815  0.2915
  980MOL0     H32273   1.778   6.691   3.187  2.1352 -2.2264 -0.3049
  980MOL0     H32274   1.591   6.543   2.992  0.9027 -1.5185  2.2260
  980MOL0     H32275   1.753   6.602   2.958  0.0312 -1.4009  1.0087
  980MOL0     H32276   1.519   6.784   3.025 -1.0700  3.1932 -2.1389
  980MOL0     H32277   1.667   6.850   2.982  0.3759  0.1107 -0.4884
  980MOL0     H32278   1.505   6.661   2.797  2.5415 -0.9832 -1.6824
  980MOL0     H32279   1.653   6.726   2.751 -0.9135 -1.2668  0.5480
  980MOL0     H32280   1.522   6.888   2.644 -1.8363  0.6956  0.0872
  980MOL0     H32281   1.526   6.969   2.803  1.5080 -0.9039  0.4989
  980MOL0     H32282   2.205   6.447   3.442  0.4527  1.1736 -0.7692
  980MOL0     H32283   2.426   6.418   3.496 -2.1306 -0.1915  0.6892
  980MOL0     H32284   2.811   6.242   3.510  0.3206 -1.2688 -0.6303
  980MOL0     H32285   3.020   6.197   3.556 -0.6778  1.1591  0.5125
  980MOL0     H32286   4.773   6.471   4.504  1.6997  1.7557 -1.1249
  980MOL0     H32287   4.931   6.455   4.670 -0.0002 -0.1609 -0.5565
  980MOL0     H32288   5.142   6.260   4.954  1.6545 -2.3620  0.2772
  980MOL0     H32289   5.256   6.334   5.173 -0.0720  0.5852  0.6229
  980MOL0     H32290   5.627   6.574   5.131  2.1808 -2.1615 -2.0607
  980MOL0     H32291   5.616   6.545   5.302 -1.1699 -1.1779  0.2964
  980MOL0     H32292   5.653   6.309   5.092  0.3534 -4.1044  2.0192
  980MOL0     H32293   5.645   6.294   5.261  2.5174  0.6469  1.0395
  980MOL0     H32294   5.863   6.463   5.295  1.4328  0.0836 -1.1456
  980MOL0     H32295   5.855   6.479   5.125  1.5467 -0.4780 -0.0276
  980MOL0     H32296   5.900   6.247   5.073 -1.8536 -3.0809  1.0338
  980MOL0     H32297   5.864   6.201   5.241 -0.4897  1.4112  1.2144
  980MOL0     H32298   6.263   6.347   5.261 -0.9354 -1.5374  2.2462
  980MOL0     H32299   5.525   6.581   4.943  1.3720 -1.5175 -1.2874
  980MOL0     H32300   5.418   6.518   4.740  1.7179 -0.7945  0.2757
  981MOL0     O32301   8.709   8.308   4.551 -0.2540 -0.3200 -0.4862
  981MOL0     C32302   8.758   8.383   4.637  0.2740  0.6138  0.2715
  981MOL0     O32303   8.689   8.471   4.716  0.0886 -0.1888 -0.2561
  981MOL0     C32304   8.554   8.452   4.706  0.7729 -0.9664  0.4306
  981MOL0     C32305   8.495   8.373   4.807  0.9113  0.9516 -0.0912
  981MOL0     C32306   8.355   8.333   4.787 -1.1110 -0.2522  0.2341
  981MOL0     C32307   8.279   8.385   4.686 -0.0124  0.5177 -0.3787
  981MOL0     O32308   8.146   8.344   4.672 -0.1711  0.0790  0.4349
  981MOL0     C32309   8.069   8.388   4.779  0.0748 -0.7802  0.3050
  981MOL0     C32310   7.923   8.377   4.728  0.0179  0.2263  0.2320
  981MOL0     C32311   7.811   8.430   4.823 -1.0437 -0.2000 -0.4437
  981MOL0     C32312   7.685   8.427   4.746  0.9167  0.5670 -0.4558
  981MOL0     C32313   7.570   8.475   4.833 -0.5671 -0.2514  0.2593
  981MOL0     C32314   7.452   8.494   4.749 -0.2224 -0.1020  0.4050
  981MOL0     C32315   7.326   8.528   4.835  0.5092  0.3544 -0.2516
  981MOL0     C32316   7.219   8.564   4.725 -0.8899  0.6456  0.2421
  981MOL0     N32317   7.088   8.591   4.783 -0.7075  0.4740  0.1228
  981MOL0     C32318   6.974   8.569   4.718 -0.3435 -0.0979 -0.5169
  981MOL0     C32319   6.879   8.639   4.784  1.0824 -0.4075  0.7200
  981MOL0     C32320   6.739   8.652   4.730  0.1881  0.0990 -0.8116
  981MOL0     C32321   6.683   8.793   4.730  0.2106  0.4307  0.0120
  981MOL0     C32322   6.619   8.833   4.859  0.4801  0.0179 -0.2782
  981MOL0     C32323   6.644   8.979   4.892 -0.3754 -0.7692  0.6121
  981MOL0     O32324   6.619   9.004   5.031 -0.0800 -0.5951  0.5586
  981MOL0     C32325   6.495   9.013   5.084 -0.5591  0.8974 -0.8641
  981MOL0     C32326   6.495   8.993   5.222 -0.3346  0.2970 -0.0681
  981MOL0     C32327   6.367   8.986   5.286 -0.2729  0.1064 -0.1430
  981MOL0     C32328   6.373   8.947   5.434  0.7847  0.1272 -0.1519
  981MOL0     C32329   6.245   9.007   5.216 -0.8676  0.4711 -0.7826
  981MOL0     C32330   6.112   9.022   5.292  0.4009 -0.1484  0.0876
  981MOL0     O32331   6.001   9.006   5.221  0.8802  0.3418 -0.0632
  981MOL0     C32332   5.875   9.000   5.278 -0.3484 -0.7644 -1.1075
  981MOL0     C32333   5.847   8.936   5.403 -1.4074 -0.0084  0.3049
  981MOL0     C32334   5.718   8.922   5.445 -0.2481  1.1788  0.0730
  981MOL0     C32335   5.605   8.957   5.365 -0.5844  0.7311  0.0805
  981MOL0     O32336   5.484   8.957   5.425 -0.8236  0.4152  0.0997
  981MOL0     C32337   5.379   9.022   5.351  0.3281  0.2847 -0.6662
  981MOL0     C32338   5.257   9.019   5.447  0.7600  0.5483 -0.0380
  981MOL0     C32339   5.128   9.054   5.379  0.3314  0.5054  0.3865
  981MOL0     C32340   5.008   9.055   5.474  0.2759 -0.0910 -0.4422
  981MOL0     C32341   4.869   9.021   5.412  0.4229  0.8797  0.7299
  981MOL0     C32342   4.769   8.965   5.516 -0.6081 -0.0888  0.1465
  981MOL0     C32343   4.639   8.900   5.466  0.5826  0.7273 -0.5670
  981MOL0     C32344   4.551   9.015   5.396  0.0956  0.0809  0.2586
  981MOL0    Cl32345   4.396   8.934   5.354  0.0017  0.3372  0.1216
  981MOL0     C32346   5.626   9.005   5.237 -1.2187 -0.1443 -0.2206
  981MOL0     C32347   5.761   9.038   5.198 -0.2843 -0.7646 -0.3090
  981MOL0     O32348   6.119   9.056   5.408  0.3356 -0.1615 -0.9280
  981MOL0     C32349   6.246   9.014   5.078  1.2930  0.3746 -0.3307
  981MOL0     C32350   6.372   9.014   5.016  0.0522 -0.0651  0.6510
  981MOL0     N32351   6.934   8.698   4.901  0.8981 -0.8351 -0.2544
  981MOL0     N32352   7.058   8.664   4.896 -0.1061 -0.7340 -0.5659
  981MOL0     C32353   8.341   8.470   4.598  0.9534  0.0545  0.4256
  981MOL0     C32354   8.476   8.507   4.605  1.4563 -0.2664  0.6332
  981MOL0     C32355   8.904   8.382   4.660  0.0822  0.3530  0.1519
  981MOL0     C32356   8.985   8.277   4.609 -0.1287 -0.6110 -0.2385
  981MOL0     C32357   9.126   8.279   4.637 -0.7400 -0.0826 -0.4727
  981MOL0     C32358   9.185   8.385   4.708  0.0927  0.3351  1.2012
  981MOL0     O32359   9.322   8.372   4.737 -0.4076  0.7251  0.4855
  981MOL0     C32360   9.374   8.443   4.855  0.3341  0.2080 -0.6080
  981MOL0     C32361   9.526   8.450   4.840  0.0019  0.1705  0.0461
  981MOL0     C32362   9.612   8.334   4.890  0.1946 -0.1414 -0.0314
  981MOL0     C32363   9.592   8.306   5.041 -0.1248 -1.2224  0.9079
  981MOL0     C32364   9.678   8.201   5.083 -0.3537  0.1263  0.3545
  981MOL0     C32365   9.763   8.113   5.102 -1.5227 -0.7501 -0.9059
  981MOL0     C32366   9.100   8.493   4.743 -1.0609  0.1745  0.4489
  981MOL0     C32367   8.965   8.493   4.728 -0.2228  0.5600 -0.1366
  981MOL0     H32368   8.538   8.332   4.897 -0.9283 -2.0482 -0.4421
  981MOL0     H32369   8.322   8.285   4.878  1.2071 -0.1426  1.2087
  981MOL0     H32370   8.087   8.318   4.861  1.3683  0.0263  0.7420
  981MOL0     H32371   8.088   8.493   4.804 -1.5261  0.3996 -2.8698
  981MOL0     H32372   7.914   8.430   4.632  0.7003  0.4750  0.3049
  981MOL0     H32373   7.897   8.272   4.714  0.8508 -0.3419  2.6477
  981MOL0     H32374   7.794   8.372   4.914  0.0316  1.2019  0.7009
  981MOL0     H32375   7.829   8.536   4.844  2.3578 -0.4453 -1.4511
  981MOL0     H32376   7.687   8.501   4.665 -3.3631  3.8583  2.0299
  981MOL0     H32377   7.664   8.325   4.712  1.1587 -0.3417  1.9197
  981MOL0     H32378   7.557   8.405   4.916 -2.9733  2.2211  2.1415
  981MOL0     H32379   7.595   8.573   4.875 -1.9078  0.9302 -1.5409
  981MOL0     H32380   7.474   8.578   4.682  0.5365 -0.3968  0.2724
  981MOL0     H32381   7.428   8.403   4.694  0.9532 -0.4299  0.3909
  981MOL0     H32382   7.293   8.444   4.896 -0.2907  1.1335  0.4083
  981MOL0     H32383   7.340   8.620   4.893 -2.6551  0.9071 -0.1982
  981MOL0     H32384   7.206   8.473   4.666 -0.9600 -1.1938  2.9151
  981MOL0     H32385   7.251   8.646   4.660 -0.6557  0.1399 -0.2897
  981MOL0     H32386   6.970   8.505   4.630  0.5471 -2.1039  0.8231
  981MOL0     H32387   6.748   8.612   4.629 -1.2110 -0.0224 -0.9065
  981MOL0     H32388   6.676   8.589   4.795 -0.0579  1.7595  0.6384
  981MOL0     H32389   6.615   8.802   4.645  1.1570  1.1435 -0.6914
  981MOL0     H32390   6.760   8.869   4.711  0.8086 -0.1282  0.1519
  981MOL0     H32391   6.655   8.769   4.940  4.6722  2.7642  0.3191
  981MOL0     H32392   6.511   8.826   4.843  0.2988  0.0450  0.8714
  981MOL0     H32393   6.589   9.044   4.823 -1.6760 -1.4415  0.9713
  981MOL0     H32394   6.752   8.991   4.883 -0.3083 -1.7800 -0.0094
  981MOL0     H32395   6.585   8.975   5.279  0.9831  1.6764 -1.5904
  981MOL0     H32396   6.361   9.041   5.488 -0.3860  0.0182 -0.2110
  981MOL0     H32397   6.285   8.886   5.457 -1.1676  2.9973  0.5005
  981MOL0     H32398   6.465   8.895   5.462 -1.1973 -3.5071  0.2329
  981MOL0     H32399   5.929   8.910   5.468 -0.3952  0.9004 -0.5724
  981MOL0     H32400   5.693   8.884   5.544  0.4073  0.0769 -0.1639
  981MOL0     H32401   5.411   9.123   5.324  0.0470  0.5568  0.0032
  981MOL0     H32402   5.354   8.963   5.262 -1.1540 -0.2074  0.0428
  981MOL0     H32403   5.250   8.919   5.489 -1.8363  0.0604 -1.4298
  981MOL0     H32404   5.274   9.095   5.525  1.6781  1.4209 -1.0516
  981MOL0     H32405   5.112   8.981   5.299 -0.7695 -0.5638  1.5286
  981MOL0     H32406   5.143   9.153   5.336  1.9174 -0.8879 -2.5253
  981MOL0     H32407   5.017   8.981   5.553 -1.0900 -0.1273 -0.3031
  981MOL0     H32408   5.004   9.156   5.515  1.0276 -0.0752 -0.3975
  981MOL0     H32409   4.893   8.939   5.344  0.7059  1.5204  0.0423
  981MOL0     H32410   4.827   9.108   5.361  0.6934  1.1321  0.9355
  981MOL0     H32411   4.814   8.881   5.570  1.2424  0.7470 -0.0231
  981MOL0     H32412   4.743   9.039   5.592  0.5376 -1.5218  2.0396
  981MOL0     H32413   4.580   8.857   5.547 -1.1127  1.3000 -1.4613
  981MOL0     H32414   4.656   8.816   5.398 -0.1226 -0.4883  0.7052
  981MOL0     H32415   4.596   9.046   5.301  1.5389 -1.1743  0.4890
  981MOL0     H32416   4.534   9.101   5.461  1.6726  1.0842 -0.5686
  981MOL0     H32417   5.550   9.021   5.161 -0.9702 -0.1925 -0.4835
  981MOL0     H32418   5.785   9.083   5.102 -1.1739 -1.1119 -0.6986
  981MOL0     H32419   6.154   9.030   5.023  0.6359 -0.3630  0.5310
  981MOL0     H32420   6.370   9.032   4.909  2.2107  1.7053  0.8423
  981MOL0     H32421   8.283   8.517   4.518 -0.1305 -3.5504 -1.0874
  981MOL0     H32422   8.506   8.585   4.536 -2.1020  0.6708 -0.0893
  981MOL0     H32423   8.932   8.194   4.565  0.9796 -0.6743 -1.5351
  981MOL0     H32424   9.176   8.185   4.614  0.0765  0.8850 -2.9272
  981MOL0     H32425   9.330   8.542   4.866 -2.1709 -1.0395  1.7970
  981MOL0     H32426   9.338   8.377   4.935  3.8612 -3.8198 -1.9403
  981MOL0     H32427   9.563   8.548   4.871 -1.1561  1.2034 -1.6752
  981MOL0     H32428   9.538   8.442   4.731 -2.0209 -2.2723 -0.0853
  981MOL0     H32429   9.718   8.355   4.870  0.6735 -0.4130  1.9332
  981MOL0     H32430   9.585   8.241   4.841  1.1744 -0.6818  0.4125
  981MOL0     H32431   9.486   8.291   5.059 -0.4479  1.2780  1.4258
  981MOL0     H32432   9.620   8.386   5.110 -0.1874  0.1913 -0.6274
  981MOL0     H32433   9.819   8.029   5.138  0.3592  1.9391  3.1859
  981MOL0     H32434   9.149   8.579   4.789 -0.6657  0.7556 -0.9834
  981MOL0     H32435   8.916   8.584   4.758 -2.1849 -0.7083  0.7202
  982MOL0     O32436   2.257   4.344   9.204 -0.1055  0.1032 -1.2292
  982MOL0     C32437   2.198   4.237   9.193 -1.3167  0.2900 -0.7808
  982MOL0     O32438   2.092   4.211   9.114 -0.9028 -1.1143  1.0171
  982MOL0     C32439   2.010   4.314   9.077  0.4524  0.0253  0.2343
  982MOL0     C32440   1.925   4.379   9.164  1.5135  0.0196  0.2992
  982MOL0     C32441   1.854   4.489   9.111 -0.3581 -0.1907 -0.4266
  982MOL0     C32442   1.872   4.529   8.980 -0.3264 -0.2537 -0.5165
  982MOL0     O32443   1.790   4.633   8.940 -0.0330  0.4349 -0.0804
  982MOL0     C32444   1.736   4.632   8.808  0.3368  0.0044  0.8896
  982MOL0     C32445   1.593   4.686   8.813 -0.1008 -0.5301 -0.1377
  982MOL0     C32446   1.506   4.598   8.910 -1.6422  0.2010 -0.4614
  982MOL0     C32447   1.368   4.658   8.918  0.3179 -0.2184 -0.1348
  982MOL0     C32448   1.280   4.597   9.034  0.3426 -0.3736  0.0545
  982MOL0     C32449   1.169   4.705   9.060  0.1261 -0.6583  0.0347
  982MOL0     C32450   1.075   4.664   9.171  1.1242  0.0853 -0.2992
  982MOL0     C32451   0.992   4.545   9.140  0.5368 -0.1330 -0.4326
  982MOL0     N32452   0.893   4.561   9.026  0.1610  0.2098  0.2763
  982MOL0     C32453   0.794   4.660   9.024 -0.9836  0.2885  0.5024
  982MOL0     C32454   0.732   4.637   8.909 -0.7208  1.1776  0.0535
  982MOL0     C32455   0.599   4.683   8.863  0.3791  0.6272  0.1519
  982MOL0     C32456   0.491   4.644   8.970  0.3792  0.1096  0.5573
  982MOL0     C32457   0.375   4.732   8.959 -0.8168 -0.3720 -0.4994
  982MOL0     C32458   0.309   4.744   8.824  0.3183  0.2855  0.5936
  982MOL0     O32459   0.209   4.847   8.832  0.6346  0.6706  0.1989
  982MOL0     C32460   0.125   4.865   8.719 -0.7933  0.3479  0.0139
  982MOL0     C32461   0.025   4.959   8.738  1.3423  1.2464  0.3757
  982MOL0     C32462  -0.069   4.976   8.627  0.1445  0.9107 -0.1740
  982MOL0     C32463  -0.182   5.064   8.646 -0.7097 -0.2596 -0.2640
  982MOL0     C32464  -0.030   4.914   8.494 -0.7168 -0.7573 -0.2400
  982MOL0     C32465  -0.095   4.954   8.362  0.2974 -0.0842  0.6790
  982MOL0     O32466  -0.065   4.875   8.243 -0.1933  0.3452 -0.3528
  982MOL0     C32467  -0.135   4.903   8.127  0.2255  0.1892 -0.6513
  982MOL0     C32468  -0.275   4.920   8.128  1.0526  0.1711  0.7652
  982MOL0     C32469  -0.344   4.939   8.001  0.1715  0.2084  0.4964
  982MOL0     C32470  -0.273   4.953   7.881  0.6446  0.0827 -0.4995
  982MOL0     O32471  -0.326   4.981   7.756  0.2119 -0.0331 -0.1604
  982MOL0     C32472  -0.470   5.006   7.734 -0.1653 -0.4668 -0.0808
  982MOL0     C32473  -0.484   5.025   7.586  0.2417 -1.0367  1.0690
  982MOL0     C32474  -0.605   5.120   7.560  0.2800  0.1995 -0.0996
  982MOL0     C32475  -0.727   5.023   7.572 -0.0279  0.0623  0.1356
  982MOL0     C32476  -0.851   5.110   7.550  0.0068  0.5173 -0.2735
  982MOL0     C32477  -0.978   5.030   7.528 -0.0063  0.6349  0.6271
  982MOL0     C32478  -1.106   5.103   7.587  0.3781  0.3343  0.2554
  982MOL0     C32479  -1.169   5.217   7.508  0.2316 -0.2247 -0.8002
  982MOL0    Cl32480  -1.219   5.169   7.342  0.0784  0.2330  0.1274
  982MOL0     C32481  -0.134   4.933   7.896  0.4198 -0.6180  0.3923
  982MOL0     C32482  -0.060   4.915   8.013  0.8292 -0.4254 -0.4125
  982MOL0     O32483  -0.169   5.051   8.366 -0.9523  0.1422  0.3464
  982MOL0     C32484   0.076   4.826   8.485  0.0504 -0.4478  0.2056
  982MOL0     C32485   0.151   4.792   8.599 -0.3932  0.2314 -0.0565
  982MOL0     N32486   0.804   4.547   8.834 -0.5252 -0.2527  0.1424
  982MOL0     N32487   0.907   4.500   8.902  0.2002  0.2471 -0.1899
  982MOL0     C32488   1.964   4.467   8.893 -0.6966  0.0525 -0.0086
  982MOL0     C32489   2.037   4.361   8.949  0.2855 -0.2926 -0.0193
  982MOL0     C32490   2.254   4.127   9.269 -0.6151  0.7285  0.7002
  982MOL0     C32491   2.333   4.157   9.381  0.0891  0.1823 -0.1086
  982MOL0     C32492   2.396   4.062   9.462 -0.1220 -0.1235 -0.6971
  982MOL0     C32493   2.370   3.927   9.446  0.2086  0.3605  0.7096
  982MOL0     O32494   2.450   3.847   9.519 -0.0180 -0.3808 -0.5360
  982MOL0     C32495   2.411   3.708   9.535 -0.7621 -0.1088  0.4162
  982MOL0     C32496   2.299   3.707   9.645  0.1264 -0.4351  0.2788
  982MOL0     C32497   2.274   3.560   9.676 -0.2470  0.4836  0.7196
  982MOL0     C32498   2.129   3.531   9.737  0.1638  0.4273  0.6478
  982MOL0     C32499   2.033   3.489   9.631 -1.3412  0.2944  0.3333
  982MOL0     C32500   1.954   3.449   9.557  0.2053  0.3199 -0.3045
  982MOL0     C32501   2.276   3.893   9.344 -0.0567  0.4656  0.0112
  982MOL0     C32502   2.211   3.990   9.259 -0.2604 -0.0052  0.8193
  982MOL0     H32503   1.907   4.344   9.265 -0.7950 -2.3039 -0.8112
  982MOL0     H32504   1.769   4.524   9.170 -0.8042 -0.5067 -0.8742
  982MOL0     H32505   1.799   4.706   8.757 -1.7747  0.6572 -0.9453
  982MOL0     H32506   1.731   4.531   8.768 -0.3471  0.2361  0.3660
  982MOL0     H32507   1.601   4.788   8.851  0.3048 -0.0014 -1.5899
  982MOL0     H32508   1.550   4.693   8.713  0.9235  4.3982 -0.4708
  982MOL0     H32509   1.504   4.496   8.871  0.5533 -0.1995  0.3150
  982MOL0     H32510   1.552   4.591   9.009 -0.6980  0.9576 -0.8210
  982MOL0     H32511   1.389   4.763   8.941  1.6622 -0.5079  0.0516
  982MOL0     H32512   1.321   4.667   8.820  3.3480  4.8079 -1.4759
  982MOL0     H32513   1.233   4.506   8.997 -0.1001 -0.6524  1.2253
  982MOL0     H32514   1.332   4.574   9.128 -1.8275 -1.7794  1.0005
  982MOL0     H32515   1.226   4.793   9.091 -1.4852  0.9435 -1.2870
  982MOL0     H32516   1.114   4.739   8.972 -1.3240  1.5861  1.6816
  982MOL0     H32517   1.137   4.644   9.259 -0.2249  0.4922  0.7723
  982MOL0     H32518   1.001   4.736   9.206 -0.5152 -2.9908  3.2753
  982MOL0     H32519   0.944   4.534   9.237  0.5105  0.6122 -0.3560
  982MOL0     H32520   1.050   4.455   9.119  0.9238 -0.2287  0.9455
  982MOL0     H32521   0.768   4.726   9.106  2.4586  2.2270  0.2350
  982MOL0     H32522   0.611   4.790   8.845  2.4089  0.6259  1.2020
  982MOL0     H32523   0.577   4.639   8.765  0.0797 -1.2588  1.0370
  982MOL0     H32524   0.545   4.675   9.060 -0.4090 -2.8063  2.1295
  982MOL0     H32525   0.475   4.536   8.972  1.2199 -0.0184  2.2694
  982MOL0     H32526   0.414   4.831   8.986  2.2031 -0.1753 -4.5696
  982MOL0     H32527   0.292   4.706   9.026 -0.7838  1.1448  0.1875
  982MOL0     H32528   0.263   4.652   8.788  1.1939  0.7691 -2.0015
  982MOL0     H32529   0.388   4.769   8.752  0.7850 -0.4266  0.8400
  982MOL0     H32530   0.016   5.012   8.831  2.1487 -0.0530  1.2378
  982MOL0     H32531  -0.269   5.019   8.599 -0.0595 -2.2489  0.3294
  982MOL0     H32532  -0.212   5.059   8.751 -1.5506  2.9716 -0.2514
  982MOL0     H32533  -0.157   5.170   8.633  0.2222  0.5857  5.4696
  982MOL0     H32534  -0.346   4.920   8.210 -1.1393  0.7499 -1.0027
  982MOL0     H32535  -0.452   4.944   7.993  0.3558  2.3264 -3.0287
  982MOL0     H32536  -0.520   4.919   7.779  2.1346 -2.9340 -1.9657
  982MOL0     H32537  -0.498   5.096   7.791 -0.0288 -1.0578  0.9483
  982MOL0     H32538  -0.393   5.072   7.548  0.3625 -1.2503  1.0958
  982MOL0     H32539  -0.487   4.930   7.532 -2.2469 -0.5392  0.1584
  982MOL0     H32540  -0.599   5.166   7.461 -0.6019  2.3761  0.7858
  982MOL0     H32541  -0.608   5.193   7.642  0.9062  1.5217 -1.2180
  982MOL0     H32542  -0.715   4.947   7.494  0.1826  0.0948  0.1348
  982MOL0     H32543  -0.742   4.969   7.665 -0.9533 -1.6239 -0.9408
  982MOL0     H32544  -0.833   5.176   7.465  0.5158  1.9320  0.8792
  982MOL0     H32545  -0.864   5.176   7.637 -2.6314  1.1173 -1.0154
  982MOL0     H32546  -0.994   5.008   7.422  1.7128 -2.3857  0.8956
  982MOL0     H32547  -0.978   4.931   7.574 -1.5616  1.0959  1.6947
  982MOL0     H32548  -1.079   5.127   7.691  2.9198 -0.1808 -0.2300
  982MOL0     H32549  -1.187   5.031   7.601 -1.2181  2.1192  0.6328
  982MOL0     H32550  -1.094   5.296   7.499 -2.6536  3.1395  1.7307
  982MOL0     H32551  -1.250   5.261   7.568 -0.1903  1.2966 -2.4001
  982MOL0     H32552  -0.089   4.942   7.797  0.2415 -1.1973  0.2535
  982MOL0     H32553   0.047   4.902   8.022  0.8341 -0.2018 -0.1280
  982MOL0     H32554   0.112   4.782   8.393 -1.4821 -1.2941 -0.0272
  982MOL0     H32555   0.234   4.723   8.587  0.5248  0.9102  1.8727
  982MOL0     H32556   1.981   4.510   8.795  0.2746 -2.1818 -0.8996
  982MOL0     H32557   2.116   4.317   8.889 -0.0438  0.0247 -0.6948
  982MOL0     H32558   2.361   4.261   9.393  4.6212 -0.9817  1.8189
  982MOL0     H32559   2.457   4.097   9.546 -2.1823  0.8412  0.4686
  982MOL0     H32560   2.387   3.663   9.439 -0.0299 -0.0285  0.1863
  982MOL0     H32561   2.498   3.659   9.582  0.9822  0.8172 -1.6721
  982MOL0     H32562   2.212   3.750   9.594  3.1431  4.2311 -1.5607
  982MOL0     H32563   2.323   3.763   9.736 -2.0964  0.3960  0.4153
  982MOL0     H32564   2.354   3.531   9.745 -0.4549  1.5480  1.4375
  982MOL0     H32565   2.287   3.500   9.586 -0.6238  2.6007 -0.8073
  982MOL0     H32566   2.098   3.616   9.799  2.5096  0.0258  2.5525
  982MOL0     H32567   2.144   3.447   9.806 -0.0662  0.1573  0.3690
  982MOL0     H32568   1.903   3.402   9.475  1.4124 -1.6282  0.0195
  982MOL0     H32569   2.250   3.789   9.327  1.1629  0.3150 -1.0512
  982MOL0     H32570   2.140   3.964   9.181 -2.7336  3.7722  1.5411
  983MOL0     O32571   1.676   9.111   4.364  0.3516  0.5422  0.2261
  983MOL0     C32572   1.737   9.175   4.455 -0.1919  0.8582  0.1758
  983MOL0     O32573   1.869   9.154   4.482  0.4432  0.3807  0.7769
  983MOL0     C32574   1.960   9.094   4.396  0.1009  0.5483  0.4757
  983MOL0     C32575   1.940   9.078   4.253  0.7254 -0.1534  0.4556
  983MOL0     C32576   2.036   9.000   4.186 -0.3281  0.4174  0.1934
  983MOL0     C32577   2.151   8.955   4.249 -0.1922  0.0668 -0.8845
  983MOL0     O32578   2.246   8.888   4.175  0.0829 -0.5455 -0.0528
  983MOL0     C32579   2.214   8.807   4.065  0.7254  0.7372  0.1318
  983MOL0     C32580   2.339   8.739   4.020 -0.1404 -0.4064 -0.5595
  983MOL0     C32581   2.396   8.631   4.115 -0.1762  1.1979 -1.0953
  983MOL0     C32582   2.522   8.588   4.061 -0.4091  0.2861 -0.0199
  983MOL0     C32583   2.578   8.464   4.140  0.2225  0.2392  0.8626
  983MOL0     C32584   2.508   8.329   4.112 -0.3894 -0.0736 -0.0834
  983MOL0     C32585   2.496   8.288   3.964  0.3514 -0.3686 -0.3497
  983MOL0     C32586   2.502   8.131   3.955  0.8406  0.4986 -0.2972
  983MOL0     N32587   2.470   8.079   3.823  0.7193 -0.2774 -0.1262
  983MOL0     C32588   2.563   8.052   3.729 -0.7189 -1.0596  0.5832
  983MOL0     C32589   2.488   8.013   3.621 -0.8901 -0.7111  0.7858
  983MOL0     C32590   2.542   7.962   3.483 -0.7099 -0.6664 -0.1507
  983MOL0     C32591   2.606   7.827   3.482  0.2695  0.1337 -0.7784
  983MOL0     C32592   2.501   7.716   3.470  0.1984 -0.1494  0.1429
  983MOL0     C32593   2.452   7.699   3.320 -0.1759 -0.7833 -0.0339
  983MOL0     O32594   2.562   7.667   3.226  0.0411  0.4825 -1.3105
  983MOL0     C32595   2.612   7.536   3.231 -0.5216  0.1607  0.3419
  983MOL0     C32596   2.549   7.429   3.292  0.2151 -0.0564  0.3305
  983MOL0     C32597   2.620   7.302   3.284  1.1466 -0.3956  0.4573
  983MOL0     C32598   2.558   7.190   3.366  0.1393  0.0894  0.2032
  983MOL0     C32599   2.717   7.284   3.186  0.0846  0.2933  0.8372
  983MOL0     C32600   2.768   7.147   3.147 -0.1492 -0.4414  0.7190
  983MOL0     O32601   2.873   7.137   3.074  0.5359  0.9251  1.1948
  983MOL0     C32602   2.935   7.014   3.045  0.1127 -0.3022  0.3677
  983MOL0     C32603   3.049   6.973   3.120 -0.8157  0.4156 -0.3299
  983MOL0     C32604   3.125   6.870   3.067 -0.2788 -0.6978 -0.1646
  983MOL0     C32605   3.085   6.790   2.967  0.7295 -0.6060  0.3863
  983MOL0     O32606   3.167   6.687   2.939 -0.0294  0.4869  0.1126
  983MOL0     C32607   3.133   6.584   2.846 -0.3845  0.5917 -1.1853
  983MOL0     C32608   3.235   6.460   2.855 -0.3793 -1.1875  0.0697
  983MOL0     C32609   3.234   6.382   2.985  0.3296 -0.1306  0.6425
  983MOL0     C32610   3.355   6.303   2.994  0.6614  0.9019 -0.2398
  983MOL0     C32611   3.371   6.237   3.130  0.2083  0.1491 -0.5820
  983MOL0     C32612   3.497   6.147   3.139  0.8353 -0.5921 -0.5978
  983MOL0     C32613   3.631   6.221   3.113  0.8023  0.1609 -0.5626
  983MOL0     C32614   3.762   6.152   3.180  0.3564  0.3967  0.3582
  983MOL0    Cl32615   3.787   5.998   3.086 -0.0233  0.4229  0.2812
  983MOL0     C32616   2.968   6.818   2.909  0.7267 -0.1808  0.8518
  983MOL0     C32617   2.894   6.935   2.941 -1.1042  0.9222 -0.5465
  983MOL0     O32618   2.695   7.062   3.174  0.3434 -0.3630 -0.0728
  983MOL0     C32619   2.772   7.393   3.114  0.0895 -0.1642  0.0152
  983MOL0     C32620   2.727   7.512   3.150 -0.6643 -0.7303 -0.3613
  983MOL0     N32621   2.354   8.015   3.655 -0.2587 -0.5980 -0.4871
  983MOL0     N32622   2.347   8.063   3.767 -0.3648  0.2764 -0.0434
  983MOL0     C32623   2.171   8.970   4.382 -0.5822 -0.2799 -0.1087
  983MOL0     C32624   2.075   9.040   4.456  0.5327  0.0926  0.0151
  983MOL0     C32625   1.685   9.298   4.503  0.8132 -0.1148  0.0323
  983MOL0     C32626   1.576   9.356   4.434 -1.4940  1.0742 -0.2386
  983MOL0     C32627   1.515   9.473   4.480 -0.6598  0.0914 -0.0116
  983MOL0     C32628   1.569   9.532   4.598 -0.4084 -0.0271  1.3681
  983MOL0     O32629   1.523   9.648   4.645 -0.4958 -0.0852  0.3384
  983MOL0     C32630   1.383   9.676   4.655 -0.5365  0.2251 -0.0399
  983MOL0     C32631   1.329   9.774   4.550  1.2296 -0.0944 -0.4041
  983MOL0     C32632   1.183   9.809   4.586  0.0558 -0.5256  1.0178
  983MOL0     C32633   1.104   9.863   4.464  0.3220 -0.5100 -0.4947
  983MOL0     C32634   0.962   9.886   4.497  0.1413 -0.7826  0.4238
  983MOL0     C32635   0.845   9.900   4.529  0.3067 -0.7823  0.5496
  983MOL0     C32636   1.683   9.480   4.657  0.8212 -0.0786  0.2656
  983MOL0     C32637   1.736   9.362   4.616 -1.1750 -0.1195 -0.1798
  983MOL0     H32638   1.846   9.111   4.209  1.1237 -0.1523 -0.4104
  983MOL0     H32639   2.030   8.983   4.079 -0.7423  0.6775  0.1758
  983MOL0     H32640   2.141   8.735   4.104  1.0959  0.2862 -0.0035
  983MOL0     H32641   2.170   8.860   3.980  0.9521  0.6791 -0.0225
  983MOL0     H32642   2.317   8.698   3.921  1.3288 -0.8275 -0.7354
  983MOL0     H32643   2.416   8.817   4.014 -2.2061  1.7685 -0.2163
  983MOL0     H32644   2.412   8.661   4.219  0.4965  1.5340 -1.2868
  983MOL0     H32645   2.335   8.541   4.121  0.7509  0.4368 -2.5479
  983MOL0     H32646   2.508   8.563   3.956  2.2052 -2.0405  0.0706
  983MOL0     H32647   2.604   8.660   4.061 -0.1881  0.0593 -1.7172
  983MOL0     H32648   2.683   8.451   4.113 -0.0569  0.3827 -0.3764
  983MOL0     H32649   2.567   8.471   4.248 -0.6745  2.8172  0.6680
  983MOL0     H32650   2.560   8.250   4.166 -2.0036 -0.6421  0.6920
  983MOL0     H32651   2.409   8.329   4.159  0.4729 -2.3879  1.8843
  983MOL0     H32652   2.400   8.330   3.932  0.2365  1.6272  2.3116
  983MOL0     H32653   2.567   8.330   3.892  0.0353 -4.0159 -3.0820
  983MOL0     H32654   2.434   8.084   4.027  2.2213 -2.9266 -0.9878
  983MOL0     H32655   2.603   8.096   3.981 -0.6502 -3.0085  1.5442
  983MOL0     H32656   2.670   8.053   3.743 -0.4126 -0.5854 -1.4591
  983MOL0     H32657   2.462   7.974   3.409  0.4344 -3.3273 -1.9775
  983MOL0     H32658   2.627   8.028   3.462 -0.8730  0.1886  1.7209
  983MOL0     H32659   2.667   7.808   3.571  0.1875 -2.4377 -1.2022
  983MOL0     H32660   2.671   7.831   3.394  2.6106  3.4498  0.8727
  983MOL0     H32661   2.414   7.740   3.532 -0.0936 -0.4466 -0.1540
  983MOL0     H32662   2.548   7.628   3.515  3.6409  3.5998  5.1083
  983MOL0     H32663   2.426   7.795   3.275  1.8349 -1.0395 -1.9264
  983MOL0     H32664   2.366   7.633   3.306 -3.1488  3.0270 -1.4685
  983MOL0     H32665   2.459   7.439   3.352 -0.7077 -0.9186 -0.8668
  983MOL0     H32666   2.513   7.235   3.455  2.5929  1.1868  0.9905
  983MOL0     H32667   2.489   7.126   3.311 -0.7757 -0.9711  2.4316
  983MOL0     H32668   2.633   7.124   3.411  0.1087  0.2313  0.4673
  983MOL0     H32669   3.089   7.040   3.196 -0.0667  1.6665 -1.7662
  983MOL0     H32670   3.224   6.858   3.110  0.6609  3.0514 -0.9614
  983MOL0     H32671   3.039   6.534   2.870  0.2108 -1.6099 -3.0899
  983MOL0     H32672   3.125   6.628   2.746 -0.4355 -1.3518 -2.0885
  983MOL0     H32673   3.198   6.389   2.781 -2.0631  2.7694 -3.3229
  983MOL0     H32674   3.336   6.495   2.831 -0.4285 -0.8239  0.3866
  983MOL0     H32675   3.152   6.310   2.978 -0.7350  1.2120 -2.1056
  983MOL0     H32676   3.216   6.438   3.078 -0.7435  0.4185  0.1187
  983MOL0     H32677   3.364   6.229   2.914  3.7413  0.5408  0.3115
  983MOL0     H32678   3.436   6.376   2.980  0.3385  1.5036  0.8863
  983MOL0     H32679   3.286   6.177   3.164  1.5873 -0.0436  2.9568
  983MOL0     H32680   3.387   6.319   3.201  0.2099 -1.0816  0.9118
  983MOL0     H32681   3.511   6.109   3.240 -1.3592  1.0186  0.3839
  983MOL0     H32682   3.482   6.060   3.074 -0.3921 -0.6663 -0.2397
  983MOL0     H32683   3.629   6.316   3.166 -2.1325 -0.9695  1.6011
  983MOL0     H32684   3.644   6.244   3.007 -0.9889 -0.9989 -1.0796
  983MOL0     H32685   3.732   6.116   3.279  1.4394 -0.7941  0.2738
  983MOL0     H32686   3.852   6.214   3.180  0.5284  0.1492  0.2152
  983MOL0     H32687   2.929   6.746   2.839  0.5600 -1.1571  1.9270
  983MOL0     H32688   2.809   6.958   2.877 -2.2083 -1.7136 -0.1752
  983MOL0     H32689   2.848   7.386   3.037 -0.8833 -0.5843 -0.9274
  983MOL0     H32690   2.770   7.607   3.118 -0.6319  0.5239  2.9468
  983MOL0     H32691   2.261   8.934   4.431 -0.0097  0.9799 -0.1999
  983MOL0     H32692   2.100   9.054   4.560  0.0080  1.2618  0.0022
  983MOL0     H32693   1.539   9.298   4.350 -0.3691  0.6504 -0.4618
  983MOL0     H32694   1.430   9.510   4.424 -2.2781 -4.7079 -1.1185
  983MOL0     H32695   1.315   9.590   4.652 -5.3327  3.5765  0.4510
  983MOL0     H32696   1.353   9.725   4.749 -2.3496  1.3289 -1.1306
  983MOL0     H32697   1.328   9.719   4.455  0.5699  1.3855 -1.2877
  983MOL0     H32698   1.391   9.864   4.554 -0.5995  1.1970  2.5981
  983MOL0     H32699   1.182   9.878   4.671  0.6695  0.3733  0.3239
  983MOL0     H32700   1.129   9.716   4.606 -2.3439  0.9422  1.8731
  983MOL0     H32701   1.125   9.798   4.378  0.5867 -2.7845  1.1973
  983MOL0     H32702   1.136   9.964   4.438  0.4882 -0.8828 -1.8171
  983MOL0     H32703   0.742   9.918   4.552  0.0070  0.2845 -1.3805
  983MOL0     H32704   1.726   9.546   4.732  0.2383 -0.4264  0.9141
  983MOL0     H32705   1.821   9.323   4.671 -1.8138 -0.6702  0.4392
  984MOL0     O32706   8.369   1.712   3.943 -0.6624  0.2605  0.2270
  984MOL0     C32707   8.334   1.616   3.879  1.2004 -0.2037  1.3156
  984MOL0     O32708   8.231   1.530   3.905 -0.2862 -0.0280  0.4045
  984MOL0     C32709   8.133   1.557   3.987 -0.0744 -0.4417 -0.1336
  984MOL0     C32710   8.007   1.583   3.935 -0.7134  1.3197  0.1947
  984MOL0     C32711   7.900   1.618   4.010 -0.1775 -0.5704  0.1227
  984MOL0     C32712   7.913   1.624   4.142 -0.4041  0.3003 -0.4473
  984MOL0     O32713   7.821   1.642   4.244 -0.5040 -0.0755  0.4354
  984MOL0     C32714   7.703   1.715   4.227 -0.9971  0.3954  0.4088
  984MOL0     C32715   7.614   1.701   4.356 -0.1037  0.8407  0.0260
  984MOL0     C32716   7.486   1.777   4.350 -0.3379 -0.1023 -0.3172
  984MOL0     C32717   7.395   1.724   4.235 -0.2179 -0.3750  0.6818
  984MOL0     C32718   7.247   1.784   4.240 -0.3088  0.8340  0.0124
  984MOL0     C32719   7.231   1.927   4.290 -0.5519  0.2802 -1.2148
  984MOL0     C32720   7.077   1.971   4.283  0.7381 -0.1977  0.3390
  984MOL0     C32721   7.011   1.979   4.141  0.2246  0.6666  0.1903
  984MOL0     N32722   6.862   1.986   4.145 -0.3975  0.2051  1.2514
  984MOL0     C32723   6.789   1.954   4.032 -0.0194  0.6908  0.2144
  984MOL0     C32724   6.662   1.951   4.086 -0.2166  0.1867  0.0228
  984MOL0     C32725   6.540   1.929   4.000 -0.4838  0.3437 -0.3258
  984MOL0     C32726   6.487   2.065   3.954  0.0835  0.4340  0.3480
  984MOL0     C32727   6.351   2.028   3.898 -0.5444  0.1154  0.8712
  984MOL0     C32728   6.274   2.158   3.884 -0.1465 -0.0557  0.0502
  984MOL0     O32729   6.296   2.244   3.996  0.4736  0.3556 -0.3003
  984MOL0     C32730   6.233   2.358   4.002 -0.5528  0.4238  0.3441
  984MOL0     C32731   6.181   2.430   3.895  0.1659  0.0401 -0.3385
  984MOL0     C32732   6.108   2.551   3.913  0.0084  0.5093 -0.4771
  984MOL0     C32733   6.028   2.614   3.797  0.3370  0.3725  0.2688
  984MOL0     C32734   6.083   2.600   4.039 -0.5877  0.1559  0.3035
  984MOL0     C32735   5.997   2.722   4.069  0.2624  0.6045 -0.0967
  984MOL0     O32736   5.932   2.723   4.186 -0.0560 -0.3609  0.2357
  984MOL0     C32737   5.822   2.803   4.202 -0.5792  0.5094 -0.1917
  984MOL0     C32738   5.840   2.936   4.173  0.5181  0.3267 -1.0013
  984MOL0     C32739   5.726   3.015   4.204  0.8213  0.8201 -1.2717
  984MOL0     C32740   5.604   2.959   4.251  0.1723  0.2835  0.5796
  984MOL0     O32741   5.499   3.040   4.290  0.9702 -0.0462  1.0274
  984MOL0     C32742   5.518   3.128   4.394 -0.1328 -0.7424 -0.1215
  984MOL0     C32743   5.411   3.229   4.394 -0.1026  0.3764  0.1580
  984MOL0     C32744   5.266   3.187   4.368  0.2412  0.4035  0.1629
  984MOL0     C32745   5.190   3.305   4.312  0.0954 -0.6299  0.6613
  984MOL0     C32746   5.049   3.260   4.293 -0.1328 -0.0741 -0.6705
  984MOL0     C32747   4.954   3.386   4.288  0.1385  0.1975  0.2654
  984MOL0     C32748   4.933   3.433   4.430  0.0327 -0.9417  0.4092
  984MOL0     C32749   4.778   3.425   4.459 -0.6712  0.3904 -0.3342
  984MOL0    Cl32750   4.731   3.256   4.501 -0.4851  0.4128 -0.5904
  984MOL0     C32751   5.595   2.824   4.257  0.3511  0.5187  0.3416
  984MOL0     C32752   5.704   2.737   4.241  0.6292 -0.0449 -0.2479
  984MOL0     O32753   6.011   2.813   3.988  0.0474  0.4334  0.6649
  984MOL0     C32754   6.142   2.527   4.146  0.5509  0.3136  0.7509
  984MOL0     C32755   6.217   2.411   4.128 -0.5011  1.0806 -0.5254
  984MOL0     N32756   6.680   1.968   4.229  0.6548 -0.3144  0.5385
  984MOL0     N32757   6.798   1.983   4.256  0.4791 -0.4017  0.0623
  984MOL0     C32758   8.042   1.598   4.196 -1.2178 -0.8554 -0.2334
  984MOL0     C32759   8.148   1.556   4.120 -0.2494  0.2854 -1.0168
  984MOL0     C32760   8.412   1.596   3.755 -0.6692  0.0710  0.0428
  984MOL0     C32761   8.386   1.495   3.658  0.0151  0.5237 -0.0058
  984MOL0     C32762   8.451   1.482   3.539 -0.3822 -0.0342 -0.0894
  984MOL0     C32763   8.546   1.581   3.504 -0.0709 -0.6524 -0.4694
  984MOL0     O32764   8.607   1.553   3.382  0.7224  0.4773 -0.3322
  984MOL0     C32765   8.735   1.613   3.350  0.6761  0.3450 -0.2064
  984MOL0     C32766   8.821   1.533   3.235 -0.3836 -0.5934  0.4352
  984MOL0     C32767   8.842   1.390   3.254  0.3799 -0.4451 -0.7282
  984MOL0     C32768   8.901   1.356   3.382  0.4487 -0.1645  0.4737
  984MOL0     C32769   9.039   1.397   3.396  0.0397  0.6728 -0.4382
  984MOL0     C32770   9.155   1.417   3.398 -0.6045  0.6342  0.4565
  984MOL0     C32771   8.578   1.688   3.591 -0.1056 -0.4031  0.4605
  984MOL0     C32772   8.513   1.694   3.716 -0.2977 -0.3817  0.1098
  984MOL0     H32773   7.991   1.590   3.828  2.0105  0.1961 -0.3800
  984MOL0     H32774   7.807   1.649   3.963 -2.9079 -1.5657  4.3186
  984MOL0     H32775   7.728   1.822   4.218 -0.1147  0.1455 -0.2703
  984MOL0     H32776   7.651   1.671   4.141 -1.4140 -1.9113  1.7814
  984MOL0     H32777   7.587   1.595   4.357  2.7650 -0.0446  3.7260
  984MOL0     H32778   7.678   1.723   4.442  3.6716 -0.3662 -2.2570
  984MOL0     H32779   7.435   1.773   4.447 -1.5422  0.3462 -0.9057
  984MOL0     H32780   7.503   1.880   4.317 -1.5775  0.1305 -0.2913
  984MOL0     H32781   7.439   1.750   4.138  2.2028 -1.1099  1.4977
  984MOL0     H32782   7.382   1.616   4.236 -0.1968 -0.4252 -0.9188
  984MOL0     H32783   7.201   1.768   4.142  3.1198 -0.2269 -1.5734
  984MOL0     H32784   7.202   1.722   4.319  2.2948 -0.7275  0.3834
  984MOL0     H32785   7.273   1.931   4.391  4.2574  1.5562 -2.9744
  984MOL0     H32786   7.293   1.984   4.220 -3.2361  2.7644 -1.7996
  984MOL0     H32787   7.025   1.893   4.338 -1.1675 -0.9548 -2.3610
  984MOL0     H32788   7.066   2.065   4.337 -0.9413 -0.2540  0.1379
  984MOL0     H32789   7.042   1.884   4.098  1.4514  1.4387 -0.6980
  984MOL0     H32790   7.047   2.047   4.063 -1.2696  0.4534 -0.7329
  984MOL0     H32791   6.823   1.934   3.931  0.2879 -1.6202  0.7048
  984MOL0     H32792   6.567   1.869   3.913  3.3194 -0.4613  1.2047
  984MOL0     H32793   6.473   1.875   4.068  2.1637  0.4432  2.5989
  984MOL0     H32794   6.553   2.110   3.880  1.7912 -1.3372  0.7126
  984MOL0     H32795   6.490   2.131   4.042  3.8955  1.8699 -0.6731
  984MOL0     H32796   6.288   1.971   3.967 -1.5462  1.4772  1.1309
  984MOL0     H32797   6.347   1.969   3.806  0.2607 -2.3123  2.3181
  984MOL0     H32798   6.166   2.138   3.875 -0.2625  0.5010  0.1722
  984MOL0     H32799   6.302   2.202   3.788  0.1642  1.2690  0.7407
  984MOL0     H32800   6.212   2.397   3.796  2.7074  2.3338 -0.4430
  984MOL0     H32801   5.920   2.623   3.808  0.3472  1.2434 -0.2231
  984MOL0     H32802   6.065   2.715   3.779 -0.9280  0.6501 -0.9724
  984MOL0     H32803   6.044   2.558   3.704  1.2247  0.1528  0.5406
  984MOL0     H32804   5.934   2.982   4.144  0.5669 -1.2503 -3.7106
  984MOL0     H32805   5.726   3.123   4.192 -0.5146  0.7824 -1.7678
  984MOL0     H32806   5.527   3.064   4.482  0.8316  1.0546  1.1546
  984MOL0     H32807   5.615   3.177   4.383  0.2221 -0.4616  3.2650
  984MOL0     H32808   5.403   3.269   4.496 -0.4554 -1.6203  0.9569
  984MOL0     H32809   5.434   3.309   4.322 -0.0860 -1.3889 -1.8922
  984MOL0     H32810   5.217   3.162   4.463 -1.0487 -0.4819 -0.6993
  984MOL0     H32811   5.259   3.099   4.304 -0.2497 -0.3627  1.2412
  984MOL0     H32812   5.192   3.389   4.382  0.2578  0.7672 -0.9571
  984MOL0     H32813   5.235   3.339   4.218 -1.1600  2.5673  1.0897
  984MOL0     H32814   5.017   3.200   4.379  0.1586 -0.7315 -1.0166
  984MOL0     H32815   5.026   3.189   4.213 -1.8138  0.1769 -0.4495
  984MOL0     H32816   4.998   3.470   4.235 -4.2504  2.2805 -0.5880
  984MOL0     H32817   4.855   3.364   4.247 -0.3086 -2.4158  2.4744
  984MOL0     H32818   4.984   3.529   4.443 -0.4945 -0.3878 -1.3279
  984MOL0     H32819   4.976   3.375   4.512 -2.5223  0.8015  3.2136
  984MOL0     H32820   4.714   3.466   4.380 -0.4250  0.3663 -0.5502
  984MOL0     H32821   4.767   3.493   4.544 -0.1534 -3.6450  3.3094
  984MOL0     H32822   5.496   2.785   4.279 -0.4005  0.9883 -1.9114
  984MOL0     H32823   5.688   2.636   4.276  0.3588  0.2103  0.3738
  984MOL0     H32824   6.122   2.573   4.242 -1.0613  2.1118 -0.3734
  984MOL0     H32825   6.267   2.350   4.203 -0.2694  2.3106  0.3502
  984MOL0     H32826   8.051   1.604   4.304  0.3026  0.2339 -0.3858
  984MOL0     H32827   8.238   1.509   4.159 -0.5764  1.4768  1.3350
  984MOL0     H32828   8.313   1.418   3.682  0.6171  0.3524  1.3340
  984MOL0     H32829   8.423   1.401   3.473  1.0040  0.9309 -1.9687
  984MOL0     H32830   8.717   1.713   3.310  1.8477  0.2744 -0.9648
  984MOL0     H32831   8.800   1.624   3.437  1.7022  0.0017 -0.9079
  984MOL0     H32832   8.919   1.580   3.222 -0.0687 -1.2866  0.2866
  984MOL0     H32833   8.777   1.535   3.135 -0.3790  3.2942  0.3436
  984MOL0     H32834   8.913   1.357   3.177  2.3112  0.0137  0.7890
  984MOL0     H32835   8.746   1.340   3.235 -0.4638  0.8707 -0.0113
  984MOL0     H32836   8.908   1.247   3.395  0.6779 -0.4497 -1.5711
  984MOL0     H32837   8.843   1.395   3.465 -2.8463 -1.1597 -1.1740
  984MOL0     H32838   9.260   1.436   3.405  0.6009 -4.4322  0.0184
  984MOL0     H32839   8.652   1.758   3.553  1.6684 -1.4218  1.8803
  984MOL0     H32840   8.537   1.777   3.782 -1.9633 -0.1205  0.4311
  985MOL0     O32841   4.252   0.940   6.889 -0.0370 -0.3391  0.2690
  985MOL0     C32842   4.352   0.951   6.955 -0.1965  0.8060 -0.2981
  985MOL0     O32843   4.365   1.029   7.067 -0.4508  0.1981  0.5247
  985MOL0     C32844   4.252   1.095   7.110  0.0537 -0.0788 -1.0073
  985MOL0     C32845   4.147   1.023   7.178  0.0436  0.3512 -0.4726
  985MOL0     C32846   4.035   1.088   7.215 -0.0365 -0.0130 -0.6855
  985MOL0     C32847   4.025   1.224   7.209 -0.4539 -0.0385  0.0531
  985MOL0     O32848   3.908   1.296   7.244  0.2122  0.0929  0.0156
  985MOL0     C32849   3.790   1.230   7.285 -0.7605  0.4299 -0.0288
  985MOL0     C32850   3.794   1.202   7.433  0.4374 -0.2546  0.3161
  985MOL0     C32851   3.719   1.306   7.512  0.3551 -0.2927  0.1519
  985MOL0     C32852   3.742   1.281   7.662 -0.3637 -0.4128  0.7125
  985MOL0     C32853   3.688   1.396   7.759 -0.3090  0.3176 -0.6313
  985MOL0     C32854   3.538   1.411   7.758  0.2686  0.3162 -0.3032
  985MOL0     C32855   3.485   1.514   7.859  0.2790 -0.1140  0.8024
  985MOL0     C32856   3.343   1.531   7.826  0.0232  0.0340 -0.1731
  985MOL0     N32857   3.287   1.629   7.916  0.5041 -0.1354 -0.6199
  985MOL0     C32858   3.237   1.600   8.044  0.2961 -0.9992 -0.3432
  985MOL0     C32859   3.224   1.726   8.100  0.3256 -0.9075  0.0742
  985MOL0     C32860   3.178   1.737   8.242  0.3176 -0.1097  0.0622
  985MOL0     C32861   3.033   1.715   8.272  0.0798 -0.3065 -0.6089
  985MOL0     C32862   2.933   1.800   8.184 -0.3965  0.3201 -0.8714
  985MOL0     C32863   2.784   1.752   8.196 -0.1642  0.0802  0.0443
  985MOL0     O32864   2.740   1.777   8.332 -0.4772 -0.3732 -0.6014
  985MOL0     C32865   2.615   1.737   8.374  0.2329 -0.1864  0.0518
  985MOL0     C32866   2.570   1.769   8.506  0.9871 -0.2043  0.5279
  985MOL0     C32867   2.441   1.717   8.549 -0.3454  1.0182  0.1733
  985MOL0     C32868   2.392   1.759   8.687 -0.9009 -0.5135  0.6452
  985MOL0     C32869   2.350   1.647   8.464 -0.4538 -0.2419 -0.4860
  985MOL0     C32870   2.218   1.591   8.509 -0.2892  0.5172  0.0689
  985MOL0     O32871   2.234   1.487   8.597  0.5432 -0.2116 -0.0774
  985MOL0     C32872   2.124   1.432   8.649 -0.3919 -0.0983  0.0409
  985MOL0     C32873   2.087   1.463   8.783  0.2323 -0.5842  0.4230
  985MOL0     C32874   1.978   1.403   8.841  0.0914  0.4286  1.1243
  985MOL0     C32875   1.900   1.310   8.761  0.0359 -0.2021 -0.0051
  985MOL0     O32876   1.792   1.252   8.811  0.6043  0.5468  0.8180
  985MOL0     C32877   1.695   1.348   8.853 -0.4550  0.2174 -0.0551
  985MOL0     C32878   1.588   1.349   8.739  0.5685  0.0533 -0.4748
  985MOL0     C32879   1.493   1.473   8.758  0.1772  0.5259 -0.0163
  985MOL0     C32880   1.403   1.489   8.630  0.1149 -0.0553 -0.8783
  985MOL0     C32881   1.340   1.632   8.623  0.2257  0.0770 -0.2773
  985MOL0     C32882   1.259   1.643   8.490  0.0991 -0.7867 -0.1521
  985MOL0     C32883   1.201   1.781   8.493  0.1098  0.2344  0.8346
  985MOL0     C32884   1.122   1.802   8.365  0.0191 -1.2852  0.1884
  985MOL0    Cl32885   0.942   1.746   8.385  0.3130  0.4120  0.0549
  985MOL0     C32886   1.927   1.279   8.627  1.0573 -0.6038 -0.6291
  985MOL0     C32887   2.043   1.346   8.572 -0.4836  0.1260 -0.0764
  985MOL0     O32888   2.116   1.647   8.475 -0.1078 -0.0025 -0.3162
  985MOL0     C32889   2.404   1.622   8.332 -0.9337 -0.3701 -0.0565
  985MOL0     C32890   2.529   1.671   8.286 -0.2849  0.1586 -0.2668
  985MOL0     N32891   3.249   1.827   8.007 -0.5869 -0.5888  0.4520
  985MOL0     N32892   3.287   1.764   7.895  0.2769 -0.1708 -0.6686
  985MOL0     C32893   4.133   1.303   7.162  0.3812  0.2809  0.1386
  985MOL0     C32894   4.251   1.231   7.122 -0.0813  0.3091 -0.0887
  985MOL0     C32895   4.479   0.894   6.903 -0.2378  1.1001 -0.2378
  985MOL0     C32896   4.601   0.940   6.947  0.1116 -0.3623  0.8799
  985MOL0     C32897   4.724   0.892   6.905 -0.8453  0.3900 -0.1796
  985MOL0     C32898   4.724   0.795   6.804 -0.0324  0.0680 -0.3632
  985MOL0     O32899   4.839   0.737   6.749 -0.0518 -0.0399  0.0374
  985MOL0     C32900   4.968   0.805   6.781 -0.2421  0.0128  0.1610
  985MOL0     C32901   5.080   0.720   6.714 -0.6248 -0.4473 -0.1604
  985MOL0     C32902   5.200   0.808   6.711 -0.5212 -0.2446 -0.2692
  985MOL0     C32903   5.326   0.723   6.674 -0.1413 -0.3746  0.8189
  985MOL0     C32904   5.318   0.699   6.527  0.3955  0.1903 -0.3057
  985MOL0     C32905   5.291   0.699   6.410  0.2848 -1.1395 -0.0951
  985MOL0     C32906   4.598   0.741   6.759 -0.0882 -0.5584 -0.5739
  985MOL0     C32907   4.479   0.787   6.812 -0.3027  0.2167 -1.0868
  985MOL0     H32908   4.151   0.915   7.191  0.5310  0.4404  0.2044
  985MOL0     H32909   3.951   1.043   7.266 -0.3274  0.8293 -0.4016
  985MOL0     H32910   3.716   1.308   7.262 -1.5860  0.2432  1.7977
  985MOL0     H32911   3.755   1.147   7.223 -3.3780 -0.0124  1.8800
  985MOL0     H32912   3.752   1.102   7.446 -1.5851  0.5062  0.0110
  985MOL0     H32913   3.894   1.211   7.476  0.7677 -1.7121 -0.0861
  985MOL0     H32914   3.767   1.401   7.486  0.8386 -0.9509 -1.5387
  985MOL0     H32915   3.611   1.305   7.497  0.5734  3.1120 -3.0683
  985MOL0     H32916   3.687   1.189   7.684 -1.2289  0.2008  1.1807
  985MOL0     H32917   3.850   1.264   7.674 -0.6603 -1.5739  1.8942
  985MOL0     H32918   3.730   1.376   7.858 -0.2231  1.7002 -0.3698
  985MOL0     H32919   3.726   1.493   7.727 -1.1510  1.3065  1.2184
  985MOL0     H32920   3.509   1.439   7.657  0.8765  2.7808  0.1427
  985MOL0     H32921   3.492   1.317   7.789  3.2902 -0.8201  1.2190
  985MOL0     H32922   3.505   1.483   7.962 -2.9435  0.1191  1.5996
  985MOL0     H32923   3.541   1.607   7.843  1.7608 -1.4628 -2.8774
  985MOL0     H32924   3.286   1.439   7.844  1.3019 -0.9284 -0.8815
  985MOL0     H32925   3.337   1.554   7.719 -0.1941 -2.2080 -0.7020
  985MOL0     H32926   3.226   1.505   8.095  0.6598 -1.1118 -0.4744
  985MOL0     H32927   3.258   1.683   8.295  2.7608 -0.0906 -3.2441
  985MOL0     H32928   3.190   1.843   8.268  1.6453  0.3443 -2.0967
  985MOL0     H32929   3.018   1.740   8.377 -1.1421 -1.1707 -0.5574
  985MOL0     H32930   2.999   1.611   8.272 -0.4437 -0.2736  3.2113
  985MOL0     H32931   2.959   1.800   8.078  0.6939  0.0546 -0.6209
  985MOL0     H32932   2.940   1.904   8.214  0.9302  0.5074 -1.7123
  985MOL0     H32933   2.785   1.643   8.184 -0.3097  0.3557 -3.0372
  985MOL0     H32934   2.718   1.807   8.129  0.3846  1.4124  0.5631
  985MOL0     H32935   2.634   1.823   8.575 -0.7813  1.8776  0.6290
  985MOL0     H32936   2.428   1.694   8.768  1.5315  2.2343  2.0028
  985MOL0     H32937   2.436   1.856   8.711  2.7218 -1.7073 -0.4985
  985MOL0     H32938   2.283   1.763   8.691 -0.9168  1.0654 -0.5492
  985MOL0     H32939   2.146   1.531   8.844  0.8821 -0.8673  0.1254
  985MOL0     H32940   1.957   1.429   8.944  1.5228  2.2838  0.9975
  985MOL0     H32941   1.645   1.314   8.944  0.3929  1.6139  0.9611
  985MOL0     H32942   1.733   1.446   8.881  2.9487 -1.6416  2.6120
  985MOL0     H32943   1.645   1.331   8.647 -1.1396 -0.6239 -1.4540
  985MOL0     H32944   1.523   1.262   8.748 -0.9216  1.3833  3.7871
  985MOL0     H32945   1.562   1.557   8.763  1.5738 -0.3269 -2.8948
  985MOL0     H32946   1.436   1.468   8.852 -0.2273  1.1391 -0.2274
  985MOL0     H32947   1.447   1.464   8.533  0.0904 -0.6628 -0.7411
  985MOL0     H32948   1.316   1.422   8.628  0.3086 -0.3815 -4.1350
  985MOL0     H32949   1.420   1.705   8.642  1.4542 -1.8150  2.4737
  985MOL0     H32950   1.277   1.646   8.711  0.3264  1.0224 -0.3472
  985MOL0     H32951   1.326   1.637   8.404  2.8626  0.8958  1.7018
  985MOL0     H32952   1.182   1.566   8.481 -1.5843  0.7373  0.6190
  985MOL0     H32953   1.283   1.853   8.489 -0.0696  0.4681 -3.0645
  985MOL0     H32954   1.132   1.813   8.572  0.7059  2.3221  0.5824
  985MOL0     H32955   1.164   1.750   8.279 -0.6019 -0.1138 -0.8409
  985MOL0     H32956   1.120   1.910   8.346 -2.0827 -1.0286  1.4557
  985MOL0     H32957   1.874   1.201   8.573  0.2027 -0.6764  0.2814
  985MOL0     H32958   2.071   1.336   8.468  1.3166  2.1173  0.1442
  985MOL0     H32959   2.340   1.569   8.261  1.4973 -1.5558 -1.5182
  985MOL0     H32960   2.558   1.644   8.185  1.7054 -2.8557  0.9474
  985MOL0     H32961   4.136   1.412   7.160 -0.8594  0.3042 -0.9915
  985MOL0     H32962   4.334   1.297   7.096  2.8091 -2.5759  1.1709
  985MOL0     H32963   4.597   1.031   7.006 -2.3942  2.0700 -2.5997
  985MOL0     H32964   4.810   0.937   6.954 -1.0257 -1.8204  2.4148
  985MOL0     H32965   4.967   0.910   6.749 -0.0611  0.1239  0.5103
  985MOL0     H32966   4.993   0.808   6.888 -0.2527 -0.2269  0.1699
  985MOL0     H32967   5.051   0.698   6.611  1.0376  2.1337 -1.2912
  985MOL0     H32968   5.097   0.626   6.767  2.5611 -0.5438 -1.1745
  985MOL0     H32969   5.217   0.853   6.810  1.0779  0.9881 -1.0551
  985MOL0     H32970   5.187   0.887   6.637 -0.9192 -2.1538 -2.3375
  985MOL0     H32971   5.318   0.624   6.720 -3.6135 -0.7747 -0.3174
  985MOL0     H32972   5.416   0.774   6.707  1.5398 -0.4714 -3.0756
  985MOL0     H32973   5.276   0.710   6.304 -0.9049  2.8179  0.3498
  985MOL0     H32974   4.600   0.663   6.684  3.5326  0.0325 -1.2477
  985MOL0     H32975   4.381   0.747   6.788  0.3668 -1.2917 -1.4040
  986MOL0     O32976   1.982   8.448   2.710  0.4422  0.2282  0.5324
  986MOL0     C32977   1.937   8.399   2.817 -0.3888 -0.0394 -0.0088
  986MOL0     O32978   1.998   8.313   2.905  0.3014  0.3006 -0.3461
  986MOL0     C32979   2.127   8.262   2.880  1.1789  0.1931  0.4018
  986MOL0     C32980   2.147   8.177   2.775 -0.0978  0.1875  0.2207
  986MOL0     C32981   2.268   8.116   2.748  0.4794 -0.9243 -0.0212
  986MOL0     C32982   2.371   8.143   2.840 -0.3614  0.7546  0.1052
  986MOL0     O32983   2.497   8.088   2.816  0.2655  0.4409  0.1435
  986MOL0     C32984   2.558   8.011   2.922  0.5054  0.5442  0.0365
  986MOL0     C32985   2.612   7.877   2.881  0.1487  0.7254 -0.0101
  986MOL0     C32986   2.501   7.765   2.890  1.0757  0.1846  0.2017
  986MOL0     C32987   2.556   7.630   2.836  0.2251 -0.1014  0.6716
  986MOL0     C32988   2.470   7.506   2.843 -0.2709 -0.4382  0.1572
  986MOL0     C32989   2.542   7.389   2.785  0.0368  0.1762 -0.0250
  986MOL0     C32990   2.452   7.264   2.787  0.3386 -0.3021 -0.1281
  986MOL0     C32991   2.418   7.228   2.933  0.6570  0.9691  0.2070
  986MOL0     N32992   2.337   7.098   2.942 -0.2676 -0.2265 -0.0915
  986MOL0     C32993   2.345   7.004   3.040 -0.4912 -0.6751  0.0708
  986MOL0     C32994   2.265   6.900   2.998 -0.6361  0.8348 -0.0250
  986MOL0     C32995   2.218   6.771   3.063  0.1949 -0.4400  0.2492
  986MOL0     C32996   2.214   6.769   3.212 -0.1795 -0.8808  0.8436
  986MOL0     C32997   2.349   6.741   3.282  0.6684 -0.0413 -0.3894
  986MOL0     C32998   2.340   6.763   3.440 -0.9002  0.3852 -0.9214
  986MOL0     O32999   2.292   6.897   3.472 -0.2622  0.0551 -0.1499
  986MOL0     C33000   2.175   6.903   3.538 -0.5504 -0.4482  0.3985
  986MOL0     C33001   2.074   6.804   3.532  0.6757 -0.8994  0.1066
  986MOL0     C33002   1.946   6.822   3.592 -0.2001  0.2728 -0.6017
  986MOL0     C33003   1.836   6.723   3.549 -0.0408  0.3321  0.1754
  986MOL0     C33004   1.931   6.934   3.674 -0.5595 -0.0844 -1.0413
  986MOL0     C33005   1.810   6.948   3.761 -0.1112  0.2203 -0.5617
  986MOL0     O33006   1.778   7.070   3.811  0.7017  0.5071 -0.0284
  986MOL0     C33007   1.650   7.101   3.850  0.0970  0.2224  0.1761
  986MOL0     C33008   1.619   7.170   3.972 -0.6522  0.1404  0.2935
  986MOL0     C33009   1.493   7.205   4.007  0.5495 -0.4642 -0.6736
  986MOL0     C33010   1.386   7.192   3.917 -0.3148  0.4085  0.4624
  986MOL0     O33011   1.258   7.231   3.940 -0.0861 -0.0276 -0.8597
  986MOL0     C33012   1.211   7.239   4.081  0.1094  0.1624 -0.0089
  986MOL0     C33013   1.059   7.199   4.096 -0.8609 -0.7025 -0.5148
  986MOL0     C33014   0.971   7.306   4.035 -0.4592 -0.0871  0.0790
  986MOL0     C33015   0.842   7.314   4.109 -0.0507  0.0518 -0.8144
  986MOL0     C33016   0.756   7.434   4.059 -0.2796 -0.9910  0.0056
  986MOL0     C33017   0.620   7.455   4.126  0.1655  1.2389 -0.1790
  986MOL0     C33018   0.638   7.508   4.264 -0.5919 -0.1141  0.1158
  986MOL0     C33019   0.510   7.571   4.325  0.5328  0.8234 -0.7153
  986MOL0    Cl33020   0.370   7.460   4.300  0.2991  0.1503 -0.0215
  986MOL0     C33021   1.418   7.133   3.791  0.2108  0.0014  0.0917
  986MOL0     C33022   1.543   7.094   3.757  0.0844 -0.3000 -0.5286
  986MOL0     O33023   1.747   6.848   3.784 -0.0140 -0.0535 -0.4614
  986MOL0     C33024   2.034   7.033   3.677 -0.0058 -0.1602 -0.1110
  986MOL0     C33025   2.148   7.020   3.603  0.6056  0.0297  0.4335
  986MOL0     N33026   2.217   6.939   2.874 -0.3348 -0.2465 -0.8933
  986MOL0     N33027   2.258   7.053   2.844 -0.4425  0.1160 -0.0618
  986MOL0     C33028   2.351   8.222   2.952  0.4660  0.6203  0.4636
  986MOL0     C33029   2.230   8.277   2.972  0.6898  0.3231  0.4659
  986MOL0     C33030   1.797   8.402   2.842  0.0192  0.6004 -0.1885
  986MOL0     C33031   1.734   8.316   2.942  0.5231  0.0663 -0.2589
  986MOL0     C33032   1.600   8.336   2.970 -0.4989  0.6542 -0.4424
  986MOL0     C33033   1.521   8.427   2.910 -0.5781 -0.5908 -0.5708
  986MOL0     O33034   1.384   8.429   2.951 -0.7054  0.3721 -0.2856
  986MOL0     C33035   1.296   8.522   2.878 -0.2096 -0.2893  0.0389
  986MOL0     C33036   1.148   8.477   2.887 -0.2214 -0.9145  0.5898
  986MOL0     C33037   1.067   8.563   2.801  0.1172  0.1350 -0.0228
  986MOL0     C33038   0.912   8.538   2.816 -0.2536 -1.3129  0.1671
  986MOL0     C33039   0.835   8.653   2.776  0.5418  0.4100 -0.2269
  986MOL0     C33040   0.757   8.748   2.762  1.1175  0.0233 -0.2680
  986MOL0     C33041   1.581   8.511   2.816  0.2641 -0.4546  0.3568
  986MOL0     C33042   1.716   8.493   2.779  0.2199  0.6177  0.4025
  986MOL0     H33043   2.069   8.166   2.701  0.9520  1.9745 -1.2287
  986MOL0     H33044   2.279   8.037   2.674 -1.1457 -2.2898  1.1294
  986MOL0     H33045   2.642   8.071   2.956  0.8388  0.3205 -0.3828
  986MOL0     H33046   2.482   7.996   3.000  0.8112  3.2431  0.9683
  986MOL0     H33047   2.664   7.884   2.785 -0.4156  0.4242 -0.3505
  986MOL0     H33048   2.692   7.844   2.947 -1.8184 -1.3282  1.5093
  986MOL0     H33049   2.471   7.765   2.996 -0.4483  0.4733 -0.2023
  986MOL0     H33050   2.413   7.798   2.834  0.5990  0.5498  1.1287
  986MOL0     H33051   2.588   7.649   2.733 -0.0685 -0.7300  0.4620
  986MOL0     H33052   2.648   7.612   2.892  0.5122  1.1229  0.6255
  986MOL0     H33053   2.465   7.491   2.951 -2.1076  0.9423  0.3101
  986MOL0     H33054   2.372   7.520   2.797 -0.3962  0.0621  0.5600
  986MOL0     H33055   2.559   7.409   2.679 -3.8956 -0.9421 -1.0623
  986MOL0     H33056   2.640   7.379   2.832  0.7488  4.2494 -0.2860
  986MOL0     H33057   2.366   7.290   2.725  0.1251  0.4558  0.4575
  986MOL0     H33058   2.496   7.178   2.737  1.9536  1.3052 -1.6370
  986MOL0     H33059   2.354   7.306   2.976 -0.3498  1.9187 -2.7059
  986MOL0     H33060   2.502   7.224   3.002 -0.0300  0.9765  1.0576
  986MOL0     H33061   2.405   7.022   3.129 -0.3459  2.7918 -0.6114
  986MOL0     H33062   2.116   6.752   3.027 -1.1318  1.0417  2.8974
  986MOL0     H33063   2.283   6.693   3.022 -2.6550 -3.4402  1.0287
  986MOL0     H33064   2.136   6.707   3.255 -1.3749 -0.0053  0.0189
  986MOL0     H33065   2.179   6.870   3.237 -1.7507 -0.6217 -2.0273
  986MOL0     H33066   2.431   6.805   3.247  0.1993  0.5984 -0.3310
  986MOL0     H33067   2.360   6.637   3.249 -1.5037  0.5705 -3.4760
  986MOL0     H33068   2.442   6.759   3.478 -1.7180  1.9977  1.7137
  986MOL0     H33069   2.281   6.679   3.475 -0.8351  1.1393  1.1260
  986MOL0     H33070   2.091   6.712   3.477 -2.5684 -2.7562  1.8677
  986MOL0     H33071   1.834   6.652   3.632 -2.5316  0.2459  0.1048
  986MOL0     H33072   1.736   6.766   3.536 -0.5997 -1.3080 -1.5486
  986MOL0     H33073   1.864   6.663   3.461  1.0322 -0.4531  1.0192
  986MOL0     H33074   1.696   7.183   4.047 -1.3721 -1.0844  1.2778
  986MOL0     H33075   1.464   7.257   4.098 -0.8240 -0.6450 -0.9758
  986MOL0     H33076   1.264   7.176   4.153 -1.4387 -0.7163  0.4039
  986MOL0     H33077   1.229   7.344   4.105  1.1270  0.4955 -2.0095
  986MOL0     H33078   1.045   7.094   4.066  0.9371 -1.4033  0.8892
  986MOL0     H33079   1.038   7.200   4.203 -0.1876 -0.4513 -0.3769
  986MOL0     H33080   0.961   7.290   3.927 -0.2696 -1.7498  0.2827
  986MOL0     H33081   1.028   7.399   4.044 -0.6129  0.0234 -0.0763
  986MOL0     H33082   0.782   7.224   4.091 -1.5141  0.0871  3.0941
  986MOL0     H33083   0.851   7.310   4.218 -0.4433 -0.7898 -0.8009
  986MOL0     H33084   0.731   7.424   3.953  1.5680  1.6736 -0.7752
  986MOL0     H33085   0.818   7.523   4.072  2.2201 -2.5328 -0.6421
  986MOL0     H33086   0.556   7.517   4.063 -1.8526 -0.5087  0.0101
  986MOL0     H33087   0.565   7.360   4.132  1.3520  0.5704  0.5607
  986MOL0     H33088   0.707   7.593   4.265  0.1197 -0.6443  2.1313
  986MOL0     H33089   0.685   7.427   4.320  2.3313  1.5735  0.3056
  986MOL0     H33090   0.474   7.658   4.269  2.3876  1.3368 -1.1634
  986MOL0     H33091   0.532   7.586   4.431 -1.3871 -1.2783  0.0648
  986MOL0     H33092   1.340   7.129   3.716  1.5788  1.8558 -1.5562
  986MOL0     H33093   1.552   7.051   3.658 -1.3288 -0.4965 -0.5913
  986MOL0     H33094   2.016   7.117   3.744 -1.6252  0.5902 -1.4048
  986MOL0     H33095   2.221   7.100   3.601 -0.7754  1.3382  0.3249
  986MOL0     H33096   2.427   8.248   3.025  1.1025 -3.1548  1.3199
  986MOL0     H33097   2.207   8.330   3.064 -1.3907  0.6728 -0.1933
  986MOL0     H33098   1.799   8.247   2.996  0.9910 -0.2207 -1.1703
  986MOL0     H33099   1.562   8.277   3.052 -0.0041  2.3675  1.1002
  986MOL0     H33100   1.305   8.619   2.927 -1.4656 -1.2227  2.2875
  986MOL0     H33101   1.319   8.541   2.773 -0.8612 -2.2426 -0.5108
  986MOL0     H33102   1.119   8.503   2.989 -1.0186 -2.3363  0.7522
  986MOL0     H33103   1.132   8.373   2.855 -1.6681 -0.2210 -1.1428
  986MOL0     H33104   1.085   8.547   2.694 -2.3130 -0.7654 -0.3583
  986MOL0     H33105   1.084   8.670   2.817  1.8765  0.5009 -3.3135
  986MOL0     H33106   0.882   8.519   2.919 -0.7062 -5.1492 -0.5116
  986MOL0     H33107   0.881   8.452   2.756  1.0944  0.1238 -2.8298
  986MOL0     H33108   0.672   8.813   2.762 -0.2705 -1.7149  0.3558
  986MOL0     H33109   1.520   8.589   2.771 -0.7560 -0.2371  2.0380
  986MOL0     H33110   1.759   8.556   2.702  1.4272  0.4397  0.9030
  987MOL0     O33111   9.122  11.283   0.534  0.6690  0.3617  0.2669
  987MOL0     C33112   9.185  11.351   0.619  0.7025  0.7857  0.1317
  987MOL0     O33113   9.127  11.403   0.733  0.3052 -0.2587  0.2111
  987MOL0     C33114   9.008  11.462   0.705  0.1172  0.4311  0.8472
  987MOL0     C33115   8.888  11.391   0.705 -0.6553  0.3437  0.8580
  987MOL0     C33116   8.768  11.452   0.694 -0.7997 -1.5463 -0.0321
  987MOL0     C33117   8.759  11.596   0.686 -1.2172 -0.8207 -0.4489
  987MOL0     O33118   8.637  11.656   0.677  0.0645 -0.3074  0.4492
  987MOL0     C33119   8.519  11.584   0.621  0.4305  1.3038  0.2768
  987MOL0     C33120   8.388  11.670   0.632  0.0480  0.7472 -0.0363
  987MOL0     C33121   8.342  11.738   0.501 -0.2003 -0.9562 -0.1891
  987MOL0     C33122   8.198  11.784   0.518  0.1798  0.1154 -0.1165
  987MOL0     C33123   8.153  11.879   0.414  0.9154 -0.2831 -0.2332
  987MOL0     C33124   8.234  12.012   0.409 -0.0163 -0.5810  0.4310
  987MOL0     C33125   8.277  12.072   0.542 -0.0059 -0.1543  0.6854
  987MOL0     C33126   8.162  12.106   0.633 -1.0359 -0.0488  0.0759
  987MOL0     N33127   8.092  12.231   0.597 -0.0162  0.5590  0.0536
  987MOL0     C33128   7.953  12.247   0.575  0.4040  0.1524 -0.2699
  987MOL0     C33129   7.933  12.380   0.567 -0.5663 -0.8908  0.1914
  987MOL0     C33130   7.803  12.455   0.534 -0.1357 -0.3106  0.1291
  987MOL0     C33131   7.701  12.435   0.650  0.0506 -0.4957 -0.4596
  987MOL0     C33132   7.598  12.548   0.640 -0.1915 -0.0581 -0.9801
  987MOL0     C33133   7.463  12.507   0.698 -0.3258 -0.0365  0.6248
  987MOL0     O33134   7.416  12.402   0.610 -1.0003 -0.2457  0.1315
  987MOL0     C33135   7.285  12.369   0.617  0.2158  0.2639 -0.8082
  987MOL0     C33136   7.199  12.435   0.703 -0.0999 -0.9538  0.5775
  987MOL0     C33137   7.075  12.373   0.722  0.1093  0.1751  0.3211
  987MOL0     C33138   6.990  12.430   0.839  0.2015 -0.5514  0.4562
  987MOL0     C33139   7.022  12.265   0.641  0.4425 -0.0582 -0.2506
  987MOL0     C33140   6.893  12.201   0.666 -0.5535 -0.5445 -0.4219
  987MOL0     O33141   6.791  12.286   0.705 -0.5163  0.6526  0.7719
  987MOL0     C33142   6.674  12.239   0.746 -0.1535  0.2426  0.7274
  987MOL0     C33143   6.641  12.236   0.886  0.6438  0.3434 -0.2740
  987MOL0     C33144   6.517  12.193   0.934  1.5282  0.3731  0.4492
  987MOL0     C33145   6.429  12.141   0.839  0.4352  0.4941  0.3902
  987MOL0     O33146   6.304  12.077   0.862  0.2425 -0.8489 -0.0352
  987MOL0     C33147   6.304  12.021   0.995 -0.8924 -0.8260  0.2896
  987MOL0     C33148   6.169  11.955   1.026 -0.6719  0.4542  0.3460
  987MOL0     C33149   6.199  11.811   1.092 -0.9905 -0.4418  0.2638
  987MOL0     C33150   6.072  11.755   1.141 -0.5077  0.1717 -0.0691
  987MOL0     C33151   6.077  11.607   1.170  0.6572 -0.2640 -0.3978
  987MOL0     C33152   5.940  11.553   1.209  0.9697  0.2175  0.4768
  987MOL0     C33153   5.886  11.599   1.349  0.0129 -0.6771 -0.5544
  987MOL0     C33154   5.773  11.505   1.416 -0.4175 -0.8147  0.0648
  987MOL0    Cl33155   5.659  11.424   1.301 -0.4638  0.8261 -0.2944
  987MOL0     C33156   6.463  12.141   0.706 -0.0760 -0.2199  0.9205
  987MOL0     C33157   6.585  12.184   0.653  0.1089 -0.8975 -0.3530
  987MOL0     O33158   6.879  12.079   0.655 -0.0829  0.0300 -0.0419
  987MOL0     C33159   7.108  12.210   0.547 -0.2110  0.0054 -0.8218
  987MOL0     C33160   7.244  12.261   0.536 -0.3765 -0.6143  0.1767
  987MOL0     N33161   8.053  12.443   0.597  0.7524 -0.0120  0.1809
  987MOL0     N33162   8.152  12.353   0.613  0.1652 -0.0678  0.1413
  987MOL0     C33163   8.880  11.673   0.686  0.2078  0.2670 -0.9533
  987MOL0     C33164   8.998  11.605   0.701 -1.2860  0.1168  0.3773
  987MOL0     C33165   9.333  11.328   0.611  0.3924 -0.3679 -0.1173
  987MOL0     C33166   9.423  11.399   0.697 -0.5138  0.8436  0.0826
  987MOL0     C33167   9.559  11.376   0.691  0.2521 -0.1039  0.2995
  987MOL0     C33168   9.609  11.301   0.588 -0.1437  0.5867  0.5022
  987MOL0     O33169   9.740  11.270   0.566 -0.7160  0.6448 -0.0896
  987MOL0     C33170   9.844  11.285   0.665 -0.2498 -0.5535  0.3570
  987MOL0     C33171   9.817  11.194   0.780  0.6212 -0.1170 -0.0331
  987MOL0     C33172   9.786  11.043   0.739 -0.2849  0.1078 -0.7582
  987MOL0     C33173   9.817  10.955   0.866 -0.6243  0.2298  0.0740
  987MOL0     C33174   9.962  10.934   0.886  0.5888 -0.2971 -0.2280
  987MOL0     C33175  10.076  10.908   0.910 -0.6607  0.6100 -0.4708
  987MOL0     C33176   9.519  11.248   0.491 -0.7832  0.4558 -1.2118
  987MOL0     C33177   9.384  11.262   0.504 -0.2138  0.3378  0.0477
  987MOL0     H33178   8.891  11.284   0.720  3.3573  0.0877 -0.6023
  987MOL0     H33179   8.678  11.392   0.690 -1.5926 -0.4252  0.5109
  987MOL0     H33180   8.539  11.537   0.524  3.1161  2.9540 -0.0604
  987MOL0     H33181   8.503  11.495   0.683  1.6358  0.4545 -0.5988
  987MOL0     H33182   8.315  11.591   0.652 -0.7025  2.1912  3.6238
  987MOL0     H33183   8.382  11.745   0.711 -1.9181  1.1801 -0.5296
  987MOL0     H33184   8.419  11.813   0.482 -1.1675  1.3551  3.8351
  987MOL0     H33185   8.339  11.668   0.417 -0.3124 -0.6083 -0.4792
  987MOL0     H33186   8.137  11.695   0.529  3.1200 -1.7540  3.5158
  987MOL0     H33187   8.197  11.834   0.615  1.0593 -1.7634  0.9030
  987MOL0     H33188   8.164  11.825   0.319  1.4607  2.6815 -1.9750
  987MOL0     H33189   8.050  11.907   0.437  0.9988 -0.3772  0.2507
  987MOL0     H33190   8.323  12.000   0.346 -2.9327  1.1567 -4.6705
  987MOL0     H33191   8.168  12.082   0.357  1.1916 -0.9477 -1.7162
  987MOL0     H33192   8.343  11.997   0.587  2.5223  1.2076 -0.5541
  987MOL0     H33193   8.343  12.159   0.534  0.6714 -0.6979  0.2388
  987MOL0     H33194   8.195  12.126   0.735 -0.6732 -0.4748  0.0450
  987MOL0     H33195   8.091  12.023   0.636 -0.9698 -0.2120 -1.7788
  987MOL0     H33196   7.893  12.158   0.567  0.7838  0.0632 -3.3878
  987MOL0     H33197   7.818  12.563   0.523  0.0381 -0.4973 -2.1272
  987MOL0     H33198   7.770  12.432   0.432  1.9746  0.6171 -0.8451
  987MOL0     H33199   7.762  12.444   0.740  0.3026  0.2168 -0.6929
  987MOL0     H33200   7.662  12.335   0.630 -0.0698 -0.4126 -0.6514
  987MOL0     H33201   7.587  12.590   0.540 -0.5500 -0.4142 -1.0940
  987MOL0     H33202   7.637  12.627   0.704 -0.1500 -0.8840  0.0576
  987MOL0     H33203   7.406  12.600   0.707 -0.1981 -0.0120  1.1852
  987MOL0     H33204   7.479  12.464   0.797  1.9974  1.2924  0.9072
  987MOL0     H33205   7.239  12.500   0.780  0.6824 -0.0464 -0.5574
  987MOL0     H33206   6.958  12.367   0.922  0.3103 -0.9215  0.2209
  987MOL0     H33207   7.044  12.514   0.882 -0.9798 -0.2667  1.4307
  987MOL0     H33208   6.898  12.474   0.800  0.0846 -2.2296 -1.3354
  987MOL0     H33209   6.721  12.255   0.956 -1.0580  2.9087  1.1008
  987MOL0     H33210   6.500  12.187   1.041  0.5788 -1.7149  0.2093
  987MOL0     H33211   6.382  11.944   1.004 -0.8039 -0.8110 -0.3261
  987MOL0     H33212   6.336  12.086   1.077  0.5779  0.8550 -1.5386
  987MOL0     H33213   6.105  12.018   1.087 -2.0228 -1.5560  1.1243
  987MOL0     H33214   6.111  11.938   0.936  1.2283 -0.7864 -0.7158
  987MOL0     H33215   6.263  11.823   1.180  1.5099 -3.6362 -0.9197
  987MOL0     H33216   6.249  11.739   1.027 -0.0890  0.2497  0.1604
  987MOL0     H33217   6.039  11.805   1.232  0.3245 -3.4877  2.4672
  987MOL0     H33218   6.005  11.766   1.055  0.6514 -0.0105 -1.0384
  987MOL0     H33219   6.143  11.592   1.256  2.1245  1.6760 -1.1004
  987MOL0     H33220   6.117  11.556   1.082  0.6974 -2.6638  0.9381
  987MOL0     H33221   5.863  11.579   1.136  0.1033 -0.7838  1.0062
  987MOL0     H33222   5.945  11.444   1.207 -1.3822  0.0270 -2.2562
  987MOL0     H33223   5.834  11.692   1.324  1.2244  0.1595 -0.0285
  987MOL0     H33224   5.957  11.627   1.427  0.2261  2.9830 -1.8314
  987MOL0     H33225   5.718  11.558   1.494  1.1026  0.3767  0.3789
  987MOL0     H33226   5.822  11.419   1.463  2.5631 -0.5011 -2.2371
  987MOL0     H33227   6.399  12.088   0.636  1.0770 -1.8381  1.0252
  987MOL0     H33228   6.608  12.185   0.546 -2.2869  0.8940 -0.9477
  987MOL0     H33229   7.083  12.122   0.489  0.1442 -1.5004  1.2106
  987MOL0     H33230   7.324  12.225   0.471 -0.3209 -0.8099  0.3514
  987MOL0     H33231   8.871  11.781   0.677 -1.4799  0.2660  0.2096
  987MOL0     H33232   9.088  11.665   0.703 -0.8238 -0.5848  1.9582
  987MOL0     H33233   9.386  11.461   0.778 -1.1127  0.3011  0.2323
  987MOL0     H33234   9.628  11.430   0.754  0.7091 -1.0104  0.5898
  987MOL0     H33235   9.948  11.272   0.633  0.7027  2.6828  1.8038
  987MOL0     H33236   9.845  11.385   0.708 -1.9369  0.0497 -0.8938
  987MOL0     H33237   9.736  11.225   0.847 -1.1714  2.1477 -3.0045
  987MOL0     H33238   9.906  11.191   0.843 -0.1745  0.9319  1.1960
  987MOL0     H33239   9.856  11.016   0.659 -0.9776 -1.4301 -0.8825
  987MOL0     H33240   9.684  11.027   0.705  1.0193 -1.7243 -4.3828
  987MOL0     H33241   9.756  10.864   0.856 -1.9556  1.2117 -1.0010
  987MOL0     H33242   9.774  10.989   0.961 -2.4764 -0.7276 -0.3820
  987MOL0     H33243  10.181  10.911   0.930 -0.3031  0.3393 -2.1654
  987MOL0     H33244   9.561  11.173   0.426  2.6919 -0.2848  1.5419
  987MOL0     H33245   9.319  11.206   0.437 -0.8355 -0.3536  1.1885
  988MOL0     O33246   6.446   5.020   5.876  0.0946 -0.1622  0.0903
  988MOL0     C33247   6.515   5.075   5.965 -0.4670 -1.0602  0.5895
  988MOL0     O33248   6.500   5.058   6.090  0.7663  0.8895 -0.5729
  988MOL0     C33249   6.397   4.977   6.132 -0.4707  0.1800 -0.4726
  988MOL0     C33250   6.420   4.846   6.183  0.4181  0.6460  0.1756
  988MOL0     C33251   6.321   4.760   6.235  0.7254  0.7357  0.9653
  988MOL0     C33252   6.189   4.802   6.232 -0.4188 -0.5586  0.1123
  988MOL0     O33253   6.096   4.719   6.276 -0.6620 -0.0510 -0.1301
  988MOL0     C33254   5.956   4.757   6.285 -0.1630  0.4320 -0.1530
  988MOL0     C33255   5.894   4.657   6.374  0.3424  0.0614  0.1215
  988MOL0     C33256   5.755   4.713   6.409 -0.2839  0.1855  0.1391
  988MOL0     C33257   5.687   4.648   6.533 -0.4378 -0.0216  0.2919
  988MOL0     C33258   5.578   4.752   6.585  0.7908 -0.0430 -0.1783
  988MOL0     C33259   5.461   4.694   6.666  0.2419 -0.0890 -0.4373
  988MOL0     C33260   5.352   4.811   6.690  0.9573  0.9236  0.1780
  988MOL0     C33261   5.221   4.753   6.748 -0.5907 -0.0837 -1.1194
  988MOL0     N33262   5.124   4.853   6.769 -0.1941 -0.5553 -0.1241
  988MOL0     C33263   5.010   4.873   6.696 -0.8421 -1.0085  0.3919
  988MOL0     C33264   4.959   4.984   6.743 -0.2446  0.2129 -0.3144
  988MOL0     C33265   4.844   5.062   6.686 -0.2660 -0.6703 -0.2098
  988MOL0     C33266   4.736   4.970   6.644 -0.4652 -0.5699 -0.4577
  988MOL0     C33267   4.606   5.052   6.620 -0.0041  0.4965 -0.7209
  988MOL0     C33268   4.500   4.963   6.549 -0.2855  0.3677 -0.2161
  988MOL0     O33269   4.376   5.034   6.538  0.3856  0.5662 -0.7342
  988MOL0     C33270   4.256   4.964   6.536  0.3021  0.8445  0.7884
  988MOL0     C33271   4.239   4.835   6.491  0.3684  0.2836  0.1629
  988MOL0     C33272   4.109   4.776   6.470 -0.7933 -0.3791  0.0109
  988MOL0     C33273   4.111   4.637   6.403 -0.2497 -0.6305 -0.7386
  988MOL0     C33274   3.996   4.852   6.505  0.8941  0.3872 -0.8540
  988MOL0     C33275   3.855   4.800   6.499  0.0381  0.0640  0.2081
  988MOL0     O33276   3.834   4.668   6.529  0.1557  0.5966  0.6975
  988MOL0     C33277   3.709   4.618   6.513 -0.3070  0.2196 -0.2791
  988MOL0     C33278   3.673   4.571   6.389 -0.2227 -0.2995  0.9402
  988MOL0     C33279   3.559   4.494   6.376 -0.6646 -0.5448  0.2839
  988MOL0     C33280   3.474   4.488   6.482 -0.0782 -1.4174 -0.1472
  988MOL0     O33281   3.352   4.425   6.462  0.9334 -0.3552 -0.4527
  988MOL0     C33282   3.374   4.292   6.424  0.1039  0.4543  0.0880
  988MOL0     C33283   3.255   4.198   6.419  0.0506 -0.6881  0.1670
  988MOL0     C33284   3.212   4.142   6.552  0.1331  0.0244  0.4454
  988MOL0     C33285   3.068   4.092   6.536 -1.6933  0.8509  0.5053
  988MOL0     C33286   2.994   4.058   6.668 -0.3424 -0.4853 -0.9105
  988MOL0     C33287   2.856   3.991   6.657 -0.1856  0.0600 -0.3847
  988MOL0     C33288   2.771   4.060   6.556  0.1506  0.4018  0.3484
  988MOL0     C33289   2.620   4.000   6.548  1.4069 -0.2429  0.4548
  988MOL0    Cl33290   2.578   4.078   6.388  0.2802  0.1875 -0.2309
  988MOL0     C33291   3.506   4.555   6.602  0.0016  0.1972  0.3372
  988MOL0     C33292   3.625   4.623   6.620 -0.1116  0.6255  0.4118
  988MOL0     O33293   3.771   4.879   6.456  0.3065  1.0651 -0.0424
  988MOL0     C33294   4.009   4.975   6.564  0.3531 -1.3664  0.2069
  988MOL0     C33295   4.141   5.025   6.569  1.6760  0.5138 -0.2173
  988MOL0     N33296   5.042   5.027   6.847  0.5551  0.1158  0.8643
  988MOL0     N33297   5.148   4.954   6.860  0.0135  0.2065  0.4320
  988MOL0     C33298   6.161   4.934   6.183 -0.4331  0.7286  0.3271
  988MOL0     C33299   6.262   5.022   6.142 -0.4722 -0.0991  0.7421
  988MOL0     C33300   6.612   5.181   5.920 -0.7421 -0.2224 -0.1184
  988MOL0     C33301   6.632   5.216   5.789 -0.2054  0.0585 -0.5627
  988MOL0     C33302   6.721   5.312   5.747 -0.3623  0.2637  0.3657
  988MOL0     C33303   6.801   5.371   5.839  0.1711  0.0385 -0.9272
  988MOL0     O33304   6.909   5.456   5.821  0.5454  0.6680 -0.9616
  988MOL0     C33305   6.953   5.481   5.691 -0.3018 -0.1932 -0.2268
  988MOL0     C33306   7.063   5.590   5.708 -0.0286  0.8040  0.2660
  988MOL0     C33307   7.004   5.722   5.742  0.5449  0.6414  0.8618
  988MOL0     C33308   7.108   5.833   5.751 -0.0084  0.1804 -0.3106
  988MOL0     C33309   7.037   5.961   5.757  0.2757  0.6803 -0.6607
  988MOL0     C33310   6.953   6.055   5.771 -0.2657  1.1393 -0.4596
  988MOL0     C33311   6.779   5.337   5.973  0.4441  0.6132  0.6671
  988MOL0     C33312   6.689   5.237   6.017 -0.0603  0.1461 -0.4589
  988MOL0     H33313   6.524   4.815   6.176  0.2943  0.1384  0.5718
  988MOL0     H33314   6.345   4.659   6.267  2.5342  1.1732  1.1081
  988MOL0     H33315   5.943   4.858   6.327  0.1242  0.9798 -1.3357
  988MOL0     H33316   5.913   4.753   6.185 -1.0777 -0.7148  0.2671
  988MOL0     H33317   5.884   4.561   6.322 -0.9479  1.4483 -2.4182
  988MOL0     H33318   5.954   4.640   6.464 -0.4962  2.1494  1.1462
  988MOL0     H33319   5.774   4.816   6.441 -1.6694 -0.2629  2.6197
  988MOL0     H33320   5.684   4.729   6.328  1.3506 -0.2405 -1.4339
  988MOL0     H33321   5.650   4.550   6.502 -0.1380  0.4898 -1.8461
  988MOL0     H33322   5.752   4.631   6.619  0.4798  0.8970 -0.1983
  988MOL0     H33323   5.632   4.816   6.655 -0.6500  0.1446  0.7973
  988MOL0     H33324   5.535   4.816   6.507  2.9648  2.3151  0.4190
  988MOL0     H33325   5.419   4.603   6.620  1.0796 -0.7253  0.0304
  988MOL0     H33326   5.495   4.656   6.763  2.2981  1.4697 -0.4977
  988MOL0     H33327   5.388   4.892   6.754  2.0522  0.0387  0.7147
  988MOL0     H33328   5.322   4.856   6.595 -2.0366 -0.8324  0.1514
  988MOL0     H33329   5.233   4.717   6.851 -3.5238  1.1517 -0.2161
  988MOL0     H33330   5.195   4.676   6.675  1.9787 -3.0986  0.8966
  988MOL0     H33331   4.972   4.833   6.603  0.0573  1.4434 -1.1061
  988MOL0     H33332   4.802   5.132   6.759  1.8713  1.6084 -1.0137
  988MOL0     H33333   4.875   5.125   6.602 -1.2686  0.2760  0.1164
  988MOL0     H33334   4.708   4.892   6.716  0.7460 -0.6264 -0.0174
  988MOL0     H33335   4.778   4.932   6.551 -0.7139 -1.2683 -0.2891
  988MOL0     H33336   4.629   5.126   6.543  3.9692  0.2217  0.0016
  988MOL0     H33337   4.567   5.100   6.711  1.9948 -0.5151  0.7383
  988MOL0     H33338   4.482   4.875   6.611  0.8209  1.1146  1.2109
  988MOL0     H33339   4.546   4.933   6.454  0.0831  1.6245 -0.4563
  988MOL0     H33340   4.327   4.780   6.459  0.4445  0.5579 -0.1069
  988MOL0     H33341   4.124   4.567   6.487 -0.0833  0.7352  0.4107
  988MOL0     H33342   4.015   4.615   6.355  0.7000 -1.8942 -2.1577
  988MOL0     H33343   4.187   4.617   6.327 -1.1570 -0.8549 -1.6006
  988MOL0     H33344   3.730   4.595   6.300 -1.5661  0.3020  0.2219
  988MOL0     H33345   3.523   4.462   6.279  0.9380 -0.9698 -0.1943
  988MOL0     H33346   3.412   4.292   6.322  0.4424  1.0960  0.2140
  988MOL0     H33347   3.450   4.257   6.495 -1.0287 -0.8224  0.7241
  988MOL0     H33348   3.173   4.255   6.374  1.1218  3.0056  2.4848
  988MOL0     H33349   3.277   4.113   6.353 -0.4874  0.0921 -1.0577
  988MOL0     H33350   3.210   4.220   6.629 -2.0612  0.6725 -0.1997
  988MOL0     H33351   3.280   4.060   6.578  1.8653  1.3717  0.3547
  988MOL0     H33352   3.007   4.165   6.480 -1.9104  0.2474 -0.0548
  988MOL0     H33353   3.068   4.001   6.475 -0.0323 -0.4855  2.3839
  988MOL0     H33354   2.983   4.153   6.721 -2.4389 -1.0394 -0.2718
  988MOL0     H33355   3.057   3.990   6.727 -0.5349 -0.6598 -0.9056
  988MOL0     H33356   2.866   3.884   6.635  0.4139 -0.1667  0.8773
  988MOL0     H33357   2.814   3.982   6.758 -1.5047 -3.1646 -1.0812
  988MOL0     H33358   2.813   4.051   6.455 -2.7896  0.6134 -0.9773
  988MOL0     H33359   2.769   4.165   6.587 -1.3511  0.4964 -0.0186
  988MOL0     H33360   2.566   4.039   6.635 -0.9773 -2.9649  0.3403
  988MOL0     H33361   2.621   3.892   6.533 -0.1044  0.1301 -3.0967
  988MOL0     H33362   3.436   4.545   6.684  0.4407 -0.0451  0.6875
  988MOL0     H33363   3.660   4.664   6.714 -1.1816  0.0609  1.0753
  988MOL0     H33364   3.918   5.029   6.589  0.8901 -1.2689  2.1197
  988MOL0     H33365   4.158   5.129   6.597  1.3339  0.4342  0.3120
  988MOL0     H33366   6.059   4.970   6.172 -0.7863 -0.2677  0.2613
  988MOL0     H33367   6.241   5.126   6.119 -0.0821  0.3273  2.2260
  988MOL0     H33368   6.573   5.159   5.718  0.6314 -1.6233  0.0260
  988MOL0     H33369   6.735   5.334   5.642 -0.0667 -2.0894 -0.1510
  988MOL0     H33370   6.988   5.385   5.652 -1.6583 -0.4199 -0.9899
  988MOL0     H33371   6.871   5.504   5.622  0.8514  0.7941 -1.3211
  988MOL0     H33372   7.119   5.595   5.614 -0.3486 -1.2533 -0.1013
  988MOL0     H33373   7.126   5.556   5.790 -1.1317 -3.4636 -0.3814
  988MOL0     H33374   6.944   5.708   5.833 -1.5519  0.3780 -0.4960
  988MOL0     H33375   6.933   5.755   5.666  0.3642  3.0262  1.9616
  988MOL0     H33376   7.173   5.840   5.663  0.5649  0.5294  0.1287
  988MOL0     H33377   7.181   5.815   5.831  0.8092 -0.5438 -1.2052
  988MOL0     H33378   6.886   6.131   5.807  1.7164  2.2764  1.1019
  988MOL0     H33379   6.852   5.384   6.039 -0.6401  0.3662  2.0849
  988MOL0     H33380   6.684   5.199   6.119  1.0376  0.1925 -0.3797
  989MOL0     O33381   2.558   5.402   7.635  0.8511  0.5604 -0.7244
  989MOL0     C33382   2.651   5.426   7.712 -0.1261 -0.5765 -0.1266
  989MOL0     O33383   2.650   5.528   7.804  0.6957  0.1712  0.3246
  989MOL0     C33384   2.533   5.591   7.826 -0.1016 -0.5881  0.0596
  989MOL0     C33385   2.486   5.700   7.748 -0.5901  0.4781  0.7973
  989MOL0     C33386   2.366   5.765   7.777  0.0893 -0.3854 -0.3134
  989MOL0     C33387   2.296   5.729   7.894 -0.1825 -0.6043  0.2957
  989MOL0     O33388   2.182   5.807   7.919  0.0964  0.2171  0.1613
  989MOL0     C33389   2.074   5.763   8.005  0.0232  0.3538 -0.1711
  989MOL0     C33390   1.939   5.837   7.975 -0.4952  0.3282 -0.0058
  989MOL0     C33391   1.833   5.777   8.070 -0.3028  0.1239  0.5375
  989MOL0     C33392   1.720   5.876   8.105  0.5689  0.0674 -0.2710
  989MOL0     C33393   1.600   5.788   8.166  0.3054  0.7203 -0.1138
  989MOL0     C33394   1.497   5.883   8.220  0.2609  0.0075  0.3474
  989MOL0     C33395   1.546   5.944   8.359 -0.8752  0.4072 -0.1600
  989MOL0     C33396   1.451   6.056   8.402 -0.5157  0.5462 -1.0556
  989MOL0     N33397   1.314   5.995   8.433 -0.4051 -0.2153 -0.6222
  989MOL0     C33398   1.288   5.933   8.559 -0.8019 -0.1243  0.1166
  989MOL0     C33399   1.156   5.905   8.546 -0.0796  0.3523 -0.0642
  989MOL0     C33400   1.084   5.837   8.662  0.2650  0.0666 -0.9328
  989MOL0     C33401   0.942   5.890   8.668 -0.1977  0.3929  0.2161
  989MOL0     C33402   0.873   5.838   8.802 -0.2227  0.2105  0.1108
  989MOL0     C33403   0.719   5.852   8.801 -0.0326  0.0833  0.7592
  989MOL0     O33404   0.673   5.749   8.717  0.1295 -0.6866  0.6883
  989MOL0     C33405   0.542   5.749   8.667 -0.1273  0.2685  0.9890
  989MOL0     C33406   0.446   5.830   8.721  0.5668 -0.2396  0.1194
  989MOL0     C33407   0.309   5.806   8.682  0.0471 -1.7359  0.2335
  989MOL0     C33408   0.202   5.898   8.734 -0.4620 -0.4838 -0.2494
  989MOL0     C33409   0.271   5.702   8.587 -0.2857 -0.0760  0.2009
  989MOL0     C33410   0.131   5.666   8.549 -0.3117 -0.4893  0.1863
  989MOL0     O33411   0.118   5.596   8.428 -0.2691 -0.1814 -0.6452
  989MOL0     C33412  -0.006   5.562   8.369 -0.8619  0.3254 -0.0884
  989MOL0     C33413  -0.087   5.472   8.432 -0.5548  0.5629 -0.6544
  989MOL0     C33414  -0.211   5.439   8.376  0.1796  0.1059 -0.2931
  989MOL0     C33415  -0.253   5.502   8.255  0.7116 -0.5908 -0.4820
  989MOL0     O33416  -0.380   5.487   8.196 -0.2266 -0.4335 -0.3634
  989MOL0     C33417  -0.430   5.353   8.207  0.5198 -0.1320  0.7085
  989MOL0     C33418  -0.556   5.340   8.116 -0.3055 -0.7252 -0.6648
  989MOL0     C33419  -0.607   5.199   8.126 -0.4946 -0.4604  0.1688
  989MOL0     C33420  -0.729   5.171   8.021 -0.3437 -0.2049 -0.5139
  989MOL0     C33421  -0.776   5.024   8.021 -0.0073  0.1221  0.2255
  989MOL0     C33422  -0.912   5.008   7.948 -0.0392 -0.8588  0.8772
  989MOL0     C33423  -0.979   4.874   7.969  0.5918 -0.1064 -0.1232
  989MOL0     C33424  -1.024   4.833   8.114 -0.0755  0.6536  0.3399
  989MOL0    Cl33425  -1.089   4.667   8.113  0.0337 -0.1309 -0.5240
  989MOL0     C33426  -0.183   5.606   8.201  0.0482  0.3649 -0.2861
  989MOL0     C33427  -0.057   5.623   8.259 -0.0899 -0.6125  0.5096
  989MOL0     O33428   0.035   5.692   8.619 -0.8010 -0.2903 -0.1239
  989MOL0     C33429   0.371   5.624   8.538 -0.0920 -0.3330 -0.0993
  989MOL0     C33430   0.507   5.654   8.568  0.3561 -0.5974 -0.4324
  989MOL0     N33431   1.127   5.940   8.416 -0.0546 -0.3101 -0.4602
  989MOL0     N33432   1.211   6.014   8.354 -0.6031 -0.5871  0.4380
  989MOL0     C33433   2.338   5.616   7.964 -0.1486  0.3363 -0.1418
  989MOL0     C33434   2.454   5.547   7.932  0.2951 -0.3500  0.2507
  989MOL0     C33435   2.773   5.338   7.694  0.8613 -2.0946  0.2664
  989MOL0     C33436   2.773   5.222   7.619 -0.3263  0.0005 -0.2899
  989MOL0     C33437   2.890   5.142   7.631  0.2939  0.4674  0.6157
  989MOL0     C33438   3.012   5.191   7.697  0.0994  0.9624  0.9878
  989MOL0     O33439   3.116   5.099   7.681  0.2664 -0.4800 -0.0645
  989MOL0     C33440   3.234   5.140   7.752  0.2103  0.3453 -0.4752
  989MOL0     C33441   3.335   5.024   7.750  0.6230 -0.2103  0.5349
  989MOL0     C33442   3.433   5.048   7.630 -0.2458 -0.3583  0.4258
  989MOL0     C33443   3.555   4.947   7.632 -0.6946 -0.0100  0.5395
  989MOL0     C33444   3.657   4.983   7.737  0.3992  0.4937  0.2275
  989MOL0     C33445   3.726   5.008   7.825 -0.0371  0.0801 -0.5105
  989MOL0     C33446   3.006   5.308   7.773 -0.9399  0.0373  0.0737
  989MOL0     C33447   2.883   5.374   7.774 -0.8402 -0.0529 -0.0784
  989MOL0     H33448   2.542   5.719   7.656 -2.5446  1.0914 -0.3284
  989MOL0     H33449   2.346   5.849   7.711 -0.1951 -1.7950 -2.0870
  989MOL0     H33450   2.061   5.654   8.005  0.2463  0.3203  0.5556
  989MOL0     H33451   2.101   5.796   8.106 -1.3097 -0.5084  0.5005
  989MOL0     H33452   1.948   5.946   7.987 -2.2324  0.7623 -2.0557
  989MOL0     H33453   1.908   5.822   7.871 -3.1512  2.1889  0.4117
  989MOL0     H33454   1.793   5.696   8.009  1.7677  1.3605 -2.7388
  989MOL0     H33455   1.877   5.745   8.165  3.0886  1.8918 -0.2412
  989MOL0     H33456   1.755   5.959   8.167  2.7929 -0.3273 -0.9083
  989MOL0     H33457   1.680   5.920   8.013 -0.2935  0.8474  0.4656
  989MOL0     H33458   1.558   5.713   8.098 -0.6942  0.1115  1.1103
  989MOL0     H33459   1.632   5.732   8.255 -1.6083  0.9889  0.7867
  989MOL0     H33460   1.488   5.959   8.142  4.5576 -2.1638 -2.6939
  989MOL0     H33461   1.401   5.833   8.237 -0.6521  1.6991  0.3370
  989MOL0     H33462   1.560   5.867   8.436  0.6851  2.6026  1.8829
  989MOL0     H33463   1.646   5.985   8.342 -0.3694 -1.4623 -2.2049
  989MOL0     H33464   1.447   6.141   8.333 -2.6050  0.4290 -1.1413
  989MOL0     H33465   1.485   6.099   8.497 -2.1087  0.3849 -0.3778
  989MOL0     H33466   1.350   5.912   8.645 -0.4104  1.1243  0.1504
  989MOL0     H33467   1.088   5.728   8.660 -2.3233 -0.0884 -2.1089
  989MOL0     H33468   1.138   5.863   8.753  1.1229 -1.2981 -1.0306
  989MOL0     H33469   0.888   5.855   8.579 -0.4691 -2.8896  1.5559
  989MOL0     H33470   0.949   5.999   8.679 -0.7703  0.8677 -3.0877
  989MOL0     H33471   0.902   5.907   8.882  1.5985 -1.7385  1.2179
  989MOL0     H33472   0.901   5.735   8.826  3.4513  1.2677  0.9440
  989MOL0     H33473   0.696   5.947   8.752 -0.6632 -1.1651 -1.4894
  989MOL0     H33474   0.685   5.844   8.904  2.0610  0.3419  1.5133
  989MOL0     H33475   0.468   5.896   8.805  1.6567  0.2353 -0.5177
  989MOL0     H33476   0.241   5.988   8.782 -1.8164  1.2836 -2.2672
  989MOL0     H33477   0.124   5.925   8.662 -1.3136 -2.4815 -0.1631
  989MOL0     H33478   0.149   5.836   8.807  1.7591 -3.1211 -0.6899
  989MOL0     H33479  -0.048   5.435   8.526  1.1919 -5.8123 -3.3390
  989MOL0     H33480  -0.276   5.373   8.432  2.0315 -0.1574  1.6413
  989MOL0     H33481  -0.361   5.275   8.175 -2.5430 -2.2674 -1.2548
  989MOL0     H33482  -0.465   5.328   8.307 -0.1418 -2.1004  0.0395
  989MOL0     H33483  -0.640   5.405   8.143 -1.0173 -1.5663 -0.8016
  989MOL0     H33484  -0.520   5.368   8.016  2.4599  2.1979  0.9708
  989MOL0     H33485  -0.642   5.172   8.227 -2.4188  0.7498 -0.1224
  989MOL0     H33486  -0.537   5.125   8.085 -1.6480 -0.2464 -2.3362
  989MOL0     H33487  -0.810   5.239   8.050 -0.3361 -2.1646  5.5230
  989MOL0     H33488  -0.685   5.197   7.925 -2.1166  0.0775 -1.2918
  989MOL0     H33489  -0.791   4.981   8.121 -2.9574 -1.0189 -0.5971
  989MOL0     H33490  -0.702   4.964   7.968  0.5396  0.4573  0.6025
  989MOL0     H33491  -0.989   5.079   7.980 -0.9843 -1.2400 -0.4617
  989MOL0     H33492  -0.897   5.035   7.843 -0.0942 -3.9710 -0.0114
  989MOL0     H33493  -0.906   4.800   7.935  1.7667  0.1575  1.6867
  989MOL0     H33494  -1.065   4.858   7.903  0.2201 -4.1328  1.0397
  989MOL0     H33495  -1.109   4.898   8.133 -0.9909 -0.2579 -0.5255
  989MOL0     H33496  -0.957   4.843   8.200 -2.1072  0.4212  2.0281
  989MOL0     H33497  -0.214   5.667   8.117 -0.1205 -1.2352 -1.4427
  989MOL0     H33498   0.015   5.689   8.214  3.3082 -3.6943  0.9836
  989MOL0     H33499   0.370   5.543   8.465  3.4632 -1.0699  0.4717
  989MOL0     H33500   0.581   5.593   8.517  0.3361 -2.5893  1.7346
  989MOL0     H33501   2.282   5.575   8.048  1.3453 -2.2528 -0.3118
  989MOL0     H33502   2.492   5.458   7.980 -1.6794 -1.3244  0.1017
  989MOL0     H33503   2.684   5.178   7.575 -0.0061 -1.2305  0.2702
  989MOL0     H33504   2.886   5.055   7.567  0.6768  2.0738 -1.6989
  989MOL0     H33505   3.287   5.228   7.714  0.1994  0.5696  0.0251
  989MOL0     H33506   3.207   5.150   7.858 -2.3323  2.0325 -1.2117
  989MOL0     H33507   3.284   4.929   7.736 -0.8624  0.5241  0.7262
  989MOL0     H33508   3.394   5.016   7.842  1.0041 -1.9222  0.1619
  989MOL0     H33509   3.478   5.147   7.638  2.8025 -1.4126 -1.5166
  989MOL0     H33510   3.382   5.040   7.533  1.4535  1.4058 -0.7142
  989MOL0     H33511   3.612   4.939   7.539 -1.0264  0.1836  0.3167
  989MOL0     H33512   3.517   4.846   7.648  0.2347 -0.6297 -0.9735
  989MOL0     H33513   3.795   5.031   7.904  1.8697 -1.9862 -1.4647
  989MOL0     H33514   3.095   5.343   7.825 -0.9791  0.2645 -0.0116
  989MOL0     H33515   2.873   5.452   7.848  1.2651 -0.0857  0.3028
  990MOL0     O33516   0.475   4.474  10.811 -0.1798 -0.8181 -0.7836
  990MOL0     C33517   0.545   4.413  10.730  0.8327  0.6327  0.2900
  990MOL0     O33518   0.486   4.344  10.623  0.2056  0.1856 -0.5997
  990MOL0     C33519   0.354   4.363  10.611  0.2727 -0.0630 -0.9293
  990MOL0     C33520   0.276   4.265  10.667  1.2509  0.6325 -0.2382
  990MOL0     C33521   0.137   4.282  10.671  0.3589 -0.2157  0.3834
  990MOL0     C33522   0.070   4.397  10.627  0.5157 -0.4756 -0.1230
  990MOL0     O33523  -0.062   4.399  10.638  0.1933  0.5160 -0.3614
  990MOL0     C33524  -0.139   4.512  10.599  0.0225 -0.0381 -0.8958
  990MOL0     C33525  -0.289   4.498  10.618  0.0181 -0.2771  0.3475
  990MOL0     C33526  -0.333   4.462  10.761 -0.4154  0.0615  0.5044
  990MOL0     C33527  -0.478   4.434  10.784 -0.1634  0.5541  0.3807
  990MOL0     C33528  -0.512   4.425  10.937  0.2178  0.2290  0.0673
  990MOL0     C33529  -0.501   4.558  11.020 -0.0277  0.6568  0.4200
  990MOL0     C33530  -0.568   4.566  11.157  0.1019 -0.3578 -1.0945
  990MOL0     C33531  -0.541   4.693  11.234 -0.2772 -0.0096  0.3032
  990MOL0     N33532  -0.561   4.685  11.384  0.8298 -0.0968 -0.0325
  990MOL0     C33533  -0.675   4.625  11.441  0.7344 -0.0739  0.3248
  990MOL0     C33534  -0.659   4.649  11.577 -0.1239 -0.1529 -0.3135
  990MOL0     C33535  -0.740   4.607  11.693  0.3287  0.6528  0.9251
  990MOL0     C33536  -0.842   4.715  11.738  0.3879 -0.0560 -0.0056
  990MOL0     C33537  -0.940   4.668  11.849 -0.4341  0.0080 -0.3505
  990MOL0     C33538  -1.072   4.617  11.808 -0.0677  0.3807  0.4649
  990MOL0     O33539  -1.140   4.718  11.731  0.0724  0.4699  0.1195
  990MOL0     C33540  -1.272   4.698  11.725 -0.2173  0.6733 -0.2841
  990MOL0     C33541  -1.348   4.814  11.725 -0.3247  0.5163 -1.0620
  990MOL0     C33542  -1.488   4.810  11.699 -0.5798  0.8943  0.0504
  990MOL0     C33543  -1.553   4.953  11.698  0.2268  0.2448 -0.8760
  990MOL0     C33544  -1.546   4.689  11.661 -0.3485 -0.3209  0.2289
  990MOL0     C33545  -1.683   4.679  11.616  0.1844  0.5740  0.4875
  990MOL0     O33546  -1.738   4.782  11.549  0.4163  0.4784 -0.4188
  990MOL0     C33547  -1.874   4.796  11.519  0.4254  0.1020  0.3794
  990MOL0     C33548  -1.952   4.700  11.451 -0.1975 -0.1646  0.3637
  990MOL0     C33549  -2.083   4.723  11.432 -0.4873 -0.8950  0.5846
  990MOL0     C33550  -2.144   4.840  11.473 -0.0896  0.4835  0.1520
  990MOL0     O33551  -2.277   4.853  11.447 -0.6087  0.2536  0.4568
  990MOL0     C33552  -2.362   4.822  11.555  0.3509 -0.4744  0.1138
  990MOL0     C33553  -2.512   4.831  11.508 -0.5241  0.6023 -0.5374
  990MOL0     C33554  -2.540   4.757  11.382 -0.6476  0.3944  0.4800
  990MOL0     C33555  -2.645   4.813  11.286  0.0634  0.4631  0.3826
  990MOL0     C33556  -2.669   4.739  11.152 -0.0960  0.2752  0.2998
  990MOL0     C33557  -2.792   4.792  11.067 -0.3092  0.0089  0.0385
  990MOL0     C33558  -2.785   4.937  11.037  0.0712  1.4184 -0.0256
  990MOL0     C33559  -2.862   4.955  10.899  0.6624  0.3757 -0.1306
  990MOL0    Cl33560  -2.858   5.130  10.866  0.0437 -0.3763  0.1552
  990MOL0     C33561  -2.070   4.944  11.523 -0.7315 -0.1316 -0.0768
  990MOL0     C33562  -1.936   4.916  11.560 -0.7523 -0.2763  0.5373
  990MOL0     O33563  -1.743   4.575  11.641 -0.0137 -0.6079  0.6547
  990MOL0     C33564  -1.467   4.577  11.647  0.3486 -0.4873 -0.6971
  990MOL0     C33565  -1.330   4.581  11.688  0.6293  0.0284 -0.6081
  990MOL0     N33566  -0.535   4.720  11.596 -0.3609  0.5057 -0.2412
  990MOL0     N33567  -0.480   4.747  11.480 -0.4103  0.1761  0.1736
  990MOL0     C33568   0.148   4.491  10.570 -0.3298  0.6712  0.1359
  990MOL0     C33569   0.286   4.475  10.554 -0.6596  0.9911 -0.5282
  990MOL0     C33570   0.687   4.414  10.724 -0.3531  0.1596 -0.7404
  990MOL0     C33571   0.759   4.480  10.823 -0.1499 -0.3333  0.1214
  990MOL0     C33572   0.899   4.493  10.811  0.3706 -0.0283  0.3551
  990MOL0     C33573   0.973   4.428  10.711  0.1119  0.1829 -0.5547
  990MOL0     O33574   1.113   4.431  10.710  1.1144  0.0668 -0.2205
  990MOL0     C33575   1.196   4.516  10.786  1.3943 -0.0079  0.1536
  990MOL0     C33576   1.323   4.553  10.727 -0.0465  0.1006  0.2915
  990MOL0     C33577   1.406   4.424  10.690 -0.5532  0.2191 -0.3840
  990MOL0     C33578   1.454   4.329  10.800  0.1885 -0.2931  0.1813
  990MOL0     C33579   1.542   4.383  10.905  0.0981 -0.2038 -0.6564
  990MOL0     C33580   1.625   4.434  10.977 -0.0070  0.7683  0.4275
  990MOL0     C33581   0.898   4.351  10.616 -0.6695 -0.5084  0.3251
  990MOL0     C33582   0.757   4.353  10.614 -0.2210  0.0992 -0.1236
  990MOL0     H33583   0.316   4.170  10.701 -1.2693  0.4683  2.7307
  990MOL0     H33584   0.074   4.207  10.717  1.0502  0.1236  1.9536
  990MOL0     H33585  -0.100   4.595  10.657  2.6265 -2.4522  1.0456
  990MOL0     H33586  -0.120   4.529  10.492 -0.6394 -3.0129 -1.5931
  990MOL0     H33587  -0.324   4.597  10.585  0.1989  0.0523  1.1241
  990MOL0     H33588  -0.331   4.423  10.550  1.5099 -0.6783 -0.1690
  990MOL0     H33589  -0.272   4.373  10.780  0.6420 -0.3294 -3.6656
  990MOL0     H33590  -0.295   4.546  10.820  1.2485  0.9160 -1.6292
  990MOL0     H33591  -0.527   4.518  10.733  0.1205  2.0712  2.4779
  990MOL0     H33592  -0.496   4.341  10.730 -0.9035  2.0139 -2.0767
  990MOL0     H33593  -0.615   4.390  10.950 -0.2536  1.4121 -0.2988
  990MOL0     H33594  -0.446   4.347  10.975 -1.2309 -0.4725  1.2130
  990MOL0     H33595  -0.394   4.578  11.028  0.5978 -1.2846 -2.0921
  990MOL0     H33596  -0.557   4.628  10.957 -0.6853  0.2170  0.5043
  990MOL0     H33597  -0.676   4.556  11.144  0.0151 -2.1425  0.5618
  990MOL0     H33598  -0.531   4.479  11.211  0.9866 -0.0882 -1.2480
  990MOL0     H33599  -0.597   4.778  11.194 -4.5257 -2.9041 -0.5350
  990MOL0     H33600  -0.433   4.713  11.225  0.0210 -1.0296  1.3708
  990MOL0     H33601  -0.756   4.570  11.395  2.1893 -4.9446  2.9275
  990MOL0     H33602  -0.793   4.512  11.676  0.7301  0.4732  0.6634
  990MOL0     H33603  -0.664   4.582  11.768  0.4163  0.9736  0.9425
  990MOL0     H33604  -0.889   4.754  11.647  0.6926 -2.1515 -1.1278
  990MOL0     H33605  -0.791   4.801  11.784  0.5226  0.5359 -1.2163
  990MOL0     H33606  -0.968   4.757  11.906  1.3471 -0.0156  0.6171
  990MOL0     H33607  -0.892   4.588  11.905 -1.3624 -0.0869  0.3227
  990MOL0     H33608  -1.123   4.576  11.896  0.3071  1.4551  1.2124
  990MOL0     H33609  -1.050   4.533  11.741  0.5626  2.7996 -2.5713
  990MOL0     H33610  -1.295   4.907  11.745 -1.1310  0.8988 -0.6495
  990MOL0     H33611  -1.651   4.963  11.748  0.1010 -0.3467 -0.9925
  990MOL0     H33612  -1.487   5.022  11.751 -0.2476  0.4123 -0.4909
  990MOL0     H33613  -1.563   4.988  11.595  2.3515 -0.9680 -1.5493
  990MOL0     H33614  -1.914   4.599  11.445 -1.2491 -0.4771 -2.4186
  990MOL0     H33615  -2.148   4.646  11.393 -2.5764  1.1264 -0.1562
  990MOL0     H33616  -2.335   4.723  11.593  2.2255  0.3372  1.0539
  990MOL0     H33617  -2.348   4.897  11.635  3.0245  0.1371 -0.8207
  990MOL0     H33618  -2.572   4.792  11.591 -0.2110  1.7773  0.2648
  990MOL0     H33619  -2.550   4.933  11.498 -0.0530  0.9369  0.8323
  990MOL0     H33620  -2.565   4.654  11.411  2.3256 -0.3155  0.8284
  990MOL0     H33621  -2.442   4.740  11.337  0.1826 -4.3587  3.3768
  990MOL0     H33622  -2.744   4.813  11.333 -0.5663 -3.6692 -0.5300
  990MOL0     H33623  -2.606   4.912  11.260  1.1691 -0.4221 -1.5395
  990MOL0     H33624  -2.690   4.635  11.178 -3.5401  0.8700  0.3052
  990MOL0     H33625  -2.576   4.743  11.095 -0.5877  1.1312 -0.4726
  990MOL0     H33626  -2.802   4.728  10.979 -0.5177  0.8635 -0.5710
  990MOL0     H33627  -2.883   4.777  11.126 -1.1325  2.3202 -0.5535
  990MOL0     H33628  -2.680   4.957  11.014  0.2837 -1.8069 -2.3956
  990MOL0     H33629  -2.824   4.999  11.119  0.2266 -1.0758  2.0615
  990MOL0     H33630  -2.967   4.923  10.909  0.2641  1.7234  0.1830
  990MOL0     H33631  -2.820   4.898  10.817 -3.0374 -0.6378 -1.5523
  990MOL0     H33632  -2.120   5.035  11.555 -0.7244 -0.4701  0.9266
  990MOL0     H33633  -1.872   4.997  11.595  1.4636 -1.2741 -0.9377
  990MOL0     H33634  -1.498   4.485  11.598  1.3024 -1.4855  0.5010
  990MOL0     H33635  -1.274   4.488  11.688  2.8493  1.1465  3.0988
  990MOL0     H33636   0.101   4.578  10.526  1.8305  1.5850 -0.4503
  990MOL0     H33637   0.328   4.561  10.502 -1.2886  1.3141 -0.5246
  990MOL0     H33638   0.718   4.521  10.915 -0.3797 -5.0191  2.4004
  990MOL0     H33639   0.942   4.569  10.874 -0.1925  0.9145 -0.3724
  990MOL0     H33640   1.144   4.611  10.803 -1.5197 -1.6924  1.4411
  990MOL0     H33641   1.213   4.475  10.886  1.7653  0.4355  0.2749
  990MOL0     H33642   1.378   4.611  10.802 -3.7353  0.8333  2.6956
  990MOL0     H33643   1.301   4.612  10.638 -0.5810  0.8199  0.8860
  990MOL0     H33644   1.496   4.460  10.638  0.3000 -0.3291  0.6930
  990MOL0     H33645   1.338   4.363  10.631  0.8308 -3.4591  1.5170
  990MOL0     H33646   1.495   4.235  10.760  0.6135 -1.0336  2.2252
  990MOL0     H33647   1.363   4.288  10.844  0.5075  0.7072  1.8545
  990MOL0     H33648   1.700   4.460  11.048 -0.6667  0.9281  1.0759
  990MOL0     H33649   0.956   4.295  10.544  0.4332 -0.8825  1.4611
  990MOL0     H33650   0.705   4.314  10.527 -0.1772 -1.4474  0.4993
  991MOL0     O33651   1.292   4.035   1.484 -0.0025  0.3191 -0.2127
  991MOL0     C33652   1.307   4.058   1.605 -0.0095 -0.1870 -0.3433
  991MOL0     O33653   1.203   4.094   1.694  0.3770  0.2829 -0.3842
  991MOL0     C33654   1.069   4.115   1.658  0.4599  0.6160 -0.2525
  991MOL0     C33655   1.021   4.059   1.541  0.2971 -0.1536 -0.4944
  991MOL0     C33656   0.889   4.074   1.507  0.7650  0.1371  0.5165
  991MOL0     C33657   0.794   4.141   1.583  0.3063 -0.6837 -0.2459
  991MOL0     O33658   0.663   4.160   1.551  0.8689 -0.1357  0.7294
  991MOL0     C33659   0.615   4.119   1.422  0.2383  0.0242  0.5213
  991MOL0     C33660   0.453   4.138   1.404  0.1253  0.1452 -0.0019
  991MOL0     C33661   0.365   4.048   1.496  0.5487 -0.6926 -0.3765
  991MOL0     C33662   0.285   3.942   1.418  0.2602 -0.0653 -0.6863
  991MOL0     C33663   0.172   3.876   1.509  0.7773 -1.1779 -0.4593
  991MOL0     C33664   0.074   3.767   1.448 -0.2073 -0.0544  0.9099
  991MOL0     C33665   0.150   3.637   1.421  0.3229  0.0746  0.4289
  991MOL0     C33666   0.058   3.511   1.398  0.1314 -0.3930  0.3517
  991MOL0     N33667  -0.018   3.515   1.270 -0.9409  0.2820  0.0957
  991MOL0     C33668  -0.149   3.504   1.254  0.5337 -0.7794  0.5089
  991MOL0     C33669  -0.175   3.484   1.120  0.2811  1.1652  0.2524
  991MOL0     C33670  -0.311   3.458   1.063  0.3720  0.2889  0.7867
  991MOL0     C33671  -0.401   3.582   1.047  0.0700 -0.0958 -0.4965
  991MOL0     C33672  -0.501   3.604   1.160 -0.7511 -0.1455 -0.6037
  991MOL0     C33673  -0.542   3.756   1.183 -0.6285  0.3255 -0.6511
  991MOL0     O33674  -0.604   3.810   1.061 -0.2245 -0.0036  0.2683
  991MOL0     C33675  -0.627   3.945   1.052  0.8722 -0.1573 -0.1810
  991MOL0     C33676  -0.537   4.043   1.079 -1.2766 -0.8982  0.2208
  991MOL0     C33677  -0.585   4.175   1.071  0.3518  0.4612  0.4033
  991MOL0     C33678  -0.483   4.284   1.090  0.3919  0.0819 -0.0935
  991MOL0     C33679  -0.720   4.209   1.023 -0.4012 -0.4246 -0.5934
  991MOL0     C33680  -0.769   4.345   0.993  0.1483 -0.1671 -0.9246
  991MOL0     O33681  -0.893   4.352   0.946 -0.0957 -0.5512  0.7363
  991MOL0     C33682  -0.963   4.468   0.912  0.1438 -0.1010 -1.4650
  991MOL0     C33683  -0.912   4.599   0.910 -1.0722  0.2928 -0.0461
  991MOL0     C33684  -0.994   4.703   0.868  0.1777  0.1554  0.2872
  991MOL0     C33685  -1.128   4.687   0.829  0.5993 -0.2062  0.5459
  991MOL0     O33686  -1.215   4.790   0.788 -0.4408  0.3802 -0.2229
  991MOL0     C33687  -1.180   4.921   0.834  0.4346  0.7388  0.1130
  991MOL0     C33688  -1.279   5.026   0.781  0.3199 -0.5989  0.5827
  991MOL0     C33689  -1.284   5.032   0.625 -0.6315 -0.5264  1.6218
  991MOL0     C33690  -1.153   5.065   0.555 -0.4636  0.1673 -0.3690
  991MOL0     C33691  -1.083   5.176   0.635 -0.3322  0.1318  0.1841
  991MOL0     C33692  -0.968   5.235   0.541 -0.3321 -0.5909  0.5833
  991MOL0     C33693  -0.860   5.138   0.495 -0.0390  0.1132  0.4418
  991MOL0     C33694  -0.731   5.183   0.418  0.9581 -0.5087 -0.1690
  991MOL0    Cl33695  -0.634   5.039   0.414 -0.1338 -0.0293 -0.0347
  991MOL0     C33696  -1.181   4.561   0.838  0.0191 -0.0676  0.0795
  991MOL0     C33697  -1.101   4.447   0.883  0.2696 -0.4698  0.0206
  991MOL0     O33698  -0.695   4.446   1.010 -0.0295 -0.2148  0.3359
  991MOL0     C33699  -0.811   4.103   1.006 -0.1323 -1.3256  0.3243
  991MOL0     C33700  -0.760   3.972   1.005 -0.3559 -0.1054  0.1462
  991MOL0     N33701  -0.051   3.474   1.061 -0.4110  0.9121  0.5610
  991MOL0     N33702   0.042   3.502   1.145  0.7866 -0.9635 -0.1549
  991MOL0     C33703   0.841   4.192   1.703 -0.5698  0.0296  0.2636
  991MOL0     C33704   0.980   4.186   1.746 -0.0507 -0.6087 -0.4160
  991MOL0     C33705   1.435   4.063   1.668 -0.5698 -0.6584  0.1635
  991MOL0     C33706   1.551   4.044   1.581 -0.3745 -0.1489  0.6687
  991MOL0     C33707   1.677   4.054   1.644 -0.0080  0.9930  0.2842
  991MOL0     C33708   1.697   4.091   1.775  0.1509 -0.4123  0.2350
  991MOL0     O33709   1.816   4.087   1.838 -0.2221  0.0393  0.2389
  991MOL0     C33710   1.934   4.096   1.764 -0.4675  0.1378  0.3002
  991MOL0     C33711   2.058   4.080   1.862  0.0130 -0.8239  0.0890
  991MOL0     C33712   2.088   3.934   1.895  0.3964  0.8654 -0.5423
  991MOL0     C33713   2.083   3.909   2.050 -0.3873 -0.0054 -0.3137
  991MOL0     C33714   1.944   3.919   2.103 -0.4891 -0.0559 -0.1845
  991MOL0     C33715   1.845   3.930   2.159  0.4387  0.2306 -0.3805
  991MOL0     C33716   1.580   4.115   1.852  0.9196  0.5643 -0.6381
  991MOL0     C33717   1.449   4.090   1.806 -0.5235  0.4097  0.3191
  991MOL0     H33718   1.085   3.995   1.481  0.5376 -1.5694  1.2129
  991MOL0     H33719   0.866   4.024   1.413  3.1820  1.1198 -0.6940
  991MOL0     H33720   0.665   4.181   1.347  0.0810  2.4040  2.2748
  991MOL0     H33721   0.636   4.013   1.404 -1.1164  0.1359 -2.1914
  991MOL0     H33722   0.426   4.244   1.403 -1.5437 -0.2564 -0.9049
  991MOL0     H33723   0.424   4.119   1.300  0.6361 -1.7881  0.1734
  991MOL0     H33724   0.428   3.987   1.562 -0.1185  0.9121  1.8687
  991MOL0     H33725   0.300   4.111   1.558 -0.7867 -2.0042 -0.4109
  991MOL0     H33726   0.224   3.980   1.335  0.0371 -0.3795 -0.6703
  991MOL0     H33727   0.347   3.868   1.367 -1.9154 -2.6658  0.1802
  991MOL0     H33728   0.206   3.825   1.600 -1.7365 -1.9879  0.1120
  991MOL0     H33729   0.115   3.963   1.541  0.4415 -1.9089  1.0589
  991MOL0     H33730  -0.005   3.753   1.522  0.3051 -2.9297  1.0086
  991MOL0     H33731   0.036   3.803   1.352  2.2101 -0.0669 -0.1317
  991MOL0     H33732   0.216   3.650   1.335  1.7573  2.4392  1.7792
  991MOL0     H33733   0.210   3.612   1.509 -1.0654  2.2864  2.1185
  991MOL0     H33734  -0.016   3.515   1.479 -0.1210  2.7053  0.0952
  991MOL0     H33735   0.106   3.413   1.393 -1.0268 -1.0306  1.2484
  991MOL0     H33736  -0.228   3.494   1.327  0.7805 -4.5743  0.4482
  991MOL0     H33737  -0.294   3.400   0.972  0.0127 -0.1686  1.0051
  991MOL0     H33738  -0.358   3.385   1.130  0.3009 -0.6791 -0.2960
  991MOL0     H33739  -0.460   3.567   0.956  1.3628  0.1547 -1.4146
  991MOL0     H33740  -0.333   3.665   1.022  0.5589 -0.0453  0.9506
  991MOL0     H33741  -0.459   3.573   1.256 -1.4407 -0.8119 -0.5102
  991MOL0     H33742  -0.590   3.544   1.138 -1.9914  0.6108  1.9209
  991MOL0     H33743  -0.455   3.816   1.211 -0.5439 -0.9340  2.1391
  991MOL0     H33744  -0.603   3.760   1.274  0.7503 -2.9298  0.5999
  991MOL0     H33745  -0.435   4.023   1.109 -0.7031  2.6720  1.1142
  991MOL0     H33746  -0.532   4.352   1.160 -0.5521 -1.3173  0.6400
  991MOL0     H33747  -0.401   4.232   1.141  0.1009  0.3426  0.6548
  991MOL0     H33748  -0.447   4.323   0.994 -2.9824 -1.0279 -1.9523
  991MOL0     H33749  -0.813   4.625   0.945 -0.4972 -1.6762 -0.0435
  991MOL0     H33750  -0.952   4.803   0.875  0.1077  0.2392 -0.3642
  991MOL0     H33751  -1.192   4.924   0.943 -1.3408 -1.7629  0.0693
  991MOL0     H33752  -1.082   4.959   0.803  1.2054  0.9624  2.6110
  991MOL0     H33753  -1.384   5.009   0.809 -0.2349 -0.3268 -1.2193
  991MOL0     H33754  -1.249   5.124   0.818 -1.2340 -0.3302  1.2091
  991MOL0     H33755  -1.354   5.110   0.592  1.1454  0.1866 -0.7721
  991MOL0     H33756  -1.327   4.938   0.591 -0.6758  0.6057 -1.8939
  991MOL0     H33757  -1.091   4.975   0.562 -3.9522 -2.4651 -0.5405
  991MOL0     H33758  -1.167   5.079   0.448 -1.7269  1.3089 -0.0842
  991MOL0     H33759  -1.035   5.135   0.725  4.6325 -1.8658 -2.9225
  991MOL0     H33760  -1.154   5.253   0.665  3.1086  2.6522  2.7980
  991MOL0     H33761  -1.012   5.292   0.460  0.1610  1.4274  1.6703
  991MOL0     H33762  -0.920   5.306   0.609  4.4819  1.6387 -4.3582
  991MOL0     H33763  -0.911   5.076   0.420  0.4111 -1.0774  1.0991
  991MOL0     H33764  -0.817   5.071   0.570  4.0069  0.2956 -1.4331
  991MOL0     H33765  -0.677   5.246   0.489 -0.3736  0.3055  0.1402
  991MOL0     H33766  -0.748   5.237   0.324 -3.0389  2.2378  1.8670
  991MOL0     H33767  -1.281   4.534   0.806  0.3507 -0.9076 -0.2998
  991MOL0     H33768  -1.147   4.350   0.876 -2.0381  0.4414  1.4797
  991MOL0     H33769  -0.912   4.122   0.971  0.5169  1.8948 -0.1259
  991MOL0     H33770  -0.821   3.885   0.980 -1.7817 -0.0113  2.9057
  991MOL0     H33771   0.761   4.228   1.767  0.8358  0.5690  1.8041
  991MOL0     H33772   1.011   4.232   1.839  0.9732  2.7737 -2.2693
  991MOL0     H33773   1.547   4.031   1.473 -0.0382  2.9990  0.1811
  991MOL0     H33774   1.766   4.039   1.584 -0.5911  0.0285 -0.3701
  991MOL0     H33775   1.938   4.023   1.682 -1.4366 -2.1359  2.1611
  991MOL0     H33776   1.937   4.198   1.724 -3.3734  0.3401  0.3302
  991MOL0     H33777   2.055   4.137   1.955 -0.8581  0.1495 -0.5135
  991MOL0     H33778   2.141   4.113   1.799  0.2689 -1.1600  0.2436
  991MOL0     H33779   2.190   3.909   1.864  0.8455 -1.4907  2.4126
  991MOL0     H33780   2.021   3.870   1.837 -0.9330  1.0795  0.7142
  991MOL0     H33781   2.145   3.983   2.102  0.4500 -1.1140  0.3192
  991MOL0     H33782   2.122   3.810   2.077  0.2172  0.4027  0.3300
  991MOL0     H33783   1.760   3.943   2.224 -1.0281  0.2016 -2.2290
  991MOL0     H33784   1.595   4.149   1.954  0.2800 -1.1848  0.0765
  991MOL0     H33785   1.357   4.105   1.862 -2.3759 -2.3250 -1.7360
  992MOL0     O33786   1.067   4.880   3.420 -0.5984 -0.4253  0.1889
  992MOL0     C33787   1.193   4.895   3.415  0.5125  0.4030 -1.3090
  992MOL0     O33788   1.256   4.996   3.354 -0.9442 -0.4241  0.0942
  992MOL0     C33789   1.182   5.085   3.288  0.2024 -0.2813  0.4875
  992MOL0     C33790   1.137   5.194   3.361  0.6631  0.3879  0.6162
  992MOL0     C33791   1.060   5.291   3.304 -0.0732 -0.2409  0.9619
  992MOL0     C33792   1.002   5.272   3.180 -0.1722 -0.6686 -0.4986
  992MOL0     O33793   0.902   5.365   3.155 -0.0860 -0.0758  0.1517
  992MOL0     C33794   0.807   5.342   3.048  0.5194  0.1255 -0.0299
  992MOL0     C33795   0.658   5.378   3.082 -0.1603 -1.4694  0.4439
  992MOL0     C33796   0.613   5.296   3.196  2.1875 -0.4017  0.4553
  992MOL0     C33797   0.459   5.312   3.219  1.2523 -0.8346  0.2604
  992MOL0     C33798   0.417   5.187   3.289  0.3178  0.0826 -0.6988
  992MOL0     C33799   0.280   5.203   3.350  0.0376 -0.2655 -0.4855
  992MOL0     C33800   0.229   5.071   3.415  0.3231  0.2696 -0.0960
  992MOL0     C33801   0.191   4.958   3.318  0.2570 -0.6474  0.6269
  992MOL0     N33802   0.080   4.996   3.233 -0.3494  0.4161  0.6588
  992MOL0     C33803  -0.024   5.075   3.251 -0.3592  0.0369  0.2656
  992MOL0     C33804  -0.113   5.049   3.155  0.1466  0.7598 -0.3909
  992MOL0     C33805  -0.248   5.095   3.119 -0.5057  0.3997  0.0652
  992MOL0     C33806  -0.338   4.990   3.047  0.0123 -0.8077 -0.5371
  992MOL0     C33807  -0.489   5.032   3.060 -0.4903 -0.6813 -0.3714
  992MOL0     C33808  -0.577   4.935   2.985  0.1332 -0.3485  0.0463
  992MOL0     O33809  -0.717   4.948   3.011 -0.1727 -0.6050 -0.5744
  992MOL0     C33810  -0.816   4.877   2.949 -0.5060 -1.1439  0.3978
  992MOL0     C33811  -0.934   4.873   3.019  0.3347  0.5315 -0.2089
  992MOL0     C33812  -1.047   4.808   2.964 -0.2130  0.1866 -0.4075
  992MOL0     C33813  -1.168   4.811   3.057 -0.6387 -0.0813  0.3500
  992MOL0     C33814  -1.043   4.745   2.842  0.0949  0.4876 -0.4176
  992MOL0     C33815  -1.153   4.670   2.778 -0.6034 -0.3298  0.5811
  992MOL0     O33816  -1.273   4.654   2.845 -0.3600 -0.8519 -0.2534
  992MOL0     C33817  -1.392   4.603   2.794  0.0398  0.3129  0.1098
  992MOL0     C33818  -1.409   4.529   2.683  0.2297  0.3945 -0.5148
  992MOL0     C33819  -1.532   4.479   2.640 -0.2015 -0.3955  0.4260
  992MOL0     C33820  -1.647   4.496   2.716  0.3993  0.0457 -0.2454
  992MOL0     O33821  -1.777   4.453   2.692  1.0033 -0.0554  0.4460
  992MOL0     C33822  -1.798   4.357   2.584  0.2108  0.0222 -0.0334
  992MOL0     C33823  -1.946   4.314   2.572  0.2207 -1.1695  0.0236
  992MOL0     C33824  -2.037   4.447   2.573 -0.3764  0.5363  0.1757
  992MOL0     C33825  -2.184   4.410   2.537  0.3570 -0.1625  0.8415
  992MOL0     C33826  -2.265   4.552   2.532 -0.2291  0.0298  0.5222
  992MOL0     C33827  -2.418   4.524   2.532 -0.8179 -0.1942  0.0336
  992MOL0     C33828  -2.475   4.444   2.655  0.6728 -0.1672  0.0700
  992MOL0     C33829  -2.618   4.425   2.645 -0.5259 -0.1257  0.3450
  992MOL0    Cl33830  -2.725   4.577   2.674  0.1916 -0.3745 -0.0528
  992MOL0     C33831  -1.631   4.570   2.828 -0.5698  0.1062  0.5433
  992MOL0     C33832  -1.505   4.614   2.873  0.3206 -0.2456 -0.4010
  992MOL0     O33833  -1.127   4.612   2.665 -0.4116 -0.2820  0.4778
  992MOL0     C33834  -0.923   4.742   2.775  0.9220 -0.5264  0.1422
  992MOL0     C33835  -0.816   4.817   2.825 -0.3419 -0.1425  0.4782
  992MOL0     N33836  -0.056   4.955   3.072 -0.4429 -0.7285 -0.2303
  992MOL0     N33837   0.058   4.920   3.122  0.0481  0.4544 -0.2561
  992MOL0     C33838   1.058   5.175   3.099  0.8112 -0.1021  0.2412
  992MOL0     C33839   1.144   5.084   3.159  0.0488  0.8575  0.1789
  992MOL0     C33840   1.275   4.779   3.472 -0.5923 -0.1892 -0.9787
  992MOL0     C33841   1.221   4.662   3.530 -0.5999  0.5131  0.5997
  992MOL0     C33842   1.298   4.562   3.587 -0.0575  0.5633 -0.6068
  992MOL0     C33843   1.446   4.582   3.588  0.5364 -0.1479  1.1601
  992MOL0     O33844   1.545   4.497   3.648 -0.0138 -0.4389 -0.0105
  992MOL0     C33845   1.491   4.387   3.730  0.2794 -0.2418 -0.5463
  992MOL0     C33846   1.593   4.329   3.830 -0.2746 -1.0257 -0.1178
  992MOL0     C33847   1.694   4.243   3.754  0.7355  0.6313 -0.8317
  992MOL0     C33848   1.817   4.192   3.842  0.7799 -0.8798 -0.5014
  992MOL0     C33849   1.880   4.313   3.887 -1.4416  0.1783 -0.2365
  992MOL0     C33850   1.921   4.420   3.917 -0.5274 -0.1617  0.4226
  992MOL0     C33851   1.501   4.709   3.543  0.4202 -0.1514  0.0481
  992MOL0     C33852   1.415   4.802   3.492  0.1165 -0.6109  0.6605
  992MOL0     H33853   1.166   5.217   3.463  0.7288  3.3582  0.0226
  992MOL0     H33854   1.019   5.357   3.380  0.9215  0.3368  1.0181
  992MOL0     H33855   0.836   5.408   2.965  3.4640 -1.5489 -0.4947
  992MOL0     H33856   0.815   5.238   3.016 -0.6377 -0.3994  1.3159
  992MOL0     H33857   0.650   5.485   3.106 -2.3275 -0.6101 -3.3395
  992MOL0     H33858   0.595   5.364   2.994  1.1825  0.1927 -0.8579
  992MOL0     H33859   0.639   5.190   3.185 -0.4327 -1.1094  0.3654
  992MOL0     H33860   0.653   5.324   3.293 -4.1133  0.2022  3.3627
  992MOL0     H33861   0.435   5.395   3.287 -1.5347 -2.2976  1.2215
  992MOL0     H33862   0.415   5.315   3.119  0.9148  1.8316  0.4175
  992MOL0     H33863   0.421   5.105   3.216  2.5498 -0.8612  0.3822
  992MOL0     H33864   0.493   5.168   3.365  0.6193  2.2086 -0.4049
  992MOL0     H33865   0.295   5.279   3.428  1.9627 -0.6478 -0.4245
  992MOL0     H33866   0.209   5.237   3.275 -1.2005  0.0763  0.7883
  992MOL0     H33867   0.312   5.036   3.478  0.6903  0.1965 -0.6121
  992MOL0     H33868   0.147   5.093   3.483  2.1701  1.7634  1.7912
  992MOL0     H33869   0.149   4.883   3.386 -2.3955  1.1072  1.0924
  992MOL0     H33870   0.276   4.919   3.262  0.5209 -1.7226  1.7305
  992MOL0     H33871  -0.043   5.139   3.337  0.0383  2.1900 -1.1687
  992MOL0     H33872  -0.305   5.113   3.210  2.2218  0.2662  1.9076
  992MOL0     H33873  -0.242   5.183   3.054  0.9484  0.0950 -0.2467
  992MOL0     H33874  -0.327   4.897   3.104  0.8414 -0.2074  0.3313
  992MOL0     H33875  -0.318   4.971   2.941 -2.4217 -0.4287 -1.1096
  992MOL0     H33876  -0.504   5.131   3.015 -1.6985  0.0542  1.5681
  992MOL0     H33877  -0.521   5.041   3.164  0.7458  1.1644 -0.1038
  992MOL0     H33878  -0.539   4.834   3.005  1.5059 -0.3354 -2.1818
  992MOL0     H33879  -0.563   4.948   2.877  0.9724 -0.2653  0.1650
  992MOL0     H33880  -0.942   4.909   3.121 -0.7175  2.1267 -0.8129
  992MOL0     H33881  -1.251   4.850   2.998 -1.6256 -3.2181 -0.4931
  992MOL0     H33882  -1.198   4.709   3.079  0.2466 -1.5933 -4.3710
  992MOL0     H33883  -1.146   4.867   3.149 -0.0630  1.8410 -0.8970
  992MOL0     H33884  -1.320   4.519   2.622  0.9138 -1.0192  0.6632
  992MOL0     H33885  -1.538   4.426   2.545 -1.8968  0.5686 -0.0448
  992MOL0     H33886  -1.768   4.401   2.489  0.5151  0.3420  0.2082
  992MOL0     H33887  -1.740   4.267   2.606  0.9228  0.8225  1.5652
  992MOL0     H33888  -1.978   4.266   2.479 -3.9360  3.9793 -1.7002
  992MOL0     H33889  -1.977   4.250   2.655  0.0257  0.9942  1.6889
  992MOL0     H33890  -1.983   4.513   2.505  0.8615  1.5996  2.0926
  992MOL0     H33891  -2.043   4.487   2.675  0.0991  1.7293 -0.2486
  992MOL0     H33892  -2.195   4.364   2.438  0.5887  2.5716 -0.5296
  992MOL0     H33893  -2.224   4.349   2.618  0.2346 -0.8066  0.3112
  992MOL0     H33894  -2.234   4.620   2.452 -0.9424  1.2311  1.2261
  992MOL0     H33895  -2.243   4.608   2.623  1.3891 -0.7925  0.6678
  992MOL0     H33896  -2.470   4.620   2.528 -0.9576 -0.2627  0.1968
  992MOL0     H33897  -2.448   4.469   2.442 -0.1076 -0.0272 -0.3089
  992MOL0     H33898  -2.442   4.498   2.744  1.2221 -1.7269  0.8474
  992MOL0     H33899  -2.444   4.340   2.662 -3.9695 -1.7125  0.8727
  992MOL0     H33900  -2.656   4.347   2.712 -0.3527 -0.6938 -0.2063
  992MOL0     H33901  -2.647   4.387   2.547 -0.8734 -0.0289  0.4090
  992MOL0     H33902  -1.708   4.573   2.903 -0.7453  1.8311  0.3342
  992MOL0     H33903  -1.497   4.666   2.968 -0.0598 -0.8958 -0.0012
  992MOL0     H33904  -0.909   4.682   2.686  1.5343 -1.1449  0.6402
  992MOL0     H33905  -0.728   4.833   2.763 -1.0784 -1.8674 -1.0896
  992MOL0     H33906   1.034   5.162   2.994 -2.0444  1.7526  0.5439
  992MOL0     H33907   1.169   4.990   3.111  4.0936  1.5505  0.5393
  992MOL0     H33908   1.113   4.662   3.522 -0.4651 -0.6812 -3.7661
  992MOL0     H33909   1.249   4.470   3.616 -1.6376  1.1839 -1.1755
  992MOL0     H33910   1.418   4.433   3.797  1.4504  0.4031  0.3270
  992MOL0     H33911   1.442   4.305   3.677 -1.1966 -1.2688  2.2011
  992MOL0     H33912   1.551   4.262   3.906  1.2846 -0.7028  1.0985
  992MOL0     H33913   1.643   4.413   3.881 -1.5775 -1.7558  2.5612
  992MOL0     H33914   1.730   4.278   3.657 -1.7281  0.6973 -1.8022
  992MOL0     H33915   1.644   4.150   3.725 -1.5074  0.8582  1.8196
  992MOL0     H33916   1.886   4.126   3.788 -0.1421  0.4722 -3.5899
  992MOL0     H33917   1.783   4.130   3.925  2.3206 -1.4467 -0.2636
  992MOL0     H33918   1.966   4.510   3.953  2.4957 -1.3418 -0.0397
  992MOL0     H33919   1.607   4.730   3.552  1.3227 -3.2260 -1.8805
  992MOL0     H33920   1.447   4.904   3.473 -1.6023 -0.1526  0.1295
  993MOL0     O33921   1.598   9.246   4.099 -0.1215 -0.0037  0.3767
  993MOL0     C33922   1.568   9.124   4.085 -0.1028 -0.2154 -0.8068
  993MOL0     O33923   1.462   9.064   4.148  0.2175  0.5659  0.8122
  993MOL0     C33924   1.364   9.145   4.203  0.3143 -0.5104  0.4670
  993MOL0     C33925   1.303   9.097   4.323  0.3870 -0.3426 -0.0655
  993MOL0     C33926   1.221   9.175   4.402 -0.6367  0.1672  0.5807
  993MOL0     C33927   1.182   9.303   4.356  0.1639 -0.8309  0.1418
  993MOL0     O33928   1.096   9.387   4.427 -0.6037 -0.8715 -0.1018
  993MOL0     C33929   1.049   9.335   4.544  0.6544 -0.7935 -0.6933
  993MOL0     C33930   0.942   9.420   4.606  0.2930  0.5259  0.1215
  993MOL0     C33931   0.828   9.437   4.513 -0.3173  0.2241  0.2880
  993MOL0     C33932   0.732   9.535   4.584 -0.3769  0.0921  0.2766
  993MOL0     C33933   0.613   9.586   4.500  0.7528  0.0565  0.4252
  993MOL0     C33934   0.519   9.489   4.439  0.5183  0.0203  0.0527
  993MOL0     C33935   0.445   9.404   4.538  0.0704 -0.1037 -0.5508
  993MOL0     C33936   0.357   9.469   4.646 -0.2025  0.3055  0.0116
  993MOL0     N33937   0.249   9.556   4.595 -0.0574  0.1925 -0.1734
  993MOL0     C33938   0.246   9.692   4.621  0.0419 -0.4149  0.0197
  993MOL0     C33939   0.126   9.726   4.579  0.6813  0.0494 -0.3973
  993MOL0     C33940   0.085   9.871   4.580 -0.4221 -0.3111 -0.7373
  993MOL0     C33941   0.037   9.926   4.448  0.3817 -0.4163  0.4998
  993MOL0     C33942   0.021  10.078   4.448 -0.5542 -0.3717 -0.2066
  993MOL0     C33943  -0.077  10.132   4.561 -0.3533  0.4945 -0.5082
  993MOL0     O33944  -0.194  10.063   4.553  0.1783  0.4957 -0.4445
  993MOL0     C33945  -0.306  10.105   4.619  0.5152  0.0106 -0.1779
  993MOL0     C33946  -0.310  10.193   4.723  0.2102 -0.0294 -0.1900
  993MOL0     C33947  -0.431  10.224   4.791 -0.3214  0.3306  0.2381
  993MOL0     C33948  -0.420  10.327   4.904  1.1172  0.3126 -0.0090
  993MOL0     C33949  -0.553  10.161   4.743 -0.0191  0.4470  0.7278
  993MOL0     C33950  -0.685  10.191   4.784  0.2993  0.0343  0.2864
  993MOL0     O33951  -0.793  10.141   4.707  0.2069  0.4734  0.2594
  993MOL0     C33952  -0.919  10.191   4.742 -0.0473  0.3591  0.7445
  993MOL0     C33953  -0.974  10.141   4.863  0.3487 -0.3086 -0.6150
  993MOL0     C33954  -1.100  10.195   4.896 -0.6260  0.1445  0.1738
  993MOL0     C33955  -1.176  10.255   4.804 -1.0123  0.0728 -0.0638
  993MOL0     O33956  -1.307  10.285   4.837 -0.2785 -0.4374 -0.2579
  993MOL0     C33957  -1.408  10.234   4.752 -0.7798 -0.0085  0.3367
  993MOL0     C33958  -1.529  10.266   4.852 -0.1350  0.7697 -0.4799
  993MOL0     C33959  -1.665  10.241   4.796  0.0450 -0.0559  0.3866
  993MOL0     C33960  -1.772  10.264   4.905 -0.0380 -0.7870  0.3980
  993MOL0     C33961  -1.914  10.264   4.844 -0.1853 -0.4186  0.3961
  993MOL0     C33962  -1.962  10.149   4.757  0.0073  0.6644  0.7488
  993MOL0     C33963  -2.111  10.148   4.727  0.2864 -0.0736 -0.1954
  993MOL0     C33964  -2.178  10.247   4.635 -0.3448 -0.9898 -0.9461
  993MOL0    Cl33965  -2.125  10.235   4.466  0.1389  0.0754 -0.3899
  993MOL0     C33966  -1.136  10.278   4.673 -0.0236 -1.0782 -0.2797
  993MOL0     C33967  -1.004  10.251   4.648  1.0496 -0.5441 -0.9722
  993MOL0     O33968  -0.702  10.277   4.870 -0.0451 -0.2415 -0.0828
  993MOL0     C33969  -0.542  10.068   4.639 -0.9098 -0.3610 -0.2711
  993MOL0     C33970  -0.428  10.043   4.580 -0.2972  0.5689  0.1627
  993MOL0     N33971   0.060   9.617   4.531 -0.1564 -0.0978 -0.0362
  993MOL0     N33972   0.137   9.522   4.529 -0.4295  0.6508  0.5438
  993MOL0     C33973   1.254   9.361   4.244  0.2698  0.5249  0.3534
  993MOL0     C33974   1.336   9.276   4.166 -0.2846  0.2139 -0.5692
  993MOL0     C33975   1.655   9.038   4.002  0.4932  0.3376 -0.5195
  993MOL0     C33976   1.746   9.104   3.920  0.7980  0.0469  0.7146
  993MOL0     C33977   1.843   9.022   3.866 -0.0138 -0.3731  0.9543
  993MOL0     C33978   1.842   8.877   3.867  0.1936  0.6067 -0.2204
  993MOL0     O33979   1.948   8.809   3.812  0.1816 -0.4861  0.2057
  993MOL0     C33980   1.951   8.663   3.811  0.6957 -0.0076 -0.4898
  993MOL0     C33981   2.070   8.614   3.729 -0.0280  0.8361  0.5980
  993MOL0     C33982   2.157   8.505   3.798  0.3677  0.0031 -0.7650
  993MOL0     C33983   2.102   8.365   3.783 -0.2563 -0.4319  0.0282
  993MOL0     C33984   1.963   8.351   3.846 -0.3961  0.8608 -0.3780
  993MOL0     C33985   1.866   8.340   3.915 -0.8261  0.7605  0.0925
  993MOL0     C33986   1.749   8.812   3.950  0.3375  0.1079  0.5909
  993MOL0     C33987   1.654   8.897   4.013  0.3588  0.4282  0.3624
  993MOL0     H33988   1.337   9.000   4.357  0.3515 -0.5471 -0.6117
  993MOL0     H33989   1.177   9.128   4.489  0.2298  0.7985  1.3791
  993MOL0     H33990   1.002   9.237   4.530  0.4894 -1.4946  3.4528
  993MOL0     H33991   1.125   9.319   4.622 -0.0072  0.8990  0.3470
  993MOL0     H33992   0.897   9.367   4.691 -0.9906 -0.0511 -0.8824
  993MOL0     H33993   0.986   9.514   4.641 -1.3559  1.3215  0.1281
  993MOL0     H33994   0.858   9.486   4.420  0.5037 -0.8870 -0.0505
  993MOL0     H33995   0.786   9.336   4.507  0.1937 -0.1233  1.8786
  993MOL0     H33996   0.698   9.481   4.673 -2.4771  2.4246  1.0112
  993MOL0     H33997   0.792   9.618   4.622 -0.1920  1.5812 -2.8900
  993MOL0     H33998   0.554   9.642   4.573  0.0413 -0.3272  0.1568
  993MOL0     H33999   0.643   9.659   4.424 -1.4609  0.7233  0.1033
  993MOL0     H34000   0.439   9.540   4.384  1.3206  1.1087 -0.1475
  993MOL0     H34001   0.573   9.423   4.370  2.6430  1.3893  0.3037
  993MOL0     H34002   0.379   9.339   4.481 -1.4564  2.5425 -1.9949
  993MOL0     H34003   0.523   9.345   4.587 -0.6953  0.7115  1.7895
  993MOL0     H34004   0.421   9.537   4.704 -1.0041  2.2523 -1.2756
  993MOL0     H34005   0.313   9.398   4.717  0.2405 -2.3225 -2.1847
  993MOL0     H34006   0.332   9.742   4.665  0.1151 -0.1040 -0.4772
  993MOL0     H34007   0.001   9.883   4.648 -1.1057  2.7405 -1.9364
  993MOL0     H34008   0.170   9.924   4.624 -2.4637  1.6027  1.1445
  993MOL0     H34009  -0.055   9.877   4.414  0.6019  1.1191 -2.6662
  993MOL0     H34010   0.112   9.902   4.372 -0.3653  1.7883 -1.0102
  993MOL0     H34011  -0.009  10.116   4.350 -0.7751 -0.2304 -0.0855
  993MOL0     H34012   0.119  10.125   4.461 -0.4464 -1.1136  2.3785
  993MOL0     H34013  -0.089  10.239   4.542 -2.4273  1.1109  3.3231
  993MOL0     H34014  -0.031  10.124   4.660  1.3976  0.3905 -1.2849
  993MOL0     H34015  -0.216  10.240   4.750 -0.3108  1.0687 -0.2135
  993MOL0     H34016  -0.392  10.286   5.001  1.5117  0.3209 -0.1188
  993MOL0     H34017  -0.357  10.413   4.877  1.2224  0.1100 -0.4151
  993MOL0     H34018  -0.508  10.384   4.936  0.5263 -0.3698 -0.4003
  993MOL0     H34019  -0.920  10.074   4.929 -1.2875 -1.9411 -0.8445
  993MOL0     H34020  -1.141  10.176   4.995  1.6397 -0.6626  1.0259
  993MOL0     H34021  -1.423  10.283   4.656  0.8923 -0.8214 -0.3676
  993MOL0     H34022  -1.406  10.126   4.741 -1.2780  0.1820 -2.3454
  993MOL0     H34023  -1.520  10.193   4.933 -1.6855  2.5344  1.4269
  993MOL0     H34024  -1.535  10.368   4.891  0.6457  1.6755 -2.5681
  993MOL0     H34025  -1.679  10.140   4.755 -0.7251  0.0712  0.3283
  993MOL0     H34026  -1.673  10.301   4.705 -0.0409  0.0244  0.4474
  993MOL0     H34027  -1.762  10.181   4.976 -1.4883  0.0409  1.6302
  993MOL0     H34028  -1.751  10.355   4.962  1.8075 -0.4383 -0.7625
  993MOL0     H34029  -1.918  10.345   4.771 -2.5170 -0.2937  0.5564
  993MOL0     H34030  -1.997  10.264   4.916  0.4193 -1.1762  1.1106
  993MOL0     H34031  -1.915  10.154   4.658 -2.9525  1.4006 -0.7347
  993MOL0     H34032  -1.934  10.069   4.826 -2.2488  2.4553  4.0163
  993MOL0     H34033  -2.156  10.139   4.826  1.0170  0.2843  0.1721
  993MOL0     H34034  -2.136  10.050   4.687 -1.0921 -0.5533  1.6789
  993MOL0     H34035  -2.144  10.343   4.673  2.1533 -2.8817  2.1811
  993MOL0     H34036  -2.287  10.248   4.644 -0.2589 -0.3078  0.1464
  993MOL0     H34037  -1.188  10.337   4.599  1.4187  0.5231 -0.0709
  993MOL0     H34038  -0.958  10.281   4.554  1.0799 -1.4796 -1.2699
  993MOL0     H34039  -0.625  10.005   4.607 -0.4067 -2.4121  2.0967
  993MOL0     H34040  -0.441   9.966   4.504 -4.6837  1.7409 -0.5507
  993MOL0     H34041   1.234   9.464   4.217 -0.9733  1.8322  5.2367
  993MOL0     H34042   1.378   9.310   4.072  1.1344  0.3053  0.0604
  993MOL0     H34043   1.743   9.211   3.899 -0.7310 -0.1375 -0.1001
  993MOL0     H34044   1.927   9.066   3.812  1.7537 -1.3370  2.7537
  993MOL0     H34045   1.954   8.615   3.909  1.4081 -1.0767 -1.0244
  993MOL0     H34046   1.861   8.626   3.760  1.9092 -2.0920 -1.2224
  993MOL0     H34047   2.140   8.697   3.719  0.0648  0.5221 -2.0493
  993MOL0     H34048   2.044   8.581   3.629 -0.0094  2.6042 -0.0255
  993MOL0     H34049   2.171   8.530   3.904 -0.5375  1.0644 -0.8695
  993MOL0     H34050   2.252   8.494   3.744  0.3166 -1.0123 -0.6564
  993MOL0     H34051   2.167   8.303   3.845 -0.1425 -0.2292  0.1123
  993MOL0     H34052   2.107   8.321   3.682  2.1877 -1.7273  0.6317
  993MOL0     H34053   1.781   8.337   3.980 -0.4988 -0.3484  0.4891
  993MOL0     H34054   1.752   8.704   3.965  2.1467 -0.1495 -1.2873
  993MOL0     H34055   1.580   8.856   4.081  0.3023 -0.6482 -0.3245
  994MOL0     O34056  10.399   5.009   2.121 -0.4130  0.4436 -0.2424
  994MOL0     C34057  10.444   5.060   2.226 -0.1432 -1.2186 -0.6885
  994MOL0     O34058  10.388   5.039   2.358 -0.0331 -0.3244  0.3194
  994MOL0     C34059  10.253   5.014   2.368 -0.4131  0.5291 -0.1842
  994MOL0     C34060  10.151   5.073   2.295 -0.5806  0.6182  0.1299
  994MOL0     C34061  10.017   5.044   2.331 -0.6078 -0.6572  0.9871
  994MOL0     C34062   9.981   4.958   2.432 -0.5102 -0.3443  0.2773
  994MOL0     O34063   9.854   4.950   2.465  0.0676  0.2756 -0.2441
  994MOL0     C34064   9.799   4.825   2.479  0.0225  0.5226 -1.0978
  994MOL0     C34065   9.656   4.821   2.550 -0.0491  0.4462  0.7427
  994MOL0     C34066   9.554   4.918   2.483 -0.2141 -0.4050  1.3165
  994MOL0     C34067   9.414   4.880   2.526  0.9233 -0.2531  0.2066
  994MOL0     C34068   9.306   4.992   2.504 -0.0329 -0.0026  0.4280
  994MOL0     C34069   9.317   5.099   2.617 -0.6267  0.5882  0.2889
  994MOL0     C34070   9.242   5.225   2.574 -0.2990 -0.0385  0.1741
  994MOL0     C34071   9.231   5.316   2.694  0.5165  0.2375  0.0020
  994MOL0     N34072   9.150   5.259   2.796 -0.1889  0.1504 -0.4098
  994MOL0     C34073   9.015   5.236   2.776 -0.5941 -0.2869  0.1525
  994MOL0     C34074   8.986   5.163   2.887  0.0079  0.4740  0.9236
  994MOL0     C34075   8.845   5.130   2.922 -0.5689  0.9478  0.4538
  994MOL0     C34076   8.796   5.202   3.047 -0.5284  0.4090 -0.5244
  994MOL0     C34077   8.663   5.155   3.090  0.4463  0.6781  0.1167
  994MOL0     C34078   8.620   5.195   3.222  0.6161 -0.7922  0.3530
  994MOL0     O34079   8.717   5.181   3.327 -0.1053  0.2103 -0.2132
  994MOL0     C34080   8.679   5.220   3.451  0.7024  0.0239  1.0398
  994MOL0     C34081   8.763   5.189   3.556 -0.1548 -0.0592 -0.1839
  994MOL0     C34082   8.726   5.214   3.687  0.0846 -0.7773 -0.2617
  994MOL0     C34083   8.818   5.172   3.797 -0.1188  0.4852 -1.0238
  994MOL0     C34084   8.605   5.295   3.717 -0.1535 -0.2168  0.7235
  994MOL0     C34085   8.559   5.341   3.846  0.0218  0.3045  0.3270
  994MOL0     O34086   8.476   5.449   3.843 -0.1010  0.8591  0.4113
  994MOL0     C34087   8.382   5.460   3.944 -0.1016 -0.7442 -0.1917
  994MOL0     C34088   8.417   5.509   4.068  0.3327  0.3568 -0.0521
  994MOL0     C34089   8.317   5.535   4.168  1.1576  0.3098 -0.6264
  994MOL0     C34090   8.180   5.501   4.145  0.2092  0.8767  1.2641
  994MOL0     O34091   8.091   5.529   4.246 -0.2372  0.3597  0.8843
  994MOL0     C34092   7.968   5.588   4.201  0.0625  0.0412  0.2326
  994MOL0     C34093   7.923   5.694   4.306 -0.1033  0.5805  0.4535
  994MOL0     C34094   7.774   5.737   4.303  0.3950  1.7766  0.6558
  994MOL0     C34095   7.733   5.818   4.430 -0.0461 -0.4183 -0.3895
  994MOL0     C34096   7.606   5.898   4.413  0.2768  0.7768 -0.6156
  994MOL0     C34097   7.531   5.908   4.553  0.5592 -0.9365 -0.0489
  994MOL0     C34098   7.399   5.979   4.530  0.5974  0.9637 -0.1393
  994MOL0     C34099   7.337   6.035   4.657 -0.4773  0.1498  0.7456
  994MOL0    Cl34100   7.216   6.151   4.636  0.0861  0.4117 -0.1929
  994MOL0     C34101   8.146   5.453   4.021  0.1861 -0.0485  0.3673
  994MOL0     C34102   8.242   5.438   3.921 -0.0554 -0.0047  0.1971
  994MOL0     O34103   8.590   5.283   3.952 -0.0214 -0.4207  0.1308
  994MOL0     C34104   8.521   5.327   3.605 -0.3291 -0.4736 -0.6295
  994MOL0     C34105   8.560   5.280   3.475  0.8970 -0.0291 -1.1933
  994MOL0     N34106   9.109   5.137   2.948 -0.4720  0.9593  0.2138
  994MOL0     N34107   9.213   5.193   2.900 -0.1343  0.6656  0.0133
  994MOL0     C34108  10.084   4.904   2.509  0.2989 -0.6078 -0.2382
  994MOL0     C34109  10.213   4.923   2.468  0.0937  0.1667 -0.4994
  994MOL0     C34110  10.579   5.131   2.238 -0.4057  0.4498 -0.4723
  994MOL0     C34111  10.602   5.228   2.344  0.7621  0.3485 -0.0033
  994MOL0     C34112  10.724   5.299   2.343  0.4120  0.2421  0.3455
  994MOL0     C34113  10.828   5.260   2.248 -0.5905 -0.0399  0.7477
  994MOL0     O34114  10.960   5.300   2.267 -0.4053 -0.2395  0.6027
  994MOL0     C34115  10.984   5.385   2.382  0.2108  0.0859  0.0527
  994MOL0     C34116  11.120   5.440   2.402  0.8282 -0.2139 -0.6742
  994MOL0     C34117  11.239   5.347   2.373  0.7635 -0.1009  0.5006
  994MOL0     C34118  11.370   5.435   2.388 -0.0469  0.0095  0.3118
  994MOL0     C34119  11.495   5.356   2.376 -0.5155 -0.8705 -0.1601
  994MOL0     C34120  11.604   5.299   2.376  0.6653  0.9362  0.4127
  994MOL0     C34121  10.800   5.163   2.154 -0.7559 -0.0485  0.3918
  994MOL0     C34122  10.674   5.106   2.145 -0.6418  0.0743  0.0360
  994MOL0     H34123  10.169   5.129   2.204  0.6134 -1.9815 -1.3372
  994MOL0     H34124   9.941   5.093   2.271  3.0822  2.0534 -1.9544
  994MOL0     H34125   9.798   4.789   2.376  3.3555  0.1665 -1.0988
  994MOL0     H34126   9.866   4.758   2.534 -0.2961  0.2410 -1.0494
  994MOL0     H34127   9.618   4.719   2.537  3.3719 -0.7993 -0.6844
  994MOL0     H34128   9.664   4.841   2.657 -0.8885  2.3898  0.4910
  994MOL0     H34129   9.576   5.025   2.492  0.5397 -0.1531 -2.0198
  994MOL0     H34130   9.557   4.903   2.374 -1.0231  0.8957  1.1014
  994MOL0     H34131   9.400   4.795   2.458  1.9075  2.6351 -4.0669
  994MOL0     H34132   9.406   4.852   2.631 -1.7078 -0.3693  0.0396
  994MOL0     H34133   9.329   5.040   2.408  0.6313 -2.2970 -0.6352
  994MOL0     H34134   9.208   4.950   2.478 -0.6076  1.2305  0.5309
  994MOL0     H34135   9.265   5.045   2.697  0.7537 -3.1936 -1.1401
  994MOL0     H34136   9.420   5.109   2.652  0.4058 -0.1757 -2.2778
  994MOL0     H34137   9.291   5.273   2.489 -1.5175  1.9362  0.5170
  994MOL0     H34138   9.147   5.186   2.536 -1.4354  2.6585  0.0807
  994MOL0     H34139   9.180   5.410   2.673  0.8358 -0.1119 -2.5953
  994MOL0     H34140   9.330   5.339   2.735  1.9680 -3.5484 -0.9740
  994MOL0     H34141   8.956   5.293   2.705  1.4482  1.9738  0.1204
  994MOL0     H34142   8.771   5.138   2.842 -1.3843  0.8214  1.1756
  994MOL0     H34143   8.849   5.023   2.945  2.6387  0.7144 -0.7050
  994MOL0     H34144   8.788   5.310   3.029 -0.3477  0.2991 -1.2965
  994MOL0     H34145   8.874   5.175   3.120 -2.4029 -3.0620  0.4016
  994MOL0     H34146   8.669   5.046   3.085 -0.9989  0.4436  2.1831
  994MOL0     H34147   8.588   5.191   3.018 -0.4681  0.5627  0.9921
  994MOL0     H34148   8.527   5.146   3.253  0.6961 -1.0223  0.2319
  994MOL0     H34149   8.586   5.299   3.216  2.6822 -0.0607  0.5912
  994MOL0     H34150   8.857   5.134   3.550 -0.2423 -1.3582  5.2320
  994MOL0     H34151   8.919   5.155   3.759 -0.8900 -3.9281 -1.6296
  994MOL0     H34152   8.814   5.258   3.865  0.6165  1.2167 -1.8782
  994MOL0     H34153   8.779   5.076   3.832 -1.4003  0.6479 -1.9627
  994MOL0     H34154   8.521   5.519   4.097  0.9330 -0.0982 -1.9135
  994MOL0     H34155   8.349   5.568   4.266  1.0312 -2.3150  0.3730
  994MOL0     H34156   7.974   5.633   4.101  0.9795 -0.1783  0.1833
  994MOL0     H34157   7.886   5.517   4.191  0.3306 -0.2693  0.2358
  994MOL0     H34158   7.945   5.659   4.408  2.1169  0.0258 -0.1580
  994MOL0     H34159   7.985   5.777   4.269  2.1618 -1.2491 -0.1050
  994MOL0     H34160   7.710   5.651   4.282  2.3060  0.4089  0.1443
  994MOL0     H34161   7.759   5.810   4.223 -1.3271  0.8681  0.1192
  994MOL0     H34162   7.719   5.753   4.516 -1.2288 -0.4370 -0.5785
  994MOL0     H34163   7.815   5.884   4.460 -2.6305  1.6503  2.7813
  994MOL0     H34164   7.537   5.840   4.352 -1.1388  0.6198  1.0462
  994MOL0     H34165   7.629   5.992   4.362 -2.3703  2.5004  1.0890
  994MOL0     H34166   7.509   5.805   4.585 -0.0103 -0.6913  0.3703
  994MOL0     H34167   7.580   5.968   4.630  0.4380 -1.7281  0.6610
  994MOL0     H34168   7.333   5.918   4.467  1.6240  1.4050 -1.7030
  994MOL0     H34169   7.432   6.061   4.466  2.2273 -0.3330 -1.0221
  994MOL0     H34170   7.410   6.075   4.728 -0.3942 -0.4255  0.9926
  994MOL0     H34171   7.289   5.946   4.699 -1.5351 -0.7706 -2.1354
  994MOL0     H34172   8.042   5.426   4.003 -0.5258  2.1191  0.9767
  994MOL0     H34173   8.212   5.386   3.831  1.4443  0.4544 -0.6001
  994MOL0     H34174   8.429   5.385   3.613  0.9190  1.7828 -1.6161
  994MOL0     H34175   8.479   5.299   3.406 -1.4774 -0.8477  1.1998
  994MOL0     H34176  10.060   4.852   2.602 -2.1305  0.6951 -0.0526
  994MOL0     H34177  10.295   4.869   2.515  1.6682 -0.2538 -3.4727
  994MOL0     H34178  10.519   5.243   2.412  1.4791 -1.7650  1.4210
  994MOL0     H34179  10.746   5.363   2.428  0.3351  1.2127 -0.3458
  994MOL0     H34180  10.915   5.469   2.388  2.0393  1.6073  1.3098
  994MOL0     H34181  10.971   5.328   2.475  2.2893  0.3111  0.5391
  994MOL0     H34182  11.127   5.463   2.509  1.5727 -2.5173 -0.1623
  994MOL0     H34183  11.127   5.531   2.342  3.3338 -0.7807 -1.3396
  994MOL0     H34184  11.230   5.306   2.272 -1.3700 -0.8423  0.9355
  994MOL0     H34185  11.236   5.257   2.436 -2.0072 -1.1678 -0.9648
  994MOL0     H34186  11.361   5.488   2.483  2.0192 -0.6338  0.9229
  994MOL0     H34187  11.378   5.512   2.311  1.6831 -0.0066  0.4420
  994MOL0     H34188  11.701   5.254   2.376  0.5366  0.6315  1.6950
  994MOL0     H34189  10.888   5.153   2.092  0.1274  1.5555  1.3229
  994MOL0     H34190  10.648   5.035   2.068 -0.8421 -1.1572  1.2116
  995MOL0     O34191   6.767   1.532   3.740  0.0102  0.2423  0.0268
  995MOL0     C34192   6.749   1.419   3.777  1.1510 -0.8547 -0.5564
  995MOL0     O34193   6.622   1.364   3.815 -0.2643 -0.6605 -0.4027
  995MOL0     C34194   6.518   1.449   3.850  0.4313 -0.4954  0.0867
  995MOL0     C34195   6.527   1.535   3.952 -0.0024  0.5549 -0.0309
  995MOL0     C34196   6.419   1.614   3.994 -0.0379 -0.2142  0.6780
  995MOL0     C34197   6.296   1.610   3.919 -1.2408 -0.3354  0.2765
  995MOL0     O34198   6.204   1.704   3.944 -0.1137  0.7231  0.7215
  995MOL0     C34199   6.168   1.719   4.084  0.7913 -0.6391  0.3646
  995MOL0     C34200   6.114   1.590   4.144  0.7643  0.3130 -0.0534
  995MOL0     C34201   5.988   1.534   4.074 -0.7078  0.4200 -0.0381
  995MOL0     C34202   5.954   1.393   4.122  0.1149 -0.2814  1.0616
  995MOL0     C34203   5.819   1.344   4.059 -0.5570 -1.2344 -0.2870
  995MOL0     C34204   5.694   1.418   4.106 -0.6266  0.6081  0.6137
  995MOL0     C34205   5.578   1.387   4.008  0.0170  0.7473  0.0322
  995MOL0     C34206   5.504   1.255   4.047 -0.5488  0.9096  1.0834
  995MOL0     N34207   5.401   1.213   3.951 -0.0463  0.0643 -0.5734
  995MOL0     C34208   5.296   1.287   3.901  0.5264  0.7412 -0.0562
  995MOL0     C34209   5.242   1.214   3.798  0.0146 -0.8936 -0.0849
  995MOL0     C34210   5.138   1.266   3.698  0.8359  0.8582  0.6094
  995MOL0     C34211   5.012   1.179   3.679 -0.1000 -0.2954  1.0345
  995MOL0     C34212   5.045   1.046   3.618 -0.0844 -0.3666 -0.6399
  995MOL0     C34213   4.916   0.969   3.584 -0.7859  0.6503  0.1057
  995MOL0     O34214   4.835   0.935   3.693  0.3635 -0.1069  0.2078
  995MOL0     C34215   4.711   0.878   3.660 -1.4271  0.3328  0.5441
  995MOL0     C34216   4.670   0.825   3.534  0.3738  0.8739  0.6370
  995MOL0     C34217   4.549   0.762   3.515  0.3169  0.6505  0.9342
  995MOL0     C34218   4.506   0.707   3.370 -0.4593 -0.2947  0.5049
  995MOL0     C34219   4.475   0.728   3.630 -1.0008 -0.1210  0.3358
  995MOL0     C34220   4.350   0.649   3.628 -0.0952 -0.2277 -0.4732
  995MOL0     O34221   4.311   0.589   3.743  0.3789 -0.0779 -0.6407
  995MOL0     C34222   4.186   0.541   3.756  0.8888  0.3291  0.2704
  995MOL0     C34223   4.075   0.629   3.756  0.5301 -0.4027  0.8492
  995MOL0     C34224   3.938   0.579   3.761  0.0664 -0.7161 -0.4248
  995MOL0     C34225   3.913   0.446   3.739  0.8142 -0.3360 -0.3907
  995MOL0     O34226   3.780   0.412   3.729 -0.7952  0.0582  0.2710
  995MOL0     C34227   3.752   0.272   3.736  0.2287 -0.6927 -0.1133
  995MOL0     C34228   3.598   0.256   3.739 -0.6025 -0.2858  0.0985
  995MOL0     C34229   3.533   0.205   3.610  0.2561 -0.0496  0.3806
  995MOL0     C34230   3.383   0.247   3.611  0.2129  0.7095  0.1767
  995MOL0     C34231   3.322   0.187   3.483 -0.5765  0.5311  0.0631
  995MOL0     C34232   3.183   0.247   3.460 -0.9556  1.2429  0.4056
  995MOL0     C34233   3.084   0.163   3.547  0.2494  0.7918  0.3230
  995MOL0     C34234   2.945   0.232   3.530 -0.6953 -0.4474 -0.6345
  995MOL0    Cl34235   2.885   0.233   3.360 -0.3953 -0.0133  0.2438
  995MOL0     C34236   4.022   0.348   3.746  0.8661 -0.2521  0.3337
  995MOL0     C34237   4.161   0.401   3.759 -0.2138  0.1683 -0.2689
  995MOL0     O34238   4.281   0.657   3.529 -0.3708 -0.6214 -0.3367
  995MOL0     C34239   4.516   0.783   3.758  0.1343  0.3555  0.0562
  995MOL0     C34240   4.633   0.852   3.774 -0.2039  0.5898  0.3752
  995MOL0     N34241   5.323   1.103   3.781 -0.0703  0.0902  0.0374
  995MOL0     N34242   5.418   1.103   3.866  0.1857 -0.2376 -0.7994
  995MOL0     C34243   6.281   1.520   3.811 -0.6825  0.5232 -0.8769
  995MOL0     C34244   6.397   1.437   3.775 -0.2144 -0.9828  0.5882
  995MOL0     C34245   6.861   1.323   3.781  0.0015  0.4720 -0.0103
  995MOL0     C34246   6.990   1.375   3.764 -0.2833 -0.1013  0.1957
  995MOL0     C34247   7.098   1.289   3.759  1.2283 -0.6503 -0.4027
  995MOL0     C34248   7.087   1.151   3.773 -0.3048  1.0572  1.1987
  995MOL0     O34249   7.194   1.075   3.792 -0.2012  0.1867 -0.0888
  995MOL0     C34250   7.235   0.993   3.680  0.1315  0.5622 -0.6376
  995MOL0     C34251   7.356   0.905   3.723 -0.2124 -0.7278 -0.6914
  995MOL0     C34252   7.483   0.985   3.756 -0.8005 -0.2046 -0.3449
  995MOL0     C34253   7.605   0.961   3.670  0.0795 -0.8329 -0.1450
  995MOL0     C34254   7.657   0.823   3.666 -0.4948 -0.3351  1.0626
  995MOL0     C34255   7.711   0.714   3.689  0.0371 -0.3735 -0.4861
  995MOL0     C34256   6.952   1.100   3.775 -0.4337 -0.8548  1.0193
  995MOL0     C34257   6.844   1.185   3.785 -0.0028 -0.7929  0.2084
  995MOL0     H34258   6.619   1.552   4.006 -0.8239  1.3620  1.1745
  995MOL0     H34259   6.439   1.676   4.082  1.3323 -1.1226  1.0363
  995MOL0     H34260   6.252   1.756   4.143  0.2472  1.7865 -0.2900
  995MOL0     H34261   6.091   1.797   4.084 -0.6995 -1.8748 -3.7326
  995MOL0     H34262   6.195   1.517   4.129 -0.3928 -0.6944 -1.8376
  995MOL0     H34263   6.095   1.603   4.250  2.3167  0.5174  0.2254
  995MOL0     H34264   5.905   1.597   4.106  1.1638  2.1418  1.7560
  995MOL0     H34265   5.998   1.515   3.966  0.9305 -0.0023  0.1623
  995MOL0     H34266   6.031   1.323   4.088  0.5016  0.9131 -0.6191
  995MOL0     H34267   5.948   1.385   4.231 -1.5340 -0.3945  0.9937
  995MOL0     H34268   5.830   1.358   3.951  1.9654  0.3798  0.0968
  995MOL0     H34269   5.805   1.237   4.077 -0.1727 -1.1248  0.7327
  995MOL0     H34270   5.666   1.383   4.206 -0.0492 -1.6115  0.0451
  995MOL0     H34271   5.696   1.527   4.112  1.6681  0.6564 -0.3008
  995MOL0     H34272   5.509   1.469   4.030  0.0904  0.8947 -0.2834
  995MOL0     H34273   5.610   1.389   3.903  1.2905 -1.2600  0.3250
  995MOL0     H34274   5.467   1.251   4.150 -0.1177 -1.2460  1.2213
  995MOL0     H34275   5.579   1.176   4.055  0.3353  1.6648  0.3970
  995MOL0     H34276   5.260   1.374   3.956 -2.8042 -0.5879  0.0668
  995MOL0     H34277   5.105   1.368   3.721 -1.2298  0.6805 -1.2224
  995MOL0     H34278   5.196   1.278   3.607  1.8994  1.6415  1.3618
  995MOL0     H34279   4.943   1.231   3.613 -1.0723 -1.8520  0.7791
  995MOL0     H34280   4.950   1.173   3.769 -0.4280 -0.1695  0.8189
  995MOL0     H34281   5.105   0.986   3.687  3.2540  1.3139 -1.8512
  995MOL0     H34282   5.113   1.054   3.533  2.2002  0.1810  1.1592
  995MOL0     H34283   4.950   0.882   3.527  1.0402  0.2652  1.6809
  995MOL0     H34284   4.848   1.020   3.514 -4.9066 -2.8235  1.1299
  995MOL0     H34285   4.728   0.841   3.443  1.7401 -2.3745  0.8035
  995MOL0     H34286   4.458   0.609   3.373 -1.0071 -0.3128 -3.3827
  995MOL0     H34287   4.435   0.785   3.343  2.4331  2.1070 -0.7984
  995MOL0     H34288   4.572   0.719   3.283 -2.5030  1.2146 -0.9243
  995MOL0     H34289   4.076   0.737   3.769 -3.8543 -0.4625  3.7483
  995MOL0     H34290   3.867   0.661   3.767  0.2670 -0.3892 -2.0101
  995MOL0     H34291   3.800   0.217   3.655 -1.1390 -0.0857 -1.3977
  995MOL0     H34292   3.784   0.236   3.833  1.5679 -1.3305 -0.7752
  995MOL0     H34293   3.566   0.187   3.819 -1.8786  0.1173 -0.0353
  995MOL0     H34294   3.558   0.356   3.756  0.4709 -0.0101  1.0640
  995MOL0     H34295   3.535   0.096   3.607  1.7596 -0.0923  1.5748
  995MOL0     H34296   3.594   0.237   3.526  1.3591 -0.1705  1.1217
  995MOL0     H34297   3.331   0.208   3.699 -0.7758  0.4434 -0.5069
  995MOL0     H34298   3.357   0.353   3.619 -0.7093  0.4645  0.6375
  995MOL0     H34299   3.323   0.078   3.491 -0.4753  0.4305 -1.0653
  995MOL0     H34300   3.383   0.205   3.393 -1.2869 -1.0812 -0.7708
  995MOL0     H34301   3.173   0.354   3.481 -0.9787  1.0006  1.7534
  995MOL0     H34302   3.156   0.248   3.354  0.1693 -0.1194  0.0715
  995MOL0     H34303   3.118   0.171   3.650 -1.0530  1.1309  0.7433
  995MOL0     H34304   3.093   0.058   3.517  3.8306  0.5576  1.7767
  995MOL0     H34305   2.948   0.337   3.559 -1.7940  0.0824 -2.2851
  995MOL0     H34306   2.870   0.192   3.599 -0.9865  2.1622  0.6970
  995MOL0     H34307   3.999   0.242   3.748  3.7597 -1.0087 -0.8613
  995MOL0     H34308   4.241   0.328   3.762  0.9773  1.4479  0.5093
  995MOL0     H34309   4.460   0.768   3.850  0.4714  2.2966  0.6120
  995MOL0     H34310   4.669   0.877   3.873 -4.4230  1.9568  1.7999
  995MOL0     H34311   6.186   1.526   3.758 -0.9105  2.4617 -0.3390
  995MOL0     H34312   6.376   1.373   3.690 -1.2622  0.5373 -0.3404
  995MOL0     H34313   7.016   1.480   3.776 -2.5195  0.5460 -0.2590
  995MOL0     H34314   7.199   1.329   3.751  1.7817 -1.9652 -0.2725
  995MOL0     H34315   7.152   0.929   3.649 -0.6922  1.4436 -0.2840
  995MOL0     H34316   7.267   1.054   3.594  1.9576 -0.0308 -0.4384
  995MOL0     H34317   7.371   0.825   3.651 -3.4880 -2.6813  0.5788
  995MOL0     H34318   7.325   0.861   3.819  0.0144 -2.3581 -1.3372
  995MOL0     H34319   7.511   0.962   3.859 -2.7304  0.1528  0.3088
  995MOL0     H34320   7.450   1.089   3.768 -0.9966 -0.3954  0.9785
  995MOL0     H34321   7.688   1.014   3.716  1.1643 -1.9397 -0.7760
  995MOL0     H34322   7.580   1.007   3.573  0.8182  2.0724  0.9493
  995MOL0     H34323   7.760   0.621   3.705 -1.8603 -1.2999  0.1924
  995MOL0     H34324   6.951   0.992   3.778 -0.8271 -0.8653  0.6288
  995MOL0     H34325   6.750   1.131   3.782 -0.1471 -0.8988 -6.0856
  996MOL0     O34326  10.751   6.595   4.791  0.8841  0.2259  0.1025
  996MOL0     C34327  10.769   6.494   4.860  0.1521 -0.2263  0.7192
  996MOL0     O34328  10.666   6.420   4.916 -0.0714 -0.4254  0.3756
  996MOL0     C34329  10.535   6.456   4.903  0.5119 -0.3712 -0.4825
  996MOL0     C34330  10.443   6.365   4.866  0.5437  0.2779 -0.1785
  996MOL0     C34331  10.306   6.401   4.858 -0.1720 -0.1997  0.6178
  996MOL0     C34332  10.260   6.534   4.895 -0.0387 -0.0207  0.6592
  996MOL0     O34333  10.128   6.556   4.871  0.1937 -0.0485 -0.0637
  996MOL0     C34334  10.072   6.679   4.896  0.0288  0.5962 -0.1339
  996MOL0     C34335   9.923   6.663   4.933  0.1328  0.0260  0.1293
  996MOL0     C34336   9.845   6.810   4.935 -0.9130  0.2525 -0.5783
  996MOL0     C34337   9.909   6.925   5.028  0.9594  0.4774  0.2103
  996MOL0     C34338   9.805   7.032   5.064 -0.1388 -0.6151  0.6431
  996MOL0     C34339   9.724   7.095   4.952  0.4982  0.3084 -0.5690
  996MOL0     C34340   9.595   7.174   4.994 -0.3893  0.1299  0.2231
  996MOL0     C34341   9.630   7.294   5.090  0.8876  0.6118  0.4089
  996MOL0     N34342   9.734   7.382   5.034 -0.3791 -0.0043  0.2048
  996MOL0     C34343   9.704   7.482   4.951 -0.0235 -0.6861 -0.1472
  996MOL0     C34344   9.818   7.555   4.946  0.2295 -0.4357  0.5688
  996MOL0     C34345   9.841   7.687   4.867  0.7841  0.5613 -0.1313
  996MOL0     C34346   9.929   7.792   4.942 -0.1557  0.0489 -0.2969
  996MOL0     C34347  10.074   7.736   4.958  0.5351  0.3493  0.9257
  996MOL0     C34348  10.135   7.656   4.842  0.1208  0.6320 -0.1277
  996MOL0     O34349  10.280   7.648   4.846 -0.5748  0.4343 -0.6687
  996MOL0     C34350  10.338   7.579   4.946 -0.6150 -0.6593 -1.1747
  996MOL0     C34351  10.283   7.479   5.030  0.3656 -0.3954 -0.0581
  996MOL0     C34352  10.353   7.417   5.130 -0.0753 -0.3184  0.3163
  996MOL0     C34353  10.271   7.316   5.214  0.1988  0.9264 -0.5545
  996MOL0     C34354  10.489   7.445   5.163  0.5396  0.4327 -0.1081
  996MOL0     C34355  10.570   7.382   5.266  0.8458  0.4759 -1.2574
  996MOL0     O34356  10.699   7.397   5.252  0.2730 -0.9184  0.2674
  996MOL0     C34357  10.784   7.372   5.361  0.1338 -0.4509  0.7907
  996MOL0     C34358  10.907   7.319   5.333 -0.3452 -0.0055 -0.3912
  996MOL0     C34359  10.984   7.283   5.443  0.6128  1.1268  0.1223
  996MOL0     C34360  10.950   7.302   5.578  0.5613  0.6823  0.8776
  996MOL0     O34361  11.040   7.254   5.675 -0.4114 -0.2952  0.3621
  996MOL0     C34362  11.041   7.311   5.811  0.6268 -0.4003 -0.2703
  996MOL0     C34363  11.175   7.286   5.873 -0.4862 -0.9944  0.4357
  996MOL0     C34364  11.199   7.139   5.895  0.0769  0.0125  1.0505
  996MOL0     C34365  11.329   7.096   5.969 -0.0749 -0.6896 -0.1102
  996MOL0     C34366  11.353   6.950   5.986  0.0631  0.8156 -0.6672
  996MOL0     C34367  11.480   6.910   6.076  0.3313  0.2327 -0.2059
  996MOL0     C34368  11.488   6.764   6.116 -0.4692 -0.8760 -0.0282
  996MOL0     C34369  11.613   6.729   6.205 -0.5906  1.0187  0.2689
  996MOL0    Cl34370  11.608   6.810   6.365 -0.0454 -0.0084  0.1024
  996MOL0     C34371  10.833   7.372   5.610 -0.7392  0.0850 -0.5165
  996MOL0     C34372  10.751   7.414   5.502  0.1148  0.1795  0.6810
  996MOL0     O34373  10.514   7.322   5.359  0.1790 -0.3644  0.0338
  996MOL0     C34374  10.546   7.549   5.082  0.0542  0.2628  0.2177
  996MOL0     C34375  10.471   7.603   4.975 -0.8843  0.0714  0.2076
  996MOL0     N34376   9.911   7.490   5.030 -0.4886 -1.6649 -0.1094
  996MOL0     N34377   9.859   7.390   5.080  0.3820 -0.3036 -0.0664
  996MOL0     C34378  10.360   6.630   4.920 -0.5724  0.8429  0.0481
  996MOL0     C34379  10.498   6.592   4.931  0.2596  0.7258 -0.2234
  996MOL0     C34380  10.917   6.468   4.884  0.4935 -0.1509  0.2476
  996MOL0     C34381  10.957   6.367   4.978  0.4694  0.1888  0.3468
  996MOL0     C34382  11.091   6.322   4.975 -0.1922  0.8745 -1.0906
  996MOL0     C34383  11.199   6.390   4.900 -0.0297 -0.3833  0.9462
  996MOL0     O34384  11.330   6.350   4.891 -0.3404  0.4161  0.8138
  996MOL0     C34385  11.357   6.209   4.862 -0.4042  0.5219  0.0747
  996MOL0     C34386  11.506   6.188   4.857  0.2354  0.0207  0.5658
  996MOL0     C34387  11.549   6.209   4.714 -0.7246  0.4392  0.7056
  996MOL0     C34388  11.699   6.198   4.690  0.1829 -0.4092 -0.0451
  996MOL0     C34389  11.744   6.060   4.711  0.4253 -0.4017 -0.4243
  996MOL0     C34390  11.784   5.947   4.727 -0.0711 -0.5759  0.7795
  996MOL0     C34391  11.152   6.509   4.832  0.6473 -0.1326  1.2258
  996MOL0     C34392  11.016   6.540   4.814 -0.2949 -0.9779 -0.3384
  996MOL0     H34393  10.472   6.265   4.836 -0.4778  0.8968 -3.6374
  996MOL0     H34394  10.234   6.328   4.823 -0.6851 -0.8928  2.9738
  996MOL0     H34395  10.111   6.720   4.990  0.3310 -3.5740  1.7615
  996MOL0     H34396  10.086   6.751   4.815  3.0204  0.0362 -0.2095
  996MOL0     H34397   9.890   6.612   4.842  1.0526  0.7767 -0.6575
  996MOL0     H34398   9.910   6.602   5.022 -0.8025 -0.3590 -0.2542
  996MOL0     H34399   9.836   6.863   4.840 -0.4611  3.7191  1.1256
  996MOL0     H34400   9.744   6.797   4.977 -0.3657  3.0724  2.0293
  996MOL0     H34401   9.953   6.886   5.119 -2.4282 -0.5514  1.5510
  996MOL0     H34402   9.986   6.970   4.965  0.3851  0.3735 -0.5838
  996MOL0     H34403   9.745   6.993   5.146  2.7470 -1.0233  2.7180
  996MOL0     H34404   9.858   7.114   5.113  0.8941 -0.7838 -0.1495
  996MOL0     H34405   9.785   7.146   4.876 -0.3742  0.9625 -0.8467
  996MOL0     H34406   9.694   7.010   4.890  1.1443  0.5696 -1.2707
  996MOL0     H34407   9.550   7.218   4.905 -0.5928  1.5221  0.9995
  996MOL0     H34408   9.511   7.112   5.028 -1.5564  1.8614  0.6381
  996MOL0     H34409   9.669   7.255   5.184  2.2105  2.5357  0.7140
  996MOL0     H34410   9.543   7.357   5.109 -0.0379 -0.6843  0.6371
  996MOL0     H34411   9.616   7.511   4.895 -0.9551 -1.6980  0.7258
  996MOL0     H34412   9.873   7.645   4.771 -2.1110 -3.5898  0.4084
  996MOL0     H34413   9.742   7.732   4.857  1.5950  2.0030 -2.5315
  996MOL0     H34414   9.889   7.816   5.040 -3.9393 -0.5568 -1.5353
  996MOL0     H34415   9.931   7.888   4.889 -1.1683  0.5160  0.4838
  996MOL0     H34416  10.088   7.677   5.049 -0.8287  0.7852  1.4373
  996MOL0     H34417  10.141   7.820   4.982 -0.7830  0.6968  3.8953
  996MOL0     H34418  10.110   7.698   4.744 -1.2167  1.2967  0.4880
  996MOL0     H34419  10.102   7.552   4.838 -3.0868  1.4481 -5.6196
  996MOL0     H34420  10.178   7.451   5.025 -0.0364  1.0827 -0.2858
  996MOL0     H34421  10.320   7.226   5.251 -1.9897  0.3217  1.0730
  996MOL0     H34422  10.237   7.372   5.302 -0.5844  1.0001 -0.8981
  996MOL0     H34423  10.181   7.272   5.170  0.3631 -1.6545  1.4413
  996MOL0     H34424  10.941   7.310   5.230 -3.6674 -0.3592 -1.5991
  996MOL0     H34425  11.069   7.217   5.434 -1.3233 -1.5541  0.2829
  996MOL0     H34426  11.032   7.419   5.798 -0.3933 -0.3512  0.6700
  996MOL0     H34427  10.961   7.283   5.881  0.3677  1.4256  0.2187
  996MOL0     H34428  11.250   7.330   5.806  2.2016 -1.0377  3.2128
  996MOL0     H34429  11.170   7.339   5.968 -2.1162  1.4548 -0.9247
  996MOL0     H34430  11.190   7.086   5.799 -1.3127  1.8981  0.0812
  996MOL0     H34431  11.115   7.099   5.953 -0.9765 -1.3005 -1.2156
  996MOL0     H34432  11.418   7.149   5.936 -0.4694  0.4936  0.6359
  996MOL0     H34433  11.314   7.126   6.073  0.0188 -1.6503  0.1811
  996MOL0     H34434  11.367   6.893   5.893  1.4778  3.0614 -1.9222
  996MOL0     H34435  11.260   6.915   6.034  0.2265 -1.0807 -1.6077
  996MOL0     H34436  11.575   6.919   6.022 -0.9113 -4.3726 -3.8716
  996MOL0     H34437  11.477   6.970   6.167 -3.6407  2.1044 -1.2975
  996MOL0     H34438  11.495   6.699   6.028  1.1095 -0.8733  0.0615
  996MOL0     H34439  11.397   6.739   6.172 -0.0171  1.0081  1.6658
  996MOL0     H34440  11.707   6.757   6.156  0.1639 -1.1810  0.3640
  996MOL0     H34441  11.610   6.624   6.237  1.3503  0.9347  0.3508
  996MOL0     H34442  10.809   7.390   5.714  0.3731 -1.5561  0.0774
  996MOL0     H34443  10.668   7.480   5.523  2.6909  4.0502 -0.1819
  996MOL0     H34444  10.641   7.596   5.105  0.5280  0.5825 -2.1480
  996MOL0     H34445  10.513   7.665   4.897 -1.7482 -0.1741 -0.4710
  996MOL0     H34446  10.345   6.734   4.947  0.4757  0.8651  0.6257
  996MOL0     H34447  10.566   6.667   4.971  0.0479 -0.2366  2.1391
  996MOL0     H34448  10.887   6.317   5.043  1.5078  3.6136  4.5554
  996MOL0     H34449  11.107   6.233   5.034  0.0460  0.9244 -1.0770
  996MOL0     H34450  11.320   6.144   4.942  0.9402  0.6104  0.7929
  996MOL0     H34451  11.305   6.187   4.768  0.3026 -1.4859  0.0993
  996MOL0     H34452  11.546   6.093   4.894  2.2761  1.0350  1.0862
  996MOL0     H34453  11.554   6.255   4.929  2.3839 -1.2298  0.3860
  996MOL0     H34454  11.519   6.310   4.688 -1.1468  0.5875  1.7087
  996MOL0     H34455  11.497   6.147   4.641  1.3272  0.6051 -0.9656
  996MOL0     H34456  11.757   6.276   4.741 -0.0736  1.8379 -2.9042
  996MOL0     H34457  11.729   6.219   4.587 -0.7054 -1.0803 -0.4504
  996MOL0     H34458  11.812   5.846   4.751 -0.9881 -0.7515  1.1704
  996MOL0     H34459  11.231   6.564   4.781 -0.6450 -0.5034 -1.3216
  996MOL0     H34460  10.999   6.631   4.757 -0.6554 -1.4586 -1.0065
  997MOL0     O34461   4.343   0.396   8.257 -0.5254 -0.1625 -0.5045
  997MOL0     C34462   4.243   0.428   8.315 -0.6071  0.4635  0.3343
  997MOL0     O34463   4.234   0.483   8.442 -0.2582  0.7200  0.1503
  997MOL0     C34464   4.330   0.520   8.527 -0.3749  0.1166 -0.3184
  997MOL0     C34465   4.297   0.542   8.663 -0.6605  0.1251  0.5545
  997MOL0     C34466   4.397   0.574   8.755 -0.0399 -0.0787 -0.3071
  997MOL0     C34467   4.526   0.596   8.713 -1.1409  0.2146 -0.2549
  997MOL0     O34468   4.608   0.661   8.806  0.3391  0.1021 -0.8417
  997MOL0     C34469   4.741   0.659   8.785  0.0706  1.0869  0.2684
  997MOL0     C34470   4.804   0.664   8.922 -0.2232 -0.0198 -0.1376
  997MOL0     C34471   4.799   0.820   8.960 -0.2986  0.8341  0.1110
  997MOL0     C34472   4.903   0.916   8.899  0.2536 -0.4524  0.1089
  997MOL0     C34473   4.854   1.070   8.908 -0.1557  0.2161  0.1740
  997MOL0     C34474   4.755   1.116   8.798 -0.2783  0.1561 -0.4090
  997MOL0     C34475   4.793   1.071   8.654 -0.1126 -0.9856 -0.5835
  997MOL0     C34476   4.696   1.155   8.557 -0.9048  0.5349 -0.0082
  997MOL0     N34477   4.555   1.127   8.575  0.2574 -0.0314 -1.1726
  997MOL0     C34478   4.507   0.997   8.546  0.6078 -0.4011  0.6959
  997MOL0     C34479   4.377   0.996   8.576  0.4615 -0.3185  0.4805
  997MOL0     C34480   4.271   0.893   8.551 -0.6432  0.1996  0.0112
  997MOL0     C34481   4.132   0.931   8.593  0.1823 -0.8476  0.1862
  997MOL0     C34482   4.020   0.830   8.559 -0.5355  0.1892 -0.6366
  997MOL0     C34483   4.021   0.753   8.420  1.0705  0.7383 -0.2247
  997MOL0     O34484   3.987   0.835   8.310 -0.5197  0.2945  0.2585
  997MOL0     C34485   3.983   0.778   8.187 -0.6553 -0.2777 -0.2421
  997MOL0     C34486   3.859   0.774   8.119  0.2274 -0.1671 -0.4481
  997MOL0     C34487   3.839   0.699   8.005 -0.3020  0.3779  0.3823
  997MOL0     C34488   3.703   0.698   7.945  0.7343  0.1955 -0.0813
  997MOL0     C34489   3.947   0.624   7.948 -0.8521 -0.3206  0.8715
  997MOL0     C34490   3.941   0.560   7.807  0.1816 -0.1191 -0.6684
  997MOL0     O34491   3.826   0.556   7.743 -0.3325 -0.2755 -0.1747
  997MOL0     C34492   3.817   0.476   7.631  0.2723  0.3521 -0.4148
  997MOL0     C34493   3.750   0.356   7.653  1.4340  0.2019 -0.1001
  997MOL0     C34494   3.742   0.256   7.550  0.0210 -0.2442  0.6367
  997MOL0     C34495   3.790   0.296   7.418 -0.4665  0.2113 -0.0684
  997MOL0     O34496   3.779   0.211   7.301  0.2095 -0.5186 -0.2426
  997MOL0     C34497   3.759   0.072   7.306 -0.3868  0.1322  0.2874
  997MOL0     C34498   3.738   0.018   7.166  0.6141  0.2102 -1.0753
  997MOL0     C34499   3.869   0.039   7.083  0.3789  1.0624  0.2543
  997MOL0     C34500   3.970  -0.077   7.110  0.3273 -0.5727  0.0310
  997MOL0     C34501   4.099  -0.075   7.025 -0.7833 -0.2680  0.2167
  997MOL0     C34502   4.077  -0.109   6.878  0.2298  0.7058 -0.3064
  997MOL0     C34503   4.213  -0.131   6.805  0.1007 -0.2691 -0.0174
  997MOL0     C34504   4.218  -0.117   6.651  0.6159  0.2545 -0.1747
  997MOL0    Cl34505   4.125  -0.238   6.575 -0.2776 -0.2090  0.0237
  997MOL0     C34506   3.850   0.423   7.396  0.1644  0.6579 -0.5321
  997MOL0     C34507   3.859   0.508   7.503  0.4707  0.9673  0.0433
  997MOL0     O34508   4.045   0.505   7.773 -0.1727  0.0622 -0.1954
  997MOL0     C34509   4.075   0.638   8.014 -0.2046  0.0568  0.4278
  997MOL0     C34510   4.098   0.718   8.119  0.2831  1.0086  0.6257
  997MOL0     N34511   4.347   1.128   8.616 -0.3436  0.7455  0.1709
  997MOL0     N34512   4.450   1.207   8.616 -0.5679 -0.0224  0.4359
  997MOL0     C34513   4.563   0.572   8.584  0.0149  0.9727 -0.0799
  997MOL0     C34514   4.466   0.528   8.492 -0.5345 -0.0957 -0.0477
  997MOL0     C34515   4.112   0.402   8.265 -0.0156  0.1643  0.7194
  997MOL0     C34516   4.107   0.348   8.135  0.7723  0.6862 -0.5323
  997MOL0     C34517   3.975   0.346   8.075 -0.4983 -0.7872  0.0429
  997MOL0     C34518   3.864   0.372   8.151  0.7886  0.0328 -0.6758
  997MOL0     O34519   3.748   0.372   8.069  0.2313  0.5925 -0.5373
  997MOL0     C34520   3.614   0.381   8.130 -0.5437 -0.3922  0.4601
  997MOL0     C34521   3.503   0.366   8.017 -0.9858  1.0021 -0.8356
  997MOL0     C34522   3.495   0.226   7.963  0.8658  0.7519  0.3259
  997MOL0     C34523   3.367   0.183   7.893 -0.3589  0.4416 -0.1221
  997MOL0     C34524   3.251   0.168   7.980 -0.2871  0.6602  0.1628
  997MOL0     C34525   3.157   0.134   8.047 -0.3551  0.2024  0.1586
  997MOL0     C34526   3.873   0.397   8.290  0.4623  0.4125 -0.8826
  997MOL0     C34527   3.996   0.418   8.347 -0.0246 -0.4186 -0.4184
  997MOL0     H34528   4.193   0.544   8.696  0.2294  1.6536  3.6272
  997MOL0     H34529   4.362   0.576   8.857  0.1135  0.7654 -0.2665
  997MOL0     H34530   4.776   0.566   8.739 -0.6915  1.2430 -0.6421
  997MOL0     H34531   4.763   0.743   8.717  0.3376 -0.9005 -2.2382
  997MOL0     H34532   4.747   0.602   8.992 -2.5679  1.1218 -0.9259
  997MOL0     H34533   4.903   0.618   8.909  0.5132  2.1671 -3.8535
  997MOL0     H34534   4.698   0.861   8.946  0.0701  1.6778 -0.1604
  997MOL0     H34535   4.818   0.828   9.068  2.7111 -0.2871 -0.2527
  997MOL0     H34536   4.997   0.898   8.951 -1.3769  1.5843  4.1754
  997MOL0     H34537   4.919   0.886   8.795 -0.9945  1.3420 -0.6672
  997MOL0     H34538   4.804   1.094   9.002 -2.1213  2.6782 -1.3713
  997MOL0     H34539   4.934   1.142   8.895 -2.5177  3.2322  1.2637
  997MOL0     H34540   4.662   1.062   8.815  0.5186 -2.0217 -2.3905
  997MOL0     H34541   4.751   1.224   8.811 -0.7247 -0.1623  3.0490
  997MOL0     H34542   4.890   1.119   8.642 -1.6144  1.8419 -2.6520
  997MOL0     H34543   4.797   0.965   8.626  2.1049 -1.4253  1.1303
  997MOL0     H34544   4.719   1.125   8.454 -0.5671 -1.0705  0.5018
  997MOL0     H34545   4.717   1.261   8.574 -2.0913  0.4517  2.4277
  997MOL0     H34546   4.564   0.917   8.501  2.0361  0.3065  1.2042
  997MOL0     H34547   4.266   0.873   8.444 -0.7588 -3.1972  0.5574
  997MOL0     H34548   4.302   0.801   8.600 -0.8846  0.7631  1.2623
  997MOL0     H34549   4.103   1.020   8.536 -0.2933 -1.3412 -0.3589
  997MOL0     H34550   4.144   0.955   8.699 -1.7827  1.7598 -0.0804
  997MOL0     H34551   3.917   0.864   8.568 -1.0795 -1.2642 -1.0876
  997MOL0     H34552   4.023   0.748   8.632 -0.8411  0.3355 -0.4580
  997MOL0     H34553   3.936   0.684   8.422  0.4984  1.3342 -2.1153
  997MOL0     H34554   4.115   0.701   8.399 -0.1164 -1.4272 -0.4455
  997MOL0     H34555   3.781   0.833   8.166  0.5950  0.1022 -0.1797
  997MOL0     H34556   3.628   0.741   8.013  0.4927  1.4160 -1.0712
  997MOL0     H34557   3.695   0.766   7.859 -0.1958  0.3145  0.0891
  997MOL0     H34558   3.672   0.599   7.913 -0.3877  0.3704  0.4159
  997MOL0     H34559   3.696   0.340   7.745 -0.9297 -1.9180 -1.7038
  997MOL0     H34560   3.693   0.160   7.558 -1.7750  0.2488 -2.6190
  997MOL0     H34561   3.840   0.011   7.347 -2.2613 -3.0880 -0.4079
  997MOL0     H34562   3.674   0.052   7.373  0.7839 -0.3018  1.6977
  997MOL0     H34563   3.711  -0.088   7.173  1.8227 -0.0511  0.0043
  997MOL0     H34564   3.654   0.068   7.117 -0.8238 -1.6757 -0.6932
  997MOL0     H34565   3.914   0.135   7.110 -1.2075  2.4083 -1.6522
  997MOL0     H34566   3.847   0.039   6.976  1.9790  0.3434 -0.1039
  997MOL0     H34567   4.000  -0.076   7.215  0.4134  1.1298  0.0133
  997MOL0     H34568   3.923  -0.175   7.094  1.1244 -1.5574  3.0841
  997MOL0     H34569   4.169  -0.148   7.067  1.1126  0.8768 -0.7643
  997MOL0     H34570   4.143   0.025   7.038 -3.0475  0.4844  3.1610
  997MOL0     H34571   4.014  -0.198   6.869 -2.8366  2.9489 -3.6512
  997MOL0     H34572   4.024  -0.027   6.828  1.7167  1.3330 -0.9221
  997MOL0     H34573   4.252  -0.230   6.831 -0.6718 -0.7179 -0.5070
  997MOL0     H34574   4.268  -0.050   6.854 -1.6766  1.2155 -0.3553
  997MOL0     H34575   4.319  -0.121   6.609  0.2211 -3.6819 -1.1862
  997MOL0     H34576   4.172  -0.021   6.627  1.2443  0.7262  0.4467
  997MOL0     H34577   3.882   0.453   7.297 -2.2559  2.1892 -0.9536
  997MOL0     H34578   3.928   0.589   7.481  1.9890 -0.3828 -0.3452
  997MOL0     H34579   4.156   0.578   7.973 -2.0223 -1.2415 -1.4660
  997MOL0     H34580   4.199   0.719   8.159 -0.1416  0.3549  1.7549
  997MOL0     H34581   4.652   0.605   8.530  0.3881 -2.0576 -1.4986
  997MOL0     H34582   4.490   0.511   8.388  1.9610  3.3946 -0.2224
  997MOL0     H34583   4.197   0.326   8.078  0.6545 -1.1936 -0.0748
  997MOL0     H34584   3.947   0.324   7.973 -0.1316 -0.8445 -0.0488
  997MOL0     H34585   3.597   0.316   8.217  0.0368 -0.9557  0.1591
  997MOL0     H34586   3.620   0.482   8.172  2.1428  0.7324 -2.2004
  997MOL0     H34587   3.532   0.429   7.933 -1.8712  0.4642 -1.5620
  997MOL0     H34588   3.408   0.399   8.060  0.0029  2.1202  0.6028
  997MOL0     H34589   3.516   0.150   8.039  3.1419  1.3159  0.3430
  997MOL0     H34590   3.578   0.217   7.892  0.9707  1.1574  0.3933
  997MOL0     H34591   3.376   0.090   7.837 -1.0023  0.5893 -0.4950
  997MOL0     H34592   3.346   0.266   7.824  0.3382  0.2466 -0.5729
  997MOL0     H34593   3.067   0.103   8.097 -1.8226  1.9375 -1.2439
  997MOL0     H34594   3.782   0.395   8.349 -0.6411  0.9590 -2.4673
  997MOL0     H34595   3.985   0.440   8.452  0.1931 -0.2472 -0.4285
  998MOL0     O34596   7.330   4.117   2.046 -0.2727 -0.5325 -0.3585
  998MOL0     C34597   7.423   4.071   2.107  0.4699  0.5765 -0.1720
  998MOL0     O34598   7.509   3.968   2.062 -0.2328 -0.4962 -0.2296
  998MOL0     C34599   7.490   3.913   1.939  0.3235 -0.1865  0.0339
  998MOL0     C34600   7.510   3.776   1.939 -0.0405 -0.4595 -1.1569
  998MOL0     C34601   7.511   3.711   1.819  1.4297 -0.3098  0.0139
  998MOL0     C34602   7.468   3.771   1.695 -0.2788  0.2544 -0.1518
  998MOL0     O34603   7.449   3.710   1.579 -0.0285  0.1914 -0.5133
  998MOL0     C34604   7.366   3.586   1.569 -0.3410  0.1003  0.3984
  998MOL0     C34605   7.234   3.585   1.651 -0.2124 -0.1635  0.7133
  998MOL0     C34606   7.148   3.460   1.653  0.2187 -0.2976  0.1782
  998MOL0     C34607   7.029   3.497   1.745  0.0773  0.0370  0.2903
  998MOL0     C34608   6.938   3.372   1.741  0.5384 -0.3561 -0.2964
  998MOL0     C34609   6.796   3.422   1.758 -0.3532 -0.4401 -0.6291
  998MOL0     C34610   6.686   3.318   1.756  0.2212  0.2807  0.3751
  998MOL0     C34611   6.653   3.295   1.608  0.3308 -0.8226  1.1451
  998MOL0     N34612   6.558   3.185   1.587 -0.3570  1.0561 -0.5401
  998MOL0     C34613   6.418   3.202   1.598 -0.7437  0.3016  0.4584
  998MOL0     C34614   6.355   3.094   1.540  0.8804  0.2793 -0.0240
  998MOL0     C34615   6.212   3.078   1.532  0.1537  0.1036  0.6533
  998MOL0     C34616   6.171   2.948   1.603  0.7774  0.5281 -0.2287
  998MOL0     C34617   6.217   2.925   1.756 -0.4400  0.8583 -0.1506
  998MOL0     C34618   6.157   3.029   1.847  0.2185 -0.0786 -0.0054
  998MOL0     O34619   6.013   3.045   1.837 -0.4752  0.3216  0.2535
  998MOL0     C34620   5.942   2.941   1.904 -0.4372  0.1175  0.4159
  998MOL0     C34621   5.808   2.949   1.885  0.1618  0.3266  0.5074
  998MOL0     C34622   5.722   2.852   1.931  0.1180  0.2385  0.0747
  998MOL0     C34623   5.577   2.876   1.888 -0.1096 -0.0660  0.6821
  998MOL0     C34624   5.766   2.744   2.018  0.1715 -1.0306  0.5418
  998MOL0     C34625   5.682   2.641   2.083 -0.1080  0.0404  1.0066
  998MOL0     O34626   5.566   2.619   2.016 -0.4759 -0.1194 -0.0128
  998MOL0     C34627   5.510   2.496   2.010 -0.0084 -0.2440  0.3698
  998MOL0     C34628   5.551   2.379   2.075  0.2310  0.4140  0.3203
  998MOL0     C34629   5.484   2.261   2.072  0.3549  0.3445  0.3320
  998MOL0     C34630   5.361   2.254   2.001 -0.1000 -0.3081 -0.3275
  998MOL0     O34631   5.293   2.132   1.982 -0.0526 -0.9930  0.5304
  998MOL0     C34632   5.188   2.102   1.889 -1.0513 -0.1831 -0.1595
  998MOL0     C34633   5.075   2.122   1.986  0.2898  0.1010 -0.4380
  998MOL0     C34634   4.934   2.099   1.922 -0.8255 -0.3559  0.1528
  998MOL0     C34635   4.820   2.182   1.982 -0.2685  0.5164 -1.0647
  998MOL0     C34636   4.700   2.157   1.886  0.1849 -0.6783 -0.5855
  998MOL0     C34637   4.652   2.009   1.874  0.1269  0.3632  0.2935
  998MOL0     C34638   4.519   1.995   1.805  0.4459  0.0348  0.2991
  998MOL0     C34639   4.476   1.847   1.797 -0.1401 -0.3909 -0.1074
  998MOL0    Cl34640   4.341   1.838   1.685 -0.0075  0.2290  0.5147
  998MOL0     C34641   5.307   2.375   1.946  0.9296  0.1873 -0.5154
  998MOL0     C34642   5.388   2.486   1.949  0.2107  0.0513  0.2191
  998MOL0     O34643   5.716   2.586   2.185 -0.3735  0.1186  0.0669
  998MOL0     C34644   5.905   2.740   2.042 -0.0349 -0.1153 -0.8226
  998MOL0     C34645   5.990   2.837   1.986  0.3154  0.0879  0.3731
  998MOL0     N34646   6.459   3.014   1.493  0.3128  0.5465 -0.0203
  998MOL0     N34647   6.578   3.066   1.521 -0.6133  0.1995 -0.4573
  998MOL0     C34648   7.441   3.906   1.704 -0.3169 -0.2254  0.1231
  998MOL0     C34649   7.454   3.990   1.822 -1.2305 -0.7845 -0.0350
  998MOL0     C34650   7.450   4.129   2.239  0.2292 -0.3475 -0.4129
  998MOL0     C34651   7.379   4.237   2.293  0.5933 -0.0687  0.3965
  998MOL0     C34652   7.421   4.292   2.417  0.0439  0.0944 -0.2711
  998MOL0     C34653   7.535   4.250   2.482 -0.6151  0.7992 -0.0994
  998MOL0     O34654   7.568   4.314   2.601  0.1557  0.2785 -0.3700
  998MOL0     C34655   7.690   4.285   2.677  0.2078  0.6773 -0.0439
  998MOL0     C34656   7.741   4.418   2.719  0.2730  0.3607 -0.1948
  998MOL0     C34657   7.880   4.413   2.784  0.0761  0.2968  0.2401
  998MOL0     C34658   7.874   4.410   2.936  0.7624  0.3515 -0.4827
  998MOL0     C34659   7.909   4.542   2.991 -0.2001 -0.0566 -0.6798
  998MOL0     C34660   7.939   4.650   3.033 -0.2148 -0.2605  0.6439
  998MOL0     C34661   7.602   4.139   2.426 -0.9717 -0.4652  1.2122
  998MOL0     C34662   7.558   4.078   2.311 -0.3868  1.0521 -0.2708
  998MOL0     H34663   7.519   3.716   2.029 -1.1999  2.0687  0.7706
  998MOL0     H34664   7.532   3.605   1.817 -1.4972 -1.0675  2.1707
  998MOL0     H34665   7.349   3.588   1.461  0.0760  0.4387  0.3368
  998MOL0     H34666   7.432   3.504   1.597  2.5740  2.1841  0.1005
  998MOL0     H34667   7.259   3.614   1.753 -1.4754  0.5369  0.8491
  998MOL0     H34668   7.181   3.676   1.620  2.2281  1.3968  0.8929
  998MOL0     H34669   7.113   3.435   1.552  2.5716 -5.2327  0.2865
  998MOL0     H34670   7.205   3.376   1.693  0.1451  0.0768  1.0913
  998MOL0     H34671   7.063   3.513   1.848  3.4705  0.0468 -0.6931
  998MOL0     H34672   6.976   3.587   1.713 -0.6685  0.2299  1.9885
  998MOL0     H34673   6.945   3.322   1.645  0.2521  0.0390 -0.5283
  998MOL0     H34674   6.959   3.311   1.829  0.3267  1.2644  0.9305
  998MOL0     H34675   6.796   3.475   1.854 -2.5235 -1.8765  0.2323
  998MOL0     H34676   6.782   3.500   1.682  0.1917 -1.1432 -1.4680
  998MOL0     H34677   6.724   3.230   1.809 -0.3698  0.8161  1.7213
  998MOL0     H34678   6.597   3.351   1.809 -1.9016 -3.4922 -0.4515
  998MOL0     H34679   6.743   3.266   1.552  1.2809 -0.6656  2.5346
  998MOL0     H34680   6.613   3.391   1.574  0.2529 -1.8501 -2.0169
  998MOL0     H34681   6.377   3.299   1.626 -0.0767  1.2767 -1.7457
  998MOL0     H34682   6.152   3.159   1.574 -0.4520  0.1514 -0.2660
  998MOL0     H34683   6.180   3.073   1.427 -0.3042 -0.5151  0.8141
  998MOL0     H34684   6.216   2.866   1.547  1.8513  0.4938  0.6396
  998MOL0     H34685   6.062   2.946   1.599  0.7682 -1.0187  0.2823
  998MOL0     H34686   6.327   2.932   1.752 -0.4054  0.0129 -1.0428
  998MOL0     H34687   6.187   2.827   1.792 -0.6224  0.9168 -0.1466
  998MOL0     H34688   6.201   3.128   1.829 -1.1513  0.4916 -0.2793
  998MOL0     H34689   6.192   3.019   1.950 -1.1214  2.1710  0.7296
  998MOL0     H34690   5.768   3.038   1.836 -4.2144 -2.3722 -1.4965
  998MOL0     H34691   5.525   2.784   1.860  2.2591 -1.0504 -0.8305
  998MOL0     H34692   5.509   2.936   1.949 -0.5829  1.6790 -1.4195
  998MOL0     H34693   5.590   2.929   1.793 -2.0135  0.5796  0.7374
  998MOL0     H34694   5.635   2.377   2.144  0.7854 -1.6045 -0.3602
  998MOL0     H34695   5.507   2.165   2.117  0.1457  0.3615  0.4757
  998MOL0     H34696   5.176   2.171   1.805  0.8327 -0.5294 -0.7651
  998MOL0     H34697   5.199   2.001   1.850  3.7440 -1.0467  2.6691
  998MOL0     H34698   5.089   2.049   2.066  0.3806 -0.2222 -0.7418
  998MOL0     H34699   5.084   2.225   2.021  2.5285  0.4531 -1.8603
  998MOL0     H34700   4.911   1.992   1.922  0.8404 -0.8088 -2.4334
  998MOL0     H34701   4.951   2.124   1.817  2.5105 -3.1234 -0.1633
  998MOL0     H34702   4.804   2.174   2.089  0.1187  4.4377 -0.5678
  998MOL0     H34703   4.843   2.287   1.963 -0.8768  0.6151 -1.2780
  998MOL0     H34704   4.713   2.200   1.787 -0.9043  2.5858  0.5680
  998MOL0     H34705   4.621   2.214   1.936  1.4071  0.0902  0.5470
  998MOL0     H34706   4.720   1.948   1.812 -0.5146  1.8886 -2.0470
  998MOL0     H34707   4.657   1.971   1.976  2.3743 -0.5443 -0.0904
  998MOL0     H34708   4.530   2.044   1.709 -1.8931  3.0162  1.3931
  998MOL0     H34709   4.456   2.053   1.873  0.6178  0.6960 -0.1067
  998MOL0     H34710   4.457   1.808   1.897  4.2482 -2.1484  0.2849
  998MOL0     H34711   4.557   1.784   1.759  1.7668  1.8210  0.1042
  998MOL0     H34712   5.210   2.370   1.897  0.0715 -1.2160  1.2338
  998MOL0     H34713   5.354   2.574   1.896 -0.0022  0.2708  0.7133
  998MOL0     H34714   5.939   2.658   2.105  0.9259  0.2822 -0.8209
  998MOL0     H34715   6.098   2.835   2.001  0.3883  3.4187  1.0506
  998MOL0     H34716   7.404   3.938   1.608  2.1147 -1.3022 -1.2717
  998MOL0     H34717   7.434   4.096   1.812 -1.2521 -0.6129  1.5052
  998MOL0     H34718   7.292   4.276   2.242  0.5192  1.3937  1.5542
  998MOL0     H34719   7.364   4.374   2.461  0.0524  0.4340 -0.8859
  998MOL0     H34720   7.665   4.231   2.769  1.7101 -2.8870 -1.5124
  998MOL0     H34721   7.764   4.227   2.621 -1.7062 -1.0794 -0.8864
  998MOL0     H34722   7.669   4.464   2.787 -2.0104 -0.1512 -2.1457
  998MOL0     H34723   7.744   4.477   2.627  2.1709 -0.7395 -0.8870
  998MOL0     H34724   7.942   4.498   2.756  2.4010 -0.7740  1.8303
  998MOL0     H34725   7.933   4.327   2.741  0.5721  0.8802 -0.3256
  998MOL0     H34726   7.940   4.338   2.984 -1.3074 -2.0725 -1.0279
  998MOL0     H34727   7.772   4.384   2.967  0.4249  0.6978 -1.2743
  998MOL0     H34728   7.974   4.738   3.082 -0.4889 -0.1045  0.5615
  998MOL0     H34729   7.691   4.092   2.466 -0.2157 -1.6022 -1.5736
  998MOL0     H34730   7.621   3.992   2.291  2.2121  3.2261 -2.1489
  999MOL0     O34731   3.507   3.109   2.619  0.1412  0.5039 -0.5660
  999MOL0     C34732   3.404   3.089   2.684 -0.2601  0.1395  0.2363
  999MOL0     O34733   3.381   3.125   2.811  0.0856 -0.5349 -0.5881
  999MOL0     C34734   3.465   3.193   2.894 -0.9263  0.0878 -0.6458
  999MOL0     C34735   3.418   3.200   3.023  0.3207  0.4339  0.0750
  999MOL0     C34736   3.481   3.284   3.121 -0.5142  0.9081 -1.0761
  999MOL0     C34737   3.590   3.362   3.084 -0.6021 -0.8216 -0.2154
  999MOL0     O34738   3.637   3.441   3.181  0.5568 -0.3430  0.0943
  999MOL0     C34739   3.746   3.533   3.170  0.3486  0.8409  0.3521
  999MOL0     C34740   3.768   3.592   3.305 -0.1332 -0.5571 -0.0462
  999MOL0     C34741   3.671   3.714   3.339 -0.0298 -0.1468  0.2434
  999MOL0     C34742   3.530   3.672   3.366  0.0472  0.4950  0.2117
  999MOL0     C34743   3.438   3.787   3.383  0.8416  0.3603  0.1101
  999MOL0     C34744   3.294   3.751   3.420 -0.1498 -0.2370  0.3670
  999MOL0     C34745   3.274   3.710   3.564 -0.0584  1.4759 -0.1605
  999MOL0     C34746   3.129   3.674   3.583  0.0939 -0.4297  0.3084
  999MOL0     N34747   3.097   3.553   3.515 -0.0906 -0.1472  0.4624
  999MOL0     C34748   3.089   3.431   3.574  0.4225 -0.0823  0.3892
  999MOL0     C34749   3.049   3.348   3.473  0.6213  0.5802 -0.2530
  999MOL0     C34750   3.031   3.197   3.473 -0.2709  0.1439  0.1495
  999MOL0     C34751   2.896   3.146   3.509  0.1465 -0.3059  0.0378
  999MOL0     C34752   2.902   2.990   3.520  1.0518  0.7163  0.3381
  999MOL0     C34753   2.766   2.929   3.562 -0.1275  0.0456  0.4655
  999MOL0     O34754   2.744   2.955   3.703  0.2052 -0.0326  0.9010
  999MOL0     C34755   2.620   2.928   3.755  0.2643  0.0171  0.9259
  999MOL0     C34756   2.509   2.893   3.679 -0.2529 -0.4348  0.5070
  999MOL0     C34757   2.393   2.855   3.732  1.0973 -0.2008 -0.8730
  999MOL0     C34758   2.284   2.816   3.639  0.0115  0.1349 -0.0342
  999MOL0     C34759   2.380   2.835   3.880  0.1307 -0.1407  0.7936
  999MOL0     C34760   2.267   2.775   3.946 -0.2357 -0.0822 -0.5838
  999MOL0     O34761   2.246   2.795   4.080  0.5313 -0.1297  0.6393
  999MOL0     C34762   2.141   2.733   4.136  0.3189  0.8294 -0.0449
  999MOL0     C34763   2.078   2.800   4.237  0.3058  0.4458 -0.6019
  999MOL0     C34764   1.976   2.735   4.318 -0.2811 -1.1602 -0.1829
  999MOL0     C34765   1.936   2.607   4.292 -0.9788  0.1747 -0.7226
  999MOL0     O34766   1.854   2.531   4.369  0.4941 -0.3126  0.1843
  999MOL0     C34767   1.810   2.576   4.498 -0.1780 -0.3605  0.4435
  999MOL0     C34768   1.693   2.490   4.536  0.5618 -0.8581 -0.2589
  999MOL0     C34769   1.561   2.527   4.464  0.1183  0.5792 -0.8929
  999MOL0     C34770   1.442   2.429   4.488  0.5971 -0.7892 -0.8162
  999MOL0     C34771   1.306   2.453   4.409  0.2510  0.3849  0.5571
  999MOL0     C34772   1.234   2.581   4.456 -0.6240 -0.4777  0.4846
  999MOL0     C34773   1.089   2.567   4.407  0.2110  0.7452  0.1648
  999MOL0     C34774   0.997   2.682   4.445  0.4731 -0.2882 -0.5362
  999MOL0    Cl34775   1.026   2.843   4.369 -0.1576  0.0183 -0.2501
  999MOL0     C34776   1.992   2.538   4.187  0.1056  0.0411 -0.2540
  999MOL0     C34777   2.091   2.596   4.111  0.4080  0.0381 -0.1174
  999MOL0     O34778   2.197   2.712   3.871  0.7018  0.0957 -0.2006
  999MOL0     C34779   2.495   2.877   3.952  0.8455  0.3853  0.1872
  999MOL0     C34780   2.614   2.924   3.897  0.0644  0.1930  0.6343
  999MOL0     N34781   3.013   3.424   3.366 -0.6079 -0.3650 -0.5602
  999MOL0     N34782   3.040   3.541   3.386 -0.0701 -0.4411  0.0277
  999MOL0     C34783   3.648   3.352   2.954  0.5013  0.6513 -0.0329
  999MOL0     C34784   3.581   3.263   2.866  0.6548 -0.0004 -0.3811
  999MOL0     C34785   3.304   3.013   2.609  0.0860 -0.4289  0.1872
  999MOL0     C34786   3.188   2.965   2.678 -0.3173 -0.6084  0.3854
  999MOL0     C34787   3.088   2.894   2.610  0.3164 -0.0284 -0.0510
  999MOL0     C34788   3.099   2.874   2.475  0.2815  0.8122  0.8034
  999MOL0     O34789   3.011   2.798   2.389 -0.7771 -0.9272 -0.0152
  999MOL0     C34790   2.888   2.753   2.444 -0.6765  0.1743  0.0984
  999MOL0     C34791   2.804   2.693   2.334 -0.9544  0.5270 -0.5545
  999MOL0     C34792   2.889   2.573   2.278  0.8008  0.2202 -0.2037
  999MOL0     C34793   2.810   2.494   2.172  0.1182  0.1940 -0.3913
  999MOL0     C34794   2.666   2.462   2.204  0.1472 -0.3606  0.0497
  999MOL0     C34795   2.551   2.425   2.231  0.0959  0.1361  0.3870
  999MOL0     C34796   3.209   2.931   2.407  0.1085  0.0256 -0.2938
  999MOL0     C34797   3.312   2.998   2.471 -0.0131 -0.0974 -0.3032
  999MOL0     H34798   3.333   3.137   3.049  0.1671  1.2564  1.6993
  999MOL0     H34799   3.450   3.287   3.225  1.2997 -1.8000 -0.3801
  999MOL0     H34800   3.843   3.487   3.149  1.1593  0.3901  4.3010
  999MOL0     H34801   3.720   3.607   3.094 -0.2064 -0.2005 -0.5091
  999MOL0     H34802   3.751   3.509   3.375 -2.6693 -2.2861 -2.4892
  999MOL0     H34803   3.870   3.629   3.313  0.3269 -1.5604 -0.9949
  999MOL0     H34804   3.699   3.765   3.431 -3.6969 -1.2919  2.2251
  999MOL0     H34805   3.695   3.785   3.259  0.2006 -0.9401 -0.4109
  999MOL0     H34806   3.498   3.627   3.271  3.2033  1.3314 -1.4086
  999MOL0     H34807   3.517   3.601   3.448  0.1993  1.5225  1.1528
  999MOL0     H34808   3.468   3.845   3.470 -2.6316  2.0482  0.3437
  999MOL0     H34809   3.432   3.849   3.294  0.1702  1.7865  1.1170
  999MOL0     H34810   3.242   3.847   3.425  1.4629  0.9485 -2.9093
  999MOL0     H34811   3.249   3.689   3.342 -2.1142  0.0471  1.2103
  999MOL0     H34812   3.347   3.630   3.583 -2.0804 -0.4988 -0.2788
  999MOL0     H34813   3.295   3.793   3.632  1.8461  1.1865 -0.3230
  999MOL0     H34814   3.066   3.757   3.549  0.7918  1.4295  3.1851
  999MOL0     H34815   3.115   3.665   3.691 -1.7909  0.5576  0.1846
  999MOL0     H34816   3.123   3.403   3.673 -0.8691  0.9788  1.1608
  999MOL0     H34817   3.072   3.166   3.376  4.0498  1.5908  1.2656
  999MOL0     H34818   3.090   3.154   3.554 -0.9349 -1.4720 -0.1821
  999MOL0     H34819   2.821   3.185   3.440  1.3519  0.9356 -0.6146
  999MOL0     H34820   2.876   3.188   3.608 -0.7791  0.9587 -0.6590
  999MOL0     H34821   2.980   2.961   3.592  1.7066 -0.3537 -0.7780
  999MOL0     H34822   2.921   2.943   3.423  1.7017 -0.1239  0.8539
  999MOL0     H34823   2.782   2.822   3.548  0.2378  0.2594 -0.9611
  999MOL0     H34824   2.685   2.965   3.499 -2.0000 -1.9597  1.6048
  999MOL0     H34825   2.513   2.891   3.570  0.2156 -0.2433  0.5180
  999MOL0     H34826   2.193   2.875   3.656  0.4613  0.4133  1.5208
  999MOL0     H34827   2.306   2.842   3.535 -2.0330  2.1171 -0.0622
  999MOL0     H34828   2.268   2.708   3.642  1.5089 -0.0958  1.9993
  999MOL0     H34829   2.108   2.904   4.246  1.4006  0.5654 -4.2660
  999MOL0     H34830   1.947   2.788   4.408 -0.5465 -1.3113 -0.1768
  999MOL0     H34831   1.894   2.558   4.566  1.8635 -0.1549 -1.8681
  999MOL0     H34832   1.771   2.678   4.506 -0.5670 -0.5343  0.8321
  999MOL0     H34833   1.721   2.385   4.523  1.7918 -0.3323 -2.2696
  999MOL0     H34834   1.673   2.507   4.642 -0.8966 -3.1811 -0.0823
  999MOL0     H34835   1.592   2.509   4.361  1.3949  0.6787 -0.5491
  999MOL0     H34836   1.535   2.632   4.483 -3.5699 -0.1038 -1.4808
  999MOL0     H34837   1.486   2.329   4.477  1.5009 -0.6311  1.0444
  999MOL0     H34838   1.409   2.439   4.592 -2.3667  0.5716 -1.7802
  999MOL0     H34839   1.242   2.366   4.425 -0.3036 -0.4489 -4.5778
  999MOL0     H34840   1.325   2.467   4.302 -1.9804  1.4102  0.2378
  999MOL0     H34841   1.213   2.582   4.564 -2.9652 -0.3370  0.0801
  999MOL0     H34842   1.284   2.667   4.412 -4.1304 -0.0763 -3.2737
  999MOL0     H34843   1.043   2.473   4.439 -0.5680  0.8307 -0.6480
  999MOL0     H34844   1.092   2.568   4.298 -1.2646  0.8100  0.0928
  999MOL0     H34845   0.994   2.687   4.554  1.1848  1.9602 -0.5823
  999MOL0     H34846   0.895   2.657   4.412  0.3500 -0.1878 -0.2341
  999MOL0     H34847   1.955   2.437   4.175 -3.0014  0.7523  1.9706
  999MOL0     H34848   2.128   2.543   4.024 -0.6236  0.5532 -0.8976
  999MOL0     H34849   2.493   2.891   4.060  0.5137  2.8049 -0.0692
  999MOL0     H34850   2.697   2.958   3.957 -0.8028  0.8773  1.4860
  999MOL0     H34851   3.727   3.410   2.907  1.7083 -1.3575 -0.5709
  999MOL0     H34852   3.594   3.276   2.759 -3.3716  1.5330 -0.8579
  999MOL0     H34853   3.193   2.974   2.786  5.7512 -0.5621  0.4801
  999MOL0     H34854   3.004   2.859   2.669  1.9213 -3.9209  0.2631
  999MOL0     H34855   2.899   2.679   2.524 -0.8136  1.7072  1.6059
  999MOL0     H34856   2.832   2.835   2.491  0.6966  0.6308  0.9870
  999MOL0     H34857   2.789   2.756   2.246  0.4535  0.6549 -0.7348
  999MOL0     H34858   2.716   2.657   2.386  0.9082 -1.4530  1.4452
  999MOL0     H34859   2.941   2.522   2.359 -1.0455  1.3674  1.8112
  999MOL0     H34860   2.970   2.617   2.220  1.2823  0.7194  0.8236
  999MOL0     H34861   2.863   2.399   2.161 -0.4210 -0.1488 -0.0487
  999MOL0     H34862   2.807   2.545   2.075  1.3050 -0.2582 -0.6796
  999MOL0     H34863   2.452   2.392   2.258 -0.9318  2.6999  0.0900
  999MOL0     H34864   3.214   2.918   2.300  0.1783  2.7385 -0.7114
  999MOL0     H34865   3.401   3.033   2.420  0.7963 -1.5737  0.0208
 1000MOL0     O34866   6.931   0.881   1.140 -0.0089 -0.3163 -0.3765
 1000MOL0     C34867   6.968   0.982   1.205  0.5802 -0.2095 -0.5411
 1000MOL0     O34868   6.896   1.064   1.275  0.1403 -0.3685 -0.3767
 1000MOL0     C34869   6.759   1.048   1.295 -0.1269  0.1950  0.7110
 1000MOL0     C34870   6.699   0.925   1.317 -1.3065 -0.1648  0.0303
 1000MOL0     C34871   6.559   0.915   1.329 -0.1216 -0.1121  0.3267
 1000MOL0     C34872   6.474   1.028   1.315 -0.5237  0.1037  0.4154
 1000MOL0     O34873   6.333   1.036   1.316 -0.5095 -0.4149 -0.5483
 1000MOL0     C34874   6.273   0.904   1.294  0.6810  0.7492 -0.2877
 1000MOL0     C34875   6.131   0.925   1.283 -0.1114  0.4060  0.0658
 1000MOL0     C34876   6.056   0.796   1.329  0.2172 -0.7506  0.1375
 1000MOL0     C34877   5.905   0.822   1.302 -0.6397  0.9996 -0.0854
 1000MOL0     C34878   5.820   0.713   1.360 -1.1770 -0.8161  0.5358
 1000MOL0     C34879   5.677   0.736   1.318  0.1922  0.7748 -1.0054
 1000MOL0     C34880   5.600   0.604   1.338  0.3682 -0.8639 -0.7917
 1000MOL0     C34881   5.519   0.592   1.472 -0.7148 -0.3360  0.4402
 1000MOL0     N34882   5.466   0.461   1.497  0.6748 -0.8735  0.1589
 1000MOL0     C34883   5.387   0.389   1.413 -0.1154 -0.6387 -0.1321
 1000MOL0     C34884   5.346   0.279   1.484 -0.0170 -0.4809 -0.3029
 1000MOL0     C34885   5.250   0.168   1.443  1.2343 -0.7940 -0.7455
 1000MOL0     C34886   5.102   0.200   1.476 -0.3935 -0.1079 -0.8005
 1000MOL0     C34887   5.044   0.300   1.377 -0.1937  0.0294  0.0042
 1000MOL0     C34888   4.941   0.241   1.279  0.7106  0.6465 -0.5414
 1000MOL0     O34889   4.867   0.356   1.226 -1.5876 -0.3113 -0.3938
 1000MOL0     C34890   4.747   0.340   1.159 -0.0787  0.2045 -0.4478
 1000MOL0     C34891   4.701   0.226   1.099  0.0838 -0.0547 -0.5507
 1000MOL0     C34892   4.572   0.206   1.056  0.5297  0.0969  0.2439
 1000MOL0     C34893   4.544   0.071   1.013  0.0404  0.1268 -0.1382
 1000MOL0     C34894   4.486   0.316   1.053  0.2370 -0.0658  0.3552
 1000MOL0     C34895   4.344   0.309   1.015 -0.2114 -0.6215  0.4130
 1000MOL0     O34896   4.289   0.440   0.986  0.2008  0.0974  0.3426
 1000MOL0     C34897   4.167   0.456   0.932  0.0733 -0.3858 -0.1551
 1000MOL0     C34898   4.080   0.551   0.988  0.8517 -0.1877 -0.2809
 1000MOL0     C34899   3.952   0.568   0.925 -0.1978 -0.0570 -0.3113
 1000MOL0     C34900   3.914   0.501   0.811  0.4485  0.0231 -0.6757
 1000MOL0     O34901   3.789   0.515   0.754  0.2295  1.0248 -0.0309
 1000MOL0     C34902   3.677   0.508   0.837  0.1650 -1.1174  0.4205
 1000MOL0     C34903   3.552   0.498   0.743 -0.5115 -1.7568 -0.2752
 1000MOL0     C34904   3.421   0.506   0.822  0.5318 -0.5397  0.1224
 1000MOL0     C34905   3.295   0.541   0.730 -0.2990  0.6320 -0.6142
 1000MOL0     C34906   3.158   0.544   0.809  0.0367 -0.5646  0.1517
 1000MOL0     C34907   3.046   0.602   0.720 -0.0199  0.0354 -0.5742
 1000MOL0     C34908   2.915   0.533   0.769  0.1249  0.1487  0.5398
 1000MOL0     C34909   2.797   0.559   0.677  0.1636 -0.7945  0.4950
 1000MOL0    Cl34910   2.677   0.431   0.685  0.8810 -0.4134 -0.1862
 1000MOL0     C34911   4.003   0.408   0.757  0.1634 -0.0095  0.5125
 1000MOL0     C34912   4.130   0.393   0.810  1.0775  0.2824 -0.1424
 1000MOL0     O34913   4.281   0.199   1.020  0.0602 -0.3603 -0.1549
 1000MOL0     C34914   4.534   0.438   1.101  0.3031  0.2762 -0.9197
 1000MOL0     C34915   4.660   0.453   1.149 -0.2297  0.1626 -0.8559
 1000MOL0     N34916   5.406   0.281   1.610 -0.4438  0.3252 -0.3409
 1000MOL0     N34917   5.465   0.399   1.618 -0.0757  0.1313 -0.4577
 1000MOL0     C34918   6.547   1.146   1.300 -0.6449 -0.1005 -0.4712
 1000MOL0     C34919   6.683   1.162   1.287 -0.8710  0.7537 -0.8952
 1000MOL0     C34920   7.113   1.022   1.187  0.1461  0.0894  0.4899
 1000MOL0     C34921   7.203   0.956   1.099 -0.7347  0.4821  0.3819
 1000MOL0     C34922   7.338   0.994   1.092  0.8095 -1.1135  0.6994
 1000MOL0     C34923   7.383   1.100   1.167 -0.4717  0.2010  0.2559
 1000MOL0     O34924   7.518   1.126   1.159 -0.1240  0.5560 -0.5592
 1000MOL0     C34925   7.532   1.246   1.080  0.6030  0.2839 -0.0540
 1000MOL0     C34926   7.663   1.240   1.005 -0.1697  0.1528 -0.8108
 1000MOL0     C34927   7.788   1.245   1.096  0.2881 -0.0834 -0.2615
 1000MOL0     C34928   7.923   1.201   1.035  0.2321 -0.4575  0.2984
 1000MOL0     C34929   7.949   1.263   0.901  0.4651 -0.5947 -0.3215
 1000MOL0     C34930   7.963   1.311   0.791 -0.3031 -0.0519 -0.3049
 1000MOL0     C34931   7.300   1.158   1.256  0.2787  0.2552  0.2219
 1000MOL0     C34932   7.169   1.116   1.269  0.2387 -0.8596  0.1473
 1000MOL0     H34933   6.766   0.839   1.318 -1.1505 -0.0531 -0.5910
 1000MOL0     H34934   6.507   0.820   1.335 -0.0073 -0.1882  0.1046
 1000MOL0     H34935   6.301   0.859   1.198  0.3224 -2.2403  0.9022
 1000MOL0     H34936   6.298   0.830   1.371 -1.2431  2.8369  2.5668
 1000MOL0     H34937   6.106   1.006   1.352  1.3261  0.5710  0.4207
 1000MOL0     H34938   6.109   0.954   1.180 -2.4713 -1.2915 -0.0097
 1000MOL0     H34939   6.093   0.708   1.276 -3.0086 -3.4635  1.9544
 1000MOL0     H34940   6.069   0.793   1.438 -4.1103  0.2148  0.8652
 1000MOL0     H34941   5.872   0.915   1.349  0.8026  2.8447 -2.4942
 1000MOL0     H34942   5.895   0.823   1.193 -1.9307 -0.2104 -0.0049
 1000MOL0     H34943   5.864   0.617   1.331 -0.9298  0.2190 -2.9788
 1000MOL0     H34944   5.829   0.726   1.468 -0.3513  2.6277  0.1486
 1000MOL0     H34945   5.641   0.824   1.372  0.7700  1.1024 -1.1492
 1000MOL0     H34946   5.671   0.756   1.211 -2.8750  2.6950 -0.5933
 1000MOL0     H34947   5.526   0.602   1.258 -3.5106  1.1134  2.4014
 1000MOL0     H34948   5.662   0.515   1.323 -2.2360 -2.9610  0.0199
 1000MOL0     H34949   5.436   0.663   1.474 -2.2693 -2.0047  3.6120
 1000MOL0     H34950   5.589   0.614   1.553  2.3100  0.4713 -2.1948
 1000MOL0     H34951   5.358   0.417   1.313  1.3534  1.0739 -0.1355
 1000MOL0     H34952   5.259   0.154   1.335 -0.3008 -3.5951 -0.6014
 1000MOL0     H34953   5.287   0.072   1.480  0.3580 -2.0487 -2.9735
 1000MOL0     H34954   5.099   0.236   1.579  1.9119 -0.5519 -0.5235
 1000MOL0     H34955   5.045   0.107   1.478  0.0686 -0.3924  0.6057
 1000MOL0     H34956   5.120   0.347   1.313  0.2338  1.7883  1.6771
 1000MOL0     H34957   4.994   0.381   1.431  0.2070 -1.4392  2.7129
 1000MOL0     H34958   4.870   0.170   1.322  2.6595 -0.0764  1.7198
 1000MOL0     H34959   4.994   0.192   1.197  3.0047  0.9486  0.6777
 1000MOL0     H34960   4.763   0.137   1.096  1.0889  0.5303  1.3504
 1000MOL0     H34961   4.625   0.025   0.954 -1.8558 -1.0613 -1.9587
 1000MOL0     H34962   4.523   0.006   1.098  0.3035  0.1878 -0.0241
 1000MOL0     H34963   4.452   0.061   0.955 -1.1869  2.0028  1.3887
 1000MOL0     H34964   4.122   0.591   1.080 -0.3172  0.0802  0.1467
 1000MOL0     H34965   3.884   0.641   0.968  0.7347  1.2347 -0.9335
 1000MOL0     H34966   3.686   0.431   0.914 -1.2960  1.1001  2.9867
 1000MOL0     H34967   3.667   0.600   0.896 -0.4831  0.2937 -1.7916
 1000MOL0     H34968   3.557   0.579   0.671  2.4204  1.7705  3.4243
 1000MOL0     H34969   3.561   0.409   0.680  3.0610  0.6875 -3.6343
 1000MOL0     H34970   3.428   0.577   0.904  0.5571  1.2517 -1.3656
 1000MOL0     H34971   3.403   0.408   0.868  1.2817 -2.6714 -3.6256
 1000MOL0     H34972   3.324   0.635   0.684  1.8998 -0.4601 -1.6072
 1000MOL0     H34973   3.293   0.468   0.649 -0.2294 -0.2894  0.1850
 1000MOL0     H34974   3.165   0.616   0.892 -0.6257  2.1621 -2.0118
 1000MOL0     H34975   3.137   0.443   0.845  3.3858 -2.6087 -2.9932
 1000MOL0     H34976   3.036   0.710   0.733 -1.6483  0.1287 -2.1883
 1000MOL0     H34977   3.053   0.567   0.617 -1.8228 -4.5753  0.6133
 1000MOL0     H34978   2.888   0.574   0.867  0.9678 -0.1700  0.9096
 1000MOL0     H34979   2.925   0.424   0.775 -2.0137  0.0005  3.7078
 1000MOL0     H34980   2.836   0.574   0.575 -4.1064  0.5051 -1.1600
 1000MOL0     H34981   2.744   0.651   0.705 -0.6313  0.2899 -3.8698
 1000MOL0     H34982   3.973   0.350   0.671 -0.8476  1.7900 -0.4057
 1000MOL0     H34983   4.198   0.330   0.753 -0.1201 -0.0921 -1.2105
 1000MOL0     H34984   4.475   0.529   1.108 -0.2756  0.0599 -2.6036
 1000MOL0     H34985   4.686   0.550   1.189  2.3414 -0.1313 -1.6592
 1000MOL0     H34986   6.484   1.233   1.292 -1.0805 -0.3891 -0.2443
 1000MOL0     H34987   6.727   1.260   1.277  0.2068  0.2532 -1.2626
 1000MOL0     H34988   7.177   0.869   1.039 -2.5444  1.9239 -1.0670
 1000MOL0     H34989   7.404   0.945   1.021  0.3189  1.1680 -1.4473
 1000MOL0     H34990   7.449   1.258   1.009 -0.6396 -2.1028  0.8676
 1000MOL0     H34991   7.532   1.336   1.142 -0.7524 -0.5583  1.2696
 1000MOL0     H34992   7.674   1.325   0.938  1.0586  0.8344  0.2132
 1000MOL0     H34993   7.667   1.148   0.945  1.3760 -0.8180  0.6707
 1000MOL0     H34994   7.784   1.171   1.176 -0.8952  0.2328 -0.0134
 1000MOL0     H34995   7.790   1.342   1.147 -0.3691  0.4123 -1.1490
 1000MOL0     H34996   7.934   1.093   1.021  1.6547  0.0104 -3.2321
 1000MOL0     H34997   8.003   1.235   1.101  1.1146 -1.4097 -0.2455
 1000MOL0     H34998   7.979   1.352   0.694  2.6466 -1.0657 -0.3378
 1000MOL0     H34999   7.353   1.225   1.323  1.7230 -0.9002  0.2809
 1000MOL0     H35000   7.105   1.161   1.345 -0.9669  1.3392 -1.9959
 1001MOL0     O35001   1.992   1.855   1.338 -0.6830 -0.0877  0.2054
 1001MOL0     C35002   1.981   1.748   1.273  0.0680  0.2100  0.1687
 1001MOL0     O35003   1.862   1.686   1.250  0.1102  0.4875  0.2020
 1001MOL0     C35004   1.747   1.751   1.272 -0.0316  0.6348  0.8673
 1001MOL0     C35005   1.653   1.760   1.170  0.9337  0.0075 -0.2589
 1001MOL0     C35006   1.521   1.808   1.199 -0.0092  0.1271  0.8579
 1001MOL0     C35007   1.483   1.838   1.330  0.4947 -0.3649 -0.9912
 1001MOL0     O35008   1.347   1.880   1.340  0.2987  0.0711  0.0755
 1001MOL0     C35009   1.304   1.944   1.460 -0.5058 -0.1315  0.4384
 1001MOL0     C35010   1.159   1.998   1.454 -0.5733 -0.2607  0.2318
 1001MOL0     C35011   1.063   1.885   1.480 -1.0525  0.6453  1.8815
 1001MOL0     C35012   0.920   1.940   1.478  0.2739  0.2473  0.3133
 1001MOL0     C35013   0.810   1.840   1.501 -0.1997  0.3860 -0.3519
 1001MOL0     C35014   0.670   1.900   1.513  0.6487  0.3642 -0.4939
 1001MOL0     C35015   0.583   1.791   1.573 -0.5753  1.1720  0.5977
 1001MOL0     C35016   0.447   1.836   1.594 -0.1074  0.1824 -0.5363
 1001MOL0     N35017   0.369   1.811   1.474  0.2513  0.3506 -0.9654
 1001MOL0     C35018   0.317   1.900   1.386 -0.0728 -0.1662 -0.6309
 1001MOL0     C35019   0.253   1.827   1.292  0.3538  0.2747 -0.6391
 1001MOL0     C35020   0.180   1.885   1.171 -0.4332  0.3778  1.0586
 1001MOL0     C35021   0.066   1.982   1.214  0.3159 -0.6243 -0.2969
 1001MOL0     C35022  -0.065   1.905   1.232  0.4211 -0.7952 -0.3379
 1001MOL0     C35023  -0.189   1.989   1.272 -1.2028  0.9595 -0.0543
 1001MOL0     O35024  -0.247   2.059   1.160 -0.0694  1.5317 -0.8840
 1001MOL0     C35025  -0.338   2.158   1.183 -0.1842  0.1572 -0.1525
 1001MOL0     C35026  -0.403   2.183   1.305 -0.8653  0.4626  0.3248
 1001MOL0     C35027  -0.507   2.260   1.321 -0.5951  0.1749 -0.5420
 1001MOL0     C35028  -0.577   2.267   1.457  0.7728  0.0484  1.1985
 1001MOL0     C35029  -0.551   2.337   1.210 -0.2073 -0.6878 -0.3705
 1001MOL0     C35030  -0.676   2.424   1.212  0.0405 -0.4065  0.2360
 1001MOL0     O35031  -0.715   2.479   1.093 -0.3847 -0.7229  0.6099
 1001MOL0     C35032  -0.824   2.557   1.094  0.2617  0.0274  0.3796
 1001MOL0     C35033  -0.954   2.498   1.087  0.0505 -0.0858  0.8460
 1001MOL0     C35034  -1.064   2.579   1.115  0.1854 -0.0799  0.1261
 1001MOL0     C35035  -1.049   2.713   1.127 -0.4129  1.1720  0.7457
 1001MOL0     O35036  -1.157   2.792   1.150  0.6881  0.2562  0.2053
 1001MOL0     C35037  -1.284   2.739   1.119 -0.4039  0.6813 -0.4878
 1001MOL0     C35038  -1.389   2.850   1.147 -0.6325  0.0372 -0.2887
 1001MOL0     C35039  -1.422   2.848   1.291  0.5669 -0.2188 -0.2400
 1001MOL0     C35040  -1.548   2.936   1.322 -0.6882 -0.4350  0.6989
 1001MOL0     C35041  -1.565   2.961   1.473 -0.1244  0.5267  0.5149
 1001MOL0     C35042  -1.707   2.959   1.523  0.0442 -0.6507 -0.7443
 1001MOL0     C35043  -1.782   3.091   1.492 -0.3441  0.2275 -0.6291
 1001MOL0     C35044  -1.915   3.105   1.582 -0.2686  0.0896 -0.3754
 1001MOL0    Cl35045  -1.869   3.121   1.764 -0.2694 -0.5731  0.4708
 1001MOL0     C35046  -0.919   2.768   1.119  0.6826 -0.3387 -0.1165
 1001MOL0     C35047  -0.804   2.697   1.109 -0.1317 -0.2116  0.5704
 1001MOL0     O35048  -0.730   2.452   1.319  0.1609 -0.3510  0.0307
 1001MOL0     C35049  -0.479   2.318   1.083 -0.4682  0.5411  0.5649
 1001MOL0     C35050  -0.370   2.233   1.070 -0.2735  0.8392 -0.5624
 1001MOL0     N35051   0.247   1.697   1.328  0.1913 -0.3290 -0.5212
 1001MOL0     N35052   0.320   1.692   1.435  0.2691  0.1523 -0.2804
 1001MOL0     C35053   1.581   1.836   1.438 -0.1352  0.1642  0.2542
 1001MOL0     C35054   1.712   1.787   1.406  0.2052 -0.2882 -0.2197
 1001MOL0     C35055   2.097   1.685   1.227 -0.0109  0.1310  0.3986
 1001MOL0     C35056   2.088   1.569   1.146 -0.6840  0.4270  0.7041
 1001MOL0     C35057   2.204   1.509   1.094 -0.2044  1.3046 -0.4674
 1001MOL0     C35058   2.334   1.552   1.147  0.2251  0.4345 -0.0471
 1001MOL0     O35059   2.445   1.482   1.120 -0.2967  0.4554  0.2755
 1001MOL0     C35060   2.476   1.455   0.980 -1.0978  0.6112 -0.1207
 1001MOL0     C35061   2.631   1.455   0.954  0.3017  0.8865 -0.1539
 1001MOL0     C35062   2.644   1.461   0.806 -0.8162 -0.7448  0.4701
 1001MOL0     C35063   2.790   1.446   0.778  0.1537 -0.8704 -0.3995
 1001MOL0     C35064   2.816   1.438   0.635  0.3341 -0.8845  0.0764
 1001MOL0     C35065   2.836   1.438   0.513 -0.5501 -0.2329  0.7071
 1001MOL0     C35066   2.338   1.657   1.229 -0.1416 -0.5352  0.3404
 1001MOL0     C35067   2.229   1.735   1.258  0.1745  0.3829  0.8114
 1001MOL0     H35068   1.668   1.727   1.068 -0.4796 -2.4943  0.2494
 1001MOL0     H35069   1.442   1.816   1.125  0.4401 -2.5301 -0.0314
 1001MOL0     H35070   1.332   1.886   1.548  1.7195  1.1468  0.6499
 1001MOL0     H35071   1.362   2.037   1.467 -1.9156  0.7955  0.2884
 1001MOL0     H35072   1.159   2.081   1.526  2.7346 -0.1938  0.3444
 1001MOL0     H35073   1.138   2.042   1.356 -0.7161 -1.2743 -0.1999
 1001MOL0     H35074   1.071   1.819   1.393 -3.0619  0.9479  1.4041
 1001MOL0     H35075   1.082   1.831   1.573  1.1553 -0.5868  0.7987
 1001MOL0     H35076   0.912   2.017   1.557  1.9479 -2.5613  3.4858
 1001MOL0     H35077   0.901   1.989   1.382  3.4284 -2.0705 -1.6774
 1001MOL0     H35078   0.808   1.759   1.427 -2.5288 -1.8632  1.9040
 1001MOL0     H35079   0.836   1.795   1.597 -0.3257  0.1305 -0.4333
 1001MOL0     H35080   0.673   1.986   1.580 -3.0373  0.4280 -0.2080
 1001MOL0     H35081   0.630   1.936   1.418 -0.7766 -0.1431 -0.1049
 1001MOL0     H35082   0.587   1.708   1.502 -0.6362 -0.5147  2.4618
 1001MOL0     H35083   0.616   1.759   1.672 -1.4396 -2.7677 -0.2128
 1001MOL0     H35084   0.442   1.937   1.635  1.5821 -0.0743  0.3699
 1001MOL0     H35085   0.405   1.773   1.673  1.6553  0.9237  1.0539
 1001MOL0     H35086   0.327   2.008   1.391 -0.9378 -0.1224  0.8394
 1001MOL0     H35087   0.249   1.933   1.101 -3.7457 -2.0044 -4.4328
 1001MOL0     H35088   0.134   1.810   1.107  0.4082  0.2476  0.5864
 1001MOL0     H35089   0.065   2.046   1.126  0.4093  0.5086  0.4948
 1001MOL0     H35090   0.080   2.036   1.309 -0.9919 -1.1629  0.2334
 1001MOL0     H35091  -0.038   1.825   1.302  3.5664  1.6006  1.4112
 1001MOL0     H35092  -0.091   1.852   1.140  2.6262  0.2970 -1.6548
 1001MOL0     H35093  -0.162   2.062   1.348 -1.8725  1.1166  0.0454
 1001MOL0     H35094  -0.267   1.920   1.306  0.6958 -1.1123  0.3214
 1001MOL0     H35095  -0.383   2.129   1.397 -0.1322  0.5722  0.2393
 1001MOL0     H35096  -0.527   2.203   1.531  1.5514 -2.4650 -1.3082
 1001MOL0     H35097  -0.591   2.366   1.501 -0.7686  0.8914 -1.0524
 1001MOL0     H35098  -0.675   2.220   1.449  1.4539 -1.1365 -1.2128
 1001MOL0     H35099  -0.968   2.391   1.079  0.6153 -0.2531  1.9494
 1001MOL0     H35100  -1.162   2.534   1.103 -0.0501 -0.5744  3.2428
 1001MOL0     H35101  -1.282   2.723   1.011 -1.9628 -2.8517 -0.1134
 1001MOL0     H35102  -1.306   2.650   1.178  0.1186  0.1430 -1.0852
 1001MOL0     H35103  -1.343   2.948   1.131  0.2115 -0.0405  1.3679
 1001MOL0     H35104  -1.475   2.841   1.081 -0.7385 -1.5890  0.0233
 1001MOL0     H35105  -1.345   2.894   1.354 -0.5772 -1.7648  2.4831
 1001MOL0     H35106  -1.430   2.750   1.338  0.8079 -0.1697 -0.0946
 1001MOL0     H35107  -1.552   3.033   1.273  1.1064 -0.8824 -0.4462
 1001MOL0     H35108  -1.632   2.874   1.289 -0.0773 -1.0171  0.1933
 1001MOL0     H35109  -1.510   3.055   1.486  2.1709 -0.1071 -3.1714
 1001MOL0     H35110  -1.504   2.890   1.529  0.5150  1.4565  1.0207
 1001MOL0     H35111  -1.750   2.869   1.478  1.0120 -0.8934 -1.2099
 1001MOL0     H35112  -1.700   2.943   1.632  1.5683 -1.6795 -0.9518
 1001MOL0     H35113  -1.804   3.090   1.385  0.6735  2.3608 -0.9006
 1001MOL0     H35114  -1.716   3.177   1.507  2.7271 -2.1313  0.2843
 1001MOL0     H35115  -1.972   3.013   1.562  0.1131  0.2609 -2.4742
 1001MOL0     H35116  -1.968   3.195   1.549  0.7456 -0.3947 -3.6391
 1001MOL0     H35117  -0.920   2.876   1.107 -0.0420 -0.4570 -1.3624
 1001MOL0     H35118  -0.706   2.744   1.106  1.4812 -3.3711  0.3180
 1001MOL0     H35119  -0.503   2.378   0.997  1.2395 -0.6097 -0.8005
 1001MOL0     H35120  -0.322   2.210   0.976 -0.0336 -1.6623  0.0807
 1001MOL0     H35121   1.552   1.857   1.541 -0.9777  0.1191  0.0303
 1001MOL0     H35122   1.790   1.774   1.480 -0.1168  1.2334  0.4171
 1001MOL0     H35123   1.993   1.529   1.111  1.4775 -0.8246 -4.8672
 1001MOL0     H35124   2.195   1.413   1.042 -2.2003  0.8784  0.5610
 1001MOL0     H35125   2.423   1.364   0.951 -1.0462  0.2126  0.9691
 1001MOL0     H35126   2.437   1.542   0.925 -2.6857  2.0170  2.9210
 1001MOL0     H35127   2.668   1.355   0.980 -0.9574  0.6514  0.8106
 1001MOL0     H35128   2.689   1.530   1.009 -1.1224  1.5569  0.4822
 1001MOL0     H35129   2.621   1.559   0.763  1.9776  0.0931  0.6928
 1001MOL0     H35130   2.587   1.379   0.760  0.7499 -1.8544  0.4013
 1001MOL0     H35131   2.827   1.355   0.826 -0.7427 -0.4778  1.0845
 1001MOL0     H35132   2.859   1.516   0.825 -0.4133 -0.0423 -0.7856
 1001MOL0     H35133   2.885   1.442   0.418  0.3640 -0.7980  1.1252
 1001MOL0     H35134   2.434   1.681   1.274 -0.6523  0.2039  1.0770
 1001MOL0     H35135   2.242   1.818   1.327 -1.2538  1.2823  0.0581
 1002MOL0     O35136   4.303  10.471   3.131 -0.2717  0.0877 -0.2291
 1002MOL0     C35137   4.391  10.432   3.056 -0.1760 -1.4400  0.5509
 1002MOL0     O35138   4.454  10.318   3.059 -0.1382  0.1335 -0.1507
 1002MOL0     C35139   4.414  10.215   3.129  0.0411  0.6759  0.0657
 1002MOL0     C35140   4.511  10.116   3.155  0.5377  0.1822  0.6401
 1002MOL0     C35141   4.474   9.991   3.200  0.2734  0.5904 -0.0931
 1002MOL0     C35142   4.339   9.953   3.217  0.0950  0.4930  0.1624
 1002MOL0     O35143   4.314   9.833   3.280 -0.2748 -0.3331 -0.1779
 1002MOL0     C35144   4.311   9.716   3.204  0.0109  0.4380 -0.5018
 1002MOL0     C35145   4.311   9.589   3.302  0.5783  0.2015  0.5576
 1002MOL0     C35146   4.170   9.566   3.372 -0.0054  0.4652  0.8543
 1002MOL0     C35147   4.075   9.486   3.282  0.3888  0.8236  1.1023
 1002MOL0     C35148   3.941   9.456   3.343  0.2300 -0.7573  0.2508
 1002MOL0     C35149   3.850   9.581   3.362 -0.3619 -0.0654 -0.2843
 1002MOL0     C35150   3.709   9.530   3.403 -0.3481 -0.8493  0.0658
 1002MOL0     C35151   3.620   9.658   3.427 -0.9946 -0.5505 -0.3180
 1002MOL0     N35152   3.649   9.731   3.549 -0.5302  0.0431  0.6106
 1002MOL0     C35153   3.597   9.705   3.670 -0.3191 -0.0448  0.2676
 1002MOL0     C35154   3.638   9.805   3.755  0.5552  1.3387 -1.1769
 1002MOL0     C35155   3.576   9.821   3.890 -0.2115  0.6622 -0.2289
 1002MOL0     C35156   3.669   9.906   3.990  0.0730 -0.2205  0.6866
 1002MOL0     C35157   3.584   9.953   4.102 -0.0858  0.3556 -0.4099
 1002MOL0     C35158   3.652  10.001   4.235  0.3792 -0.9647 -0.4472
 1002MOL0     O35159   3.686  10.138   4.224 -0.8240 -0.1331  0.1447
 1002MOL0     C35160   3.614  10.236   4.288 -0.0687 -0.2733  0.7178
 1002MOL0     C35161   3.668  10.367   4.285  0.3603 -0.9689 -0.4949
 1002MOL0     C35162   3.584  10.476   4.335  0.1988 -0.3234 -0.2543
 1002MOL0     C35163   3.650  10.609   4.327  0.6091  0.4021 -0.5494
 1002MOL0     C35164   3.452  10.450   4.390 -0.2565  0.4264  0.4266
 1002MOL0     C35165   3.374  10.568   4.414 -0.7369  0.3613  0.2750
 1002MOL0     O35166   3.310  10.568   4.533  0.3404 -0.7060  0.1702
 1002MOL0     C35167   3.251  10.686   4.578 -0.2959  0.4699  0.6547
 1002MOL0     C35168   3.166  10.774   4.516 -0.4657  0.9436 -0.0304
 1002MOL0     C35169   3.139  10.896   4.575  0.6286 -0.8644  0.3197
 1002MOL0     C35170   3.178  10.926   4.705 -0.1749  0.5976 -0.7830
 1002MOL0     O35171   3.145  11.043   4.778  0.2524 -0.0821 -0.2026
 1002MOL0     C35172   3.050  11.145   4.733 -0.0761  0.0028  0.5430
 1002MOL0     C35173   3.066  11.268   4.817  0.2534  0.3875  1.4735
 1002MOL0     C35174   3.001  11.394   4.752  0.5381  0.1448 -1.0025
 1002MOL0     C35175   3.031  11.508   4.843  0.3189  0.1077  0.1950
 1002MOL0     C35176   2.965  11.654   4.804 -0.5768  0.7492  0.0245
 1002MOL0     C35177   3.012  11.699   4.669 -1.4056  0.7883  0.1789
 1002MOL0     C35178   3.158  11.693   4.640 -0.0075 -0.1200  0.1245
 1002MOL0     C35179   3.243  11.775   4.741  0.6945  0.2615  0.0815
 1002MOL0    Cl35180   3.396  11.696   4.800  0.0579  0.1487  0.1065
 1002MOL0     C35181   3.259  10.832   4.762  0.8991  1.0315 -0.3105
 1002MOL0     C35182   3.301  10.715   4.707 -0.0841  0.6554  0.7668
 1002MOL0     O35183   3.364  10.650   4.321 -0.1292 -0.3217 -0.8868
 1002MOL0     C35184   3.405  10.320   4.402 -0.3222  0.0007 -0.0106
 1002MOL0     C35185   3.479  10.213   4.343  0.4517 -0.8411 -0.4286
 1002MOL0     N35186   3.731   9.876   3.690 -0.4223 -0.0452 -0.5987
 1002MOL0     N35187   3.740   9.836   3.565  0.7184  0.0970  0.7730
 1002MOL0     C35188   4.237  10.046   3.186 -1.2364  0.2838  0.0241
 1002MOL0     C35189   4.279  10.173   3.148 -0.8125  0.1452 -0.4300
 1002MOL0     C35190   4.446  10.534   2.962 -0.0773 -0.3404 -0.5768
 1002MOL0     C35191   4.410  10.672   2.970 -0.6062  0.7630 -0.3003
 1002MOL0     C35192   4.464  10.766   2.882 -0.1336  0.8550  0.9799
 1002MOL0     C35193   4.554  10.734   2.780  0.1707  0.2599  1.1597
 1002MOL0     O35194   4.608  10.834   2.710 -0.4171 -0.2135  0.4770
 1002MOL0     C35195   4.662  10.810   2.578 -0.2260 -0.2770 -0.3145
 1002MOL0     C35196   4.734  10.947   2.548  0.3296  0.7853  0.3488
 1002MOL0     C35197   4.870  10.956   2.618  0.4157  0.0485 -0.4446
 1002MOL0     C35198   4.935  11.096   2.618 -0.2651 -0.0054  0.3057
 1002MOL0     C35199   5.042  11.101   2.719  0.5522  0.3168 -0.5683
 1002MOL0     C35200   5.125  11.104   2.804 -0.0727 -0.7125 -0.2318
 1002MOL0     C35201   4.592  10.599   2.775  0.6122  0.9663  0.5243
 1002MOL0     C35202   4.540  10.503   2.862 -0.0653  0.4406  0.1222
 1002MOL0     H35203   4.613  10.150   3.152  0.6482 -0.1043  1.0719
 1002MOL0     H35204   4.550   9.917   3.226 -1.1593 -0.6776  0.6657
 1002MOL0     H35205   4.228   9.733   3.135  0.1831  1.7819 -0.3990
 1002MOL0     H35206   4.407   9.708   3.152  1.0873 -1.0376  1.5696
 1002MOL0     H35207   4.335   9.501   3.242 -0.4989 -1.2225  2.1301
 1002MOL0     H35208   4.387   9.601   3.379  0.9384  1.1594  0.0740
 1002MOL0     H35209   4.186   9.509   3.464  1.6135 -2.1347 -0.9101
 1002MOL0     H35210   4.117   9.655   3.408 -2.0404 -1.1863  2.2341
 1002MOL0     H35211   4.068   9.541   3.187  4.1386 -1.9015 -1.0368
 1002MOL0     H35212   4.125   9.392   3.256 -0.9137  0.2704  0.4950
 1002MOL0     H35213   3.884   9.387   3.279  0.9258 -1.2259  0.1332
 1002MOL0     H35214   3.963   9.411   3.440  2.9604 -0.8338 -0.3305
 1002MOL0     H35215   3.897   9.643   3.439  0.6129 -1.5606  0.3719
 1002MOL0     H35216   3.838   9.637   3.269  0.1355 -1.7040 -1.3624
 1002MOL0     H35217   3.666   9.473   3.320 -0.5228 -0.6343  0.0098
 1002MOL0     H35218   3.724   9.455   3.482 -1.6878 -3.0438 -1.6511
 1002MOL0     H35219   3.515   9.635   3.412 -0.3978 -2.3780 -2.1047
 1002MOL0     H35220   3.638   9.730   3.346 -0.9508  0.4629  0.5700
 1002MOL0     H35221   3.524   9.630   3.697  0.9422 -0.5336  2.5072
 1002MOL0     H35222   3.481   9.874   3.877 -1.0504 -0.7797 -0.2366
 1002MOL0     H35223   3.557   9.717   3.919  0.0003  0.2503 -1.5106
 1002MOL0     H35224   3.702   9.997   3.939  0.1466 -1.5588 -1.7967
 1002MOL0     H35225   3.763   9.855   4.014  0.8275  0.1012 -1.3568
 1002MOL0     H35226   3.523   9.867   4.134  0.0007 -0.2237 -1.7335
 1002MOL0     H35227   3.508  10.026   4.071 -0.0088 -0.3225 -2.3519
 1002MOL0     H35228   3.742   9.943   4.260  0.7410  0.3579  1.4842
 1002MOL0     H35229   3.596   9.986   4.328 -1.0477  2.1598 -0.6964
 1002MOL0     H35230   3.768  10.395   4.255 -0.6901  4.7562  0.0661
 1002MOL0     H35231   3.601  10.672   4.402  0.9763  2.2735 -1.8072
 1002MOL0     H35232   3.757  10.605   4.349  0.4048 -2.8009  0.3096
 1002MOL0     H35233   3.622  10.659   4.233 -0.0372  0.3255 -0.4040
 1002MOL0     H35234   3.128  10.761   4.415 -0.2110  2.2486 -0.3169
 1002MOL0     H35235   3.074  10.957   4.513  2.9441  1.4486 -0.0377
 1002MOL0     H35236   3.074  11.177   4.630  2.6065 -1.0087  0.7846
 1002MOL0     H35237   2.951  11.100   4.748  0.4193 -3.2694 -4.0500
 1002MOL0     H35238   3.017  11.253   4.914 -0.4005  0.7850  1.2116
 1002MOL0     H35239   3.174  11.284   4.815  0.0156  2.0582  1.0513
 1002MOL0     H35240   2.895  11.370   4.742  0.6294 -0.9239  0.3174
 1002MOL0     H35241   3.045  11.408   4.653  2.0698  2.2979 -0.0879
 1002MOL0     H35242   2.994  11.477   4.941 -0.7193 -0.2774 -0.3096
 1002MOL0     H35243   3.139  11.523   4.856  0.1649  3.7352 -1.4742
 1002MOL0     H35244   2.987  11.725   4.884 -2.6810  0.7049  0.6905
 1002MOL0     H35245   2.857  11.639   4.795 -0.5790  0.9606 -0.3387
 1002MOL0     H35246   2.976  11.624   4.598 -0.8446  1.2782 -0.6490
 1002MOL0     H35247   2.961  11.795   4.654 -3.2880 -0.1376  0.4257
 1002MOL0     H35248   3.177  11.734   4.540  2.1250 -1.6543 -0.1858
 1002MOL0     H35249   3.201  11.592   4.643  2.4457  0.8584  0.9462
 1002MOL0     H35250   3.178  11.804   4.823  1.2220  0.8715  0.2845
 1002MOL0     H35251   3.280  11.868   4.698 -1.2521 -0.0928 -2.5918
 1002MOL0     H35252   3.288  10.859   4.863  0.8271  1.5532 -0.4272
 1002MOL0     H35253   3.369  10.651   4.761 -0.9867  1.4543  2.9677
 1002MOL0     H35254   3.305  10.315   4.445 -1.3259  2.5364 -1.8138
 1002MOL0     H35255   3.453  10.109   4.359  3.5529 -1.1128  5.9489
 1002MOL0     H35256   4.132  10.021   3.194 -1.6856  1.0104 -2.6205
 1002MOL0     H35257   4.195  10.233   3.115 -2.0431 -2.8514 -3.4805
 1002MOL0     H35258   4.339  10.698   3.049 -0.1222 -1.6435  1.0346
 1002MOL0     H35259   4.437  10.870   2.892 -1.9000  0.7415 -1.4390
 1002MOL0     H35260   4.736  10.730   2.576 -0.6393 -0.7737  1.6848
 1002MOL0     H35261   4.583  10.777   2.510 -0.8070  0.4919 -0.0281
 1002MOL0     H35262   4.677  11.039   2.563 -1.5307 -0.1506 -0.5611
 1002MOL0     H35263   4.753  10.953   2.440  0.3985  0.2641  0.3306
 1002MOL0     H35264   4.934  10.879   2.574 -0.4853 -0.9390 -0.0718
 1002MOL0     H35265   4.848  10.929   2.721 -1.1414  1.3045 -0.3973
 1002MOL0     H35266   4.864  11.178   2.633 -0.2859 -0.0292  0.3362
 1002MOL0     H35267   4.984  11.110   2.521  1.3198  0.6275  1.1636
 1002MOL0     H35268   5.205  11.111   2.875  1.2991 -1.9249 -1.5805
 1002MOL0     H35269   4.662  10.563   2.700 -0.6325 -2.5284  0.8842
 1002MOL0     H35270   4.581  10.402   2.855 -2.3161 -0.4393 -1.7329
 1003MOL0     O35271   4.442   9.236   1.145 -0.1731  0.0317 -0.5145
 1003MOL0     C35272   4.430   9.292   1.256 -0.6365 -0.1611  0.1717
 1003MOL0     O35273   4.319   9.361   1.301 -0.1129 -0.3219 -0.0675
 1003MOL0     C35274   4.186   9.317   1.283  0.3003  0.4844 -0.2671
 1003MOL0     C35275   4.090   9.383   1.357  0.1429  0.0441  0.0837
 1003MOL0     C35276   3.956   9.343   1.346  0.6824  0.1228  0.0242
 1003MOL0     C35277   3.911   9.251   1.250 -0.1560  0.0177 -0.3981
 1003MOL0     O35278   3.780   9.216   1.240 -0.0182 -0.5172  0.1710
 1003MOL0     C35279   3.725   9.258   1.110 -0.1437 -0.4416 -0.7270
 1003MOL0     C35280   3.663   9.405   1.105  0.0562  0.0447  0.5859
 1003MOL0     C35281   3.566   9.425   1.218 -0.0318 -0.9323 -0.0571
 1003MOL0     C35282   3.492   9.552   1.204 -0.3857 -1.0290 -0.1358
 1003MOL0     C35283   3.389   9.582   1.315 -0.3003 -0.5154  0.1492
 1003MOL0     C35284   3.274   9.486   1.317  0.6152  0.2954 -0.2460
 1003MOL0     C35285   3.170   9.514   1.429 -0.5673 -0.3188  0.1183
 1003MOL0     C35286   3.026   9.452   1.397 -0.2173 -0.1755 -0.0737
 1003MOL0     N35287   3.025   9.309   1.372 -0.2499 -0.6490  0.3447
 1003MOL0     C35288   3.058   9.206   1.457 -0.2306  1.5541  0.4789
 1003MOL0     C35289   3.042   9.095   1.366 -0.0997  0.1837 -0.4884
 1003MOL0     C35290   3.075   8.952   1.374 -0.2496 -0.2137  0.5339
 1003MOL0     C35291   3.224   8.932   1.393  0.4483  0.7620 -0.1682
 1003MOL0     C35292   3.316   9.015   1.298  0.2846  0.0136 -0.2419
 1003MOL0     C35293   3.465   8.991   1.326  0.5045  0.4200  0.6856
 1003MOL0     O35294   3.497   8.849   1.310  0.4120 -0.9170  0.3199
 1003MOL0     C35295   3.626   8.808   1.292 -0.4838  0.5401 -0.1528
 1003MOL0     C35296   3.735   8.881   1.336 -0.1967  0.9902 -0.3006
 1003MOL0     C35297   3.863   8.829   1.343  0.5092  0.5320 -0.5554
 1003MOL0     C35298   3.972   8.923   1.385 -0.1364 -0.6775 -0.4129
 1003MOL0     C35299   3.889   8.699   1.275 -0.0876 -0.2283 -1.1454
 1003MOL0     C35300   4.017   8.631   1.267  0.6344 -0.7635 -0.0523
 1003MOL0     O35301   4.120   8.703   1.331 -0.2112  0.7695 -0.1939
 1003MOL0     C35302   4.241   8.631   1.330 -0.8479 -0.0846  0.0137
 1003MOL0     C35303   4.255   8.515   1.401  0.3245 -0.8156  0.0576
 1003MOL0     C35304   4.386   8.471   1.419  0.0393  0.2652  0.0050
 1003MOL0     C35305   4.501   8.537   1.372  0.8119 -0.3138  0.8292
 1003MOL0     O35306   4.629   8.477   1.376  0.2367  0.0066 -0.3583
 1003MOL0     C35307   4.705   8.515   1.491  0.3443  1.3885 -0.2700
 1003MOL0     C35308   4.825   8.420   1.502 -0.2824  0.6578 -0.7376
 1003MOL0     C35309   4.917   8.428   1.631 -0.2244 -0.1351  0.1123
 1003MOL0     C35310   4.999   8.296   1.617  0.5490 -0.4409 -0.1866
 1003MOL0     C35311   5.099   8.279   1.729  0.4333 -0.7680 -0.1477
 1003MOL0     C35312   5.200   8.395   1.745  0.6138  0.3210 -0.4652
 1003MOL0     C35313   5.306   8.361   1.859  0.0515 -0.4410  0.4619
 1003MOL0     C35314   5.389   8.488   1.895  0.3549  0.1960 -0.4465
 1003MOL0    Cl35315   5.487   8.457   2.042  0.3827 -0.2099 -0.3505
 1003MOL0     C35316   4.486   8.639   1.285  0.4393  0.2819 -0.2027
 1003MOL0     C35317   4.357   8.695   1.273  0.1442  0.0487 -0.0743
 1003MOL0     O35318   4.029   8.536   1.185 -0.0989  0.3634 -0.5070
 1003MOL0     C35319   3.774   8.628   1.228  0.5948  1.0026 -0.3944
 1003MOL0     C35320   3.646   8.679   1.247  0.3875 -0.2733  0.8080
 1003MOL0     N35321   2.982   9.138   1.241  0.3059 -0.1114 -0.0630
 1003MOL0     N35322   2.980   9.270   1.247 -0.4655  0.1105 -0.3333
 1003MOL0     C35323   4.020   9.183   1.177  0.1894 -0.4874  0.1606
 1003MOL0     C35324   4.156   9.209   1.198  0.0894 -0.4612 -0.0089
 1003MOL0     C35325   4.550   9.284   1.342  0.7569 -0.2867 -0.2239
 1003MOL0     C35326   4.542   9.356   1.463 -0.2102  0.0894 -0.5715
 1003MOL0     C35327   4.652   9.353   1.549  0.1056 -1.3580 -0.4196
 1003MOL0     C35328   4.765   9.277   1.519  0.0233 -0.7639 -0.6167
 1003MOL0     O35329   4.863   9.265   1.606  0.3293  0.3466 -0.1144
 1003MOL0     C35330   4.950   9.377   1.611 -0.5662 -0.7318  0.3781
 1003MOL0     C35331   5.057   9.362   1.504  0.1211  0.2838 -0.1388
 1003MOL0     C35332   5.181   9.435   1.546  0.2628  0.1252 -0.4163
 1003MOL0     C35333   5.303   9.394   1.457  0.4552 -0.4528  0.3833
 1003MOL0     C35334   5.346   9.258   1.462  0.5439 -0.6730  0.0881
 1003MOL0     C35335   5.382   9.144   1.468 -0.2790  0.8513 -0.0833
 1003MOL0     C35336   4.768   9.207   1.400 -0.0530  0.1605  0.1271
 1003MOL0     C35337   4.660   9.205   1.315 -0.1346 -0.1238 -0.1422
 1003MOL0     H35338   4.125   9.467   1.416 -1.1682  0.4479  0.3057
 1003MOL0     H35339   3.887   9.395   1.412 -1.0571 -2.3811  0.3720
 1003MOL0     H35340   3.803   9.244   1.035 -0.7391  2.3062 -1.9646
 1003MOL0     H35341   3.642   9.192   1.080  1.1538 -1.0748 -3.1265
 1003MOL0     H35342   3.742   9.480   1.098  1.0007 -0.8754  1.1567
 1003MOL0     H35343   3.609   9.419   1.011  0.1428  0.8238  0.6474
 1003MOL0     H35344   3.489   9.348   1.226 -0.8411 -0.0066  1.7224
 1003MOL0     H35345   3.619   9.433   1.314 -1.0144  3.4304  0.3109
 1003MOL0     H35346   3.570   9.629   1.211  1.7074 -2.7980 -2.4193
 1003MOL0     H35347   3.449   9.553   1.104  1.0652  0.7294 -0.8055
 1003MOL0     H35348   3.426   9.588   1.417 -1.9475 -5.2702  1.3024
 1003MOL0     H35349   3.347   9.677   1.281  2.9099  0.4149 -1.6507
 1003MOL0     H35350   3.233   9.482   1.216  1.6886  0.2548 -0.6908
 1003MOL0     H35351   3.337   9.401   1.345  1.1217  1.0868  1.1355
 1003MOL0     H35352   3.205   9.472   1.523 -0.1648  0.3798  0.2820
 1003MOL0     H35353   3.152   9.621   1.444  0.7413 -0.0585 -0.0532
 1003MOL0     H35354   2.992   9.503   1.307 -0.3687 -0.2913 -0.0829
 1003MOL0     H35355   2.949   9.466   1.474 -0.3542  0.5460 -0.3313
 1003MOL0     H35356   3.097   9.189   1.557  0.5472 -2.7841 -0.3556
 1003MOL0     H35357   3.027   8.920   1.467 -3.0539  2.1554  0.0340
 1003MOL0     H35358   3.026   8.896   1.294  0.6695  1.0126 -0.9192
 1003MOL0     H35359   3.236   8.824   1.385  0.4287  0.8238 -1.1825
 1003MOL0     H35360   3.239   8.962   1.497 -0.6414  0.6785  0.0156
 1003MOL0     H35361   3.292   9.121   1.307 -0.7767 -0.1683 -0.7143
 1003MOL0     H35362   3.288   8.984   1.197  2.0763 -2.7683  0.0030
 1003MOL0     H35363   3.478   9.019   1.431 -2.9364 -1.6642  1.7977
 1003MOL0     H35364   3.519   9.052   1.253 -0.8040 -0.2859 -0.9207
 1003MOL0     H35365   3.726   8.986   1.365 -0.2867  0.9575 -0.2117
 1003MOL0     H35366   3.932   9.009   1.441  0.6825  0.5807 -1.6925
 1003MOL0     H35367   4.040   8.876   1.457 -0.1264 -1.9521 -1.2265
 1003MOL0     H35368   4.030   8.954   1.298 -0.7350 -0.8085 -0.8629
 1003MOL0     H35369   4.166   8.478   1.450  0.6524 -0.7643  0.7087
 1003MOL0     H35370   4.400   8.389   1.489  1.1017 -1.8623 -2.5102
 1003MOL0     H35371   4.729   8.621   1.489 -1.2529  1.7549 -0.9815
 1003MOL0     H35372   4.647   8.499   1.582  1.3215  0.8893  0.2897
 1003MOL0     H35373   4.806   8.315   1.477  1.1957  0.5957 -1.6870
 1003MOL0     H35374   4.898   8.446   1.425  1.6315  0.3435  0.8736
 1003MOL0     H35375   4.872   8.439   1.730  1.4037 -2.2738  1.1791
 1003MOL0     H35376   4.986   8.510   1.609 -0.2574 -0.6657 -2.2780
 1003MOL0     H35377   4.926   8.217   1.635 -0.7137  0.4855 -1.0988
 1003MOL0     H35378   5.034   8.294   1.514 -2.9155  1.0541 -1.5635
 1003MOL0     H35379   5.164   8.195   1.707 -1.0460 -2.5861  1.9657
 1003MOL0     H35380   5.048   8.256   1.824 -0.5737  0.2621 -0.4143
 1003MOL0     H35381   5.242   8.412   1.646  0.6180 -0.7634 -0.6562
 1003MOL0     H35382   5.143   8.483   1.777  1.0489  0.6395 -0.5441
 1003MOL0     H35383   5.373   8.288   1.812 -3.0934  0.0094 -5.8284
 1003MOL0     H35384   5.254   8.318   1.945 -0.4406 -0.6202  0.0805
 1003MOL0     H35385   5.317   8.571   1.901  0.3711  0.3998 -2.3910
 1003MOL0     H35386   5.463   8.500   1.815  2.4020 -1.0527  1.1634
 1003MOL0     H35387   4.573   8.675   1.231 -0.8495  1.5874 -1.5115
 1003MOL0     H35388   4.350   8.780   1.205  1.8521 -0.4766 -0.9583
 1003MOL0     H35389   3.785   8.528   1.188  2.7014  1.3418 -0.7571
 1003MOL0     H35390   3.557   8.622   1.222 -0.3651  0.1569  2.3650
 1003MOL0     H35391   3.985   9.116   1.100  0.4059  1.3138 -1.6070
 1003MOL0     H35392   4.219   9.148   1.133 -1.7900 -1.8755 -0.5909
 1003MOL0     H35393   4.450   9.393   1.506 -1.4296 -3.5730  0.4048
 1003MOL0     H35394   4.663   9.387   1.651  0.2423 -1.9510 -0.2311
 1003MOL0     H35395   4.906   9.477   1.602  2.1581  0.4043 -1.6935
 1003MOL0     H35396   5.002   9.374   1.707 -2.6459 -1.3108  1.5490
 1003MOL0     H35397   5.032   9.396   1.404 -1.5166  0.3695  0.2642
 1003MOL0     H35398   5.081   9.255   1.507  1.0851  0.4860 -0.3001
 1003MOL0     H35399   5.207   9.415   1.650 -0.0647  2.7206  0.2124
 1003MOL0     H35400   5.159   9.542   1.545 -0.6337 -0.0489 -1.6061
 1003MOL0     H35401   5.389   9.460   1.473  1.1229 -0.9810 -0.8516
 1003MOL0     H35402   5.277   9.410   1.352  2.7316  2.8452  0.1872
 1003MOL0     H35403   5.395   9.038   1.473 -0.3369  0.7216 -1.8766
 1003MOL0     H35404   4.855   9.143   1.388 -0.8355 -0.7336 -1.0487
 1003MOL0     H35405   4.645   9.150   1.223 -1.9360 -2.2262  1.2867
 1004MOL0     O35406   4.443   9.955   5.725  0.5398  0.0780  1.1184
 1004MOL0     C35407   4.496   9.845   5.727 -0.1434 -0.2371 -0.5420
 1004MOL0     O35408   4.447   9.738   5.655  0.4217 -0.0530 -0.2221
 1004MOL0     C35409   4.342   9.764   5.570  0.0324 -0.5782  0.3631
 1004MOL0     C35410   4.332   9.863   5.473  0.3848 -0.0811 -0.9228
 1004MOL0     C35411   4.223   9.872   5.377 -0.5838  0.6576 -0.0102
 1004MOL0     C35412   4.110   9.784   5.395 -0.2058 -0.3463 -0.1517
 1004MOL0     O35413   4.012   9.797   5.303 -0.2719  0.2363 -0.1636
 1004MOL0     C35414   3.872   9.768   5.336 -0.3866  0.0286  0.1359
 1004MOL0     C35415   3.811   9.705   5.202 -0.6722 -0.6325 -0.2774
 1004MOL0     C35416   3.851   9.565   5.171 -0.5185  0.6676 -0.2059
 1004MOL0     C35417   3.761   9.506   5.056  0.2114 -0.3480  1.1601
 1004MOL0     C35418   3.810   9.368   5.008 -0.4917  0.0663  0.1679
 1004MOL0     C35419   3.747   9.324   4.874  0.2720  0.2329 -0.8465
 1004MOL0     C35420   3.799   9.186   4.835 -0.6696 -0.3791  0.0472
 1004MOL0     C35421   3.771   9.155   4.692 -0.5454 -0.3210 -0.6036
 1004MOL0     N35422   3.627   9.135   4.665  0.2999  0.7430  0.0830
 1004MOL0     C35423   3.561   9.018   4.668  0.5073 -0.0391  0.1815
 1004MOL0     C35424   3.437   9.037   4.616  0.5166 -0.0457  0.0455
 1004MOL0     C35425   3.324   8.942   4.622 -0.4254  0.0413 -0.0224
 1004MOL0     C35426   3.297   8.929   4.767  0.7438  0.0494 -0.4528
 1004MOL0     C35427   3.158   8.866   4.779 -1.0127 -1.0315  0.9574
 1004MOL0     C35428   3.145   8.838   4.932 -0.2209  0.3906  0.4715
 1004MOL0     O35429   3.036   8.751   4.965  0.3536  0.1509 -0.6592
 1004MOL0     C35430   2.908   8.799   4.962 -0.1622  0.2591 -0.4491
 1004MOL0     C35431   2.818   8.712   5.015  0.4509  0.5177 -0.6836
 1004MOL0     C35432   2.686   8.740   5.039  0.4787  0.1460  0.7822
 1004MOL0     C35433   2.597   8.634   5.089  0.2927 -0.0107  0.4101
 1004MOL0     C35434   2.634   8.872   4.993 -0.7137 -0.0672 -0.1787
 1004MOL0     C35435   2.498   8.918   5.030  0.6543 -0.3939  0.3842
 1004MOL0     O35436   2.436   8.874   5.140  0.0074 -0.9882 -0.2363
 1004MOL0     C35437   2.307   8.911   5.173 -0.2809 -0.4982  0.9686
 1004MOL0     C35438   2.208   8.825   5.136  0.3936  0.2546  0.0558
 1004MOL0     C35439   2.077   8.844   5.178  0.3701  0.7552  0.3441
 1004MOL0     C35440   2.045   8.945   5.266 -0.2689 -0.1077 -0.1664
 1004MOL0     O35441   1.914   8.956   5.316  0.1452  0.1920 -0.6712
 1004MOL0     C35442   1.808   8.955   5.220 -0.5512 -0.1857 -0.3682
 1004MOL0     C35443   1.682   8.936   5.301 -0.1469 -0.2846 -0.6717
 1004MOL0     C35444   1.572   8.914   5.192  0.4602 -0.2098 -1.0386
 1004MOL0     C35445   1.432   8.904   5.270 -0.8573  0.4602  0.7658
 1004MOL0     C35446   1.425   8.774   5.357 -0.4567  0.4755  0.9518
 1004MOL0     C35447   1.284   8.745   5.425 -0.3768 -0.0148  0.2989
 1004MOL0     C35448   1.279   8.612   5.503  0.8341  0.2987 -0.2666
 1004MOL0     C35449   1.138   8.569   5.557 -0.5032  0.3407  0.5978
 1004MOL0    Cl35450   1.084   8.671   5.691  0.0064 -0.1512 -0.0701
 1004MOL0     C35451   2.147   9.031   5.303  0.8201 -0.7647 -0.5302
 1004MOL0     C35452   2.273   9.024   5.253  0.2866  0.2133  0.4634
 1004MOL0     O35453   2.466   9.015   4.968 -0.9873 -1.1588  0.1540
 1004MOL0     C35454   2.729   8.958   4.934 -1.3157 -0.0880  0.1473
 1004MOL0     C35455   2.865   8.926   4.918  0.2119  0.3591 -0.5935
 1004MOL0     N35456   3.438   9.166   4.566  0.2868  0.1312 -0.5259
 1004MOL0     N35457   3.547   9.225   4.602  0.1543 -0.1339 -0.5221
 1004MOL0     C35458   4.119   9.682   5.493  0.1500  0.0384 -0.9158
 1004MOL0     C35459   4.233   9.677   5.581 -0.3370  0.1931  0.1832
 1004MOL0     C35460   4.616   9.835   5.816 -0.2889 -0.1898  1.4705
 1004MOL0     C35461   4.678   9.956   5.866  0.2767  0.5454  0.2227
 1004MOL0     C35462   4.792   9.940   5.941  0.0561  0.2553 -0.2630
 1004MOL0     C35463   4.866   9.815   5.950  0.5167 -0.3855  0.4291
 1004MOL0     O35464   4.970   9.804   6.037  0.2905  0.5506 -0.1725
 1004MOL0     C35465   5.021   9.683   6.085 -0.5014  0.4065 -0.8094
 1004MOL0     C35466   5.132   9.621   5.994  0.3368  0.9901  0.3113
 1004MOL0     C35467   5.185   9.486   6.056 -0.0985 -0.6239  0.8618
 1004MOL0     C35468   5.296   9.511   6.156  0.2109  0.6848 -0.4406
 1004MOL0     C35469   5.414   9.587   6.113 -0.5618 -0.7826 -0.3659
 1004MOL0     C35470   5.517   9.643   6.079 -0.3325 -0.2553  0.1103
 1004MOL0     C35471   4.814   9.703   5.873 -0.3489 -0.1477 -0.2220
 1004MOL0     C35472   4.687   9.712   5.820 -0.0792  0.7274  1.1382
 1004MOL0     H35473   4.418   9.927   5.455  2.1577 -1.5565  1.6240
 1004MOL0     H35474   4.216   9.944   5.295  2.0020 -0.7900 -1.6246
 1004MOL0     H35475   3.861   9.708   5.426 -1.3507  1.4130  0.9831
 1004MOL0     H35476   3.829   9.868   5.351  2.6068  2.4410 -4.5970
 1004MOL0     H35477   3.702   9.709   5.211 -0.6271  2.7438  0.1608
 1004MOL0     H35478   3.841   9.765   5.115 -0.5811 -1.0769 -0.5549
 1004MOL0     H35479   3.956   9.575   5.145 -1.1107  4.4642 -1.7785
 1004MOL0     H35480   3.838   9.504   5.262  2.1347 -0.7514 -0.6771
 1004MOL0     H35481   3.653   9.508   5.072  0.1147  0.8104  0.4876
 1004MOL0     H35482   3.760   9.564   4.963 -1.4515  1.0412  1.9908
 1004MOL0     H35483   3.917   9.365   4.988 -0.4946 -4.2627 -0.0121
 1004MOL0     H35484   3.782   9.298   5.087 -2.2752  0.0753 -0.4046
 1004MOL0     H35485   3.639   9.314   4.888  0.1751 -1.5324 -2.4190
 1004MOL0     H35486   3.755   9.407   4.804 -2.3739  3.3424  2.2171
 1004MOL0     H35487   3.909   9.180   4.838 -0.7231 -1.1590  1.9380
 1004MOL0     H35488   3.756   9.109   4.899 -0.4154  0.5186  1.3356
 1004MOL0     H35489   3.809   9.059   4.656 -2.7883 -0.7280 -2.0795
 1004MOL0     H35490   3.812   9.236   4.631 -0.8819  0.3326  0.0281
 1004MOL0     H35491   3.584   8.928   4.724 -1.7512 -0.0323  1.2434
 1004MOL0     H35492   3.238   8.982   4.566  0.6614  2.5754 -0.0159
 1004MOL0     H35493   3.344   8.842   4.583 -0.3486 -1.2100  3.0025
 1004MOL0     H35494   3.308   9.029   4.810  0.8450 -0.8600  1.7755
 1004MOL0     H35495   3.368   8.860   4.814 -1.2964 -1.4931  0.5115
 1004MOL0     H35496   3.134   8.770   4.732 -2.8385 -0.5087  0.7363
 1004MOL0     H35497   3.085   8.941   4.747  0.8924 -0.3832 -2.3111
 1004MOL0     H35498   3.124   8.935   4.977 -2.0955 -0.6959  2.0875
 1004MOL0     H35499   3.239   8.798   4.972 -0.4101  0.0778  0.6061
 1004MOL0     H35500   2.853   8.611   5.033 -1.4019  0.0553  0.5514
 1004MOL0     H35501   2.630   8.530   5.077 -1.2463 -0.4543 -0.2393
 1004MOL0     H35502   2.579   8.653   5.195  0.5891  2.4736  0.0626
 1004MOL0     H35503   2.497   8.638   5.044 -0.1386 -1.1819  1.2112
 1004MOL0     H35504   2.218   8.746   5.062 -0.8552  1.0526 -1.0185
 1004MOL0     H35505   2.014   8.767   5.135  1.8462  0.2206 -0.9623
 1004MOL0     H35506   1.821   9.058   5.186  2.1626 -0.5474 -0.6819
 1004MOL0     H35507   1.826   8.879   5.143 -1.2762 -2.9373  1.9797
 1004MOL0     H35508   1.693   8.860   5.378 -2.0878  1.6804  1.7511
 1004MOL0     H35509   1.666   9.025   5.363  2.7593  0.5018 -0.9446
 1004MOL0     H35510   1.574   8.819   5.139 -3.6481 -1.6210  0.9151
 1004MOL0     H35511   1.567   8.995   5.119 -0.3553 -1.2372 -2.1458
 1004MOL0     H35512   1.421   8.988   5.339 -0.0207 -2.5754  4.9660
 1004MOL0     H35513   1.346   8.901   5.202  0.0047 -0.4691 -0.3521
 1004MOL0     H35514   1.501   8.771   5.435  0.6931 -0.7218 -0.1437
 1004MOL0     H35515   1.446   8.692   5.288 -0.8091 -0.6032  2.0845
 1004MOL0     H35516   1.258   8.824   5.495  0.9142  0.3931  0.3430
 1004MOL0     H35517   1.216   8.746   5.338  1.0085  0.5994 -0.8159
 1004MOL0     H35518   1.355   8.620   5.581  1.1884  4.4874 -0.7860
 1004MOL0     H35519   1.310   8.536   5.431  1.4762  1.8814 -1.7500
 1004MOL0     H35520   1.146   8.468   5.598 -1.4944  0.7757  1.9153
 1004MOL0     H35521   1.067   8.578   5.475 -1.8848  1.5463  1.8619
 1004MOL0     H35522   2.136   9.109   5.378  0.7701 -0.4635 -0.8452
 1004MOL0     H35523   2.356   9.088   5.283  3.1663 -2.4862 -1.1725
 1004MOL0     H35524   2.706   9.062   4.910 -1.3247  0.5348  2.6258
 1004MOL0     H35525   2.932   9.003   4.880  2.2872 -0.6234  0.8655
 1004MOL0     H35526   4.032   9.620   5.511 -0.0614  1.2218  2.9747
 1004MOL0     H35527   4.234   9.598   5.655 -3.7287 -0.8599 -0.7118
 1004MOL0     H35528   4.626  10.050   5.851 -2.0797 -0.7693 -0.3761
 1004MOL0     H35529   4.820  10.027   6.000 -0.0417  0.4841 -0.5521
 1004MOL0     H35530   5.045   9.702   6.190 -2.6209 -1.8879  0.2044
 1004MOL0     H35531   4.945   9.604   6.092  1.7962 -1.8699  0.2301
 1004MOL0     H35532   5.210   9.697   5.985 -0.4514  1.8138  0.3543
 1004MOL0     H35533   5.099   9.591   5.894  1.2680 -1.0973  0.5791
 1004MOL0     H35534   5.230   9.432   5.973 -0.9943 -1.4631  0.9059
 1004MOL0     H35535   5.096   9.435   6.092 -0.2621 -0.2167  1.0410
 1004MOL0     H35536   5.326   9.414   6.196  2.1468  3.1144  4.9691
 1004MOL0     H35537   5.260   9.560   6.247  0.4625 -0.7318  0.4537
 1004MOL0     H35538   5.616   9.680   6.064  0.0894 -0.9402  1.1127
 1004MOL0     H35539   4.872   9.611   5.874 -1.0827 -0.6237  0.0846
 1004MOL0     H35540   4.640   9.625   5.776 -2.3097  1.9449  0.9754
 1005MOL0     O35541   0.429  11.127   6.937  0.3495 -0.9023 -0.0355
 1005MOL0     C35542   0.453  11.244   6.898 -0.5234 -0.2686 -0.1338
 1005MOL0     O35543   0.375  11.351   6.920  0.1149  0.1727  0.2839
 1005MOL0     C35544   0.269  11.341   7.012  0.5056  0.2316 -0.6155
 1005MOL0     C35545   0.297  11.384   7.140  0.0851  0.0288  1.2344
 1005MOL0     C35546   0.194  11.377   7.242  0.1438  0.8027 -0.1810
 1005MOL0     C35547   0.062  11.342   7.203  0.2882 -0.2763  0.2069
 1005MOL0     O35548  -0.021  11.348   7.310  0.7625  0.1401  0.1781
 1005MOL0     C35549  -0.160  11.301   7.286  0.1154 -1.0672  0.2821
 1005MOL0     C35550  -0.242  11.314   7.401 -0.9937 -0.8395 -0.4737
 1005MOL0     C35551  -0.383  11.270   7.373 -0.3057 -0.2454  0.6671
 1005MOL0     C35552  -0.480  11.307   7.482  0.4565 -0.0095  0.5864
 1005MOL0     C35553  -0.623  11.267   7.426  0.5676 -0.1009  0.1141
 1005MOL0     C35554  -0.723  11.261   7.539  0.0013  0.0801 -0.0484
 1005MOL0     C35555  -0.855  11.203   7.500 -0.1173 -0.6235 -0.0219
 1005MOL0     C35556  -0.941  11.160   7.622 -0.4764 -0.1356 -0.5532
 1005MOL0     N35557  -0.880  11.046   7.688 -0.2066  0.2924  0.3263
 1005MOL0     C35558  -0.815  11.050   7.812 -0.5507 -0.7657  1.2737
 1005MOL0     C35559  -0.796  10.918   7.834  0.5528  0.4387  0.5408
 1005MOL0     C35560  -0.750  10.853   7.964  0.0678 -0.3078 -0.5135
 1005MOL0     C35561  -0.599  10.861   8.009 -0.5880 -0.2668 -0.2464
 1005MOL0     C35562  -0.545  11.010   8.051 -0.1316 -0.0553  0.1340
 1005MOL0     C35563  -0.394  11.015   8.055 -1.3287 -0.3179 -0.6733
 1005MOL0     O35564  -0.367  11.011   8.195  0.1505 -0.1292  0.4007
 1005MOL0     C35565  -0.234  11.043   8.224  0.3873  0.7851  0.6471
 1005MOL0     C35566  -0.205  11.056   8.354 -0.5226  0.3374  0.8747
 1005MOL0     C35567  -0.079  11.080   8.398 -0.9397 -0.0230  0.6801
 1005MOL0     C35568  -0.064  11.075   8.546 -0.2076  0.0825  0.1717
 1005MOL0     C35569   0.013  11.105   8.303 -0.7352  0.2732 -0.2980
 1005MOL0     C35570   0.150  11.133   8.339  0.3368 -0.1105  0.1304
 1005MOL0     O35571   0.246  11.062   8.269 -0.2957 -0.7549  0.1685
 1005MOL0     C35572   0.372  11.065   8.317  0.1827 -0.0586  0.4840
 1005MOL0     C35573   0.461  11.116   8.223  0.5330  0.4950 -0.0729
 1005MOL0     C35574   0.598  11.104   8.263 -0.7829 -0.2604 -0.3328
 1005MOL0     C35575   0.641  11.053   8.381  0.0176 -0.0242  0.1497
 1005MOL0     O35576   0.774  11.048   8.401 -0.5436  0.4535  0.7832
 1005MOL0     C35577   0.823  11.044   8.533 -0.0928  0.3477  0.6637
 1005MOL0     C35578   0.874  10.896   8.568 -0.7512  0.1275 -0.0158
 1005MOL0     C35579   0.972  10.901   8.683 -0.3152  0.2786  0.3073
 1005MOL0     C35580   1.039  10.760   8.695 -0.2679 -0.0466  0.4867
 1005MOL0     C35581   1.105  10.761   8.835 -0.3035  0.4995  0.1786
 1005MOL0     C35582   1.164  10.632   8.863  0.1200 -0.2502  0.3676
 1005MOL0     C35583   1.249  10.645   8.989 -0.4751  0.1470  0.2177
 1005MOL0     C35584   1.342  10.515   9.010 -0.8495  0.0296 -0.2074
 1005MOL0    Cl35585   1.424  10.541   9.167  0.1507 -0.5300 -0.0589
 1005MOL0     C35586   0.540  11.028   8.475  0.1091  0.4418 -0.7036
 1005MOL0     C35587   0.409  11.021   8.441  0.3612 -0.6247 -0.0852
 1005MOL0     O35588   0.172  11.200   8.438 -0.7050 -0.5320  0.1586
 1005MOL0     C35589  -0.011  11.102   8.169 -0.3095  0.3536  0.2161
 1005MOL0     C35590  -0.137  11.059   8.122 -0.5161 -0.6912 -0.4220
 1005MOL0     N35591  -0.861  10.846   7.740 -0.2061 -0.7716  0.4448
 1005MOL0     N35592  -0.915  10.923   7.646 -0.7243 -0.7922 -0.4059
 1005MOL0     C35593   0.031  11.297   7.079 -0.2372 -0.2068  0.7319
 1005MOL0     C35594   0.137  11.295   6.983  0.6230 -0.2832 -0.5003
 1005MOL0     C35595   0.565  11.260   6.809 -0.1141  0.7733 -0.2282
 1005MOL0     C35596   0.658  11.158   6.796 -0.0635 -0.2276 -0.3022
 1005MOL0     C35597   0.759  11.180   6.718 -0.0267  0.0101 -0.1821
 1005MOL0     C35598   0.774  11.298   6.650 -0.2118  0.0466  0.3791
 1005MOL0     O35599   0.869  11.315   6.554  0.1114  0.2688  0.1381
 1005MOL0     C35600   0.985  11.398   6.586  0.8572 -0.1988  0.0863
 1005MOL0     C35601   1.109  11.364   6.512  0.8250  0.4444  0.6316
 1005MOL0     C35602   1.233  11.448   6.540 -0.0562 -0.3140  0.0719
 1005MOL0     C35603   1.365  11.392   6.475  0.1323  0.2630 -0.1301
 1005MOL0     C35604   1.478  11.458   6.533  1.0227  0.0481 -0.0262
 1005MOL0     C35605   1.571  11.519   6.582  0.9427 -0.5769  0.5336
 1005MOL0     C35606   0.687  11.401   6.657 -0.2973 -0.1651 -1.2946
 1005MOL0     C35607   0.575  11.378   6.733  0.1885 -0.3383 -0.8469
 1005MOL0     H35608   0.401  11.398   7.166  0.2435 -3.6046  3.2070
 1005MOL0     H35609   0.219  11.397   7.345 -1.0031 -2.4353  0.8497
 1005MOL0     H35610  -0.190  11.378   7.215 -1.2885  2.9130  4.7089
 1005MOL0     H35611  -0.165  11.198   7.249 -0.5766 -1.1506  0.5942
 1005MOL0     H35612  -0.205  11.263   7.491 -3.2323 -1.8063 -0.0246
 1005MOL0     H35613  -0.249  11.420   7.429  1.4162 -1.0798  1.3153
 1005MOL0     H35614  -0.404  11.299   7.270  0.5617  0.0066  0.5532
 1005MOL0     H35615  -0.388  11.161   7.375 -0.2616 -0.2692 -0.1731
 1005MOL0     H35616  -0.451  11.253   7.573  2.8367 -0.6631 -0.4715
 1005MOL0     H35617  -0.483  11.415   7.497 -2.3293  0.0419  0.2200
 1005MOL0     H35618  -0.657  11.341   7.353 -0.8236 -0.2336  0.5911
 1005MOL0     H35619  -0.618  11.171   7.373 -3.1660 -0.9065  0.9211
 1005MOL0     H35620  -0.682  11.188   7.610  2.8570  0.8656 -0.7489
 1005MOL0     H35621  -0.725  11.360   7.586  0.3313 -0.1770  0.5249
 1005MOL0     H35622  -0.901  11.276   7.433  3.1195 -0.2599 -2.0771
 1005MOL0     H35623  -0.833  11.112   7.442  3.3487 -0.0329  0.1101
 1005MOL0     H35624  -1.036  11.131   7.577  0.3742 -1.9059 -1.3455
 1005MOL0     H35625  -0.954  11.237   7.699 -0.0896  0.7360 -1.3383
 1005MOL0     H35626  -0.786  11.136   7.872  0.4288 -0.5950  0.5919
 1005MOL0     H35627  -0.815  10.892   8.043  0.2362  0.8616 -0.9401
 1005MOL0     H35628  -0.776  10.747   7.954  2.4126 -0.9070 -0.9197
 1005MOL0     H35629  -0.537  10.811   7.935  0.9644  0.7439  0.3216
 1005MOL0     H35630  -0.594  10.799   8.099  1.7130  0.6482  0.3117
 1005MOL0     H35631  -0.588  11.020   8.151  2.3630  1.3804  1.1368
 1005MOL0     H35632  -0.581  11.085   7.981  2.3318  0.2688 -0.8811
 1005MOL0     H35633  -0.355  11.103   8.002 -1.8588 -0.4042 -1.2084
 1005MOL0     H35634  -0.353  10.921   8.018  1.4226 -0.4593  2.2222
 1005MOL0     H35635  -0.290  11.036   8.419 -0.9132  2.2145  1.0003
 1005MOL0     H35636  -0.070  11.178   8.584  1.4045  0.5639 -0.7747
 1005MOL0     H35637  -0.144  11.010   8.583 -1.4067  0.2794 -1.9186
 1005MOL0     H35638   0.038  11.039   8.565  0.5850  1.6829 -0.8274
 1005MOL0     H35639   0.434  11.145   8.122  1.2848 -0.0368 -0.4334
 1005MOL0     H35640   0.673  11.115   8.185 -0.0023 -1.3551  0.2316
 1005MOL0     H35641   0.910  11.107   8.553 -0.8281  1.3052  0.9034
 1005MOL0     H35642   0.758  11.072   8.616  0.7761  0.1865  1.4197
 1005MOL0     H35643   0.800  10.828   8.610  1.9011 -4.1121 -1.6208
 1005MOL0     H35644   0.921  10.851   8.481  1.9688 -1.1175  1.9390
 1005MOL0     H35645   0.917  10.922   8.775  0.7306 -3.1833  1.9073
 1005MOL0     H35646   1.056  10.970   8.674  0.9653 -1.2943 -0.4718
 1005MOL0     H35647   0.964  10.681   8.680  1.0560 -1.2775  0.1147
 1005MOL0     H35648   1.108  10.742   8.613  1.5466  2.5078  1.3283
 1005MOL0     H35649   1.030  10.793   8.907  0.7440  1.6124  0.8050
 1005MOL0     H35650   1.176  10.844   8.832 -2.9142  2.8594 -0.6743
 1005MOL0     H35651   1.082  10.560   8.874 -0.4993  0.5286  0.9721
 1005MOL0     H35652   1.226  10.599   8.780  0.4881  2.7995 -0.7009
 1005MOL0     H35653   1.183  10.646   9.077 -0.1816  0.7376  0.4390
 1005MOL0     H35654   1.311  10.735   8.995  2.0152 -1.5193  1.0591
 1005MOL0     H35655   1.401  10.499   8.919  0.4242  1.2916  0.3635
 1005MOL0     H35656   1.270  10.432   9.013  0.3906 -1.1324 -1.2415
 1005MOL0     H35657   0.565  11.002   8.577 -0.9510  2.1766  0.0260
 1005MOL0     H35658   0.324  11.003   8.507 -0.5170  1.8223 -0.4361
 1005MOL0     H35659   0.061  11.120   8.090 -3.4978  0.0869 -3.0074
 1005MOL0     H35660  -0.154  11.046   8.016 -2.9456 -0.5363 -0.1226
 1005MOL0     H35661  -0.061  11.245   7.055  1.0049 -1.5203 -1.3967
 1005MOL0     H35662   0.117  11.259   6.883 -3.1756 -2.0233  0.6601
 1005MOL0     H35663   0.650  11.064   6.851  0.4558 -0.0809  0.0263
 1005MOL0     H35664   0.831  11.099   6.707  0.0727  0.1829 -0.8197
 1005MOL0     H35665   0.961  11.504   6.574  0.9168 -0.4445 -2.8488
 1005MOL0     H35666   1.005  11.393   6.693  2.1301 -1.8562 -0.1844
 1005MOL0     H35667   1.085  11.360   6.405 -1.1923 -1.6070  1.0960
 1005MOL0     H35668   1.141  11.261   6.528  2.5256  0.1551 -3.3914
 1005MOL0     H35669   1.240  11.474   6.646  0.5226 -4.5819  1.2729
 1005MOL0     H35670   1.226  11.541   6.484  1.5672  0.8340  1.6591
 1005MOL0     H35671   1.375  11.406   6.367  2.6738  0.0467  0.0233
 1005MOL0     H35672   1.373  11.284   6.493 -0.4068  0.5317  2.1162
 1005MOL0     H35673   1.654  11.580   6.613 -0.2961  0.6133  1.6413
 1005MOL0     H35674   0.706  11.496   6.609 -0.1953  0.4045 -0.1622
 1005MOL0     H35675   0.485  11.439   6.740 -0.6937 -1.6541 -0.2759
 1006MOL0     O35676   4.096   6.545   5.159  0.4950  0.6058  0.1331
 1006MOL0     C35677   4.055   6.608   5.250 -0.1477  0.1959  0.0566
 1006MOL0     O35678   3.927   6.640   5.271  0.3175  0.1551  0.2708
 1006MOL0     C35679   3.830   6.609   5.177 -0.0360 -0.2318 -0.3324
 1006MOL0     C35680   3.740   6.509   5.201  0.8100 -0.1587 -0.1454
 1006MOL0     C35681   3.621   6.506   5.120 -0.4227 -0.7163 -0.6659
 1006MOL0     C35682   3.609   6.584   5.004  0.7410  0.6596 -0.0996
 1006MOL0     O35683   3.505   6.573   4.900 -0.2291  0.1025 -0.1734
 1006MOL0     C35684   3.415   6.474   4.913 -0.1526 -0.5221  0.7938
 1006MOL0     C35685   3.320   6.475   4.792 -0.1853  0.8601  0.4377
 1006MOL0     C35686   3.409   6.483   4.668 -0.2673 -0.4021  0.4296
 1006MOL0     C35687   3.418   6.624   4.622 -0.1264  0.5372 -0.1209
 1006MOL0     C35688   3.512   6.647   4.501  0.0762 -0.1838 -0.7010
 1006MOL0     C35689   3.658   6.625   4.547  0.1449  0.3345 -0.4694
 1006MOL0     C35690   3.755   6.660   4.433  0.2821  0.0010  0.1568
 1006MOL0     C35691   3.741   6.585   4.298  0.0594 -0.6041 -0.6591
 1006MOL0     N35692   3.799   6.449   4.320  0.7700 -1.4258  0.6896
 1006MOL0     C35693   3.741   6.339   4.367 -0.0179  0.6637  0.2197
 1006MOL0     C35694   3.833   6.248   4.346 -0.2888  0.5240 -0.2880
 1006MOL0     C35695   3.830   6.104   4.394 -0.7681  0.0086 -1.2827
 1006MOL0     C35696   3.736   6.014   4.315  0.4511 -0.8210 -0.1036
 1006MOL0     C35697   3.775   6.018   4.159 -0.1791 -0.0753  0.0029
 1006MOL0     C35698   3.674   5.946   4.076  0.4691  0.4629  0.0540
 1006MOL0     O35699   3.567   6.038   4.041  0.5489 -0.6018  0.6546
 1006MOL0     C35700   3.478   5.986   3.948 -0.5334  0.7745  0.7026
 1006MOL0     C35701   3.481   5.855   3.891  0.0946  0.1317 -0.3600
 1006MOL0     C35702   3.376   5.794   3.818  0.3629  0.2132 -0.3529
 1006MOL0     C35703   3.392   5.647   3.762 -0.2572  0.0266 -0.0469
 1006MOL0     C35704   3.256   5.868   3.797  0.4157 -0.7938 -1.1835
 1006MOL0     C35705   3.139   5.822   3.719  0.3571  0.4816  0.0448
 1006MOL0     O35706   3.058   5.922   3.666  0.2423  0.4672  0.0772
 1006MOL0     C35707   2.918   5.904   3.645 -0.4537  0.7186  0.5524
 1006MOL0     C35708   2.849   5.940   3.523  0.2223  0.9489 -0.8064
 1006MOL0     C35709   2.707   5.943   3.512  0.1240  0.2782  0.5350
 1006MOL0     C35710   2.630   5.896   3.620 -0.1580 -0.6335 -0.3253
 1006MOL0     O35711   2.493   5.883   3.612  0.2154 -0.7239 -0.4811
 1006MOL0     C35712   2.422   6.002   3.575 -0.3709  0.0717 -0.7299
 1006MOL0     C35713   2.278   5.967   3.521 -0.0770  0.9293  0.3791
 1006MOL0     C35714   2.273   5.921   3.379  0.0710 -0.5684 -0.2012
 1006MOL0     C35715   2.129   5.896   3.336  0.0662  0.7470  0.4271
 1006MOL0     C35716   2.039   6.035   3.321  0.4983 -0.0572  0.8078
 1006MOL0     C35717   1.886   6.009   3.310 -0.2264 -0.7302  0.0806
 1006MOL0     C35718   1.840   5.953   3.183 -0.4583 -0.6245 -0.8671
 1006MOL0     C35719   1.692   5.934   3.161  0.1871  0.5218  0.6468
 1006MOL0    Cl35720   1.628   6.095   3.114  0.0274  0.0325  0.1101
 1006MOL0     C35721   2.698   5.855   3.741 -0.5842  0.0834  1.0670
 1006MOL0     C35722   2.837   5.860   3.747  0.2668  0.2264 -1.0385
 1006MOL0     O35723   3.111   5.703   3.713 -0.5067 -0.0399  0.6971
 1006MOL0     C35724   3.249   6.001   3.850  0.5002 -0.5377  0.0342
 1006MOL0     C35725   3.359   6.061   3.916 -0.1515  0.1762 -0.6665
 1006MOL0     N35726   3.928   6.291   4.257  0.0018 -0.3092 -0.8692
 1006MOL0     N35727   3.904   6.410   4.249 -0.0224 -0.5112 -0.3605
 1006MOL0     C35728   3.708   6.673   4.983  0.5919 -1.4571  0.1392
 1006MOL0     C35729   3.816   6.697   5.069 -0.1080  0.1072  0.0501
 1006MOL0     C35730   4.148   6.623   5.360  0.5742  0.1281 -0.0952
 1006MOL0     C35731   4.274   6.673   5.329  0.3075  0.0955 -0.1979
 1006MOL0     C35732   4.367   6.684   5.436  0.3160  0.0266  0.5409
 1006MOL0     C35733   4.338   6.650   5.569 -0.3457 -0.2266 -0.1608
 1006MOL0     O35734   4.420   6.687   5.675  0.1840  0.2859 -0.1033
 1006MOL0     C35735   4.408   6.628   5.803  0.9864 -0.2725  1.4104
 1006MOL0     C35736   4.545   6.659   5.887 -0.4143  0.0160 -0.0790
 1006MOL0     C35737   4.540   6.805   5.933  0.3074  0.1816 -0.3230
 1006MOL0     C35738   4.660   6.828   6.032 -0.3859 -0.9258 -0.6608
 1006MOL0     C35739   4.641   6.959   6.093  1.0621 -0.0281 -1.0881
 1006MOL0     C35740   4.609   7.069   6.136 -0.1600 -0.3840 -0.6058
 1006MOL0     C35741   4.207   6.608   5.603 -0.8300 -0.0330 -0.5242
 1006MOL0     C35742   4.117   6.584   5.494 -0.3435  0.1117  1.4762
 1006MOL0     H35743   3.746   6.447   5.289 -1.9651 -0.9076 -0.3622
 1006MOL0     H35744   3.552   6.425   5.141 -1.8340  0.6996  0.3782
 1006MOL0     H35745   3.469   6.381   4.897  0.7667  0.3833 -1.8862
 1006MOL0     H35746   3.363   6.469   5.009  2.8570 -2.7173  2.4805
 1006MOL0     H35747   3.252   6.390   4.787  1.5294 -0.4824 -2.2176
 1006MOL0     H35748   3.256   6.564   4.799 -2.2203 -0.4106 -1.1046
 1006MOL0     H35749   3.503   6.429   4.681  0.5470  0.9338  0.3008
 1006MOL0     H35750   3.354   6.439   4.585  2.0606  0.1241 -1.5083
 1006MOL0     H35751   3.318   6.653   4.588 -0.3968  0.2115  0.3842
 1006MOL0     H35752   3.437   6.698   4.700 -0.0374  0.8961 -0.4791
 1006MOL0     H35753   3.489   6.571   4.426 -0.3387 -2.6374  1.7585
 1006MOL0     H35754   3.491   6.749   4.469  0.0588  0.5509  1.4921
 1006MOL0     H35755   3.673   6.686   4.636 -2.1715  2.4905 -1.4308
 1006MOL0     H35756   3.662   6.519   4.571 -1.9521 -0.1749 -2.0077
 1006MOL0     H35757   3.770   6.767   4.416  1.5447 -0.1840 -0.0260
 1006MOL0     H35758   3.853   6.639   4.477 -0.6894 -0.6188  2.1643
 1006MOL0     H35759   3.801   6.638   4.223  3.4776 -0.3684  1.9584
 1006MOL0     H35760   3.635   6.572   4.278 -0.1263  1.6106 -1.4366
 1006MOL0     H35761   3.648   6.338   4.423 -0.4206 -1.0850 -0.4157
 1006MOL0     H35762   3.935   6.075   4.386 -0.9798 -1.4434  0.5405
 1006MOL0     H35763   3.799   6.102   4.499  1.8193 -1.1855 -0.4511
 1006MOL0     H35764   3.639   6.061   4.332  1.4165  0.4940  2.3425
 1006MOL0     H35765   3.732   5.911   4.351 -4.7483 -0.6677  0.5906
 1006MOL0     H35766   3.870   5.965   4.153  0.5492  0.4640  4.1413
 1006MOL0     H35767   3.776   6.120   4.119 -0.7034 -0.4338 -0.9662
 1006MOL0     H35768   3.630   5.865   4.135  0.5021 -1.0805 -1.9221
 1006MOL0     H35769   3.716   5.891   3.991 -0.6288 -1.4293  0.6923
 1006MOL0     H35770   3.570   5.794   3.899  0.8514  1.3747  1.4059
 1006MOL0     H35771   3.315   5.584   3.807 -4.8132  4.9274 -0.0449
 1006MOL0     H35772   3.384   5.641   3.653 -0.3459  0.6595 -0.0833
 1006MOL0     H35773   3.494   5.618   3.789 -0.3782  0.8586  1.4062
 1006MOL0     H35774   2.904   5.973   3.436  4.1520 -3.1158 -0.1899
 1006MOL0     H35775   2.672   5.990   3.421 -0.9430 -1.6471 -0.1075
 1006MOL0     H35776   2.412   6.061   3.667  1.4680  0.4220 -0.7242
 1006MOL0     H35777   2.477   6.062   3.502  1.9776  0.0103  0.8794
 1006MOL0     H35778   2.228   5.900   3.591 -2.1092  0.4326 -1.4462
 1006MOL0     H35779   2.220   6.059   3.517 -1.2210  0.2695 -4.4604
 1006MOL0     H35780   2.340   5.836   3.364  0.9601  0.3368 -1.6032
 1006MOL0     H35781   2.322   5.995   3.316 -1.3435 -0.3344 -1.0730
 1006MOL0     H35782   2.139   5.852   3.236 -0.7048 -2.5153  1.6505
 1006MOL0     H35783   2.077   5.829   3.405 -3.4493  0.6390 -2.0795
 1006MOL0     H35784   2.085   6.075   3.230  2.9758 -0.1036  1.9598
 1006MOL0     H35785   2.053   6.100   3.408 -2.0207 -0.7244  1.8037
 1006MOL0     H35786   1.852   5.944   3.392 -2.9766  0.2141 -0.2132
 1006MOL0     H35787   1.841   6.106   3.332 -1.3020 -1.1267 -0.3008
 1006MOL0     H35788   1.879   5.851   3.191 -0.2264 -0.4583  0.2543
 1006MOL0     H35789   1.893   6.008   3.105  2.0651  0.6198  1.5382
 1006MOL0     H35790   1.656   5.900   3.259 -0.5309 -2.5827 -0.5847
 1006MOL0     H35791   1.677   5.853   3.090 -0.5598 -1.1534  2.6166
 1006MOL0     H35792   2.652   5.809   3.828 -0.0100 -0.9812  0.8287
 1006MOL0     H35793   2.876   5.821   3.841 -0.1072  0.9033 -0.5973
 1006MOL0     H35794   3.164   6.066   3.833  2.5179  1.4467 -4.0789
 1006MOL0     H35795   3.344   6.159   3.963  0.7876 -1.2916  3.0703
 1006MOL0     H35796   3.708   6.726   4.888  2.7566 -3.2633 -0.9719
 1006MOL0     H35797   3.886   6.777   5.045  0.1421  0.8853  2.9072
 1006MOL0     H35798   4.307   6.686   5.226 -1.5375 -1.3025 -1.0403
 1006MOL0     H35799   4.461   6.737   5.425  0.6496 -0.4985  0.8162
 1006MOL0     H35800   4.324   6.668   5.861 -0.5724  0.3530 -1.1352
 1006MOL0     H35801   4.388   6.522   5.783 -1.6989  0.4638 -0.4560
 1006MOL0     H35802   4.628   6.643   5.817 -0.7754  0.1737 -0.5529
 1006MOL0     H35803   4.563   6.582   5.962 -0.6481 -0.7732 -0.8103
 1006MOL0     H35804   4.443   6.836   5.975  1.1243  2.0429  0.2932
 1006MOL0     H35805   4.543   6.865   5.842 -5.5716 -0.3300 -1.3065
 1006MOL0     H35806   4.758   6.833   5.985  0.0262  1.5913  0.3082
 1006MOL0     H35807   4.667   6.750   6.109  0.5608 -0.9753 -0.7962
 1006MOL0     H35808   4.578   7.164   6.172 -0.1553 -1.0352  1.2143
 1006MOL0     H35809   4.182   6.591   5.707  2.0618 -0.8125  0.1317
 1006MOL0     H35810   4.018   6.542   5.507 -0.2664 -1.3333 -1.7462
 1007MOL0     O35811   8.109   3.903   4.423 -0.2699  0.2539  0.5857
 1007MOL0     C35812   8.224   3.956   4.433  0.1100 -0.1694 -0.1596
 1007MOL0     O35813   8.240   4.094   4.448  0.2330 -0.9723 -0.3177
 1007MOL0     C35814   8.131   4.171   4.471 -0.4277 -0.0216  0.5260
 1007MOL0     C35815   8.013   4.164   4.409  0.6338 -0.2897 -0.1223
 1007MOL0     C35816   7.904   4.249   4.430  0.2014 -0.2926  0.1338
 1007MOL0     C35817   7.920   4.363   4.509  0.2304 -0.9347 -0.4753
 1007MOL0     O35818   7.815   4.451   4.518 -0.6709 -0.5005  0.8232
 1007MOL0     C35819   7.812   4.541   4.624 -0.0020 -0.8495 -0.6225
 1007MOL0     C35820   7.672   4.599   4.665  0.1634 -0.3584 -0.3820
 1007MOL0     C35821   7.602   4.495   4.757 -0.1035 -0.3946 -0.3525
 1007MOL0     C35822   7.477   4.559   4.814  0.5199 -0.5213 -0.3075
 1007MOL0     C35823   7.364   4.584   4.705 -0.1446  0.9199  0.5306
 1007MOL0     C35824   7.222   4.614   4.770 -0.8643  0.4259 -0.5317
 1007MOL0     C35825   7.116   4.658   4.666  0.9826  0.9067  0.3806
 1007MOL0     C35826   7.085   4.550   4.562 -0.2067 -0.5035 -0.1103
 1007MOL0     N35827   7.056   4.418   4.630  0.1521 -0.2514 -0.1618
 1007MOL0     C35828   6.963   4.392   4.730  0.5143  0.5663  0.3132
 1007MOL0     C35829   6.996   4.273   4.788 -0.1188 -0.9170 -0.3792
 1007MOL0     C35830   6.916   4.203   4.904 -0.4241  0.3544 -0.2329
 1007MOL0     C35831   6.823   4.104   4.838  0.1874  0.4695 -1.1773
 1007MOL0     C35832   6.737   4.032   4.938 -1.1967 -0.6273 -0.1051
 1007MOL0     C35833   6.648   3.923   4.872 -0.2718 -0.0373  0.3476
 1007MOL0     O35834   6.561   3.866   4.974  0.7218  0.0559  0.7352
 1007MOL0     C35835   6.456   3.941   5.027 -0.0350 -0.7535 -0.0289
 1007MOL0     C35836   6.409   4.070   4.981 -0.5305 -0.0266 -0.7890
 1007MOL0     C35837   6.306   4.134   5.045 -0.1338 -0.3287 -0.6722
 1007MOL0     C35838   6.279   4.272   4.994 -0.5514  0.0364  0.2458
 1007MOL0     C35839   6.240   4.081   5.158  0.6037 -0.0308  0.2514
 1007MOL0     C35840   6.144   4.161   5.235 -0.5433 -0.2526 -0.2737
 1007MOL0     O35841   6.169   4.152   5.373  0.3627 -0.5958 -0.0092
 1007MOL0     C35842   6.115   4.251   5.452  1.1267  1.0863 -0.4687
 1007MOL0     C35843   6.175   4.369   5.477  0.4363 -0.8438  0.4083
 1007MOL0     C35844   6.121   4.456   5.567  0.5617 -0.1951  0.1644
 1007MOL0     C35845   6.019   4.422   5.643  0.3322  0.2486 -0.6586
 1007MOL0     O35846   5.983   4.506   5.746 -0.1784 -0.0669 -0.6352
 1007MOL0     C35847   5.937   4.632   5.696 -0.3574  0.6555 -0.8850
 1007MOL0     C35848   5.869   4.721   5.801 -0.3773 -1.2802 -0.0586
 1007MOL0     C35849   5.754   4.653   5.879  0.4409  0.5123  0.7485
 1007MOL0     C35850   5.636   4.743   5.914  0.0498  0.2718  0.2979
 1007MOL0     C35851   5.548   4.675   6.026  0.0143  0.0177  0.6446
 1007MOL0     C35852   5.443   4.763   6.077  0.2039 -0.2543  1.3212
 1007MOL0     C35853   5.379   4.706   6.188  1.0091  0.3223 -0.9276
 1007MOL0     C35854   5.267   4.787   6.233  0.6117  0.0951  0.4714
 1007MOL0    Cl35855   5.198   4.722   6.379  0.3305 -0.2875  0.4887
 1007MOL0     C35856   5.948   4.306   5.621 -0.4779 -0.1828  0.3602
 1007MOL0     C35857   5.998   4.223   5.524  0.1089 -0.9602 -0.1388
 1007MOL0     O35858   6.045   4.214   5.185 -0.1965 -0.5068 -0.3503
 1007MOL0     C35859   6.276   3.952   5.198 -0.4673  0.1240  0.2083
 1007MOL0     C35860   6.387   3.890   5.133  0.4849 -0.1205 -0.2849
 1007MOL0     N35861   7.106   4.219   4.714 -0.8712 -0.6749 -0.5870
 1007MOL0     N35862   7.141   4.310   4.624  0.1920  1.0504  0.9678
 1007MOL0     C35863   8.037   4.383   4.567 -0.7943  0.4238 -0.3540
 1007MOL0     C35864   8.143   4.284   4.561 -0.0405  0.2884 -0.9688
 1007MOL0     C35865   8.349   3.874   4.429 -0.5449  0.1392  0.3087
 1007MOL0     C35866   8.348   3.733   4.397  0.4706 -0.0412  0.4001
 1007MOL0     C35867   8.464   3.665   4.417 -0.3560  0.4641 -0.1019
 1007MOL0     C35868   8.587   3.726   4.451  1.3257 -0.4418 -1.1569
 1007MOL0     O35869   8.708   3.663   4.457  0.0778  0.2749 -0.5710
 1007MOL0     C35870   8.742   3.621   4.593  0.5660  0.3231 -0.0897
 1007MOL0     C35871   8.896   3.624   4.602 -0.2557 -0.0459  1.0196
 1007MOL0     C35872   8.970   3.569   4.482 -0.5230 -0.0363  0.3403
 1007MOL0     C35873   9.110   3.500   4.522  0.0675 -0.4738 -0.5567
 1007MOL0     C35874   9.185   3.595   4.601  0.9256  0.2371  0.7193
 1007MOL0     C35875   9.239   3.687   4.648 -0.5698  0.2788 -0.2601
 1007MOL0     C35876   8.586   3.866   4.473 -0.0050  0.0936  0.2995
 1007MOL0     C35877   8.468   3.934   4.472 -0.2208  0.3841 -0.1138
 1007MOL0     H35878   7.997   4.088   4.333  1.2638  1.4199 -2.0750
 1007MOL0     H35879   7.805   4.238   4.387 -0.7228 -1.5626  2.4262
 1007MOL0     H35880   7.858   4.498   4.714  2.5769 -0.6116 -1.7302
 1007MOL0     H35881   7.876   4.625   4.596 -0.3268 -0.2103  0.5161
 1007MOL0     H35882   7.669   4.683   4.735 -2.2615 -1.4907  1.0481
 1007MOL0     H35883   7.629   4.623   4.568 -0.0522 -0.7101 -0.3746
 1007MOL0     H35884   7.587   4.410   4.690  3.0702 -0.4756 -1.1193
 1007MOL0     H35885   7.658   4.470   4.847 -1.4762  2.1824  1.3294
 1007MOL0     H35886   7.429   4.480   4.873 -2.2426  0.3252 -1.2474
 1007MOL0     H35887   7.495   4.644   4.880  2.4685 -0.8198 -0.3936
 1007MOL0     H35888   7.388   4.672   4.644 -0.4599  0.7684  0.1868
 1007MOL0     H35889   7.356   4.494   4.644  0.0169 -0.6591  2.7076
 1007MOL0     H35890   7.186   4.530   4.830  3.2849 -0.3078  1.2638
 1007MOL0     H35891   7.234   4.695   4.842  1.9660 -0.2404 -0.1507
 1007MOL0     H35892   7.027   4.688   4.722  1.1637  1.3626  0.4340
 1007MOL0     H35893   7.138   4.745   4.603  0.9643 -0.4278 -1.5340
 1007MOL0     H35894   7.176   4.538   4.502  0.4116 -2.3761  1.1155
 1007MOL0     H35895   7.001   4.592   4.506  1.0282  3.7315  0.8404
 1007MOL0     H35896   6.878   4.447   4.769 -0.7011 -1.8263  1.2250
 1007MOL0     H35897   6.977   4.163   4.985 -0.6542 -2.5724 -1.3740
 1007MOL0     H35898   6.850   4.283   4.940 -2.8100 -1.6084 -0.0117
 1007MOL0     H35899   6.878   4.025   4.787  0.0447 -0.6284  0.2847
 1007MOL0     H35900   6.760   4.163   4.771  3.2994  5.8036  0.0407
 1007MOL0     H35901   6.675   4.098   4.999 -2.9783 -1.8895 -0.4748
 1007MOL0     H35902   6.811   3.984   5.003  0.7863  1.6593 -0.5111
 1007MOL0     H35903   6.697   3.853   4.804 -1.5871  0.0953 -0.7838
 1007MOL0     H35904   6.576   3.974   4.807 -0.3366  3.6128  2.9517
 1007MOL0     H35905   6.457   4.121   4.899 -1.1920  1.4593 -0.2804
 1007MOL0     H35906   6.205   4.261   4.914 -1.1552 -0.7826  0.8965
 1007MOL0     H35907   6.254   4.353   5.062 -4.2857  1.7468 -2.7831
 1007MOL0     H35908   6.370   4.308   4.945 -1.2235  1.6793  0.1447
 1007MOL0     H35909   6.259   4.408   5.421  0.0301 -0.7829 -0.1641
 1007MOL0     H35910   6.173   4.549   5.588  0.8517 -0.3304  0.0632
 1007MOL0     H35911   6.022   4.686   5.653 -0.4742  0.7228 -1.0349
 1007MOL0     H35912   5.880   4.624   5.602  0.0712 -2.2447 -0.9999
 1007MOL0     H35913   5.951   4.764   5.859  0.6060  0.3367 -2.4485
 1007MOL0     H35914   5.829   4.806   5.744  1.7368  1.6360  2.4792
 1007MOL0     H35915   5.786   4.610   5.974  0.1628 -0.9608  0.2005
 1007MOL0     H35916   5.723   4.566   5.820 -0.9815  1.3644  0.1729
 1007MOL0     H35917   5.680   4.839   5.942 -1.1782  1.5499 -1.9449
 1007MOL0     H35918   5.577   4.758   5.824 -2.7166 -0.3374  1.8973
 1007MOL0     H35919   5.618   4.648   6.106  0.9501 -1.2542 -0.5516
 1007MOL0     H35920   5.507   4.582   5.985 -1.8529  0.1057  2.1918
 1007MOL0     H35921   5.486   4.859   6.106 -4.0026  2.0709  0.7233
 1007MOL0     H35922   5.366   4.783   6.001  1.4936  0.7324  0.2279
 1007MOL0     H35923   5.442   4.705   6.278 -0.2832 -0.9186  0.0158
 1007MOL0     H35924   5.349   4.603   6.166  0.2640  0.0290  1.2187
 1007MOL0     H35925   5.186   4.785   6.159  1.3121  4.7561 -0.7630
 1007MOL0     H35926   5.283   4.895   6.247 -3.3955  0.9515 -0.2286
 1007MOL0     H35927   5.846   4.293   5.656 -1.2329  0.7546 -1.3443
 1007MOL0     H35928   5.940   4.133   5.511 -0.6213 -0.4453 -0.5404
 1007MOL0     H35929   6.235   3.913   5.291 -0.0584  1.0630  0.8054
 1007MOL0     H35930   6.405   3.795   5.181 -3.8568  0.9135  4.2042
 1007MOL0     H35931   8.062   4.466   4.632  0.4788 -0.2548  0.0531
 1007MOL0     H35932   8.234   4.306   4.615 -0.0970 -2.4420  0.4125
 1007MOL0     H35933   8.252   3.687   4.376  0.0962  1.2474 -0.8565
 1007MOL0     H35934   8.447   3.561   4.394 -1.1075  0.8100 -1.2123
 1007MOL0     H35935   8.702   3.681   4.676  1.0199 -0.3650  0.6477
 1007MOL0     H35936   8.693   3.526   4.621 -1.6349  1.3901 -0.0622
 1007MOL0     H35937   8.920   3.573   4.695 -2.4343  2.2956  3.0233
 1007MOL0     H35938   8.938   3.725   4.610 -1.2966  0.7748 -2.1907
 1007MOL0     H35939   8.995   3.648   4.411 -0.7086 -0.9501 -0.7651
 1007MOL0     H35940   8.919   3.495   4.420 -1.7651 -0.1367  1.4328
 1007MOL0     H35941   9.167   3.475   4.433 -0.6391 -0.1163 -1.1227
 1007MOL0     H35942   9.101   3.402   4.570  1.2431 -1.1939 -1.7426
 1007MOL0     H35943   9.283   3.776   4.690 -3.2962  1.8326 -0.4735
 1007MOL0     H35944   8.674   3.928   4.485  1.8417 -1.6141 -3.1398
 1007MOL0     H35945   8.466   4.042   4.481 -2.8348  0.7147 -2.8188
 1008MOL0     O35946   8.557   4.165   0.652 -0.5226  0.2755  0.4108
 1008MOL0     C35947   8.569   4.276   0.694 -0.3745 -0.4884  0.0866
 1008MOL0     O35948   8.467   4.349   0.740 -0.0710 -0.0110 -0.1206
 1008MOL0     C35949   8.347   4.279   0.763 -0.2188  0.0560  0.4149
 1008MOL0     C35950   8.236   4.328   0.693  0.8760  1.1225 -0.1761
 1008MOL0     C35951   8.104   4.300   0.734  0.7606  0.8493 -1.4274
 1008MOL0     C35952   8.087   4.216   0.845  0.6816 -1.0501 -0.5909
 1008MOL0     O35953   7.973   4.200   0.917  0.1682 -0.2080 -0.0568
 1008MOL0     C35954   7.839   4.252   0.862 -0.0932 -0.9737 -0.5185
 1008MOL0     C35955   7.729   4.256   0.974 -0.3406  0.1181  0.4275
 1008MOL0     C35956   7.672   4.114   0.989 -1.0191 -0.1625  0.8912
 1008MOL0     C35957   7.771   4.012   1.059  0.5283  0.8024  0.2693
 1008MOL0     C35958   7.688   3.899   1.118 -0.0225  0.3392 -0.2466
 1008MOL0     C35959   7.616   3.959   1.241 -0.1519  0.8214  0.3632
 1008MOL0     C35960   7.502   3.872   1.291  0.6977 -0.0162  0.4112
 1008MOL0     C35961   7.391   3.863   1.178  0.1438 -0.3487 -0.2710
 1008MOL0     N35962   7.255   3.820   1.226 -0.4112 -0.0016 -0.2013
 1008MOL0     C35963   7.190   3.702   1.191 -0.2977  0.3234 -0.0394
 1008MOL0     C35964   7.071   3.704   1.260  0.0083  0.1668  0.2295
 1008MOL0     C35965   6.973   3.585   1.277 -0.1105 -0.6315 -0.4715
 1008MOL0     C35966   6.830   3.636   1.280  0.1143 -0.3244  0.0013
 1008MOL0     C35967   6.767   3.657   1.411  0.3644  0.5285 -0.6064
 1008MOL0     C35968   6.620   3.630   1.405  0.2113  0.3998  0.6339
 1008MOL0     O35969   6.566   3.646   1.537 -0.3327  0.5494 -0.0412
 1008MOL0     C35970   6.435   3.605   1.550 -0.8385  0.1018 -0.5650
 1008MOL0     C35971   6.393   3.562   1.672  0.1342  0.4279  0.4861
 1008MOL0     C35972   6.262   3.531   1.711  0.7910  0.7027  0.5482
 1008MOL0     C35973   6.221   3.472   1.841 -0.0280 -0.1234 -0.9492
 1008MOL0     C35974   6.157   3.545   1.613 -0.4541 -1.1959  0.1093
 1008MOL0     C35975   6.014   3.519   1.639  0.5596  0.2946 -0.2014
 1008MOL0     O35976   5.928   3.618   1.572  0.4037 -0.4579 -0.0179
 1008MOL0     C35977   5.796   3.647   1.591 -0.2181 -0.5025 -0.7506
 1008MOL0     C35978   5.724   3.723   1.502 -0.2918 -0.1268 -0.5469
 1008MOL0     C35979   5.591   3.771   1.527  1.1546  0.9145  0.6806
 1008MOL0     C35980   5.519   3.714   1.630  0.2980  0.8955  0.2321
 1008MOL0     O35981   5.382   3.754   1.631 -0.1738 -0.1906 -0.0144
 1008MOL0     C35982   5.298   3.705   1.740  1.4220 -0.2763 -0.9038
 1008MOL0     C35983   5.153   3.746   1.712  0.2144  0.2679  0.7580
 1008MOL0     C35984   5.082   3.662   1.603  0.1233 -0.6990 -0.0803
 1008MOL0     C35985   4.956   3.738   1.534  0.4008  0.1984  0.4261
 1008MOL0     C35986   4.864   3.805   1.640  0.3926  0.1537  0.9537
 1008MOL0     C35987   4.716   3.821   1.595 -0.4682  0.0587 -0.0991
 1008MOL0     C35988   4.694   3.906   1.473  0.3506  0.2706  0.0240
 1008MOL0     C35989   4.553   3.942   1.443  0.1974 -0.1217  0.4840
 1008MOL0    Cl35990   4.490   4.040   1.577  0.4670 -0.3271  0.3423
 1008MOL0     C35991   5.586   3.629   1.718  0.1920 -0.1611 -0.2946
 1008MOL0     C35992   5.719   3.605   1.698  0.1547  0.3162  0.0266
 1008MOL0     O35993   5.969   3.435   1.715 -0.5750  0.2380  0.3403
 1008MOL0     C35994   6.199   3.607   1.495  0.3809  0.4753 -0.2204
 1008MOL0     C35995   6.332   3.621   1.463  0.3595  0.2877  0.1225
 1008MOL0     N35996   7.072   3.824   1.338 -0.2872  0.0386  0.3434
 1008MOL0     N35997   7.175   3.889   1.310  0.4158  0.4874 -0.2748
 1008MOL0     C35998   8.198   4.168   0.914  0.2576 -0.1206  0.9038
 1008MOL0     C35999   8.327   4.201   0.869 -0.4670 -0.0398 -0.4979
 1008MOL0     C36000   8.705   4.336   0.716 -0.3773  0.4719 -0.5640
 1008MOL0     C36001   8.812   4.254   0.751 -0.2079 -0.4771 -0.7789
 1008MOL0     C36002   8.948   4.299   0.751 -0.2278  0.3149  0.0808
 1008MOL0     C36003   8.979   4.430   0.725  0.3778  0.7192 -0.5215
 1008MOL0     O36004   9.100   4.490   0.720  0.1449 -0.0780 -0.4290
 1008MOL0     C36005   9.212   4.396   0.733  0.4977 -1.6036 -0.5173
 1008MOL0     C36006   9.336   4.473   0.718 -0.4079 -0.5030  0.1210
 1008MOL0     C36007   9.464   4.379   0.706  0.2772  0.0223 -0.6327
 1008MOL0     C36008   9.494   4.319   0.846 -0.1267  0.1468  1.0108
 1008MOL0     C36009   9.636   4.266   0.849 -0.8593 -0.5292 -0.1674
 1008MOL0     C36010   9.758   4.238   0.841 -0.9936  1.0771 -0.5084
 1008MOL0     C36011   8.878   4.517   0.694  0.4329  0.1137  0.3475
 1008MOL0     C36012   8.742   4.470   0.694  0.0084  0.1659 -0.6065
 1008MOL0     H36013   8.245   4.414   0.628  4.3017  1.2063  0.2411
 1008MOL0     H36014   8.014   4.337   0.685 -0.3777 -1.2965 -1.0723
 1008MOL0     H36015   7.863   4.355   0.837  1.6734 -1.6031 -1.5821
 1008MOL0     H36016   7.817   4.205   0.766  3.2659 -1.7904 -1.0394
 1008MOL0     H36017   7.767   4.300   1.067 -2.0590  0.7342  0.8832
 1008MOL0     H36018   7.648   4.325   0.948  2.2163  3.6891  1.2986
 1008MOL0     H36019   7.574   4.115   1.038 -1.1870 -1.2293  0.5908
 1008MOL0     H36020   7.652   4.065   0.894 -1.7452 -0.8301  1.3732
 1008MOL0     H36021   7.835   3.971   0.980 -2.3941 -2.6998 -0.5552
 1008MOL0     H36022   7.841   4.059   1.128 -0.3205 -0.1999  1.8615
 1008MOL0     H36023   7.626   3.852   1.042 -2.4901  0.8940  1.3155
 1008MOL0     H36024   7.759   3.827   1.159  1.2641  1.7278  0.0527
 1008MOL0     H36025   7.680   3.959   1.330  1.6592 -3.1949 -0.6872
 1008MOL0     H36026   7.578   4.061   1.233  0.5193  0.9422 -2.3111
 1008MOL0     H36027   7.537   3.771   1.313  2.6937 -0.2429 -3.1513
 1008MOL0     H36028   7.460   3.931   1.374 -0.1451  1.5806 -1.0734
 1008MOL0     H36029   7.430   3.799   1.098 -4.1268 -0.4856 -2.5567
 1008MOL0     H36030   7.372   3.958   1.127 -4.4690  0.3126  2.1760
 1008MOL0     H36031   7.221   3.617   1.130 -2.8848 -2.2494  1.9404
 1008MOL0     H36032   6.969   3.503   1.206  0.5860 -1.8557  0.8477
 1008MOL0     H36033   6.990   3.527   1.368 -1.2820  0.7582  0.7054
 1008MOL0     H36034   6.769   3.568   1.220 -0.9540  0.1294  0.5352
 1008MOL0     H36035   6.826   3.731   1.227  1.7782  0.0617  0.4880
 1008MOL0     H36036   6.785   3.759   1.445 -0.5635  0.3106  0.6226
 1008MOL0     H36037   6.816   3.582   1.475  2.9154  2.1787 -0.5022
 1008MOL0     H36038   6.598   3.531   1.364  1.1517  0.6851 -0.5944
 1008MOL0     H36039   6.591   3.712   1.339  2.0271  0.8180  0.2977
 1008MOL0     H36040   6.466   3.547   1.752 -0.2351 -0.4699  0.6699
 1008MOL0     H36041   6.168   3.377   1.835 -2.6399  1.2381 -0.7849
 1008MOL0     H36042   6.309   3.464   1.905 -1.5467 -0.9876  1.1264
 1008MOL0     H36043   6.158   3.542   1.896  0.1786 -1.4726  1.1148
 1008MOL0     H36044   5.776   3.753   1.411  1.7943 -0.4000  0.4930
 1008MOL0     H36045   5.540   3.833   1.454 -1.9938 -1.6557  0.4913
 1008MOL0     H36046   5.300   3.598   1.764 -2.8503  0.1539  2.7369
 1008MOL0     H36047   5.341   3.759   1.825  1.7733 -0.1200 -1.1822
 1008MOL0     H36048   5.091   3.752   1.801 -1.6092  1.0915 -0.5072
 1008MOL0     H36049   5.161   3.844   1.663 -0.4503  0.5046  1.1206
 1008MOL0     H36050   5.045   3.568   1.646  1.3231 -1.6815 -1.1032
 1008MOL0     H36051   5.156   3.645   1.524  1.7439  1.4740  0.8824
 1008MOL0     H36052   4.994   3.828   1.484  1.1170 -0.4478 -0.2218
 1008MOL0     H36053   4.910   3.674   1.458  4.0249 -1.6782 -0.3819
 1008MOL0     H36054   4.906   3.900   1.676 -0.0007  1.0496 -0.8548
 1008MOL0     H36055   4.870   3.738   1.727  0.2437 -0.5358  0.4360
 1008MOL0     H36056   4.673   3.721   1.580 -3.3575  1.2631 -0.6059
 1008MOL0     H36057   4.666   3.860   1.684  2.1557  0.6776  1.2142
 1008MOL0     H36058   4.739   3.862   1.383 -0.8669 -0.1162 -0.4145
 1008MOL0     H36059   4.729   4.005   1.504 -0.9355  0.3878  1.2055
 1008MOL0     H36060   4.497   3.851   1.423 -1.1867  0.8436 -0.1709
 1008MOL0     H36061   4.529   4.008   1.359 -1.4430  1.7374  2.3133
 1008MOL0     H36062   5.525   3.585   1.797 -1.8736  0.2265 -1.5975
 1008MOL0     H36063   5.757   3.541   1.777 -0.5369 -0.4559 -0.2554
 1008MOL0     H36064   6.126   3.654   1.430  0.2247  1.3543  0.5727
 1008MOL0     H36065   6.359   3.670   1.370  0.1849 -1.8096 -1.0985
 1008MOL0     H36066   8.180   4.118   1.009  0.7060 -0.6711  0.7038
 1008MOL0     H36067   8.409   4.153   0.921 -0.7272 -0.3262 -0.3498
 1008MOL0     H36068   8.784   4.149   0.761 -0.3848 -0.2905  1.2388
 1008MOL0     H36069   9.024   4.224   0.772  0.2734  0.7613 -0.1207
 1008MOL0     H36070   9.198   4.345   0.829 -2.8680 -1.5692 -0.8621
 1008MOL0     H36071   9.202   4.318   0.657 -3.7229 -0.8881 -0.9248
 1008MOL0     H36072   9.356   4.545   0.798  1.0641 -2.4134  1.5493
 1008MOL0     H36073   9.341   4.534   0.627  2.6049  3.4813  2.6009
 1008MOL0     H36074   9.547   4.437   0.665 -0.1905  1.1708  0.0092
 1008MOL0     H36075   9.444   4.303   0.630 -1.1816  0.5416 -0.8007
 1008MOL0     H36076   9.415   4.249   0.873 -0.2663 -0.3751 -0.6103
 1008MOL0     H36077   9.493   4.391   0.928 -1.4198 -1.1392  2.1690
 1008MOL0     H36078   9.854   4.203   0.809  0.4317  2.6863  1.7538
 1008MOL0     H36079   8.898   4.623   0.699  1.2935 -0.0636  0.8647
 1008MOL0     H36080   8.666   4.538   0.656 -0.6221  1.4249  2.5390
 1009MOL0     O36081  10.643   1.676   0.030 -0.7531  0.1564  0.7336
 1009MOL0     C36082  10.724   1.773   0.005 -0.7677  0.1642  0.5540
 1009MOL0     O36083  10.686   1.896  -0.034  0.1794 -0.9227 -0.4918
 1009MOL0     C36084  10.553   1.919  -0.050 -0.4354 -0.1068  0.5389
 1009MOL0     C36085  10.471   1.885  -0.157  0.1664  0.2634 -0.7879
 1009MOL0     C36086  10.330   1.904  -0.150 -0.0476  0.1493  0.2358
 1009MOL0     C36087  10.273   1.979  -0.045  0.3765 -0.8804 -0.0867
 1009MOL0     O36088  10.137   2.008  -0.053 -0.7541  0.1446  0.9370
 1009MOL0     C36089  10.065   2.067   0.053  0.1195  0.8190  0.4074
 1009MOL0     C36090   9.927   2.014   0.064 -0.2103  0.0019 -0.0487
 1009MOL0     C36091   9.862   2.036   0.205 -0.0086 -0.2033 -0.0486
 1009MOL0     C36092   9.712   1.995   0.195 -0.1825 -0.6047 -0.4719
 1009MOL0     C36093   9.646   2.026   0.330  0.3109 -1.0512 -1.3508
 1009MOL0     C36094   9.490   1.981   0.335  0.0673  0.1197 -0.0094
 1009MOL0     C36095   9.396   2.043   0.228 -0.6028 -0.5585 -0.2686
 1009MOL0     C36096   9.254   1.988   0.226 -1.2084 -0.3123 -1.4245
 1009MOL0     N36097   9.184   2.019   0.103  0.5240  0.3373 -0.3776
 1009MOL0     C36098   9.126   2.147   0.083 -0.2297 -0.2681  0.6258
 1009MOL0     C36099   9.111   2.160  -0.054  0.1717  0.6193 -0.3291
 1009MOL0     C36100   9.040   2.269  -0.138 -0.5397  0.5614 -0.3469
 1009MOL0     C36101   8.895   2.227  -0.144 -0.3034 -0.9203 -0.0353
 1009MOL0     C36102   8.822   2.267  -0.279  0.0602  0.0357 -1.2748
 1009MOL0     C36103   8.671   2.225  -0.300 -0.0336 -0.3688  0.6345
 1009MOL0     O36104   8.575   2.290  -0.213 -0.9455 -0.2751 -0.1657
 1009MOL0     C36105   8.545   2.417  -0.244 -0.2199 -0.4380  0.3169
 1009MOL0     C36106   8.618   2.525  -0.184  0.2141  0.0678 -0.4555
 1009MOL0     C36107   8.592   2.663  -0.215 -0.0620  0.4652  0.3717
 1009MOL0     C36108   8.693   2.762  -0.150 -0.1468  0.6728  0.0202
 1009MOL0     C36109   8.485   2.693  -0.309  0.0373 -0.4037  0.3764
 1009MOL0     C36110   8.452   2.832  -0.362  0.0208  0.0038  0.2864
 1009MOL0     O36111   8.347   2.839  -0.452 -0.0510 -0.4560 -0.3885
 1009MOL0     C36112   8.322   2.951  -0.526 -0.2966  0.1682 -0.3054
 1009MOL0     C36113   8.193   2.987  -0.528 -0.1345  0.7144  1.2553
 1009MOL0     C36114   8.151   3.086  -0.620 -0.7870 -0.5246 -0.2201
 1009MOL0     C36115   8.244   3.168  -0.691  0.1352  0.7369  0.0885
 1009MOL0     O36116   8.200   3.251  -0.793 -0.3198  0.3386 -0.7318
 1009MOL0     C36117   8.109   3.195  -0.894 -0.4209 -0.3266 -0.2782
 1009MOL0     C36118   8.000   3.309  -0.913 -0.1538 -0.4827 -0.2328
 1009MOL0     C36119   7.900   3.279  -1.028 -0.5973 -0.3834  0.1460
 1009MOL0     C36120   7.802   3.388  -1.054 -0.2509  0.4108 -0.4462
 1009MOL0     C36121   7.723   3.360  -1.187 -0.1562 -0.5496 -0.1178
 1009MOL0     C36122   7.577   3.410  -1.175  0.2232 -0.2187 -0.7949
 1009MOL0     C36123   7.500   3.399  -1.300  0.0060 -0.3630 -0.0992
 1009MOL0     C36124   7.368   3.473  -1.296  0.5267 -0.1100 -0.0839
 1009MOL0    Cl36125   7.389   3.645  -1.257 -0.0832  0.0849 -0.5558
 1009MOL0     C36126   8.376   3.134  -0.682  0.5666 -0.3729  0.6218
 1009MOL0     C36127   8.416   3.025  -0.599  0.3697 -1.3087  0.3402
 1009MOL0     O36128   8.497   2.933  -0.308 -0.9962 -0.5566  0.2228
 1009MOL0     C36129   8.420   2.590  -0.354  0.6172  0.4296 -0.9124
 1009MOL0     C36130   8.442   2.456  -0.315 -0.1592  0.3148  0.1731
 1009MOL0     N36131   9.167   2.046  -0.109 -0.0217 -0.2747  0.3596
 1009MOL0     N36132   9.208   1.959  -0.014  0.2085  0.1789  0.5727
 1009MOL0     C36133  10.354   2.024   0.059  0.2388  0.0079 -0.2496
 1009MOL0     C36134  10.493   1.992   0.056 -0.7783  0.0438 -0.7536
 1009MOL0     C36135  10.874   1.742   0.007  0.5696  0.2668  0.1794
 1009MOL0     C36136  10.931   1.618   0.019  0.0836 -0.1536 -1.3104
 1009MOL0     C36137  11.069   1.598   0.037  0.5761 -0.1971 -0.0857
 1009MOL0     C36138  11.157   1.710   0.042  0.4300  0.1385  0.2087
 1009MOL0     O36139  11.292   1.693   0.050 -0.6303 -0.0842  0.3256
 1009MOL0     C36140  11.361   1.620  -0.048  0.1819 -0.0497 -0.0178
 1009MOL0     C36141  11.375   1.713  -0.172 -1.4101  0.0556 -0.0803
 1009MOL0     C36142  11.431   1.861  -0.140 -0.1352  0.0344 -0.0020
 1009MOL0     C36143  11.555   1.852  -0.042 -0.1961  0.4540 -0.6957
 1009MOL0     C36144  11.663   1.763  -0.084  0.4938  0.4629 -0.1280
 1009MOL0     C36145  11.759   1.687  -0.100  0.0646 -1.0375  0.1152
 1009MOL0     C36146  11.097   1.835   0.035  0.1087 -0.8249 -0.3352
 1009MOL0     C36147  10.959   1.857   0.021  0.6192  0.5827  0.3645
 1009MOL0     H36148  10.514   1.838  -0.245 -0.3401 -2.1330  0.1739
 1009MOL0     H36149  10.270   1.859  -0.229  2.0412 -1.9661 -0.2647
 1009MOL0     H36150  10.110   2.025   0.144  0.2183 -0.8752 -0.3886
 1009MOL0     H36151  10.073   2.174   0.073 -0.7750  0.6890  1.5996
 1009MOL0     H36152   9.861   2.066  -0.005 -2.7077 -0.4987  1.8421
 1009MOL0     H36153   9.931   1.907   0.039  3.4456 -0.6914  2.5323
 1009MOL0     H36154   9.914   1.971   0.276 -1.7772 -2.6899 -0.8752
 1009MOL0     H36155   9.870   2.141   0.233 -2.0379 -0.5210  2.0920
 1009MOL0     H36156   9.669   2.045   0.108  0.2911 -0.6789 -0.7502
 1009MOL0     H36157   9.704   1.887   0.177 -3.1344 -0.1964 -2.3837
 1009MOL0     H36158   9.707   1.979   0.409 -0.8113  2.3179  1.7715
 1009MOL0     H36159   9.643   2.132   0.356 -1.5581 -1.2321 -0.6855
 1009MOL0     H36160   9.472   1.874   0.329 -0.7423  0.2477  0.0075
 1009MOL0     H36161   9.448   2.018   0.429 -1.1736  0.0192 -0.5012
 1009MOL0     H36162   9.397   2.147   0.261 -0.1314 -1.3666  2.5170
 1009MOL0     H36163   9.442   2.025   0.130  2.5162 -4.3085  1.6292
 1009MOL0     H36164   9.196   2.025   0.311  0.6714 -0.7464  0.1019
 1009MOL0     H36165   9.268   1.880   0.241  0.5367  0.4269  5.1271
 1009MOL0     H36166   9.096   2.218   0.159 -0.7229  1.7482 -1.3341
 1009MOL0     H36167   9.047   2.371  -0.098  0.1071  0.3979 -0.0366
 1009MOL0     H36168   9.071   2.274  -0.242  1.6711  1.6621  0.3048
 1009MOL0     H36169   8.834   2.281  -0.071 -3.0254 -1.0991 -2.0242
 1009MOL0     H36170   8.898   2.117  -0.139 -2.3268 -1.3464 -3.9171
 1009MOL0     H36171   8.874   2.232  -0.369 -0.5886 -1.0586 -1.2478
 1009MOL0     H36172   8.824   2.375  -0.266  2.6332 -0.0757 -0.1719
 1009MOL0     H36173   8.666   2.118  -0.277 -1.1205 -0.4319  0.1556
 1009MOL0     H36174   8.638   2.242  -0.403  1.8328 -1.4257 -0.1930
 1009MOL0     H36175   8.698   2.506  -0.113 -1.5171  1.4500  2.0132
 1009MOL0     H36176   8.724   2.823  -0.235  0.2349 -0.5171 -0.7274
 1009MOL0     H36177   8.646   2.825  -0.074  0.2738  1.5390 -0.4281
 1009MOL0     H36178   8.778   2.712  -0.103 -1.8227 -0.0192  2.4954
 1009MOL0     H36179   8.119   2.925  -0.478  0.5198 -1.7298 -0.6227
 1009MOL0     H36180   8.044   3.103  -0.626 -0.5514  1.7293  0.8190
 1009MOL0     H36181   8.158   3.182  -0.991  0.5124  1.2502 -0.0528
 1009MOL0     H36182   8.060   3.100  -0.869  0.8558 -0.7354  0.8232
 1009MOL0     H36183   7.931   3.325  -0.830 -0.6638 -0.6194 -0.6282
 1009MOL0     H36184   8.054   3.402  -0.933 -0.1359 -0.4551 -0.0566
 1009MOL0     H36185   7.847   3.183  -1.018  2.0347 -2.0025 -0.6194
 1009MOL0     H36186   7.962   3.264  -1.116 -1.1617  1.8119 -0.6818
 1009MOL0     H36187   7.734   3.407  -0.970 -2.2851  0.7800 -2.0850
 1009MOL0     H36188   7.854   3.484  -1.062  0.9523 -0.2855 -1.4632
 1009MOL0     H36189   7.715   3.252  -1.207  0.9237 -0.7368  0.3914
 1009MOL0     H36190   7.778   3.405  -1.270  1.4382  1.3199  1.8482
 1009MOL0     H36191   7.534   3.365  -1.085  2.3051  1.0240  0.9193
 1009MOL0     H36192   7.597   3.517  -1.161 -1.3380 -0.1741  1.7415
 1009MOL0     H36193   7.480   3.296  -1.329  1.3526 -0.9632  1.0205
 1009MOL0     H36194   7.549   3.445  -1.387  0.4232  1.3072  0.9683
 1009MOL0     H36195   7.302   3.436  -1.217 -0.2712 -1.5723 -1.3811
 1009MOL0     H36196   7.303   3.466  -1.383  0.3404  0.0652  0.0393
 1009MOL0     H36197   8.445   3.198  -0.737  0.9864 -1.5149 -0.2016
 1009MOL0     H36198   8.519   2.990  -0.595 -0.4142 -3.7051  1.3055
 1009MOL0     H36199   8.340   2.597  -0.428 -0.2373 -0.8003 -0.1269
 1009MOL0     H36200   8.369   2.384  -0.351 -3.2037  0.6929  4.7271
 1009MOL0     H36201  10.316   2.088   0.138  0.8227 -1.3250  1.1644
 1009MOL0     H36202  10.542   2.037   0.141 -0.6275 -1.2454 -0.1340
 1009MOL0     H36203  10.874   1.527   0.005  1.7051 -1.0349 -2.3680
 1009MOL0     H36204  11.115   1.501   0.047  1.0227  0.0738  0.5347
 1009MOL0     H36205  11.462   1.579  -0.035  0.0835 -1.6276 -3.2114
 1009MOL0     H36206  11.300   1.537  -0.085 -0.6793 -1.5191  4.1896
 1009MOL0     H36207  11.278   1.719  -0.221 -1.7928  0.1038  0.6776
 1009MOL0     H36208  11.439   1.656  -0.241 -1.6538 -1.6010  0.9989
 1009MOL0     H36209  11.348   1.925  -0.108  0.3444  1.1538 -0.9365
 1009MOL0     H36210  11.468   1.912  -0.229  2.2730  0.3028  1.0680
 1009MOL0     H36211  11.525   1.820   0.058  0.2229 -0.1344 -0.7514
 1009MOL0     H36212  11.590   1.954  -0.030 -0.7951  0.5629  0.2230
 1009MOL0     H36213  11.843   1.621  -0.103 -1.5975 -3.2928  0.4772
 1009MOL0     H36214  11.164   1.920   0.045 -1.4542  0.3255  1.1548
 1009MOL0     H36215  10.914   1.956   0.025 -1.4197 -0.3338  1.7323
 1010MOL0     O36216   2.821   1.767  10.582  0.3688  0.4795  0.4427
 1010MOL0     C36217   2.763   1.742  10.482 -0.0154  1.1410 -0.1914
 1010MOL0     O36218   2.817   1.749  10.359 -0.1172 -0.3479 -0.0255
 1010MOL0     C36219   2.948   1.792  10.342  0.3324  0.8126 -0.2985
 1010MOL0     C36220   2.964   1.894  10.247  0.1720  0.1933  0.0418
 1010MOL0     C36221   3.088   1.950  10.220 -0.0646  0.2894 -0.0292
 1010MOL0     C36222   3.201   1.904  10.282 -1.1063  0.5641 -0.0537
 1010MOL0     O36223   3.321   1.961  10.262 -0.5151 -0.0685 -0.1237
 1010MOL0     C36224   3.358   2.045  10.371  0.2177 -0.2995 -0.2453
 1010MOL0     C36225   3.509   2.017  10.389 -0.1001 -0.0293 -0.7876
 1010MOL0     C36226   3.564   2.121  10.498  0.0577 -1.0449  1.3780
 1010MOL0     C36227   3.708   2.084  10.530  0.4399  0.5730 -0.0086
 1010MOL0     C36228   3.777   2.202  10.614 -0.6025  0.9859  0.1145
 1010MOL0     C36229   3.737   2.193  10.766 -0.4307 -1.2619 -0.1693
 1010MOL0     C36230   3.786   2.077  10.852 -0.9075  0.0162  0.2407
 1010MOL0     C36231   3.774   2.102  11.004  0.4500 -0.1940 -0.4015
 1010MOL0     N36232   3.637   2.075  11.051 -0.3414  0.0254  0.8941
 1010MOL0     C36233   3.525   2.129  11.010  0.9576  0.0554 -0.0858
 1010MOL0     C36234   3.433   2.033  11.044  0.5642  0.2170 -0.2341
 1010MOL0     C36235   3.289   2.049  11.024  0.0797 -0.7962 -0.1113
 1010MOL0     C36236   3.194   1.950  11.104 -0.6236 -0.5859  0.4975
 1010MOL0     C36237   3.051   1.963  11.058 -0.3627 -0.5201  0.1983
 1010MOL0     C36238   3.018   1.906  10.919 -0.1982 -0.3126  0.2938
 1010MOL0     O36239   2.951   1.782  10.927 -0.0347  0.1731 -0.0317
 1010MOL0     C36240   2.813   1.766  10.946 -0.0448  0.6268 -0.1844
 1010MOL0     C36241   2.764   1.634  10.933 -0.6043  0.7990 -0.4668
 1010MOL0     C36242   2.629   1.603  10.937  0.3237  0.9921 -0.1431
 1010MOL0     C36243   2.594   1.458  10.908 -0.9017  0.6979 -0.2658
 1010MOL0     C36244   2.526   1.702  10.968  0.0446  0.1242 -0.1715
 1010MOL0     C36245   2.378   1.674  10.977 -0.6545  0.5326 -0.1956
 1010MOL0     O36246   2.308   1.788  11.003  1.2574  0.1298 -0.6144
 1010MOL0     C36247   2.180   1.774  11.056 -0.2000 -0.0248 -0.7998
 1010MOL0     C36248   2.158   1.750  11.192  0.6776  0.4370  0.2702
 1010MOL0     C36249   2.029   1.731  11.253  0.2759 -0.6748 -0.5918
 1010MOL0     C36250   1.919   1.726  11.160 -0.0624  0.7076 -1.2062
 1010MOL0     O36251   1.790   1.693  11.198  0.0552  0.1685 -0.3334
 1010MOL0     C36252   1.751   1.717  11.329  0.1319 -0.5096 -0.8197
 1010MOL0     C36253   1.602   1.686  11.352 -0.9428  1.4650  0.9439
 1010MOL0     C36254   1.504   1.786  11.284  0.6138 -0.0145 -0.0464
 1010MOL0     C36255   1.447   1.892  11.376 -0.1795 -0.7374 -0.3912
 1010MOL0     C36256   1.350   1.989  11.312 -0.0449  0.0564 -0.4145
 1010MOL0     C36257   1.247   1.922  11.228 -0.3102 -0.0199  0.1585
 1010MOL0     C36258   1.141   1.844  11.306  0.1367  0.0896 -0.7440
 1010MOL0     C36259   1.058   1.751  11.232  0.3512  0.1856  0.4131
 1010MOL0    Cl36260   0.927   1.846  11.153  0.1648 -0.1942  0.1510
 1010MOL0     C36261   1.939   1.752  11.022  0.0339  0.3667  0.2584
 1010MOL0     C36262   2.071   1.769  10.969 -0.4083  0.0597  1.1084
 1010MOL0     O36263   2.334   1.563  10.979  0.1974  0.1569 -0.5941
 1010MOL0     C36264   2.579   1.837  10.978  0.0954 -0.1039 -0.3409
 1010MOL0     C36265   2.716   1.865  10.969 -0.8141 -0.0300 -0.2818
 1010MOL0     N36266   3.494   1.919  11.104  0.2116 -1.2375 -0.4642
 1010MOL0     N36267   3.615   1.953  11.109  1.3080 -0.0317  0.7395
 1010MOL0     C36268   3.188   1.795  10.371  0.7177  0.2227 -0.6286
 1010MOL0     C36269   3.064   1.742  10.400 -0.0939  0.3465 -0.4050
 1010MOL0     C36270   2.614   1.710  10.490  0.2712  0.1216  0.9446
 1010MOL0     C36271   2.544   1.664  10.371 -0.3521 -0.1809  0.9282
 1010MOL0     C36272   2.410   1.641  10.379  0.0944  0.1372 -0.8309
 1010MOL0     C36273   2.333   1.654  10.498  0.4410  0.2422 -0.4635
 1010MOL0     O36274   2.200   1.621  10.479  0.4707  0.0887  0.1169
 1010MOL0     C36275   2.119   1.647  10.591 -0.1961 -0.2203 -0.3196
 1010MOL0     C36276   1.972   1.644  10.542  0.3424 -0.8318 -0.1392
 1010MOL0     C36277   1.875   1.680  10.653  0.1755 -0.3941 -0.2274
 1010MOL0     C36278   1.732   1.649  10.605 -0.3658  0.6089  0.0961
 1010MOL0     C36279   1.639   1.675  10.713 -0.3045 -0.0972 -0.4792
 1010MOL0     C36280   1.580   1.694  10.816  0.4578  0.3132  0.1542
 1010MOL0     C36281   2.401   1.694  10.611 -0.2820 -0.9950 -0.1937
 1010MOL0     C36282   2.539   1.728  10.607  0.5451 -0.0891 -0.2274
 1010MOL0     H36283   2.879   1.933  10.193  1.4754 -1.1731 -3.3137
 1010MOL0     H36284   3.096   2.026  10.142 -1.8839 -0.9026 -1.4618
 1010MOL0     H36285   3.353   2.147  10.333 -1.2051  0.5789  2.1207
 1010MOL0     H36286   3.301   2.033  10.464  2.3798  0.0094  1.2004
 1010MOL0     H36287   3.534   1.917  10.426 -4.5334 -1.2766 -0.6202
 1010MOL0     H36288   3.557   2.025  10.291 -0.3876 -1.9977 -1.1234
 1010MOL0     H36289   3.554   2.224  10.465  0.1050 -1.2291  0.7709
 1010MOL0     H36290   3.500   2.110  10.586 -1.3724  2.0584  0.8288
 1010MOL0     H36291   3.716   1.991  10.588 -3.3291  0.2801  0.2931
 1010MOL0     H36292   3.754   2.069  10.433  0.0330 -2.2135  0.1386
 1010MOL0     H36293   3.886   2.203  10.603 -0.2796 -1.7971  2.0183
 1010MOL0     H36294   3.745   2.295  10.567 -0.1807  0.4172 -1.3412
 1010MOL0     H36295   3.755   2.291  10.811 -0.2671 -0.9360 -0.9445
 1010MOL0     H36296   3.628   2.190  10.764 -0.4675 -2.0400  1.1880
 1010MOL0     H36297   3.746   1.979  10.826 -0.3410 -0.1889  0.1198
 1010MOL0     H36298   3.894   2.070  10.834 -0.6458 -0.9642  1.9484
 1010MOL0     H36299   3.796   2.203  11.039 -1.9873 -0.3688  1.9486
 1010MOL0     H36300   3.851   2.036  11.047  1.6529  0.2698 -1.7676
 1010MOL0     H36301   3.501   2.229  10.975 -1.9730 -0.5847 -0.1576
 1010MOL0     H36302   3.259   2.151  11.050 -0.2298 -1.0227  0.4187
 1010MOL0     H36303   3.258   2.036  10.920 -2.1899  0.6860  0.3109
 1010MOL0     H36304   3.206   1.979  11.209 -1.2290  3.7159 -0.4118
 1010MOL0     H36305   3.229   1.848  11.086  0.0158 -0.1386 -0.9403
 1010MOL0     H36306   3.016   2.066  11.057 -0.6128 -0.6083 -0.5334
 1010MOL0     H36307   2.993   1.905  11.131  0.4688 -0.4842  0.8980
 1010MOL0     H36308   3.102   1.888  10.851 -0.7745 -0.9745 -0.2590
 1010MOL0     H36309   2.955   1.972  10.859  1.3523  0.7957 -0.1693
 1010MOL0     H36310   2.839   1.558  10.916 -0.8818  0.7553 -1.5643
 1010MOL0     H36311   2.514   1.405  10.960 -0.0706 -1.5436 -1.1623
 1010MOL0     H36312   2.549   1.469  10.809 -2.2584 -0.5664  0.1840
 1010MOL0     H36313   2.681   1.391  10.908 -1.4263  0.0004  0.7348
 1010MOL0     H36314   2.244   1.748  11.258 -1.1219  0.5676  2.7505
 1010MOL0     H36315   2.026   1.702  11.358 -2.3713 -0.9725 -0.6904
 1010MOL0     H36316   1.800   1.649  11.400 -2.5034 -2.1377 -0.4185
 1010MOL0     H36317   1.755   1.821  11.362  1.0117 -0.8108  0.0607
 1010MOL0     H36318   1.594   1.590  11.300  1.2992  0.3689  2.4544
 1010MOL0     H36319   1.571   1.663  11.455 -2.9332  1.3513  0.3574
 1010MOL0     H36320   1.419   1.731  11.241 -0.9655 -0.2040  3.0864
 1010MOL0     H36321   1.551   1.842  11.202  0.5293  0.0928 -0.0224
 1010MOL0     H36322   1.393   1.848  11.461 -1.0289 -0.6022 -0.8531
 1010MOL0     H36323   1.528   1.958  11.410  0.1808 -1.3018 -0.1261
 1010MOL0     H36324   1.397   2.057  11.240 -1.5027  0.6623 -0.8172
 1010MOL0     H36325   1.294   2.044  11.389 -0.0737  1.5313 -1.4400
 1010MOL0     H36326   1.185   1.999  11.180 -3.1945 -2.2011  0.0823
 1010MOL0     H36327   1.292   1.858  11.152  0.2691  0.0518  0.4331
 1010MOL0     H36328   1.067   1.916  11.343  0.2421  0.3828 -1.0992
 1010MOL0     H36329   1.184   1.795  11.393  0.4689  0.2746 -0.7995
 1010MOL0     H36330   1.026   1.678  11.307  2.5862 -1.3397 -0.0328
 1010MOL0     H36331   1.108   1.693  11.154  0.0965  1.7896 -0.9874
 1010MOL0     H36332   1.848   1.775  10.967 -0.1540  0.2363  0.5134
 1010MOL0     H36333   2.082   1.790  10.863  0.3303  2.0175  1.5282
 1010MOL0     H36334   2.518   1.924  11.002 -0.4482  0.0361 -2.1212
 1010MOL0     H36335   2.728   1.972  10.981 -1.6196  0.0463 -0.1433
 1010MOL0     H36336   3.279   1.759  10.417  0.3296 -2.5251 -1.8495
 1010MOL0     H36337   3.041   1.651  10.454 -0.1959 -2.4124 -4.6637
 1010MOL0     H36338   2.592   1.660  10.274 -0.6887  0.0307  0.7515
 1010MOL0     H36339   2.359   1.600  10.292 -2.2557  2.3792 -0.6287
 1010MOL0     H36340   2.132   1.579  10.676 -1.7251  2.8868  2.6392
 1010MOL0     H36341   2.143   1.746  10.630 -0.3108 -0.7798  1.2235
 1010MOL0     H36342   1.953   1.540  10.516 -0.4162 -0.8972  0.6535
 1010MOL0     H36343   1.973   1.707  10.452  0.7157 -1.1038 -0.3272
 1010MOL0     H36344   1.884   1.788  10.662 -0.8227 -0.2387 -0.9236
 1010MOL0     H36345   1.903   1.639  10.750 -3.4999  1.2778  1.7077
 1010MOL0     H36346   1.720   1.552  10.557 -1.7446  0.7145  0.1802
 1010MOL0     H36347   1.713   1.724  10.528  1.1779 -0.6580 -1.5924
 1010MOL0     H36348   1.534   1.724  10.907 -1.7449 -1.4200 -0.2907
 1010MOL0     H36349   2.358   1.711  10.709 -1.5458  1.7557 -1.1151
 1010MOL0     H36350   2.591   1.768  10.693  1.8089  3.3296 -2.3591
 1011MOL0     O36351  10.744   8.423  10.186 -0.2202  0.2469  0.4009
 1011MOL0     C36352  10.796   8.490  10.094 -0.1429  0.5970  0.3614
 1011MOL0     O36353  10.729   8.558   9.992  0.2537  0.5346 -0.6224
 1011MOL0     C36354  10.595   8.571  10.008 -0.4444 -0.2252 -0.2701
 1011MOL0     C36355  10.540   8.618   9.888  0.4648  1.0010 -0.2661
 1011MOL0     C36356  10.400   8.638   9.889 -0.4567 -0.1814 -0.2201
 1011MOL0     C36357  10.319   8.638  10.004 -0.9082  0.3693 -0.6577
 1011MOL0     O36358  10.189   8.678   9.987 -0.4518 -0.0713 -0.0862
 1011MOL0     C36359  10.119   8.699  10.106  0.0056  0.1231 -0.2787
 1011MOL0     C36360   9.994   8.774  10.072  0.3736 -0.8787  0.0155
 1011MOL0     C36361   9.888   8.760  10.179  0.5955  0.1827  0.0584
 1011MOL0     C36362   9.759   8.815  10.131  0.5103 -0.9472  0.2653
 1011MOL0     C36363   9.653   8.821  10.245 -0.0061 -0.5042  0.6175
 1011MOL0     C36364   9.669   8.920  10.366  0.3404 -0.3685 -0.7433
 1011MOL0     C36365   9.527   8.934  10.423  0.1623 -0.0852  0.0061
 1011MOL0     C36366   9.519   9.010  10.553 -0.2515 -0.0594 -0.8239
 1011MOL0     N36367   9.506   9.150  10.519 -0.1625 -0.6305  0.4994
 1011MOL0     C36368   9.602   9.244  10.510  0.4861  0.7861 -0.2958
 1011MOL0     C36369   9.546   9.369  10.530 -0.0517 -0.6799 -0.5976
 1011MOL0     C36370   9.607   9.511  10.542  0.1571 -0.0619  0.4583
 1011MOL0     C36371   9.541   9.600  10.438  0.3630  0.0364  0.3544
 1011MOL0     C36372   9.626   9.732  10.410  0.4618  0.3507 -0.3468
 1011MOL0     C36373   9.662   9.813  10.535  0.6548  0.0835  0.1582
 1011MOL0     O36374   9.684   9.947  10.516 -0.4796 -0.4757 -0.3731
 1011MOL0     C36375   9.576  10.030  10.481 -0.1794 -0.2557  0.4499
 1011MOL0     C36376   9.616  10.163  10.450  0.0848  0.8982 -0.3513
 1011MOL0     C36377   9.530  10.262  10.401  0.4991  0.4632  0.4723
 1011MOL0     C36378   9.595  10.399  10.391  0.3323  0.4710  0.4424
 1011MOL0     C36379   9.392  10.232  10.379  0.0037 -0.3759  0.4648
 1011MOL0     C36380   9.289  10.335  10.351 -0.6693  0.1800  0.2584
 1011MOL0     O36381   9.162  10.296  10.340 -0.2444  0.5234  0.9330
 1011MOL0     C36382   9.062  10.382  10.290  0.0655  0.4784 -0.5020
 1011MOL0     C36383   9.045  10.517  10.335 -0.3439  1.1371  0.2748
 1011MOL0     C36384   8.937  10.591  10.298  0.2268  0.5930  0.3509
 1011MOL0     C36385   8.838  10.536  10.213  0.2012 -0.2170  0.6919
 1011MOL0     O36386   8.716  10.591  10.182 -0.4319 -0.1453 -0.0422
 1011MOL0     C36387   8.675  10.716  10.237 -0.4964 -0.3624  0.3421
 1011MOL0     C36388   8.529  10.728  10.204  0.8966 -1.1878  0.4506
 1011MOL0     C36389   8.477  10.859  10.268 -1.0016  0.2780  0.2225
 1011MOL0     C36390   8.439  10.955  10.153 -0.7439  0.6481 -0.0453
 1011MOL0     C36391   8.396  11.096  10.191  0.6157  1.0677 -0.7365
 1011MOL0     C36392   8.264  11.083  10.268  0.7430 -0.7367 -0.6197
 1011MOL0     C36393   8.197  11.221  10.305 -0.1968  0.3477  0.2862
 1011MOL0     C36394   8.056  11.220  10.369  0.0943 -0.5186  1.4064
 1011MOL0    Cl36395   8.045  11.200  10.547  0.2239 -0.1235 -0.0275
 1011MOL0     C36396   8.858  10.403  10.164  0.7367 -0.3129  0.6634
 1011MOL0     C36397   8.968  10.325  10.203 -0.2293 -0.0070 -0.6581
 1011MOL0     O36398   9.328  10.451  10.323 -0.5897 -0.7164 -0.7067
 1011MOL0     C36399   9.350  10.104  10.413  0.3555  0.5652 -0.2709
 1011MOL0     C36400   9.436  10.005  10.463 -0.0327 -0.3450 -0.3570
 1011MOL0     N36401   9.413   9.343  10.548  0.7042  1.1830  0.0301
 1011MOL0     N36402   9.385   9.215  10.535  0.5399  0.4305  0.4927
 1011MOL0     C36403  10.387   8.608  10.123 -0.5095 -1.0928 -0.7125
 1011MOL0     C36404  10.517   8.572  10.120  0.5023  0.4881 -1.1293
 1011MOL0     C36405  10.947   8.484  10.087  0.5767 -0.7121  0.3465
 1011MOL0     C36406  11.014   8.596  10.029 -0.1493 -0.0405  0.5858
 1011MOL0     C36407  11.160   8.603  10.029  1.1492 -0.5418 -0.7028
 1011MOL0     C36408  11.229   8.494  10.070 -0.1667 -1.4631 -0.0664
 1011MOL0     O36409  11.363   8.503  10.054 -0.0511  0.5698 -0.1062
 1011MOL0     C36410  11.442   8.387  10.072 -0.9119  0.4547  0.0099
 1011MOL0     C36411  11.464   8.313   9.943 -0.0073  0.6821  0.7420
 1011MOL0     C36412  11.540   8.186   9.969 -0.9238  0.0413  0.0698
 1011MOL0     C36413  11.566   8.114   9.830 -0.3334  0.1849 -0.1401
 1011MOL0     C36414  11.598   7.974   9.851 -0.2913 -0.8437  0.4953
 1011MOL0     C36415  11.609   7.852   9.872 -0.0455  0.0340 -1.2318
 1011MOL0     C36416  11.162   8.384  10.123  0.5502  0.0110  0.4290
 1011MOL0     C36417  11.020   8.374  10.131 -0.5731 -1.0811  0.1739
 1011MOL0     H36418  10.599   8.626   9.798  0.8832 -0.0075 -0.0889
 1011MOL0     H36419  10.341   8.649   9.798 -1.6871 -1.8704  0.3085
 1011MOL0     H36420  10.091   8.607  10.160  0.4005  0.3187  0.2647
 1011MOL0     H36421  10.180   8.753  10.178  2.3743 -0.1223 -2.0014
 1011MOL0     H36422  10.007   8.880  10.052 -0.2764 -0.8439 -0.2615
 1011MOL0     H36423   9.967   8.729   9.975 -1.6813 -0.6931  0.4603
 1011MOL0     H36424   9.868   8.655  10.200  2.4305 -0.4008 -0.9332
 1011MOL0     H36425   9.916   8.807  10.274 -1.2805  1.2712  0.1201
 1011MOL0     H36426   9.775   8.917  10.093  0.3779 -0.4034  1.6187
 1011MOL0     H36427   9.720   8.756  10.047  0.4661 -1.9931  1.0111
 1011MOL0     H36428   9.565   8.849  10.187 -0.4155 -1.9072  0.5209
 1011MOL0     H36429   9.628   8.722  10.283 -1.9733  0.5019  2.1391
 1011MOL0     H36430   9.734   8.883  10.445  2.9675 -0.0313 -2.6178
 1011MOL0     H36431   9.702   9.022  10.342  2.0206 -0.2798  1.6263
 1011MOL0     H36432   9.458   8.986  10.356  1.6920  4.1524  1.4132
 1011MOL0     H36433   9.486   8.834  10.445  1.5681 -0.6175  0.2897
 1011MOL0     H36434   9.607   8.992  10.616 -0.8622 -0.6946 -0.1313
 1011MOL0     H36435   9.433   8.973  10.609  0.1307 -1.1102 -0.8901
 1011MOL0     H36436   9.706   9.212  10.512  0.3365  0.2672 -0.5439
 1011MOL0     H36437   9.596   9.556  10.641 -0.5300  2.1240 -0.5480
 1011MOL0     H36438   9.715   9.513  10.521  0.4887  0.0460  2.0290
 1011MOL0     H36439   9.434   9.614  10.457 -0.2452 -2.2532 -0.9556
 1011MOL0     H36440   9.529   9.549  10.342 -0.4712  1.6632 -0.4575
 1011MOL0     H36441   9.579   9.806  10.344  1.5622  2.8198  1.4502
 1011MOL0     H36442   9.719   9.705  10.359 -2.5722 -3.2472 -4.6896
 1011MOL0     H36443   9.752   9.769  10.578  0.4475  0.2622  0.7873
 1011MOL0     H36444   9.584   9.807  10.612  1.1794  1.0457  0.7704
 1011MOL0     H36445   9.719  10.191  10.470  0.1905 -0.3008  0.9628
 1011MOL0     H36446   9.701  10.382  10.370 -0.1206  1.1233 -2.7543
 1011MOL0     H36447   9.564  10.462  10.308  0.9731  0.6062  0.2958
 1011MOL0     H36448   9.575  10.451  10.486 -2.6037  0.1446  0.0794
 1011MOL0     H36449   9.125  10.562  10.392  0.3735  0.5208 -0.2314
 1011MOL0     H36450   8.916  10.697  10.314 -0.6030  1.1169 -3.2300
 1011MOL0     H36451   8.688  10.721  10.346 -2.2180 -0.8908  0.6062
 1011MOL0     H36452   8.735  10.794  10.189 -2.3263  0.4079 -0.7939
 1011MOL0     H36453   8.504  10.710  10.098 -3.8403 -3.2041  1.6286
 1011MOL0     H36454   8.469  10.653  10.256  0.2936 -2.1101 -1.4704
 1011MOL0     H36455   8.550  10.894  10.342  0.2318  0.1683 -0.9069
 1011MOL0     H36456   8.390  10.848  10.334 -1.5200  2.4324 -0.0444
 1011MOL0     H36457   8.539  10.966  10.111  0.6728 -1.5320  2.4483
 1011MOL0     H36458   8.365  10.909  10.087  0.9456  2.4221 -3.4877
 1011MOL0     H36459   8.376  11.161  10.105 -3.9909  0.8893 -0.0277
 1011MOL0     H36460   8.476  11.139  10.252  0.6228 -1.8572  1.5282
 1011MOL0     H36461   8.200  11.018  10.209  1.7263 -0.8270 -1.6316
 1011MOL0     H36462   8.279  11.024  10.358 -2.0281 -0.6588 -0.0338
 1011MOL0     H36463   8.192  11.281  10.214  1.0107 -0.0671 -0.0810
 1011MOL0     H36464   8.279  11.270  10.359  0.3186  0.3397 -0.4723
 1011MOL0     H36465   7.993  11.138  10.333 -0.6706  1.5875 -2.7022
 1011MOL0     H36466   8.012  11.316  10.340  1.6292 -0.2122 -0.0313
 1011MOL0     H36467   8.778  10.372  10.097  0.5523  0.6276  0.4288
 1011MOL0     H36468   8.981  10.223  10.167 -2.9621  0.1393 -2.3562
 1011MOL0     H36469   9.244  10.082  10.421 -0.0410  1.4696 -2.2757
 1011MOL0     H36470   9.400   9.910  10.502  1.9597 -1.2615 -0.6258
 1011MOL0     H36471  10.323   8.604  10.211 -1.6982  1.5303 -1.3774
 1011MOL0     H36472  10.553   8.541  10.217 -0.3649  1.1532 -0.5732
 1011MOL0     H36473  10.978   8.694  10.000  0.4157 -0.3045 -1.1169
 1011MOL0     H36474  11.213   8.694  10.003 -1.4484  0.8715 -1.3534
 1011MOL0     H36475  11.540   8.427  10.099 -0.1787  0.0564 -1.8638
 1011MOL0     H36476  11.417   8.325  10.158 -3.1872  2.0409  0.5784
 1011MOL0     H36477  11.524   8.371   9.873  0.8635  0.8241  1.5913
 1011MOL0     H36478  11.364   8.285   9.908  0.5936  0.3184 -0.8043
 1011MOL0     H36479  11.488   8.124  10.042  0.4111  0.3424  1.3265
 1011MOL0     H36480  11.638   8.203  10.014  0.4231 -2.2012 -1.8043
 1011MOL0     H36481  11.645   8.160   9.769  0.4673 -1.1895 -0.1770
 1011MOL0     H36482  11.474   8.134   9.774 -0.0544  3.2984  0.3407
 1011MOL0     H36483  11.626   7.747   9.872 -1.4316 -0.2142 -0.9398
 1011MOL0     H36484  11.198   8.298  10.179 -0.3691  0.1043  1.2060
 1011MOL0     H36485  10.977   8.289  10.183 -1.4503  2.0026  5.1005
 1012MOL0     O36486   1.606   9.040  10.811 -0.8067 -0.8049  0.2403
 1012MOL0     C36487   1.608   9.159  10.832  0.2756  0.3781 -0.0742
 1012MOL0     O36488   1.715   9.238  10.891 -0.1696  0.3201  0.9277
 1012MOL0     C36489   1.824   9.173  10.936  0.5053  0.8111 -0.7372
 1012MOL0     C36490   1.817   9.157  11.072  0.8688  0.1060 -0.4203
 1012MOL0     C36491   1.910   9.080  11.136  0.0474  0.0994  0.5705
 1012MOL0     C36492   2.014   9.022  11.071  0.2366  0.0231  0.1830
 1012MOL0     O36493   2.091   8.940  11.147  0.1085  0.1224 -0.6195
 1012MOL0     C36494   2.222   8.992  11.175 -0.0250  1.2733 -0.0777
 1012MOL0     C36495   2.240   9.016  11.320 -0.1075 -0.0123  0.4097
 1012MOL0     C36496   2.215   8.887  11.408 -0.7562 -0.2372  0.1415
 1012MOL0     C36497   2.216   8.920  11.556  0.1456 -0.3190 -0.4359
 1012MOL0     C36498   2.084   8.933  11.622 -0.0666 -0.0875 -0.0642
 1012MOL0     C36499   2.001   9.047  11.566  0.2772 -0.0860  0.0710
 1012MOL0     C36500   1.882   9.084  11.661  0.5825  0.2201  0.1503
 1012MOL0     C36501   1.807   9.205  11.604  0.9547 -0.0251 -0.3606
 1012MOL0     N36502   1.676   9.237  11.673 -0.5933  0.0502 -0.1035
 1012MOL0     C36503   1.556   9.195  11.631 -0.1797  0.6779 -0.7306
 1012MOL0     C36504   1.469   9.247  11.719 -0.1924  0.2077 -0.1945
 1012MOL0     C36505   1.319   9.236  11.712 -1.1985 -0.0647 -0.1103
 1012MOL0     C36506   1.266   9.362  11.644  0.6278  0.4992 -0.6605
 1012MOL0     C36507   1.114   9.345  11.641  0.2812  0.0907  0.2297
 1012MOL0     C36508   1.040   9.453  11.565 -0.1482 -0.1930 -0.3018
 1012MOL0     O36509   0.904   9.410  11.563  0.0957 -0.1770  0.3581
 1012MOL0     C36510   0.833   9.454  11.675  0.4172  0.0946 -0.4985
 1012MOL0     C36511   0.697   9.428  11.677  0.1765 -0.8804 -0.2970
 1012MOL0     C36512   0.612   9.459  11.781 -0.2475 -0.6142  0.0293
 1012MOL0     C36513   0.475   9.422  11.760  0.5186  0.7162 -0.9641
 1012MOL0     C36514   0.665   9.514  11.896  0.7637  0.4425  0.2477
 1012MOL0     C36515   0.575   9.551  12.019 -0.6257  0.6174  0.6603
 1012MOL0     O36516   0.494   9.449  12.069 -0.0803 -0.0828 -0.2810
 1012MOL0     C36517   0.416   9.483  12.177  0.7494 -0.9314  0.7154
 1012MOL0     C36518   0.299   9.561  12.164 -1.0214  0.4561  0.9342
 1012MOL0     C36519   0.213   9.587  12.267  0.2596  0.4153  0.0916
 1012MOL0     C36520   0.241   9.535  12.398  0.8523 -0.2151  0.3823
 1012MOL0     O36521   0.157   9.560  12.506  0.2020 -0.1718  0.4203
 1012MOL0     C36522   0.080   9.676  12.493  0.2949  0.3970  0.0939
 1012MOL0     C36523   0.055   9.735  12.627  0.2527  1.0291  0.4975
 1012MOL0     C36524   0.179   9.754  12.717 -1.0974  0.0167  0.6480
 1012MOL0     C36525   0.134   9.808  12.853 -0.8903  0.4768 -0.8530
 1012MOL0     C36526   0.083   9.954  12.858  0.3858 -0.8502 -0.9103
 1012MOL0     C36527   0.180  10.054  12.800  0.2508  0.1060  1.3655
 1012MOL0     C36528   0.320  10.042  12.843 -0.5886 -0.3278  0.0041
 1012MOL0     C36529   0.401  10.151  12.770 -0.3771  0.0691 -0.8490
 1012MOL0    Cl36530   0.389  10.115  12.592  0.1073  0.2111 -0.4060
 1012MOL0     C36531   0.349   9.450  12.409  0.8528  0.0800  0.4660
 1012MOL0     C36532   0.439   9.434  12.305 -0.8327 -0.0185 -0.0331
 1012MOL0     O36533   0.580   9.666  12.048  0.3192 -0.1383  0.0733
 1012MOL0     C36534   0.802   9.542  11.889 -0.6609  0.1814  0.4503
 1012MOL0     C36535   0.883   9.521  11.782 -0.6897 -1.4637  0.8033
 1012MOL0     N36536   1.535   9.350  11.789  0.3744 -0.0426  0.3735
 1012MOL0     N36537   1.667   9.342  11.765  0.2579  0.4602 -0.1881
 1012MOL0     C36538   2.035   9.049  10.939  0.0433 -1.5305 -0.4516
 1012MOL0     C36539   1.937   9.130  10.873 -0.6956 -0.4270  0.2408
 1012MOL0     C36540   1.490   9.233  10.774  1.5344  0.5324  0.3311
 1012MOL0     C36541   1.369   9.175  10.727 -0.2896  1.0354  0.3729
 1012MOL0     C36542   1.265   9.250  10.671 -1.0708 -0.0663  0.1464
 1012MOL0     C36543   1.269   9.386  10.664 -0.6480  0.0063 -0.4215
 1012MOL0     O36544   1.165   9.473  10.621 -0.3813 -0.6388 -0.7577
 1012MOL0     C36545   1.196   9.550  10.502  0.1869  0.3797  0.5434
 1012MOL0     C36546   1.110   9.483  10.388  0.1352 -0.4768 -0.4171
 1012MOL0     C36547   0.961   9.518  10.401  0.0850 -0.5354 -0.0610
 1012MOL0     C36548   0.884   9.543  10.269  0.6719 -0.2711 -0.2912
 1012MOL0     C36549   0.783   9.442  10.244 -0.1170 -0.5642 -0.6311
 1012MOL0     C36550   0.700   9.364  10.222  0.6934  1.4705 -0.6371
 1012MOL0     C36551   1.385   9.446  10.729  1.1629 -0.0644  0.0063
 1012MOL0     C36552   1.490   9.371  10.784 -0.0078 -0.4414 -0.2395
 1012MOL0     H36553   1.741   9.211  11.127  1.0478 -0.1643  0.1051
 1012MOL0     H36554   1.903   9.068  11.243  1.5994 -0.8775  0.5957
 1012MOL0     H36555   2.296   8.922  11.134  0.4183  0.6631  1.7073
 1012MOL0     H36556   2.227   9.089  11.124  0.2523  3.2464  3.4107
 1012MOL0     H36557   2.347   9.041  11.320 -0.2076  0.4317  0.8219
 1012MOL0     H36558   2.178   9.098  11.358  0.2378  0.2375  0.4439
 1012MOL0     H36559   2.121   8.836  11.386  0.0207 -1.7432  0.2374
 1012MOL0     H36560   2.293   8.815  11.381 -2.7782 -0.9328 -4.9372
 1012MOL0     H36561   2.271   8.838  11.603  4.2146 -0.2704 -4.4007
 1012MOL0     H36562   2.280   9.006  11.576  1.7401 -0.9540 -2.4327
 1012MOL0     H36563   2.030   8.838  11.614  0.5413 -0.5422  1.0920
 1012MOL0     H36564   2.103   8.959  11.727 -3.1515  0.4907  0.4524
 1012MOL0     H36565   2.062   9.138  11.565 -2.1753  1.6696  0.6134
 1012MOL0     H36566   1.962   9.013  11.469 -3.0574  3.0365  0.0964
 1012MOL0     H36567   1.812   9.001  11.673  0.4384  0.0843 -1.4170
 1012MOL0     H36568   1.930   9.102  11.758  1.6304  2.1420 -0.6699
 1012MOL0     H36569   1.777   9.196  11.499  0.7604 -0.8167 -0.2477
 1012MOL0     H36570   1.872   9.292  11.602 -1.9445  2.3033 -1.4103
 1012MOL0     H36571   1.526   9.135  11.545 -2.2818  3.9610 -2.4748
 1012MOL0     H36572   1.294   9.148  11.652  0.2741  0.4606 -1.5678
 1012MOL0     H36573   1.274   9.223  11.811 -0.3787  1.2541  0.4686
 1012MOL0     H36574   1.298   9.378  11.541  0.5577 -2.4698 -1.2244
 1012MOL0     H36575   1.294   9.445  11.710 -1.1462  0.2306  0.5061
 1012MOL0     H36576   1.083   9.344  11.746 -2.6503  6.5442 -0.0482
 1012MOL0     H36577   1.087   9.243  11.614 -0.6255 -0.4179  2.8596
 1012MOL0     H36578   1.078   9.453  11.463  2.5477 -0.7381  0.6423
 1012MOL0     H36579   1.058   9.558  11.590  1.2761 -0.0463 -1.8060
 1012MOL0     H36580   0.645   9.385  11.592  0.1229 -0.7994 -0.3053
 1012MOL0     H36581   0.418   9.490  11.824  1.7880  1.5719 -0.7004
 1012MOL0     H36582   0.451   9.441  11.655  2.5597 -2.2683 -2.1016
 1012MOL0     H36583   0.450   9.320  11.790 -2.7811  1.9830  1.1519
 1012MOL0     H36584   0.280   9.601  12.065 -1.5962  1.0964  1.2940
 1012MOL0     H36585   0.130   9.653  12.245  1.3220  1.9605  0.5240
 1012MOL0     H36586   0.120   9.753  12.428  2.8819 -2.3678 -1.8490
 1012MOL0     H36587  -0.011   9.647  12.439  1.4671 -0.2463 -1.5940
 1012MOL0     H36588   0.003   9.828  12.604 -1.9950 -0.7882 -2.3999
 1012MOL0     H36589  -0.016   9.671  12.680 -2.3880  0.6637 -3.1622
 1012MOL0     H36590   0.257   9.817  12.672  0.5078 -1.6319  0.9591
 1012MOL0     H36591   0.234   9.660  12.730  1.1301  1.1912  0.2788
 1012MOL0     H36592   0.061   9.743  12.901  1.9639 -0.0164  3.3834
 1012MOL0     H36593   0.225   9.805  12.914 -1.8948  0.8550  0.7132
 1012MOL0     H36594   0.070   9.978  12.963  0.4028 -1.0814 -0.8546
 1012MOL0     H36595  -0.012   9.956  12.804  0.5117  0.3928 -1.1103
 1012MOL0     H36596   0.183  10.031  12.693 -3.0314  0.7376  1.0361
 1012MOL0     H36597   0.144  10.157  12.807  1.5032  0.7231 -0.5688
 1012MOL0     H36598   0.361   9.942  12.829  0.3618 -0.0901  0.9813
 1012MOL0     H36599   0.323  10.064  12.950  1.0242 -0.2315 -0.0400
 1012MOL0     H36600   0.509  10.156  12.790 -0.9833  3.0521  2.6765
 1012MOL0     H36601   0.354  10.248  12.785 -2.9878 -1.0594 -1.1904
 1012MOL0     H36602   0.365   9.397  12.502 -1.6392 -0.4171  0.6751
 1012MOL0     H36603   0.535   9.383  12.312 -1.4840 -1.4493 -1.1587
 1012MOL0     H36604   0.851   9.591  11.973 -3.9193  2.6411  1.1080
 1012MOL0     H36605   0.982   9.567  11.782 -1.4041  0.1298  0.5351
 1012MOL0     H36606   2.127   9.034  10.884  0.6134 -0.9764  0.3280
 1012MOL0     H36607   1.944   9.160  10.769  1.5068 -3.4795 -0.6397
 1012MOL0     H36608   1.355   9.068  10.732 -1.1300  1.1568  0.8753
 1012MOL0     H36609   1.168   9.209  10.643 -1.6029  3.4112 -4.3693
 1012MOL0     H36610   1.158   9.651  10.524  0.1961  0.2895  0.9887
 1012MOL0     H36611   1.300   9.562  10.471 -0.9142 -1.5721 -5.0778
 1012MOL0     H36612   1.112   9.374  10.401 -0.3315 -0.2261  2.1594
 1012MOL0     H36613   1.153   9.509  10.291 -3.1021  1.3248 -1.4980
 1012MOL0     H36614   0.941   9.609  10.459  1.0742  1.0430 -2.0783
 1012MOL0     H36615   0.918   9.432  10.453  0.3395 -0.3423  0.4732
 1012MOL0     H36616   0.944   9.553  10.178  3.3124  1.1029  1.4927
 1012MOL0     H36617   0.837   9.640  10.288  1.8730  0.0979  0.8998
 1012MOL0     H36618   0.620   9.299  10.194  0.6101  2.1016 -1.9166
 1012MOL0     H36619   1.409   9.552  10.727  3.0011 -0.4230  0.3279
 1012MOL0     H36620   1.577   9.421  10.824  0.6405 -3.2462  2.1567
 1013MOL0     O36621  11.202   5.367   2.752  0.2475 -0.0640  0.1704
 1013MOL0     C36622  11.194   5.242   2.742  0.5675 -0.5315 -0.0522
 1013MOL0     O36623  11.083   5.174   2.702 -0.0652  0.1192  0.1967
 1013MOL0     C36624  10.955   5.213   2.742 -0.3293 -0.1567  0.0212
 1013MOL0     C36625  10.921   5.310   2.837 -0.2303 -0.7820 -0.0764
 1013MOL0     C36626  10.790   5.359   2.862  0.4016 -0.0348 -0.8487
 1013MOL0     C36627  10.680   5.284   2.812  0.5231  0.1750 -0.7154
 1013MOL0     O36628  10.547   5.316   2.841  0.3623 -0.3154 -0.7012
 1013MOL0     C36629  10.447   5.214   2.854 -0.0426 -0.0618 -0.2961
 1013MOL0     C36630  10.318   5.289   2.846 -0.3859 -0.6538 -0.9361
 1013MOL0     C36631  10.201   5.207   2.898 -0.3790 -0.3664  0.3548
 1013MOL0     C36632  10.067   5.273   2.895  0.1989  0.1195  0.8112
 1013MOL0     C36633   9.968   5.162   2.924  0.7993  0.4044  0.0274
 1013MOL0     C36634   9.831   5.221   2.944 -0.6541  0.4247  0.5482
 1013MOL0     C36635   9.730   5.123   2.997  0.2606  1.0402 -0.3680
 1013MOL0     C36636   9.705   5.006   2.903 -0.5232 -0.3961  0.8290
 1013MOL0     N36637   9.617   4.905   2.957  0.0168 -0.0737  0.5182
 1013MOL0     C36638   9.476   4.908   2.943  0.8334  0.8042  0.8080
 1013MOL0     C36639   9.442   4.790   3.007  0.3491  0.4241  0.1375
 1013MOL0     C36640   9.300   4.753   3.042  0.1162 -0.1292 -0.2747
 1013MOL0     C36641   9.212   4.793   2.916 -0.7255  0.6995 -0.2934
 1013MOL0     C36642   9.079   4.728   2.912 -1.0898 -0.8962 -0.3340
 1013MOL0     C36643   8.993   4.773   3.033  0.2391 -0.0959  0.0549
 1013MOL0     O36644   8.862   4.720   3.011  0.6293  0.3401 -0.0894
 1013MOL0     C36645   8.758   4.774   3.088 -0.3950  0.3119 -0.0233
 1013MOL0     C36646   8.626   4.736   3.063  0.6983 -0.5755 -0.2850
 1013MOL0     C36647   8.516   4.769   3.149  0.5522 -0.1559  0.5092
 1013MOL0     C36648   8.378   4.724   3.107  0.9763 -0.1435 -0.0751
 1013MOL0     C36649   8.548   4.843   3.268  0.6361  0.8429 -0.2131
 1013MOL0     C36650   8.438   4.858   3.362 -0.4932  0.2517  0.4656
 1013MOL0     O36651   8.421   4.986   3.412  0.7514 -0.4347 -0.5688
 1013MOL0     C36652   8.318   5.020   3.498  0.3328  1.1010 -0.4354
 1013MOL0     C36653   8.336   5.054   3.633 -0.4184 -0.2204 -0.2689
 1013MOL0     C36654   8.226   5.065   3.720 -0.0407  0.2734 -0.0455
 1013MOL0     C36655   8.101   5.040   3.662  0.0068  0.7200 -0.8965
 1013MOL0     O36656   7.985   5.065   3.737  0.0793  0.2774  0.0976
 1013MOL0     C36657   7.976   5.029   3.878 -0.5802  0.0990 -0.4831
 1013MOL0     C36658   7.830   5.059   3.918  0.6748 -0.5479 -0.1470
 1013MOL0     C36659   7.718   4.972   3.851 -0.5826  0.1801  0.3161
 1013MOL0     C36660   7.574   5.023   3.861  0.0698  0.6032  0.6106
 1013MOL0     C36661   7.481   4.937   3.784  0.1899 -0.5539 -0.0622
 1013MOL0     C36662   7.431   4.805   3.847  0.4149  0.1859  0.1510
 1013MOL0     C36663   7.316   4.733   3.769 -0.6067  0.0915  0.1517
 1013MOL0     C36664   7.300   4.586   3.813  0.6640 -0.3029 -0.2669
 1013MOL0    Cl36665   7.206   4.580   3.966 -0.3064 -0.0206 -0.1947
 1013MOL0     C36666   8.081   5.009   3.536 -0.3190  0.3486 -0.5937
 1013MOL0     C36667   8.189   4.996   3.452 -0.4303  0.4225 -0.1535
 1013MOL0     O36668   8.370   4.765   3.390 -0.0108  0.0996 -0.6869
 1013MOL0     C36669   8.673   4.872   3.302  0.4442  0.6636 -0.0678
 1013MOL0     C36670   8.785   4.839   3.215  1.0409 -0.2768  0.3394
 1013MOL0     N36671   9.558   4.731   3.061 -0.3790  1.1406  0.0152
 1013MOL0     N36672   9.663   4.798   3.033  0.2711  0.2083 -0.3485
 1013MOL0     C36673  10.709   5.182   2.723 -1.3847 -0.3085  0.2853
 1013MOL0     C36674  10.848   5.151   2.685  0.7821  0.1474  0.4772
 1013MOL0     C36675  11.324   5.163   2.762  1.0139 -0.3873 -0.9308
 1013MOL0     C36676  11.348   5.033   2.724 -0.1791 -0.0306 -0.0459
 1013MOL0     C36677  11.463   4.955   2.742 -0.4142 -0.3935 -0.2007
 1013MOL0     C36678  11.570   5.021   2.811  0.1941 -0.2752 -0.2267
 1013MOL0     O36679  11.688   4.958   2.821  0.3897  0.3308  0.2714
 1013MOL0     C36680  11.729   4.917   2.950 -0.5517 -0.2157  0.2736
 1013MOL0     C36681  11.872   4.868   2.960  0.0234 -0.0759 -0.3060
 1013MOL0     C36682  11.970   4.973   2.918  1.0773 -0.0136  0.0763
 1013MOL0     C36683  12.108   4.910   2.913  0.8689  0.6458  0.7860
 1013MOL0     C36684  12.174   4.924   3.043 -0.5732 -0.2632 -0.2274
 1013MOL0     C36685  12.208   4.934   3.161  0.0951  0.5135  0.1445
 1013MOL0     C36686  11.551   5.152   2.849  0.1948 -0.2787  0.3760
 1013MOL0     C36687  11.429   5.218   2.837  0.7932 -0.4747  0.2567
 1013MOL0     H36688  11.001   5.354   2.896 -0.3103  3.5258 -2.7255
 1013MOL0     H36689  10.777   5.442   2.930 -0.1686  1.6001 -2.8287
 1013MOL0     H36690  10.456   5.129   2.784  3.0142 -1.2622  1.3550
 1013MOL0     H36691  10.467   5.158   2.946 -2.1051 -0.6161 -0.1452
 1013MOL0     H36692  10.324   5.386   2.897 -1.6204  0.6997 -3.2274
 1013MOL0     H36693  10.296   5.305   2.740  0.7502  2.5879 -0.7853
 1013MOL0     H36694  10.203   5.116   2.837 -0.6921  1.5830 -2.8184
 1013MOL0     H36695  10.223   5.177   3.001  0.5482  0.5102  0.4308
 1013MOL0     H36696  10.057   5.348   2.974 -2.8122  0.9021 -0.1828
 1013MOL0     H36697  10.051   5.330   2.803  2.9615 -0.7934 -0.3120
 1013MOL0     H36698   9.964   5.099   2.834 -0.7626  1.4635 -0.6938
 1013MOL0     H36699  10.004   5.098   3.005  0.9555  2.1120  1.3598
 1013MOL0     H36700   9.840   5.286   3.031  0.7576  1.2637 -0.1795
 1013MOL0     H36701   9.796   5.291   2.867 -1.0616 -0.2447  0.1217
 1013MOL0     H36702   9.767   5.084   3.092 -1.2232 -0.8938 -0.5107
 1013MOL0     H36703   9.636   5.178   3.009 -0.5060 -0.1318 -0.7276
 1013MOL0     H36704   9.797   4.950   2.887 -0.9571 -1.2212  1.1823
 1013MOL0     H36705   9.664   5.044   2.809  3.1480  0.5382 -0.5620
 1013MOL0     H36706   9.401   4.972   2.896  0.7515 -0.5165 -0.9617
 1013MOL0     H36707   9.298   4.646   3.064  1.8093 -0.2983 -0.7805
 1013MOL0     H36708   9.263   4.810   3.128  0.8659  1.0707 -0.7143
 1013MOL0     H36709   9.261   4.763   2.823  1.2760  0.9124  0.6486
 1013MOL0     H36710   9.196   4.900   2.927  0.5890  1.0336 -1.3724
 1013MOL0     H36711   9.086   4.620   2.899 -1.7130 -1.3149  2.3240
 1013MOL0     H36712   9.027   4.773   2.827 -2.8905  0.7600  1.5477
 1013MOL0     H36713   8.990   4.881   3.053 -0.6877 -0.4804  2.4160
 1013MOL0     H36714   9.027   4.722   3.124 -1.0897 -1.9789 -0.4371
 1013MOL0     H36715   8.604   4.671   2.979 -0.2409 -2.7727  1.5450
 1013MOL0     H36716   8.378   4.679   3.007  1.0615  1.1029 -0.6598
 1013MOL0     H36717   8.356   4.641   3.174  0.4681 -2.1850 -2.5817
 1013MOL0     H36718   8.301   4.801   3.109 -1.6150 -2.4933 -1.7064
 1013MOL0     H36719   8.438   5.066   3.668  0.2243 -0.2958 -2.0289
 1013MOL0     H36720   8.244   5.081   3.825  0.0920 -2.4141  0.4152
 1013MOL0     H36721   8.010   4.928   3.900  1.3213  0.7288 -0.3803
 1013MOL0     H36722   8.038   5.100   3.935 -0.5072 -0.6858  0.4385
 1013MOL0     H36723   7.826   5.052   4.027 -0.7022 -0.6786 -0.1902
 1013MOL0     H36724   7.827   5.165   3.892  1.1914  0.0562  2.0604
 1013MOL0     H36725   7.727   4.866   3.877  0.6380 -0.3437 -1.9440
 1013MOL0     H36726   7.750   4.976   3.746 -1.3964  0.6339  0.0754
 1013MOL0     H36727   7.546   5.022   3.967 -2.6620 -0.9211 -0.0190
 1013MOL0     H36728   7.568   5.127   3.827 -3.1371  0.0955 -0.7746
 1013MOL0     H36729   7.531   4.919   3.689 -0.3193 -0.6976 -0.3047
 1013MOL0     H36730   7.393   5.002   3.779  0.3861  0.0141  2.2866
 1013MOL0     H36731   7.523   4.747   3.834 -0.6074 -1.3838 -0.3722
 1013MOL0     H36732   7.397   4.815   3.950  0.5856 -0.4424  0.2698
 1013MOL0     H36733   7.350   4.718   3.666 -0.3844  0.1085  0.2236
 1013MOL0     H36734   7.222   4.789   3.771 -0.1716  0.8158  1.0551
 1013MOL0     H36735   7.403   4.555   3.830  1.3969  2.0390 -0.1096
 1013MOL0     H36736   7.261   4.524   3.731  0.7845 -0.4036 -0.2479
 1013MOL0     H36737   7.982   4.992   3.494 -1.0456  0.1186  1.1368
 1013MOL0     H36738   8.181   4.981   3.344 -3.8472 -0.8606  0.1454
 1013MOL0     H36739   8.692   4.906   3.403  0.1620 -2.0580  0.9649
 1013MOL0     H36740   8.889   4.865   3.235  1.4346 -1.8368  0.5263
 1013MOL0     H36741  10.635   5.116   2.679  0.8837 -1.5680 -1.9388
 1013MOL0     H36742  10.863   5.073   2.610 -0.1317  0.1138  0.3159
 1013MOL0     H36743  11.265   4.985   2.672 -0.7453 -0.1775  0.9530
 1013MOL0     H36744  11.475   4.850   2.717  1.1017 -0.7520  1.7338
 1013MOL0     H36745  11.717   4.998   3.022  3.0491  0.3321  0.4329
 1013MOL0     H36746  11.672   4.829   2.982 -2.0515  1.1439  1.5286
 1013MOL0     H36747  11.879   4.783   2.892  1.2566  0.6695 -1.1629
 1013MOL0     H36748  11.889   4.828   3.060 -0.0411  0.4984 -0.0611
 1013MOL0     H36749  11.961   5.067   2.972 -1.2143 -1.2681  2.0694
 1013MOL0     H36750  11.939   4.986   2.814  0.6543 -4.5941 -0.5964
 1013MOL0     H36751  12.177   4.952   2.839  2.9920 -1.6759  1.3167
 1013MOL0     H36752  12.095   4.805   2.887 -3.5752  1.7978 -2.9380
 1013MOL0     H36753  12.242   4.921   3.262 -0.0613 -4.2180 -0.2200
 1013MOL0     H36754  11.635   5.209   2.888  2.3022 -2.0148 -1.3519
 1013MOL0     H36755  11.422   5.318   2.879  0.1014 -0.0375 -0.8331
 1014MOL0     O36756   7.656  11.256   1.885  0.2930 -0.0210  0.7818
 1014MOL0     C36757   7.717  11.319   1.972 -0.2766 -0.3814 -0.7779
 1014MOL0     O36758   7.663  11.382   2.078 -0.3833 -0.5257 -0.1602
 1014MOL0     C36759   7.530  11.398   2.085  1.0258 -0.5768 -0.2929
 1014MOL0     C36760   7.453  11.463   1.987 -0.5916 -0.1325 -0.7022
 1014MOL0     C36761   7.316  11.496   2.003  0.2911  0.4241 -0.1793
 1014MOL0     C36762   7.245  11.477   2.123 -0.3177 -0.5873  0.3686
 1014MOL0     O36763   7.125  11.529   2.159  0.2431  0.1721  0.6746
 1014MOL0     C36764   7.056  11.612   2.063 -0.8788 -0.9102 -0.2097
 1014MOL0     C36765   6.933  11.682   2.120 -1.0306 -1.3907  0.1783
 1014MOL0     C36766   6.824  11.594   2.178  0.2808 -0.7966 -0.1459
 1014MOL0     C36767   6.774  11.493   2.071  1.0035 -1.1098  0.2916
 1014MOL0     C36768   6.670  11.394   2.120 -0.9177  0.4580  0.0686
 1014MOL0     C36769   6.569  11.453   2.215  0.6213  0.3453 -0.4708
 1014MOL0     C36770   6.489  11.342   2.282 -0.7362  0.0132 -0.1696
 1014MOL0     C36771   6.388  11.399   2.381  0.8587 -0.4180 -0.5693
 1014MOL0     N36772   6.261  11.440   2.316  1.0104  0.1680  0.7829
 1014MOL0     C36773   6.162  11.356   2.263  0.3077 -0.0554 -0.0357
 1014MOL0     C36774   6.070  11.443   2.212  0.7515 -0.1169 -0.1898
 1014MOL0     C36775   5.947  11.420   2.140 -0.0639  0.2970 -0.4420
 1014MOL0     C36776   5.829  11.399   2.225  0.7005  0.3959 -0.3266
 1014MOL0     C36777   5.803  11.256   2.269 -0.4228  0.4891 -0.0603
 1014MOL0     C36778   5.783  11.152   2.160 -0.4438  0.2029  0.2670
 1014MOL0     O36779   5.688  11.202   2.067 -0.2052 -1.6945 -0.0529
 1014MOL0     C36780   5.682  11.143   1.946 -0.0634  0.3268 -0.7153
 1014MOL0     C36781   5.607  11.218   1.849  0.3432  0.3328 -0.1301
 1014MOL0     C36782   5.611  11.185   1.711  0.1719 -0.0089  0.4754
 1014MOL0     C36783   5.547  11.281   1.621 -0.0341  0.2108  0.5856
 1014MOL0     C36784   5.671  11.061   1.672 -0.9396 -0.2817 -0.2696
 1014MOL0     C36785   5.693  11.006   1.531  0.3033  0.1478 -0.8547
 1014MOL0     O36786   5.671  11.097   1.433 -0.1345  0.3904 -0.3289
 1014MOL0     C36787   5.696  11.059   1.302  0.3682 -0.5866  0.0358
 1014MOL0     C36788   5.791  11.137   1.232 -0.1403  0.4057  0.8368
 1014MOL0     C36789   5.816  11.113   1.090  0.5108  0.6877 -0.3450
 1014MOL0     C36790   5.749  11.015   1.024 -0.4786 -0.7393 -0.1357
 1014MOL0     O36791   5.782  10.985   0.903  0.1038 -0.3974  0.3413
 1014MOL0     C36792   5.864  10.873   0.886 -1.3632 -0.4984  0.1910
 1014MOL0     C36793   5.906  10.870   0.741 -0.1091  0.8928 -0.8968
 1014MOL0     C36794   5.927  10.726   0.700 -0.5474 -0.2821 -0.7240
 1014MOL0     C36795   5.989  10.706   0.562 -0.2334  0.0107 -0.7920
 1014MOL0     C36796   5.981  10.559   0.510  0.0908 -1.2917  0.8410
 1014MOL0     C36797   6.071  10.543   0.386  0.0935  0.0020 -0.4660
 1014MOL0     C36798   6.053  10.417   0.303 -1.2824  0.2263 -0.1031
 1014MOL0     C36799   6.150  10.406   0.197  0.4115  0.7909  1.8281
 1014MOL0    Cl36800   6.320  10.405   0.244  0.0301  0.2298 -0.2624
 1014MOL0     C36801   5.661  10.942   1.093  0.4788  0.8255  0.5405
 1014MOL0     C36802   5.628  10.958   1.228 -0.2526 -1.0443 -0.4676
 1014MOL0     O36803   5.709  10.883   1.513 -0.9046 -0.2203 -0.4029
 1014MOL0     C36804   5.724  10.977   1.774  0.2865  1.1341  0.4665
 1014MOL0     C36805   5.727  11.019   1.905 -0.1887  0.3877 -0.1546
 1014MOL0     N36806   6.114  11.570   2.235 -0.6874 -0.6804 -0.2259
 1014MOL0     N36807   6.220  11.571   2.295  0.2687 -0.2293 -1.2085
 1014MOL0     C36808   7.318  11.408   2.218  0.7883  0.3856 -1.0568
 1014MOL0     C36809   7.458  11.371   2.201 -0.5055 -0.1108  0.0569
 1014MOL0     C36810   7.859  11.324   1.961 -0.6484 -0.1126 -0.5558
 1014MOL0     C36811   7.930  11.281   1.844  0.8567  0.3131 -1.3191
 1014MOL0     C36812   8.065  11.253   1.836 -0.2257  0.6499  0.1858
 1014MOL0     C36813   8.143  11.272   1.945  0.0688  0.0967 -0.1155
 1014MOL0     O36814   8.283  11.252   1.937  0.5306  0.5296 -0.5886
 1014MOL0     C36815   8.369  11.318   2.028  0.2946  0.1873  0.1123
 1014MOL0     C36816   8.520  11.300   1.998  0.1127 -0.1787 -0.2477
 1014MOL0     C36817   8.595  11.350   2.124  0.2404  0.7822  0.3417
 1014MOL0     C36818   8.741  11.381   2.100 -1.0355 -0.1682 -0.2980
 1014MOL0     C36819   8.830  11.280   2.153 -0.5380  0.2387 -0.3841
 1014MOL0     C36820   8.894  11.188   2.204 -0.7365  0.0658 -0.1790
 1014MOL0     C36821   8.081  11.322   2.065 -0.7852  0.6101  0.4758
 1014MOL0     C36822   7.943  11.344   2.076 -0.7960  0.2012  0.4477
 1014MOL0     H36823   7.502  11.481   1.892  3.1573  0.3219  1.1043
 1014MOL0     H36824   7.263  11.527   1.914  1.0613  2.6586  0.0859
 1014MOL0     H36825   7.130  11.689   2.038  1.1589 -2.9709 -0.8657
 1014MOL0     H36826   7.026  11.561   1.971 -2.6122 -1.4576  0.6124
 1014MOL0     H36827   6.975  11.748   2.197 -1.2851 -0.8584 -0.1369
 1014MOL0     H36828   6.895  11.749   2.042  2.3899  4.7833  3.0500
 1014MOL0     H36829   6.874  11.538   2.257  0.9725  1.0163  0.7675
 1014MOL0     H36830   6.734  11.647   2.212  2.8058  4.2074 -0.3864
 1014MOL0     H36831   6.715  11.552   2.000 -0.0599 -1.3674  0.9463
 1014MOL0     H36832   6.858  11.439   2.024  0.8088 -0.8014 -0.4335
 1014MOL0     H36833   6.627  11.350   2.029  1.0534  0.7623 -1.0632
 1014MOL0     H36834   6.720  11.312   2.172  1.1881  2.2607  1.0262
 1014MOL0     H36835   6.614  11.500   2.303 -1.3414  1.4131  0.0151
 1014MOL0     H36836   6.503  11.520   2.159 -0.9134 -0.1240  0.6976
 1014MOL0     H36837   6.433  11.294   2.202 -0.1216  1.9389 -1.8433
 1014MOL0     H36838   6.564  11.281   2.334  0.2671  1.0536 -0.3609
 1014MOL0     H36839   6.435  11.483   2.433  0.6490  0.4465 -1.7459
 1014MOL0     H36840   6.362  11.323   2.455 -0.1747  1.1822  0.7604
 1014MOL0     H36841   6.157  11.249   2.244  0.9171 -0.8891  3.6717
 1014MOL0     H36842   5.929  11.510   2.081 -0.1021 -0.5091 -1.6910
 1014MOL0     H36843   5.968  11.339   2.069  3.0860  0.1001  0.5771
 1014MOL0     H36844   5.733  11.415   2.174 -1.1907 -0.5696  2.6895
 1014MOL0     H36845   5.830  11.476   2.302 -1.5313 -0.4035  0.5748
 1014MOL0     H36846   5.716  11.252   2.335 -0.9885  0.7138 -0.7926
 1014MOL0     H36847   5.887  11.222   2.331  2.0134  0.1615 -3.2813
 1014MOL0     H36848   5.745  11.054   2.192  0.8819 -0.2417  0.5879
 1014MOL0     H36849   5.876  11.125   2.108 -2.7710 -3.6404 -2.4230
 1014MOL0     H36850   5.569  11.317   1.867 -1.3785 -0.0813 -1.2141
 1014MOL0     H36851   5.472  11.219   1.571  0.5370 -1.1573  1.3918
 1014MOL0     H36852   5.499  11.354   1.687 -0.4719 -0.4145  0.9609
 1014MOL0     H36853   5.626  11.325   1.559  0.1728  1.7707  1.9020
 1014MOL0     H36854   5.852  11.212   1.282  0.6244  1.6391 -1.7457
 1014MOL0     H36855   5.875  11.189   1.039 -2.2222  2.9257 -0.3954
 1014MOL0     H36856   5.959  10.885   0.938 -0.8437  0.4800 -0.9265
 1014MOL0     H36857   5.812  10.783   0.919  0.0155 -0.3643  2.9441
 1014MOL0     H36858   5.830  10.917   0.678 -3.3224 -1.5273  0.8399
 1014MOL0     H36859   6.001  10.924   0.735 -0.6390  1.8203 -1.1795
 1014MOL0     H36860   5.831  10.673   0.700 -1.2086  0.8906 -0.8854
 1014MOL0     H36861   5.990  10.683   0.779  0.6116  2.9807  0.2972
 1014MOL0     H36862   5.940  10.778   0.496  1.6307  0.8081 -1.3665
 1014MOL0     H36863   6.092  10.743   0.566 -1.0513  2.4145  1.5226
 1014MOL0     H36864   5.881  10.535   0.473  0.0911  0.1969 -0.2401
 1014MOL0     H36865   6.014  10.491   0.588  1.4927 -2.4665 -0.7134
 1014MOL0     H36866   6.060  10.622   0.312 -2.8742 -2.3625 -2.8245
 1014MOL0     H36867   6.175  10.534   0.419  1.0249 -2.4989 -3.5798
 1014MOL0     H36868   5.953  10.439   0.265 -2.0252  2.2918  2.6887
 1014MOL0     H36869   6.053  10.326   0.363  2.4385 -0.4465 -0.8439
 1014MOL0     H36870   6.129  10.485   0.124 -1.0688 -0.7503  0.5056
 1014MOL0     H36871   6.141  10.317   0.134  0.4479  1.8170  0.3377
 1014MOL0     H36872   5.613  10.869   1.028 -0.0640  1.2498  0.4600
 1014MOL0     H36873   5.562  10.895   1.285  2.2923 -1.2783  2.5068
 1014MOL0     H36874   5.749  10.874   1.750 -2.6692  0.8324 -1.8898
 1014MOL0     H36875   5.780  10.947   1.966  1.3896  0.2505 -1.5996
 1014MOL0     H36876   7.281  11.368   2.312 -0.7051 -2.0426 -2.5611
 1014MOL0     H36877   7.512  11.307   2.270 -1.5181  0.4867  1.4686
 1014MOL0     H36878   7.877  11.263   1.751  0.1343  0.6192 -0.9751
 1014MOL0     H36879   8.107  11.202   1.750  0.8638  1.5596  0.1601
 1014MOL0     H36880   8.341  11.422   2.008 -0.8916  0.2323  1.7334
 1014MOL0     H36881   8.347  11.299   2.134  1.0247 -0.3339  0.1799
 1014MOL0     H36882   8.552  11.354   1.908  2.1480  1.8348  1.5665
 1014MOL0     H36883   8.536  11.193   1.981  0.1465  0.2182 -3.3298
 1014MOL0     H36884   8.581  11.275   2.203  0.8417  0.4756  0.1621
 1014MOL0     H36885   8.547  11.438   2.168 -0.7253  0.2270  0.4460
 1014MOL0     H36886   8.757  11.472   2.158 -0.1688 -0.1875 -0.4844
 1014MOL0     H36887   8.767  11.404   1.996 -1.9042  1.1290 -0.2485
 1014MOL0     H36888   8.930  11.095   2.243 -0.7193  1.0756  2.3833
 1014MOL0     H36889   8.138  11.358   2.150  0.9560  1.3927 -0.9715
 1014MOL0     H36890   7.911  11.383   2.172  2.9040  0.8728  1.5998
 1015MOL0     O36891  10.186   1.119  10.494  0.3708 -0.4048  0.1602
 1015MOL0     C36892  10.123   1.183  10.408 -0.5744  0.8581 -0.0439
 1015MOL0     O36893  10.186   1.230  10.296 -0.0790 -0.2798  0.5398
 1015MOL0     C36894  10.322   1.200  10.278  0.4040 -0.4155  0.2274
 1015MOL0     C36895  10.412   1.316  10.267  0.4640  0.1581 -0.4223
 1015MOL0     C36896  10.540   1.292  10.212  0.0803  0.7102 -0.6506
 1015MOL0     C36897  10.586   1.166  10.167 -0.1256  0.8992  0.5283
 1015MOL0     O36898  10.714   1.153  10.118  0.2028 -0.3554 -0.3079
 1015MOL0     C36899  10.735   1.098   9.985  0.3794 -0.2031 -0.3562
 1015MOL0     C36900  10.814   1.213   9.904  0.8195 -0.1427  0.0254
 1015MOL0     C36901  10.955   1.229   9.958 -0.4039 -0.1854 -0.0805
 1015MOL0     C36902  11.024   1.338   9.869 -0.1420  0.4141  0.3231
 1015MOL0     C36903  11.174   1.351   9.904 -0.4535 -0.1387 -0.0834
 1015MOL0     C36904  11.217   1.479   9.827 -0.0484  0.0769 -0.3405
 1015MOL0     C36905  11.218   1.481   9.672  0.2588 -0.0005 -0.4595
 1015MOL0     C36906  11.321   1.377   9.612  0.6906  0.3518  0.3574
 1015MOL0     N36907  11.256   1.239   9.592  0.8347  0.4058 -0.0860
 1015MOL0     C36908  11.158   1.211   9.498  0.4929  0.2469  0.6677
 1015MOL0     C36909  11.130   1.080   9.510  0.5056 -0.6431  0.9440
 1015MOL0     C36910  11.025   1.008   9.425 -0.2813  0.5224 -0.2814
 1015MOL0     C36911  10.891   1.079   9.468  0.9018 -0.2935 -0.8967
 1015MOL0     C36912  10.774   0.998   9.408 -0.0295  0.6515 -0.0004
 1015MOL0     C36913  10.647   1.053   9.457 -0.4075  0.5073 -0.0076
 1015MOL0     O36914  10.534   0.963   9.412  0.7936 -0.5752  0.6153
 1015MOL0     C36915  10.414   0.973   9.483 -0.3564  0.2902 -0.4340
 1015MOL0     C36916  10.385   1.055   9.586  0.1074 -0.1453 -0.0586
 1015MOL0     C36917  10.277   1.032   9.667  1.0588  0.4359 -0.5000
 1015MOL0     C36918  10.282   1.088   9.809  0.6010  0.4002  1.0314
 1015MOL0     C36919  10.164   0.948   9.622  0.8910  0.4475  0.1174
 1015MOL0     C36920  10.035   0.920   9.690 -0.6633 -0.1905 -0.8538
 1015MOL0     O36921   9.975   0.800   9.663  0.2928 -0.4165 -0.1889
 1015MOL0     C36922   9.837   0.787   9.705 -0.6547  1.2820  0.1952
 1015MOL0     C36923   9.738   0.827   9.623  1.3629 -0.6884 -0.1873
 1015MOL0     C36924   9.602   0.834   9.660 -0.2457 -0.2818  0.3345
 1015MOL0     C36925   9.566   0.786   9.790  0.1085 -0.2724 -0.1809
 1015MOL0     O36926   9.435   0.795   9.831 -0.1036  0.2462 -0.1867
 1015MOL0     C36927   9.398   0.781   9.978  0.0870  0.3334  1.2237
 1015MOL0     C36928   9.284   0.880  10.016  0.3579  0.5668 -0.3706
 1015MOL0     C36929   9.324   1.023  10.009  0.0995  0.4674 -0.0724
 1015MOL0     C36930   9.228   1.109  10.096  0.3903  0.0611 -0.7799
 1015MOL0     C36931   9.267   1.250  10.062  0.2503 -0.4247  0.9025
 1015MOL0     C36932   9.203   1.361  10.145  0.4913 -0.4660 -0.6924
 1015MOL0     C36933   9.228   1.506  10.090  0.4216 -0.7629  0.9589
 1015MOL0     C36934   9.348   1.584  10.151 -0.3872  0.3427 -0.4889
 1015MOL0    Cl36935   9.506   1.519  10.104  0.4549  0.0568 -0.7316
 1015MOL0     C36936   9.674   0.732   9.870  0.2312  0.1551  0.3845
 1015MOL0     C36937   9.807   0.740   9.831  0.2418  0.4755 -0.4426
 1015MOL0     O36938   9.994   1.003   9.773 -0.6088  0.0218 -0.7231
 1015MOL0     C36939  10.195   0.877   9.508 -0.2787  0.1344 -0.9202
 1015MOL0     C36940  10.317   0.878   9.441 -0.4164 -1.2454 -0.1016
 1015MOL0     N36941  11.208   1.024   9.613  0.2700  0.3209  0.0720
 1015MOL0     N36942  11.280   1.124   9.657  0.3502 -0.4203  0.1942
 1015MOL0     C36943  10.494   1.057  10.176  0.5490  0.2629  0.1950
 1015MOL0     C36944  10.363   1.076  10.222 -0.3222 -0.0982 -1.2432
 1015MOL0     C36945   9.991   1.244  10.442 -0.9475 -0.3279 -0.4271
 1015MOL0     C36946   9.912   1.198  10.559  0.4422 -0.4360  0.3670
 1015MOL0     C36947   9.777   1.230  10.564 -1.3005  0.2169 -0.2372
 1015MOL0     C36948   9.724   1.319  10.469  0.6924  0.2605  0.4673
 1015MOL0     O36949   9.592   1.350  10.476  0.0143 -0.0220 -0.0650
 1015MOL0     C36950   9.528   1.276  10.368  0.6267  0.6872  0.4630
 1015MOL0     C36951   9.519   1.130  10.379  1.1971  0.4331  0.6752
 1015MOL0     C36952   9.447   1.082  10.502 -0.9269  0.0005 -0.5196
 1015MOL0     C36953   9.507   0.950  10.545 -0.5216  0.0017 -0.1501
 1015MOL0     C36954   9.444   0.853  10.455 -0.8998  0.4563 -0.4454
 1015MOL0     C36955   9.404   0.768  10.379 -0.7546  0.1446  1.0076
 1015MOL0     C36956   9.810   1.385  10.382  0.0354  0.0552  1.0080
 1015MOL0     C36957   9.941   1.344  10.359  0.0331 -0.4601 -0.5733
 1015MOL0     H36958  10.371   1.414  10.291 -1.7872 -0.7061 -0.5147
 1015MOL0     H36959  10.609   1.375  10.206 -1.3169  1.9736  0.0603
 1015MOL0     H36960  10.807   1.016   9.993  2.0119  1.1890 -0.0159
 1015MOL0     H36961  10.637   1.074   9.945 -0.6545  2.9875 -0.0421
 1015MOL0     H36962  10.819   1.176   9.801 -4.2615 -2.4430  0.2965
 1015MOL0     H36963  10.762   1.308   9.889 -2.1290 -1.7271 -0.4468
 1015MOL0     H36964  10.944   1.272  10.058 -1.1943 -0.1423 -0.1788
 1015MOL0     H36965  11.009   1.134   9.959 -0.6915 -0.4233 -2.4109
 1015MOL0     H36966  11.017   1.301   9.767  2.0074  1.5132 -0.2857
 1015MOL0     H36967  10.975   1.436   9.865 -0.0246  0.5082  1.0341
 1015MOL0     H36968  11.188   1.356  10.013 -1.8767  0.7840  0.0868
 1015MOL0     H36969  11.241   1.273   9.868  1.9656 -0.4140  4.2899
 1015MOL0     H36970  11.144   1.553   9.860 -3.4627 -1.5970 -3.4361
 1015MOL0     H36971  11.311   1.513   9.872 -0.1694  0.7259 -0.5581
 1015MOL0     H36972  11.117   1.467   9.633  0.6952 -1.8527 -0.9956
 1015MOL0     H36973  11.250   1.582   9.646  0.1140  0.1880  0.0681
 1015MOL0     H36974  11.402   1.361   9.684  0.7776 -2.5166 -0.2501
 1015MOL0     H36975  11.364   1.406   9.516  1.9134 -0.0537  0.7641
 1015MOL0     H36976  11.109   1.279   9.428  2.6818 -0.6520 -1.9510
 1015MOL0     H36977  11.033   1.030   9.318 -1.8144  0.3568 -0.4458
 1015MOL0     H36978  11.018   0.902   9.452 -2.1415  0.8530  0.6724
 1015MOL0     H36979  10.888   1.182   9.431 -1.9102  1.4810  3.4710
 1015MOL0     H36980  10.875   1.083   9.576  0.3376  3.4844 -1.0075
 1015MOL0     H36981  10.787   0.893   9.436  0.2159  0.6859  0.0198
 1015MOL0     H36982  10.790   1.005   9.300 -0.5257 -0.6653 -0.1824
 1015MOL0     H36983  10.629   1.153   9.417 -0.7361  0.3846 -0.1751
 1015MOL0     H36984  10.649   1.066   9.565  1.4506  2.3054 -0.2064
 1015MOL0     H36985  10.462   1.125   9.619 -1.3249  2.7488 -2.3826
 1015MOL0     H36986  10.227   1.013   9.867  0.7306 -0.5088  0.0262
 1015MOL0     H36987  10.386   1.096   9.841  0.8064  0.4277  0.3727
 1015MOL0     H36988  10.228   1.183   9.811  0.4355  0.4481 -1.7162
 1015MOL0     H36989   9.776   0.860   9.527  0.2428 -0.9618 -0.7429
 1015MOL0     H36990   9.532   0.892   9.600 -2.0781 -0.6791  1.9761
 1015MOL0     H36991   9.359   0.679   9.989 -1.7258  0.6578 -1.1683
 1015MOL0     H36992   9.486   0.812  10.035 -0.0453  3.2866 -0.0137
 1015MOL0     H36993   9.201   0.861   9.948 -0.0493 -2.4307  0.8234
 1015MOL0     H36994   9.247   0.853  10.115 -1.9549  0.1241 -1.2779
 1015MOL0     H36995   9.327   1.056   9.905  1.1979  0.2612 -0.1177
 1015MOL0     H36996   9.427   1.032  10.042  0.1991  1.6854 -0.6517
 1015MOL0     H36997   9.125   1.090  10.065 -0.0762  2.0545 -0.5553
 1015MOL0     H36998   9.241   1.088  10.203  0.7397  1.9231 -0.4186
 1015MOL0     H36999   9.259   1.274   9.956 -0.2924  1.0819  1.2530
 1015MOL0     H37000   9.373   1.252  10.088  0.3735  1.0304  0.3677
 1015MOL0     H37001   9.094   1.347  10.144  0.6337 -1.7555 -0.6833
 1015MOL0     H37002   9.236   1.347  10.249  1.6733  1.8548 -0.7061
 1015MOL0     H37003   9.141   1.566  10.120  0.9374  0.1834  0.6280
 1015MOL0     H37004   9.237   1.507   9.981 -2.1855 -0.7870  0.7008
 1015MOL0     H37005   9.344   1.576  10.260  1.0522 -3.4909 -0.5525
 1015MOL0     H37006   9.349   1.690  10.126  0.3271  0.6839  0.9061
 1015MOL0     H37007   9.634   0.705   9.967  1.4470 -0.6678  0.6806
 1015MOL0     H37008   9.884   0.699   9.896 -0.6139  1.2712  1.1220
 1015MOL0     H37009  10.119   0.803   9.484 -0.7153 -0.8394  2.8220
 1015MOL0     H37010  10.334   0.807   9.361 -0.2060 -3.5570  1.8969
 1015MOL0     H37011  10.515   0.956  10.145  0.2062  1.1061 -3.1270
 1015MOL0     H37012  10.281   1.005  10.219 -2.2190  1.7836  0.9749
 1015MOL0     H37013   9.959   1.128  10.628  2.6559  1.9468  1.4756
 1015MOL0     H37014   9.717   1.190  10.645  1.2104 -0.7945  1.2183
 1015MOL0     H37015   9.426   1.313  10.358  0.8622  0.9836 -1.0997
 1015MOL0     H37016   9.571   1.305  10.272 -0.7593  1.8553  0.1673
 1015MOL0     H37017   9.613   1.076  10.362  0.2738 -0.4152 -2.5261
 1015MOL0     H37018   9.459   1.109  10.290 -1.7226  4.5992  1.4022
 1015MOL0     H37019   9.338   1.069  10.503 -0.8390 -0.7348  1.0597
 1015MOL0     H37020   9.466   1.150  10.585 -0.9495 -1.9792  1.1815
 1015MOL0     H37021   9.470   0.929  10.645 -3.6422  1.6125 -0.8367
 1015MOL0     H37022   9.616   0.947  10.541 -0.5295  0.8110 -1.7939
 1015MOL0     H37023   9.368   0.701  10.303  1.0244  2.7061 -2.3968
 1015MOL0     H37024   9.771   1.464  10.318  0.3846  0.0074  0.7302
 1015MOL0     H37025  10.008   1.383  10.284  0.8538 -2.4510 -0.9548
 1016MOL0     O37026   8.778  10.735   7.583  0.2749  1.0671  0.0880
 1016MOL0     C37027   8.800  10.736   7.461 -0.0033  0.3056  0.0652
 1016MOL0     O37028   8.711  10.773   7.364 -0.7958 -0.9644 -0.5352
 1016MOL0     C37029   8.593  10.829   7.377 -0.2363  0.6817  0.7410
 1016MOL0     C37030   8.515  10.849   7.256 -0.2282  0.2764  1.1444
 1016MOL0     C37031   8.389  10.915   7.262  0.0878  0.4720  0.4871
 1016MOL0     C37032   8.335  10.958   7.376 -0.1063  0.1996  0.0437
 1016MOL0     O37033   8.217  11.008   7.355  0.4750  0.4219 -0.6407
 1016MOL0     C37034   8.188  11.117   7.455  0.1683  0.0155 -0.4347
 1016MOL0     C37035   8.066  11.209   7.412 -0.0530 -0.3157  0.3331
 1016MOL0     C37036   8.045  11.310   7.524  0.1417 -0.8495  0.7304
 1016MOL0     C37037   7.931  11.410   7.491 -1.2124  0.1044 -0.0868
 1016MOL0     C37038   7.895  11.513   7.608 -0.7185  0.0920 -0.4579
 1016MOL0     C37039   7.772  11.590   7.567  0.4298 -0.1373  0.3580
 1016MOL0     C37040   7.702  11.644   7.686 -0.3311 -0.1221  0.1735
 1016MOL0     C37041   7.593  11.732   7.636  0.7407 -0.5255  1.0467
 1016MOL0     N37042   7.519  11.800   7.737 -0.6306  0.3592  0.8634
 1016MOL0     C37043   7.530  11.933   7.781  0.0683 -0.1410  0.8480
 1016MOL0     C37044   7.437  11.955   7.881 -0.6048 -0.2938 -0.3169
 1016MOL0     C37045   7.393  12.067   7.967 -0.2486  0.5333  0.0696
 1016MOL0     C37046   7.393  12.210   7.908 -0.2063  0.5840  0.5600
 1016MOL0     C37047   7.350  12.308   8.016 -0.6843 -0.1481  0.4089
 1016MOL0     C37048   7.338  12.455   7.956 -1.1633  0.6275 -0.1321
 1016MOL0     O37049   7.265  12.465   7.829  0.1508  0.1396  0.3733
 1016MOL0     C37050   7.126  12.464   7.826  0.4209  0.0612  0.1659
 1016MOL0     C37051   7.041  12.464   7.949  0.0617 -0.3742  0.2187
 1016MOL0     C37052   6.898  12.474   7.940 -0.8504  1.1796 -0.1635
 1016MOL0     C37053   6.823  12.484   8.070 -0.0140  0.0760 -0.8643
 1016MOL0     C37054   6.842  12.473   7.812  0.1347  1.2314 -0.3223
 1016MOL0     C37055   6.690  12.478   7.786  0.4960  0.5839  0.1311
 1016MOL0     O37056   6.606  12.473   7.895 -0.1878  0.6167  0.2391
 1016MOL0     C37057   6.471  12.470   7.870 -0.3267 -0.2131 -0.4386
 1016MOL0     C37058   6.399  12.580   7.826 -1.2518 -0.2712 -0.0038
 1016MOL0     C37059   6.256  12.576   7.801 -0.4265  0.0776 -0.5340
 1016MOL0     C37060   6.195  12.450   7.803 -0.0333  0.3198 -0.2791
 1016MOL0     O37061   6.060  12.432   7.764 -0.0068  0.6354 -0.8512
 1016MOL0     C37062   5.970  12.521   7.834 -0.5508  0.6128  0.3073
 1016MOL0     C37063   5.837  12.533   7.766 -1.2014 -0.1460  0.1232
 1016MOL0     C37064   5.769  12.667   7.809  0.3009 -0.1749  0.7867
 1016MOL0     C37065   5.647  12.695   7.719  0.5099 -0.1247 -0.3832
 1016MOL0     C37066   5.523  12.759   7.783  1.0299  0.1107  0.3470
 1016MOL0     C37067   5.452  12.666   7.885  0.6525 -0.4786 -0.8757
 1016MOL0     C37068   5.370  12.753   7.989  0.2535 -0.6066  0.3106
 1016MOL0     C37069   5.273  12.681   8.084 -0.2256 -0.0676  0.3161
 1016MOL0    Cl37070   5.141  12.612   7.995 -0.1448 -0.1583  0.1352
 1016MOL0     C37071   6.264  12.343   7.844  0.4720  0.8539 -0.2793
 1016MOL0     C37072   6.398  12.357   7.886  0.2676  0.2109 -0.2156
 1016MOL0     O37073   6.653  12.489   7.666 -0.5146 -0.2319  0.2617
 1016MOL0     C37074   6.929  12.469   7.697  0.5354 -0.0860 -0.6531
 1016MOL0     C37075   7.058  12.453   7.700 -0.0880 -0.5906 -0.9347
 1016MOL0     N37076   7.378  11.832   7.885  1.2201  0.4843 -0.0090
 1016MOL0     N37077   7.427  11.742   7.810 -0.4851  0.1916 -0.9271
 1016MOL0     C37078   8.403  10.926   7.495 -0.1805 -0.8137  0.8315
 1016MOL0     C37079   8.530  10.872   7.498  0.8917 -0.0444 -0.2894
 1016MOL0     C37080   8.927  10.662   7.420  0.4793 -0.2478 -0.0240
 1016MOL0     C37081   8.940  10.616   7.291  0.3464  0.2361 -0.1266
 1016MOL0     C37082   9.061  10.558   7.236  0.2938 -0.5109 -0.4208
 1016MOL0     C37083   9.168  10.531   7.314  0.5494 -0.1353 -0.6825
 1016MOL0     O37084   9.288  10.485   7.264  1.2535 -0.2583 -0.1130
 1016MOL0     C37085   9.421  10.514   7.324  0.2871  0.1914  0.5147
 1016MOL0     C37086   9.522  10.550   7.212  0.2252  0.8337 -0.6470
 1016MOL0     C37087   9.663  10.570   7.272 -0.2067  0.4882 -0.3146
 1016MOL0     C37088   9.769  10.634   7.183  0.2879 -0.8131 -0.0027
 1016MOL0     C37089   9.743  10.781   7.164  0.5008 -0.2321  0.8417
 1016MOL0     C37090   9.720  10.896   7.136 -0.4188 -0.3912  0.3420
 1016MOL0     C37091   9.150  10.554   7.453 -0.4290 -0.3711 -0.5137
 1016MOL0     C37092   9.031  10.622   7.507  0.4779 -0.3791  0.0022
 1016MOL0     H37093   8.560  10.820   7.161  0.9150  1.8547  1.1570
 1016MOL0     H37094   8.330  10.924   7.171 -1.3477  1.6326  1.4784
 1016MOL0     H37095   8.169  11.066   7.550 -1.9644 -0.7073 -1.1878
 1016MOL0     H37096   8.271  11.184   7.477 -0.2122  0.0777  0.8728
 1016MOL0     H37097   8.086  11.258   7.316  0.5561  0.1105  0.6709
 1016MOL0     H37098   7.975  11.153   7.389  1.2985 -2.4536 -0.0325
 1016MOL0     H37099   8.015  11.251   7.611 -1.3289  0.2598  1.0246
 1016MOL0     H37100   8.138  11.365   7.541 -0.5827  0.5884  0.2484
 1016MOL0     H37101   7.964  11.467   7.403  1.8275  0.6254  1.2778
 1016MOL0     H37102   7.850  11.340   7.472 -1.6913  1.0221 -1.5991
 1016MOL0     H37103   7.885  11.458   7.702 -5.6412  2.6999  0.8555
 1016MOL0     H37104   7.982  11.577   7.631  1.4174 -2.9010  0.4187
 1016MOL0     H37105   7.817  11.672   7.509 -2.1030  2.2037  1.4540
 1016MOL0     H37106   7.707  11.534   7.499  0.4072 -1.2060  1.2482
 1016MOL0     H37107   7.670  11.568   7.759 -0.4737 -0.7468 -0.5231
 1016MOL0     H37108   7.777  11.705   7.737 -0.3145  0.4456 -0.5282
 1016MOL0     H37109   7.516  11.685   7.575 -0.9602  0.0241  2.6853
 1016MOL0     H37110   7.642  11.807   7.572 -1.0575 -0.1151  0.0974
 1016MOL0     H37111   7.602  12.005   7.743 -0.4023  1.1887  2.3896
 1016MOL0     H37112   7.295  12.042   8.009 -1.6628  0.2956 -3.0872
 1016MOL0     H37113   7.463  12.075   8.051  3.1565 -1.0626 -2.3581
 1016MOL0     H37114   7.316  12.220   7.831 -0.3405  0.6177  0.6954
 1016MOL0     H37115   7.492  12.230   7.867 -0.9421 -0.1511 -1.7407
 1016MOL0     H37116   7.408  12.298   8.109 -2.4547  0.3331  1.6131
 1016MOL0     H37117   7.251  12.287   8.056 -0.1738 -2.3099  0.6387
 1016MOL0     H37118   7.444  12.469   7.932 -1.0619 -2.5468 -2.1721
 1016MOL0     H37119   7.295  12.525   8.028  0.6693  2.0734 -0.3778
 1016MOL0     H37120   7.088  12.462   8.046 -0.6298 -2.0525  0.5514
 1016MOL0     H37121   6.756  12.570   8.065 -0.6374 -0.2717  0.8274
 1016MOL0     H37122   6.765  12.392   8.081  3.0540 -1.8706  0.4967
 1016MOL0     H37123   6.898  12.483   8.150 -1.5576  0.5161  0.6451
 1016MOL0     H37124   6.458  12.671   7.818  2.0086 -2.3816 -4.7176
 1016MOL0     H37125   6.198  12.658   7.761 -0.9095  0.5418  1.0670
 1016MOL0     H37126   5.955  12.475   7.932 -0.7453  0.5860  0.2661
 1016MOL0     H37127   6.015  12.621   7.836  2.9729 -0.7747 -1.6725
 1016MOL0     H37128   5.864  12.531   7.660  3.4108  1.7345  1.0223
 1016MOL0     H37129   5.775  12.444   7.783  1.3387 -2.2685 -1.0420
 1016MOL0     H37130   5.831  12.757   7.803 -3.0353  2.2271 -0.8823
 1016MOL0     H37131   5.740  12.660   7.914 -0.1324 -2.9219  0.5549
 1016MOL0     H37132   5.686  12.751   7.633  0.8131 -0.8891 -0.7496
 1016MOL0     H37133   5.605  12.605   7.673 -1.2747  0.5360 -0.1575
 1016MOL0     H37134   5.452  12.783   7.703  0.2558  1.2415  1.3438
 1016MOL0     H37135   5.558  12.843   7.844  1.7967  1.4512 -1.8094
 1016MOL0     H37136   5.382  12.596   7.839  1.7275 -0.5909 -2.4128
 1016MOL0     H37137   5.522  12.602   7.940  2.4820  2.1547  0.0833
 1016MOL0     H37138   5.309  12.827   7.937 -1.4618 -1.8401  0.4655
 1016MOL0     H37139   5.448  12.799   8.051 -0.6067  0.6682  0.4796
 1016MOL0     H37140   5.233  12.752   8.158 -0.0114 -1.9305  2.3357
 1016MOL0     H37141   5.342  12.605   8.122 -1.1504 -0.7974  0.5699
 1016MOL0     H37142   6.215  12.246   7.848 -1.9212  2.0496  2.3020
 1016MOL0     H37143   6.462  12.273   7.912  0.9183  1.3241  2.0022
 1016MOL0     H37144   6.884  12.479   7.599  1.4436  0.3658 -1.0413
 1016MOL0     H37145   7.112  12.433   7.608  2.7313  3.2926 -0.3855
 1016MOL0     H37146   8.356  10.954   7.589 -2.2235  1.8138 -0.8128
 1016MOL0     H37147   8.583  10.857   7.592 -0.9683 -1.8059  0.5542
 1016MOL0     H37148   8.861  10.618   7.216  0.9616 -1.1894 -0.8583
 1016MOL0     H37149   9.075  10.520   7.135  1.1011 -3.3803  0.6652
 1016MOL0     H37150   9.411  10.599   7.392  2.1272 -1.0910  2.4820
 1016MOL0     H37151   9.448  10.427   7.385  0.0795  0.6432  1.2617
 1016MOL0     H37152   9.497  10.642   7.157 -0.4663  1.4176  0.5998
 1016MOL0     H37153   9.512  10.461   7.149 -1.0222  2.5503 -3.0479
 1016MOL0     H37154   9.704  10.472   7.296  0.5622  0.0645 -3.0399
 1016MOL0     H37155   9.659  10.621   7.369  2.0662 -0.2091  0.1879
 1016MOL0     H37156   9.768  10.567   7.097 -0.4653 -3.3977  1.8791
 1016MOL0     H37157   9.871  10.626   7.222  0.4577 -1.9955 -0.6466
 1016MOL0     H37158   9.709  11.001   7.115 -1.2938 -0.0576  2.3166
 1016MOL0     H37159   9.228  10.523   7.522 -0.5828 -0.7412 -0.5048
 1016MOL0     H37160   9.025  10.627   7.615 -1.3392 -0.7588 -0.0608
 1017MOL0     O37161   0.561  10.902   9.122  0.0748  0.1954 -0.6011
 1017MOL0     C37162   0.605  10.819   9.045 -0.4293  0.2051  0.2612
 1017MOL0     O37163   0.733  10.763   9.044  0.0209 -0.5707 -0.6662
 1017MOL0     C37164   0.824  10.759   9.152 -0.5404 -0.3996  0.0463
 1017MOL0     C37165   0.846  10.867   9.236 -0.4968  0.0942 -0.5772
 1017MOL0     C37166   0.937  10.847   9.344  0.1568  0.3853 -0.4055
 1017MOL0     C37167   1.003  10.729   9.362  0.1114 -0.3765  0.0742
 1017MOL0     O37168   1.092  10.733   9.462  0.1483 -0.0495 -0.7179
 1017MOL0     C37169   1.194  10.639   9.459 -0.9329  0.1147  0.7528
 1017MOL0     C37170   1.291  10.685   9.574  0.3695  0.6265  0.4611
 1017MOL0     C37171   1.429  10.617   9.564 -0.2292 -0.2332 -0.0095
 1017MOL0     C37172   1.474  10.561   9.706  0.6645 -0.4279 -0.1707
 1017MOL0     C37173   1.567  10.442   9.700 -0.3812 -0.1593  0.1092
 1017MOL0     C37174   1.700  10.479   9.641 -0.5006  0.1533 -0.5495
 1017MOL0     C37175   1.811  10.379   9.689  0.4479 -0.6975  0.1364
 1017MOL0     C37176   1.802  10.232   9.636  0.2171  0.1400  0.5260
 1017MOL0     N37177   1.793  10.222   9.482  0.5806  0.3869  0.0692
 1017MOL0     C37178   1.694  10.264   9.403 -0.6733  0.1633 -0.0324
 1017MOL0     C37179   1.731  10.210   9.284  0.0635  0.5118  0.7145
 1017MOL0     C37180   1.646  10.209   9.152 -0.0280 -0.4779  0.3256
 1017MOL0     C37181   1.552  10.093   9.146  0.7519  0.7507  0.5672
 1017MOL0     C37182   1.446  10.127   9.043  0.6152 -0.2646  0.4670
 1017MOL0     C37183   1.337  10.016   9.047  0.6300  0.3153 -0.0671
 1017MOL0     O37184   1.218  10.088   9.040  0.0325 -0.0081 -0.1836
 1017MOL0     C37185   1.175  10.142   8.917  0.3416  1.3589 -0.4459
 1017MOL0     C37186   1.039  10.182   8.910  0.2062  0.0750 -0.7145
 1017MOL0     C37187   0.978  10.249   8.802  1.1830  0.0450 -0.5546
 1017MOL0     C37188   0.840  10.318   8.821  0.4804  0.7150 -0.0027
 1017MOL0     C37189   1.057  10.261   8.681 -0.1105  0.7720 -0.7215
 1017MOL0     C37190   1.011  10.331   8.556 -0.0854 -0.6530 -0.5770
 1017MOL0     O37191   0.909  10.424   8.553  0.3430 -0.1078 -0.2354
 1017MOL0     C37192   0.886  10.504   8.444 -0.2333 -0.5351 -0.8977
 1017MOL0     C37193   0.983  10.553   8.356 -0.2796  0.1538 -0.1984
 1017MOL0     C37194   0.938  10.610   8.241 -0.2250 -0.6587  0.8904
 1017MOL0     C37195   0.807  10.630   8.210  0.8394 -0.2786  1.0971
 1017MOL0     O37196   0.768  10.689   8.085 -0.5473  0.4464 -0.2670
 1017MOL0     C37197   0.689  10.805   8.111  0.0697 -0.3755 -0.6903
 1017MOL0     C37198   0.678  10.888   7.986  0.0501 -0.2911  0.6350
 1017MOL0     C37199   0.816  10.964   7.970 -0.2684 -0.0112  0.8007
 1017MOL0     C37200   0.848  10.990   7.820 -1.2919  0.7337 -0.6336
 1017MOL0     C37201   0.984  11.075   7.816  0.6727  0.7675 -0.5898
 1017MOL0     C37202   1.108  11.006   7.880 -0.7409  0.5591 -0.4615
 1017MOL0     C37203   1.240  11.071   7.821  0.9492  0.0621  0.0957
 1017MOL0     C37204   1.361  11.028   7.905 -0.1234  0.0764 -0.6561
 1017MOL0    Cl37205   1.367  10.848   7.926  0.0074  0.3677  0.3352
 1017MOL0     C37206   0.714  10.599   8.307  1.5026 -1.3171  0.3032
 1017MOL0     C37207   0.756  10.543   8.427  0.7164 -0.1047  0.6999
 1017MOL0     O37208   1.072  10.298   8.459  1.2336  0.3818 -0.2540
 1017MOL0     C37209   1.185  10.205   8.680 -0.2889 -0.0272  0.3154
 1017MOL0     C37210   1.237  10.145   8.794 -0.5871 -0.9750 -0.3477
 1017MOL0     N37211   1.838  10.132   9.298 -0.5393  0.1823 -0.1181
 1017MOL0     N37212   1.871  10.125   9.417  0.2677 -1.3087  0.2248
 1017MOL0     C37213   0.979  10.623   9.279  0.4841 -0.3549  0.7842
 1017MOL0     C37214   0.888  10.634   9.174 -0.6182  0.6488 -0.7055
 1017MOL0     C37215   0.526  10.804   8.922 -0.1971 -0.7943  0.1096
 1017MOL0     C37216   0.390  10.853   8.907 -0.7189  0.2910 -0.2877
 1017MOL0     C37217   0.316  10.827   8.791 -0.2993 -0.8332  0.6627
 1017MOL0     C37218   0.370  10.765   8.682 -0.2078 -0.5143  0.4701
 1017MOL0     O37219   0.303  10.743   8.565  0.4259 -0.1539 -0.7439
 1017MOL0     C37220   0.162  10.755   8.563  0.0287  0.3825  0.3093
 1017MOL0     C37221   0.117  10.744   8.415  0.9670  0.3586 -0.7088
 1017MOL0     C37222   0.131  10.602   8.359 -0.2676 -0.2079  0.0187
 1017MOL0     C37223   0.258  10.584   8.277  0.0268  0.7080 -0.2214
 1017MOL0     C37224   0.291  10.678   8.168 -0.6108 -0.0494 -0.5078
 1017MOL0     C37225   0.321  10.757   8.080  0.6039  0.3434 -0.1959
 1017MOL0     C37226   0.502  10.719   8.688  0.0763  1.0761  0.7765
 1017MOL0     C37227   0.583  10.732   8.807  0.4707 -1.0444 -0.5482
 1017MOL0     H37228   0.809  10.969   9.231  3.4348  1.8822  2.0014
 1017MOL0     H37229   0.946  10.932   9.411  1.0465 -0.4617  0.5939
 1017MOL0     H37230   1.161  10.535   9.468  0.9977 -0.5121  1.0138
 1017MOL0     H37231   1.254  10.647   9.368 -0.4522  3.0325  1.2167
 1017MOL0     H37232   1.306  10.792   9.557  1.9894  0.1428 -1.5955
 1017MOL0     H37233   1.238  10.675   9.669  1.0427 -1.1329  0.6751
 1017MOL0     H37234   1.428  10.534   9.494  0.6752  0.6995 -1.1657
 1017MOL0     H37235   1.515  10.668   9.520  2.3025 -4.2570 -0.2362
 1017MOL0     H37236   1.527  10.646   9.749 -1.0989  1.1174 -0.9103
 1017MOL0     H37237   1.395  10.534   9.778  0.7729 -1.1191 -0.2993
 1017MOL0     H37238   1.581  10.411   9.804 -2.7626  0.8946  0.8220
 1017MOL0     H37239   1.530  10.353   9.648  0.6442 -1.1722  1.0712
 1017MOL0     H37240   1.701  10.467   9.533  1.5359 -0.4556 -0.4975
 1017MOL0     H37241   1.730  10.583   9.658 -1.1700  0.2676  0.0006
 1017MOL0     H37242   1.908  10.422   9.664  0.1331  1.0028  1.6058
 1017MOL0     H37243   1.804  10.378   9.799 -1.2255  1.7224  0.1292
 1017MOL0     H37244   1.716  10.174   9.672  1.6238 -1.8165  0.8642
 1017MOL0     H37245   1.888  10.179   9.677 -0.1104 -0.1682  0.8224
 1017MOL0     H37246   1.605  10.325   9.418  0.2760  1.3324  1.0484
 1017MOL0     H37247   1.594  10.304   9.137  0.1792 -0.3944  0.1354
 1017MOL0     H37248   1.702  10.189   9.060 -1.3106 -0.6439 -0.4409
 1017MOL0     H37249   1.510  10.079   9.246 -0.3336  0.6979  0.1167
 1017MOL0     H37250   1.601  10.001   9.111 -2.8048  0.1317 -3.5753
 1017MOL0     H37251   1.484  10.148   8.942 -4.4251 -0.4200 -1.7741
 1017MOL0     H37252   1.403  10.223   9.072 -0.3012 -0.8287  1.0287
 1017MOL0     H37253   1.329   9.955   9.138 -0.0890  1.4134  0.6281
 1017MOL0     H37254   1.346   9.956   8.956 -3.8540  0.4177 -0.7793
 1017MOL0     H37255   0.988  10.176   9.006 -0.0038 -0.2933 -0.8441
 1017MOL0     H37256   0.777  10.265   8.893  1.0284  3.3889  2.6365
 1017MOL0     H37257   0.843  10.421   8.856  2.1939  1.2964 -1.6679
 1017MOL0     H37258   0.791  10.309   8.723 -1.6784  2.0134  0.9040
 1017MOL0     H37259   1.087  10.527   8.372 -0.5555 -1.6357 -1.0813
 1017MOL0     H37260   1.009  10.632   8.161 -0.6588 -0.8325  0.4534
 1017MOL0     H37261   0.588  10.774   8.140 -1.1925  2.0864 -2.1575
 1017MOL0     H37262   0.724  10.873   8.189  0.7168  0.2028 -1.4663
 1017MOL0     H37263   0.665  10.819   7.902  3.4174 -0.1077 -0.1516
 1017MOL0     H37264   0.593  10.956   7.996  0.3395  0.2483 -0.5079
 1017MOL0     H37265   0.895  10.900   8.008 -0.1052 -0.4812 -0.3045
 1017MOL0     H37266   0.827  11.056   8.028 -0.7148  0.8174 -0.3732
 1017MOL0     H37267   0.865  10.890   7.778 -0.9803  0.8955 -0.8968
 1017MOL0     H37268   0.767  11.031   7.760 -0.7090 -0.1705 -2.0783
 1017MOL0     H37269   0.972  11.175   7.859  1.5803  0.8163 -0.4334
 1017MOL0     H37270   0.998  11.097   7.710  0.8040  2.7696 -0.2026
 1017MOL0     H37271   1.116  11.001   7.989 -0.5596 -1.2353 -0.5157
 1017MOL0     H37272   1.102  10.901   7.850  0.9599  0.3496 -0.2014
 1017MOL0     H37273   1.238  11.180   7.818  1.6066  0.1091  0.9154
 1017MOL0     H37274   1.255  11.031   7.720  0.4198 -1.1736  0.4804
 1017MOL0     H37275   1.344  11.076   8.002 -0.5719  1.2134 -1.2747
 1017MOL0     H37276   1.458  11.059   7.865 -0.8475  1.6910 -1.2654
 1017MOL0     H37277   0.608  10.621   8.313  2.0326  1.0781  2.6086
 1017MOL0     H37278   0.675  10.526   8.498  0.6975 -2.4353  0.1854
 1017MOL0     H37279   1.244  10.210   8.589  0.5745 -0.3916  0.8448
 1017MOL0     H37280   1.333  10.107   8.761 -0.2701  0.4208 -1.1099
 1017MOL0     H37281   1.035  10.530   9.277 -1.0378 -1.3426 -1.3757
 1017MOL0     H37282   0.867  10.545   9.115  3.0774 -1.7632  1.2527
 1017MOL0     H37283   0.345  10.895   8.996 -0.5643 -4.2939  2.3049
 1017MOL0     H37284   0.218  10.874   8.788  0.8962  1.8405 -0.3724
 1017MOL0     H37285   0.125  10.667   8.617  3.8006 -1.4944  0.2340
 1017MOL0     H37286   0.131  10.853   8.600  1.1113  1.4763 -1.5160
 1017MOL0     H37287   0.193  10.802   8.362  1.3874 -1.3068 -1.9885
 1017MOL0     H37288   0.016  10.785   8.400  0.8859 -0.5322 -2.8713
 1017MOL0     H37289   0.042  10.583   8.300  1.4872  0.6941 -3.1691
 1017MOL0     H37290   0.132  10.531   8.442 -1.5802 -0.6313 -0.3046
 1017MOL0     H37291   0.247  10.490   8.223 -0.0505  0.5484  0.0735
 1017MOL0     H37292   0.352  10.587   8.334  0.4187  1.0492 -0.8712
 1017MOL0     H37293   0.353  10.826   8.005  0.1416 -0.1529 -0.8628
 1017MOL0     H37294   0.548  10.682   8.597 -1.9186 -1.6245  0.7526
 1017MOL0     H37295   0.682  10.689   8.792  0.4806 -1.2966  0.2187
 1018MOL0     O37296   4.596  10.800   6.318  0.0728  0.2186 -0.0507
 1018MOL0     C37297   4.689  10.746   6.267 -0.6730 -0.2372  1.0035
 1018MOL0     O37298   4.701  10.719   6.135 -0.2438 -0.2996 -0.2732
 1018MOL0     C37299   4.606  10.776   6.055  0.3845  0.3014  0.0320
 1018MOL0     C37300   4.609  10.909   6.024  0.1270 -0.4962 -0.5510
 1018MOL0     C37301   4.512  10.954   5.942 -0.7568 -0.0346  0.1662
 1018MOL0     C37302   4.408  10.877   5.888 -0.7105  0.2163  0.9461
 1018MOL0     O37303   4.302  10.937   5.827 -0.1051  0.0334  0.0536
 1018MOL0     C37304   4.341  10.972   5.696  0.0434 -1.1764  0.3969
 1018MOL0     C37305   4.239  11.070   5.633  0.5240  0.0635 -0.4780
 1018MOL0     C37306   4.289  11.132   5.507 -0.3210  0.6860 -0.8100
 1018MOL0     C37307   4.195  11.211   5.429  0.0755 -0.2003  0.4128
 1018MOL0     C37308   4.265  11.298   5.325 -0.6438  0.0285  0.4838
 1018MOL0     C37309   4.183  11.387   5.234  0.1504 -1.1680  0.1037
 1018MOL0     C37310   4.256  11.482   5.133 -0.1836  0.3614 -0.6828
 1018MOL0     C37311   4.158  11.587   5.077  0.3712 -0.0871 -0.3226
 1018MOL0     N37312   4.075  11.523   4.975  0.1972 -0.1652  0.4716
 1018MOL0     C37313   4.129  11.443   4.875 -0.3123 -0.4497  0.5276
 1018MOL0     C37314   4.021  11.420   4.797  0.1169  0.0399  0.4613
 1018MOL0     C37315   4.027  11.329   4.681 -0.6232 -0.0655 -0.7255
 1018MOL0     C37316   3.949  11.412   4.571  0.8150  0.5705  0.3505
 1018MOL0     C37317   3.981  11.376   4.426  0.5542  0.0721  0.1995
 1018MOL0     C37318   3.920  11.475   4.331  0.4146  0.5659  0.5429
 1018MOL0     O37319   3.933  11.439   4.185 -0.0396  0.1801 -0.2681
 1018MOL0     C37320   3.828  11.386   4.106  0.6583  0.6155 -0.4384
 1018MOL0     C37321   3.858  11.310   3.988  0.2181 -0.5666 -0.3994
 1018MOL0     C37322   3.755  11.272   3.898 -0.5250  0.0303 -0.2064
 1018MOL0     C37323   3.807  11.203   3.771 -1.0173 -0.0298  0.0789
 1018MOL0     C37324   3.623  11.311   3.918 -0.1948  0.3228  0.4511
 1018MOL0     C37325   3.510  11.271   3.828  0.2789  0.1872 -0.0427
 1018MOL0     O37326   3.383  11.273   3.880 -0.8344 -0.0704 -0.4909
 1018MOL0     C37327   3.266  11.247   3.805  0.1041  0.0178  0.3199
 1018MOL0     C37328   3.144  11.226   3.875 -0.2795 -0.2072 -0.6151
 1018MOL0     C37329   3.021  11.203   3.807  0.2085 -0.7096 -0.1265
 1018MOL0     C37330   3.019  11.189   3.666  0.2249 -0.2403  0.2078
 1018MOL0     O37331   2.900  11.144   3.612  0.1159  0.0381 -0.1537
 1018MOL0     C37332   2.863  11.229   3.498 -0.0334 -0.4336 -0.6853
 1018MOL0     C37333   2.735  11.181   3.436  1.1499 -0.2521  0.1740
 1018MOL0     C37334   2.700  11.265   3.314  0.6912 -1.0634 -0.4404
 1018MOL0     C37335   2.598  11.196   3.222  0.4190  0.4358 -0.3250
 1018MOL0     C37336   2.456  11.230   3.293 -1.6539  0.3179  0.3196
 1018MOL0     C37337   2.343  11.173   3.211  0.3373  0.2192 -0.7126
 1018MOL0     C37338   2.311  11.023   3.237 -0.3168 -0.1302 -0.2618
 1018MOL0     C37339   2.162  10.991   3.255  0.9570  1.1537 -0.1875
 1018MOL0    Cl37340   2.142  10.825   3.309 -0.0712  0.2051  0.1959
 1018MOL0     C37341   3.137  11.212   3.595 -0.3638 -0.3539  0.5677
 1018MOL0     C37342   3.257  11.236   3.663 -0.7237  0.1652 -0.1252
 1018MOL0     O37343   3.533  11.253   3.709 -0.2589  0.4640 -0.2746
 1018MOL0     C37344   3.592  11.389   4.028  0.1040  0.1297 -0.2797
 1018MOL0     C37345   3.689  11.406   4.130 -0.3921 -0.5482 -0.1817
 1018MOL0     N37346   3.913  11.489   4.841  0.4443 -0.3324 -0.0316
 1018MOL0     N37347   3.944  11.545   4.955 -0.7726  1.0526 -0.0290
 1018MOL0     C37348   4.410  10.738   5.916  0.0044  0.3273 -0.2456
 1018MOL0     C37349   4.519  10.689   5.988 -0.2627 -0.6479 -0.7361
 1018MOL0     C37350   4.796  10.707   6.359 -0.0463  0.0326 -0.2022
 1018MOL0     C37351   4.825  10.781   6.481  0.1154 -0.0830 -0.1427
 1018MOL0     C37352   4.931  10.741   6.559 -0.4335  0.2522 -0.5889
 1018MOL0     C37353   5.035  10.657   6.507  0.4461  0.0379  0.3939
 1018MOL0     O37354   5.147  10.619   6.564  0.5030 -1.1574 -0.5143
 1018MOL0     C37355   5.188  10.680   6.690  0.3829  0.7465 -0.3585
 1018MOL0     C37356   5.327  10.624   6.717  0.2049 -0.1100 -0.4697
 1018MOL0     C37357   5.386  10.678   6.849 -0.4279 -0.6396  0.6313
 1018MOL0     C37358   5.514  10.597   6.883  0.0217 -0.6557  0.4862
 1018MOL0     C37359   5.568  10.617   7.022 -0.5500  0.0292  0.5150
 1018MOL0     C37360   5.623  10.643   7.130  0.6166 -0.3996 -0.4752
 1018MOL0     C37361   5.015  10.587   6.380  0.8154 -0.9928 -1.1200
 1018MOL0     C37362   4.898  10.618   6.310  0.9302 -0.5000  0.4941
 1018MOL0     H37363   4.664  10.979   6.086 -0.7601 -2.3259  2.4940
 1018MOL0     H37364   4.517  11.062   5.938  2.6911 -0.0479  0.6559
 1018MOL0     H37365   4.439  11.021   5.688 -0.6808 -0.0311 -2.6264
 1018MOL0     H37366   4.356  10.879   5.642  0.7964 -0.1428 -1.2585
 1018MOL0     H37367   4.147  11.015   5.611  0.6601 -0.0859 -0.6703
 1018MOL0     H37368   4.223  11.158   5.697  1.6311  1.6299 -2.2500
 1018MOL0     H37369   4.365  11.203   5.542  1.3902 -1.4994  0.2072
 1018MOL0     H37370   4.336  11.061   5.437 -0.0468  2.4477 -2.5055
 1018MOL0     H37371   4.120  11.154   5.373  1.0453 -0.2596 -0.8645
 1018MOL0     H37372   4.141  11.276   5.498 -1.8608 -4.0931  2.9628
 1018MOL0     H37373   4.337  11.365   5.374 -2.0721  3.3821 -1.6689
 1018MOL0     H37374   4.321  11.232   5.258  1.1061  0.9150  1.0099
 1018MOL0     H37375   4.117  11.326   5.172  1.1817 -0.7203 -1.5030
 1018MOL0     H37376   4.127  11.452   5.303  1.7818  2.8745 -2.0227
 1018MOL0     H37377   4.334  11.537   5.187 -1.4470 -1.5463  3.5385
 1018MOL0     H37378   4.299  11.417   5.056  2.5289 -2.0707  2.5708
 1018MOL0     H37379   4.199  11.680   5.037 -1.3023  2.2073  2.8680
 1018MOL0     H37380   4.094  11.628   5.155 -1.4478 -2.4291 -0.4681
 1018MOL0     H37381   4.232  11.409   4.861 -0.3103 -1.3394  2.4694
 1018MOL0     H37382   4.132  11.318   4.653 -0.3367  0.4886  0.0990
 1018MOL0     H37383   3.979  11.233   4.701 -2.8486  0.9614 -0.7801
 1018MOL0     H37384   3.961  11.521   4.575  2.7609  0.5112 -1.5860
 1018MOL0     H37385   3.843  11.391   4.584  1.0667 -0.6388  0.5410
 1018MOL0     H37386   3.946  11.275   4.401 -0.8757 -0.2485  3.0591
 1018MOL0     H37387   4.089  11.383   4.407 -0.0213 -0.8971 -4.3831
 1018MOL0     H37388   3.977  11.569   4.335  0.6542  0.4291  0.3318
 1018MOL0     H37389   3.814  11.496   4.351 -0.5432 -2.8932 -0.2808
 1018MOL0     H37390   3.961  11.287   3.962 -0.0681 -0.0133 -2.1684
 1018MOL0     H37391   3.800  11.272   3.686 -4.6335 -1.1495 -0.7152
 1018MOL0     H37392   3.911  11.169   3.774 -1.3264 -1.0508 -0.3524
 1018MOL0     H37393   3.751  11.109   3.771 -1.0342 -0.0378  1.2516
 1018MOL0     H37394   3.164  11.243   3.980  1.6316  1.6772 -1.1947
 1018MOL0     H37395   2.927  11.202   3.861  0.4590  1.4904  0.4434
 1018MOL0     H37396   2.863  11.335   3.526 -0.2014 -0.1204 -1.8328
 1018MOL0     H37397   2.942  11.222   3.424  0.1357  3.3458 -1.0666
 1018MOL0     H37398   2.753  11.077   3.407  2.9334  0.6970 -2.5888
 1018MOL0     H37399   2.653  11.193   3.507 -0.0415  3.2303 -1.5422
 1018MOL0     H37400   2.790  11.277   3.253  1.8055 -0.2464  1.2662
 1018MOL0     H37401   2.656  11.362   3.339  2.0350 -0.0690 -1.7134
 1018MOL0     H37402   2.607  11.232   3.119 -0.7536  1.5302 -0.0763
 1018MOL0     H37403   2.617  11.089   3.212 -1.3309  0.1635 -1.2224
 1018MOL0     H37404   2.442  11.338   3.294 -1.1964  0.3819  0.3297
 1018MOL0     H37405   2.461  11.188   3.394 -0.4989 -0.5752 -0.0749
 1018MOL0     H37406   2.253  11.233   3.227 -0.8165 -0.4031 -4.0402
 1018MOL0     H37407   2.365  11.187   3.105 -0.6625  0.3655 -0.9158
 1018MOL0     H37408   2.348  10.981   3.331  1.3343 -0.8391 -1.1886
 1018MOL0     H37409   2.357  10.974   3.150  0.3622  1.8664 -1.0986
 1018MOL0     H37410   2.105  11.003   3.163 -1.1578  0.7190  1.0064
 1018MOL0     H37411   2.105  11.050   3.328 -0.7049 -0.2445 -0.3016
 1018MOL0     H37412   3.131  11.209   3.487 -1.0458  2.1335  0.4862
 1018MOL0     H37413   3.341  11.257   3.597 -0.3717  1.4530  0.7071
 1018MOL0     H37414   3.496  11.435   4.052 -0.4449 -1.1416  0.0176
 1018MOL0     H37415   3.662  11.458   4.222  3.0833  0.3496  0.4808
 1018MOL0     H37416   4.334  10.668   5.882  1.2541 -1.1290 -0.1694
 1018MOL0     H37417   4.515  10.583   6.015 -0.3031 -0.4096  0.2328
 1018MOL0     H37418   4.749  10.854   6.507  1.2184  0.8168  0.6340
 1018MOL0     H37419   4.929  10.788   6.656  0.4309  0.7639 -0.8029
 1018MOL0     H37420   5.188  10.789   6.676  3.7850  0.9247  0.0375
 1018MOL0     H37421   5.134  10.653   6.781  1.8184 -0.3345  0.2060
 1018MOL0     H37422   5.379  10.659   6.628  0.1692  0.9178 -0.1053
 1018MOL0     H37423   5.316  10.516   6.723 -2.3354  0.1061 -0.0284
 1018MOL0     H37424   5.310  10.671   6.928 -1.8360 -0.1102 -0.6305
 1018MOL0     H37425   5.406  10.785   6.839  2.6684 -1.2041 -0.1982
 1018MOL0     H37426   5.595  10.618   6.812 -1.9503  0.5332 -1.5485
 1018MOL0     H37427   5.488  10.491   6.877  1.1291 -0.8573 -2.4961
 1018MOL0     H37428   5.664  10.665   7.227  1.2624  2.6387 -1.3364
 1018MOL0     H37429   5.086  10.514   6.343  2.0743 -0.8623  0.8873
 1018MOL0     H37430   4.866  10.574   6.216  1.2250  2.8103 -1.3367
 1019MOL0     O37431   2.857   5.664   6.359  0.3295 -0.0843 -0.1397
 1019MOL0     C37432   2.914   5.675   6.249  0.3344  0.5553  0.3594
 1019MOL0     O37433   2.865   5.639   6.134  0.4516 -0.1345  0.2147
 1019MOL0     C37434   2.748   5.575   6.122  0.2170  0.2859  0.2298
 1019MOL0     C37435   2.630   5.622   6.178  0.1062 -0.7529 -0.1330
 1019MOL0     C37436   2.510   5.544   6.160  0.9575  0.3167  0.2314
 1019MOL0     C37437   2.519   5.426   6.089 -0.3212 -0.4560  0.1527
 1019MOL0     O37438   2.406   5.351   6.070 -0.4792  0.4952 -0.1728
 1019MOL0     C37439   2.429   5.199   6.059 -0.3773 -0.0891 -0.4260
 1019MOL0     C37440   2.297   5.125   6.072 -0.3675 -0.9172  0.8307
 1019MOL0     C37441   2.300   4.997   6.004 -0.1367  0.1326  0.6803
 1019MOL0     C37442   2.292   4.886   6.101 -0.8765 -0.7300 -0.0890
 1019MOL0     C37443   2.295   4.747   6.023 -0.0538  0.6727  0.2199
 1019MOL0     C37444   2.308   4.639   6.121 -0.0501 -0.2233 -0.3892
 1019MOL0     C37445   2.348   4.500   6.054  0.0969  0.6154  0.2860
 1019MOL0     C37446   2.284   4.465   5.914 -0.0813  0.6291 -0.2765
 1019MOL0     N37447   2.331   4.328   5.881 -0.1917  1.1629 -0.3672
 1019MOL0     C37448   2.319   4.218   5.967  0.4881  0.5121  0.6566
 1019MOL0     C37449   2.384   4.115   5.916  0.0412  0.1333 -0.2173
 1019MOL0     C37450   2.364   3.976   5.974 -0.5468 -0.0871 -0.9070
 1019MOL0     C37451   2.498   3.922   6.030  0.0533 -1.3858 -0.1273
 1019MOL0     C37452   2.611   3.917   5.929  0.3957  0.5155 -0.0497
 1019MOL0     C37453   2.731   3.832   5.966  0.1545  0.8777 -0.4898
 1019MOL0     O37454   2.835   3.851   5.875 -0.2460  0.0959 -0.1927
 1019MOL0     C37455   2.929   3.745   5.866 -0.3768  0.3284 -0.5982
 1019MOL0     C37456   2.948   3.659   5.972 -0.2118  0.2531  0.4136
 1019MOL0     C37457   3.027   3.543   5.964 -0.0048  0.5581 -1.1871
 1019MOL0     C37458   3.020   3.446   6.080 -0.0075 -0.5818 -0.3262
 1019MOL0     C37459   3.100   3.520   5.847 -0.3310  0.5265 -0.1805
 1019MOL0     C37460   3.199   3.406   5.832  0.5221  0.3029  0.1201
 1019MOL0     O37461   3.248   3.347   5.941  0.0077 -0.3065  1.1657
 1019MOL0     C37462   3.353   3.260   5.940 -0.7178 -0.7681 -0.5531
 1019MOL0     C37463   3.474   3.297   5.878  0.9369  0.5552  0.1463
 1019MOL0     C37464   3.575   3.207   5.874 -0.2622 -0.3749 -0.5178
 1019MOL0     C37465   3.568   3.078   5.940  0.5886 -0.0256 -0.7418
 1019MOL0     O37466   3.664   2.984   5.948 -0.4143 -0.0244  0.8517
 1019MOL0     C37467   3.801   3.027   5.938  0.2314  0.1848  0.2788
 1019MOL0     C37468   3.854   3.009   5.794  0.1775  1.2957 -0.7670
 1019MOL0     C37469   3.977   3.097   5.761 -0.1176 -0.1254  0.5062
 1019MOL0     C37470   4.018   3.074   5.612 -0.4944  0.5233  0.3993
 1019MOL0     C37471   4.114   2.954   5.597  0.2172 -0.8072 -0.8850
 1019MOL0     C37472   4.190   2.941   5.468  0.2503 -0.2362 -0.0327
 1019MOL0     C37473   4.261   3.065   5.417 -0.6591 -0.0103  0.1686
 1019MOL0     C37474   4.417   3.039   5.401  0.3683  0.2989 -0.4834
 1019MOL0    Cl37475   4.444   2.940   5.261  0.2728  0.1436  0.1423
 1019MOL0     C37476   3.446   3.043   5.999  0.1400  0.6432 -0.8880
 1019MOL0     C37477   3.343   3.136   5.998  0.7079 -0.4504 -0.8091
 1019MOL0     O37478   3.229   3.378   5.718  0.3100 -0.0284 -0.3200
 1019MOL0     C37479   3.090   3.617   5.743  0.4204  0.3505 -0.6135
 1019MOL0     C37480   2.999   3.720   5.753  0.2872 -0.1523  0.8771
 1019MOL0     N37481   2.449   4.162   5.800  0.2316  0.4164  0.4365
 1019MOL0     N37482   2.415   4.285   5.784 -0.2916 -0.4608  0.3340
 1019MOL0     C37483   2.640   5.391   6.024 -0.2023  0.5007  1.1151
 1019MOL0     C37484   2.755   5.463   6.044  0.2731  0.8294  0.9406
 1019MOL0     C37485   3.055   5.726   6.258  0.7125  0.1615 -0.8869
 1019MOL0     C37486   3.094   5.783   6.381  0.2061  0.3548  0.7627
 1019MOL0     C37487   3.226   5.827   6.393 -0.0331 -0.3959 -0.0323
 1019MOL0     C37488   3.329   5.807   6.295  0.0648 -0.3191  0.0331
 1019MOL0     O37489   3.457   5.856   6.302  0.3748  0.0706 -0.1361
 1019MOL0     C37490   3.502   5.916   6.428  0.3372  0.0693  0.9353
 1019MOL0     C37491   3.653   5.940   6.430  0.4726 -0.5927  0.1137
 1019MOL0     C37492   3.704   6.030   6.312  0.7996  0.3477 -0.9402
 1019MOL0     C37493   3.827   6.112   6.354 -0.1734 -0.7766 -0.3257
 1019MOL0     C37494   3.861   6.212   6.256  1.2571 -0.5540  0.4733
 1019MOL0     C37495   3.894   6.306   6.181 -0.3454 -0.2434 -0.8646
 1019MOL0     C37496   3.286   5.752   6.176 -0.0107 -0.4489  0.1752
 1019MOL0     C37497   3.158   5.711   6.158  0.7017 -0.0968 -0.5789
 1019MOL0     H37498   2.624   5.712   6.239 -2.1986 -0.3637 -0.8517
 1019MOL0     H37499   2.416   5.584   6.198  0.9995  1.3770 -0.7251
 1019MOL0     H37500   2.475   5.169   5.964  1.8196 -2.6976  1.2975
 1019MOL0     H37501   2.498   5.159   6.134  2.6750 -1.3139 -3.6156
 1019MOL0     H37502   2.269   5.125   6.178 -3.5240  0.1594  0.1071
 1019MOL0     H37503   2.227   5.185   6.013  3.0673  2.0636 -0.6051
 1019MOL0     H37504   2.216   4.982   5.936  1.2086  1.1722 -1.3197
 1019MOL0     H37505   2.383   4.976   5.936 -0.7069 -0.9182  0.2883
 1019MOL0     H37506   2.380   4.907   6.163 -0.8137  2.6296 -1.1544
 1019MOL0     H37507   2.202   4.899   6.161  1.6720  1.5274  3.7179
 1019MOL0     H37508   2.202   4.728   5.970 -0.8506 -3.2617  2.6270
 1019MOL0     H37509   2.376   4.734   5.950 -0.1124 -2.6957  0.5877
 1019MOL0     H37510   2.377   4.667   6.201 -0.9884 -1.3629  0.8929
 1019MOL0     H37511   2.211   4.619   6.170  0.6833  1.0754  1.7496
 1019MOL0     H37512   2.455   4.491   6.035  0.1989 -0.9253  1.3793
 1019MOL0     H37513   2.322   4.428   6.132 -1.4222  0.7093 -0.0999
 1019MOL0     H37514   2.311   4.534   5.835  0.1162 -1.4201 -2.1026
 1019MOL0     H37515   2.175   4.470   5.919 -0.1954 -1.6548  2.1993
 1019MOL0     H37516   2.263   4.225   6.060  2.0273  2.7605  1.5126
 1019MOL0     H37517   2.289   3.976   6.054  1.1658 -2.0412  0.8030
 1019MOL0     H37518   2.338   3.904   5.896  1.7554 -1.0797 -0.8458
 1019MOL0     H37519   2.478   3.826   6.080 -0.9754 -0.4190  1.3879
 1019MOL0     H37520   2.539   3.990   6.105 -1.3652 -1.1309  0.4497
 1019MOL0     H37521   2.641   4.021   5.916 -0.7173  1.1372  2.0286
 1019MOL0     H37522   2.570   3.893   5.830 -0.8361 -0.6831  0.7284
 1019MOL0     H37523   2.694   3.730   5.977 -0.9373  0.9267 -2.8523
 1019MOL0     H37524   2.764   3.869   6.063  3.2988 -3.3832  0.3433
 1019MOL0     H37525   2.893   3.686   6.062 -0.5272  4.2134 -0.7881
 1019MOL0     H37526   3.121   3.416   6.112 -0.6938 -1.3421  1.2175
 1019MOL0     H37527   2.966   3.486   6.166 -2.9875  0.9865 -2.7493
 1019MOL0     H37528   2.966   3.360   6.042  0.6776 -2.2608  2.2195
 1019MOL0     H37529   3.480   3.390   5.822  1.1681 -0.3654 -1.3989
 1019MOL0     H37530   3.664   3.229   5.815 -0.6157  1.9455 -0.2661
 1019MOL0     H37531   3.812   3.130   5.974 -1.9019 -0.6500  3.7060
 1019MOL0     H37532   3.851   2.952   5.999  0.3699  0.6928  0.8032
 1019MOL0     H37533   3.886   2.906   5.779 -2.7190  0.3860 -1.4263
 1019MOL0     H37534   3.771   3.021   5.723  0.0674 -1.4986 -1.2322
 1019MOL0     H37535   4.052   3.066   5.835  0.0309  2.3953  1.5044
 1019MOL0     H37536   3.965   3.202   5.787  1.4291 -0.0815  1.1177
 1019MOL0     H37537   3.930   3.057   5.549  0.4298 -0.1015 -0.7515
 1019MOL0     H37538   4.050   3.168   5.566 -0.1344  0.5164  0.6392
 1019MOL0     H37539   4.053   2.868   5.629  1.5793 -1.1262  1.0512
 1019MOL0     H37540   4.193   2.973   5.671  0.1330  3.6016 -1.6513
 1019MOL0     H37541   4.262   2.859   5.476 -1.8191 -2.6690 -3.6340
 1019MOL0     H37542   4.125   2.906   5.387 -0.0856  0.2147  0.0356
 1019MOL0     H37543   4.245   3.150   5.483 -0.9153 -0.4634  0.7038
 1019MOL0     H37544   4.212   3.092   5.323  1.2182 -2.3899 -1.6604
 1019MOL0     H37545   4.455   2.994   5.493  2.6783  3.0359  0.0408
 1019MOL0     H37546   4.477   3.130   5.385 -2.4303  2.0361 -1.9540
 1019MOL0     H37547   3.427   2.945   6.041 -1.1365  2.0848  2.1384
 1019MOL0     H37548   3.252   3.099   6.043  1.3203 -1.6083 -0.4924
 1019MOL0     H37549   3.132   3.597   5.646  0.6488 -2.9512  0.0606
 1019MOL0     H37550   2.986   3.780   5.664 -0.8003 -0.5553  0.7457
 1019MOL0     H37551   2.647   5.308   5.955  1.6350 -0.6066  2.5347
 1019MOL0     H37552   2.852   5.433   6.007  0.5981  1.2576  1.4431
 1019MOL0     H37553   3.025   5.791   6.465  0.4567 -1.6466  1.2246
 1019MOL0     H37554   3.260   5.857   6.491 -0.9969  0.3131  0.0971
 1019MOL0     H37555   3.448   6.008   6.451  1.3734  0.6187  1.1931
 1019MOL0     H37556   3.479   5.852   6.514 -1.3948 -0.0229  0.4549
 1019MOL0     H37557   3.689   5.837   6.428 -2.2816 -1.6645 -2.1297
 1019MOL0     H37558   3.671   6.003   6.517 -1.9214  2.7643 -1.5674
 1019MOL0     H37559   3.619   6.095   6.289 -0.5372 -1.2542 -0.7503
 1019MOL0     H37560   3.715   5.970   6.221 -1.3400  0.6352 -1.4410
 1019MOL0     H37561   3.914   6.046   6.365  0.3349 -0.7787 -3.3321
 1019MOL0     H37562   3.800   6.168   6.444  1.9218  0.7331 -0.5506
 1019MOL0     H37563   3.924   6.373   6.103 -3.8403  0.8840 -1.4113
 1019MOL0     H37564   3.348   5.740   6.088 -0.4902  2.3674 -0.6484
 1019MOL0     H37565   3.127   5.687   6.056  1.4810  0.2597 -0.9067
 1020MOL0     O37566   0.049   9.456   3.639  0.0063 -0.3893  0.3738
 1020MOL0     C37567   0.156   9.493   3.692  0.1826 -0.1027  0.8624
 1020MOL0     O37568   0.171   9.586   3.792  0.0241 -0.6036 -0.1570
 1020MOL0     C37569   0.053   9.642   3.836 -0.4288 -0.3427 -0.0134
 1020MOL0     C37570   0.028   9.627   3.973 -1.0519  0.4741 -0.5051
 1020MOL0     C37571  -0.098   9.665   4.019 -0.3317  1.3249 -0.2858
 1020MOL0     C37572  -0.179   9.747   3.950  0.3558  0.5600  0.0449
 1020MOL0     O37573  -0.287   9.792   4.014 -0.0330  0.3842 -0.2454
 1020MOL0     C37574  -0.409   9.779   3.956 -0.4075 -0.3883 -0.9326
 1020MOL0     C37575  -0.510   9.795   4.065  1.2705 -0.7965  0.1610
 1020MOL0     C37576  -0.661   9.779   4.026  0.4392 -0.7287 -0.9258
 1020MOL0     C37577  -0.715   9.642   4.005 -0.0001 -0.1449 -0.1679
 1020MOL0     C37578  -0.864   9.641   3.975  0.5358  0.0145  0.0578
 1020MOL0     C37579  -0.920   9.499   3.997  0.4749  0.0320 -1.1022
 1020MOL0     C37580  -0.896   9.390   3.893 -0.2617 -0.5269  0.4913
 1020MOL0     C37581  -0.924   9.428   3.754 -0.5124  0.1633 -0.9952
 1020MOL0     N37582  -0.891   9.318   3.649  0.0438 -0.3192  0.2003
 1020MOL0     C37583  -0.965   9.205   3.624 -0.2890 -0.8373 -0.0597
 1020MOL0     C37584  -0.907   9.150   3.516  0.0647  0.7277  0.0034
 1020MOL0     C37585  -0.944   9.035   3.431 -0.0018  1.5620 -0.4576
 1020MOL0     C37586  -0.850   8.912   3.465  0.6803  0.5569  0.5890
 1020MOL0     C37587  -0.861   8.804   3.358 -1.6623  0.3332  0.8326
 1020MOL0     C37588  -0.743   8.713   3.359  0.4311 -0.2877  0.6556
 1020MOL0     O37589  -0.617   8.789   3.358  0.6478 -0.5426 -0.3098
 1020MOL0     C37590  -0.504   8.717   3.355  0.2139  0.2578 -0.3793
 1020MOL0     C37591  -0.505   8.580   3.326 -0.4825  0.2721 -0.7898
 1020MOL0     C37592  -0.384   8.510   3.321  0.4230 -0.1127 -0.0594
 1020MOL0     C37593  -0.388   8.365   3.278  0.2241  0.4738 -0.0500
 1020MOL0     C37594  -0.255   8.578   3.346  0.1906  0.5583 -0.0760
 1020MOL0     C37595  -0.123   8.512   3.345 -1.1069  0.1926 -0.5247
 1020MOL0     O37596  -0.026   8.604   3.342 -1.0382 -0.0035  0.1606
 1020MOL0     C37597   0.105   8.555   3.363  0.2513 -0.2548 -0.6348
 1020MOL0     C37598   0.177   8.598   3.482  0.0073 -0.5406 -0.7317
 1020MOL0     C37599   0.310   8.550   3.511  0.0271  1.1575  1.0794
 1020MOL0     C37600   0.377   8.462   3.422  0.3663 -0.0899 -0.0493
 1020MOL0     O37601   0.505   8.415   3.448 -0.1252  0.1219 -0.2818
 1020MOL0     C37602   0.561   8.445   3.580  0.2575 -0.8547  0.1074
 1020MOL0     C37603   0.698   8.385   3.608 -0.3804  0.7877  0.0594
 1020MOL0     C37604   0.720   8.241   3.558 -0.3519  0.2196  0.8515
 1020MOL0     C37605   0.860   8.192   3.586 -0.4852  0.2779 -0.5994
 1020MOL0     C37606   0.856   8.043   3.549 -0.6603 -0.0557 -0.2049
 1020MOL0     C37607   0.984   7.977   3.598  0.7530  0.6740  0.4905
 1020MOL0     C37608   0.974   7.829   3.629  1.0775 -1.2668  0.2770
 1020MOL0     C37609   0.959   7.808   3.780 -0.7777  0.2698  0.0622
 1020MOL0    Cl37610   0.917   7.638   3.804 -0.0860 -0.2746 -0.0345
 1020MOL0     C37611   0.305   8.422   3.302 -0.4028 -0.1114 -0.3551
 1020MOL0     C37612   0.177   8.473   3.267 -0.3899 -0.0911 -0.1628
 1020MOL0     O37613  -0.115   8.390   3.367  0.9562 -0.9569  0.7820
 1020MOL0     C37614  -0.268   8.709   3.383 -0.4958  0.2567 -0.2407
 1020MOL0     C37615  -0.387   8.781   3.379  0.3825  0.4199 -0.2887
 1020MOL0     N37616  -0.812   9.230   3.473  0.1311 -0.1957 -0.2468
 1020MOL0     N37617  -0.797   9.328   3.557 -0.0954 -0.3952  0.6834
 1020MOL0     C37618  -0.144   9.771   3.813 -0.1913 -0.3959  0.5153
 1020MOL0     C37619  -0.032   9.715   3.752 -0.0935  0.1262 -0.2690
 1020MOL0     C37620   0.288   9.424   3.659 -0.4616 -0.5386 -0.7086
 1020MOL0     C37621   0.295   9.325   3.559 -0.0153 -0.5585 -0.1274
 1020MOL0     C37622   0.411   9.248   3.521  0.5534 -0.6565 -0.2599
 1020MOL0     C37623   0.525   9.282   3.602  0.2755  0.5294 -0.9371
 1020MOL0     O37624   0.651   9.238   3.568 -0.5482  0.0521  0.7245
 1020MOL0     C37625   0.677   9.161   3.452  0.2667  0.4364 -0.4248
 1020MOL0     C37626   0.827   9.104   3.460 -0.2965 -0.2942 -0.5143
 1020MOL0     C37627   0.837   8.960   3.519  0.3235 -0.5111 -0.2032
 1020MOL0     C37628   0.980   8.918   3.507  0.0592  0.7210  1.2388
 1020MOL0     C37629   0.986   8.780   3.528  0.1162  0.4731  0.2194
 1020MOL0     C37630   0.996   8.657   3.547 -0.1239  0.7909 -0.6953
 1020MOL0     C37631   0.522   9.387   3.693  0.1844 -0.5905  0.6497
 1020MOL0     C37632   0.407   9.465   3.721 -0.0649  0.4382 -0.4514
 1020MOL0     H37633   0.088   9.573   4.046 -2.3640 -1.1111 -0.5302
 1020MOL0     H37634  -0.143   9.651   4.116 -1.6525  0.2486 -1.0109
 1020MOL0     H37635  -0.431   9.858   3.884 -3.4529 -2.8751 -3.0103
 1020MOL0     H37636  -0.408   9.680   3.908 -1.3972 -0.2000 -1.3461
 1020MOL0     H37637  -0.484   9.718   4.139 -0.3583 -2.0419 -0.4891
 1020MOL0     H37638  -0.499   9.899   4.098 -0.0968 -1.1136  1.7812
 1020MOL0     H37639  -0.725   9.816   4.107 -0.7672 -1.9332 -1.2889
 1020MOL0     H37640  -0.683   9.845   3.941 -1.4470  1.1405  0.8875
 1020MOL0     H37641  -0.668   9.600   3.915  1.4077  1.3853 -0.2086
 1020MOL0     H37642  -0.688   9.590   4.097  1.2633  0.7857  0.0216
 1020MOL0     H37643  -0.923   9.698   4.048 -1.3058  4.2875 -4.2562
 1020MOL0     H37644  -0.892   9.688   3.880  1.6854 -0.4839 -0.5375
 1020MOL0     H37645  -0.887   9.453   4.091 -2.3646 -1.0876 -0.5461
 1020MOL0     H37646  -1.029   9.509   4.006  0.2393 -2.7112  0.3550
 1020MOL0     H37647  -0.793   9.357   3.905  0.4810  1.3864 -0.2636
 1020MOL0     H37648  -0.972   9.318   3.925 -2.5876  1.5687  0.0757
 1020MOL0     H37649  -0.871   9.522   3.738 -0.5606  1.3183  3.9194
 1020MOL0     H37650  -1.033   9.441   3.746 -0.4044  0.6239 -1.8777
 1020MOL0     H37651  -1.055   9.173   3.676  1.3942 -1.4768  2.6461
 1020MOL0     H37652  -1.046   9.002   3.447  1.1501 -3.2264 -1.4696
 1020MOL0     H37653  -0.929   9.061   3.326  0.0779 -0.6995 -1.0502
 1020MOL0     H37654  -0.875   8.878   3.566  0.0142 -2.1791 -0.4345
 1020MOL0     H37655  -0.748   8.951   3.469  1.4246 -1.1466 -0.8154
 1020MOL0     H37656  -0.872   8.854   3.262 -0.2652  2.4852  1.7154
 1020MOL0     H37657  -0.951   8.744   3.376 -0.7193 -1.1515  0.6514
 1020MOL0     H37658  -0.759   8.659   3.265  2.2716  0.4424 -0.1342
 1020MOL0     H37659  -0.758   8.636   3.435 -1.8435 -1.0891 -0.5084
 1020MOL0     H37660  -0.596   8.522   3.315 -0.6557  0.0953  1.2903
 1020MOL0     H37661  -0.476   8.337   3.219  0.6079 -1.4804  0.2281
 1020MOL0     H37662  -0.311   8.328   3.209 -0.1769 -0.3656 -0.0507
 1020MOL0     H37663  -0.394   8.303   3.367 -0.5835 -0.0809 -0.4819
 1020MOL0     H37664   0.110   8.660   3.540 -1.2301 -1.8572 -0.6921
 1020MOL0     H37665   0.344   8.603   3.599  0.7704  2.3815  0.0910
 1020MOL0     H37666   0.569   8.554   3.586  1.1335 -1.0053  2.2266
 1020MOL0     H37667   0.504   8.398   3.660  4.5475 -4.0769  1.6193
 1020MOL0     H37668   0.768   8.451   3.556  1.7110  0.3611  2.1705
 1020MOL0     H37669   0.723   8.391   3.714 -0.8574  2.3803  0.1036
 1020MOL0     H37670   0.712   8.247   3.449 -2.6129 -0.7178  0.9121
 1020MOL0     H37671   0.639   8.181   3.600 -1.4306  0.3731 -0.9101
 1020MOL0     H37672   0.933   8.245   3.525  1.0775 -1.8363 -0.6950
 1020MOL0     H37673   0.885   8.218   3.690  1.0809 -0.6949 -0.6879
 1020MOL0     H37674   0.836   8.026   3.443 -1.5910  0.7779 -0.1765
 1020MOL0     H37675   0.779   7.997   3.612  0.5486 -0.4481  1.0422
 1020MOL0     H37676   1.061   7.991   3.521  0.8434 -2.4392 -0.1261
 1020MOL0     H37677   1.024   8.036   3.680  3.1971 -1.4064  0.9085
 1020MOL0     H37678   1.067   7.783   3.595  2.5319  1.9189 -0.3979
 1020MOL0     H37679   0.890   7.787   3.574  0.3610  3.3675 -2.6800
 1020MOL0     H37680   0.879   7.872   3.819  0.6245  2.3896 -0.3621
 1020MOL0     H37681   1.062   7.827   3.813 -2.0935  0.2158  5.0367
 1020MOL0     H37682   0.354   8.350   3.237  0.0919 -1.8524  1.8252
 1020MOL0     H37683   0.123   8.445   3.178 -1.9988  1.1808  0.3745
 1020MOL0     H37684  -0.180   8.768   3.408 -0.6016  1.4429 -2.3939
 1020MOL0     H37685  -0.388   8.886   3.403  1.6691 -0.3579  4.0166
 1020MOL0     H37686  -0.215   9.831   3.756 -0.2328  0.3069  1.3017
 1020MOL0     H37687  -0.017   9.721   3.645 -0.3980 -0.7831 -0.3734
 1020MOL0     H37688   0.204   9.294   3.507  0.1288  3.3181 -3.2432
 1020MOL0     H37689   0.393   9.171   3.447 -0.6562  1.9843 -2.8956
 1020MOL0     H37690   0.604   9.082   3.428 -0.7288  1.6500 -1.6109
 1020MOL0     H37691   0.671   9.225   3.363 -0.1492 -0.3391 -0.9733
 1020MOL0     H37692   0.879   9.173   3.526 -1.2347 -0.2517  0.2048
 1020MOL0     H37693   0.864   9.084   3.358 -2.5252 -3.4424 -0.8728
 1020MOL0     H37694   0.770   8.895   3.463 -1.6178  0.0690  1.3132
 1020MOL0     H37695   0.808   8.962   3.625  3.2945  0.2230  0.6778
 1020MOL0     H37696   1.049   8.960   3.580  0.4349  1.1322  0.6630
 1020MOL0     H37697   1.008   8.929   3.402 -1.1156 -3.9543  0.1759
 1020MOL0     H37698   1.009   8.552   3.560 -0.7495  1.0010  2.3976
 1020MOL0     H37699   0.613   9.421   3.742  1.3451 -0.3873 -1.4937
 1020MOL0     H37700   0.407   9.557   3.778 -1.5414  1.7394 -2.3956
 1021MOL0     O37701   1.215   9.506   9.304  0.1067  0.4117  0.5801
 1021MOL0     C37702   1.217   9.592   9.212  0.5490  0.5839 -0.2847
 1021MOL0     O37703   1.330   9.649   9.159 -0.2264 -0.5467 -0.3174
 1021MOL0     C37704   1.452   9.583   9.188  0.9618 -0.8102 -0.0946
 1021MOL0     C37705   1.471   9.442   9.188 -0.1214 -0.1045  0.0673
 1021MOL0     C37706   1.594   9.388   9.233  0.7550  0.1961 -1.3473
 1021MOL0     C37707   1.694   9.473   9.285 -0.0584 -0.1745  0.0774
 1021MOL0     O37708   1.810   9.408   9.330  0.4513 -0.7164 -0.1376
 1021MOL0     C37709   1.832   9.415   9.475 -0.5011 -0.2512  0.2911
 1021MOL0     C37710   1.965   9.346   9.483 -1.1518  1.1388  0.5091
 1021MOL0     C37711   2.037   9.360   9.625  0.6264 -0.5987  1.6632
 1021MOL0     C37712   2.157   9.266   9.647  0.5233  0.6644  0.2044
 1021MOL0     C37713   2.273   9.340   9.716 -0.0756  0.0341 -0.0277
 1021MOL0     C37714   2.387   9.235   9.752  0.0494 -0.3690  0.1606
 1021MOL0     C37715   2.492   9.300   9.846  0.3244  0.2030 -0.4187
 1021MOL0     C37716   2.603   9.389   9.780 -0.4948 -0.4161  0.2666
 1021MOL0     N37717   2.551   9.527   9.754  0.4845 -0.0278 -0.5736
 1021MOL0     C37718   2.507   9.622   9.850 -0.7795 -0.4722 -0.2486
 1021MOL0     C37719   2.463   9.725   9.768  0.2111  0.7472 -0.5538
 1021MOL0     C37720   2.394   9.854   9.813  0.1133  0.3089 -0.0157
 1021MOL0     C37721   2.249   9.841   9.848 -0.8197 -1.2161  0.4088
 1021MOL0     C37722   2.154   9.790   9.732 -0.0661  0.2657 -1.2973
 1021MOL0     C37723   2.015   9.804   9.780 -0.1114  0.3762 -0.0747
 1021MOL0     O37724   1.939   9.782   9.663  0.5000  0.0743 -0.0056
 1021MOL0     C37725   1.815   9.838   9.653  1.0035  1.1765 -0.1390
 1021MOL0     C37726   1.727   9.867   9.760 -0.2163 -0.2875  0.5073
 1021MOL0     C37727   1.601   9.919   9.726 -0.0948 -0.2995 -0.5565
 1021MOL0     C37728   1.507   9.946   9.843  0.4686  0.9929  0.2937
 1021MOL0     C37729   1.563   9.947   9.589 -0.4118 -0.3674 -0.6030
 1021MOL0     C37730   1.447  10.024   9.560  0.3622 -0.6333  0.3620
 1021MOL0     O37731   1.404  10.125   9.651  0.0837  0.5780 -0.3853
 1021MOL0     C37732   1.295  10.198   9.639  0.7235  0.0785 -0.0835
 1021MOL0     C37733   1.235  10.255   9.754  0.0087 -0.7278 -0.2118
 1021MOL0     C37734   1.118  10.324   9.742  0.1990 -0.7584  0.7103
 1021MOL0     C37735   1.049  10.350   9.628  0.0251  0.6186 -0.3230
 1021MOL0     O37736   0.929  10.418   9.614 -0.0068 -0.3451 -0.6002
 1021MOL0     C37737   0.880  10.483   9.731  0.2187  0.0479 -0.1903
 1021MOL0     C37738   0.731  10.529   9.703 -0.3849 -0.4175 -0.1449
 1021MOL0     C37739   0.714  10.612   9.578 -1.9067 -0.9775  0.0976
 1021MOL0     C37740   0.563  10.637   9.576  0.4722 -0.4086  0.2012
 1021MOL0     C37741   0.511  10.665   9.428  0.2838  0.7342 -1.4995
 1021MOL0     C37742   0.358  10.677   9.421 -0.2849  0.0162 -0.7064
 1021MOL0     C37743   0.308  10.697   9.280 -0.9471  0.1035  0.3896
 1021MOL0     C37744   0.156  10.689   9.280  0.1964 -0.2578  0.1845
 1021MOL0    Cl37745   0.087  10.535   9.315  0.0454  0.1896 -0.5423
 1021MOL0     C37746   1.103  10.299   9.512 -0.4202 -0.1945 -0.4478
 1021MOL0     C37747   1.232  10.234   9.518  0.7367 -0.1787 -0.0685
 1021MOL0     O37748   1.390   9.985   9.456  0.5458 -0.3180 -0.0066
 1021MOL0     C37749   1.652   9.915   9.491  1.3866 -0.5273 -0.0405
 1021MOL0     C37750   1.764   9.852   9.522 -0.7238 -0.1257 -0.1524
 1021MOL0     N37751   2.473   9.695   9.636  0.4047  0.4112 -0.0320
 1021MOL0     N37752   2.519   9.571   9.628 -0.1522  0.8118  0.2414
 1021MOL0     C37753   1.674   9.610   9.285  0.2883  0.3432 -0.8147
 1021MOL0     C37754   1.556   9.661   9.243  0.0786  0.3748  1.2539
 1021MOL0     C37755   1.082   9.630   9.150 -1.4168 -0.2513 -0.2772
 1021MOL0     C37756   1.085   9.749   9.078 -0.0106 -0.3811 -0.2100
 1021MOL0     C37757   0.963   9.790   9.021  0.6107 -0.5738 -0.6259
 1021MOL0     C37758   0.852   9.717   9.040  0.1972 -0.0888 -0.1580
 1021MOL0     O37759   0.726   9.747   8.988 -0.0310 -0.3750  0.7415
 1021MOL0     C37760   0.694   9.859   8.909 -0.0685  0.0740  0.7058
 1021MOL0     C37761   0.545   9.876   8.918  0.1787 -0.0492 -0.0316
 1021MOL0     C37762   0.481   9.978   8.825  0.2530 -0.9129  0.4015
 1021MOL0     C37763   0.419   9.921   8.696 -0.4958 -0.1542 -0.3195
 1021MOL0     C37764   0.515   9.838   8.630 -0.0415 -0.1039 -0.0263
 1021MOL0     C37765   0.597   9.768   8.573  0.2502 -0.3693  0.2488
 1021MOL0     C37766   0.854   9.592   9.114 -0.1215  0.0625 -0.3687
 1021MOL0     C37767   0.970   9.554   9.176 -0.2193  0.8516 -0.8965
 1021MOL0     H37768   1.395   9.377   9.145 -1.0452  1.7303 -1.1967
 1021MOL0     H37769   1.622   9.283   9.231 -1.5646 -0.5700  1.1119
 1021MOL0     H37770   1.843   9.514   9.520  2.1816 -2.3212  4.9664
 1021MOL0     H37771   1.754   9.362   9.531 -1.6465 -0.7207 -1.6389
 1021MOL0     H37772   1.954   9.239   9.463 -1.0146  1.4433 -1.2955
 1021MOL0     H37773   2.037   9.382   9.409 -3.2688  1.3216 -1.5653
 1021MOL0     H37774   2.063   9.466   9.633 -3.5155  0.5961  1.2319
 1021MOL0     H37775   1.965   9.340   9.706  1.5336 -3.6603  1.8567
 1021MOL0     H37776   2.114   9.191   9.714 -3.2440  0.8983 -1.6906
 1021MOL0     H37777   2.175   9.223   9.548 -3.4485  1.9231 -1.2932
 1021MOL0     H37778   2.311   9.419   9.651 -1.5288  1.9786  1.4020
 1021MOL0     H37779   2.238   9.396   9.803 -1.5600  0.0020 -0.5790
 1021MOL0     H37780   2.336   9.158   9.811  1.2806 -0.4035  1.2227
 1021MOL0     H37781   2.437   9.187   9.668  2.5887 -0.5039  1.6372
 1021MOL0     H37782   2.448   9.333   9.940  1.4715 -0.7069  0.4650
 1021MOL0     H37783   2.551   9.220   9.892  0.5875  1.5353  1.6977
 1021MOL0     H37784   2.625   9.348   9.681  1.4644 -2.5001  1.4652
 1021MOL0     H37785   2.696   9.400   9.836 -1.8388  3.2232  2.0980
 1021MOL0     H37786   2.509   9.610   9.957  1.6703 -1.9827 -0.4026
 1021MOL0     H37787   2.447   9.877   9.906  1.8906 -2.9808 -0.0351
 1021MOL0     H37788   2.416   9.938   9.748  0.3940  2.2618  2.4646
 1021MOL0     H37789   2.234   9.946   9.875  4.2027 -0.0316 -0.3916
 1021MOL0     H37790   2.246   9.778   9.938  4.4081 -0.6057  1.3560
 1021MOL0     H37791   2.172   9.683   9.715  2.8617  0.1764  1.4688
 1021MOL0     H37792   2.174   9.853   9.644 -0.7852  4.7988  1.4633
 1021MOL0     H37793   1.998   9.901   9.826  1.5424  1.4059 -1.5133
 1021MOL0     H37794   1.994   9.719   9.846 -0.8230  0.1679 -0.5529
 1021MOL0     H37795   1.739   9.851   9.867 -3.5809 -1.4854  0.8352
 1021MOL0     H37796   1.522  10.046   9.885 -0.6063  1.6036 -0.7208
 1021MOL0     H37797   1.405   9.940   9.805  0.6110  2.1011 -0.3152
 1021MOL0     H37798   1.507   9.864   9.915 -0.8259  0.2912 -0.4836
 1021MOL0     H37799   1.275  10.252   9.855 -2.6420  0.5313  0.9784
 1021MOL0     H37800   1.082  10.362   9.838  1.2009  1.0870  0.4078
 1021MOL0     H37801   0.873  10.419   9.819 -3.2866  0.6174  0.1200
 1021MOL0     H37802   0.939  10.575   9.731  1.4084 -0.6977 -0.5998
 1021MOL0     H37803   0.667  10.441   9.698  0.5133 -1.3244  2.5874
 1021MOL0     H37804   0.694  10.592   9.784  0.9220  0.3502 -0.1072
 1021MOL0     H37805   0.753  10.564   9.488  1.5338  2.2521 -0.4076
 1021MOL0     H37806   0.759  10.710   9.596 -2.8583  0.2039 -3.2824
 1021MOL0     H37807   0.513  10.543   9.602  2.6150 -1.8024 -0.3486
 1021MOL0     H37808   0.528  10.720   9.637  1.1689 -0.0466  0.1202
 1021MOL0     H37809   0.526  10.576   9.367 -0.8709  0.7178 -1.7779
 1021MOL0     H37810   0.574  10.742   9.382  4.0399 -2.5320 -2.3837
 1021MOL0     H37811   0.315  10.586   9.466  0.0634  0.1826 -0.0234
 1021MOL0     H37812   0.336  10.759   9.489  0.2675 -0.3589 -0.0635
 1021MOL0     H37813   0.347  10.619   9.214 -4.5296  0.0891 -2.0360
 1021MOL0     H37814   0.349  10.788   9.237  6.1091 -3.9521 -3.2776
 1021MOL0     H37815   0.131  10.725   9.180 -0.8715 -3.2425 -0.7384
 1021MOL0     H37816   0.117  10.762   9.352  2.2173  0.5758  0.5032
 1021MOL0     H37817   1.060  10.316   9.414  2.5233 -1.4191 -2.0756
 1021MOL0     H37818   1.263  10.213   9.416  0.9785  1.8711 -0.4702
 1021MOL0     H37819   1.629   9.931   9.386 -2.3995  0.4265  0.7734
 1021MOL0     H37820   1.833   9.827   9.442 -0.6830  1.3802 -0.6198
 1021MOL0     H37821   1.755   9.678   9.310  0.9521 -0.5826 -0.3944
 1021MOL0     H37822   1.544   9.769   9.243  3.7671  0.9889 -1.9115
 1021MOL0     H37823   1.168   9.812   9.049 -0.9183 -0.4925 -3.5175
 1021MOL0     H37824   0.954   9.882   8.965 -1.1739  0.3933  1.1294
 1021MOL0     H37825   0.745   9.944   8.955  1.6952  0.5093 -1.8846
 1021MOL0     H37826   0.721   9.829   8.808 -1.1301 -4.3849  1.5399
 1021MOL0     H37827   0.515   9.901   9.020 -2.7051 -4.7883  0.5308
 1021MOL0     H37828   0.501   9.778   8.900 -0.0208  0.3129 -1.6601
 1021MOL0     H37829   0.562  10.046   8.796 -1.6388  1.5718  0.6557
 1021MOL0     H37830   0.415  10.046   8.880  0.2676  0.1907 -0.8851
 1021MOL0     H37831   0.391   9.998   8.623  0.7442 -0.3413 -1.0057
 1021MOL0     H37832   0.333   9.857   8.720 -0.5358  0.9643  3.0869
 1021MOL0     H37833   0.678   9.712   8.531  2.3284  3.1236 -0.8764
 1021MOL0     H37834   0.769   9.526   9.123  0.5121 -0.5698  1.6870
 1021MOL0     H37835   0.987   9.463   9.232 -0.7183  1.4706  0.3026
 1022MOL0     O37836   9.004   2.441   9.835  0.0166  0.9609  0.4949
 1022MOL0     C37837   9.061   2.509   9.751  0.4508  0.7348  0.5108
 1022MOL0     O37838   9.001   2.595   9.657 -0.0571  0.1330  0.4221
 1022MOL0     C37839   8.868   2.621   9.668 -0.5610  0.4155  1.0323
 1022MOL0     C37840   8.803   2.666   9.787  0.5178 -0.6022  0.5911
 1022MOL0     C37841   8.666   2.703   9.775 -0.2373  0.6392 -0.3418
 1022MOL0     C37842   8.599   2.704   9.657  0.2046 -0.1793  1.2685
 1022MOL0     O37843   8.468   2.739   9.637  0.5287 -0.6720 -0.1849
 1022MOL0     C37844   8.369   2.672   9.719  0.3543 -1.1104  0.4143
 1022MOL0     C37845   8.238   2.696   9.652  0.3891 -0.2046 -0.7191
 1022MOL0     C37846   8.117   2.679   9.751 -0.3070 -0.6715  0.8607
 1022MOL0     C37847   7.995   2.682   9.654  0.1405 -0.3956 -0.3764
 1022MOL0     C37848   7.862   2.691   9.730  0.1510  0.1024  0.6518
 1022MOL0     C37849   7.762   2.681   9.613 -0.3165 -0.4243  0.0326
 1022MOL0     C37850   7.612   2.713   9.652 -0.2688 -0.6466 -0.1698
 1022MOL0     C37851   7.514   2.675   9.541  1.0023 -0.3547 -0.4719
 1022MOL0     N37852   7.385   2.729   9.595 -0.1742  0.6705 -0.0200
 1022MOL0     C37853   7.289   2.658   9.667 -0.0641  0.2697  0.4394
 1022MOL0     C37854   7.182   2.741   9.663 -0.1855  0.3514 -0.4114
 1022MOL0     C37855   7.051   2.689   9.723 -0.0592  0.1475  0.2587
 1022MOL0     C37856   7.011   2.534   9.708 -0.0225 -0.5616  0.8303
 1022MOL0     C37857   7.027   2.477   9.566  0.8647  0.6072  0.5753
 1022MOL0     C37858   6.924   2.528   9.463  0.4903 -0.4185 -0.0145
 1022MOL0     O37859   6.942   2.668   9.437  0.2993  0.5150 -0.6714
 1022MOL0     C37860   6.847   2.734   9.363  0.1983 -0.9874  0.1257
 1022MOL0     C37861   6.841   2.873   9.381  1.0036 -0.4329 -0.3805
 1022MOL0     C37862   6.745   2.958   9.314  0.0613 -0.2093  0.4131
 1022MOL0     C37863   6.744   3.101   9.331 -0.2428  0.4527 -0.1240
 1022MOL0     C37864   6.638   2.892   9.242  0.3288  0.5175  0.6258
 1022MOL0     C37865   6.518   2.959   9.177 -0.2924  0.2587  0.1467
 1022MOL0     O37866   6.440   2.881   9.090  0.1986  0.1670 -1.0254
 1022MOL0     C37867   6.327   2.946   9.035  0.2278  0.1811  0.3552
 1022MOL0     C37868   6.314   2.935   8.889  0.5505  0.3835  0.2616
 1022MOL0     C37869   6.198   2.995   8.828 -0.2642 -0.2115 -0.5966
 1022MOL0     C37870   6.096   3.061   8.914  0.5055  0.3327  0.2671
 1022MOL0     O37871   5.986   3.120   8.862  0.2046 -0.0807 -0.0205
 1022MOL0     C37872   5.986   3.155   8.722  0.9674 -0.3049 -0.0325
 1022MOL0     C37873   5.853   3.223   8.671  0.0933 -0.0524  0.4721
 1022MOL0     C37874   5.746   3.121   8.701  0.6674 -0.6935 -0.3889
 1022MOL0     C37875   5.611   3.176   8.680  0.3907  0.0157 -0.2656
 1022MOL0     C37876   5.509   3.063   8.647 -0.1211 -0.4377  0.1025
 1022MOL0     C37877   5.383   3.134   8.597 -0.1401  0.2129  0.3525
 1022MOL0     C37878   5.275   3.028   8.560  0.0484 -0.2114  0.5900
 1022MOL0     C37879   5.148   3.108   8.537 -0.2614  0.5413  0.4826
 1022MOL0    Cl37880   5.154   3.231   8.412 -0.5200 -0.2176  0.1012
 1022MOL0     C37881   6.113   3.065   9.052  0.6318  0.6211 -0.0530
 1022MOL0     C37882   6.227   3.010   9.112 -0.2676 -0.9983 -0.0080
 1022MOL0     O37883   6.501   3.080   9.201 -0.3759 -0.0275  0.5614
 1022MOL0     C37884   6.653   2.754   9.215 -0.6516  0.1205 -0.3685
 1022MOL0     C37885   6.753   2.678   9.271 -0.4661  0.8027  0.3329
 1022MOL0     N37886   7.217   2.856   9.607 -1.1573  0.2193  0.5904
 1022MOL0     N37887   7.335   2.846   9.553  0.8546  0.1363  0.1554
 1022MOL0     C37888   8.661   2.662   9.537  0.0507 -0.3739 -0.1803
 1022MOL0     C37889   8.797   2.627   9.542 -0.1511  0.5841  0.2015
 1022MOL0     C37890   9.212   2.504   9.749 -0.0312 -0.3160 -0.6737
 1022MOL0     C37891   9.279   2.404   9.821  0.4165  0.5999 -0.6783
 1022MOL0     C37892   9.415   2.398   9.840 -0.3437 -0.5726  0.5101
 1022MOL0     C37893   9.502   2.497   9.782 -0.1198 -0.3220 -0.2395
 1022MOL0     O37894   9.642   2.491   9.797  0.7669 -0.4803 -0.0289
 1022MOL0     C37895   9.725   2.558   9.700 -0.3132 -0.0961  0.0325
 1022MOL0     C37896   9.876   2.518   9.708 -0.6156  0.2838  0.1293
 1022MOL0     C37897   9.885   2.369   9.683  0.3851  0.4949  0.4986
 1022MOL0     C37898  10.023   2.305   9.703 -0.6351 -0.3151  0.3479
 1022MOL0     C37899  10.035   2.171   9.644 -0.7612  0.4763  0.7526
 1022MOL0     C37900  10.049   2.057   9.606 -0.8688 -0.4417 -0.4573
 1022MOL0     C37901   9.431   2.591   9.698  0.1708 -1.0287  0.3290
 1022MOL0     C37902   9.294   2.597   9.686  0.3313 -0.0074  0.8243
 1022MOL0     H37903   8.850   2.663   9.884 -0.6996 -0.6531  1.2003
 1022MOL0     H37904   8.613   2.740   9.862 -2.5464 -0.6085 -1.1278
 1022MOL0     H37905   8.389   2.565   9.711  1.9761 -0.9437  1.5616
 1022MOL0     H37906   8.371   2.721   9.817  1.5897  2.0960 -1.0713
 1022MOL0     H37907   8.243   2.794   9.603 -1.3333  0.4248  0.2625
 1022MOL0     H37908   8.223   2.622   9.573 -1.1825 -1.3931  0.6262
 1022MOL0     H37909   8.121   2.582   9.801 -1.6950  0.7937  4.0595
 1022MOL0     H37910   8.113   2.766   9.817  2.5566  0.2403 -0.0175
 1022MOL0     H37911   8.005   2.774   9.596  1.6665 -0.4169 -0.1890
 1022MOL0     H37912   8.000   2.601   9.581 -0.6573 -2.3821  1.6633
 1022MOL0     H37913   7.847   2.606   9.796 -0.1551 -1.1947 -1.0233
 1022MOL0     H37914   7.848   2.783   9.787 -0.0100 -0.1387  1.0009
 1022MOL0     H37915   7.801   2.751   9.538 -0.3967  0.1558  0.5261
 1022MOL0     H37916   7.777   2.580   9.574  1.3349 -0.0853 -0.2791
 1022MOL0     H37917   7.590   2.657   9.743 -0.2967  2.0397  1.5767
 1022MOL0     H37918   7.610   2.822   9.666  0.6647 -0.5699 -0.5095
 1022MOL0     H37919   7.516   2.567   9.520  0.3298 -1.0086  2.3369
 1022MOL0     H37920   7.545   2.734   9.455  2.5607  0.3248  0.4952
 1022MOL0     H37921   7.299   2.560   9.712  0.4525  1.5805  3.3796
 1022MOL0     H37922   7.034   2.716   9.827 -0.6398  2.6073 -0.4072
 1022MOL0     H37923   6.975   2.748   9.670 -0.9232 -1.2561 -0.1170
 1022MOL0     H37924   6.908   2.520   9.740 -1.2877 -3.1588 -3.5212
 1022MOL0     H37925   7.073   2.472   9.774 -0.6260 -0.5210  1.4381
 1022MOL0     H37926   7.003   2.371   9.579  0.9566  0.6250  0.9133
 1022MOL0     H37927   7.130   2.479   9.530  0.6026 -1.2250 -0.4039
 1022MOL0     H37928   6.824   2.510   9.502  1.4712 -0.7277  2.6335
 1022MOL0     H37929   6.942   2.469   9.373  6.8913  0.0093  0.4917
 1022MOL0     H37930   6.907   2.916   9.455  0.0088  0.1221  0.1940
 1022MOL0     H37931   6.836   3.140   9.375 -0.1668  0.5624 -0.3718
 1022MOL0     H37932   6.746   3.149   9.232 -0.8848 -0.0914 -0.4026
 1022MOL0     H37933   6.656   3.132   9.387  0.6302  0.4465  1.3069
 1022MOL0     H37934   6.390   2.901   8.820 -0.6119  1.4254 -1.6150
 1022MOL0     H37935   6.181   2.987   8.721 -0.7900 -1.1687 -0.4543
 1022MOL0     H37936   6.060   3.236   8.721 -1.0211  1.6436 -0.9968
 1022MOL0     H37937   6.013   3.076   8.652 -0.2211 -0.2407 -0.5841
 1022MOL0     H37938   5.830   3.305   8.740  0.0114 -2.1604  3.1392
 1022MOL0     H37939   5.853   3.257   8.567  1.5261  2.1439  1.1290
 1022MOL0     H37940   5.766   3.085   8.802  1.8587  0.2513 -0.2674
 1022MOL0     H37941   5.764   3.029   8.644  0.7396 -0.5855 -0.5406
 1022MOL0     H37942   5.590   3.244   8.763 -2.0640 -0.0513 -0.7768
 1022MOL0     H37943   5.623   3.240   8.592  2.9492  1.3871  0.9471
 1022MOL0     H37944   5.496   3.007   8.741  1.1365 -0.1418  0.4733
 1022MOL0     H37945   5.541   3.004   8.561 -0.5473 -1.8878  0.9072
 1022MOL0     H37946   5.339   3.199   8.673 -1.7926 -0.7731  0.2816
 1022MOL0     H37947   5.405   3.203   8.515 -0.4770 -1.2557 -1.0141
 1022MOL0     H37948   5.260   2.964   8.647  2.2508  1.5906  2.4352
 1022MOL0     H37949   5.316   2.982   8.470  0.0335  0.7081  0.0983
 1022MOL0     H37950   5.117   3.145   8.635 -2.6907  0.2590 -0.1020
 1022MOL0     H37951   5.075   3.037   8.496  2.5022 -1.2148 -1.7344
 1022MOL0     H37952   6.033   3.105   9.113  0.0758 -1.3373  0.5737
 1022MOL0     H37953   6.241   3.015   9.220 -2.5615 -0.4206  0.2992
 1022MOL0     H37954   6.573   2.697   9.169 -1.0440  0.3767 -0.0211
 1022MOL0     H37955   6.745   2.571   9.262 -4.9858  0.6164  3.1311
 1022MOL0     H37956   8.610   2.651   9.442  0.5454  0.4604 -0.5483
 1022MOL0     H37957   8.850   2.599   9.452 -0.6806 -0.4078  0.1916
 1022MOL0     H37958   9.236   2.318   9.869  1.6684  0.5063  0.3298
 1022MOL0     H37959   9.466   2.325   9.901  0.1801 -0.5298  0.1313
 1022MOL0     H37960   9.697   2.540   9.595  0.5390 -0.1439 -0.1968
 1022MOL0     H37961   9.730   2.666   9.719  2.4548  0.1140 -1.3089
 1022MOL0     H37962   9.904   2.555   9.807 -4.2390  1.6430  0.8170
 1022MOL0     H37963   9.939   2.581   9.644  1.7106  0.5182  2.4847
 1022MOL0     H37964   9.861   2.339   9.581 -0.0446  0.8231  0.5029
 1022MOL0     H37965   9.813   2.329   9.755  0.7448  1.6012  1.5052
 1022MOL0     H37966  10.043   2.302   9.811  2.4317 -0.3891 -0.1205
 1022MOL0     H37967  10.095   2.373   9.656 -1.3155 -1.1679 -2.0896
 1022MOL0     H37968  10.073   1.960   9.568 -0.9937 -0.5154 -0.3479
 1022MOL0     H37969   9.492   2.660   9.640 -1.8490  1.4925  1.0379
 1022MOL0     H37970   9.253   2.677   9.626 -0.5574 -1.5126 -0.6252
 1023MOL0     O37971   3.506   5.393   5.757 -0.9174 -0.5071  0.5882
 1023MOL0     C37972   3.498   5.466   5.855 -0.4057  0.6955 -0.9255
 1023MOL0     O37973   3.381   5.495   5.916  0.0843 -0.0036  0.1234
 1023MOL0     C37974   3.267   5.438   5.870 -0.1091 -0.0166 -0.2427
 1023MOL0     C37975   3.229   5.459   5.737  0.0405 -0.2258 -0.7633
 1023MOL0     C37976   3.107   5.400   5.691 -0.1790 -0.0380  0.4021
 1023MOL0     C37977   3.027   5.315   5.771 -0.0229  0.0148  0.5588
 1023MOL0     O37978   2.905   5.262   5.738  0.3923 -0.5361  0.0959
 1023MOL0     C37979   2.896   5.207   5.607 -0.2134  0.2558  0.0436
 1023MOL0     C37980   2.807   5.081   5.638  0.1277 -0.2208 -0.8699
 1023MOL0     C37981   2.655   5.103   5.670 -0.0959  0.5136  1.3486
 1023MOL0     C37982   2.578   5.158   5.552  0.3338 -0.1711  0.9257
 1023MOL0     C37983   2.432   5.159   5.588  0.3938  0.7420  0.5599
 1023MOL0     C37984   2.349   5.178   5.464 -0.1123  0.0741 -0.6582
 1023MOL0     C37985   2.204   5.225   5.513 -0.0013  0.5179 -0.0395
 1023MOL0     C37986   2.096   5.110   5.488  0.0289 -1.1035 -0.0680
 1023MOL0     N37987   2.120   4.991   5.572  0.5627 -0.7009 -0.7873
 1023MOL0     C37988   2.091   4.869   5.523  0.8315  0.2080 -0.6802
 1023MOL0     C37989   2.055   4.789   5.622  0.2956  0.3929  0.4494
 1023MOL0     C37990   2.000   4.654   5.602  0.0083 -0.2883 -0.1133
 1023MOL0     C37991   1.847   4.640   5.630  0.3021 -0.6189  0.4994
 1023MOL0     C37992   1.759   4.672   5.505 -0.7169 -0.0636  0.7135
 1023MOL0     C37993   1.642   4.770   5.523 -0.3923  0.6052  0.1227
 1023MOL0     O37994   1.565   4.770   5.403  0.2193  0.2611 -0.2875
 1023MOL0     C37995   1.431   4.804   5.407 -0.5722  0.5460  0.2034
 1023MOL0     C37996   1.354   4.828   5.523  0.3918  0.7685 -0.1372
 1023MOL0     C37997   1.213   4.850   5.517 -0.4179  0.0766  1.0403
 1023MOL0     C37998   1.129   4.842   5.635 -0.3983  0.0988 -0.3952
 1023MOL0     C37999   1.156   4.874   5.389 -0.3135  0.7164  0.4516
 1023MOL0     C38000   1.014   4.913   5.369  0.4056 -0.1345  0.3239
 1023MOL0     O38001   0.911   4.850   5.437 -0.1568 -0.1706 -0.9738
 1023MOL0     C38002   0.786   4.912   5.446  0.0952  0.2784  0.2264
 1023MOL0     C38003   0.665   4.840   5.414 -0.1839 -0.2761 -0.2239
 1023MOL0     C38004   0.545   4.909   5.409  0.4844  0.2707  0.0218
 1023MOL0     C38005   0.535   5.045   5.456 -0.3100  0.4734  0.5047
 1023MOL0     O38006   0.422   5.129   5.434 -0.9917  0.3442  0.3530
 1023MOL0     C38007   0.291   5.077   5.477 -0.4281 -0.0652  0.1970
 1023MOL0     C38008   0.195   5.190   5.502 -0.0311  0.0971  0.0625
 1023MOL0     C38009   0.084   5.165   5.591 -0.2698 -1.0526  0.1298
 1023MOL0     C38010   0.010   5.292   5.609  0.0559 -0.2087  0.6622
 1023MOL0     C38011  -0.080   5.292   5.731  0.2871 -0.4336 -0.2699
 1023MOL0     C38012  -0.147   5.425   5.753  0.9372 -0.2022  0.2126
 1023MOL0     C38013  -0.216   5.417   5.899  0.6072 -0.3598 -0.2148
 1023MOL0     C38014  -0.293   5.534   5.947 -0.7554  0.0938 -0.5697
 1023MOL0    Cl38015  -0.330   5.512   6.124  0.0408  0.3729  0.0754
 1023MOL0     C38016   0.650   5.102   5.517 -0.5309  0.6313 -0.1494
 1023MOL0     C38017   0.773   5.040   5.502 -0.1999  0.5171  0.2964
 1023MOL0     O38018   1.003   5.025   5.316  0.2586 -0.2587 -0.3613
 1023MOL0     C38019   1.238   4.878   5.277  0.5395 -0.0282  0.3812
 1023MOL0     C38020   1.365   4.819   5.287 -0.4004 -0.1583  1.1848
 1023MOL0     N38021   2.066   4.864   5.745 -0.3750  0.0444 -0.6323
 1023MOL0     N38022   2.100   4.989   5.712  0.2519  0.1333  1.1329
 1023MOL0     C38023   3.077   5.286   5.894 -0.2688  0.9597  0.8412
 1023MOL0     C38024   3.184   5.345   5.945  0.0949  0.4575 -0.5154
 1023MOL0     C38025   3.619   5.519   5.921 -1.1967 -0.2552 -0.1926
 1023MOL0     C38026   3.727   5.536   5.839 -0.4887  0.0788  0.0838
 1023MOL0     C38027   3.847   5.598   5.886 -0.6145 -0.6084  0.4661
 1023MOL0     C38028   3.855   5.665   6.007 -0.4945  0.3120 -1.2259
 1023MOL0     O38029   3.974   5.729   6.051 -0.5989  0.0840 -0.0499
 1023MOL0     C38030   3.979   5.820   6.161 -0.5980  0.0995  0.5948
 1023MOL0     C38031   4.118   5.887   6.169 -0.5189 -0.0633  0.4415
 1023MOL0     C38032   4.224   5.814   6.255 -0.1878  0.0556  1.1080
 1023MOL0     C38033   4.354   5.876   6.276 -0.7617  0.7122 -0.0204
 1023MOL0     C38034   4.431   5.913   6.159 -0.0500  0.9799 -0.8858
 1023MOL0     C38035   4.501   5.929   6.060  0.3910  0.1460 -0.1340
 1023MOL0     C38036   3.740   5.643   6.089 -0.2950 -0.2051  0.6435
 1023MOL0     C38037   3.617   5.575   6.051 -0.8364 -0.0860 -0.1756
 1023MOL0     H38038   3.280   5.516   5.659  0.2166  0.3768 -0.2118
 1023MOL0     H38039   3.073   5.425   5.591  0.5712  0.0546  0.1614
 1023MOL0     H38040   2.845   5.276   5.539 -3.5620 -0.0844  2.0179
 1023MOL0     H38041   2.987   5.171   5.558 -1.5340 -3.6549  0.1121
 1023MOL0     H38042   2.812   5.010   5.555 -1.9534 -2.0884  0.4949
 1023MOL0     H38043   2.848   5.036   5.728 -1.1768  1.5526  0.7070
 1023MOL0     H38044   2.614   5.015   5.721  2.6330  0.0855  3.0134
 1023MOL0     H38045   2.659   5.182   5.745  1.0327 -0.3741  2.2577
 1023MOL0     H38046   2.612   5.259   5.528  1.6598 -0.6467  0.6711
 1023MOL0     H38047   2.591   5.094   5.464 -1.2184 -2.5811  2.3238
 1023MOL0     H38048   2.397   5.062   5.626 -0.7947  0.6848 -0.6004
 1023MOL0     H38049   2.429   5.233   5.669  1.0712  1.3151  0.0745
 1023MOL0     H38050   2.382   5.262   5.402  1.8678  0.7971  1.2762
 1023MOL0     H38051   2.350   5.087   5.404  0.0646  0.7653 -1.7383
 1023MOL0     H38052   2.202   5.242   5.621 -2.2237 -1.7981  0.3824
 1023MOL0     H38053   2.185   5.313   5.450  2.9837  0.4115 -1.2292
 1023MOL0     H38054   2.107   5.079   5.384  0.6929  0.2951 -0.4411
 1023MOL0     H38055   1.993   5.145   5.503 -0.7213 -1.6430 -3.3141
 1023MOL0     H38056   2.093   4.841   5.418  1.0927  2.3732 -1.3022
 1023MOL0     H38057   2.022   4.613   5.503 -0.7778 -4.5185  1.2748
 1023MOL0     H38058   2.059   4.602   5.678 -0.0599 -0.6418 -0.3011
 1023MOL0     H38059   1.826   4.717   5.704  3.7161  2.0339 -1.0031
 1023MOL0     H38060   1.820   4.543   5.672 -1.5196 -0.2001  0.3860
 1023MOL0     H38061   1.723   4.578   5.461 -0.5108  0.4331 -0.5477
 1023MOL0     H38062   1.828   4.723   5.438 -0.9111 -0.5989  0.0897
 1023MOL0     H38063   1.675   4.873   5.542 -2.2954  1.1628  0.6116
 1023MOL0     H38064   1.591   4.735   5.614 -0.0088  2.7524  1.2502
 1023MOL0     H38065   1.411   4.830   5.616  0.6582  3.2598 -0.2729
 1023MOL0     H38066   1.062   4.927   5.647 -0.9394 -0.4419  0.5331
 1023MOL0     H38067   1.061   4.757   5.637  1.5139 -1.4944  1.4335
 1023MOL0     H38068   1.187   4.829   5.727  1.3327 -1.4537 -1.6314
 1023MOL0     H38069   0.666   4.732   5.402 -1.9938 -0.1354 -2.3841
 1023MOL0     H38070   0.448   4.869   5.383 -0.6407  2.3790  0.7087
 1023MOL0     H38071   0.244   5.010   5.404  0.3261  0.3277 -0.6651
 1023MOL0     H38072   0.295   5.008   5.562 -0.8183 -1.7375 -1.0820
 1023MOL0     H38073   0.257   5.275   5.534  1.4337  0.0318 -2.3255
 1023MOL0     H38074   0.155   5.216   5.403 -1.7845  1.5655  1.1176
 1023MOL0     H38075   0.124   5.139   5.689  2.8458 -0.9659 -0.9984
 1023MOL0     H38076   0.015   5.093   5.545 -1.9428  0.1829  0.6195
 1023MOL0     H38077   0.072   5.383   5.609 -2.2779  1.4631  1.0727
 1023MOL0     H38078  -0.053   5.293   5.520 -1.1513  0.5573  1.5001
 1023MOL0     H38079  -0.019   5.272   5.820  0.5306  3.6781  0.7137
 1023MOL0     H38080  -0.158   5.218   5.709 -0.8918  0.8100 -0.4532
 1023MOL0     H38081  -0.079   5.509   5.732 -1.0234  1.4821  0.3082
 1023MOL0     H38082  -0.220   5.439   5.672 -2.4119  0.2746  3.0783
 1023MOL0     H38083  -0.136   5.407   5.973 -0.8708 -0.1279  1.5028
 1023MOL0     H38084  -0.282   5.332   5.920  0.0361  0.2490  0.5163
 1023MOL0     H38085  -0.388   5.545   5.894 -0.7784  0.2206 -0.5019
 1023MOL0     H38086  -0.226   5.618   5.927  0.6653  0.9950  5.9613
 1023MOL0     H38087   0.642   5.203   5.555  0.6754  1.2874 -1.5522
 1023MOL0     H38088   0.868   5.087   5.526  1.1661 -1.1575 -1.4754
 1023MOL0     H38089   1.196   4.903   5.181 -0.8057  1.0830  1.2090
 1023MOL0     H38090   1.423   4.788   5.201  1.1098  0.0056  2.1126
 1023MOL0     H38091   3.017   5.219   5.955  1.8207 -1.6224  0.2449
 1023MOL0     H38092   3.216   5.320   6.045  0.7579  2.8436 -0.0848
 1023MOL0     H38093   3.730   5.494   5.739 -1.7157  0.9055 -0.3144
 1023MOL0     H38094   3.929   5.622   5.819  1.1761  2.2676  3.3728
 1023MOL0     H38095   3.904   5.897   6.139  1.1706  2.2309  1.5799
 1023MOL0     H38096   3.952   5.778   6.258 -0.6623  1.3573  1.1535
 1023MOL0     H38097   4.089   5.983   6.212  2.7782  0.3855  1.9963
 1023MOL0     H38098   4.145   5.904   6.065 -3.0818  0.8736 -0.1498
 1023MOL0     H38099   4.239   5.708   6.230 -0.6814  0.2100  0.0958
 1023MOL0     H38100   4.176   5.811   6.353  2.8473  0.6833  2.7438
 1023MOL0     H38101   4.427   5.816   6.331  0.0509  2.1968  0.5907
 1023MOL0     H38102   4.341   5.960   6.345 -0.0728 -1.0763  2.4010
 1023MOL0     H38103   4.571   5.930   5.979 -0.4422 -0.3224 -0.8728
 1023MOL0     H38104   3.746   5.678   6.192 -1.2054  0.4880  0.4709
 1023MOL0     H38105   3.529   5.559   6.113 -1.6964 -0.7776 -1.5215
 1024MOL0     O38106   8.149   5.356   1.106 -0.1624  0.5593 -0.0922
 1024MOL0     C38107   8.204   5.466   1.116 -1.3116  0.7531  0.0270
 1024MOL0     O38108   8.160   5.582   1.057  0.3801 -0.2296 -0.0173
 1024MOL0     C38109   8.039   5.584   0.983 -0.5037  0.7048  0.7204
 1024MOL0     C38110   8.000   5.713   0.944 -0.7868  0.2347 -0.4263
 1024MOL0     C38111   7.899   5.741   0.856  0.4917 -1.1069  0.1116
 1024MOL0     C38112   7.837   5.633   0.790 -0.0014 -0.4866  0.2584
 1024MOL0     O38113   7.741   5.643   0.699  0.1766 -0.7292 -0.5247
 1024MOL0     C38114   7.767   5.733   0.588  0.6929  0.3847 -0.7000
 1024MOL0     C38115   7.632   5.760   0.524  0.3055  0.1001  0.4518
 1024MOL0     C38116   7.569   5.631   0.467 -0.1414 -0.6571  0.3622
 1024MOL0     C38117   7.418   5.638   0.455  0.4219 -0.0382 -0.2443
 1024MOL0     C38118   7.352   5.510   0.398  0.7199 -0.4406 -0.2440
 1024MOL0     C38119   7.396   5.369   0.466  0.7030 -0.0252 -0.2298
 1024MOL0     C38120   7.307   5.353   0.595 -1.0438 -0.1935  0.4851
 1024MOL0     C38121   7.170   5.314   0.559 -0.1485 -0.1477 -0.7267
 1024MOL0     N38122   7.073   5.350   0.666 -0.3470 -0.0103 -0.4740
 1024MOL0     C38123   7.058   5.275   0.778  0.2955  1.1176 -0.1300
 1024MOL0     C38124   6.952   5.317   0.836 -0.6740  0.4503 -0.0918
 1024MOL0     C38125   6.897   5.269   0.969  0.3089  0.2200  0.1805
 1024MOL0     C38126   6.767   5.196   0.949  0.3069 -0.1695 -0.1812
 1024MOL0     C38127   6.779   5.042   0.931 -0.3539 -0.6034  0.0228
 1024MOL0     C38128   6.632   4.986   0.929  0.4424  0.2412  0.3525
 1024MOL0     O38129   6.575   4.976   1.053 -0.3555  0.4928 -0.0731
 1024MOL0     C38130   6.434   4.954   1.061  0.0490 -1.0147 -0.0315
 1024MOL0     C38131   6.377   4.989   1.182 -0.4719  0.1146 -0.5207
 1024MOL0     C38132   6.239   4.997   1.198 -0.1948  0.6371  0.3582
 1024MOL0     C38133   6.189   5.074   1.320 -0.1490  0.1768 -0.5153
 1024MOL0     C38134   6.157   4.948   1.097 -0.4593 -1.0786 -0.1061
 1024MOL0     C38135   6.018   4.943   1.125 -0.0133 -0.2793 -0.3168
 1024MOL0     O38136   5.929   5.014   1.052 -0.5706 -0.6306 -0.0963
 1024MOL0     C38137   5.795   5.013   1.054  0.1533  0.7594  0.2292
 1024MOL0     C38138   5.723   4.938   0.957  0.4068 -0.0529  0.0871
 1024MOL0     C38139   5.576   4.928   0.971 -0.3407  0.0399 -0.1693
 1024MOL0     C38140   5.510   5.018   1.065 -0.0000  0.3498  1.0072
 1024MOL0     O38141   5.377   5.041   1.066 -0.2062  0.0866  0.1782
 1024MOL0     C38142   5.309   5.140   1.141  0.5512  0.6556 -0.6259
 1024MOL0     C38143   5.168   5.163   1.079 -0.1998 -0.1655 -1.4335
 1024MOL0     C38144   5.093   5.029   1.099  0.0008  0.6569 -0.0533
 1024MOL0     C38145   4.935   5.053   1.085  0.6102  0.5776  0.3364
 1024MOL0     C38146   4.863   4.910   1.104 -0.5032  0.4373 -1.4601
 1024MOL0     C38147   4.719   4.942   1.139  0.6908  0.0844  0.6267
 1024MOL0     C38148   4.650   4.976   1.002 -0.3577  0.4231 -0.2046
 1024MOL0     C38149   4.493   4.963   1.023 -0.3869 -0.5540 -0.3662
 1024MOL0    Cl38150   4.422   5.007   0.868  0.2606 -0.5989  0.2143
 1024MOL0     C38151   5.589   5.098   1.150 -1.1640  0.3220 -0.3887
 1024MOL0     C38152   5.727   5.088   1.151 -0.6359  0.2633  0.2799
 1024MOL0     O38153   5.988   4.877   1.228 -0.0883 -0.1249 -0.1172
 1024MOL0     C38154   6.210   4.898   0.981 -0.2758 -0.3238  0.1576
 1024MOL0     C38155   6.352   4.911   0.950 -0.0143 -0.2881 -0.0627
 1024MOL0     N38156   6.897   5.427   0.762  0.0645  0.7908 -0.7883
 1024MOL0     N38157   6.985   5.449   0.660 -0.1111  0.6308 -0.1772
 1024MOL0     C38158   7.858   5.509   0.842 -0.9840 -0.2436  0.0086
 1024MOL0     C38159   7.958   5.478   0.929 -0.7070 -0.4227 -0.2304
 1024MOL0     C38160   8.344   5.463   1.173 -0.2203  0.0602 -0.0723
 1024MOL0     C38161   8.424   5.586   1.162 -0.2936  0.4397 -0.4510
 1024MOL0     C38162   8.553   5.587   1.204  0.1545 -0.5695 -0.0796
 1024MOL0     C38163   8.610   5.468   1.264 -1.0398 -0.0557  0.7255
 1024MOL0     O38164   8.738   5.491   1.304  0.0986 -0.7592  0.2303
 1024MOL0     C38165   8.810   5.369   1.340 -0.3143 -0.4827 -0.2066
 1024MOL0     C38166   8.960   5.410   1.350  1.0241  0.6024  0.0779
 1024MOL0     C38167   8.998   5.454   1.491  0.8286 -0.4271 -0.4248
 1024MOL0     C38168   9.141   5.517   1.485 -0.0335  0.0249 -0.5358
 1024MOL0     C38169   9.198   5.569   1.610 -0.1141  0.2487  0.0973
 1024MOL0     C38170   9.247   5.599   1.718 -0.2769 -0.0384  0.3749
 1024MOL0     C38171   8.531   5.348   1.272  0.8967  0.3336  1.3926
 1024MOL0     C38172   8.400   5.348   1.224 -0.1543  0.4025  0.2870
 1024MOL0     H38173   8.054   5.798   0.983 -2.0093 -0.6479  3.5920
 1024MOL0     H38174   7.876   5.843   0.828  4.1135  0.0844  0.9714
 1024MOL0     H38175   7.809   5.828   0.623  1.7912 -0.4863  0.4862
 1024MOL0     H38176   7.839   5.695   0.514  2.2363  1.7598  0.0161
 1024MOL0     H38177   7.564   5.807   0.596  0.0279  0.3443  0.0318
 1024MOL0     H38178   7.632   5.840   0.450 -1.9703  0.8693  1.1842
 1024MOL0     H38179   7.618   5.602   0.374 -0.7380  1.8042 -0.8120
 1024MOL0     H38180   7.587   5.554   0.543 -3.1149 -0.2318  1.6531
 1024MOL0     H38181   7.387   5.649   0.560  1.1804  4.1723 -0.2749
 1024MOL0     H38182   7.389   5.732   0.408  0.3939 -0.1290 -0.4081
 1024MOL0     H38183   7.244   5.528   0.393  0.6908 -0.9772 -3.0500
 1024MOL0     H38184   7.382   5.503   0.293  1.7528 -2.0137  0.1141
 1024MOL0     H38185   7.366   5.283   0.406  0.4557 -2.5114  3.1683
 1024MOL0     H38186   7.502   5.361   0.491  0.2652 -0.9257  1.4334
 1024MOL0     H38187   7.351   5.293   0.675 -1.0386 -0.3312  0.3797
 1024MOL0     H38188   7.291   5.452   0.639 -0.3716 -0.4337  1.2982
 1024MOL0     H38189   7.154   5.207   0.539 -1.3891 -0.0970 -0.1422
 1024MOL0     H38190   7.135   5.358   0.465 -2.3957  3.2507  1.4779
 1024MOL0     H38191   7.107   5.184   0.813 -0.4378  0.3604 -1.0113
 1024MOL0     H38192   6.972   5.213   1.026  0.8893  2.1315  1.4117
 1024MOL0     H38193   6.872   5.357   1.029 -0.9271  1.0529 -1.4668
 1024MOL0     H38194   6.718   5.245   0.865 -0.2628  2.8464  1.7882
 1024MOL0     H38195   6.704   5.222   1.034 -0.6319 -0.6977 -0.6971
 1024MOL0     H38196   6.831   5.004   1.019  3.5458 -0.7859 -2.1228
 1024MOL0     H38197   6.837   5.028   0.839 -1.1641 -0.1793 -0.5671
 1024MOL0     H38198   6.652   4.891   0.880  2.5888  0.4115  0.7814
 1024MOL0     H38199   6.572   5.050   0.863  2.0065  0.7386 -0.6510
 1024MOL0     H38200   6.449   5.023   1.256 -2.2014 -3.2134  3.0575
 1024MOL0     H38201   6.278   5.111   1.372 -0.9378  2.8267 -0.9008
 1024MOL0     H38202   6.134   5.160   1.279 -1.2170  0.7414  1.9239
 1024MOL0     H38203   6.133   5.008   1.387 -0.4691 -0.6178 -1.5525
 1024MOL0     H38204   5.766   4.865   0.888 -3.4977  0.5349 -3.3244
 1024MOL0     H38205   5.520   4.860   0.908  1.2923 -2.0133  0.4502
 1024MOL0     H38206   5.294   5.105   1.244 -2.2717  0.2413 -1.0737
 1024MOL0     H38207   5.371   5.229   1.142 -1.2609  1.9741 -0.9166
 1024MOL0     H38208   5.127   5.246   1.137 -0.9135 -0.3370 -1.6766
 1024MOL0     H38209   5.176   5.182   0.971 -0.0194 -1.2574 -1.6328
 1024MOL0     H38210   5.111   4.985   1.198  0.1240  2.0531  0.5757
 1024MOL0     H38211   5.129   4.958   1.025  1.6765  1.3963  0.0002
 1024MOL0     H38212   4.905   5.119   1.167 -4.3832 -0.4250 -0.3968
 1024MOL0     H38213   4.909   5.103   0.992 -0.9696  1.3799  1.1706
 1024MOL0     H38214   4.907   4.861   1.191 -1.3303  0.6397 -0.9195
 1024MOL0     H38215   4.874   4.852   1.012 -0.5976 -1.8309 -0.1044
 1024MOL0     H38216   4.655   4.868   1.187 -1.0007 -0.0237 -1.6184
 1024MOL0     H38217   4.702   5.026   1.206 -1.3954  1.2028 -1.1674
 1024MOL0     H38218   4.675   4.903   0.925 -2.1623  1.3196 -1.7155
 1024MOL0     H38219   4.682   5.072   0.960  2.8430 -0.8871 -1.0722
 1024MOL0     H38220   4.468   5.025   1.110  3.6207  2.5173 -1.0671
 1024MOL0     H38221   4.465   4.859   1.041 -0.8442 -0.5842 -1.2155
 1024MOL0     H38222   5.544   5.159   1.228  1.0578  0.6475  0.7268
 1024MOL0     H38223   5.792   5.144   1.218  0.9296 -0.6041 -0.4332
 1024MOL0     H38224   6.136   4.872   0.906 -0.1108 -0.7406  0.1345
 1024MOL0     H38225   6.383   4.878   0.851  2.8459 -0.1549  0.7047
 1024MOL0     H38226   7.797   5.424   0.815 -1.1082 -0.7862  1.8507
 1024MOL0     H38227   7.960   5.370   0.940 -1.2940 -0.3966  0.2133
 1024MOL0     H38228   8.386   5.670   1.104  1.9486  1.9193  0.1040
 1024MOL0     H38229   8.598   5.685   1.211 -1.7739  0.2969  0.7303
 1024MOL0     H38230   8.779   5.319   1.432  0.4660 -0.8716 -0.1479
 1024MOL0     H38231   8.806   5.297   1.258 -0.6197 -0.6915 -0.0145
 1024MOL0     H38232   8.976   5.486   1.273 -1.0812  2.9316  1.7509
 1024MOL0     H38233   9.019   5.323   1.322  2.9442  1.4025  1.3632
 1024MOL0     H38234   8.993   5.368   1.559 -0.2387  0.7157  1.0019
 1024MOL0     H38235   8.934   5.533   1.530 -0.4817 -0.7286 -1.8505
 1024MOL0     H38236   9.136   5.603   1.417  0.0638 -2.4039 -3.8827
 1024MOL0     H38237   9.214   5.445   1.447  1.8810  0.6752  1.7538
 1024MOL0     H38238   9.290   5.638   1.808 -1.1725  1.3419  0.2267
 1024MOL0     H38239   8.569   5.250   1.298 -5.6007 -3.5659 -1.2264
 1024MOL0     H38240   8.339   5.258   1.228  0.8707 -0.2627  1.8534
  11.38528  11.38528  11.38528
